Converted from moscito
15120
    1poe    c31    1   5.982   3.362   1.909  0.0586  0.6369  0.1990
    1poe     o2    2   5.890   3.335   2.012 -0.2059 -0.2449 -0.2611
    1poe    c23    3   5.775   3.417   2.001  0.0253  0.1281  0.0885
    1poe    c23    4   5.662   3.337   2.069  0.0122 -0.2344 -0.3551
    1poe     o2    5   5.705   3.305   2.199 -0.0060  0.3567 -0.2038
    1poe    c23    6   5.659   3.181   2.246  0.5379  0.0316 -0.5112
    1poe    c23    7   5.755   3.133   2.357 -0.4291  0.0705  0.3609
    1poe     o2    8   5.876   3.150   2.288 -0.3814 -0.1751  0.3833
    1poe    c23    9   5.979   3.094   2.367 -0.3164 -0.3213  0.1968
    1poe    c23   10   6.115   3.122   2.302 -0.3002  0.3075  0.4862
    1poe     o2   11   6.099   3.242   2.229 -0.1764 -0.1259 -0.2701
    1poe    c31   12   6.211   3.262   2.147  0.1743  0.2609  0.3004
    2poe    c31   13   2.530   4.229   4.905  0.5223  0.6435 -0.1414
    2poe     o2   14   2.602   4.269   5.019 -0.0038  0.4585  0.2569
    2poe    c23   15   2.732   4.223   4.990 -0.1336 -0.0960  0.5483
    2poe    c23   16   2.825   4.235   5.113  0.4839 -0.0294  0.0759
    2poe     o2   17   2.821   4.369   5.155 -0.2314 -0.1373  0.3625
    2poe    c23   18   2.948   4.395   5.212  0.1584 -0.2200 -0.4460
    2poe    c23   19   2.937   4.537   5.272 -0.0836 -0.3902 -0.0831
    2poe     o2   20   2.911   4.536   5.411 -0.3004 -0.1549 -0.1229
    2poe    c23   21   2.927   4.667   5.463  0.5181 -0.0340 -0.6550
    2poe    c23   22   2.933   4.669   5.617 -0.6071  0.2673 -0.6076
    2poe     o2   23   2.825   4.594   5.668  0.2206 -0.7209 -0.2877
    2poe    c31   24   2.843   4.591   5.808  0.1950 -0.1157 -0.2704
    3poe    c31   25   4.521   3.475   5.633 -0.2033 -0.0676  0.6905
    3poe     o2   26   4.507   3.556   5.518  0.1159 -0.5003  0.3452
    3poe    c23   27   4.527   3.691   5.554  0.4337 -0.6686  0.8090
    3poe    c23   28   4.405   3.763   5.494  0.8262 -0.1233  0.6555
    3poe     o2   29   4.375   3.708   5.367 -0.3707  0.1182  0.8198
    3poe    c23   30   4.246   3.755   5.338 -0.3862 -0.2846  0.2241
    3poe    c23   31   4.210   3.671   5.214 -0.4685  0.0391  0.0279
    3poe     o2   32   4.234   3.535   5.240 -0.0486 -0.0159 -0.6131
    3poe    c23   33   4.149   3.469   5.331  0.0330  0.5168 -0.1473
    3poe    c23   34   4.225   3.346   5.384 -0.4162  0.4143  0.2635
    3poe     o2   35   4.364   3.365   5.397 -0.4261  0.4093  0.3870
    3poe    c31   36   4.429   3.247   5.355 -0.1990  0.4940  0.4987
    4poe    c31   37   3.960   5.529   4.959 -0.1303  0.2639  0.5678
    4poe     o2   38   4.023   5.568   5.079 -0.0711 -0.3800  0.7543
    4poe    c23   39   4.159   5.606   5.073 -0.2438  0.0521 -0.6637
    4poe    c23   40   4.194   5.694   5.194 -0.8377 -1.0100  0.3001
    4poe     o2   41   4.115   5.811   5.196  0.1495 -0.3152 -0.1562
    4poe    c23   42   4.014   5.797   5.294  0.2051 -0.4619 -0.1192
    4poe    c23   43   3.974   5.934   5.352 -0.8190 -0.5827 -0.5083
    4poe     o2   44   3.975   6.006   5.231  0.0194 -0.0069 -0.1723
    4poe    c23   45   3.950   6.142   5.261  0.3131  0.0484 -0.1781
    4poe    c23   46   3.993   6.222   5.137  0.5555  0.4849  0.1831
    4poe     o2   47   4.115   6.166   5.094  0.4198  0.0202  0.3932
    4poe    c31   48   4.181   6.263   5.016 -0.0540  0.4569  0.5284
    5poe    c31   49   5.153   4.148   0.672 -0.8192 -0.2090  0.0277
    5poe     o2   50   5.193   4.279   0.639  0.3338 -0.5582  0.0208
    5poe    c23   51   5.265   4.282   0.517  0.3924 -0.0260  0.0680
    5poe    c23   52   5.333   4.420   0.518  0.1522  0.1007 -0.5969
    5poe     o2   53   5.239   4.515   0.562 -0.2136 -0.2988 -0.5081
    5poe    c23   54   5.284   4.649   0.568 -0.4427 -0.2417  0.0470
    5poe    c23   55   5.327   4.660   0.715  0.1347  0.3416 -0.1628
    5poe     o2   56   5.220   4.594   0.778  0.0291  0.9313  0.2869
    5poe    c23   57   5.251   4.549   0.908  0.0681 -0.5454 -0.2162
    5poe    c23   58   5.124   4.481   0.962 -0.1491  0.1196  0.1099
    5poe     o2   59   5.077   4.388   0.868  0.1079  0.0345  0.0644
    5poe    c31   60   4.975   4.316   0.933 -0.2041 -0.2046 -0.6757
    6poe    c31   61   6.390   6.445   3.931  0.1895 -0.4284  0.1243
    6poe     o2   62   6.299   6.519   3.853  0.4953 -0.3376 -0.1504
    6poe    c23   63   6.367   6.618   3.779  0.9647 -0.3876  0.2075
    6poe    c23   64   6.275   6.668   3.666  0.5126  0.0815  0.7729
    6poe     o2   65   6.158   6.675   3.743 -0.0476  0.1741 -0.0753
    6poe    c23   66   6.040   6.691   3.667 -0.1624  0.5319  0.1789
    6poe    c23   67   5.910   6.654   3.742 -0.1096  0.1554  0.0854
    6poe     o2   68   5.945   6.565   3.845 -0.1521  0.1617  0.1051
    6poe    c23   69   5.854   6.541   3.950 -0.1895  0.1428  0.0687
    6poe    c23   70   5.931   6.518   4.082 -0.2473  0.1244  0.0992
    6poe     o2   71   6.050   6.453   4.041 -0.2679 -0.1122  0.4123
    6poe    c31   72   6.106   6.377   4.146 -0.0213  0.3479  0.6181
    7poe    c31   73   6.158   4.953   1.475 -0.4541 -0.1638 -0.5166
    7poe     o2   74   6.211   4.823   1.460 -0.4988 -0.3097  0.5221
    7poe    c23   75   6.157   4.759   1.348 -0.0170  0.0855  0.0556
    7poe    c23   76   6.258   4.647   1.315 -0.2139 -0.1989  0.4047
    7poe     o2   77   6.278   4.567   1.429 -0.1579 -0.2566  0.3539
    7poe    c23   78   6.383   4.472   1.420 -0.1199 -0.1857  0.0301
    7poe    c23   79   6.421   4.444   1.566  0.0301 -0.4240 -0.0554
    7poe     o2   80   6.424   4.567   1.635  0.1185 -0.1406 -0.5637
    7poe    c23   81   6.538   4.600   1.710 -0.4283  0.1000  0.1693
    7poe    c23   82   6.514   4.740   1.769  0.3261  0.3713 -0.1486
    7poe     o2   83   6.446   4.815   1.670 -0.6086 -0.9076 -0.4998
    7poe    c31   84   6.463   4.954   1.682 -0.1283 -0.9003 -1.2189
    8poe    c31   85   4.572   3.033   2.750  0.0790 -0.0335  0.2457
    8poe     o2   86   4.573   3.024   2.890 -0.2670  0.1530  0.2602
    8poe    c23   87   4.442   3.021   2.944 -0.0801  0.5020  0.7347
    8poe    c23   88   4.428   3.022   3.097  0.1583  0.6530  0.7570
    8poe     o2   89   4.470   2.911   3.173 -0.2754  0.2227  0.3725
    8poe    c23   90   4.532   2.951   3.293  0.1742  0.2379  0.1381
    8poe    c23   91   4.610   2.847   3.375  0.1549 -0.3297 -0.5601
    8poe     o2   92   4.708   2.777   3.302  0.1314 -0.4358 -0.4899
    8poe    c23   93   4.817   2.733   3.381 -0.0047  0.3695  0.1605
    8poe    c23   94   4.912   2.633   3.313 -0.1238 -0.0207  0.5639
    8poe     o2   95   4.828   2.545   3.243  0.5700  0.0458 -0.3794
    8poe    c31   96   4.881   2.415   3.228 -0.0239 -0.2501  0.0227
    9poe    c31   97   5.113   0.566   2.444  0.1959 -0.5081 -0.2850
    9poe     o2   98   5.221   0.593   2.358  0.1405 -0.5128 -0.3560
    9poe    c23   99   5.176   0.659   2.242  0.2528  0.2906  0.0504
    9poe    c23  100   5.254   0.601   2.122 -0.5527 -0.6628 -0.0209
    9poe     o2  101   5.386   0.575   2.164 -0.4849 -0.2321  0.0381
    9poe    c23  102   5.456   0.526   2.052 -0.4279  0.6331 -0.3087
    9poe    c23  103   5.604   0.545   2.090 -0.5788  0.9295  0.1360
    9poe     o2  104   5.612   0.551   2.231  0.1502  0.0919  0.1401
    9poe    c23  105   5.707   0.647   2.272  0.5678 -0.2812  0.0588
    9poe    c23  106   5.683   0.678   2.421  0.2900 -0.6451  0.0898
    9poe     o2  107   5.549   0.646   2.451  0.1507  0.0704  0.2560
    9poe    c31  108   5.518   0.679   2.585  1.1273  0.1677  0.4647
   10poe    c31  109   4.239   4.097   2.642  0.7688  0.0977 -0.3320
   10poe     o2  110   4.173   4.190   2.560  0.0982  0.1390  0.2449
   10poe    c23  111   4.041   4.147   2.535  0.1253  0.8648 -1.2989
   10poe    c23  112   3.963   4.279   2.517  0.1607  1.1676  0.5374
   10poe     o2  113   4.005   4.346   2.400  0.6143 -0.0235 -0.0065
   10poe    c23  114   3.947   4.474   2.396 -0.4955 -0.5173  0.0039
   10poe    c23  115   3.985   4.541   2.263 -0.8148  0.0937  0.2113
   10poe     o2  116   3.968   4.448   2.158  0.0997  0.0542  0.0893
   10poe    c23  117   3.997   4.505   2.032 -0.0981  0.1317  0.0779
   10poe    c23  118   3.925   4.408   1.937  0.0484 -0.0937  0.1923
   10poe     o2  119   3.972   4.281   1.975  0.0511 -0.1108  0.1320
   10poe    c31  120   3.928   4.179   1.888 -0.7124  0.3267  0.0008
   11poe    c31  121   2.308   1.992   1.415 -0.5475  0.4525  0.1971
   11poe     o2  122   2.302   1.942   1.283  0.5843  0.5074  0.1158
   11poe    c23  123   2.220   2.031   1.211 -0.3182 -0.4540 -0.0539
   11poe    c23  124   2.248   2.004   1.062 -0.0718 -0.4156 -0.0137
   11poe     o2  125   2.252   1.863   1.052 -0.4788 -0.4351  0.1126
   11poe    c23  126   2.294   1.824   0.924 -0.3762  0.0251  0.0042
   11poe    c23  127   2.347   1.680   0.943 -0.1261  0.0678 -0.3519
   11poe     o2  128   2.435   1.691   1.053 -0.1164 -0.3064 -0.3225
   11poe    c23  129   2.448   1.568   1.121  0.7087 -0.1943 -0.2591
   11poe    c23  130   2.544   1.600   1.238  0.6537  0.2667 -0.3378
   11poe     o2  131   2.475   1.704   1.304  0.4422 -0.0688 -0.0278
   11poe    c31  132   2.536   1.711   1.432 -0.2060 -0.0689  0.2834
   12poe    c31  133   1.039   4.298   3.813  0.4701 -0.2615 -0.4822
   12poe     o2  134   1.061   4.384   3.704 -0.7360  0.7504  0.0546
   12poe    c23  135   1.178   4.461   3.711 -0.5059  0.3881  0.2318
   12poe    c23  136   1.224   4.503   3.570 -0.2938  0.5831  0.3571
   12poe     o2  137   1.143   4.584   3.488  0.2927  0.3659 -0.4433
   12poe    c23  138   1.170   4.722   3.475  0.2899  0.3938 -0.1675
   12poe    c23  139   1.062   4.767   3.375  0.1263  0.0772 -0.1338
   12poe     o2  140   1.066   4.686   3.260  0.7031 -0.0367 -0.0354
   12poe    c23  141   1.029   4.766   3.150 -0.0730 -0.4577 -0.0853
   12poe    c23  142   1.016   4.687   3.019 -0.5838  0.3369 -0.5247
   12poe     o2  143   0.886   4.633   3.006 -0.6894  0.3378  0.4590
   12poe    c31  144   0.892   4.544   2.896  0.7393  0.6145  0.2914
   13poe    c31  145   6.019   6.150   6.747 -0.2726 -0.4345  0.1869
   13poe     o2  146   5.959   6.260   6.813  0.1808  0.0426 -0.1883
   13poe    c23  147   5.839   6.276   6.740  0.0777 -0.0018 -0.0292
   13poe    c23  148   5.804   6.426   6.733  0.2418  0.0514  0.2546
   13poe     o2  149   5.814   6.468   6.867  0.5476 -0.2400  0.3243
   13poe    c23  150   5.799   6.607   6.887 -0.1360 -0.2832  0.1292
   13poe    c23  151   5.878   6.650   7.011 -0.3908 -0.6521  0.4205
   13poe     o2  152   5.988   6.563   7.023 -0.1243 -0.3659  0.0525
   13poe    c23  153   6.107   6.638   7.014 -0.3065 -0.0589  0.2051
   13poe    c23  154   6.216   6.530   6.999  0.3507  0.6492 -0.1958
   13poe     o2  155   6.170   6.416   6.931 -0.0440  0.7460 -0.0940
   13poe    c31  156   6.285   6.335   6.917 -0.5815  0.0923 -0.9072
   14poe    c31  157   4.450   2.722   3.695 -0.3999 -1.1003  0.7383
   14poe     o2  158   4.446   2.632   3.586  0.4076 -0.0517 -0.1786
   14poe    c23  159   4.542   2.531   3.604  0.3975 -0.0542 -0.1385
   14poe    c23  160   4.528   2.435   3.484  0.0355 -0.4800  0.2412
   14poe     o2  161   4.539   2.485   3.353 -0.6741 -0.7767  0.0666
   14poe    c23  162   4.481   2.391   3.265  0.0877 -0.7020 -0.5263
   14poe    c23  163   4.473   2.463   3.129  0.6406  0.3287 -0.0237
   14poe     o2  164   4.593   2.522   3.085  0.6672  0.1333 -0.2104
   14poe    c23  165   4.600   2.546   2.946  0.1672  0.3758 -0.1954
   14poe    c23  166   4.739   2.609   2.925  0.1379  0.5802  0.2020
   14poe     o2  167   4.760   2.702   3.029 -0.0775  0.4068  0.4020
   14poe    c31  168   4.825   2.818   2.983 -0.7402  0.6132 -0.0305
   15poe    c31  169   0.416   5.913   1.121  0.2283 -0.3146  0.1536
   15poe     o2  170   0.424   5.986   1.000  0.3122  0.0979  0.4089
   15poe    c23  171   0.558   5.978   0.956  0.3642  0.0098  0.5828
   15poe    c23  172   0.576   6.095   0.858  0.0617 -0.2715  0.1881
   15poe     o2  173   0.482   6.067   0.757  0.6478  0.5531 -0.5969
   15poe    c23  174   0.468   6.167   0.658 -0.1317  0.9568 -0.0908
   15poe    c23  175   0.335   6.135   0.587  0.1670 -0.0969 -0.1950
   15poe     o2  176   0.246   6.116   0.695 -0.7175  1.0168 -0.7112
   15poe    c23  177   0.115   6.090   0.648 -0.4058 -0.8497 -0.6258
   15poe    c23  178   0.040   6.047   0.776  0.2945 -0.1676  0.0220
   15poe     o2  179   0.124   5.978   0.865 -0.0413 -0.1862  0.3231
   15poe    c31  180   0.058   5.925   0.978  1.0626 -0.7383  0.7234
   16poe    c31  181   2.485   0.982   2.605 -0.0850  0.6405  0.0590
   16poe     o2  182   2.527   0.939   2.478  0.0450  0.0995  0.2832
   16poe    c23  183   2.432   0.845   2.435 -0.2500  0.3823  0.3102
   16poe    c23  184   2.507   0.757   2.332 -0.5014 -0.0485  0.4914
   16poe     o2  185   2.604   0.840   2.272 -0.0562 -0.6122  0.4265
   16poe    c23  186   2.628   0.811   2.136  0.1344  0.2625  0.2693
   16poe    c23  187   2.686   0.944   2.085  0.6295 -0.1414 -0.2325
   16poe     o2  188   2.756   1.014   2.185 -0.2288  0.1948  0.1478
   16poe    c23  189   2.790   1.148   2.154  0.3170  0.0046 -0.1030
   16poe    c23  190   2.838   1.202   2.290  0.2340 -0.2399  0.0246
   16poe     o2  191   2.737   1.153   2.374 -0.4025 -0.0649 -0.6293
   16poe    c31  192   2.744   1.219   2.499  0.7390  0.0764 -0.7623
   17poe    c31  193   0.496   3.405   2.541  0.7091 -0.2242 -0.1245
   17poe     o2  194   0.584   3.484   2.617  0.6445 -0.8817  0.6581
   17poe    c23  195   0.712   3.492   2.560  0.2174  0.3400 -0.1927
   17poe    c23  196   0.820   3.562   2.645 -0.1967  0.8878 -0.1135
   17poe     o2  197   0.797   3.527   2.780 -0.3291  0.2661 -0.2939
   17poe    c23  198   0.873   3.609   2.865  0.0191 -0.3835  0.0354
   17poe    c23  199   0.789   3.622   2.993  0.2944 -0.5184  0.2322
   17poe     o2  200   0.651   3.605   2.966  0.2630 -0.2161  0.1964
   17poe    c23  201   0.569   3.719   2.977 -0.3945 -0.6354 -0.2972
   17poe    c23  202   0.427   3.671   2.942 -0.6125  0.0081 -0.3034
   17poe     o2  203   0.426   3.603   2.819 -0.0439 -0.0936 -0.2540
   17poe    c31  204   0.302   3.616   2.753 -0.2027  0.3024  0.1182
   18poe    c31  205   0.204   0.947   1.556  0.3705 -0.6777  0.1413
   18poe     o2  206   0.249   0.877   1.442 -0.0245 -0.3173 -0.2377
   18poe    c23  207   0.260   0.964   1.332  0.1865  0.2568  0.2357
   18poe    c23  208   0.310   0.892   1.205  0.0731  0.5557  0.0203
   18poe     o2  209   0.445   0.852   1.208  0.0133  0.3563  0.0129
   18poe    c23  210   0.472   0.735   1.133  0.8865  0.4657  0.1543
   18poe    c23  211   0.622   0.754   1.104  0.9938 -0.5746 -0.0034
   18poe     o2  212   0.709   0.784   1.211  0.2928  0.5172  0.2806
   18poe    c23  213   0.837   0.767   1.153 -0.0495  0.6418 -0.5324
   18poe    c23  214   0.963   0.770   1.242 -0.6007 -0.2457  0.3094
   18poe     o2  215   0.987   0.898   1.298 -0.4586 -0.0187 -0.2629
   18poe    c31  216   1.075   0.870   1.404 -0.2920  0.1046 -0.3690
   19poe    c31  217   6.556   1.324   0.811  0.4380  0.1457  0.0005
   19poe     o2  218   6.494   1.210   0.868  0.0457  0.0262 -0.6622
   19poe    c23  219   6.363   1.225   0.818 -0.4051 -0.1570  0.4333
   19poe    c23  220   6.286   1.103   0.872  0.1410 -0.6093  0.1934
   19poe     o2  221   6.336   1.076   1.001  0.2114  0.0737  0.3137
   19poe    c23  222   6.265   0.968   1.057 -0.0299  0.2450  0.3381
   19poe    c23  223   6.361   0.921   1.168 -0.5113  0.0616  0.6839
   19poe     o2  224   6.494   0.934   1.121 -0.3225 -0.4827  1.0503
   19poe    c23  225   6.537   0.818   1.055  0.5107  0.2825  0.2129
   19poe    c23  226   6.671   0.853   0.989  0.0110  0.0001 -0.9831
   19poe     o2  227   6.659   0.977   0.923  0.1345  0.3426 -0.3630
   19poe    c31  228   6.777   0.994   0.848  0.0964 -0.3791 -0.5932
   20poe    c31  229   1.620   3.147   2.455 -0.3960 -0.3417  0.4043
   20poe     o2  230   1.487   3.144   2.501 -0.3385 -0.2220  0.5806
   20poe    c23  231   1.438   3.017   2.462 -0.2633 -0.2532  0.5887
   20poe    c23  232   1.286   3.030   2.480 -0.2965  0.2791 -0.0625
   20poe     o2  233   1.265   3.103   2.599 -0.1942 -0.0123  0.1355
   20poe    c23  234   1.136   3.158   2.604 -0.2520 -0.1020 -0.2646
   20poe    c23  235   1.147   3.254   2.725  0.0449 -0.4292 -0.0311
   20poe     o2  236   1.261   3.332   2.698 -0.1038 -0.0139  0.5112
   20poe    c23  237   1.293   3.433   2.790 -0.3751  0.6595 -0.1217
   20poe    c23  238   1.407   3.514   2.726 -0.2856  0.4737 -0.1967
   20poe     o2  239   1.461   3.415   2.641  0.0476  0.3255  0.1888
   20poe    c31  240   1.592   3.461   2.613  0.0256  0.6043  0.5361
   21poe    c31  241   2.877   1.471   0.345  0.2494  0.2384  0.3842
   21poe     o2  242   2.807   1.401   0.245  0.3042 -0.5677  0.9091
   21poe    c23  243   2.677   1.454   0.234  0.8111  0.5172 -0.0014
   21poe    c23  244   2.606   1.395   0.111  0.1737  0.2329  0.4923
   21poe     o2  245   2.691   1.419   0.000 -0.6214  0.2391 -0.1228
   21poe    c23  246   2.633   1.384  -0.123  0.0310 -0.7619 -0.1538
   21poe    c23  247   2.758   1.400  -0.211 -0.0095  0.0263 -0.0690
   21poe     o2  248   2.862   1.337  -0.141  0.3058  0.5185 -0.0874
   21poe    c23  249   2.916   1.217  -0.193 -0.7147 -0.0002  0.0290
   21poe    c23  250   3.025   1.173  -0.093 -0.2317  0.5878 -0.2302
   21poe     o2  251   2.972   1.219   0.029  0.3008 -0.1992  0.3063
   21poe    c31  252   2.992   1.146   0.148  0.2785  0.3483  0.6491
   22poe    c31  253   0.136   2.740   2.179 -0.1174  0.1686 -0.2721
   22poe     o2  254   0.260   2.801   2.208 -0.2222  0.3531 -0.2128
   22poe    c23  255   0.279   2.842   2.342  0.2239  0.1180 -0.2036
   22poe    c23  256   0.427   2.884   2.347  0.1649  0.2763  0.2153
   22poe     o2  257   0.506   2.767   2.345 -0.5564 -0.2084 -0.2203
   22poe    c23  258   0.613   2.761   2.254 -0.0224 -0.8171  0.4398
   22poe    c23  259   0.569   2.675   2.134 -0.2806 -0.3331  0.1849
   22poe     o2  260   0.460   2.718   2.056 -0.2888 -0.2584  0.2378
   22poe    c23  261   0.475   2.670   1.924 -0.4329  0.0723  0.0998
   22poe    c23  262   0.333   2.695   1.868 -0.4463 -0.8587 -0.3037
   22poe     o2  263   0.294   2.825   1.905 -0.3277 -0.8555 -0.1854
   22poe    c31  264   0.194   2.873   1.817  0.1085  0.5690  0.0675
   23poe    c31  265   3.805   1.129   3.084 -0.4750  0.0952  0.0054
   23poe     o2  266   3.942   1.133   3.117 -0.4720 -0.0333  0.0086
   23poe    c23  267   4.005   1.132   2.991  0.1049 -0.0927  0.2952
   23poe    c23  268   4.092   1.006   2.975  0.5244  0.3619 -1.2108
   23poe     o2  269   4.197   1.004   3.069 -0.3988 -0.2820 -0.1616
   23poe    c23  270   4.213   0.869   3.109 -0.1946 -0.0310  0.6128
   23poe    c23  271   4.198   0.851   3.261 -0.2758  0.3242  0.6485
   23poe     o2  272   4.089   0.928   3.308 -0.4167  0.4679  0.0904
   23poe    c23  273   4.052   0.898   3.440  0.3466 -0.1381  0.1774
   23poe    c23  274   3.917   0.966   3.468  0.4142  0.1243 -0.1347
   23poe     o2  275   3.923   1.100   3.424 -0.0377  0.1610 -0.0973
   23poe    c31  276   3.829   1.176   3.497 -0.2877  0.1997 -0.4597
   24poe    c31  277   0.038   6.397   2.932 -0.7164  0.0550 -0.8247
   24poe     o2  278   0.146   6.468   2.988 -0.5330 -0.3125 -0.7071
   24poe    c23  279   0.117   6.512   3.118 -0.2068 -0.2426 -0.6553
   24poe    c23  280   0.241   6.588   3.169 -0.0018 -0.5904 -0.6335
   24poe     o2  281   0.298   6.648   3.055  0.4412 -0.2616 -0.2415
   24poe    c23  282   0.418   6.710   3.094  0.3078 -0.2160  0.1086
   24poe    c23  283   0.495   6.740   2.964  0.0587  0.0292  0.0157
   24poe     o2  284   0.457   6.639   2.873  0.3253  0.2884 -0.3918
   24poe    c23  285   0.495   6.670   2.741  0.3321  0.0963 -0.4352
   24poe    c23  286   0.457   6.537   2.672  0.2560 -0.1721  0.1173
   24poe     o2  287   0.347   6.481   2.740  0.1352  0.1554  0.1966
   24poe    c31  288   0.285   6.385   2.657  0.3285  0.0512  0.1722
   25poe    c31  289   2.921   3.243   5.110 -0.2826 -0.0431 -0.3469
   25poe     o2  290   2.812   3.321   5.156 -0.0243 -0.2508  0.6299
   25poe    c23  291   2.832   3.310   5.296 -0.4556 -0.3842  0.6826
   25poe    c23  292   2.737   3.402   5.375  0.1454  0.5914  0.2989
   25poe     o2  293   2.603   3.363   5.396  0.3126 -0.1506  0.0302
   25poe    c23  294   2.534   3.459   5.472 -0.5321 -0.2969 -0.5383
   25poe    c23  295   2.555   3.448   5.624 -0.4110 -0.3521 -0.5593
   25poe     o2  296   2.478   3.344   5.679 -0.1309 -0.2653  0.0050
   25poe    c23  297   2.549   3.309   5.796 -0.2875  0.3024  0.2737
   25poe    c23  298   2.443   3.249   5.890 -0.1162  0.3530  0.5005
   25poe     o2  299   2.371   3.156   5.813  0.3190 -0.1536  0.7047
   25poe    c31  300   2.274   3.098   5.897 -0.4950 -0.3238 -0.3345
   26poe    c31  301   4.176   4.944   0.516  0.2559 -0.2837  0.0676
   26poe     o2  302   4.067   4.854   0.523 -0.0609  0.0713 -0.2459
   26poe    c23  303   4.080   4.740   0.605 -0.0720  0.0377 -0.2914
   26poe    c23  304   3.953   4.677   0.665  0.2518 -0.1356  0.2253
   26poe     o2  305   3.880   4.651   0.547  0.2108  0.0008  0.2199
   26poe    c23  306   3.746   4.635   0.587  0.1950 -0.1611  0.1040
   26poe    c23  307   3.680   4.773   0.570 -0.1414 -0.3949 -0.4886
   26poe     o2  308   3.750   4.838   0.466  0.0269 -0.0277 -0.1477
   26poe    c23  309   3.699   4.969   0.455  1.0794  0.5032  1.0963
   26poe    c23  310   3.747   5.027   0.320 -0.6702 -0.6660 -0.0604
   26poe     o2  311   3.872   4.973   0.283 -0.0765  0.5561  0.1111
   26poe    c31  312   3.913   5.016   0.155 -0.7203 -0.1893 -0.3534
   27poe    c31  313   3.164   0.685   2.052 -0.1984  0.7745  0.1401
   27poe     o2  314   3.101   0.606   1.955  0.8906 -0.5367  0.4732
   27poe    c23  315   2.977   0.560   2.006  0.9822 -1.1334  0.1689
   27poe    c23  316   2.887   0.524   1.886  0.7407 -0.0790  0.0228
   27poe     o2  317   2.970   0.477   1.782  0.6798  0.4261 -0.2566
   27poe    c23  318   2.899   0.470   1.660  0.3972  0.1022 -0.0751
   27poe    c23  319   3.016   0.471   1.561 -0.1900  1.0503 -0.7805
   27poe     o2  320   3.091   0.585   1.596  0.5843  0.3323 -0.0701
   27poe    c23  321   3.203   0.613   1.515  0.0467  0.8056 -0.6539
   27poe    c23  322   3.317   0.644   1.613 -0.6095 -0.0873  0.4146
   27poe     o2  323   3.311   0.573   1.735  0.0858 -0.5271  0.2029
   27poe    c31  324   3.421   0.605   1.816 -0.3335  0.2146  0.4966
   28poe    c31  325   0.683   0.886   5.991  0.0511  0.2001  0.4820
   28poe     o2  326   0.809   0.843   5.945 -0.1889 -0.0323  0.0342
   28poe    c23  327   0.873   0.942   5.867  0.0629 -0.1219  0.1244
   28poe    c23  328   0.989   0.895   5.777 -0.1845 -0.1890 -0.1615
   28poe     o2  329   1.047   0.792   5.854 -0.4067 -0.3099 -0.1550
   28poe    c23  330   1.119   0.698   5.778  0.2955 -0.0900  0.2339
   28poe    c23  331   1.031   0.572   5.777  0.0017  0.1187 -0.1736
   28poe     o2  332   0.981   0.556   5.908  0.3631 -0.2240 -0.0761
   28poe    c23  333   0.888   0.451   5.909 -0.2586  0.3238  0.2723
   28poe    c23  334   0.825   0.475   6.047 -0.3285  0.7039  0.1774
   28poe     o2  335   0.792   0.610   6.070 -0.2078  0.7255  0.2266
   28poe    c31  336   0.727   0.609   6.195 -0.9154  0.2634 -0.1376
   29poe    c31  337   5.124   4.213   2.680  0.4307 -0.1072  0.4176
   29poe     o2  338   5.046   4.263   2.786  0.1493 -0.0602  0.1897
   29poe    c23  339   5.088   4.395   2.812  0.2812  0.0068 -0.3576
   29poe    c23  340   5.097   4.430   2.962 -0.5065  0.0413 -0.3137
   29poe     o2  341   4.995   4.355   3.025 -0.1025 -0.4675 -0.2525
   29poe    c23  342   4.992   4.391   3.161  0.5702 -0.2188 -0.2993
   29poe    c23  343   4.854   4.361   3.222  0.4908  0.4509 -0.1455
   29poe     o2  344   4.851   4.222   3.197  0.3146  0.4280  0.0043
   29poe    c23  345   4.736   4.150   3.158 -0.0445  0.6306  0.6655
   29poe    c23  346   4.685   4.197   3.020  0.7007  0.0129  0.1701
   29poe     o2  347   4.771   4.175   2.910  0.0434 -0.5134 -0.2460
   29poe    c31  348   4.695   4.190   2.792  0.2214  0.3129 -0.2603
   30poe    c31  349   5.382   5.792   2.898 -0.2508  0.1900  0.3559
   30poe     o2  350   5.402   5.737   2.770  0.1091  0.7942  0.1477
   30poe    c23  351   5.292   5.749   2.682 -0.2102  0.5000  0.5027
   30poe    c23  352   5.309   5.676   2.548 -0.1028  0.6491  0.4355
   30poe     o2  353   5.440   5.698   2.498 -0.1430 -0.0714  0.0003
   30poe    c23  354   5.467   5.655   2.367  0.1256  0.1208 -0.0074
   30poe    c23  355   5.621   5.659   2.361  0.1528 -0.1874  0.4055
   30poe     o2  356   5.666   5.638   2.492  0.1617 -0.9360  0.2869
   30poe    c23  357   5.802   5.654   2.526  0.1226 -0.5342  0.2531
   30poe    c23  358   5.825   5.645   2.678 -0.0887 -0.4606  0.2903
   30poe     o2  359   5.706   5.698   2.733 -0.0780  0.0729 -0.1912
   30poe    c31  360   5.726   5.719   2.871  0.2233 -0.3902 -0.1604
   31poe    c31  361   5.845   1.585   2.229 -0.0286  0.5398  0.2652
   31poe     o2  362   5.717   1.572   2.172  0.0886  0.2214  0.0735
   31poe    c23  363   5.631   1.521   2.271  0.4470  0.0026  0.2731
   31poe    c23  364   5.492   1.547   2.209  0.5013 -0.4257 -0.0286
   31poe     o2  365   5.496   1.489   2.080 -0.0656 -0.7247  0.0839
   31poe    c23  366   5.382   1.531   2.009  0.3814 -0.2404 -0.3619
   31poe    c23  367   5.406   1.495   1.861  0.6046  0.0661 -0.3991
   31poe     o2  368   5.545   1.506   1.840  0.6170  0.5877 -0.0484
   31poe    c23  369   5.589   1.589   1.735 -0.4562  0.1771 -0.8301
   31poe    c23  370   5.741   1.573   1.752 -0.5615 -0.1026 -0.1463
   31poe     o2  371   5.767   1.602   1.888  0.4542 -0.4230 -0.2646
   31poe    c31  372   5.899   1.650   1.900  0.3049 -0.0744 -0.0062
   32poe    c31  373   5.204   4.208   1.794  0.6357 -0.2544  0.9513
   32poe     o2  374   5.326   4.145   1.766  0.4397 -0.0530 -0.4254
   32poe    c23  375   5.420   4.142   1.871  0.3625  0.4804 -0.3366
   32poe    c23  376   5.533   4.060   1.804 -0.1008 -0.3217 -0.1455
   32poe     o2  377   5.533   4.066   1.663  0.7640  0.0518 -0.1314
   32poe    c23  378   5.640   4.013   1.587  0.7003 -0.4130  0.0989
   32poe    c23  379   5.633   4.066   1.443 -0.4975 -0.3031  0.1869
   32poe     o2  380   5.497   4.068   1.405 -0.5298  0.0327  0.3101
   32poe    c23  381   5.488   4.179   1.318  0.1033 -0.1103  0.0504
   32poe    c23  382   5.364   4.263   1.357  0.3926  0.3926 -0.1136
   32poe     o2  383   5.370   4.262   1.498  0.2223  0.1607 -0.1075
   32poe    c31  384   5.372   4.392   1.551  0.5959  0.0275  0.2116
   33poe    c31  385   3.653   2.655   0.210  0.4247 -0.1657 -0.2993
   33poe     o2  386   3.544   2.575   0.251  0.3731  0.0545 -0.0019
   33poe    c23  387   3.437   2.592   0.161  0.2636  0.5209  0.2157
   33poe    c23  388   3.314   2.504   0.188  0.3700  0.2969 -0.0384
   33poe     o2  389   3.377   2.382   0.219  0.2456  0.3231  0.3177
   33poe    c23  390   3.283   2.286   0.262 -0.0029  0.1735 -0.5363
   33poe    c23  391   3.390   2.188   0.314  0.0734  0.5081 -0.0462
   33poe     o2  392   3.470   2.263   0.402  0.1653  0.0346  0.2768
   33poe    c23  393   3.574   2.190   0.463  0.0531 -0.0534  0.3623
   33poe    c23  394   3.645   2.297   0.549 -0.1058  0.3579 -0.0113
   33poe     o2  395   3.669   2.407   0.464  0.6027  0.3300  0.1455
   33poe    c31  396   3.771   2.490   0.514  0.5810  0.5509 -0.1803
   34poe    c31  397   6.330   1.552   1.581  0.1915  1.1344 -0.0456
   34poe     o2  398   6.386   1.660   1.509  0.5237  0.6971 -0.4429
   34poe    c23  399   6.284   1.735   1.448 -0.2004 -0.1755 -0.3275
   34poe    c23  400   6.345   1.834   1.347 -0.1164 -0.1356 -0.2386
   34poe     o2  401   6.470   1.878   1.394 -0.0720 -0.1276 -0.3641
   34poe    c23  402   6.533   1.980   1.318 -0.4324  0.3988  0.0347
   34poe    c23  403   6.664   2.028   1.382 -0.2055 -0.1919  0.0187
   34poe     o2  404   6.716   1.907   1.433 -0.0809 -0.0348  0.2666
   34poe    c23  405   6.723   1.913   1.574  0.1313  0.3671  0.2392
   34poe    c23  406   6.756   1.772   1.624 -0.4886 -0.1580 -0.7916
   34poe     o2  407   6.653   1.678   1.605 -0.6792 -0.0444 -0.3303
   34poe    c31  408   6.686   1.565   1.681  0.0456  0.5043  0.1756
   35poe    c31  409   5.711   5.786   1.560 -0.2048  0.1865  0.5484
   35poe     o2  410   5.600   5.838   1.492  0.0385 -0.0279 -0.0180
   35poe    c23  411   5.503   5.866   1.590 -0.3368 -0.5675 -0.2285
   35poe    c23  412   5.392   5.960   1.539  0.1383  0.1364  0.0199
   35poe     o2  413   5.347   5.901   1.419  0.0608  0.3289 -0.0458
   35poe    c23  414   5.273   5.991   1.341  0.0926  0.3770 -0.0210
   35poe    c23  415   5.257   5.919   1.206 -0.8278  0.6143 -0.0477
   35poe     o2  416   5.384   5.860   1.188 -0.9979  0.0774  0.4857
   35poe    c23  417   5.396   5.783   1.071 -0.2238  0.4285  0.3255
   35poe    c23  418   5.539   5.727   1.070 -0.4401 -0.1264 -0.5167
   35poe     o2  419   5.586   5.717   1.202 -0.0366  0.1684 -0.6364
   35poe    c31  420   5.719   5.669   1.199 -0.1555 -0.1696 -0.5313
   36poe    c31  421   6.324   1.588   2.237 -0.3164  0.0740 -0.3952
   36poe     o2  422   6.448   1.533   2.273 -0.2612  0.3529 -0.1537
   36poe    c23  423   6.502   1.591   2.390 -0.0362  0.2026 -0.1804
   36poe    c23  424   6.634   1.529   2.439 -0.2192  0.2301  0.3560
   36poe     o2  425   6.705   1.524   2.318 -0.5125 -0.1317  0.1960
   36poe    c23  426   6.834   1.476   2.351 -0.2416  0.7006  0.3830
   36poe    c23  427   6.919   1.448   2.226 -0.2518  0.9514  0.3195
   36poe     o2  428   6.929   1.569   2.154 -0.3862  0.8274  0.0891
   36poe    c23  429   7.014   1.545   2.044 -0.3446 -0.0552  0.3038
   36poe    c23  430   7.037   1.679   1.971  0.2941 -0.3154  0.0245
   36poe     o2  431   7.115   1.783   2.025 -0.4304  0.0380  0.3984
   36poe    c31  432   7.253   1.762   2.044 -0.4316 -0.1390  0.2116
   37poe    c31  433   4.434   3.366   4.502  0.3102  0.0899 -0.3039
   37poe     o2  434   4.329   3.408   4.418  0.0250 -0.1464 -0.0640
   37poe    c23  435   4.193   3.390   4.451 -0.0270  0.1574 -0.1147
   37poe    c23  436   4.101   3.424   4.332  0.4589  0.8180 -0.3098
   37poe     o2  437   4.155   3.398   4.204  0.5651 -0.3609 -0.0437
   37poe    c23  438   4.122   3.270   4.155 -0.6066 -0.1271  0.0963
   37poe    c23  439   4.232   3.221   4.058 -0.3496 -0.0298  0.3351
   37poe     o2  440   4.349   3.264   4.123 -0.0013 -0.0489 -0.2794
   37poe    c23  441   4.469   3.267   4.050 -0.1942  0.1713 -0.5898
   37poe    c23  442   4.596   3.302   4.131 -0.6379 -0.2162  0.2783
   37poe     o2  443   4.551   3.416   4.200 -0.0837  0.4052 -0.3699
   37poe    c31  444   4.657   3.499   4.244  0.5434 -0.4164 -0.3152
   38poe    c31  445   4.832   6.589   2.178 -0.4162  0.3303 -0.5176
   38poe     o2  446   4.882   6.668   2.283 -0.1763  0.1399 -0.4901
   38poe    c23  447   5.007   6.623   2.331 -0.4579 -0.2934 -0.1508
   38poe    c23  448   5.057   6.733   2.426 -0.5581 -0.3645 -0.0158
   38poe     o2  449   4.947   6.769   2.506 -0.6454 -0.2056 -0.2074
   38poe    c23  450   4.970   6.895   2.565 -0.2162 -0.4098  0.0658
   38poe    c23  451   4.838   6.963   2.606  0.0594  0.3934 -0.3609
   38poe     o2  452   4.782   6.955   2.477  0.0930  0.3414 -0.3719
   38poe    c23  453   4.652   7.010   2.473  0.0435  0.3124  0.5204
   38poe    c23  454   4.586   6.965   2.341  0.1493 -0.2318  0.6496
   38poe     o2  455   4.625   6.831   2.323  0.3822 -0.0791 -0.0052
   38poe    c31  456   4.539   6.790   2.218  0.1316  0.3423  0.0342
   39poe    c31  457   0.755   1.361   4.403  0.5231 -0.8261  0.0104
   39poe     o2  458   0.882   1.389   4.457  0.3743  0.2322 -0.1592
   39poe    c23  459   0.861   1.437   4.588 -0.3541  0.1663 -0.2482
   39poe    c23  460   0.997   1.461   4.657 -0.1255 -0.5792 -0.4341
   39poe     o2  461   1.095   1.500   4.564 -0.2419 -0.1919 -0.3962
   39poe    c23  462   1.219   1.454   4.612 -0.2884  0.3182  0.2265
   39poe    c23  463   1.307   1.511   4.498 -0.1825 -0.0374  0.1280
   39poe     o2  464   1.254   1.458   4.379  0.2386 -0.3104  0.0616
   39poe    c23  465   1.299   1.535   4.269  0.2796 -0.1153  0.2140
   39poe    c23  466   1.212   1.455   4.170 -0.2570  0.4196  0.2515
   39poe     o2  467   1.076   1.466   4.205 -0.3105  0.2343  0.0989
   39poe    c31  468   0.985   1.448   4.098 -0.5298  0.1901  0.2922
   40poe    c31  469   5.300   3.631   2.758 -0.3334 -0.2284  0.0793
   40poe     o2  470   5.334   3.500   2.720  0.2142 -0.1805  0.4024
   40poe    c23  471   5.223   3.420   2.686  0.4682  0.0240 -0.9867
   40poe    c23  472   5.279   3.280   2.656  0.0337 -0.3219 -0.2242
   40poe     o2  473   5.349   3.235   2.769 -0.3469  0.2149  0.2334
   40poe    c23  474   5.426   3.117   2.763 -0.3191  0.1671  1.2909
   40poe    c23  475   5.571   3.144   2.809  0.2168  0.2219 -0.3470
   40poe     o2  476   5.602   3.279   2.784 -0.0962  0.1968 -0.8961
   40poe    c23  477   5.735   3.324   2.801 -0.1332 -0.1298  0.3586
   40poe    c23  478   5.765   3.443   2.708 -0.1302 -0.1776  0.2990
   40poe     o2  479   5.641   3.508   2.720 -0.0996  0.1790 -1.0784
   40poe    c31  480   5.653   3.647   2.698 -0.0818  0.4325  0.3850
   41poe    c31  481   0.024   6.478   1.362  0.0434  0.9447 -0.1791
   41poe     o2  482   0.096   6.497   1.482  0.6250 -0.4572 -0.2944
   41poe    c23  483   0.018   6.536   1.593  0.6657 -0.0791 -0.3991
   41poe    c23  484   0.114   6.596   1.698 -0.4680 -0.3239  0.8053
   41poe     o2  485   0.237   6.527   1.690 -0.1638  0.3265 -0.3905
   41poe    c23  486   0.292   6.551   1.818 -0.6158 -0.0751 -0.1176
   41poe    c23  487   0.443   6.543   1.847 -0.5680  0.3060 -0.2482
   41poe     o2  488   0.517   6.647   1.787 -0.4853  0.5923  0.3374
   41poe    c23  489   0.615   6.704   1.870  0.0427  0.1944 -0.0117
   41poe    c23  490   0.724   6.783   1.795 -0.0313 -0.1435 -0.4847
   41poe     o2  491   0.819   6.705   1.725  0.5188  0.1350 -0.0611
   41poe    c31  492   0.946   6.765   1.712  0.2771  0.5660 -0.4565
   42poe    c31  493   3.558   4.356   5.988  0.0651  0.1529 -0.6361
   42poe     o2  494   3.697   4.335   5.973 -0.0093 -0.4417 -0.5228
   42poe    c23  495   3.748   4.446   5.903 -0.1292 -0.0350  0.0285
   42poe    c23  496   3.901   4.433   5.918 -0.0672  0.0735 -0.4845
   42poe     o2  497   3.914   4.300   5.872 -0.4835  0.2222 -1.0485
   42poe    c23  498   4.046   4.249   5.866 -0.7932 -0.7889  0.2758
   42poe    c23  499   4.049   4.112   5.796  0.5046 -0.5994 -0.0584
   42poe     o2  500   3.926   4.057   5.836  0.1157  0.1699 -0.1781
   42poe    c23  501   3.887   3.956   5.746 -0.3471  0.0392  0.1647
   42poe    c23  502   3.736   3.938   5.773 -0.4055 -0.0290 -0.2046
   42poe     o2  503   3.670   4.061   5.794  0.3932  0.3426  0.1956
   42poe    c31  504   3.532   4.037   5.780  0.4777  0.1762 -0.3959
   43poe    c31  505   6.256   0.380   0.163 -0.2842 -0.5926  0.3367
   43poe     o2  506   6.331   0.438   0.058 -0.8898 -0.1416  0.1453
   43poe    c23  507   6.381   0.565   0.093  0.1188 -0.1447 -1.1661
   43poe    c23  508   6.532   0.553   0.119 -0.0870  0.2252  0.2938
   43poe     o2  509   6.570   0.482   0.004  0.0414 -0.3875  0.7060
   43poe    c23  510   6.705   0.455  -0.025 -0.1553  0.0922 -0.7396
   43poe    c23  511   6.727   0.303  -0.038  0.0658  0.1110 -0.5822
   43poe     o2  512   6.616   0.256  -0.111  0.1050 -0.3504 -0.3488
   43poe    c23  513   6.595   0.120  -0.081 -0.2774 -0.1943  0.1070
   43poe    c23  514   6.458   0.072  -0.133 -0.1148 -0.2517 -0.2755
   43poe     o2  515   6.366   0.173  -0.098  0.2972 -0.0648  0.2851
   43poe    c31  516   6.237   0.120  -0.077  0.1423 -0.0045 -0.4818
   44poe    c31  517   2.111   6.026   0.528  0.0323 -0.2842 -0.4385
   44poe     o2  518   2.152   6.063   0.658  0.3056 -0.7495 -0.3939
   44poe    c23  519   2.069   5.985   0.741  0.6064 -0.7154 -0.0550
   44poe    c23  520   2.143   5.989   0.876 -0.1467 -0.4011  0.3557
   44poe     o2  521   2.154   6.128   0.892  0.2819 -0.4272  0.3082
   44poe    c23  522   2.223   6.163   1.010 -0.1198  0.0002  0.4205
   44poe    c23  523   2.348   6.230   0.952  0.0700 -0.9215 -0.2646
   44poe     o2  524   2.298   6.306   0.844  0.0595 -0.1015  0.3007
   44poe    c23  525   2.395   6.388   0.783 -0.1371  0.2602  0.4726
   44poe    c23  526   2.329   6.478   0.678  0.6693  0.0674 -0.2145
   44poe     o2  527   2.238   6.385   0.622 -0.2326  0.7449  0.1049
   44poe    c31  528   2.227   6.427   0.488 -0.5260 -0.9471 -0.4232
   45poe    c31  529   4.191   0.099   3.770  0.7607  0.2286 -0.3510
   45poe     o2  530   4.218   0.096   3.631  0.6612 -0.1667 -0.3642
   45poe    c23  531   4.197   0.228   3.587  0.2827 -0.0194  0.2323
   45poe    c23  532   4.183   0.222   3.433 -0.0393 -0.6495  0.2875
   45poe     o2  533   4.299   0.163   3.381 -0.0761 -0.5609  0.1063
   45poe    c23  534   4.265   0.091   3.264 -0.2365 -0.2505 -0.0378
   45poe    c23  535   4.368  -0.023   3.254 -0.5452 -0.5160 -0.2113
   45poe     o2  536   4.390  -0.086   3.379  0.3618  0.0476 -0.0794
   45poe    c23  537   4.444  -0.216   3.377 -0.3971 -0.2743  0.0317
   45poe    c23  538   4.476  -0.251   3.524  0.5702  0.8455  0.0993
   45poe     o2  539   4.366  -0.197   3.594 -0.0381 -0.0630 -0.1463
   45poe    c31  540   4.366  -0.264   3.718 -0.5444  0.4476  0.1350
   46poe    c31  541   2.483   1.912   3.038  0.9943  0.2728 -0.6930
   46poe     o2  542   2.393   1.986   2.959 -0.2410 -0.4804 -0.0248
   46poe    c23  543   2.276   2.003   3.036 -0.1157  0.1648  0.0308
   46poe    c23  544   2.146   1.990   2.954 -0.0484 -0.0169 -0.0498
   46poe     o2  545   2.178   2.042   2.827 -0.0603  0.0559 -0.0234
   46poe    c23  546   2.072   2.030   2.734 -0.1414  0.7015 -0.0185
   46poe    c23  547   2.115   2.099   2.603  0.2427  0.5536  0.0273
   46poe     o2  548   2.248   2.059   2.578  0.1036 -0.1326  0.3480
   46poe    c23  549   2.312   2.180   2.540 -0.5214 -0.1096 -0.6719
   46poe    c23  550   2.463   2.157   2.557 -0.5448  0.2563  0.0770
   46poe     o2  551   2.473   2.138   2.696 -0.3193 -0.1453  0.0074
   46poe    c31  552   2.591   2.198   2.746 -0.1652 -0.1731 -0.3235
   47poe    c31  553   0.888   4.132   5.296  0.3057  0.0817 -0.3057
   47poe     o2  554   0.881   4.240   5.205 -0.0618  0.0199 -0.3558
   47poe    c23  555   0.745   4.270   5.183  0.0466  0.5750 -0.2792
   47poe    c23  556   0.743   4.379   5.075 -0.2349  0.9348  0.0841
   47poe     o2  557   0.841   4.471   5.115  0.3790  0.4958 -0.3964
   47poe    c23  558   0.846   4.570   5.014  0.0754  0.7795 -0.1349
   47poe    c23  559   0.967   4.649   5.067  0.6476 -0.1412 -0.0527
   47poe     o2  560   1.044   4.565   5.150  0.9715 -0.0972 -0.3032
   47poe    c23  561   1.136   4.634   5.232  0.5596 -0.0406  0.1192
   47poe    c23  562   1.223   4.536   5.313  0.5368 -0.3401 -0.2141
   47poe     o2  563   1.134   4.428   5.334 -0.0315  0.3095  0.7886
   47poe    c31  564   1.210   4.322   5.386  0.5037  0.6268  0.6637
   48poe    c31  565   4.628   6.385   5.682  0.2636  0.0381 -0.2405
   48poe     o2  566   4.725   6.444   5.766  0.3253  0.0495 -0.3191
   48poe    c23  567   4.726   6.355   5.875 -0.7903 -0.0893 -0.4121
   48poe    c23  568   4.823   6.408   5.981 -0.7092 -0.6955 -0.1774
   48poe     o2  569   4.920   6.469   5.899 -1.0011  0.0905  0.0526
   48poe    c23  570   5.039   6.496   5.971 -1.0118  0.0800  0.0738
   48poe    c23  571   5.151   6.513   5.867 -0.2104  0.4714  0.9865
   48poe     o2  572   5.087   6.581   5.762 -0.1803 -0.7283  0.1595
   48poe    c23  573   5.134   6.565   5.630 -1.0430 -0.5646 -0.1748
   48poe    c23  574   5.024   6.631   5.545 -0.9098 -0.1960 -0.0601
   48poe     o2  575   4.900   6.573   5.576 -0.7549 -0.4647  0.0558
   48poe    c31  576   4.799   6.633   5.497 -0.2051  0.2755 -0.0903
   49poe    c31  577   5.056   2.944   1.826 -0.3025 -0.8676  0.1344
   49poe     o2  578   5.043   2.959   1.687 -0.0148  0.3101  0.2268
   49poe    c23  579   4.927   3.021   1.637 -0.1745  0.0003  0.2139
   49poe    c23  580   4.910   2.989   1.487 -0.3710  0.0192  0.2313
   49poe     o2  581   5.037   2.961   1.431 -0.0960  0.4625  0.6246
   49poe    c23  582   5.010   2.903   1.306  0.0939  0.8264  0.4132
   49poe    c23  583   5.149   2.892   1.242 -0.1343 -0.5820  0.1162
   49poe     o2  584   5.238   2.867   1.349 -0.7264 -1.1745  0.4760
   49poe    c23  585   5.365   2.873   1.288 -1.1438 -0.6494 -0.3533
   49poe    c23  586   5.433   2.736   1.272 -0.4215 -0.2975 -0.3354
   49poe     o2  587   5.539   2.742   1.179 -0.0408 -0.6527  0.0722
   49poe    c31  588   5.577   2.620   1.120 -0.2139 -0.3995 -0.5748
   50poe    c31  589   6.589   3.776   0.307 -0.4184  0.3618 -0.5446
   50poe     o2  590   6.698   3.721   0.237 -0.4126 -0.3909  0.0449
   50poe    c23  591   6.816   3.741   0.313 -0.3230  0.3504 -0.2806
   50poe    c23  592   6.925   3.653   0.248 -0.1000  0.3378  0.1115
   50poe     o2  593   6.916   3.655   0.108  0.3868 -0.2099  0.0716
   50poe    c23  594   7.016   3.581   0.040  0.7531  0.3335  0.0133
   50poe    c23  595   6.939   3.564  -0.092  0.1965  0.0408  0.3711
   50poe     o2  596   6.799   3.576  -0.079  0.1499 -0.0896 -0.0016
   50poe    c23  597   6.723   3.562  -0.197 -0.1069  0.8589  0.0412
   50poe    c23  598   6.582   3.603  -0.150 -0.3494  0.3271 -0.2079
   50poe     o2  599   6.579   3.715  -0.065 -0.1452 -0.1388  0.4236
   50poe    c31  600   6.443   3.747  -0.046 -0.0973  0.7836 -0.6663
   51poe    c31  601   1.246   4.728   0.351 -0.5882  0.1168  0.4747
   51poe     o2  602   1.255   4.634   0.457 -0.2101  0.1089  0.4355
   51poe    c23  603   1.154   4.665   0.551  0.2039  1.0237  0.5957
   51poe    c23  604   1.181   4.558   0.659  0.4575  0.2549 -0.2082
   51poe     o2  605   1.198   4.439   0.586  0.3965  0.1609 -0.0692
   51poe    c23  606   1.228   4.337   0.678 -0.3115  0.3236  0.3478
   51poe    c23  607   1.226   4.212   0.588  0.0582  0.0537  0.7061
   51poe     o2  608   1.311   4.255   0.484  0.0089 -0.6282  0.3802
   51poe    c23  609   1.286   4.179   0.368  0.2699 -0.4258  0.1902
   51poe    c23  610   1.195   4.266   0.280  0.2858 -0.3586  0.2408
   51poe     o2  611   1.253   4.393   0.265 -1.2483  0.3415 -0.0254
   51poe    c31  612   1.197   4.454   0.151 -0.4306  0.2475 -0.4903
   52poe    c31  613   2.612   1.046   4.523 -0.0090 -0.1686  0.3737
   52poe     o2  614   2.728   1.025   4.446 -0.3435 -0.4320 -0.0655
   52poe    c23  615   2.842   1.058   4.522 -0.3447 -0.6118  0.0136
   52poe    c23  616   2.966   0.994   4.457  0.1123  0.0887  0.1877
   52poe     o2  617   2.939   0.961   4.323  0.0219 -0.0898  0.2505
   52poe    c23  618   3.043   0.899   4.249 -0.0410  0.3044 -0.1707
   52poe    c23  619   2.974   0.873   4.114 -0.2334 -0.2512  0.0317
   52poe     o2  620   2.839   0.837   4.133 -0.1621 -0.5456 -0.0210
   52poe    c23  621   2.767   0.864   4.015  0.1540  0.1876 -0.0519
   52poe    c23  622   2.620   0.849   4.060  0.2452 -0.2512  0.1095
   52poe     o2  623   2.608   0.919   4.182  0.0828  0.1712 -0.1460
   52poe    c31  624   2.473   0.960   4.184  0.2045  0.5562  0.2507
   53poe    c31  625   2.672   4.869   6.437  0.2085  0.1373  0.1942
   53poe     o2  626   2.776   4.941   6.375 -0.0932  0.5194  0.1246
   53poe    c23  627   2.777   4.935   6.234  0.4452  0.6388  0.1188
   53poe    c23  628   2.869   5.039   6.169  0.7164  0.2157 -0.1786
   53poe     o2  629   2.978   5.034   6.259  0.1032  0.2733  0.5786
   53poe    c23  630   3.060   5.146   6.234 -0.3057  0.2696 -0.8614
   53poe    c23  631   3.141   5.150   6.364 -1.1089 -0.1078 -0.3446
   53poe     o2  632   3.057   5.128   6.475 -0.2055 -1.3135  0.1293
   53poe    c23  633   3.123   5.116   6.599  0.2626  0.3355  0.0566
   53poe    c23  634   3.007   5.076   6.692  0.0048  0.2240 -0.3102
   53poe     o2  635   2.935   4.973   6.628 -0.4208  0.6560 -0.5301
   53poe    c31  636   2.883   4.886   6.727  0.1923  0.6514 -0.2032
   54poe    c31  637   0.362   1.158   5.962  0.0604  0.7732 -0.4728
   54poe     o2  638   0.299   1.283   5.979 -0.2455  0.5189  0.3438
   54poe    c23  639   0.230   1.259   6.099  0.2517 -0.4927  0.4337
   54poe    c23  640   0.139   1.379   6.132  0.2233 -0.4710  0.2767
   54poe     o2  641   0.092   1.396   6.000  0.4546  0.5608  0.3223
   54poe    c23  642  -0.009   1.493   5.994  0.1229  0.1472 -0.9117
   54poe    c23  643  -0.041   1.483   5.843 -0.6190  0.2482 -0.7663
   54poe     o2  644   0.081   1.506   5.776  0.0458 -0.5833  0.1404
   54poe    c23  645   0.072   1.456   5.645 -0.4576 -0.3474  0.0809
   54poe    c23  646   0.217   1.457   5.593 -0.4539  0.2253  0.0968
   54poe     o2  647   0.294   1.385   5.687 -0.5837 -0.9656 -0.6835
   54poe    c31  648   0.416   1.355   5.622 -0.1234  0.2201 -0.4023
   55poe    c31  649   1.552   2.891   4.152  0.1386 -0.5245  0.3328
   55poe     o2  650   1.555   2.910   4.012 -0.1929 -0.0555  0.3875
   55poe    c23  651   1.465   3.007   3.964 -0.3262 -0.2020  0.3403
   55poe    c23  652   1.453   3.001   3.811  0.1853  0.4136  0.2709
   55poe     o2  653   1.584   2.987   3.761 -0.0295  0.6162 -0.3589
   55poe    c23  654   1.602   3.002   3.622 -0.0925  0.4174 -0.3874
   55poe    c23  655   1.755   2.985   3.608 -0.1058  0.0791 -0.1479
   55poe     o2  656   1.782   2.889   3.707  0.0521 -0.0003 -0.2676
   55poe    c23  657   1.919   2.864   3.732 -0.0113 -0.6544 -0.5674
   55poe    c23  658   1.935   2.767   3.851 -0.2227  0.0129  0.0121
   55poe     o2  659   1.850   2.822   3.950  0.3306  0.7426  0.0899
   55poe    c31  660   1.878   2.747   4.066  0.2321 -0.6470 -0.7627
   56poe    c31  661   2.116   0.973   3.155 -0.6181 -0.5495 -0.5419
   56poe     o2  662   2.121   0.847   3.218  0.0477  0.0271  0.5913
   56poe    c23  663   2.252   0.795   3.218  0.0272 -0.0260  0.6250
   56poe    c23  664   2.244   0.642   3.226  0.0149 -0.0673 -0.0495
   56poe     o2  665   2.195   0.606   3.354 -0.0335  0.4790  0.0888
   56poe    c23  666   2.187   0.466   3.370 -0.1044  0.5019  0.2496
   56poe    c23  667   2.101   0.464   3.498  0.0404  0.7792  0.3519
   56poe     o2  668   1.988   0.544   3.471 -0.3916 -0.0643 -0.3651
   56poe    c23  669   1.931   0.590   3.591  0.4920  0.3121 -0.0828
   56poe    c23  670   1.831   0.706   3.576  0.7388  0.6569  0.8462
   56poe     o2  671   1.890   0.776   3.469 -0.5253 -0.2172 -0.4772
   56poe    c31  672   1.858   0.912   3.492 -0.2509 -0.3387  0.7313
   57poe    c31  673   1.608   3.777   6.297 -0.2091 -0.6411  0.9028
   57poe     o2  674   1.628   3.652   6.236  0.1789 -0.3675  0.4697
   57poe    c23  675   1.680   3.565   6.334  0.5921  0.0038  0.5824
   57poe    c23  676   1.701   3.421   6.284 -0.7937  0.0448 -0.1899
   57poe     o2  677   1.765   3.437   6.159 -0.2703  0.1665  0.0885
   57poe    c23  678   1.788   3.320   6.083 -0.4502  0.0248  0.2531
   57poe    c23  679   1.854   3.383   5.960 -0.5414 -0.2715  0.0503
   57poe     o2  680   1.779   3.491   5.910 -0.1885 -0.4389 -0.8710
   57poe    c23  681   1.855   3.599   5.861  0.0590 -0.1435  0.1269
   57poe    c23  682   1.939   3.677   5.964  0.2099 -0.0069 -0.0986
   57poe     o2  683   1.884   3.660   6.092  0.4657 -0.7071 -0.0755
   57poe    c31  684   1.976   3.712   6.187 -0.2343  0.3059  0.0614
   58poe    c31  685   5.491   2.111   5.203 -0.2354  0.1444 -0.0979
   58poe     o2  686   5.384   2.082   5.116 -0.3681 -0.1576  0.1654
   58poe    c23  687   5.404   2.140   4.989 -0.1100 -0.3306  0.1260
   58poe    c23  688   5.262   2.129   4.930  0.0464 -0.4422 -0.2338
   58poe     o2  689   5.191   2.010   4.958 -0.1015 -0.2943  0.0184
   58poe    c23  690   5.052   2.035   4.956  0.0036  0.3834  0.5350
   58poe    c23  691   5.009   1.917   5.045  0.1192 -0.0223  0.0617
   58poe     o2  692   5.108   1.901   5.145  0.1347 -0.0915  0.0354
   58poe    c23  693   5.085   1.797   5.237 -0.3054 -0.4009 -0.4157
   58poe    c23  694   5.196   1.812   5.343 -0.1557  0.4780 -0.6940
   58poe     o2  695   5.320   1.800   5.276 -0.0357 -0.8739 -0.2461
   58poe    c31  696   5.417   1.825   5.374 -0.2851 -0.0692 -0.1974
   59poe    c31  697   1.459   2.028   5.266 -0.1688  0.4345  0.3041
   59poe     o2  698   1.576   2.005   5.342 -0.3741  0.0051  0.4918
   59poe    c23  699   1.655   1.921   5.261  0.1195  0.5196  0.4366
   59poe    c23  700   1.777   1.861   5.333 -0.0353 -0.2451  0.0691
   59poe     o2  701   1.842   1.969   5.396 -0.3025 -0.0900  0.0800
   59poe    c23  702   1.927   1.915   5.495 -0.1235 -0.1813 -0.1225
   59poe    c23  703   1.883   2.014   5.605 -0.1679 -0.4960  0.1440
   59poe     o2  704   1.744   2.033   5.616 -0.0767  0.0724  0.3302
   59poe    c23  705   1.689   2.089   5.733 -0.1234 -0.1873  0.4338
   59poe    c23  706   1.535   2.089   5.722 -0.0933  0.5700 -0.0695
   59poe     o2  707   1.502   2.123   5.589 -0.0742  0.8100 -0.0124
   59poe    c31  708   1.363   2.145   5.578 -0.1413  0.3717 -0.0484
   60poe    c31  709   1.789   4.151   3.810 -0.2472  0.1250 -0.1060
   60poe     o2  710   1.857   4.174   3.932 -0.1934 -0.3001 -0.0525
   60poe    c23  711   1.804   4.276   4.013 -0.5391 -0.2222 -0.3726
   60poe    c23  712   1.909   4.304   4.122 -0.2201 -0.3794 -0.6401
   60poe     o2  713   2.030   4.287   4.052  0.1138  0.4452 -0.2741
   60poe    c23  714   2.138   4.280   4.142 -0.4482 -1.1297  0.3191
   60poe    c23  715   2.258   4.207   4.079  0.0699  0.2001 -0.2652
   60poe     o2  716   2.200   4.097   4.013 -0.0317  0.0922  0.0049
   60poe    c23  717   2.195   3.978   4.089 -0.0130  0.1541  0.1040
   60poe    c23  718   2.089   3.888   4.024 -0.0248 -0.0112  0.3529
   60poe     o2  719   1.969   3.957   3.996 -0.3213 -0.5781  0.2038
   60poe    c31  720   1.868   3.916   4.086 -0.0041 -0.4618  0.6139
   61poe    c31  721   3.350   4.259   2.650 -0.1863 -0.2942  0.5805
   61poe     o2  722   3.339   4.265   2.791  0.6681  0.2889  0.6310
   61poe    c23  723   3.235   4.187   2.847  0.1555 -0.0504 -0.7582
   61poe    c23  724   3.224   4.236   2.992  0.1865  0.0611 -0.7931
   61poe     o2  725   3.353   4.234   3.048 -0.0880  0.1769 -0.1507
   61poe    c23  726   3.359   4.268   3.185 -0.4519 -0.5003  0.0363
   61poe    c23  727   3.505   4.278   3.234 -0.5264  0.2971  0.1161
   61poe     o2  728   3.570   4.374   3.153 -0.3545  0.0324 -0.0646
   61poe    c23  729   3.699   4.342   3.108 -0.3972 -0.4349  0.1312
   61poe    c23  730   3.705   4.231   3.002 -0.6238 -0.3877  0.0696
   61poe     o2  731   3.623   4.257   2.890  0.1273  0.0528 -0.3906
   61poe    c31  732   3.663   4.157   2.798 -0.2287 -0.0724 -0.4117
   62poe    c31  733   3.581   6.458   3.595 -0.4443 -0.4910  0.3259
   62poe     o2  734   3.616   6.462   3.731  0.0807  0.5569  0.1657
   62poe    c23  735   3.568   6.587   3.777 -1.3296 -0.0596  0.4233
   62poe    c23  736   3.585   6.588   3.930 -0.1321  0.1170  0.2971
   62poe     o2  737   3.710   6.531   3.965 -0.1096  0.1856  0.3301
   62poe    c23  738   3.821   6.614   3.988  0.1581  0.0877 -0.5687
   62poe    c23  739   3.931   6.507   3.996 -0.3017 -0.3503 -0.0283
   62poe     o2  740   3.910   6.428   3.881  0.4935 -0.1790 -0.2949
   62poe    c23  741   3.986   6.310   3.877  0.0394 -0.4899  0.1209
   62poe    c23  742   3.980   6.260   3.731 -0.1083  0.1394 -0.0892
   62poe     o2  743   3.844   6.262   3.693  0.0260 -0.1803 -0.5888
   62poe    c31  744   3.838   6.191   3.571  0.2897  0.7310 -1.1392
   63poe    c31  745   0.078   0.223   1.872  1.2676  0.0595  0.0521
   63poe     o2  746   0.062   0.103   1.943 -0.2198  0.1284 -0.1274
   63poe    c23  747  -0.075   0.080   1.965 -0.1947 -0.1665 -0.2701
   63poe    c23  748  -0.085  -0.047   2.051 -0.5840  0.0149 -0.0436
   63poe     o2  749   0.020  -0.042   2.144 -0.1840 -0.6431 -0.4549
   63poe    c23  750   0.020  -0.139   2.247 -0.3457 -1.1879 -0.9629
   63poe    c23  751   0.165  -0.173   2.284 -0.3739 -0.0226  0.2804
   63poe     o2  752   0.221  -0.043   2.293 -0.0221 -0.1498 -0.0613
   63poe    c23  753   0.362  -0.044   2.292 -0.0090  0.7722  0.1690
   63poe    c23  754   0.416   0.096   2.258  0.4193  0.4687 -0.4330
   63poe     o2  755   0.328   0.145   2.160 -0.6813 -0.2515  0.1620
   63poe    c31  756   0.375   0.272   2.119  0.1777 -0.4384  0.5428
   64poe    c31  757   2.246   2.481   3.560 -0.1813 -0.6339  0.0328
   64poe     o2  758   2.230   2.613   3.513 -0.6940 -0.6084  0.2687
   64poe    c23  759   2.349   2.687   3.533 -0.9731 -0.1427  0.2291
   64poe    c23  760   2.322   2.833   3.492 -0.1090 -0.1232 -0.2918
   64poe     o2  761   2.241   2.808   3.379 -0.3451 -0.8737  0.0351
   64poe    c23  762   2.195   2.916   3.302  0.5740 -0.6713 -0.2451
   64poe    c23  763   2.126   2.848   3.182 -0.6464 -0.1696  0.1528
   64poe     o2  764   2.048   2.747   3.243 -0.4667 -0.2091  0.3170
   64poe    c23  765   1.954   2.686   3.158  0.4149 -0.7778 -0.2652
   64poe    c23  766   1.895   2.585   3.259  0.1008 -0.4684 -0.1400
   64poe     o2  767   2.001   2.521   3.325  0.0338 -0.2599  0.1706
   64poe    c31  768   1.963   2.386   3.338  0.2265 -0.3092  0.2331
   65poe    c31  769   0.636   5.149   1.958  0.0924 -0.3975  0.4679
   65poe     o2  770   0.699   5.032   1.911  0.6060  0.0239  0.0903
   65poe    c23  771   0.840   5.037   1.915  0.6252 -0.0481 -0.4341
   65poe    c23  772   0.881   4.889   1.916 -0.0505 -0.2351  0.1061
   65poe     o2  773   0.775   4.838   1.994 -0.0619  0.2939  0.4430
   65poe    c23  774   0.786   4.702   2.031  0.3085  0.0137 -0.6688
   65poe    c23  775   0.649   4.675   2.095  0.4506  0.6251 -0.1036
   65poe     o2  776   0.566   4.741   2.003  0.4757  0.6899 -0.0801
   65poe    c23  777   0.433   4.733   2.047  0.5020 -0.0695 -0.1290
   65poe    c23  778   0.350   4.821   1.952  0.4382 -0.0831 -0.0857
   65poe     o2  779   0.425   4.939   1.929 -0.5136  0.6319  0.4010
   65poe    c31  780   0.343   5.010   1.839 -0.6553  0.3129  0.2767
   66poe    c31  781   3.285   4.655   5.320  0.3613  0.2845  0.2668
   66poe     o2  782   3.244   4.522   5.343  0.2246  0.3304  0.2869
   66poe    c23  783   3.317   4.478   5.455 -0.1394  0.1052  0.4346
   66poe    c23  784   3.278   4.342   5.516 -0.7049 -0.0309 -0.2208
   66poe     o2  785   3.152   4.357   5.578 -0.4620  0.0673  0.2491
   66poe    c23  786   3.099   4.244   5.644  0.7789 -0.2080  0.8073
   66poe    c23  787   2.971   4.286   5.719  0.4598  0.5535 -0.1376
   66poe     o2  788   2.865   4.303   5.629  0.0344  0.2800  0.3064
   66poe    c23  789   2.796   4.194   5.573  0.1630  0.1964  0.3104
   66poe    c23  790   2.653   4.237   5.536  0.1128  0.1986  0.5024
   66poe     o2  791   2.657   4.363   5.472  0.0624  0.0045  0.1143
   66poe    c31  792   2.557   4.353   5.373 -0.1224 -0.4058  0.3375
   67poe    c31  793   0.596   2.354   0.559  0.2982 -0.4079  0.5893
   67poe     o2  794   0.696   2.450   0.535 -0.0242 -0.2743 -0.2832
   67poe    c23  795   0.684   2.545   0.638 -0.4362  0.3187 -0.8700
   67poe    c23  796   0.819   2.603   0.686 -0.3716 -0.0175 -0.6377
   67poe     o2  797   0.881   2.651   0.569  0.1933 -0.4536 -0.5218
   67poe    c23  798   1.019   2.671   0.587  0.1133 -0.3150 -0.0467
   67poe    c23  799   1.067   2.656   0.441  0.2234  0.3459 -0.0818
   67poe     o2  800   1.013   2.532   0.401 -0.2851  0.6200 -0.2443
   67poe    c23  801   1.071   2.503   0.276 -0.1507 -0.6668  0.1053
   67poe    c23  802   1.004   2.367   0.248 -0.0012 -0.8325  0.5415
   67poe     o2  803   0.870   2.378   0.289 -0.3706  0.8139 -0.9751
   67poe    c31  804   0.801   2.264   0.244  0.6517 -0.4797  0.6358
   68poe    c31  805   1.038   3.092   3.075 -1.1815  0.0039 -0.1037
   68poe     o2  806   1.064   2.955   3.098  0.1983  0.2177 -0.3380
   68poe    c23  807   1.195   2.955   3.151 -0.1136 -0.3684  0.4440
   68poe    c23  808   1.243   2.816   3.196 -0.4912 -0.6771 -0.0996
   68poe     o2  809   1.291   2.741   3.087  0.5085 -0.2324  0.0267
   68poe    c23  810   1.332   2.614   3.133  0.4904 -0.0011  0.6920
   68poe    c23  811   1.475   2.609   3.076  0.2200 -0.0618  0.0042
   68poe     o2  812   1.467   2.603   2.936 -0.4438  0.2758  0.0239
   68poe    c23  813   1.596   2.556   2.902 -0.5950 -0.2884  0.2203
   68poe    c23  814   1.591   2.539   2.749  0.2283  0.3455  0.1205
   68poe     o2  815   1.515   2.646   2.697 -0.4945 -0.1832  0.0752
   68poe    c31  816   1.545   2.650   2.559 -0.0715  0.2361  0.1773
   69poe    c31  817   1.971   0.515   2.652  0.0799  0.1330 -0.1393
   69poe     o2  818   1.950   0.613   2.553 -0.2577  0.1554 -0.0470
   69poe    c23  819   2.056   0.705   2.560  0.1306 -0.1885 -1.2296
   69poe    c23  820   2.036   0.830   2.471 -0.0433  0.5294 -0.1956
   69poe     o2  821   1.898   0.850   2.487  0.0489  0.6241  0.5344
   69poe    c23  822   1.851   0.963   2.417  0.2063  0.2993 -0.1019
   69poe    c23  823   1.700   0.948   2.440  0.2436 -0.4510 -0.3272
   69poe     o2  824   1.665   0.816   2.477 -0.2323 -0.2074  0.1119
   69poe    c23  825   1.529   0.786   2.455 -0.2264  0.0144 -0.2410
   69poe    c23  826   1.512   0.655   2.535  0.8352  0.2046  0.3210
   69poe     o2  827   1.613   0.559   2.515  0.7610  0.2457 -0.2742
   69poe    c31  828   1.573   0.437   2.573 -0.3588  0.5383 -0.4048
   70poe    c31  829   4.466   0.762   6.086 -0.0334 -0.4884  0.1652
   70poe     o2  830   4.597   0.710   6.083 -0.0447 -0.4972 -0.1634
   70poe    c23  831   4.599   0.570   6.100  0.0376 -0.5048 -0.2302
   70poe    c23  832   4.748   0.532   6.111  0.0663 -0.3561 -0.1157
   70poe     o2  833   4.809   0.596   6.002 -0.3541  0.4037  0.0819
   70poe    c23  834   4.949   0.580   5.996 -0.2649  0.8599  0.7799
   70poe    c23  835   5.011   0.720   5.978  0.5017  0.4173 -0.1196
   70poe     o2  836   4.943   0.797   6.074 -0.3296 -0.3976 -0.0452
   70poe    c23  837   4.986   0.924   6.118 -0.1705 -0.4312 -0.1024
   70poe    c23  838   4.873   0.961   6.216  0.3075  0.5680  0.0717
   70poe     o2  839   4.749   0.950   6.151  0.3181 -0.0333  0.1549
   70poe    c31  840   4.664   1.062   6.158  0.5386  0.1434  0.0159
   71poe    c31  841   6.640   0.931   0.114 -0.0382  0.3973 -0.2192
   71poe     o2  842   6.741   0.994   0.038  0.0692  0.1295 -0.3007
   71poe    c23  843   6.842   1.053   0.116 -0.3632  0.4197  0.0493
   71poe    c23  844   6.893   1.177   0.041 -0.8095  0.3271 -0.4110
   71poe     o2  845   6.848   1.148  -0.090 -0.0490 -0.4063 -0.5160
   71poe    c23  846   6.887   1.233  -0.195  0.0827  0.3490  0.1283
   71poe    c23  847   6.777   1.229  -0.302 -0.3659  0.1009  0.5983
   71poe     o2  848   6.766   1.089  -0.312  0.6767  0.0232  0.4284
   71poe    c23  849   6.653   1.052  -0.388  1.4321 -0.3258 -0.5450
   71poe    c23  850   6.614   0.907  -0.355 -0.1694  0.2510  0.2057
   71poe     o2  851   6.642   0.890  -0.217 -0.0769  0.1949  0.1803
   71poe    c31  852   6.627   0.751  -0.195 -0.0967  0.1387 -0.1720
   72poe    c31  853   0.033   2.885   6.386  0.0042 -0.2732 -0.9481
   72poe     o2  854   0.145   2.905   6.469 -0.5954  0.3157 -0.2616
   72poe    c23  855   0.140   3.042   6.502 -0.3046  0.1321  0.5509
   72poe    c23  856   0.244   3.068   6.613  0.2975  0.0487  0.0061
   72poe     o2  857   0.246   2.947   6.685 -0.5742  0.2251  0.3298
   72poe    c23  858   0.313   2.966   6.808  0.9003 -0.4783 -0.3497
   72poe    c23  859   0.296   2.827   6.872  0.0237  0.0955  0.6962
   72poe     o2  860   0.313   2.725   6.776  0.0910  0.2670  0.5240
   72poe    c23  861   0.447   2.715   6.732 -0.0744  0.4983 -0.0342
   72poe    c23  862   0.451   2.656   6.590 -0.6887 -0.3569  0.2978
   72poe     o2  863   0.378   2.748   6.511 -0.4051 -0.5742 -0.2236
   72poe    c31  864   0.439   2.768   6.386  0.3448  0.4140  0.2833
   73poe    c31  865   1.456   6.484   6.502  0.5605  0.2709  0.2371
   73poe     o2  866   1.425   6.450   6.635  0.2992  0.0701  0.1256
   73poe    c23  867   1.334   6.343   6.635 -0.1874  0.4780  0.1597
   73poe    c23  868   1.250   6.316   6.761  0.2700  0.0099  0.3684
   73poe     o2  869   1.347   6.326   6.863  0.1125 -0.5469  0.5779
   73poe    c23  870   1.290   6.365   6.986  0.3127 -0.1983  0.5605
   73poe    c23  871   1.411   6.425   7.061  0.6997 -0.7628  0.3953
   73poe     o2  872   1.481   6.500   6.964  0.3675 -0.6719  0.2254
   73poe    c23  873   1.603   6.544   7.019  0.0671  0.0479  0.3332
   73poe    c23  874   1.661   6.631   6.906 -0.4542  0.3776  0.3138
   73poe     o2  875   1.624   6.567   6.786  0.3356 -0.0216  0.2762
   73poe    c31  876   1.692   6.633   6.682 -0.2511 -0.5655 -0.4696
   74poe    c31  877   3.286   0.223   2.361  0.7903 -0.5706 -0.5557
   74poe     o2  878   3.404   0.299   2.343  0.7512 -0.3867 -0.0397
   74poe    c23  879   3.394   0.361   2.217 -0.0536  0.7457  0.5578
   74poe    c23  880   3.532   0.346   2.152 -0.3479  0.3697  0.0122
   74poe     o2  881   3.615   0.379   2.261  0.0772 -0.2031 -0.1312
   74poe    c23  882   3.747   0.330   2.248  0.0134 -0.3918 -0.0784
   74poe    c23  883   3.816   0.356   2.384 -0.2556  0.4065 -0.0860
   74poe     o2  884   3.721   0.307   2.476 -0.0801  0.5217  0.1568
   74poe    c23  885   3.754   0.386   2.587 -0.2025  1.3521 -0.3925
   74poe    c23  886   3.633   0.380   2.682 -0.1316 -0.2856 -0.3911
   74poe     o2  887   3.523   0.400   2.596 -0.3115  0.4376  0.0021
   74poe    c31  888   3.411   0.457   2.660 -0.4706  0.3264 -0.1781
   75poe    c31  889   2.602   6.572   3.758 -0.0774 -0.2208 -0.2122
   75poe     o2  890   2.616   6.592   3.619  0.4331 -0.1219 -0.1496
   75poe    c23  891   2.527   6.690   3.571 -0.1664 -0.2151  0.7491
   75poe    c23  892   2.525   6.683   3.417 -0.2694 -0.0434  0.7421
   75poe     o2  893   2.655   6.660   3.369 -0.5737 -0.1700 -0.0287
   75poe    c23  894   2.677   6.637   3.231 -0.2566 -0.0060 -0.0070
   75poe    c23  895   2.828   6.628   3.203 -0.3495 -0.9969 -0.2174
   75poe     o2  896   2.885   6.580   3.322 -0.1461  0.0016  0.0962
   75poe    c23  897   2.938   6.450   3.308  0.2060  0.1293  0.2200
   75poe    c23  898   2.974   6.421   3.455  0.1850 -0.2405  0.1537
   75poe     o2  899   2.867   6.440   3.545  0.0570 -0.1609 -0.0156
   75poe    c31  900   2.880   6.367   3.665  0.2951 -0.7606 -0.4000
   76poe    c31  901   1.744   1.211   5.740 -0.3309  0.3912 -0.0737
   76poe     o2  902   1.613   1.215   5.689 -0.3102  0.0090 -0.1537
   76poe    c23  903   1.538   1.107   5.741  0.1359 -0.1612  0.1424
   76poe    c23  904   1.387   1.130   5.726  0.1696 -0.2122 -0.2713
   76poe     o2  905   1.363   1.232   5.631  0.3373  0.4107  0.3515
   76poe    c23  906   1.235   1.290   5.643 -0.1020 -0.4692  0.0477
   76poe    c23  907   1.204   1.373   5.517 -0.0448 -0.5553 -0.0223
   76poe     o2  908   1.319   1.450   5.488 -0.3347 -0.2118 -0.2571
   76poe    c23  909   1.354   1.449   5.351  0.5068 -0.3705 -0.0407
   76poe    c23  910   1.495   1.505   5.323  0.3195 -0.0176 -0.2714
   76poe     o2  911   1.571   1.412   5.396 -0.0314 -0.3851 -0.3748
   76poe    c31  912   1.702   1.410   5.344  0.0325  0.2956 -0.2402
   77poe    c31  913   3.278   2.552   3.476 -0.5784 -0.3166 -0.2412
   77poe     o2  914   3.354   2.434   3.460  0.0724  0.0431  0.1233
   77poe    c23  915   3.474   2.462   3.393 -0.0006 -0.1769 -0.1028
   77poe    c23  916   3.549   2.328   3.404  0.1724 -0.0703  0.0265
   77poe     o2  917   3.533   2.257   3.524  0.4297 -0.1900 -0.0076
   77poe    c23  918   3.618   2.149   3.557  0.3974 -0.3179 -0.3445
   77poe    c23  919   3.614   2.124   3.709 -0.5542 -0.6384 -0.4121
   77poe     o2  920   3.477   2.133   3.741 -0.3268  0.3307  0.3304
   77poe    c23  921   3.477   2.189   3.870  0.3555  1.0106  0.0472
   77poe    c23  922   3.329   2.230   3.885 -0.0001 -0.0499 -0.4721
   77poe     o2  923   3.294   2.307   3.772  0.5870 -0.1012 -0.6915
   77poe    c31  924   3.186   2.391   3.803  0.6446 -0.0715 -0.5718
   78poe    c31  925   6.378   3.626   3.793 -0.2294  0.0764  0.5728
   78poe     o2  926   6.438   3.717   3.705 -0.2953  0.0866  0.5382
   78poe    c23  927   6.333   3.764   3.623  0.4153  0.0597 -0.4080
   78poe    c23  928   6.387   3.886   3.546  0.2205  0.0143 -0.6160
   78poe     o2  929   6.514   3.876   3.486  0.3841 -0.0759 -0.2555
   78poe    c23  930   6.580   3.999   3.466  0.5787 -0.1261  0.0768
   78poe    c23  931   6.721   3.981   3.526  0.4970  0.2222  0.3748
   78poe     o2  932   6.695   3.910   3.644 -0.5753  1.1603  0.7225
   78poe    c23  933   6.813   3.886   3.717 -0.1663 -0.3434 -0.3933
   78poe    c23  934   6.805   3.778   3.827 -0.6075  0.1844  0.0995
   78poe     o2  935   6.738   3.674   3.759 -0.3153 -0.1420  0.3106
   78poe    c31  936   6.741   3.558   3.840  0.4843 -0.4209 -0.1032
   79poe    c31  937   3.930   4.783   3.241 -0.0019 -0.0453  0.0360
   79poe     o2  938   4.026   4.813   3.143 -0.2532 -0.3304 -0.3012
   79poe    c23  939   3.995   4.944   3.101 -0.0663 -0.1670  0.0606
   79poe    c23  940   4.090   4.969   2.982  0.2516  0.4646  0.4444
   79poe     o2  941   4.099   4.838   2.930  0.5472  0.3703  0.7258
   79poe    c23  942   4.171   4.825   2.810  0.3345 -0.4621  0.6872
   79poe    c23  943   4.150   4.681   2.759 -0.2382 -0.0693 -0.2210
   79poe     o2  944   4.168   4.612   2.881 -0.1139  0.2182 -0.0761
   79poe    c23  945   4.101   4.488   2.873 -0.4465  0.4123 -0.3072
   79poe    c23  946   4.123   4.432   3.015 -0.3231 -0.1218 -0.5360
   79poe     o2  947   4.089   4.528   3.112 -0.2929 -0.3537 -0.2938
   79poe    c31  948   4.128   4.480   3.239  0.1153  0.0749 -0.2528
   80poe    c31  949   1.537   0.370   1.538 -0.1867 -0.1543  0.2469
   80poe     o2  950   1.579   0.290   1.429 -0.4045 -0.1001  0.1224
   80poe    c23  951   1.635   0.386   1.342 -0.2032 -0.3123  0.0182
   80poe    c23  952   1.719   0.325   1.227  0.3265  0.1122  0.1766
   80poe     o2  953   1.663   0.197   1.210  0.1923  0.2024 -0.0715
   80poe    c23  954   1.746   0.106   1.142 -0.2128 -0.2284  0.0040
   80poe    c23  955   1.646  -0.007   1.113 -0.0672 -0.2657 -0.3593
   80poe     o2  956   1.571  -0.027   1.230 -0.0191 -0.8194 -0.4212
   80poe    c23  957   1.433  -0.056   1.218 -0.1203 -0.4964 -0.0702
   80poe    c23  958   1.375  -0.070   1.360 -0.2968 -0.3816 -0.1310
   80poe     o2  959   1.418   0.036   1.442 -0.3957 -0.3964 -0.0593
   80poe    c31  960   1.359   0.036   1.570 -0.0224  0.4582  0.1213
   81poe    c31  961   2.988   1.717   0.650 -0.3718 -0.5823 -0.4402
   81poe     o2  962   2.891   1.801   0.593  0.0599  0.0117 -0.3166
   81poe    c23  963   2.756   1.772   0.623  0.2307 -0.3871  0.0705
   81poe    c23  964   2.662   1.876   0.560  0.2748  0.0044  0.6383
   81poe     o2  965   2.722   2.000   0.589  0.9621 -0.1869  0.0652
   81poe    c23  966   2.659   2.105   0.519  1.0505 -0.5806 -0.6186
   81poe    c23  967   2.745   2.233   0.521  0.4252 -0.1659 -0.1370
   81poe     o2  968   2.880   2.194   0.525  0.4095 -0.2023  0.0751
   81poe    c23  969   2.970   2.275   0.597  0.0043 -0.0517  0.4141
   81poe    c23  970   3.091   2.187   0.632  0.2356  0.1574  0.1441
   81poe     o2  971   3.050   2.058   0.670  0.7782 -0.1630 -0.3417
   81poe    c31  972   3.104   2.022   0.795 -0.2082 -0.3525  0.0432
   82poe    c31  973   2.763   5.421   3.367  0.2038  0.3507 -0.5587
   82poe     o2  974   2.694   5.519   3.293 -0.0674  0.4190 -0.2170
   82poe    c23  975   2.697   5.473   3.160 -0.2050 -0.2116 -0.0056
   82poe    c23  976   2.600   5.567   3.087  0.0162  0.1000  0.1013
   82poe     o2  977   2.624   5.706   3.101  0.0244  0.0752  0.3319
   82poe    c23  978   2.721   5.760   3.014  0.0229  0.2641  0.4475
   82poe    c23  979   2.803   5.862   3.095  0.3510  0.2445  0.1446
   82poe     o2  980   2.836   5.801   3.218  0.2420 -0.1233 -0.0055
   82poe    c23  981   2.908   5.886   3.305  0.0936 -0.1216  0.1169
   82poe    c23  982   2.909   5.827   3.447  0.1113 -0.0711  0.1377
   82poe     o2  983   2.780   5.771   3.458 -0.0860  0.3621  0.0360
   82poe    c31  984   2.757   5.724   3.589 -0.2081 -0.4534 -0.2715
   83poe    c31  985   1.269   3.155   0.403 -0.3283 -0.6926  0.3062
   83poe     o2  986   1.392   3.090   0.382  0.1042  0.2773 -0.2190
   83poe    c23  987   1.382   2.950   0.374 -0.0458  0.2481  0.4199
   83poe    c23  988   1.526   2.898   0.393 -0.2118 -0.0012  1.0154
   83poe     o2  989   1.611   2.974   0.311 -0.3294  0.2974  1.1699
   83poe    c23  990   1.747   2.943   0.332 -0.2881 -0.1819  0.2432
   83poe    c23  991   1.836   3.036   0.249  0.1035 -0.5155  0.2838
   83poe     o2  992   1.790   3.169   0.264 -1.1929 -0.9422  0.2307
   83poe    c23  993   1.809   3.232   0.139 -0.5238 -0.6283  0.4829
   83poe    c23  994   1.686   3.227   0.046 -0.2041 -0.6778  0.0618
   83poe     o2  995   1.569   3.218   0.124 -0.4438 -0.8721 -0.3151
   83poe    c31  996   1.469   3.238   0.027 -0.0408  0.6387 -0.4492
   84poe    c31  997   3.757   4.358   4.222  0.2751 -0.2674 -0.0495
   84poe     o2  998   3.788   4.403   4.352 -0.2990 -0.2071  0.0678
   84poe    c23  999   3.705   4.515   4.376 -0.0592 -0.0606  0.2143
   84poe    c23 1000   3.771   4.608   4.479  0.2462 -0.2020  0.1489
   84poe     o2 1001   3.795   4.517   4.584  0.1500 -0.0466  0.3051
   84poe    c23 1002   3.868   4.573   4.691  0.5543  0.2352 -0.1149
   84poe    c23 1003   3.937   4.455   4.764 -0.4498 -0.1209  0.2729
   84poe     o2 1004   3.951   4.359   4.662 -0.3169 -0.1011  0.2720
   84poe    c23 1005   3.985   4.230   4.707 -0.7144 -0.3085 -0.0130
   84poe    c23 1006   3.998   4.130   4.590  0.1858 -0.2189  0.0006
   84poe     o2 1007   3.903   4.180   4.498  0.0419 -0.5533 -0.0331
   84poe    c31 1008   3.918   4.110   4.376  0.1254 -0.7053  0.0634
   85poe    c31 1009   2.809   1.514   3.402 -0.3497  0.5994  0.3142
   85poe     o2 1010   2.746   1.639   3.421 -0.1598  0.7057  0.2487
   85poe    c23 1011   2.647   1.666   3.325 -0.0609 -0.1148 -0.0918
   85poe    c23 1012   2.619   1.817   3.318  0.2328 -0.0844 -0.5970
   85poe     o2 1013   2.600   1.876   3.444 -0.3474  0.3021 -0.8563
   85poe    c23 1014   2.594   2.017   3.448 -0.1535  0.2974 -0.3159
   85poe    c23 1015   2.603   2.039   3.600  0.0512 -0.3564 -0.2272
   85poe     o2 1016   2.708   1.951   3.633  0.3208  0.0158 -0.0715
   85poe    c23 1017   2.758   1.999   3.755  0.1702 -0.2218  0.0858
   85poe    c23 1018   2.839   1.888   3.826 -0.2309 -0.3295  0.3776
   85poe     o2 1019   2.891   1.800   3.730 -0.7335 -0.4765  0.2343
   85poe    c31 1020   2.973   1.693   3.772  0.2100 -0.2126 -0.8756
   86poe    c31 1021   1.593   0.048   4.972  0.0801 -0.8184 -0.0449
   86poe     o2 1022   1.675  -0.040   5.047  0.5220 -0.2767  0.1127
   86poe    c23 1023   1.613  -0.164   5.072  0.1197 -0.2179 -0.5476
   86poe    c23 1024   1.704  -0.275   5.129  0.1545 -0.0000 -0.1741
   86poe     o2 1025   1.825  -0.248   5.063  0.2576 -0.0570 -0.0115
   86poe    c23 1026   1.932  -0.309   5.131  0.4255  0.1370 -0.1020
   86poe    c23 1027   2.062  -0.270   5.057  0.1364  0.3998 -0.4782
   86poe     o2 1028   2.039  -0.136   5.018  0.0698  0.4597 -0.2393
   86poe    c23 1029   2.115  -0.107   4.903  0.0990 -0.1265 -0.3735
   86poe    c23 1030   2.095   0.043   4.876 -0.7758 -0.0301  0.7202
   86poe     o2 1031   1.958   0.074   4.888 -0.8135  0.0694  0.1003
   86poe    c31 1032   1.930   0.211   4.896 -0.1096  0.2084  0.2746
   87poe    c31 1033   3.027   4.900   1.452 -0.4699  0.0961  0.3345
   87poe     o2 1034   3.119   4.810   1.395  0.1007  0.5658  0.4939
   87poe    c23 1035   3.226   4.884   1.342  0.0212  0.3485  0.0240
   87poe    c23 1036   3.338   4.788   1.297 -0.4343 -0.0353 -0.2942
   87poe     o2 1037   3.340   4.684   1.392  0.2237  0.1498 -0.1026
   87poe    c23 1038   3.423   4.575   1.359  0.1625  0.0692  0.0098
   87poe    c23 1039   3.380   4.459   1.451  0.2558 -0.0052 -0.0402
   87poe     o2 1040   3.242   4.464   1.480  0.2441 -0.3618 -0.0366
   87poe    c23 1041   3.213   4.425   1.613  0.3533  0.4882  0.2446
   87poe    c23 1042   3.060   4.435   1.624  0.2815 -0.0912 -0.1383
   87poe     o2 1043   3.027   4.558   1.562 -0.1731  0.0139  0.3098
   87poe    c31 1044   2.886   4.562   1.575 -0.1793 -0.2358  0.3369
   88poe    c31 1045   5.393   3.991   3.691  0.4555  0.3797  0.1987
   88poe     o2 1046   5.282   4.075   3.667  0.2854  0.3170  0.7419
   88poe    c23 1047   5.224   4.019   3.551  0.1922  0.5535  0.6753
   88poe    c23 1048   5.081   4.068   3.583  0.0219  0.3270  0.2679
   88poe     o2 1049   5.068   4.194   3.645  0.0107  0.4475  0.0242
   88poe    c23 1050   5.000   4.282   3.559 -0.2901 -0.4050 -0.6230
   88poe    c23 1051   5.037   4.415   3.627 -0.3851 -0.6766 -0.0286
   88poe     o2 1052   5.176   4.406   3.650 -0.3456 -0.0617  0.0111
   88poe    c23 1053   5.239   4.515   3.712 -0.0029 -0.2314 -0.0364
   88poe    c23 1054   5.385   4.466   3.719  0.1462  0.2096 -0.0507
   88poe     o2 1055   5.386   4.335   3.769 -0.0659  0.2547  0.0729
   88poe    c31 1056   5.507   4.301   3.832 -0.2076 -0.2017  0.1082
   89poe    c31 1057   4.088   2.819   1.615 -0.0033 -1.2328 -0.1197
   89poe     o2 1058   3.979   2.828   1.526 -0.3341  0.2250  0.4040
   89poe    c23 1059   4.029   2.895   1.412 -0.1434 -0.8545 -0.1612
   89poe    c23 1060   3.915   2.932   1.315 -0.2351 -0.3428  0.1383
   89poe     o2 1061   3.800   2.948   1.395 -0.2118 -0.0396  0.1113
   89poe    c23 1062   3.679   2.951   1.322 -0.1181 -0.4260 -0.0607
   89poe    c23 1063   3.576   2.973   1.434  0.0377  0.3601 -0.0652
   89poe     o2 1064   3.611   2.867   1.520 -0.2242 -0.3379 -0.8022
   89poe    c23 1065   3.552   2.875   1.648  0.6856 -0.2513 -0.3729
   89poe    c23 1066   3.621   2.777   1.745  0.1220  0.3825  0.6920
   89poe     o2 1067   3.758   2.781   1.708 -0.0326 -0.4986 -0.0190
   89poe    c31 1068   3.822   2.741   1.827 -0.0433  0.3939  0.3001
   90poe    c31 1069   3.198   0.969   0.872 -0.2775  0.7688  0.7753
   90poe     o2 1070   3.158   0.951   1.006 -0.2241  0.3186  0.7332
   90poe    c23 1071   3.181   0.817   1.039  0.0952 -0.0431 -0.8673
   90poe    c23 1072   3.101   0.782   1.167  0.0664  0.1378 -0.8365
   90poe     o2 1073   3.146   0.888   1.249 -0.3458  0.1269 -0.5934
   90poe    c23 1074   3.069   0.895   1.367  0.2958  0.0598 -0.1629
   90poe    c23 1075   3.038   1.039   1.411  0.1080  0.0293 -0.1948
   90poe     o2 1076   3.038   1.116   1.293  0.4468 -0.1949 -0.3395
   90poe    c23 1077   3.063   1.253   1.313 -0.1539 -0.0379 -0.6478
   90poe    c23 1078   3.072   1.303   1.168 -0.6739 -0.4257 -0.8175
   90poe     o2 1079   3.174   1.226   1.109 -0.2448 -0.5525  0.0719
   90poe    c31 1080   3.230   1.278   0.990 -0.1785 -0.3885  0.1747
   91poe    c31 1081   3.823   3.129   5.734 -0.0115  0.3306  0.0784
   91poe     o2 1082   3.830   3.119   5.875 -0.2400 -0.2262  0.0531
   91poe    c23 1083   3.718   3.182   5.934 -0.5500 -0.5484 -0.1773
   91poe    c23 1084   3.719   3.150   6.084  0.0473 -0.4302 -0.1507
   91poe     o2 1085   3.852   3.167   6.128 -0.1899  0.5774  0.2055
   91poe    c23 1086   3.849   3.166   6.269 -0.1480 -0.1967  0.2077
   91poe    c23 1087   3.991   3.126   6.313 -0.2187 -0.2944  0.3436
   91poe     o2 1088   4.029   2.993   6.287 -0.0502 -0.1301 -0.2649
   91poe    c23 1089   4.151   2.979   6.218 -0.0379 -0.9007 -0.0970
   91poe    c23 1090   4.115   2.881   6.105 -0.7271 -0.8236  0.0519
   91poe     o2 1091   4.006   2.938   6.036 -0.3832 -0.0491  0.1383
   91poe    c31 1092   3.962   2.832   5.953  0.0364 -0.5494  0.5499
   92poe    c31 1093   5.852   4.496   6.718 -0.7168  0.1233  0.4219
   92poe     o2 1094   5.770   4.481   6.604 -0.4956 -0.3270  0.3205
   92poe    c23 1095   5.856   4.458   6.494 -0.4572  0.9710  0.0660
   92poe    c23 1096   5.787   4.467   6.357  0.1826  0.8961 -0.2652
   92poe     o2 1097   5.686   4.368   6.357  0.7351  0.3193 -0.8492
   92poe    c23 1098   5.585   4.401   6.265  0.0383 -0.2497 -0.2965
   92poe    c23 1099   5.455   4.453   6.329  0.4108 -0.0530  0.3067
   92poe     o2 1100   5.492   4.520   6.447 -0.3790 -0.2149  0.6514
   92poe    c23 1101   5.379   4.573   6.513 -0.6406  0.0380  0.0147
   92poe    c23 1102   5.414   4.634   6.651 -0.0807  0.3475 -0.2628
   92poe     o2 1103   5.473   4.523   6.715 -0.4190  0.0965 -0.3850
   92poe    c31 1104   5.453   4.544   6.853 -0.1958 -0.4046 -0.2727
   93poe    c31 1105   3.740   0.829   4.529  0.2357 -0.4571  0.2583
   93poe     o2 1106   3.749   0.750   4.645  0.3099 -0.3547  0.3219
   93poe    c23 1107   3.790   0.622   4.600  0.1898 -0.2081 -0.2131
   93poe    c23 1108   3.847   0.543   4.719 -0.3299 -0.6610 -0.2633
   93poe     o2 1109   3.728   0.529   4.794 -0.1502  0.0977  0.1792
   93poe    c23 1110   3.730   0.474   4.924 -0.1672 -0.3187  0.0062
   93poe    c23 1111   3.602   0.523   4.995  0.4456  0.5733  0.5081
   93poe     o2 1112   3.586   0.657   4.954 -0.2403  0.3099 -0.0910
   93poe    c23 1113   3.625   0.751   5.051  0.0582  0.0258  0.0678
   93poe    c23 1114   3.595   0.890   4.991 -0.1732  0.0409  0.2152
   93poe     o2 1115   3.604   0.894   4.850  0.8137  0.0327  0.2701
   93poe    c31 1116   3.584   1.027   4.808 -0.1369 -0.0974  0.2910
   94poe    c31 1117   6.139   2.055   1.124 -0.4241 -0.0829 -0.3307
   94poe     o2 1118   6.049   2.132   1.201 -0.1137  0.2717 -0.3179
   94poe    c23 1119   6.060   2.270   1.178 -0.3005  0.2769 -0.3755
   94poe    c23 1120   5.977   2.333   1.292 -0.0881 -0.1522  0.0200
   94poe     o2 1121   5.860   2.258   1.274 -0.2156  0.1363 -0.3810
   94poe    c23 1122   5.762   2.309   1.362  0.4771  1.0472 -0.1247
   94poe    c23 1123   5.656   2.197   1.355  0.9325  0.5625  0.5866
   94poe     o2 1124   5.720   2.073   1.367  0.0606  0.0856  0.4286
   94poe    c23 1125   5.643   1.956   1.356  0.2874  0.0111 -0.4058
   94poe    c23 1126   5.752   1.848   1.345 -0.1576 -0.4707 -0.1802
   94poe     o2 1127   5.857   1.878   1.256 -0.2755  0.0453 -0.1529
   94poe    c31 1128   5.897   1.753   1.202  0.7247  0.2167  0.1633
   95poe    c31 1129   2.534   4.969   0.363  0.1172  0.2269  0.5086
   95poe     o2 1130   2.409   4.927   0.313  0.4420 -0.5508  0.3262
   95poe    c23 1131   2.407   4.913   0.173 -0.5103  0.1481  0.2631
   95poe    c23 1132   2.264   4.902   0.116 -0.4343 -0.2137  0.1417
   95poe     o2 1133   2.184   4.815   0.192 -0.3621 -0.4738 -0.0767
   95poe    c23 1134   2.050   4.851   0.169 -0.3496 -0.4413 -0.0980
   95poe    c23 1135   1.968   4.780   0.279 -0.1332 -0.2177  0.2110
   95poe     o2 1136   2.040   4.823   0.392 -0.0937 -0.1488  0.1601
   95poe    c23 1137   1.985   4.752   0.501  0.2025 -0.3772  0.1634
   95poe    c23 1138   2.044   4.803   0.634  0.0650 -0.0820  0.1130
   95poe     o2 1139   2.183   4.783   0.628  0.2323  1.0319  0.0566
   95poe    c31 1140   2.248   4.805   0.751  0.0269  0.8226  0.2034
   96poe    c31 1141   3.965   1.102   5.334 -0.6727 -0.2984  0.2398
   96poe     o2 1142   3.915   1.161   5.452 -0.1795  0.3521  0.1228
   96poe    c23 1143   3.783   1.122   5.479 -0.1342 -0.3212 -0.5990
   96poe    c23 1144   3.688   1.229   5.421 -0.4392 -0.1280  0.2416
   96poe     o2 1145   3.752   1.348   5.461 -0.4394 -0.1317  0.2533
   96poe    c23 1146   3.730   1.455   5.373 -0.0360 -0.0676  0.2275
   96poe    c23 1147   3.847   1.553   5.395 -0.0669 -0.1488  0.7701
   96poe     o2 1148   3.962   1.474   5.375 -0.2278 -0.2975  0.4312
   96poe    c23 1149   4.080   1.549   5.393 -0.1326 -0.2479 -0.3439
   96poe    c23 1150   4.198   1.451   5.395 -0.0056 -0.0889  0.1553
   96poe     o2 1151   4.154   1.342   5.473  0.1529 -0.6010 -0.4605
   96poe    c31 1152   4.271   1.271   5.506  0.3613  0.1176  0.3876
   97poe    c31 1153   1.007   3.140   6.786  0.1912 -1.0370  0.0695
   97poe     o2 1154   0.930   3.099   6.675 -0.0489  0.0877 -0.1947
   97poe    c23 1155   0.868   2.977   6.705 -0.0825  0.0395 -0.4623
   97poe    c23 1156   0.878   2.908   6.567 -0.3920  0.1352 -0.5341
   97poe     o2 1157   0.820   2.990   6.469 -0.3409  0.5750 -0.2016
   97poe    c23 1158   0.853   2.954   6.336  0.4105 -0.6698  0.3019
   97poe    c23 1159   0.986   3.027   6.311 -0.3924  0.4143 -0.9677
   97poe     o2 1160   0.992   3.149   6.381  0.2881 -0.3351  0.3160
   97poe    c23 1161   1.123   3.199   6.396  0.1814  0.0906 -0.1367
   97poe    c23 1162   1.110   3.343   6.450 -0.4484  0.0470 -0.1669
   97poe     o2 1163   1.000   3.349   6.538 -0.2926  0.2956  0.0101
   97poe    c31 1164   0.988   3.472   6.605 -0.0101  0.1124  0.4068
   98poe    c31 1165   4.738   3.791   0.325  0.2502  0.1223 -0.4458
   98poe     o2 1166   4.877   3.816   0.315  0.3060  0.0210  0.0650
   98poe    c23 1167   4.921   3.913   0.407 -0.0204  0.6698 -0.4588
   98poe    c23 1168   5.066   3.931   0.358  0.0679  0.2301 -0.3572
   98poe     o2 1169   5.119   3.801   0.343  0.1259  0.1810  0.2767
   98poe    c23 1170   5.256   3.798   0.308 -0.1610  0.0361 -0.8621
   98poe    c23 1171   5.267   3.647   0.281  0.4184 -0.0237 -0.3040
   98poe     o2 1172   5.148   3.593   0.229 -0.0054  0.6771 -0.0780
   98poe    c23 1173   5.127   3.465   0.284 -0.5377  0.5562 -0.5458
   98poe    c23 1174   4.998   3.412   0.220 -0.3151 -0.5249 -0.1185
   98poe     o2 1175   4.902   3.514   0.230  0.3017  0.0493 -0.0103
   98poe    c31 1176   4.790   3.477   0.153  0.2679 -0.7359  0.4142
   99poe    c31 1177   4.671   5.783   2.005 -0.5156  0.0088 -0.3217
   99poe     o2 1178   4.776   5.761   1.913  0.1069  0.2699  0.3173
   99poe    c23 1179   4.730   5.752   1.780 -0.1015  0.2309  0.3912
   99poe    c23 1180   4.857   5.733   1.696 -0.5702  0.1414 -0.3003
   99poe     o2 1181   4.947   5.653   1.768 -0.4105  0.5394 -0.0532
   99poe    c23 1182   5.070   5.641   1.700 -0.2800 -0.5214  0.3448
   99poe    c23 1183   5.159   5.560   1.796 -0.0071 -0.5135  0.0994
   99poe     o2 1184   5.133   5.607   1.926 -0.2479 -0.3630 -0.0023
   99poe    c23 1185   5.157   5.512   2.028 -0.0547 -0.2388  0.0701
   99poe    c23 1186   5.091   5.570   2.154  0.2409  0.3884 -0.0589
   99poe     o2 1187   4.958   5.600   2.118  0.1984 -0.0097 -0.2371
   99poe    c31 1188   4.865   5.563   2.217  0.2434  0.1642 -0.1304
  100poe    c31 1189   4.356   3.588   0.159 -0.3323 -0.5329 -0.2353
  100poe     o2 1190   4.247   3.677   0.170 -0.1404 -0.4160  0.8666
  100poe    c23 1191   4.147   3.612   0.096  0.0455 -0.1933  0.4177
  100poe    c23 1192   4.124   3.692  -0.033 -0.0573 -0.0341  0.5359
  100poe     o2 1193   4.096   3.823   0.012  0.2716  0.3259 -0.2779
  100poe    c23 1194   4.166   3.921  -0.062  0.0331  0.6620 -0.0618
  100poe    c23 1195   4.210   4.038   0.027  0.1042  0.0778  0.6850
  100poe     o2 1196   4.249   3.975   0.147  0.3799 -0.5120  0.2867
  100poe    c23 1197   4.247   4.075   0.246  0.1759  0.0477 -0.2802
  100poe    c23 1198   4.268   4.013   0.385 -0.0605 -0.1323 -0.3236
  100poe     o2 1199   4.231   3.877   0.376 -0.1745 -0.1188 -0.0792
  100poe    c31 1200   4.262   3.823   0.502  0.7193  0.2226 -0.1439
  101poe    c31 1201   3.111   1.149   3.401 -0.0640  0.4765  0.4117
  101poe     o2 1202   3.216   1.068   3.353  0.0238  1.1721 -0.6070
  101poe    c23 1203   3.338   1.099   3.416 -0.1613  0.0792  0.3159
  101poe    c23 1204   3.450   1.003   3.372  0.2093  0.3046  0.7617
  101poe     o2 1205   3.425   0.869   3.411  0.4376  0.1945  0.5332
  101poe    c23 1206   3.521   0.822   3.502  0.3426 -0.3765  0.3386
  101poe    c23 1207   3.489   0.675   3.537  0.3077 -0.4133  0.1495
  101poe     o2 1208   3.418   0.627   3.425  0.1509  0.1206  0.0155
  101poe    c23 1209   3.392   0.490   3.445 -0.1138  0.1738  0.0315
  101poe    c23 1210   3.393   0.436   3.301 -0.0266  0.0761  0.0684
  101poe     o2 1211   3.313   0.519   3.221  0.7160  0.1636 -0.5960
  101poe    c31 1212   3.299   0.457   3.095 -0.0467 -0.1833 -0.3493
  102poe    c31 1213   6.528   4.245   4.566  0.0918 -0.5773  0.6979
  102poe     o2 1214   6.567   4.367   4.626 -0.5052 -0.0258 -0.0160
  102poe    c23 1215   6.625   4.468   4.546 -1.1971  0.2109 -0.2229
  102poe    c23 1216   6.608   4.614   4.591  0.3909  0.3507 -0.0508
  102poe     o2 1217   6.481   4.674   4.581  0.2354  0.0157 -0.1011
  102poe    c23 1218   6.442   4.724   4.455  0.8246  0.0012 -0.2931
  102poe    c23 1219   6.470   4.873   4.427  0.5707  0.0356 -0.3733
  102poe     o2 1220   6.380   4.968   4.478  0.5347 -0.3013  0.2009
  102poe    c23 1221   6.416   5.098   4.436 -0.9975  0.1201  0.1260
  102poe    c23 1222   6.319   5.203   4.493 -0.4744  0.3687  0.5604
  102poe     o2 1223   6.191   5.197   4.434 -0.0353 -0.0890 -0.3592
  102poe    c31 1224   6.177   5.283   4.323 -0.2170 -0.0692 -0.3216
  103poe    c31 1225   1.877   4.632   1.376 -0.2663 -0.1876  0.0046
  103poe     o2 1226   1.859   4.768   1.409  0.0150 -0.1966  0.1936
  103poe    c23 1227   1.764   4.795   1.510  0.0613  0.0933  0.1613
  103poe    c23 1228   1.817   4.904   1.605  0.0518  0.3757 -0.1573
  103poe     o2 1229   1.881   5.002   1.525  0.1657  0.1372 -0.3613
  103poe    c23 1230   1.919   5.118   1.596  0.1347 -0.3407  0.4481
  103poe    c23 1231   1.984   5.200   1.484 -0.0423 -0.6881  0.0885
  103poe     o2 1232   2.054   5.122   1.390 -0.5552 -0.4362 -0.5124
  103poe    c23 1233   2.028   5.161   1.257 -0.4924 -0.3106 -0.4877
  103poe    c23 1234   2.018   5.038   1.165  0.2453 -0.4044 -0.4445
  103poe     o2 1235   1.934   4.934   1.211 -0.2513  0.0639 -0.2831
  103poe    c31 1236   1.863   4.863   1.112  0.2959 -0.6433 -0.1776
  104poe    c31 1237   2.749   2.536   2.904 -0.2138  0.2318 -1.0662
  104poe     o2 1238   2.731   2.673   2.933 -0.5910 -0.0048 -0.1591
  104poe    c23 1239   2.649   2.748   2.847 -0.7285 -0.4290 -0.3995
  104poe    c23 1240   2.649   2.893   2.898  0.4083 -0.3266 -0.6806
  104poe     o2 1241   2.619   2.892   3.035 -0.1053  0.1098 -0.7853
  104poe    c23 1242   2.628   3.021   3.092 -1.2672  0.1175 -0.5909
  104poe    c23 1243   2.596   3.002   3.241  0.4216  0.3221 -0.1772
  104poe     o2 1244   2.682   2.895   3.272 -0.5810 -0.3142  0.4606
  104poe    c23 1245   2.708   2.863   3.407 -0.1738 -0.5929  0.3174
  104poe    c23 1246   2.793   2.734   3.403  0.8998  0.1114 -0.0913
  104poe     o2 1247   2.735   2.633   3.323 -0.2413  0.0352  0.8058
  104poe    c31 1248   2.799   2.508   3.333 -0.0033  0.0335 -0.5176
  105poe    c31 1249   3.083   4.562   3.039 -0.0060  0.3357  0.3585
  105poe     o2 1250   3.029   4.597   3.164 -0.3936 -0.1078  0.3155
  105poe    c23 1251   3.096   4.708   3.219 -0.4513  0.3172 -0.4681
  105poe    c23 1252   3.016   4.755   3.341 -0.3519 -0.2211 -0.1940
  105poe     o2 1253   2.878   4.755   3.312 -0.3334  0.2735 -0.2905
  105poe    c23 1254   2.797   4.756   3.427  0.0851  0.0172  0.0067
  105poe    c23 1255   2.659   4.725   3.367 -0.0042  0.0584  0.1884
  105poe     o2 1256   2.667   4.609   3.287 -0.0943  0.1623  0.0276
  105poe    c23 1257   2.643   4.498   3.370  0.1228 -0.2450 -0.4543
  105poe    c23 1258   2.714   4.375   3.309  0.3383 -0.0633 -0.5727
  105poe     o2 1259   2.841   4.424   3.271  0.3072  0.4628 -0.0127
  105poe    c31 1260   2.952   4.340   3.288  0.2918  0.2954 -0.7267
  106poe    c31 1261   2.186   3.585   0.490  0.2364  0.0703  0.1161
  106poe     o2 1262   2.117   3.707   0.474 -0.0005 -0.0804 -0.0259
  106poe    c23 1263   1.979   3.692   0.500  0.1221 -0.2978  0.5323
  106poe    c23 1264   1.898   3.810   0.443 -0.1607 -0.5076  0.4962
  106poe     o2 1265   1.760   3.784   0.459 -0.4383  0.3584 -0.3593
  106poe    c23 1266   1.694   3.869   0.549  0.1438  0.2347  0.1972
  106poe    c23 1267   1.630   3.985   0.469  0.1686  0.4525  0.4906
  106poe     o2 1268   1.565   3.918   0.363  0.9037  0.3953  0.0734
  106poe    c23 1269   1.586   3.988   0.243 -0.3473  0.2493 -0.2443
  106poe    c23 1270   1.541   3.891   0.133  0.0408  0.1261 -0.2981
  106poe     o2 1271   1.594   3.764   0.162  0.4501  0.2634 -0.4381
  106poe    c31 1272   1.589   3.682   0.047 -0.4227 -0.2521 -0.0464
  107poe    c31 1273   3.471   2.824   1.022 -0.4489 -0.0914 -0.4177
  107poe     o2 1274   3.362   2.741   1.056 -0.5291  0.2117  0.0746
  107poe    c23 1275   3.391   2.647   1.157  0.1585 -0.1409 -0.4382
  107poe    c23 1276   3.289   2.532   1.153  0.2788 -0.2891  0.5638
  107poe     o2 1277   3.168   2.598   1.183  0.2085 -0.2216  0.1291
  107poe    c23 1278   3.057   2.512   1.174  0.1942 -0.1704 -0.2309
  107poe    c23 1279   2.941   2.610   1.150  0.6083  0.3939  0.0571
  107poe     o2 1280   3.001   2.717   1.080 -0.1093  0.4983 -0.4096
  107poe    c23 1281   2.939   2.842   1.103 -0.1753  0.3143  0.4482
  107poe    c23 1282   3.001   2.948   1.009  0.2967  0.0496  0.4540
  107poe     o2 1283   3.139   2.932   1.033  0.3838  0.0182 -0.0593
  107poe    c31 1284   3.191   3.050   0.977 -0.2541  0.3833  0.0997
  108poe    c31 1285   5.488   3.191   5.661  0.0920  0.2264  0.3837
  108poe     o2 1286   5.490   3.064   5.722 -0.1233  0.2097  0.3599
  108poe    c23 1287   5.604   3.056   5.805  0.0716  0.2488  0.0982
  108poe    c23 1288   5.640   2.907   5.818  0.2893  0.2664 -0.2943
  108poe     o2 1289   5.514   2.845   5.815  0.4956 -0.2400  0.9307
  108poe    c23 1290   5.503   2.713   5.864 -0.6578 -0.1795  0.8704
  108poe    c23 1291   5.405   2.639   5.773  0.0967  0.0006 -0.1046
  108poe     o2 1292   5.385   2.722   5.660 -0.1986 -0.3065 -0.2835
  108poe    c23 1293   5.263   2.711   5.592 -0.1810 -0.5156 -0.2827
  108poe    c23 1294   5.285   2.799   5.468 -0.4946  0.0085  0.0300
  108poe     o2 1295   5.339   2.923   5.511  0.3286 -0.0755 -0.7209
  108poe    c31 1296   5.360   3.014   5.406  0.7475  0.6460 -0.0178
  109poe    c31 1297   1.540   6.784   2.112  0.6365  0.6815 -0.1779
  109poe     o2 1298   1.662   6.742   2.168  0.6408 -0.0381 -0.7147
  109poe    c23 1299   1.763   6.836   2.139  0.1065  0.5138 -0.8002
  109poe    c23 1300   1.899   6.764   2.138 -0.3797 -0.4062 -0.6916
  109poe     o2 1301   1.933   6.706   2.262 -0.0933 -0.2336 -0.6895
  109poe    c23 1302   2.006   6.585   2.257 -0.0984 -0.3029  0.5116
  109poe    c23 1303   1.924   6.461   2.216  0.4253 -0.4674 -0.0471
  109poe     o2 1304   1.798   6.466   2.277  0.6428 -0.4110  0.3982
  109poe    c23 1305   1.724   6.346   2.280  0.2990 -0.2014  0.3431
  109poe    c23 1306   1.588   6.374   2.347 -0.1577 -0.0578 -0.6288
  109poe     o2 1307   1.541   6.487   2.276 -0.1205  0.2426 -0.1833
  109poe    c31 1308   1.400   6.492   2.274 -0.1178  0.1880 -0.8784
  110poe    c31 1309   0.399   3.565   3.355  0.0999 -0.1017 -0.1686
  110poe     o2 1310   0.318   3.450   3.355  0.1981 -0.1706 -0.2626
  110poe    c23 1311   0.366   3.359   3.452  0.2158  0.0924 -0.0248
  110poe    c23 1312   0.317   3.221   3.405  0.1419  0.2162 -0.3167
  110poe     o2 1313   0.181   3.231   3.370  0.3421  0.2676 -1.0959
  110poe    c23 1314   0.156   3.125   3.280  0.3637 -0.5221 -0.1852
  110poe    c23 1315   0.045   3.186   3.192  0.1825 -0.4757  0.0713
  110poe     o2 1316   0.099   3.292   3.116 -0.4437 -0.4414 -0.3307
  110poe    c23 1317  -0.006   3.363   3.055  0.1754 -0.2224 -1.1677
  110poe    c23 1318   0.056   3.503   3.040  0.0841 -0.0394  0.0193
  110poe     o2 1319   0.102   3.549   3.165 -0.2103  0.1211  0.0677
  110poe    c31 1320   0.116   3.689   3.175 -0.1603  0.1060  0.1988
  111poe    c31 1321   0.668   0.334   1.011  0.2530 -0.2337 -0.1969
  111poe     o2 1322   0.742   0.413   0.921  0.1184 -0.2192 -0.2950
  111poe    c23 1323   0.877   0.391   0.954  0.2031 -0.3594 -0.7244
  111poe    c23 1324   0.968   0.444   0.842 -0.2877  1.0909 -0.4571
  111poe     o2 1325   0.905   0.408   0.721  0.1551  0.3411 -0.4711
  111poe    c23 1326   0.982   0.477   0.625  0.0277 -0.4034 -1.1218
  111poe    c23 1327   0.903   0.456   0.495 -0.4836 -1.0752 -0.7072
  111poe     o2 1328   0.767   0.475   0.529  0.0177  0.3437  0.6514
  111poe    c23 1329   0.708   0.367   0.459 -0.1827  0.6398  0.3585
  111poe    c23 1330   0.572   0.338   0.525 -0.2860 -0.4109 -0.2927
  111poe     o2 1331   0.592   0.315   0.663 -0.0367 -0.1616 -0.2869
  111poe    c31 1332   0.485   0.234   0.705 -0.3689  0.6366  0.4242
  112poe    c31 1333   6.478   0.780   3.663  0.2028 -0.1489 -0.0719
  112poe     o2 1334   6.514   0.909   3.620 -0.5151 -0.0390 -0.3621
  112poe    c23 1335   6.635   0.947   3.680 -0.5066 -0.0273 -0.3861
  112poe    c23 1336   6.665   1.095   3.651 -0.6268  0.1837  0.5295
  112poe     o2 1337   6.648   1.101   3.511  0.5862  0.0288  0.3599
  112poe    c23 1338   6.657   1.232   3.460 -0.7710  0.1503  0.3890
  112poe    c23 1339   6.587   1.213   3.324  0.1505 -0.0664 -0.0617
  112poe     o2 1340   6.453   1.174   3.344  0.1573  0.0660  0.2597
  112poe    c23 1341   6.404   1.115   3.226  0.5482 -0.4360  0.3433
  112poe    c23 1342   6.285   1.027   3.271  0.1066  0.3093  0.6490
  112poe     o2 1343   6.327   0.942   3.376  0.0491 -0.5649 -0.0280
  112poe    c31 1344   6.230   0.850   3.421 -0.3643  0.2468  0.7735
  113poe    c31 1345   3.693   5.717   3.484 -0.4438  0.5678 -0.4035
  113poe     o2 1346   3.781   5.743   3.378 -0.0975  0.1718 -0.2183
  113poe    c23 1347   3.725   5.768   3.250 -0.0392  0.4797 -0.1858
  113poe    c23 1348   3.835   5.835   3.166  0.0613  0.8154  0.2083
  113poe     o2 1349   3.950   5.759   3.196 -0.5527 -0.2290 -0.0365
  113poe    c23 1350   4.056   5.798   3.111 -0.2124  0.1603  0.5611
  113poe    c23 1351   4.178   5.746   3.190  0.2234  0.3601  0.0231
  113poe     o2 1352   4.144   5.776   3.324  0.3788  0.5013  0.0315
  113poe    c23 1353   4.230   5.711   3.415  0.0641 -0.2439 -0.1899
  113poe    c23 1354   4.193   5.753   3.559 -0.5844 -0.3555 -0.3228
  113poe     o2 1355   4.059   5.712   3.577 -0.6204 -0.0991  0.0122
  113poe    c31 1356   4.017   5.782   3.691 -0.1631 -0.1793  0.2307
  114poe    c31 1357   3.135   5.448   0.693  0.4819 -0.0778 -0.3643
  114poe     o2 1358   3.247   5.431   0.777  0.1244  0.2438  0.1728
  114poe    c23 1359   3.356   5.382   0.704 -0.2750 -0.3994  0.0002
  114poe    c23 1360   3.470   5.340   0.798  0.2397  0.7504 -0.0884
  114poe     o2 1361   3.439   5.403   0.920  0.3226  0.2897  0.1749
  114poe    c23 1362   3.550   5.400   1.007 -0.0088 -0.1977  0.5838
  114poe    c23 1363   3.519   5.488   1.130 -0.2529  0.7361 -0.1383
  114poe     o2 1364   3.385   5.530   1.115 -0.2880  0.6180 -0.1630
  114poe    c23 1365   3.386   5.671   1.114  0.9139  0.6265 -0.8970
  114poe    c23 1366   3.244   5.729   1.093  0.9879  0.8364 -0.8246
  114poe     o2 1367   3.189   5.640   0.998 -0.1158  0.0276  0.5394
  114poe    c31 1368   3.065   5.693   0.960 -0.1000 -0.0720  0.3476
  115poe    c31 1369   1.044   0.161   3.654  0.0989 -0.6985 -0.0448
  115poe     o2 1370   1.168   0.107   3.616  0.4431  0.1491 -0.1392
  115poe    c23 1371   1.224   0.041   3.727  0.2584  0.5335  0.1849
  115poe    c23 1372   1.358  -0.017   3.678 -0.2814 -0.3466 -0.2846
  115poe     o2 1373   1.397   0.085   3.588 -0.3277  0.0435  0.1291
  115poe    c23 1374   1.510   0.043   3.514 -0.3573  0.0526  0.0786
  115poe    c23 1375   1.565   0.159   3.429  0.4813 -0.4178 -0.0217
  115poe     o2 1376   1.450   0.201   3.360  0.3816 -0.7429 -0.0569
  115poe    c23 1377   1.461   0.324   3.292  0.1031 -0.1447  0.9532
  115poe    c23 1378   1.314   0.360   3.263  0.2317 -0.1799  0.2267
  115poe     o2 1379   1.237   0.340   3.380  0.0009  0.0948  0.1232
  115poe    c31 1380   1.102   0.381   3.372 -0.0741 -0.1883 -0.1030
  116poe    c31 1381   4.893   4.781   6.159 -0.0207  0.2950  0.9164
  116poe     o2 1382   4.951   4.857   6.055 -0.0770 -0.5142  0.2917
  116poe    c23 1383   4.879   4.866   5.934 -0.0128  0.1741  0.3018
  116poe    c23 1384   4.941   4.969   5.839 -0.4144  0.1510  0.0116
  116poe     o2 1385   5.005   5.060   5.926 -0.3988 -0.0586  0.2175
  116poe    c23 1386   5.078   5.136   5.833 -0.7121  0.1104  0.1082
  116poe    c23 1387   5.169   5.242   5.899  0.0560 -0.1820 -0.4585
  116poe     o2 1388   5.224   5.194   6.019 -0.1323 -0.1423 -0.3567
  116poe    c23 1389   5.339   5.114   6.013 -0.1941 -0.2430 -0.1961
  116poe    c23 1390   5.357   5.022   6.136 -0.0404 -0.1837 -0.1739
  116poe     o2 1391   5.242   4.940   6.134 -0.1116 -0.0928  0.1422
  116poe    c31 1392   5.283   4.808   6.160 -0.1760 -0.0598  0.4181
  117poe    c31 1393   5.151   5.578   6.441 -0.6640  0.4854  0.0018
  117poe     o2 1394   5.151   5.519   6.569  0.4738 -0.3183 -0.3525
  117poe    c23 1395   5.045   5.573   6.645  0.8209 -0.3212  0.1396
  117poe    c23 1396   5.026   5.503   6.781 -0.2888  0.3671  0.3480
  117poe     o2 1397   4.978   5.372   6.763  0.4471  0.1636 -0.1971
  117poe    c23 1398   5.037   5.275   6.847 -0.8047 -0.1584  0.3354
  117poe    c23 1399   5.136   5.180   6.776 -0.5100  0.2068  0.2513
  117poe     o2 1400   5.246   5.250   6.724 -0.3135 -0.0685  0.2931
  117poe    c23 1401   5.331   5.155   6.663 -0.0238  0.3914 -0.0242
  117poe    c23 1402   5.451   5.238   6.615  0.2840  0.1994  0.4074
  117poe     o2 1403   5.397   5.356   6.558  0.1332 -0.1105 -0.0941
  117poe    c31 1404   5.496   5.416   6.477 -0.0981 -0.4335 -0.6204
  118poe    c31 1405   3.520   4.270   0.861 -0.3741 -0.0536 -0.2840
  118poe     o2 1406   3.648   4.259   0.918 -0.0717 -0.7250 -1.0644
  118poe    c23 1407   3.736   4.362   0.880 -0.1763 -0.3461 -0.3042
  118poe    c23 1408   3.879   4.335   0.929 -0.1259  0.1352 -0.1799
  118poe     o2 1409   3.880   4.195   0.909  0.3046  0.0819  0.1955
  118poe    c23 1410   4.004   4.134   0.938  0.1781 -0.2870 -0.0378
  118poe    c23 1411   3.989   3.986   0.898  0.3203 -0.5182  0.7413
  118poe     o2 1412   3.879   3.936   0.971 -0.2044 -0.0098  0.3158
  118poe    c23 1413   3.829   3.811   0.927  0.0577  0.1187 -0.3541
  118poe    c23 1414   3.691   3.811   0.994  0.0614 -0.2744 -0.3468
  118poe     o2 1415   3.631   3.928   0.943 -0.5626 -0.6006 -0.3775
  118poe    c31 1416   3.510   3.940   1.014 -0.0077  0.0361  0.4837
  119poe    c31 1417   4.700   2.705   1.630  1.0416  0.0043  0.0116
  119poe     o2 1418   4.718   2.569   1.596  0.1914 -0.0153 -0.3744
  119poe    c23 1419   4.805   2.556   1.486  0.0042 -0.5782 -0.4598
  119poe    c23 1420   4.949   2.516   1.525  0.1862  0.3715 -0.1254
  119poe     o2 1421   5.034   2.614   1.580 -0.0111  0.5867 -0.2052
  119poe    c23 1422   5.167   2.574   1.558 -0.0005  0.4463  0.1065
  119poe    c23 1423   5.269   2.656   1.640  0.5877 -0.0837 -0.0870
  119poe     o2 1424   5.288   2.793   1.613 -0.5166  0.0842 -0.0560
  119poe    c23 1425   5.375   2.857   1.703  0.0677 -0.3492 -0.3084
  119poe    c23 1426   5.391   3.002   1.653 -0.0695 -0.0436  0.5158
  119poe     o2 1427   5.265   3.048   1.612 -0.2174 -0.2155  0.7710
  119poe    c31 1428   5.255   3.188   1.626  0.0126 -0.0603 -0.4505
  120poe    c31 1429   0.495   5.093   4.009  0.0009 -0.0214 -0.0305
  120poe     o2 1430   0.455   5.192   4.100  0.7406 -0.1638  0.4624
  120poe    c23 1431   0.508   5.174   4.229  0.4703  0.4201  0.6612
  120poe    c23 1432   0.506   5.310   4.301 -0.0279  0.3081  0.8605
  120poe     o2 1433   0.378   5.363   4.275  0.0813  0.1198 -0.0940
  120poe    c23 1434   0.367   5.498   4.313  0.4680 -0.0599  0.6778
  120poe    c23 1435   0.223   5.539   4.278  0.5173 -0.3166  0.1664
  120poe     o2 1436   0.226   5.508   4.140 -0.2666  0.2246  0.0158
  120poe    c23 1437   0.104   5.505   4.070 -0.1157  0.4486 -0.2585
  120poe    c23 1438   0.123   5.436   3.934 -0.2286 -0.1180  0.0096
  120poe     o2 1439   0.217   5.333   3.955 -0.0283  0.0828  0.1138
  120poe    c31 1440   0.282   5.311   3.832  0.7894 -0.0696  0.5728
  121poe    c31 1441   4.537   3.313   0.701 -0.1701 -0.0107  0.2853
  121poe     o2 1442   4.552   3.236   0.818  0.2326 -0.5264 -0.1004
  121poe    c23 1443   4.605   3.310   0.926  0.2556 -0.2251 -0.3159
  121poe    c23 1444   4.499   3.316   1.038  0.2378 -0.0684 -0.3410
  121poe     o2 1445   4.454   3.183   1.049 -0.1009  0.0970  0.2743
  121poe    c23 1446   4.350   3.173   1.144 -0.0137  0.1931  0.3802
  121poe    c23 1447   4.287   3.038   1.106 -0.1795  0.4908 -0.4077
  121poe     o2 1448   4.296   3.036   0.965 -0.0776  0.2224 -0.3980
  121poe    c23 1449   4.282   2.900   0.927  0.0392 -0.0610  0.5513
  121poe    c23 1450   4.315   2.891   0.777  0.4882  0.2948  0.6272
  121poe     o2 1451   4.439   2.957   0.765  0.6176 -0.0147  0.2687
  121poe    c31 1452   4.496   2.933   0.638 -0.1557 -0.0961 -0.0711
  122poe    c31 1453   6.299   0.807   5.918  0.3794  0.2345  0.4806
  122poe     o2 1454   6.165   0.849   5.937  0.2452  0.0645 -0.0712
  122poe    c23 1455   6.168   0.989   5.954  0.3907  0.0427  0.0947
  122poe    c23 1456   6.038   1.034   6.023  0.0648  0.0104 -0.4863
  122poe     o2 1457   5.935   0.948   5.980  0.4540 -0.3413 -0.7190
  122poe    c23 1458   5.831   0.944   6.076  0.4503 -0.2549 -0.7194
  122poe    c23 1459   5.766   0.816   6.019  0.0207  0.0293 -0.8689
  122poe     o2 1460   5.862   0.714   6.003 -0.1454 -0.2259 -0.2471
  122poe    c23 1461   5.803   0.609   5.929 -0.2189 -0.3153 -0.0629
  122poe    c23 1462   5.923   0.527   5.878  0.3884  0.1737  0.5587
  122poe     o2 1463   6.011   0.614   5.811 -0.1472  0.3487  0.0691
  122poe    c31 1464   6.124   0.538   5.776 -0.1215  0.1904  0.4908
  123poe    c31 1465   6.524   1.099   4.264 -0.3097  0.2437 -0.1058
  123poe     o2 1466   6.440   1.210   4.283 -0.1435  0.3886 -0.2122
  123poe    c23 1467   6.513   1.318   4.229  0.2217  0.0234 -0.4498
  123poe    c23 1468   6.457   1.454   4.273  0.1042  0.1865 -1.0961
  123poe     o2 1469   6.316   1.442   4.276  0.1082  0.4035  0.1796
  123poe    c23 1470   6.243   1.543   4.342 -0.5933  0.0485 -0.0431
  123poe    c23 1471   6.098   1.493   4.339 -0.6238  0.1514 -0.3521
  123poe     o2 1472   6.125   1.354   4.347 -0.0255  0.2918  0.1001
  123poe    c23 1473   6.008   1.276   4.338 -0.2300  0.6125 -0.0354
  123poe    c23 1474   6.057   1.130   4.332  0.0876  0.7091  0.1885
  123poe     o2 1475   6.173   1.117   4.253 -0.3064  0.0767 -0.2959
  123poe    c31 1476   6.184   0.979   4.226  0.5004 -0.0035  0.3993
  124poe    c31 1477   0.153   0.433   1.307 -0.3338  0.8315  0.8351
  124poe     o2 1478   0.287   0.455   1.270 -0.4098  0.6633  0.4550
  124poe    c23 1479   0.369   0.389   1.365 -0.0015  0.3815 -0.0905
  124poe    c23 1480   0.514   0.432   1.392  0.0693  0.0787  0.0165
  124poe     o2 1481   0.521   0.560   1.452 -0.0040 -0.1873  0.5936
  124poe    c23 1482   0.657   0.593   1.470 -0.1283  0.4893  0.3089
  124poe    c23 1483   0.673   0.722   1.553 -0.0440  0.5926  0.1325
  124poe     o2 1484   0.648   0.839   1.479  0.2039  0.5805  0.0286
  124poe    c23 1485   0.624   0.957   1.554  0.3204  0.2632  0.5728
  124poe    c23 1486   0.677   1.072   1.467  0.2721 -0.2877 -0.1964
  124poe     o2 1487   0.643   1.038   1.334 -0.3739 -0.0402 -0.0962
  124poe    c31 1488   0.628   1.158   1.262  0.2130  0.2931  0.3232
  125poe    c31 1489   6.426   5.015   3.365 -0.4560  0.3393 -0.3536
  125poe     o2 1490   6.436   4.985   3.228  0.1623  0.5744 -0.3600
  125poe    c23 1491   6.378   4.865   3.183 -0.1664  0.6026 -0.0173
  125poe    c23 1492   6.373   4.897   3.033  0.3613  0.2052 -0.1275
  125poe     o2 1493   6.488   4.968   2.994  0.3415  0.3536  0.0856
  125poe    c23 1494   6.461   5.049   2.882  0.1891  0.0789 -0.0769
  125poe    c23 1495   6.578   5.148   2.868  0.4092 -0.1958 -0.1877
  125poe     o2 1496   6.584   5.210   2.994  0.0662 -0.3308 -0.1067
  125poe    c23 1497   6.697   5.290   3.018 -0.2897  0.1691 -0.0928
  125poe    c23 1498   6.688   5.346   3.161 -0.4061 -0.1362  0.0197
  125poe     o2 1499   6.614   5.261   3.246 -0.0545 -0.2918  0.1682
  125poe    c31 1500   6.655   5.308   3.372  0.5218  0.2350 -0.2076
  126poe    c31 1501   0.286   5.372   5.715 -0.1148  0.4181 -0.2293
  126poe     o2 1502   0.159   5.345   5.771  0.3975 -0.8694  0.3449
  126poe    c23 1503   0.080   5.258   5.694  0.1273 -0.0762 -0.2870
  126poe    c23 1504  -0.013   5.184   5.792  0.2031  0.5185  0.2410
  126poe     o2 1505  -0.066   5.278   5.882 -0.3638  0.1573  0.2869
  126poe    c23 1506  -0.153   5.224   5.979 -0.8314  0.3797 -0.0018
  126poe    c23 1507  -0.179   5.348   6.066 -0.0712  0.2768  0.3787
  126poe     o2 1508  -0.054   5.408   6.095  0.0821  0.1809 -0.0724
  126poe    c23 1509   0.017   5.355   6.205  0.0188 -0.9917 -0.5759
  126poe    c23 1510   0.160   5.411   6.188 -0.6202  0.8783 -0.0804
  126poe     o2 1511   0.205   5.380   6.058  0.2740  0.3203  0.3544
  126poe    c31 1512   0.344   5.406   6.052  0.3625 -0.0511  0.7644
  127poe    c31 1513   1.858   1.743   2.124 -0.2579  0.6648 -0.0044
  127poe     o2 1514   1.997   1.740   2.144 -0.2692  0.6527  0.0728
  127poe    c23 1515   2.028   1.834   2.245 -0.3785  0.7176  0.0456
  127poe    c23 1516   2.137   1.758   2.322 -0.3638  0.0207 -0.6514
  127poe     o2 1517   2.230   1.752   2.215  0.0997 -0.5445 -0.2232
  127poe    c23 1518   2.333   1.666   2.257 -0.6882 -1.4334 -0.0774
  127poe    c23 1519   2.410   1.638   2.127 -0.0715  0.0132 -0.0379
  127poe     o2 1520   2.317   1.627   2.021  0.1494  0.2809 -0.2620
  127poe    c23 1521   2.365   1.665   1.894 -0.2548 -0.3780 -0.6163
  127poe    c23 1522   2.266   1.757   1.821 -0.3160  0.0587  0.0091
  127poe     o2 1523   2.150   1.786   1.897 -0.5708 -0.5428 -0.1400
  127poe    c31 1524   2.061   1.862   1.819  0.1493 -0.1398 -0.5797
  128poe    c31 1525   3.210   6.626   3.125  0.3221  0.2316  0.8284
  128poe     o2 1526   3.323   6.553   3.082  0.1559  0.5230 -0.1397
  128poe    c23 1527   3.433   6.547   3.170 -0.1699 -0.1237  0.2378
  128poe    c23 1528   3.561   6.525   3.087 -0.4185 -0.1774 -0.1366
  128poe     o2 1529   3.523   6.437   2.984  0.1575 -0.5373 -0.0453
  128poe    c23 1530   3.635   6.412   2.902  0.4133 -0.0930  0.1641
  128poe    c23 1531   3.588   6.335   2.777 -0.2343  0.0956  0.2850
  128poe     o2 1532   3.466   6.387   2.731  0.0034  0.4515  0.0561
  128poe    c23 1533   3.397   6.303   2.642  0.0149  0.2136  0.2681
  128poe    c23 1534   3.268   6.387   2.632 -0.0267  0.1791  0.5313
  128poe     o2 1535   3.226   6.422   2.762  0.1501  0.2142  0.5792
  128poe    c31 1536   3.085   6.425   2.770  0.0127 -1.0349 -0.9556
  129poe    c31 1537   4.287   0.153   5.898  0.2933  0.4908 -0.0084
  129poe     o2 1538   4.313   0.038   5.976 -0.7001  0.1091 -0.2235
  129poe    c23 1539   4.416   0.047   6.072 -0.3901 -0.6769 -0.4706
  129poe    c23 1540   4.404  -0.079   6.159 -0.8307 -0.1795  0.2076
  129poe     o2 1541   4.366  -0.188   6.078 -0.5062  0.1536 -0.4035
  129poe    c23 1542   4.448  -0.302   6.064 -0.6435 -0.0383  0.2811
  129poe    c23 1543   4.359  -0.405   5.992 -0.7335 -0.0445  0.4009
  129poe     o2 1544   4.279  -0.322   5.912 -0.5086 -0.1431  0.0690
  129poe    c23 1545   4.178  -0.379   5.832 -0.5182 -0.5765  0.3898
  129poe    c23 1546   4.145  -0.283   5.716  0.3741 -0.0793  0.5425
  129poe     o2 1547   4.113  -0.164   5.785  0.0834 -0.1379  0.5089
  129poe    c31 1548   4.085  -0.059   5.696  0.0849 -0.8190 -0.3067
  130poe    c31 1549   3.192   2.027   1.737 -0.2977 -0.0051  0.6289
  130poe     o2 1550   3.232   1.896   1.771  0.1550 -0.0557 -0.1024
  130poe    c23 1551   3.189   1.811   1.667 -0.6034 -0.3702  0.4625
  130poe    c23 1552   3.246   1.672   1.704  0.1649 -0.1967 -0.0443
  130poe     o2 1553   3.384   1.677   1.732  0.1057  0.2537  0.1865
  130poe    c23 1554   3.449   1.553   1.746  0.1673  0.2682  0.0248
  130poe    c23 1555   3.565   1.588   1.842  0.5445  0.6776 -0.5735
  130poe     o2 1556   3.494   1.650   1.947  0.2080 -0.2307 -0.2569
  130poe    c23 1557   3.571   1.700   2.054  0.2312 -0.3343 -0.2244
  130poe    c23 1558   3.472   1.779   2.141  0.1452 -0.4452 -0.2221
  130poe     o2 1559   3.389   1.856   2.057  0.2656  0.2406  0.2794
  130poe    c31 1560   3.336   1.970   2.121 -0.2818 -0.0053  0.2635
  131poe    c31 1561   1.681   5.616   5.462 -0.2459  0.6142  0.1424
  131poe     o2 1562   1.798   5.634   5.385 -0.4856  0.4518 -0.2671
  131poe    c23 1563   1.786   5.716   5.271  0.0360 -0.3710 -0.9212
  131poe    c23 1564   1.919   5.782   5.230  0.1570 -0.3898 -0.5684
  131poe     o2 1565   2.012   5.698   5.165  0.5852 -0.2166 -0.1832
  131poe    c23 1566   2.113   5.779   5.109  0.0675  0.2274 -0.4839
  131poe    c23 1567   2.244   5.700   5.093 -0.0153 -0.0092 -0.0339
  131poe     o2 1568   2.205   5.580   5.031 -0.0767 -0.2764  0.5224
  131poe    c23 1569   2.322   5.502   5.029 -0.2329 -0.4994 -0.3320
  131poe    c23 1570   2.300   5.359   4.977 -0.2177 -0.5150 -0.2944
  131poe     o2 1571   2.191   5.308   5.050  0.0214 -0.4792  0.0893
  131poe    c31 1572   2.158   5.175   5.016  0.0800 -0.3684 -0.4088
  132poe    c31 1573   6.372   2.766   6.253  0.0889  0.1319  0.0188
  132poe     o2 1574   6.275   2.837   6.325 -0.2616  0.0160 -0.3341
  132poe    c23 1575   6.255   2.793   6.458 -0.3079  0.3660 -0.2222
  132poe    c23 1576   6.175   2.904   6.528 -0.0904  0.4590 -0.1184
  132poe     o2 1577   6.070   2.924   6.437 -0.7545 -0.9841  0.2940
  132poe    c23 1578   5.994   3.042   6.454  0.1511 -0.3518 -0.0207
  132poe    c23 1579   5.946   3.105   6.322 -0.5979 -0.6705  0.0964
  132poe     o2 1580   6.058   3.118   6.237 -0.7035  0.1603  0.0753
  132poe    c23 1581   6.035   3.160   6.105 -0.8760 -0.0072  0.0516
  132poe    c23 1582   6.049   3.029   6.025  0.4063  0.4614 -0.5214
  132poe     o2 1583   6.133   2.942   6.098 -0.3141 -0.1507 -0.4183
  132poe    c31 1584   6.112   2.806   6.067 -0.6094 -0.1266 -0.3337
  133poe    c31 1585   3.018   6.686   2.359 -0.0384 -0.2611  0.0123
  133poe     o2 1586   2.906   6.641   2.288 -0.3961  0.3182  0.2017
  133poe    c23 1587   2.916   6.678   2.152  0.0299 -0.0462  0.1310
  133poe    c23 1588   2.809   6.612   2.062  0.3180  0.5467 -0.6538
  133poe     o2 1589   2.693   6.660   2.125  0.1836 -0.4832 -0.0969
  133poe    c23 1590   2.582   6.578   2.095 -0.2388 -0.0983  0.3781
  133poe    c23 1591   2.488   6.581   2.217 -0.2645 -0.1830  0.3603
  133poe     o2 1592   2.571   6.570   2.331  0.3002 -0.5479 -0.0820
  133poe    c23 1593   2.496   6.561   2.450  0.0311  0.0557 -0.2015
  133poe    c23 1594   2.592   6.580   2.569 -0.3779 -0.1037  0.1538
  133poe     o2 1595   2.697   6.669   2.539 -0.6372  0.2121  0.1800
  133poe    c31 1596   2.771   6.698   2.655 -0.0264  0.0693 -0.1747
  134poe    c31 1597   4.495   1.286   1.311  0.2643  0.2251 -0.2802
  134poe     o2 1598   4.388   1.317   1.225 -0.1800 -0.5858 -0.0215
  134poe    c23 1599   4.286   1.327   1.321  0.3664  0.0536  0.4947
  134poe    c23 1600   4.152   1.297   1.251  0.3957  0.2855  0.3397
  134poe     o2 1601   4.139   1.370   1.130 -0.2336 -0.5182 -0.0884
  134poe    c23 1602   4.041   1.336   1.035  0.1569 -0.6036 -0.4628
  134poe    c23 1603   4.090   1.412   0.910  0.0241 -0.0013 -0.1465
  134poe     o2 1604   4.230   1.421   0.915  0.0390 -0.1537 -0.3090
  134poe    c23 1605   4.297   1.474   0.803  0.3178  0.0731 -0.0361
  134poe    c23 1606   4.447   1.445   0.818  0.3714  0.3048 -0.1240
  134poe     o2 1607   4.478   1.455   0.955  0.0117  0.0541 -0.0252
  134poe    c31 1608   4.617   1.444   0.969  0.0762  0.6104 -0.1906
  135poe    c31 1609   3.585   6.748   6.755  0.0959 -0.0169 -0.2089
  135poe     o2 1610   3.594   6.887   6.780  0.0740 -0.1446  0.5001
  135poe    c23 1611   3.499   6.929   6.876  0.3426 -0.0934  0.7447
  135poe    c23 1612   3.519   7.070   6.935  0.0007  0.0983  0.4045
  135poe     o2 1613   3.577   7.149   6.833  0.2920 -0.5790  0.0365
  135poe    c23 1614   3.593   7.282   6.877 -0.3309 -0.5616  0.2241
  135poe    c23 1615   3.650   7.359   6.755 -0.2176 -0.7729  0.1439
  135poe     o2 1616   3.744   7.267   6.705  0.7035  0.2194  0.0318
  135poe    c23 1617   3.784   7.290   6.571  0.5283  0.1232 -0.0371
  135poe    c23 1618   3.845   7.155   6.530  0.0647 -0.1766  0.2514
  135poe     o2 1619   3.758   7.051   6.570 -0.5871  0.0931 -0.4372
  135poe    c31 1620   3.758   6.941   6.481  0.0709 -0.8770  0.7224
  136poe    c31 1621   6.116   5.574   3.605 -0.4141 -0.0929 -0.3472
  136poe     o2 1622   6.188   5.543   3.722  0.3575  0.3862 -0.6861
  136poe    c23 1623   6.326   5.546   3.696  0.3765 -0.0711 -0.6563
  136poe    c23 1624   6.386   5.504   3.832  0.1138 -0.0737 -0.5417
  136poe     o2 1625   6.297   5.557   3.928  0.5781 -0.3643  0.0565
  136poe    c23 1626   6.327   5.528   4.062  0.1774 -0.1914  0.1845
  136poe    c23 1627   6.218   5.597   4.147 -0.0597 -0.2260 -0.0926
  136poe     o2 1628   6.100   5.575   4.073 -0.1683  0.1474 -0.0321
  136poe    c23 1629   6.003   5.672   4.106 -0.0358  0.3340 -0.1859
  136poe    c23 1630   5.878   5.644   4.021  0.3060 -0.8525 -0.3134
  136poe     o2 1631   5.927   5.599   3.897  0.5636  0.0498 -0.5423
  136poe    c31 1632   5.824   5.624   3.805  0.3547 -0.8857 -0.5735
  137poe    c31 1633   4.158   4.575   6.343 -0.3273 -0.2917 -0.0044
  137poe     o2 1634   4.171   4.709   6.302 -0.4614 -0.1989  0.2543
  137poe    c23 1635   4.058   4.737   6.223 -0.7761 -0.2744  0.6755
  137poe    c23 1636   4.064   4.890   6.201 -0.5187 -0.2768  0.7221
  137poe     o2 1637   4.199   4.920   6.175 -0.7296 -0.1584 -0.3079
  137poe    c23 1638   4.224   5.056   6.149  0.0919 -0.3240 -0.3930
  137poe    c23 1639   4.375   5.056   6.181  0.0305 -0.4026 -0.1081
  137poe     o2 1640   4.406   4.959   6.279 -0.5190 -0.1512  0.3261
  137poe    c23 1641   4.524   4.987   6.352  0.0549 -0.6104 -0.4028
  137poe    c23 1642   4.500   4.896   6.474  0.5803 -0.0296  0.1420
  137poe     o2 1643   4.496   4.761   6.431  0.1044  0.1478 -0.3768
  137poe    c31 1644   4.577   4.689   6.520  0.3676  0.1606 -0.6068
  138poe    c31 1645   4.994   4.596   0.085 -0.6151 -0.9205  0.5972
  138poe     o2 1646   4.995   4.698   0.182  0.5601 -0.4906  0.1402
  138poe    c23 1647   5.097   4.789   0.146  0.2424 -0.2761 -0.2375
  138poe    c23 1648   5.132   4.867   0.274 -0.1102  0.1819 -0.4204
  138poe     o2 1649   5.008   4.913   0.322 -0.1187 -0.4271  0.1590
  138poe    c23 1650   5.010   4.987   0.442  0.0591 -0.2691  0.0582
  138poe    c23 1651   4.865   5.010   0.487  0.1117  0.5157 -0.1569
  138poe     o2 1652   4.793   4.901   0.435 -0.4927  0.6348  0.4050
  138poe    c23 1653   4.657   4.912   0.399 -0.4775 -0.7144 -0.1415
  138poe    c23 1654   4.600   4.799   0.312 -0.3520 -0.3171 -0.7534
  138poe     o2 1655   4.702   4.776   0.218  0.0784  0.3408 -0.4524
  138poe    c31 1656   4.638   4.695   0.122 -0.3265 -0.1167  0.1957
  139poe    c31 1657   6.797   1.021   2.970  0.1942 -0.7805 -0.3250
  139poe     o2 1658   6.682   1.042   2.890  0.1145 -0.0949 -0.0418
  139poe    c23 1659   6.621   1.165   2.919 -0.1593 -0.2840  0.1945
  139poe    c23 1660   6.508   1.203   2.822 -0.1206 -0.6061  0.0256
  139poe     o2 1661   6.548   1.140   2.702 -0.1772 -0.3830 -0.1114
  139poe    c23 1662   6.474   1.206   2.602  0.5485  0.3597 -0.1652
  139poe    c23 1663   6.499   1.145   2.463 -0.4085 -0.2466 -0.0832
  139poe     o2 1664   6.492   1.007   2.493  0.0713 -0.2815 -0.1122
  139poe    c23 1665   6.537   0.914   2.398  0.2743 -0.3474  0.0492
  139poe    c23 1666   6.572   0.787   2.478  0.0141 -0.2743  0.2791
  139poe     o2 1667   6.641   0.825   2.596 -0.0248  0.3865  0.0935
  139poe    c31 1668   6.673   0.707   2.666  0.3336  0.7437  0.5397
  140poe    c31 1669   3.608   1.580   4.143 -0.1208 -0.1467  0.9778
  140poe     o2 1670   3.584   1.648   4.021  0.1876 -0.3584  0.7998
  140poe    c23 1671   3.532   1.775   4.052  0.2613 -0.0132 -0.4265
  140poe    c23 1672   3.439   1.827   3.942  0.1912  0.0074 -0.3573
  140poe     o2 1673   3.475   1.766   3.820  0.5303  0.3069 -0.4059
  140poe    c23 1674   3.361   1.729   3.747  0.3901 -0.4491  0.1844
  140poe    c23 1675   3.395   1.605   3.663 -0.2869 -0.5002 -0.0242
  140poe     o2 1676   3.487   1.529   3.739  0.3387  0.2105 -0.0606
  140poe    c23 1677   3.515   1.408   3.672 -0.1629  0.5638 -0.9308
  140poe    c23 1678   3.602   1.335   3.776 -0.2630  0.6527 -0.7846
  140poe     o2 1679   3.706   1.415   3.827  0.3317 -0.3675 -0.3662
  140poe    c31 1680   3.811   1.329   3.867  0.0354 -0.2761  0.6333
  141poe    c31 1681   6.199   5.110   5.456 -0.3103  0.4197 -0.2851
  141poe     o2 1682   6.062   5.121   5.427 -0.2361  0.2952 -0.6961
  141poe    c23 1683   6.014   5.239   5.487 -0.3089 -0.0417 -0.0884
  141poe    c23 1684   5.860   5.249   5.480 -0.2755  0.3193 -0.3128
  141poe     o2 1685   5.839   5.214   5.345  0.1783  0.1408 -0.3394
  141poe    c23 1686   5.726   5.271   5.284  0.3091  0.1397 -0.5871
  141poe    c23 1687   5.683   5.181   5.167 -0.3230 -0.2837 -0.0387
  141poe     o2 1688   5.787   5.104   5.110 -0.2353 -0.4227  0.3055
  141poe    c23 1689   5.861   5.184   5.021 -0.4254 -1.0438 -0.4264
  141poe    c23 1690   5.995   5.110   5.005  0.3999  0.2864  0.1186
  141poe     o2 1691   6.039   5.065   5.132 -0.3779  0.2546  0.3787
  141poe    c31 1692   6.135   4.965   5.107  0.1532  0.7891  0.2459
  142poe    c31 1693   0.634   5.097   5.220 -0.0913  0.5613 -0.2038
  142poe     o2 1694   0.567   5.032   5.115  0.2540 -0.3572  0.1321
  142poe    c23 1695   0.529   4.900   5.148 -0.5164 -0.1181  0.2316
  142poe    c23 1696   0.481   4.828   5.021  0.2407 -0.0486 -0.0973
  142poe     o2 1697   0.395   4.925   4.966 -0.2256  0.0532  0.7927
  142poe    c23 1698   0.377   4.903   4.828 -0.7105  0.0608  0.8540
  142poe    c23 1699   0.306   5.028   4.773  0.1063 -0.0066 -0.3963
  142poe     o2 1700   0.379   5.137   4.826 -0.2194  0.0820 -0.1237
  142poe    c23 1701   0.362   5.271   4.786  0.2752  0.4207  0.7578
  142poe    c23 1702   0.493   5.335   4.835  0.9510 -0.1452 -0.2697
  142poe     o2 1703   0.491   5.292   4.969  0.2907 -0.3354 -0.3364
  142poe    c31 1704   0.569   5.386   5.039 -0.6063 -0.2878  0.6264
  143poe    c31 1705   5.456   5.589   5.017 -0.5423 -0.4122 -0.8313
  143poe     o2 1706   5.325   5.620   5.059 -0.0471 -0.1668  0.6104
  143poe    c23 1707   5.298   5.753   5.096 -0.8048 -0.1114 -0.0835
  143poe    c23 1708   5.217   5.747   5.227 -0.1071 -0.2798  0.3523
  143poe     o2 1709   5.094   5.697   5.179 -0.0999  0.0523 -0.0221
  143poe    c23 1710   4.992   5.649   5.264 -0.0775  0.1353  0.0509
  143poe    c23 1711   4.906   5.542   5.193  0.0575  0.0041  0.0855
  143poe     o2 1712   5.005   5.469   5.124 -0.2515 -0.1867 -0.1562
  143poe    c23 1713   5.008   5.335   5.166  0.7048 -0.1678 -0.1389
  143poe    c23 1714   5.068   5.259   5.046 -0.0884 -0.0100 -0.6403
  143poe     o2 1715   5.153   5.353   4.984  0.3385 -0.2094 -0.3623
  143poe    c31 1716   5.233   5.298   4.883  0.6002 -0.0697 -0.2321
  144poe    c31 1717   1.492   1.820   3.442  0.5508 -0.0859 -0.4394
  144poe     o2 1718   1.575   1.860   3.549  0.1620  0.8329 -0.4739
  144poe    c23 1719   1.710   1.824   3.531  0.1112  0.3730  0.0269
  144poe    c23 1720   1.781   1.875   3.658  0.0385 -0.2419  0.3139
  144poe     o2 1721   1.693   1.847   3.765  0.1326 -0.4218  0.3450
  144poe    c23 1722   1.738   1.929   3.870 -0.7002  0.0723  0.3260
  144poe    c23 1723   1.631   1.939   3.981 -0.2853  0.2230  0.7179
  144poe     o2 1724   1.511   1.929   3.907  0.0463  0.3128  0.1641
  144poe    c23 1725   1.428   2.036   3.947 -0.2366  0.0477  0.2907
  144poe    c23 1726   1.308   2.043   3.851  0.1589  0.1288 -0.2031
  144poe     o2 1727   1.351   2.025   3.718 -0.0773  0.1084 -0.2777
  144poe    c31 1728   1.275   2.092   3.620  0.2149  0.1314 -0.4932
  145poe    c31 1729   5.456   2.244   4.177  0.1319  0.1879  0.0623
  145poe     o2 1730   5.380   2.130   4.210 -0.3683  0.7044  0.7380
  145poe    c23 1731   5.466   2.039   4.275 -0.4808  0.5379  0.6553
  145poe    c23 1732   5.390   1.928   4.350  0.1357 -0.3009  0.0603
  145poe     o2 1733   5.311   1.878   4.244  0.3062 -0.2679 -0.0839
  145poe    c23 1734   5.238   1.760   4.271 -0.0125 -0.0128  0.1840
  145poe    c23 1735   5.164   1.741   4.138  0.2199  0.2200  0.0204
  145poe     o2 1736   5.089   1.858   4.116 -0.5585 -0.2446  0.1473
  145poe    c23 1737   5.023   1.867   3.992 -0.2435  0.8438  0.0443
  145poe    c23 1738   5.029   2.014   3.947 -0.1839  0.6239 -0.6768
  145poe     o2 1739   5.148   2.067   4.001 -0.4032  0.0811  0.3622
  145poe    c31 1740   5.177   2.193   3.946 -0.3824 -0.2551 -0.4051
  146poe    c31 1741   4.124   0.753   4.851  0.0671 -0.3264  0.0788
  146poe     o2 1742   4.144   0.614   4.835 -0.9689 -0.5238  0.4031
  146poe    c23 1743   4.192   0.561   4.957  0.3314  0.2737  0.2581
  146poe    c23 1744   4.203   0.408   4.957  0.2229  0.2652  0.0401
  146poe     o2 1745   4.316   0.357   4.890  0.0770 -0.1162  0.0829
  146poe    c23 1746   4.309   0.371   4.750 -0.0311  0.0752  0.1072
  146poe    c23 1747   4.383   0.244   4.702 -0.8166 -0.3816  0.0937
  146poe     o2 1748   4.500   0.231   4.778  0.0773 -0.3867 -1.2487
  146poe    c23 1749   4.566   0.107   4.778  0.2548 -0.3092  0.0977
  146poe    c23 1750   4.709   0.138   4.827  0.1136  0.4375  0.0468
  146poe     o2 1751   4.697   0.209   4.948  0.0221  0.1896  0.1851
  146poe    c31 1752   4.801   0.170   5.036 -0.6837 -0.7430  0.6226
  147poe    c31 1753   2.252   1.438   0.625  0.2486  0.8423  1.0199
  147poe     o2 1754   2.271   1.322   0.703  0.2540  0.2743  0.1852
  147poe    c23 1755   2.202   1.327   0.826  0.1658 -0.7408  0.1822
  147poe    c23 1756   2.208   1.190   0.896  0.1282 -0.6316  0.3994
  147poe     o2 1757   2.190   1.093   0.795  1.1449 -0.0076 -0.4058
  147poe    c23 1758   2.245   0.969   0.830  0.3644 -0.2689 -0.0660
  147poe    c23 1759   2.270   0.896   0.696  0.5820 -0.3389  0.0120
  147poe     o2 1760   2.340   0.982   0.609  0.6627 -0.4144  0.0018
  147poe    c23 1761   2.343   0.928   0.479  0.1171 -0.2751 -0.0727
  147poe    c23 1762   2.250   1.003   0.382 -0.2480 -0.0793  0.4255
  147poe     o2 1763   2.266   1.139   0.414  0.3894 -0.0211 -0.1168
  147poe    c31 1764   2.279   1.212   0.294 -0.8294 -0.7649 -0.7146
  148poe    c31 1765   3.724   3.394   6.603 -0.9792 -0.1399  0.1526
  148poe     o2 1766   3.704   3.257   6.574  0.1679 -0.1620 -0.5940
  148poe    c23 1767   3.612   3.201   6.664  0.5026 -0.0630 -0.1881
  148poe    c23 1768   3.586   3.051   6.640  0.0636 -0.0252  0.0286
  148poe     o2 1769   3.466   3.016   6.576  0.0564  0.4596 -0.2277
  148poe    c23 1770   3.493   2.888   6.523  0.1959  0.3696  0.0623
  148poe    c23 1771   3.372   2.804   6.566  0.2745  0.3199  0.1885
  148poe     o2 1772   3.261   2.879   6.523 -0.0652 -0.2610  0.0265
  148poe    c23 1773   3.136   2.831   6.568  0.1847 -0.7896  0.1558
  148poe    c23 1774   3.046   2.941   6.511  1.1130  0.3298  0.7966
  148poe     o2 1775   3.078   3.060   6.579  0.2589  0.7077  0.5638
  148poe    c31 1776   2.969   3.150   6.576 -0.3038  0.0083 -1.1190
  149poe    c31 1777   1.534   5.291   0.622 -0.0475  0.5130  0.1334
  149poe     o2 1778   1.406   5.231   0.618  0.1381  0.0972  0.3737
  149poe    c23 1779   1.330   5.281   0.510  0.3179  0.7362  0.5364
  149poe    c23 1780   1.189   5.296   0.569  0.4262  0.5170  0.8526
  149poe     o2 1781   1.188   5.182   0.652 -0.2178 -0.8713 -1.0054
  149poe    c23 1782   1.054   5.149   0.678 -0.4076  0.4161 -0.2609
  149poe    c23 1783   1.053   5.017   0.757  0.5233  0.0047 -0.9124
  149poe     o2 1784   1.139   5.037   0.867  0.4584  0.2443 -0.9054
  149poe    c23 1785   1.214   4.921   0.892  0.5192  0.4693 -0.0035
  149poe    c23 1786   1.357   4.963   0.932  0.6420  0.4521 -0.4163
  149poe     o2 1787   1.433   5.027   0.832 -0.1747  0.6463 -0.9241
  149poe    c31 1788   1.569   4.994   0.843 -0.2750  0.3674 -0.4936
  150poe    c31 1789   2.777   0.325   0.503  0.7692 -0.1434 -0.0731
  150poe     o2 1790   2.728   0.427   0.419 -1.0557 -0.6571  0.3187
  150poe    c23 1791   2.593   0.432   0.381 -0.8407  0.0036 -0.3797
  150poe    c23 1792   2.491   0.464   0.492 -0.5283  0.2259 -0.1548
  150poe     o2 1793   2.511   0.589   0.554  0.6979 -0.1699  0.2630
  150poe    c23 1794   2.570   0.580   0.682  0.0815  0.3230  0.5854
  150poe    c23 1795   2.689   0.677   0.683  0.6386 -0.3544  0.6221
  150poe     o2 1796   2.783   0.637   0.586  0.2790 -0.3527  0.2720
  150poe    c23 1797   2.896   0.719   0.606  0.0874  0.0421 -0.2271
  150poe    c23 1798   3.017   0.630   0.572 -0.4859 -0.7992 -0.1181
  150poe     o2 1799   2.995   0.589   0.439 -0.3562 -0.4117 -0.2596
  150poe    c31 1800   3.102   0.513   0.387 -0.2851 -0.3663 -0.1814
  151poe    c31 1801   4.272   1.587   6.073 -0.7720  0.2008 -0.6113
  151poe     o2 1802   4.150   1.648   6.109 -0.1645  0.9463  0.2171
  151poe    c23 1803   4.082   1.555   6.191 -0.0838  0.9242  0.2592
  151poe    c23 1804   3.935   1.588   6.225 -0.3009 -0.1805  0.4286
  151poe     o2 1805   3.933   1.722   6.268  0.0996  0.0380 -0.2096
  151poe    c23 1806   3.809   1.787   6.281  0.0732 -0.0072 -0.2360
  151poe    c23 1807   3.848   1.935   6.298 -0.6945  0.1812 -0.0730
  151poe     o2 1808   3.948   1.950   6.200 -0.8060  0.3896 -0.1551
  151poe    c23 1809   4.038   2.056   6.220 -0.1670 -0.1885  0.0627
  151poe    c23 1810   4.145   2.058   6.109 -0.3579  0.0321 -0.1172
  151poe     o2 1811   4.211   1.934   6.106 -0.1463  0.1467 -0.2425
  151poe    c31 1812   4.308   1.930   6.004 -0.0236 -0.4171 -0.1091
  152poe    c31 1813   1.439   5.372   3.160  0.1972 -0.1776 -0.4583
  152poe     o2 1814   1.361   5.320   3.055  0.1229  0.1618 -0.5739
  152poe    c23 1815   1.356   5.416   2.952  0.1399  0.3669 -0.3844
  152poe    c23 1816   1.254   5.385   2.840 -0.4441  0.0217  0.2399
  152poe     o2 1817   1.272   5.246   2.823 -0.0581  0.0213  0.6308
  152poe    c23 1818   1.166   5.181   2.757  0.4665  0.4457 -0.6531
  152poe    c23 1819   1.202   5.031   2.758  0.3083  0.4131  0.3961
  152poe     o2 1820   1.254   5.007   2.888 -0.2048 -0.6172  0.4210
  152poe    c23 1821   1.347   4.902   2.891  0.6314  0.0972 -0.1073
  152poe    c23 1822   1.371   4.899   3.043  0.2908  0.2787 -0.0502
  152poe     o2 1823   1.389   5.032   3.085 -0.0774  0.1977  0.3733
  152poe    c31 1824   1.420   5.025   3.222  0.5376 -0.1364  0.2186
  153poe    c31 1825   2.865   5.076   4.290 -0.3620 -0.8420 -0.9080
  153poe     o2 1826   2.870   5.203   4.228 -0.2087 -0.3067  0.1771
  153poe    c23 1827   2.910   5.321   4.293  0.3157 -0.3333 -0.0899
  153poe    c23 1828   2.957   5.420   4.185 -0.0816  0.0425  0.0775
  153poe     o2 1829   2.860   5.412   4.083 -0.0219  0.4634 -0.0152
  153poe    c23 1830   2.852   5.537   4.019  0.0783  0.3090 -0.3290
  153poe    c23 1831   2.757   5.494   3.905  0.4118  0.0734 -0.5198
  153poe     o2 1832   2.648   5.430   3.968  0.1624  0.3647 -0.6542
  153poe    c23 1833   2.591   5.352   3.866 -0.6094  0.0031  0.0406
  153poe    c23 1834   2.548   5.222   3.938 -0.1636 -0.6790 -0.8998
  153poe     o2 1835   2.638   5.166   4.030 -0.2998  0.0859 -0.2928
  153poe    c31 1836   2.590   5.040   4.072 -0.0131  0.2102  0.4261
  154poe    c31 1837   0.059   5.162   1.632  0.0022  0.2879 -0.5510
  154poe     o2 1838   0.060   5.281   1.556  0.7212  0.3422 -0.4636
  154poe    c23 1839   0.061   5.390   1.647 -0.4933  0.0681 -0.1052
  154poe    c23 1840   0.032   5.526   1.580  0.6122  0.1076 -0.5244
  154poe     o2 1841   0.103   5.524   1.458 -0.0709 -0.8484 -0.9209
  154poe    c23 1842   0.041   5.613   1.368 -0.0584  0.4499  0.3086
  154poe    c23 1843   0.118   5.565   1.244 -0.0859  0.2330  0.3758
  154poe     o2 1844   0.113   5.424   1.237  0.3851  0.2295  0.0025
  154poe    c23 1845   0.206   5.357   1.156  0.0949 -0.1680 -0.0052
  154poe    c23 1846   0.309   5.282   1.243 -0.1433 -1.0444 -0.4568
  154poe     o2 1847   0.240   5.217   1.347 -0.0389  0.0307  0.3069
  154poe    c31 1848   0.290   5.086   1.361 -0.2261 -0.0593  0.1373
  155poe    c31 1849   2.276   0.976   5.648 -0.1486 -0.0330 -0.2878
  155poe     o2 1850   2.343   0.986   5.524  0.2140  0.0449 -0.0859
  155poe    c23 1851   2.447   1.081   5.534 -0.0769  0.3740 -0.1623
  155poe    c23 1852   2.438   1.170   5.409 -0.6080  0.2279 -0.2288
  155poe     o2 1853   2.428   1.078   5.302  0.6730 -0.0896 -0.0847
  155poe    c23 1854   2.466   1.116   5.172  0.1198 -0.2024 -0.2780
  155poe    c23 1855   2.548   0.998   5.116 -0.0463 -0.1180 -0.7063
  155poe     o2 1856   2.464   0.889   5.145  0.2099 -0.3311 -0.7642
  155poe    c23 1857   2.536   0.768   5.138  0.5504 -0.1672 -0.1888
  155poe    c23 1858   2.461   0.673   5.232  0.1805  0.5707  0.2703
  155poe     o2 1859   2.437   0.755   5.345  0.1230  0.4383  0.3545
  155poe    c31 1860   2.371   0.677   5.442  0.2536 -0.3634 -0.1921
  156poe    c31 1861   4.531   1.903   2.410  0.0401  0.1524  0.0194
  156poe     o2 1862   4.422   1.886   2.498 -0.2947  0.0153 -0.4234
  156poe    c23 1863   4.389   2.005   2.565 -0.3143  0.3027 -0.9353
  156poe    c23 1864   4.326   1.957   2.697  0.5995 -0.5562 -0.7981
  156poe     o2 1865   4.249   1.845   2.659  0.3706 -0.6029 -0.2076
  156poe    c23 1866   4.185   1.785   2.769 -0.5281  0.4426 -0.1407
  156poe    c23 1867   4.105   1.663   2.721 -0.3871  0.3586 -0.1621
  156poe     o2 1868   4.210   1.614   2.642 -0.4082 -0.6328  0.3965
  156poe    c23 1869   4.172   1.511   2.553 -0.0879 -0.1326 -0.3322
  156poe    c23 1870   4.289   1.482   2.458 -0.0548  0.1796 -0.3868
  156poe     o2 1871   4.325   1.607   2.403  0.2775  0.6745  0.9212
  156poe    c31 1872   4.425   1.569   2.312 -0.6628 -0.4701  0.3400
  157poe    c31 1873   5.833   4.404   5.101  0.0066 -0.4451  0.1199
  157poe     o2 1874   5.810   4.390   5.240 -0.0207  0.1747  0.1825
  157poe    c23 1875   5.680   4.343   5.269 -0.1094  0.3276  0.0381
  157poe    c23 1876   5.676   4.335   5.423  0.1859  0.0508  0.0340
  157poe     o2 1877   5.800   4.294   5.475  0.1523  0.2053  0.2374
  157poe    c23 1878   5.787   4.309   5.614 -0.1491  0.2331  0.2063
  157poe    c23 1879   5.925   4.290   5.680  0.1273 -0.4742 -0.5750
  157poe     o2 1880   6.016   4.321   5.576  0.4335  0.2895 -0.0824
  157poe    c23 1881   6.132   4.243   5.596  0.5029  0.5048  0.3785
  157poe    c23 1882   6.176   4.208   5.452 -0.2551 -0.1246  0.2968
  157poe     o2 1883   6.062   4.155   5.387  0.1869 -0.5536 -0.1372
  157poe    c31 1884   6.083   4.093   5.262  0.3747  0.5745 -0.6821
  158poe    c31 1885   2.132   0.716   4.136  0.0281 -0.1557 -0.1249
  158poe     o2 1886   2.174   0.588   4.177 -0.3162 -0.4236 -0.6169
  158poe    c23 1887   2.254   0.539   4.071  0.9165  0.1018  0.0637
  158poe    c23 1888   2.313   0.403   4.113 -0.1161 -0.2231  0.5060
  158poe     o2 1889   2.218   0.348   4.201 -0.3029  0.1430  0.5328
  158poe    c23 1890   2.259   0.221   4.244 -0.2541  0.1438  0.4882
  158poe    c23 1891   2.182   0.198   4.375 -0.0803 -0.5313  0.4767
  158poe     o2 1892   2.175   0.324   4.437 -0.0739  0.0021 -0.5816
  158poe    c23 1893   2.055   0.333   4.511 -0.1819 -0.0309 -0.7530
  158poe    c23 1894   2.054   0.475   4.569 -0.6430 -0.1488 -0.4653
  158poe     o2 1895   2.077   0.555   4.455 -0.7610 -0.0508 -0.4215
  158poe    c31 1896   2.070   0.689   4.498  0.3630  0.1024 -0.6898
  159poe    c31 1897   1.995   6.078   2.518  0.9897  0.4477 -0.0729
  159poe     o2 1898   1.985   5.951   2.578 -0.2844  0.4892 -0.1601
  159poe    c23 1899   1.849   5.916   2.585 -0.1745  0.0363 -0.2358
  159poe    c23 1900   1.844   5.765   2.615  0.3760 -0.0699 -0.6532
  159poe     o2 1901   1.941   5.737   2.713  0.1436 -0.1135 -0.4324
  159poe    c23 1902   1.924   5.622   2.794  0.3641  0.2085  0.0750
  159poe    c23 1903   2.058   5.582   2.857  0.2522  0.2107  0.3157
  159poe     o2 1904   2.172   5.548   2.781 -0.3065 -0.0528 -0.4102
  159poe    c23 1905   2.185   5.413   2.740  0.3516 -0.1876  0.2410
  159poe    c23 1906   2.315   5.390   2.660  0.3977 -0.1651  0.3082
  159poe     o2 1907   2.415   5.364   2.756  0.5169 -0.8343  0.0079
  159poe    c31 1908   2.544   5.369   2.699  0.1886 -0.3841 -0.7078
  160poe    c31 1909   0.920   0.932   4.018 -0.0600 -0.1835  0.2334
  160poe     o2 1910   0.836   0.850   3.940 -0.0372 -0.2220  0.2488
  160poe    c23 1911   0.914   0.747   3.883  0.0713  0.1336 -0.2560
  160poe    c23 1912   0.830   0.681   3.773  0.1303  0.2722 -0.3833
  160poe     o2 1913   0.701   0.734   3.796 -0.1080 -0.1751 -0.6712
  160poe    c23 1914   0.601   0.644   3.753 -0.2729  0.1002 -0.8671
  160poe    c23 1915   0.500   0.656   3.869  0.0650  0.5049 -0.6110
  160poe     o2 1916   0.491   0.794   3.896 -0.1879  0.3636  0.0465
  160poe    c23 1917   0.416   0.791   4.015  0.2542 -0.3531  0.3153
  160poe    c23 1918   0.449   0.926   4.080  0.9575 -0.3648 -0.0156
  160poe     o2 1919   0.586   0.953   4.056  0.7534  0.2375 -0.5077
  160poe    c31 1920   0.613   1.066   4.136 -0.6972 -0.1535  0.5873
  161poe    c31 1921   1.366   5.070   4.389  0.0577 -0.0767  0.7204
  161poe     o2 1922   1.306   5.179   4.455  0.1443  0.2966  0.1868
  161poe    c23 1923   1.308   5.156   4.594  0.4031  0.1559  0.1596
  161poe    c23 1924   1.257   5.290   4.650 -0.4522 -0.1835  0.2037
  161poe     o2 1925   1.151   5.331   4.567 -0.6419 -0.3164  0.3758
  161poe    c23 1926   1.051   5.417   4.617 -0.7286 -0.3403  0.2433
  161poe    c23 1927   1.000   5.492   4.492  0.7295  0.0488 -0.1359
  161poe     o2 1928   0.996   5.395   4.390  0.4169  0.1089 -0.1808
  161poe    c23 1929   1.010   5.449   4.260  0.3066  0.1629 -0.1698
  161poe    c23 1930   1.007   5.331   4.162 -0.0699 -0.1885  0.2591
  161poe     o2 1931   1.079   5.224   4.220 -0.3157  0.0344  0.9797
  161poe    c31 1932   1.082   5.101   4.152 -0.1676  0.2081  0.6675
  162poe    c31 1933   4.717   2.781   4.478 -0.4619 -0.4097  0.4478
  162poe     o2 1934   4.828   2.801   4.394 -1.1579 -0.2980 -0.4641
  162poe    c23 1935   4.776   2.804   4.263 -0.8789 -0.0444 -0.5706
  162poe    c23 1936   4.893   2.834   4.167 -0.3812  0.6537  0.2385
  162poe     o2 1937   5.017   2.780   4.206 -0.6172  0.3456  0.5641
  162poe    c23 1938   5.119   2.835   4.126 -0.7047  0.2582  0.3934
  162poe    c23 1939   5.257   2.782   4.169 -0.5232  0.5131  0.1240
  162poe     o2 1940   5.259   2.798   4.309 -0.0818  0.2222  0.1531
  162poe    c23 1941   5.311   2.688   4.380 -0.1369  0.1705  0.1131
  162poe    c23 1942   5.230   2.668   4.510 -0.1626 -0.3131  0.0246
  162poe     o2 1943   5.094   2.656   4.475 -0.2318  0.0283  0.1775
  162poe    c31 1944   5.028   2.594   4.583 -0.1539 -0.3116  0.0290
  163poe    c31 1945   0.840   2.992   1.536 -0.1408 -0.1101  0.0848
  163poe     o2 1946   0.725   2.929   1.485 -0.2212  0.4140 -0.3918
  163poe    c23 1947   0.751   2.815   1.406  0.2158  0.2626 -0.0314
  163poe    c23 1948   0.618   2.740   1.427  0.0324  0.4543 -0.5094
  163poe     o2 1949   0.521   2.842   1.425 -0.2852  0.1831  0.5352
  163poe    c23 1950   0.387   2.800   1.439 -0.0848 -0.4061  0.6847
  163poe    c23 1951   0.312   2.930   1.407  0.3813 -0.3550 -0.2654
  163poe     o2 1952   0.391   3.019   1.483  0.2161 -0.2665 -0.1946
  163poe    c23 1953   0.334   3.128   1.550  0.3089 -0.1748 -0.2631
  163poe    c23 1954   0.462   3.204   1.590 -0.2333  0.5340  0.1569
  163poe     o2 1955   0.568   3.187   1.499 -0.2587  0.2498  0.1794
  163poe    c31 1956   0.663   3.290   1.515  0.0233  0.0592 -0.2505
  164poe    c31 1957   5.350   3.808   2.245  0.5561  0.1402  0.0166
  164poe     o2 1958   5.289   3.682   2.227  0.7970  0.0610 -0.2472
  164poe    c23 1959   5.381   3.578   2.203  0.4793 -0.4203  0.5704
  164poe    c23 1960   5.313   3.440   2.219 -0.1120 -0.2090 -0.0855
  164poe     o2 1961   5.180   3.458   2.175  0.1011  0.3389 -0.5303
  164poe    c23 1962   5.111   3.335   2.182  0.1663  0.3466  0.4817
  164poe    c23 1963   5.025   3.332   2.054  0.4055 -0.0046  0.3286
  164poe     o2 1964   4.961   3.457   2.054  0.3587 -0.0269  0.0388
  164poe    c23 1965   4.957   3.518   1.927 -0.2718 -0.1692 -0.0130
  164poe    c23 1966   4.936   3.669   1.947 -0.4961 -0.2065  0.0330
  164poe     o2 1967   5.024   3.717   2.047 -0.2393 -0.4214 -0.0880
  164poe    c31 1968   5.028   3.858   2.041  0.1514 -0.4345 -0.1377
  165poe    c31 1969   1.824   4.895   3.881 -0.0983  0.4131  0.1812
  165poe     o2 1970   1.957   4.853   3.905 -0.1937 -0.1274 -0.2245
  165poe    c23 1971   1.950   4.713   3.923 -0.7409 -0.0086  0.5596
  165poe    c23 1972   2.077   4.648   3.982 -0.1071  0.3693 -0.3495
  165poe     o2 1973   2.123   4.744   4.075 -0.1311 -0.5025  0.5818
  165poe    c23 1974   2.257   4.724   4.113 -0.1330 -0.2061  0.7445
  165poe    c23 1975   2.277   4.853   4.195  0.2010  0.1157  0.1654
  165poe     o2 1976   2.238   4.963   4.116  0.0659  0.1274  0.2486
  165poe    c23 1977   2.215   5.080   4.191  0.4956 -0.1855  0.8778
  165poe    c23 1978   2.168   5.178   4.082  0.4008 -0.9238  0.2493
  165poe     o2 1979   2.074   5.108   4.003  0.4297 -0.6734 -0.0060
  165poe    c31 1980   1.979   5.192   3.940  0.2908 -0.6695  0.2090
  166poe    c31 1981   0.474   3.861   2.198 -0.2437 -0.0516  0.5712
  166poe     o2 1982   0.609   3.881   2.161 -0.2886 -0.6575  0.0509
  166poe    c23 1983   0.683   3.808   2.256  0.2881  0.0925  0.1884
  166poe    c23 1984   0.834   3.835   2.248  0.3353 -0.2958 -0.2989
  166poe     o2 1985   0.877   3.818   2.115  0.6009 -0.1629 -0.2310
  166poe    c23 1986   1.002   3.871   2.076  0.3325  0.1922 -0.6281
  166poe    c23 1987   0.991   4.023   2.061  0.0495  0.2256 -0.1139
  166poe     o2 1988   0.874   4.045   1.985 -0.5100 -0.4146  0.5517
  166poe    c23 1989   0.840   4.182   1.978 -0.1834 -0.3422  0.3490
  166poe    c23 1990   0.710   4.199   1.896 -0.1716  0.1608  0.4320
  166poe     o2 1991   0.623   4.101   1.948 -0.0682  0.0319  0.3640
  166poe    c31 1992   0.491   4.140   1.917  0.0343  0.3706  0.3473
  167poe    c31 1993   5.807   6.611   5.738 -0.0895  0.4546  0.0986
  167poe     o2 1994   5.762   6.561   5.614  0.3540 -0.4509  0.2950
  167poe    c23 1995   5.656   6.469   5.622  0.2724 -0.4199 -0.3776
  167poe    c23 1996   5.624   6.429   5.477 -0.1023  0.7597 -0.6316
  167poe     o2 1997   5.744   6.389   5.415 -0.0782 -0.1354 -0.0198
  167poe    c23 1998   5.730   6.361   5.278 -0.0200 -0.1508 -0.0223
  167poe    c23 1999   5.841   6.443   5.209 -0.0035 -0.1355  0.0220
  167poe     o2 2000   5.857   6.570   5.268  0.2308 -0.3339  0.3869
  167poe    c23 2001   5.942   6.666   5.210 -0.2937  0.1318  0.3852
  167poe    c23 2002   5.942   6.794   5.296  0.6618  0.5559 -0.2308
  167poe     o2 2003   5.951   6.736   5.424  0.0417  0.3304 -0.2840
  167poe    c31 2004   6.015   6.824   5.514  0.2674 -0.2850  0.1691
  168poe    c31 2005   0.759   1.514   6.591  0.8122  0.9092  0.6524
  168poe     o2 2006   0.848   1.500   6.483  0.0015  0.0850  0.0809
  168poe    c23 2007   0.810   1.383   6.414 -0.0319  0.0142  0.2184
  168poe    c23 2008   0.897   1.371   6.287  0.0499  0.0416  0.2720
  168poe     o2 2009   1.031   1.381   6.329  0.0316 -0.5219  0.4672
  168poe    c23 2010   1.124   1.364   6.225 -0.3975  0.1684 -0.0372
  168poe    c23 2011   1.273   1.353   6.262 -0.3528 -0.2322 -0.3234
  168poe     o2 2012   1.297   1.470   6.337  0.0408 -0.2785 -0.3762
  168poe    c23 2013   1.338   1.457   6.471 -0.9314  0.0892 -0.0347
  168poe    c23 2014   1.264   1.366   6.571  0.4012 -1.2305 -0.2053
  168poe     o2 2015   1.133   1.415   6.588  0.4998 -1.0511  0.0285
  168poe    c31 2016   1.093   1.376   6.717 -0.1630  0.6283  0.3586
  169poe    c31 2017   3.556   3.353   2.208  0.2670 -0.8140  0.0858
  169poe     o2 2018   3.425   3.373   2.161  0.2298 -0.1269  0.4717
  169poe    c23 2019   3.391   3.509   2.147 -0.3669 -0.4032 -0.9074
  169poe    c23 2020   3.247   3.538   2.099 -0.8088 -0.1950  0.5098
  169poe     o2 2021   3.219   3.456   1.988 -0.2101  0.2544  0.0198
  169poe    c23 2022   3.079   3.441   1.986 -0.1668 -0.1133 -0.4728
  169poe    c23 2023   3.058   3.326   1.886 -0.3608 -0.0399 -0.5165
  169poe     o2 2024   3.130   3.215   1.936 -0.2707  0.1671 -0.1844
  169poe    c23 2025   3.108   3.092   1.871 -0.0232  0.1518 -0.2410
  169poe    c23 2026   3.175   2.982   1.954 -0.2273  0.5214  0.4202
  169poe     o2 2027   3.310   3.014   1.976  0.0720 -0.2542 -0.2406
  169poe    c31 2028   3.363   2.893   2.024  1.0704 -0.0066 -0.6794
  170poe    c31 2029   4.286   5.033   4.437 -0.0360 -0.8001 -0.0287
  170poe     o2 2030   4.215   4.999   4.554 -0.2994 -0.1314  0.0109
  170poe    c23 2031   4.147   5.111   4.604  0.2431  0.3944 -0.4130
  170poe    c23 2032   4.074   5.075   4.735  0.4594  0.3099 -0.3161
  170poe     o2 2033   4.150   4.973   4.796  0.1097  0.2358 -0.0012
  170poe    c23 2034   4.070   4.909   4.894  0.4153  0.2702  0.2709
  170poe    c23 2035   4.183   4.851   4.981  0.5147  0.6374  0.3905
  170poe     o2 2036   4.271   4.789   4.891 -0.4054 -0.1436  0.0060
  170poe    c23 2037   4.373   4.725   4.965 -0.1385  0.2037 -0.0590
  170poe    c23 2038   4.446   4.599   4.915 -0.1040  0.2178 -0.0432
  170poe     o2 2039   4.356   4.493   4.938 -0.3230  0.3571 -0.2584
  170poe    c31 2040   4.399   4.386   4.857  0.1766  0.4864 -0.1660
  171poe    c31 2041   2.954   1.871   6.492 -0.1576  0.3415  0.6515
  171poe     o2 2042   3.062   1.781   6.491 -0.0857  0.4250 -0.6148
  171poe    c23 2043   3.029   1.666   6.416  0.0717  0.1175 -0.2147
  171poe    c23 2044   3.103   1.539   6.460 -0.0997 -0.0665 -0.4597
  171poe     o2 2045   3.236   1.585   6.452 -0.2148  0.3406 -0.0330
  171poe    c23 2046   3.311   1.506   6.542 -0.3806  0.1843 -0.0336
  171poe    c23 2047   3.423   1.593   6.600  0.2933 -0.5420 -0.2347
  171poe     o2 2048   3.369   1.714   6.648  0.6707 -0.1556 -0.7758
  171poe    c23 2049   3.465   1.806   6.693  0.0786 -0.1276  0.4740
  171poe    c23 2050   3.398   1.938   6.737  0.2842 -0.0565  0.5774
  171poe     o2 2051   3.311   1.954   6.627 -0.1800 -0.2815  0.9107
  171poe    c31 2052   3.233   2.070   6.648  0.0837  0.1444 -0.4016
  172poe    c31 2053   1.041   4.408   2.225  0.1617  0.4292 -0.1214
  172poe     o2 2054   1.166   4.342   2.221  0.1541  0.3840  0.3839
  172poe    c23 2055   1.164   4.243   2.322  0.2200 -0.4990 -0.4710
  172poe    c23 2056   1.284   4.150   2.302  0.6214 -0.1849  0.4286
  172poe     o2 2057   1.387   4.241   2.269 -0.1402  0.4310 -0.2933
  172poe    c23 2058   1.501   4.183   2.209 -0.1425  0.0229  0.0927
  172poe    c23 2059   1.583   4.302   2.156  0.2347 -0.5616 -0.6499
  172poe     o2 2060   1.481   4.383   2.102 -0.1461 -0.2358  0.5139
  172poe    c23 2061   1.541   4.502   2.058 -0.3324 -0.2689  0.1620
  172poe    c23 2062   1.433   4.604   2.016 -0.3050 -0.0614  0.5846
  172poe     o2 2063   1.308   4.563   2.065 -0.4382 -0.2202  0.1190
  172poe    c31 2064   1.204   4.629   1.996 -0.2134 -0.2822 -0.2785
  173poe    c31 2065   0.995   6.249   4.646  0.3510  0.1464  0.0540
  173poe     o2 2066   1.133   6.234   4.620  0.2271 -0.1198 -0.4623
  173poe    c23 2067   1.193   6.350   4.675 -0.2816 -0.3464  0.6050
  173poe    c23 2068   1.344   6.347   4.646 -0.3117  0.1350  0.3982
  173poe     o2 2069   1.356   6.287   4.519  0.5405  0.3367  0.3785
  173poe    c23 2070   1.485   6.255   4.472  0.2916  0.4658 -0.4059
  173poe    c23 2071   1.458   6.183   4.338 -0.3364  0.1311 -0.1026
  173poe     o2 2072   1.369   6.082   4.379  0.4044 -0.4946 -0.0203
  173poe    c23 2073   1.324   5.989   4.282  0.3171 -0.1514 -0.3085
  173poe    c23 2074   1.209   5.913   4.350  0.1303  0.1176 -0.3211
  173poe     o2 2075   1.155   6.010   4.436  0.1769  0.1956 -0.3800
  173poe    c31 2076   1.043   5.948   4.495  0.5527 -0.0750  0.0507
  174poe    c31 2077   1.796   1.523   0.685  0.8529 -0.0178  0.5326
  174poe     o2 2078   1.762   1.660   0.698 -0.1948 -0.2274  0.0968
  174poe    c23 2079   1.864   1.720   0.775 -0.4630  0.3565  0.0020
  174poe    c23 2080   1.810   1.835   0.862 -0.2956  0.8410 -0.5268
  174poe     o2 2081   1.732   1.914   0.776  0.2174  0.9981 -0.8550
  174poe    c23 2082   1.619   1.973   0.838  0.0364  0.3457 -0.5553
  174poe    c23 2083   1.539   2.046   0.729 -0.7013  0.1608 -0.1390
  174poe     o2 2084   1.549   1.952   0.625 -1.0409 -0.0041 -0.0273
  174poe    c23 2085   1.531   2.004   0.495  0.4055 -0.6018 -0.4877
  174poe    c23 2086   1.555   1.894   0.389  0.4795 -0.4246 -0.6558
  174poe     o2 2087   1.646   1.800   0.443  0.1639 -0.3727 -0.0175
  174poe    c31 2088   1.679   1.700   0.349  1.0166 -0.3656  0.2634
  175poe    c31 2089   0.306   0.804   3.036  0.2341  0.8233  0.7394
  175poe     o2 2090   0.289   0.769   3.171 -0.4455 -0.1507  0.4178
  175poe    c23 2091   0.343   0.640   3.190 -0.3064 -0.2228 -0.4571
  175poe    c23 2092   0.243   0.572   3.285 -0.3580 -0.0375 -0.3768
  175poe     o2 2093   0.242   0.651   3.402 -0.1360  0.0935 -0.4637
  175poe    c23 2094   0.153   0.611   3.503  0.5913 -0.5002 -0.0398
  175poe    c23 2095   0.164   0.729   3.602  0.0848 -0.3239 -0.1869
  175poe     o2 2096   0.175   0.841   3.517  0.0690  0.0196  0.2629
  175poe    c23 2097   0.206   0.967   3.572 -0.1872 -0.0649  0.6063
  175poe    c23 2098   0.221   1.082   3.471 -0.5931  0.2286  0.8768
  175poe     o2 2099   0.246   1.003   3.357 -0.2445  0.3091  0.8957
  175poe    c31 2100   0.245   1.066   3.231 -0.3867 -0.9892  0.2302
  176poe    c31 2101   2.756   2.179   1.629  0.4601 -0.1482 -0.1340
  176poe     o2 2102   2.726   2.299   1.560  0.1973  0.0044  0.2457
  176poe    c23 2103   2.667   2.251   1.442  0.4781  0.0709  0.0777
  176poe    c23 2104   2.649   2.379   1.358  0.9951  0.3376  0.3701
  176poe     o2 2105   2.613   2.493   1.433 -0.5381  0.2398 -0.1771
  176poe    c23 2106   2.655   2.617   1.379 -0.2591  0.1208 -0.2345
  176poe    c23 2107   2.535   2.712   1.393 -0.7285 -0.4552 -0.2808
  176poe     o2 2108   2.506   2.714   1.531  0.0429  0.2915 -0.1229
  176poe    c23 2109   2.367   2.733   1.540 -0.0279 -0.1213 -0.3645
  176poe    c23 2110   2.320   2.735   1.686  0.2655 -0.0766 -0.2709
  176poe     o2 2111   2.288   2.868   1.723 -0.8407 -0.1844 -0.8028
  176poe    c31 2112   2.231   2.860   1.852 -0.5410  0.1569 -0.6503
  177poe    c31 2113   0.467   2.629   2.903 -0.0477  0.0521  0.4912
  177poe     o2 2114   0.385   2.547   2.823  0.1662  0.4146 -0.1047
  177poe    c23 2115   0.412   2.582   2.689 -0.5309  0.0354 -0.3478
  177poe    c23 2116   0.331   2.486   2.599  0.0684 -0.2133 -0.6277
  177poe     o2 2117   0.363   2.354   2.638 -0.1085  0.1164  0.7156
  177poe    c23 2118   0.252   2.272   2.610  0.4571 -0.2201 -0.6557
  177poe    c23 2119   0.207   2.194   2.736  0.2491  0.6020 -0.2158
  177poe     o2 2120   0.190   2.285   2.842 -0.4937  0.1402  0.0657
  177poe    c23 2121   0.172   2.202   2.955 -0.1046 -0.4090 -0.2724
  177poe    c23 2122   0.156   2.289   3.081  0.5644 -0.4912 -0.1255
  177poe     o2 2123   0.252   2.387   3.052 -0.2438  0.3311 -0.0886
  177poe    c31 2124   0.299   2.450   3.169 -0.4843 -0.1020  0.2414
  178poe    c31 2125   0.660   6.097   3.961 -0.3887 -0.5190  0.1311
  178poe     o2 2126   0.526   6.053   3.966 -0.4943 -0.1759  0.4126
  178poe    c23 2127   0.454   6.104   3.855 -0.0635 -0.2453  0.0982
  178poe    c23 2128   0.344   5.999   3.837 -0.0716 -0.2376  0.1025
  178poe     o2 2129   0.285   5.983   3.965 -0.5307 -0.2004 -0.1024
  178poe    c23 2130   0.182   5.888   3.981  0.3259 -1.2130 -0.4767
  178poe    c23 2131   0.152   5.904   4.131  0.2267  0.4034 -0.6553
  178poe     o2 2132   0.278   5.907   4.193  0.1360  0.4684 -0.4719
  178poe    c23 2133   0.281   5.948   4.328 -0.1197  0.1225 -0.3614
  178poe    c23 2134   0.426   5.961   4.378 -0.3281 -0.1887  0.3462
  178poe     o2 2135   0.499   6.001   4.264  0.2165 -0.7382  0.4950
  178poe    c31 2136   0.630   6.029   4.305  0.0371  0.7798  0.1186
  179poe    c31 2137   0.533   4.680   4.507  0.4402 -0.0626 -0.1749
  179poe     o2 2138   0.583   4.642   4.381  0.1248  0.0375 -0.3327
  179poe    c23 2139   0.548   4.736   4.283 -0.3304  0.2848  0.0634
  179poe    c23 2140   0.604   4.720   4.140 -0.0629  0.4409  0.1500
  179poe     o2 2141   0.587   4.584   4.106 -0.0251  0.4346  0.1556
  179poe    c23 2142   0.673   4.549   4.000 -0.2882 -0.0748  0.1097
  179poe    c23 2143   0.661   4.403   3.953  0.1686  0.1266 -0.6565
  179poe     o2 2144   0.661   4.325   4.071  0.0198  0.2729 -0.5587
  179poe    c23 2145   0.743   4.212   4.052 -0.2043 -0.0641  0.4133
  179poe    c23 2146   0.678   4.091   3.981  0.0832  0.0829 -0.1036
  179poe     o2 2147   0.660   4.105   3.842  0.1524  0.1065 -0.1105
  179poe    c31 2148   0.560   4.015   3.796 -0.1809  0.1822  0.4641
  180poe    c31 2149   6.522   3.762   6.202  0.3753 -0.6556 -0.5155
  180poe     o2 2150   6.417   3.819   6.129  0.2046  0.0489  0.2596
  180poe    c23 2151   6.445   3.955   6.104 -0.2444  0.0986  0.0099
  180poe    c23 2152   6.444   3.992   5.954  0.1915 -0.8340 -0.2337
  180poe     o2 2153   6.326   3.928   5.910 -0.3997  0.0192  0.0742
  180poe    c23 2154   6.337   3.840   5.800 -0.1115 -0.3167  0.3692
  180poe    c23 2155   6.227   3.733   5.807  0.4514 -0.9157  0.1165
  180poe     o2 2156   6.218   3.685   5.939 -0.3588 -0.0944  0.3689
  180poe    c23 2157   6.145   3.566   5.956  0.0815 -0.4181  0.0012
  180poe    c23 2158   6.087   3.578   6.098  0.1644 -0.5862  0.0503
  180poe     o2 2159   6.176   3.652   6.178 -0.4586 -0.0408  0.2545
  180poe    c31 2160   6.168   3.618   6.315  0.4134 -0.1088  0.2948
  181poe    c31 2161   6.216   4.661   5.905 -0.1547  0.3143 -0.2393
  181poe     o2 2162   6.077   4.681   5.919 -0.1717 -0.0712  0.1739
  181poe    c23 2163   6.021   4.558   5.879  0.0546 -0.1231  0.0102
  181poe    c23 2164   5.884   4.549   5.949 -0.1246 -0.0804 -0.3349
  181poe     o2 2165   5.846   4.680   5.913 -0.0685 -0.0796 -0.3923
  181poe    c23 2166   5.709   4.696   5.941  0.0127  0.0432 -0.0532
  181poe    c23 2167   5.661   4.835   5.896  0.3311 -0.0131 -0.5795
  181poe     o2 2168   5.777   4.910   5.924  0.0159  0.0598  0.5709
  181poe    c23 2169   5.785   5.028   5.848  0.1034 -0.0049  0.4804
  181poe    c23 2170   5.922   5.081   5.894 -0.0427  0.0119  0.8950
  181poe     o2 2171   6.012   4.973   5.898 -0.1660 -0.1112  0.4358
  181poe    c31 2172   6.144   5.021   5.889 -0.2424  0.0150 -0.0381
  182poe    c31 2173   0.430   3.512   1.096 -0.1828 -0.1814  0.4103
  182poe     o2 2174   0.525   3.606   1.142 -0.0673 -0.1808  0.1694
  182poe    c23 2175   0.654   3.556   1.113 -0.0735  0.0341 -0.2350
  182poe    c23 2176   0.728   3.626   0.997  0.6367 -0.4467 -0.0795
  182poe     o2 2177   0.733   3.757   1.049 -0.4827 -0.2938 -0.3363
  182poe    c23 2178   0.791   3.862   0.973  0.3009 -0.1930  0.3903
  182poe    c23 2179   0.661   3.933   0.933  0.3921 -0.4158 -0.3069
  182poe     o2 2180   0.561   3.905   1.028  0.2203 -0.2927 -0.4476
  182poe    c23 2181   0.441   3.952   0.973 -0.1992 -0.5005  0.2764
  182poe    c23 2182   0.327   3.932   1.076 -0.1808 -1.0279  0.1946
  182poe     o2 2183   0.362   3.833   1.170  0.0560 -0.8357  0.3115
  182poe    c31 2184   0.252   3.799   1.252 -0.2303 -0.2430  0.1760
  183poe    c31 2185   6.113   4.530   0.244 -0.1717  0.5088  0.1475
  183poe     o2 2186   6.251   4.512   0.267 -0.0822  0.5709 -0.3388
  183poe    c23 2187   6.280   4.520   0.404 -0.3613  0.2761 -0.2600
  183poe    c23 2188   6.432   4.538   0.421 -0.2888 -0.3805 -0.1994
  183poe     o2 2189   6.472   4.430   0.340 -0.4634 -0.3445 -0.3356
  183poe    c23 2190   6.612   4.428   0.323 -0.5049 -0.1619 -0.7101
  183poe    c23 2191   6.634   4.356   0.189  0.4890 -0.0155 -0.6364
  183poe     o2 2192   6.560   4.433   0.097  0.1424  0.2475 -0.1404
  183poe    c23 2193   6.545   4.345  -0.012  0.0971 -0.0671  0.1178
  183poe    c23 2194   6.431   4.408  -0.096  0.3740  0.0588 -0.1637
  183poe     o2 2195   6.324   4.459  -0.020  0.0222 -0.2463 -0.4552
  183poe    c31 2196   6.218   4.516  -0.094  0.3384  0.6996 -0.1852
  184poe    c31 2197   5.473   2.671   3.619  0.3053 -0.3718  0.7957
  184poe     o2 2198   5.467   2.791   3.693  0.4421  0.2276 -0.1329
  184poe    c23 2199   5.510   2.761   3.825 -0.7377 -0.0671  0.1960
  184poe    c23 2200   5.484   2.882   3.916 -0.2667  0.2100 -0.0326
  184poe     o2 2201   5.505   2.993   3.832  0.2021  0.0281 -0.1580
  184poe    c23 2202   5.521   3.114   3.902  0.3250  0.0037 -0.1429
  184poe    c23 2203   5.545   3.228   3.801  0.1571  0.1233 -0.0484
  184poe     o2 2204   5.462   3.201   3.690 -0.1492  0.3856  0.1131
  184poe    c23 2205   5.544   3.207   3.575 -0.1010 -0.5807  0.0816
  184poe    c23 2206   5.472   3.139   3.458  0.1151  0.2146 -0.5211
  184poe     o2 2207   5.431   3.010   3.497  0.3557  0.2089 -0.2836
  184poe    c31 2208   5.378   2.947   3.382  0.3342 -0.2195 -0.0419
  185poe    c31 2209   0.508   3.569   6.064 -0.6465  0.8632 -0.4776
  185poe     o2 2210   0.511   3.571   5.924  0.0335 -0.6131 -0.5005
  185poe    c23 2211   0.531   3.449   5.855  1.3984 -0.3739 -0.5476
  185poe    c23 2212   0.462   3.430   5.719  0.0788  0.4585 -0.0164
  185poe     o2 2213   0.323   3.420   5.738 -0.0318  0.0055 -0.9991
  185poe    c23 2214   0.259   3.301   5.779  0.1254  0.3217  0.2002
  185poe    c23 2215   0.116   3.333   5.825  0.2047  0.5291  0.3041
  185poe     o2 2216   0.064   3.395   5.710  0.0738  0.0717  0.1122
  185poe    c23 2217  -0.074   3.422   5.729  0.0361  0.0038 -0.0616
  185poe    c23 2218  -0.107   3.506   5.604 -0.1277 -0.2721 -0.2043
  185poe     o2 2219  -0.040   3.630   5.601  0.0257 -0.3601 -0.4289
  185poe    c31 2220  -0.102   3.710   5.504 -0.1618 -0.1072 -0.1050
  186poe    c31 2221   6.305   1.412   6.079 -0.4132  0.0877 -0.0545
  186poe     o2 2222   6.220   1.518   6.118 -0.0354  0.3134  0.1606
  186poe    c23 2223   6.100   1.487   6.051 -0.0023 -0.4691  0.4458
  186poe    c23 2224   5.980   1.563   6.111 -0.1373 -0.3307  0.0021
  186poe     o2 2225   6.027   1.691   6.146 -0.3997 -0.2400  0.0226
  186poe    c23 2226   5.946   1.771   6.229 -0.1142  0.1947 -0.1157
  186poe    c23 2227   6.030   1.891   6.276 -0.0966 -0.0247  0.4161
  186poe     o2 2228   6.152   1.825   6.301  0.1441  0.1138 -0.3704
  186poe    c23 2229   6.253   1.920   6.328 -0.4151  0.6810 -0.2481
  186poe    c23 2230   6.372   1.822   6.335 -0.7911  0.1916 -0.6150
  186poe     o2 2231   6.377   1.736   6.224 -0.1223 -0.3591 -0.1671
  186poe    c31 2232   6.510   1.689   6.229  0.1246  0.2987 -0.4115
  187poe    c31 2233   1.812   6.155   2.890  0.4142 -0.3011  0.5688
  187poe     o2 2234   1.932   6.091   2.851  0.3123  0.0485 -0.3550
  187poe    c23 2235   1.991   6.022   2.959 -0.2281  0.1854  0.0305
  187poe    c23 2236   2.137   6.005   2.915 -0.1262 -0.3571  0.5643
  187poe     o2 2237   2.167   5.921   2.806  0.3717  0.4195  0.0911
  187poe    c23 2238   2.305   5.892   2.802  0.1701 -0.5285 -0.3941
  187poe    c23 2239   2.346   5.830   2.667  0.3620 -0.1755 -0.4975
  187poe     o2 2240   2.230   5.763   2.624  0.1540 -0.3911  0.3745
  187poe    c23 2241   2.265   5.683   2.513 -0.0796  0.4949 -0.3569
  187poe    c23 2242   2.190   5.748   2.395 -0.6458 -0.1345 -0.3535
  187poe     o2 2243   2.061   5.693   2.380 -0.4811 -0.5365 -0.3259
  187poe    c31 2244   2.028   5.699   2.243  0.2331 -0.0669 -0.4844
  188poe    c31 2245   3.192   0.494   5.254 -0.7864 -0.0451 -0.5070
  188poe     o2 2246   3.182   0.624   5.201  0.2086  0.2772  0.0799
  188poe    c23 2247   3.258   0.716   5.277  0.1773  0.1038  0.3219
  188poe    c23 2248   3.237   0.867   5.256  0.0223  0.0457  0.0489
  188poe     o2 2249   3.247   0.875   5.116 -0.0518 -0.0538  0.0375
  188poe    c23 2250   3.203   0.988   5.043 -0.2711 -0.2095 -0.0727
  188poe    c23 2251   3.052   0.973   5.019 -0.3062  0.0476 -0.0106
  188poe     o2 2252   3.029   0.837   4.989  0.0757 -0.0894  0.3021
  188poe    c23 2253   2.891   0.808   4.996  0.2265 -0.9492 -0.1915
  188poe    c23 2254   2.875   0.667   4.936  0.0219 -0.6318 -0.8922
  188poe     o2 2255   2.971   0.594   5.010 -0.2785  0.4248  0.5890
  188poe    c31 2256   2.954   0.455   5.001  0.1434  0.3797  0.4777
  189poe    c31 2257   5.106   0.745   0.061 -0.0757  0.5452 -0.6153
  189poe     o2 2258   5.099   0.640  -0.033 -0.5329 -0.0217  0.0334
  189poe    c23 2259   4.962   0.607  -0.044 -0.6909  0.6898 -0.1789
  189poe    c23 2260   4.943   0.514  -0.165  0.1543  0.5405 -0.2058
  189poe     o2 2261   4.996   0.565  -0.285 -0.1850  0.3601 -0.4354
  189poe    c23 2262   5.052   0.486  -0.387  0.3539  0.3717 -0.1526
  189poe    c23 2263   5.169   0.401  -0.333  0.1183 -0.0728 -0.3328
  189poe     o2 2264   5.266   0.475  -0.262  0.0692 -0.0216 -0.3190
  189poe    c23 2265   5.386   0.405  -0.237 -0.1256 -0.2734 -0.0897
  189poe    c23 2266   5.468   0.490  -0.139 -0.1716 -0.1122 -0.1890
  189poe     o2 2267   5.379   0.557  -0.053  0.6162  0.6096  0.0817
  189poe    c31 2268   5.442   0.600   0.065 -0.3285  0.0203  0.8213
  190poe    c31 2269   0.028   5.369   0.180 -0.7603  0.2180  0.3455
  190poe     o2 2270  -0.014   5.442   0.293 -0.5235  0.2429  0.4177
  190poe    c23 2271  -0.114   5.361   0.351 -0.0645 -0.5719  0.0814
  190poe    c23 2272  -0.170   5.430   0.477  0.5737  0.0546  0.0232
  190poe     o2 2273  -0.205   5.561   0.438 -0.4427 -0.0658  0.5193
  190poe    c23 2274  -0.269   5.648   0.529 -0.7690  0.0719  0.1630
  190poe    c23 2275  -0.280   5.775   0.443  0.1372  0.1941  0.2148
  190poe     o2 2276  -0.152   5.786   0.386  0.1256  0.5179  0.2489
  190poe    c23 2277  -0.143   5.870   0.273 -0.0789 -0.0190 -0.1713
  190poe    c23 2278   0.008   5.872   0.243  0.1969 -0.2949  1.1566
  190poe     o2 2279   0.027   5.736   0.209 -0.2641 -0.1114  0.1507
  190poe    c31 2280   0.140   5.725   0.125  0.4013  0.1176  1.0074
  191poe    c31 2281   3.306   5.508   6.471  0.5917 -0.2106  0.2401
  191poe     o2 2282   3.418   5.443   6.527  0.4270 -0.1740  0.6135
  191poe    c23 2283   3.436   5.485   6.661  0.0195  0.6919  0.4017
  191poe    c23 2284   3.569   5.438   6.723  0.1664  0.0705 -0.3716
  191poe     o2 2285   3.682   5.436   6.639  0.2603 -0.0101 -0.2426
  191poe    c23 2286   3.731   5.562   6.600  0.0822  0.0644 -0.2241
  191poe    c23 2287   3.773   5.548   6.453  0.6586 -0.2762 -0.0325
  191poe     o2 2288   3.669   5.499   6.371  0.2423  0.1964  0.2019
  191poe    c23 2289   3.708   5.480   6.236  0.3489  0.2817  0.2207
  191poe    c23 2290   3.577   5.453   6.160  0.3568  0.5430  0.1145
  191poe     o2 2291   3.499   5.368   6.241  0.5089  0.0666 -0.2336
  191poe    c31 2292   3.413   5.302   6.151  0.7165  0.0033 -0.3855
  192poe    c31 2293   6.582   6.318   2.409  0.5304  0.7296  0.4161
  192poe     o2 2294   6.496   6.327   2.520 -0.1801 -0.2560 -0.0296
  192poe    c23 2295   6.526   6.441   2.599  0.1159 -0.2709 -0.1174
  192poe    c23 2296   6.452   6.414   2.731 -0.0882  0.1516 -0.1437
  192poe     o2 2297   6.450   6.274   2.752  0.0027  0.2304  0.4089
  192poe    c23 2298   6.341   6.234   2.832 -0.6736 -0.1076 -0.6654
  192poe    c23 2299   6.342   6.083   2.804  0.1079 -0.2324  0.0091
  192poe     o2 2300   6.317   6.048   2.670 -0.2321  0.1860 -0.0379
  192poe    c23 2301   6.293   5.911   2.648 -0.6342  0.2543 -0.0230
  192poe    c23 2302   6.261   5.860   2.507 -0.3631 -0.6616  0.2396
  192poe     o2 2303   6.347   5.901   2.403 -0.7976 -0.4792 -0.0536
  192poe    c31 2304   6.271   5.913   2.285  0.0920 -0.0779 -0.5966
  193poe    c31 2305   3.227   5.658   5.678  0.0842  0.5898 -0.1141
  193poe     o2 2306   3.203   5.521   5.701  0.2480  0.3614 -1.2503
  193poe    c23 2307   3.302   5.468   5.785 -0.6595  0.4899 -0.0732
  193poe    c23 2308   3.289   5.315   5.789  0.0026  0.4456  0.6864
  193poe     o2 2309   3.150   5.296   5.805 -0.0638  0.1711 -0.1941
  193poe    c23 2310   3.097   5.173   5.760  0.0635  0.1425 -0.2663
  193poe    c23 2311   2.946   5.185   5.737 -0.0992 -0.3476  0.4894
  193poe     o2 2312   2.936   5.301   5.657  0.1256 -0.0810  0.8456
  193poe    c23 2313   2.802   5.338   5.632  0.2940  0.3089  0.5118
  193poe    c23 2314   2.821   5.461   5.541 -0.2604 -0.3831 -0.5668
  193poe     o2 2315   2.933   5.540   5.574 -0.6044 -0.0779 -0.1043
  193poe    c31 2316   2.942   5.636   5.470 -0.3163  0.5857  0.5241
  194poe    c31 2317   5.993   3.793   0.694 -0.0306  0.4137 -0.0801
  194poe     o2 2318   5.888   3.721   0.632  0.0834  0.2584 -0.0925
  194poe    c23 2319   5.917   3.687   0.498  0.0504  0.2936 -0.1082
  194poe    c23 2320   5.787   3.678   0.416  0.0650 -0.2864 -0.0685
  194poe     o2 2321   5.706   3.600   0.502  0.1402 -0.4508 -0.1468
  194poe    c23 2322   5.626   3.520   0.418 -0.3470  0.1264 -0.2428
  194poe    c23 2323   5.523   3.442   0.502 -0.1734  0.0929 -0.0617
  194poe     o2 2324   5.400   3.509   0.520 -0.2515 -0.0110 -0.2094
  194poe    c23 2325   5.322   3.437   0.612  0.2525 -0.0387  0.2015
  194poe    c23 2326   5.203   3.523   0.661  0.1412 -0.0420 -0.0612
  194poe     o2 2327   5.106   3.557   0.565  0.0883  0.1967  0.0765
  194poe    c31 2328   4.992   3.560   0.648  0.1634  0.4294  0.1727
  195poe    c31 2329   3.015   2.443   5.532 -0.7547  0.0925  0.5713
  195poe     o2 2330   2.983   2.423   5.668 -0.1599  0.0397  0.7097
  195poe    c23 2331   2.924   2.295   5.674 -0.5252  0.1822  0.2671
  195poe    c23 2332   2.823   2.294   5.791 -0.5010  0.6740  0.2946
  195poe     o2 2333   2.871   2.373   5.897  0.4555 -0.1745  0.5031
  195poe    c23 2334   2.777   2.409   5.995 -0.0841  0.5334 -0.2642
  195poe    c23 2335   2.861   2.505   6.082 -0.0478  0.4695 -0.2293
  195poe     o2 2336   2.910   2.597   5.988  0.4086  0.0600 -0.3917
  195poe    c23 2337   3.001   2.692   6.037 -0.0102  0.2624 -0.0058
  195poe    c23 2338   3.035   2.781   5.916 -0.4895  0.0931 -0.2651
  195poe     o2 2339   3.038   2.682   5.815 -0.4276  0.2608 -0.4278
  195poe    c31 2340   3.116   2.720   5.703  0.0343 -0.2682 -0.2909
  196poe    c31 2341   2.372   4.883   1.873 -0.5631  0.2699  0.2425
  196poe     o2 2342   2.406   5.002   1.806 -0.4423 -0.0421 -0.2624
  196poe    c23 2343   2.293   5.045   1.733 -0.3371  0.0919 -0.3467
  196poe    c23 2344   2.307   5.197   1.715 -0.2815  0.0570 -0.6036
  196poe     o2 2345   2.429   5.220   1.647  0.1639 -0.1380  0.1173
  196poe    c23 2346   2.475   5.350   1.674 -0.4874  0.1781 -0.2867
  196poe    c23 2347   2.628   5.346   1.661 -0.4903 -0.4426 -0.1430
  196poe     o2 2348   2.665   5.223   1.720 -0.2390 -0.4944 -0.4046
  196poe    c23 2349   2.798   5.186   1.693  0.0177  0.0484  0.0864
  196poe    c23 2350   2.825   5.055   1.769  0.3174  0.3198  0.4512
  196poe     o2 2351   2.709   4.975   1.785  0.4270  0.0189 -0.2001
  196poe    c31 2352   2.747   4.869   1.870  0.0657  0.3755  0.4163
  197poe    c31 2353   2.338   3.894   0.125 -0.3978  0.5553  0.1883
  197poe     o2 2354   2.446   3.985   0.118 -0.1391  0.1897 -0.6786
  197poe    c23 2355   2.562   3.927   0.065  0.3211  0.4277  0.0505
  197poe    c23 2356   2.577   3.982  -0.078  0.2138 -0.2384 -0.2240
  197poe     o2 2357   2.573   4.121  -0.055 -0.1847 -0.2429 -0.2529
  197poe    c23 2358   2.589   4.221  -0.154 -0.0817 -0.0960 -0.0900
  197poe    c23 2359   2.466   4.243  -0.245 -0.2306 -0.8077 -0.0679
  197poe     o2 2360   2.371   4.269  -0.144  0.0582  0.5279 -0.1232
  197poe    c23 2361   2.234   4.255  -0.174  0.0093  0.7026  0.0196
  197poe    c23 2362   2.162   4.265  -0.037  0.6357  0.1229  0.3944
  197poe     o2 2363   2.225   4.186   0.061 -0.0215 -0.3570  0.4326
  197poe    c31 2364   2.134   4.177   0.169 -0.6392  0.0190 -0.0530
  198poe    c31 2365   3.592   2.762   5.573 -0.3525 -0.0732  0.2968
  198poe     o2 2366   3.650   2.757   5.444 -0.6825  0.7596  0.1119
  198poe    c23 2367   3.665   2.871   5.362 -0.5017  0.1940 -0.6498
  198poe    c23 2368   3.756   2.826   5.246 -0.3467 -0.4439 -0.2869
  198poe     o2 2369   3.748   2.686   5.232 -0.0438 -0.4808 -0.0883
  198poe    c23 2370   3.811   2.636   5.116 -0.4432 -0.0959 -0.4709
  198poe    c23 2371   3.882   2.502   5.141  0.6143  0.5773  0.1830
  198poe     o2 2372   3.795   2.397   5.177  0.8514  0.3493  0.0859
  198poe    c23 2373   3.868   2.278   5.154  0.7338  0.1854  0.5562
  198poe    c23 2374   3.809   2.149   5.214  0.4277 -0.0687 -0.2799
  198poe     o2 2375   3.848   2.152   5.349 -0.1600 -0.0365 -0.1086
  198poe    c31 2376   3.783   2.055   5.429  0.2594 -0.4604 -0.2838
  199poe    c31 2377   6.326   4.683   3.644 -0.1808 -0.8737 -0.0712
  199poe     o2 2378   6.450   4.618   3.661  0.1388 -0.3004 -0.1643
  199poe    c23 2379   6.471   4.556   3.536  0.0201  0.4419 -0.5540
  199poe    c23 2380   6.621   4.525   3.521 -0.0123 -0.3078  0.5844
  199poe     o2 2381   6.689   4.643   3.557 -0.0088  0.0324 -0.5020
  199poe    c23 2382   6.829   4.641   3.577 -0.0892  0.2079  0.1190
  199poe    c23 2383   6.851   4.758   3.674 -0.1326  0.2499  0.0776
  199poe     o2 2384   6.772   4.734   3.788  0.1147 -0.0060  0.1939
  199poe    c23 2385   6.802   4.817   3.898 -0.8056  0.5189  0.0627
  199poe    c23 2386   6.691   4.776   3.995 -0.2517 -0.7011  0.1997
  199poe     o2 2387   6.576   4.756   3.916 -0.3770  0.5661  0.0540
  199poe    c31 2388   6.471   4.718   4.002 -0.0173 -1.3254 -0.3011
  200poe    c31 2389   6.268   5.490   5.535 -0.2405  0.2121  1.0012
  200poe     o2 2390   6.267   5.626   5.496 -0.2625 -0.0595  0.0317
  200poe    c23 2391   6.340   5.692   5.597  0.0989 -0.2079 -0.1312
  200poe    c23 2392   6.313   5.843   5.586 -0.3160 -0.2625  0.1407
  200poe     o2 2393   6.184   5.854   5.531  0.0116 -0.5774 -0.7160
  200poe    c23 2394   6.173   5.964   5.444 -0.0250  0.0681  0.0857
  200poe    c23 2395   6.025   6.008   5.440 -0.0653 -0.0759 -0.0452
  200poe     o2 2396   5.962   5.889   5.399  0.0177 -0.3044  0.4856
  200poe    c23 2397   5.821   5.896   5.399  0.0252 -0.1553  0.3670
  200poe    c23 2398   5.731   5.805   5.313 -0.0394  0.0240  0.2443
  200poe     o2 2399   5.739   5.673   5.363 -0.7326 -0.1205 -0.0073
  200poe    c31 2400   5.612   5.637   5.411 -0.3507 -0.2879  0.8997
  201poe    c31 2401   4.179   1.875   0.685 -0.1311 -0.5913  0.2833
  201poe     o2 2402   4.160   2.014   0.694 -0.2684 -0.5839 -0.0987
  201poe    c23 2403   4.054   2.043   0.782 -0.0540 -0.4201  0.1098
  201poe    c23 2404   4.052   2.196   0.792  0.3239 -0.3863 -0.2855
  201poe     o2 2405   4.189   2.229   0.797  0.2917 -0.3437  0.5463
  201poe    c23 2406   4.218   2.356   0.849  0.2577  0.0740 -0.4284
  201poe    c23 2407   4.370   2.377   0.847  0.3035 -0.2615 -0.3776
  201poe     o2 2408   4.405   2.315   0.725 -0.3308 -0.2124 -0.5843
  201poe    c23 2409   4.543   2.292   0.717 -0.3693 -0.7413  0.1743
  201poe    c23 2410   4.556   2.159   0.639 -0.2533 -0.3149 -0.5451
  201poe     o2 2411   4.459   2.071   0.691 -0.1044 -0.2436 -0.1396
  201poe    c31 2412   4.509   1.981   0.787  0.1600 -0.0885 -0.1316
  202poe    c31 2413   0.753   3.426   0.311 -0.2637 -0.0163  0.3182
  202poe     o2 2414   0.625   3.367   0.319 -0.1811 -0.2271  0.0998
  202poe    c23 2415   0.539   3.419   0.220 -0.1237 -0.5276 -0.1086
  202poe    c23 2416   0.411   3.333   0.217  0.1044 -0.8819  0.2317
  202poe     o2 2417   0.380   3.318   0.354  0.5117  0.3272  0.4658
  202poe    c23 2418   0.300   3.204   0.377  0.1362  0.2989 -0.9231
  202poe    c23 2419   0.298   3.191   0.530  0.3736  0.3441 -0.9159
  202poe     o2 2420   0.437   3.178   0.554  0.2356  0.2888 -0.1300
  202poe    c23 2421   0.458   3.201   0.692 -0.5154 -0.1460  0.0657
  202poe    c23 2422   0.531   3.335   0.709 -0.0560 -0.3988  0.0867
  202poe     o2 2423   0.631   3.323   0.610 -0.0132 -0.1639  0.1005
  202poe    c31 2424   0.758   3.335   0.671 -0.1797  0.3672  0.3567
  203poe    c31 2425   1.892   5.701   0.570  0.3401  0.2894  0.4360
  203poe     o2 2426   1.803   5.762   0.660  0.5068  0.2781  0.6082
  203poe    c23 2427   1.776   5.658   0.750 -0.0189 -0.0745  0.0439
  203poe    c23 2428   1.697   5.725   0.864 -0.6150 -0.9136  0.1426
  203poe     o2 2429   1.609   5.817   0.804  0.4147  0.3778  0.5594
  203poe    c23 2430   1.549   5.909   0.894 -0.2430 -0.0736  0.5894
  203poe    c23 2431   1.511   6.034   0.814  0.6361  0.6751  1.3136
  203poe     o2 2432   1.605   6.041   0.709 -0.7391  0.1174 -0.0059
  203poe    c23 2433   1.576   6.148   0.623 -0.0776 -0.2180 -0.6522
  203poe    c23 2434   1.674   6.120   0.507 -0.1670  0.5162 -0.9147
  203poe     o2 2435   1.686   5.981   0.482  0.1701  0.4438 -0.3700
  203poe    c31 2436   1.723   5.957   0.348  0.3414  0.4112 -0.3169
  204poe    c31 2437   3.101   0.219   5.573 -0.5869 -0.5660 -0.5397
  204poe     o2 2438   3.001   0.205   5.672 -0.1325  0.2255  0.0446
  204poe    c23 2439   3.061   0.180   5.797  0.1661  0.6240 -0.0142
  204poe    c23 2440   2.955   0.205   5.906 -0.1041 -0.5006 -0.0043
  204poe     o2 2441   2.886   0.323   5.870 -0.4407 -0.5251  0.5506
  204poe    c23 2442   2.768   0.340   5.946 -0.3614 -0.1417  0.5870
  204poe    c23 2443   2.673   0.396   5.839  0.2360 -0.0989  0.0733
  204poe     o2 2444   2.682   0.303   5.733  0.1973 -0.2080  0.1656
  204poe    c23 2445   2.579   0.314   5.637 -0.1744  0.0229  0.5879
  204poe    c23 2446   2.618   0.212   5.528 -0.1053  0.9444 -0.2632
  204poe     o2 2447   2.755   0.220   5.496  0.0502  0.1579  0.1957
  204poe    c31 2448   2.802   0.143   5.388 -0.0496  0.4705 -0.0713
  205poe    c31 2449   4.591   0.248   6.592  0.0845 -0.2085  0.1558
  205poe     o2 2450   4.478   0.332   6.598  0.3867  0.2160 -0.0833
  205poe    c23 2451   4.355   0.287   6.546  0.2722  0.5086 -0.0679
  205poe    c23 2452   4.254   0.403   6.547 -0.4784 -0.1405 -0.1138
  205poe     o2 2453   4.261   0.455   6.678  0.8463  0.0531 -0.2570
  205poe    c23 2454   4.178   0.567   6.695 -0.2470 -0.7178 -0.4447
  205poe    c23 2455   4.185   0.596   6.846  0.3592  0.6234 -0.7144
  205poe     o2 2456   4.323   0.581   6.872  0.2467  0.4756 -0.1893
  205poe    c23 2457   4.368   0.549   7.001  0.3334  0.1217 -0.3054
  205poe    c23 2458   4.517   0.509   7.006  0.1817 -0.3991  0.2098
  205poe     o2 2459   4.514   0.409   6.907 -0.4277 -0.1435 -0.0348
  205poe    c31 2460   4.613   0.310   6.926 -0.3905 -0.2310 -0.6644
  206poe    c31 2461   2.582   4.302   0.864  0.0314  0.2422 -0.5439
  206poe     o2 2462   2.443   4.291   0.884  0.1342 -0.3089 -0.1200
  206poe    c23 2463   2.408   4.428   0.889 -0.2354 -0.4122  0.1693
  206poe    c23 2464   2.261   4.436   0.932 -0.2187 -0.6662  0.2782
  206poe     o2 2465   2.190   4.359   0.838 -0.7998 -0.4323  0.5169
  206poe    c23 2466   2.066   4.315   0.889 -0.8330 -0.2115  0.6259
  206poe    c23 2467   2.024   4.201   0.795 -0.0681  0.2349 -0.2710
  206poe     o2 2468   2.141   4.121   0.799 -0.3038 -0.0988 -0.0140
  206poe    c23 2469   2.137   4.044   0.681  0.3277 -0.1652  0.0041
  206poe    c23 2470   2.277   3.981   0.674  0.3977 -0.0615  0.4245
  206poe     o2 2471   2.358   4.095   0.682  0.5278 -0.1165 -0.0616
  206poe    c31 2472   2.457   4.105   0.582 -0.0224  0.1558 -0.5925
  207poe    c31 2473   3.236   4.761   4.984 -0.0160  0.1810  0.7853
  207poe     o2 2474   3.240   4.902   4.973  0.4739  0.1168  0.0111
  207poe    c23 2475   3.310   4.958   5.082 -0.1480  0.3351  0.3043
  207poe    c23 2476   3.307   5.111   5.072  0.0352  0.3075 -0.1926
  207poe     o2 2477   3.318   5.152   4.937 -0.0394  0.7608 -0.0625
  207poe    c23 2478   3.328   5.292   4.921  0.7519  0.6669 -0.4403
  207poe    c23 2479   3.349   5.305   4.769 -0.1088  0.1173 -0.6132
  207poe     o2 2480   3.262   5.221   4.697 -0.2486 -0.5122  0.2748
  207poe    c23 2481   3.130   5.266   4.673 -0.1835 -0.2557  0.3961
  207poe    c23 2482   3.050   5.138   4.641  0.0233 -0.2940  0.0247
  207poe     o2 2483   3.089   5.038   4.732  0.3978 -0.2133 -0.0442
  207poe    c31 2484   3.027   4.914   4.705 -0.1871  0.1712 -0.4897
  208poe    c31 2485   3.751   2.382   2.709  0.0466 -0.0395 -0.1074
  208poe     o2 2486   3.643   2.330   2.783  0.2254 -0.0318  0.1599
  208poe    c23 2487   3.514   2.357   2.731  0.4318 -0.5231 -0.6335
  208poe    c23 2488   3.410   2.361   2.844  0.9841  0.9795 -0.1465
  208poe     o2 2489   3.412   2.243   2.921 -0.4770  0.5280 -0.7650
  208poe    c23 2490   3.322   2.242   3.030  0.7423 -0.0113  0.2623
  208poe    c23 2491   3.324   2.095   3.072  0.4127  0.0613  0.5253
  208poe     o2 2492   3.459   2.055   3.064  0.3104 -0.1916  0.0194
  208poe    c23 2493   3.493   1.935   3.130 -0.1597 -0.4453 -0.1959
  208poe    c23 2494   3.647   1.944   3.131 -0.2004  0.3219  0.6498
  208poe     o2 2495   3.692   2.005   3.013  0.6901  0.1116  0.8775
  208poe    c31 2496   3.827   1.967   2.998  0.5997  0.2076 -0.3346
  209poe    c31 2497   2.023   0.690   1.434 -0.3970 -1.0072  0.5478
  209poe     o2 2498   2.022   0.726   1.570 -0.4192 -0.2411  0.3488
  209poe    c23 2499   1.896   0.775   1.609 -0.4555 -0.1110  0.0695
  209poe    c23 2500   1.909   0.845   1.745 -0.2700  0.0412 -0.0260
  209poe     o2 2501   1.986   0.764   1.832 -0.1239  0.4059  0.1863
  209poe    c23 2502   2.044   0.848   1.930 -0.3831 -0.0216  0.7138
  209poe    c23 2503   2.134   0.754   2.012  0.0536 -0.0401  0.2205
  209poe     o2 2504   2.177   0.666   1.910 -0.2843 -0.1778  0.1961
  209poe    c23 2505   2.183   0.531   1.952 -0.8045 -0.3809 -0.3736
  209poe    c23 2506   2.180   0.451   1.820  0.1890  0.1274 -0.7150
  209poe     o2 2507   2.085   0.518   1.741 -0.4515 -0.2079 -0.2348
  209poe    c31 2508   1.985   0.427   1.701  0.1962 -0.8411 -0.4338
  210poe    c31 2509   1.266   5.390   5.250  0.7401 -0.2322 -0.3914
  210poe     o2 2510   1.219   5.513   5.302  0.1022 -0.6397 -0.0012
  210poe    c23 2511   1.184   5.587   5.187 -0.1435 -0.0917  0.4200
  210poe    c23 2512   1.185   5.736   5.224  0.4052 -0.0505  0.2545
  210poe     o2 2513   1.092   5.751   5.329  0.1877 -0.3205  0.1000
  210poe    c23 2514   1.078   5.882   5.377 -0.0637 -0.2691 -0.1090
  210poe    c23 2515   1.068   5.841   5.525  0.1695 -0.5470 -0.1706
  210poe     o2 2516   1.164   5.741   5.554  0.3772 -0.3226 -0.0807
  210poe    c23 2517   1.170   5.713   5.692 -0.6164 -0.1436  0.0088
  210poe    c23 2518   1.284   5.610   5.708  0.0795  0.6327  0.1023
  210poe     o2 2519   1.276   5.527   5.595  0.1779  0.3419  0.3069
  210poe    c31 2520   1.375   5.429   5.616  0.2075  0.1516 -0.6403
  211poe    c31 2521   1.407   0.515   6.134 -0.9137  0.1350 -0.2371
  211poe     o2 2522   1.424   0.376   6.117  0.4439  0.2314  0.2374
  211poe    c23 2523   1.294   0.323   6.131  0.5296 -0.1567 -0.3766
  211poe    c23 2524   1.300   0.176   6.087  0.0521 -0.4413  0.4759
  211poe     o2 2525   1.401   0.098   6.148  0.8746  0.2016 -0.0380
  211poe    c23 2526   1.455  -0.016   6.085 -0.0547 -0.0048 -0.4818
  211poe    c23 2527   1.546   0.024   5.968  0.4528  0.1828 -0.0243
  211poe     o2 2528   1.621   0.137   6.009 -0.0331  0.5518 -0.1417
  211poe    c23 2529   1.718   0.161   5.910  0.5564 -0.1308  0.2569
  211poe    c23 2530   1.795   0.273   5.982  0.0209  0.2551  0.2351
  211poe     o2 2531   1.705   0.370   6.033 -0.1474  0.1206  0.1927
  211poe    c31 2532   1.776   0.490   6.052  0.0057  0.1024 -0.2296
  212poe    c31 2533   3.073   0.505   3.627  0.4813 -0.5282 -0.1856
  212poe     o2 2534   3.156   0.620   3.627  0.2420 -0.3536  0.0593
  212poe    c23 2535   3.089   0.738   3.588  0.2957 -0.3014  0.1249
  212poe    c23 2536   3.043   0.748   3.441 -0.1326  0.2519  0.2947
  212poe     o2 2537   3.135   0.731   3.336 -0.5349 -0.4226  0.0404
  212poe    c23 2538   3.079   0.790   3.221 -0.8408 -0.0360  0.3841
  212poe    c23 2539   3.175   0.787   3.101 -0.4150  0.5592  0.7057
  212poe     o2 2540   3.297   0.819   3.164  0.0710  0.2011 -0.0345
  212poe    c23 2541   3.396   0.850   3.069  0.3044  0.6186  0.3362
  212poe    c23 2542   3.399   0.973   2.976  0.3761  0.2441 -0.1658
  212poe     o2 2543   3.414   1.083   3.063 -0.1083 -0.2978  0.6191
  212poe    c31 2544   3.350   1.200   3.016  0.6923 -0.2146 -0.2756
  213poe    c31 2545   4.919   1.496   1.810 -0.2133 -0.7309 -0.4749
  213poe     o2 2546   4.854   1.412   1.903 -0.3380  0.0428  0.1511
  213poe    c23 2547   4.787   1.480   2.007 -0.1859  0.7330 -0.1951
  213poe    c23 2548   4.748   1.371   2.108 -0.1983  0.4369 -0.5159
  213poe     o2 2549   4.706   1.256   2.038 -0.1820 -0.1799  0.4710
  213poe    c23 2550   4.568   1.244   2.008 -0.0072 -0.8276 -0.0929
  213poe    c23 2551   4.554   1.157   1.882  0.3229 -0.6177 -0.2775
  213poe     o2 2552   4.658   1.198   1.797 -0.1426  0.5017 -0.3164
  213poe    c23 2553   4.659   1.130   1.674  0.7986 -0.8310  0.4021
  213poe    c23 2554   4.782   1.188   1.603  0.1287  0.0971 -0.0191
  213poe     o2 2555   4.886   1.189   1.698  0.0260 -0.8711  0.1090
  213poe    c31 2556   5.011   1.196   1.632  0.0875 -0.3306  0.2835
  214poe    c31 2557   1.161   1.392   1.087  0.0802  0.3439 -0.1939
  214poe     o2 2558   1.211   1.274   1.029  0.0325  0.1140  0.2319
  214poe    c23 2559   1.180   1.159   1.104  0.1645  0.0392  0.1709
  214poe    c23 2560   1.187   1.027   1.024  0.0217  0.1970 -0.1023
  214poe     o2 2561   1.298   1.036   0.938 -0.0599  0.3345 -0.1934
  214poe    c23 2562   1.337   0.926   0.860  0.3599  0.0644  0.3852
  214poe    c23 2563   1.453   0.985   0.778  0.1052 -0.3422 -0.2846
  214poe     o2 2564   1.400   1.100   0.718  0.0685 -0.1139  0.1792
  214poe    c23 2565   1.491   1.201   0.681 -0.4309  0.2720 -0.0085
  214poe    c23 2566   1.559   1.279   0.795  0.1050  0.2298 -0.2956
  214poe     o2 2567   1.461   1.310   0.892  0.1189  0.1303 -0.2490
  214poe    c31 2568   1.494   1.420   0.973 -0.2992 -0.0383  0.1572
  215poe    c31 2569   3.453   2.372   2.171 -0.2998 -0.5910  0.1900
  215poe     o2 2570   3.313   2.392   2.167 -0.2648 -0.4366 -0.2374
  215poe    c23 2571   3.277   2.359   2.034 -0.1154  0.0165 -0.3939
  215poe    c23 2572   3.125   2.341   2.041 -0.0735 -0.3314 -0.3555
  215poe     o2 2573   3.094   2.290   2.169 -0.0955 -0.0445 -0.2466
  215poe    c23 2574   2.954   2.284   2.180 -0.0410 -0.6430  0.1840
  215poe    c23 2575   2.902   2.272   2.324 -0.1120 -0.2858  0.1899
  215poe     o2 2576   2.963   2.353   2.422 -0.2675 -0.0947  0.1301
  215poe    c23 2577   2.943   2.492   2.410 -0.1105 -0.0825  0.0047
  215poe    c23 2578   3.069   2.565   2.458 -0.1670 -0.3726  0.6048
  215poe     o2 2579   3.179   2.540   2.373 -0.0478 -0.2783  0.7284
  215poe    c31 2580   3.288   2.628   2.384 -0.2529  0.0293  0.3244
  216poe    c31 2581   4.461   5.274   3.736 -0.7418 -0.0790  0.1304
  216poe     o2 2582   4.375   5.196   3.656 -0.2751 -0.1853 -0.2702
  216poe    c23 2583   4.352   5.076   3.727  0.4343 -0.1837 -0.0259
  216poe    c23 2584   4.267   4.989   3.633  0.4663 -0.4963  0.2302
  216poe     o2 2585   4.188   4.894   3.701 -0.1068 -0.2156 -0.0393
  216poe    c23 2586   4.110   4.801   3.630 -0.1284 -0.2316  0.0061
  216poe    c23 2587   4.024   4.699   3.707  0.3178 -0.5783  0.0541
  216poe     o2 2588   3.934   4.750   3.803  0.2645 -0.2501 -0.1691
  216poe    c23 2589   3.888   4.636   3.871 -0.1007 -0.3808 -0.6324
  216poe    c23 2590   3.744   4.658   3.922  0.3080 -0.3189  0.5350
  216poe     o2 2591   3.686   4.784   3.896  0.1471 -0.6313 -0.6676
  216poe    c31 2592   3.546   4.777   3.904  0.1822 -0.3314  0.2768
  217poe    c31 2593   1.826   3.657   5.134  0.3909  0.8399 -0.2051
  217poe     o2 2594   1.746   3.702   5.027 -0.5464  0.1609  0.1999
  217poe    c23 2595   1.760   3.841   5.012 -0.0402  0.1404  0.4655
  217poe    c23 2596   1.640   3.905   4.940  0.0824 -0.3261 -0.1633
  217poe     o2 2597   1.641   3.828   4.822 -0.0683  0.0326 -0.3998
  217poe    c23 2598   1.525   3.845   4.743 -0.2278  0.1997 -0.1334
  217poe    c23 2599   1.521   3.719   4.655 -0.7621  0.2103 -0.1267
  217poe     o2 2600   1.545   3.608   4.739  0.2536  0.4234 -0.1230
  217poe    c23 2601   1.571   3.490   4.668 -0.3678  0.1965  0.0183
  217poe    c23 2602   1.654   3.391   4.752 -0.3103  0.3081  0.0933
  217poe     o2 2603   1.722   3.467   4.849  0.2235  0.2021 -0.1967
  217poe    c31 2604   1.761   3.376   4.950 -0.1384  0.0353 -0.2063
  218poe    c31 2605   3.810   1.006   1.577  0.6695 -0.3215 -0.0788
  218poe     o2 2606   3.843   0.879   1.629  0.2698 -0.4922 -0.2393
  218poe    c23 2607   3.762   0.830   1.733  0.0789  0.5867  0.1394
  218poe    c23 2608   3.793   0.687   1.782  0.0500  0.2445 -0.8120
  218poe     o2 2609   3.825   0.603   1.673 -0.3056 -0.8262 -0.1083
  218poe    c23 2610   3.874   0.475   1.704  1.0368 -0.1284  0.7963
  218poe    c23 2611   3.905   0.408   1.569  0.2353 -0.4028  0.7427
  218poe     o2 2612   3.969   0.513   1.500 -0.3564 -0.2862  0.3646
  218poe    c23 2613   3.954   0.491   1.361 -0.5938  0.1048  0.3284
  218poe    c23 2614   4.004   0.623   1.299  0.2141  0.0257  0.7948
  218poe     o2 2615   3.952   0.734   1.370  0.7703  0.3975  0.6255
  218poe    c31 2616   3.944   0.840   1.277  0.0573 -0.4489 -0.3027
  219poe    c31 2617   0.255   1.672   4.399 -0.7365 -0.0201 -0.7182
  219poe     o2 2618   0.128   1.706   4.449 -0.2950  0.1172  0.3484
  219poe    c23 2619   0.029   1.680   4.351  0.3406 -0.1300 -0.2362
  219poe    c23 2620  -0.093   1.772   4.370  0.4027 -0.0643 -0.1553
  219poe     o2 2621  -0.115   1.758   4.508  0.1100  0.5020 -0.1400
  219poe    c23 2622  -0.233   1.803   4.570 -0.0689 -0.3368  0.1420
  219poe    c23 2623  -0.213   1.782   4.721  0.1521  0.0618  0.1699
  219poe     o2 2624  -0.074   1.787   4.747  0.1156  0.4093  0.3064
  219poe    c23 2625  -0.045   1.681   4.835 -0.4728 -0.0567 -0.0488
  219poe    c23 2626   0.108   1.661   4.841 -0.3425  0.6210 -0.8998
  219poe     o2 2627   0.153   1.633   4.711 -0.1892 -0.4691 -0.6207
  219poe    c31 2628   0.190   1.497   4.719 -0.1767 -0.4313 -0.0320
  220poe    c31 2629   5.543   5.023   4.283  0.0154 -0.2038 -0.3940
  220poe     o2 2630   5.678   4.982   4.287  0.1698  0.3641  0.3983
  220poe    c23 2631   5.768   5.090   4.298 -0.0114  0.5730 -0.1254
  220poe    c23 2632   5.884   5.025   4.376  0.0959  0.4249 -0.4100
  220poe     o2 2633   5.928   4.915   4.300  0.0805  0.0774  0.0828
  220poe    c23 2634   6.048   4.867   4.357  0.0638  0.2044  0.2257
  220poe    c23 2635   6.111   4.767   4.258 -0.1452  0.9114 -0.6444
  220poe     o2 2636   5.998   4.689   4.225  0.0739  0.1779  0.2605
  220poe    c23 2637   5.986   4.683   4.084  0.3606 -0.3722  0.2568
  220poe    c23 2638   5.846   4.628   4.052  0.0988  0.5191 -0.1730
  220poe     o2 2639   5.747   4.713   4.104  0.0878  0.2563  0.2367
  220poe    c31 2640   5.625   4.659   4.060  0.3660 -0.4837  0.3574
  221poe    c31 2641   1.006   0.517   6.712  0.0061 -0.1312  0.6652
  221poe     o2 2642   0.868   0.533   6.734 -0.2125 -0.1764 -0.5916
  221poe    c23 2643   0.808   0.619   6.640  0.0748 -0.3546 -0.9409
  221poe    c23 2644   0.655   0.626   6.658  0.1789  0.2490 -0.2132
  221poe     o2 2645   0.613   0.687   6.778  0.2415 -0.0584 -0.0358
  221poe    c23 2646   0.561   0.601   6.878 -0.0277 -0.0655 -0.1813
  221poe    c23 2647   0.548   0.678   7.011  0.2456  0.3635 -0.3992
  221poe     o2 2648   0.468   0.792   6.987 -0.0304  0.2488 -0.0267
  221poe    c23 2649   0.489   0.888   7.088  0.6399  0.1506 -0.0668
  221poe    c23 2650   0.457   1.025   7.026  0.3925  0.0586 -0.1431
  221poe     o2 2651   0.489   1.027   6.889 -0.4791 -0.3726 -0.3586
  221poe    c31 2652   0.494   1.160   6.841 -0.2406 -0.2542 -0.0096
  222poe    c31 2653   6.273   4.753   2.662 -0.3959 -0.6719  0.1582
  222poe     o2 2654   6.199   4.634   2.642 -0.4516 -0.5045 -0.6624
  222poe    c23 2655   6.131   4.586   2.756 -0.2393  0.2862 -0.1974
  222poe    c23 2656   6.098   4.443   2.712  0.6552 -0.0467  0.1966
  222poe     o2 2657   6.039   4.442   2.584  0.1447  0.1436  0.4317
  222poe    c23 2658   6.001   4.317   2.530  1.0733  0.0134  0.0619
  222poe    c23 2659   5.954   4.360   2.390  0.5625 -0.5672  0.0511
  222poe     o2 2660   6.048   4.460   2.357  0.2805 -0.2966  0.0671
  222poe    c23 2661   6.152   4.431   2.267  0.0667 -0.0409 -0.2680
  222poe    c23 2662   6.244   4.554   2.257  0.7229 -0.5356 -0.4206
  222poe     o2 2663   6.303   4.580   2.382 -0.3433 -0.2321  0.0317
  222poe    c31 2664   6.390   4.688   2.361  0.2600 -0.7323 -0.0799
  223poe    c31 2665   2.066   5.290   6.724 -0.0158  0.5512  0.3431
  223poe     o2 2666   1.974   5.297   6.617 -0.1768 -0.4091  0.4067
  223poe    c23 2667   1.943   5.173   6.558  0.1771 -0.2219 -0.1896
  223poe    c23 2668   1.818   5.180   6.470 -0.1849 -0.0074  0.3336
  223poe     o2 2669   1.726   5.268   6.530 -0.1460  0.2949 -0.0465
  223poe    c23 2670   1.625   5.288   6.433 -0.2390 -0.0517 -0.0226
  223poe    c23 2671   1.528   5.343   6.539  0.2902  0.0436  0.4232
  223poe     o2 2672   1.582   5.449   6.614  0.4834  0.4098 -0.2307
  223poe    c23 2673   1.477   5.502   6.690  0.1790 -0.2393 -0.1941
  223poe    c23 2674   1.532   5.574   6.815 -0.1189 -0.0523 -0.1674
  223poe     o2 2675   1.591   5.699   6.788 -0.4155  0.0621 -0.2845
  223poe    c31 2676   1.590   5.768   6.911  0.4263 -0.2248 -0.1073
  224poe    c31 2677   0.275   4.135   0.429  0.2921 -0.3336  0.6891
  224poe     o2 2678   0.208   4.222   0.517  0.0483 -0.0495  0.2256
  224poe    c23 2679   0.131   4.136   0.599  0.0045  0.0079  0.2444
  224poe    c23 2680   0.005   4.218   0.634 -0.0872  0.2271 -0.5714
  224poe     o2 2681   0.054   4.349   0.652 -0.1713  0.1438  0.3057
  224poe    c23 2682  -0.054   4.434   0.683 -0.1210  0.1926  0.3473
  224poe    c23 2683   0.004   4.574   0.652 -0.1316  0.1492  0.1324
  224poe     o2 2684   0.115   4.551   0.567 -0.0841  0.0582  0.2189
  224poe    c23 2685   0.177   4.670   0.526  0.1110 -0.1490 -0.0838
  224poe    c23 2686   0.222   4.630   0.384 -0.0220  0.0261 -0.1756
  224poe     o2 2687   0.257   4.494   0.383 -0.3328 -0.0514 -0.4453
  224poe    c31 2688   0.268   4.439   0.253 -0.1067 -0.2206 -0.3534
  225poe    c31 2689   1.920   6.351   5.508  0.3040  0.2237  0.8434
  225poe     o2 2690   1.793   6.352   5.570 -0.3081  0.0790 -0.3689
  225poe    c23 2691   1.786   6.460   5.660  0.2698  0.2349 -0.5078
  225poe    c23 2692   1.643   6.471   5.715  0.3816 -0.7298  0.0157
  225poe     o2 2693   1.601   6.348   5.769 -0.1603 -0.5180  0.0834
  225poe    c23 2694   1.463   6.336   5.796 -0.1933 -0.2541  0.0326
  225poe    c23 2695   1.454   6.202   5.869  0.8378 -0.2605  0.1617
  225poe     o2 2696   1.515   6.112   5.779  0.1652 -0.2406 -0.3195
  225poe    c23 2697   1.611   6.024   5.831  0.3137  0.1119  0.0090
  225poe    c23 2698   1.695   5.959   5.720 -0.5936 -0.3246 -0.4265
  225poe     o2 2699   1.746   6.068   5.646 -0.2655 -0.2134 -0.0388
  225poe    c31 2700   1.830   6.013   5.546  0.1126  0.1725  0.0681
  226poe    c31 2701   2.992   6.404   0.390 -0.3728 -0.1498  0.3539
  226poe     o2 2702   3.047   6.276   0.409 -0.1950 -0.1268 -0.0065
  226poe    c23 2703   3.130   6.243   0.300  0.8872  0.7818  0.5210
  226poe    c23 2704   3.161   6.095   0.327  0.2562  0.4527 -0.4993
  226poe     o2 2705   3.241   6.093   0.443  0.3796 -0.6059 -0.5901
  226poe    c23 2706   3.285   5.966   0.486 -0.2626 -0.2984  1.0432
  226poe    c23 2707   3.355   5.999   0.620  0.6701  0.5171  0.3651
  226poe     o2 2708   3.259   6.082   0.680 -0.1433 -0.1753  0.0395
  226poe    c23 2709   3.333   6.159   0.772  0.2797 -0.1962 -0.2812
  226poe    c23 2710   3.241   6.277   0.809  0.5990  0.0472 -0.2602
  226poe     o2 2711   3.206   6.328   0.683  0.1560  0.2046 -0.0737
  226poe    c31 2712   3.169   6.463   0.692 -0.7051 -0.0313  0.0517
  227poe    c31 2713   0.872   2.814   4.227  0.7144 -0.2016  0.3595
  227poe     o2 2714   0.808   2.708   4.295  0.0752 -0.5205 -0.7045
  227poe    c23 2715   0.690   2.753   4.357  0.5029 -0.2657 -0.0577
  227poe    c23 2716   0.647   2.634   4.446 -0.2416 -0.2058 -0.3292
  227poe     o2 2717   0.748   2.602   4.539 -0.5688  0.1470  0.1535
  227poe    c23 2718   0.731   2.477   4.602  0.1167  0.0071  0.0662
  227poe    c23 2719   0.743   2.360   4.503 -0.0079 -0.1925  0.2850
  227poe     o2 2720   0.833   2.404   4.404 -0.0401 -0.4265  0.1498
  227poe    c23 2721   0.860   2.317   4.297  0.1883 -0.0772 -0.0785
  227poe    c23 2722   0.984   2.363   4.217  0.1257 -0.1252 -0.2041
  227poe     o2 2723   0.964   2.502   4.203  0.0479 -0.1176 -0.0158
  227poe    c31 2724   1.058   2.556   4.114 -0.1824 -0.2129 -0.3180
  228poe    c31 2725   4.617   2.018   4.748 -0.7690  0.1269  0.3214
  228poe     o2 2726   4.561   1.903   4.688  0.1862 -0.0483 -0.2522
  228poe    c23 2727   4.630   1.882   4.567 -0.1734  0.0796 -0.4803
  228poe    c23 2728   4.542   1.793   4.477 -0.1028 -0.2506 -0.2246
  228poe     o2 2729   4.411   1.846   4.477 -0.0475 -0.1106 -0.2674
  228poe    c23 2730   4.314   1.752   4.433  0.0473 -0.3528  0.0362
  228poe    c23 2731   4.221   1.734   4.554 -0.2014 -0.4372 -0.1668
  228poe     o2 2732   4.292   1.706   4.673  0.4917  0.0328 -0.4590
  228poe    c23 2733   4.209   1.637   4.764  0.1420  0.0488 -0.7637
  228poe    c23 2734   4.267   1.645   4.906 -0.4080  0.4958 -0.5560
  228poe     o2 2735   4.346   1.761   4.915 -0.0842  0.2451 -0.0925
  228poe    c31 2736   4.360   1.814   5.045 -0.4243  0.6506 -0.2191
  229poe    c31 2737   3.798   6.650   5.089  0.0547 -0.6803  0.4444
  229poe     o2 2738   3.768   6.576   4.972 -0.2331  0.2781 -0.0968
  229poe    c23 2739   3.866   6.587   4.871  0.1810 -0.1963  0.2502
  229poe    c23 2740   3.845   6.483   4.759  0.0005 -0.0967  0.1928
  229poe     o2 2741   3.718   6.502   4.699  0.1961 -0.1553 -0.2398
  229poe    c23 2742   3.715   6.437   4.574  0.1169  0.1367 -0.3903
  229poe    c23 2743   3.567   6.446   4.532 -0.0236  0.5230  0.1682
  229poe     o2 2744   3.495   6.391   4.640 -0.5128 -0.0241 -0.4290
  229poe    c23 2745   3.367   6.351   4.595 -0.6762 -0.1610  0.1577
  229poe    c23 2746   3.347   6.214   4.529  0.1604 -0.6901  0.9644
  229poe     o2 2747   3.368   6.209   4.389  0.1140 -0.5968  0.9539
  229poe    c31 2748   3.340   6.084   4.330 -0.3042 -0.4412  0.8263
  230poe    c31 2749   0.589   6.424   4.467  0.0573 -0.1112 -0.0188
  230poe     o2 2750   0.485   6.389   4.556 -0.4129  0.0604 -0.4936
  230poe    c23 2751   0.514   6.252   4.572 -0.2533  0.1637  0.1446
  230poe    c23 2752   0.415   6.192   4.674 -0.3435  0.2846  0.1289
  230poe     o2 2753   0.294   6.219   4.607 -0.1600  0.3391 -0.1856
  230poe    c23 2754   0.184   6.168   4.680  0.1220 -0.0862 -0.0572
  230poe    c23 2755   0.071   6.250   4.616  0.5083  0.2840 -0.2689
  230poe     o2 2756   0.124   6.381   4.617  0.5987  0.2478 -0.1693
  230poe    c23 2757   0.028   6.479   4.581  0.4976  0.2886  0.2134
  230poe    c23 2758   0.106   6.612   4.589  0.0866  0.5821 -0.5619
  230poe     o2 2759   0.239   6.587   4.550  0.1852 -0.3547  0.3284
  230poe    c31 2760   0.289   6.719   4.551 -0.3969 -0.1312  0.1602
  231poe    c31 2761   3.782   6.311   0.748 -0.2817 -0.0543  0.6386
  231poe     o2 2762   3.843   6.435   0.722  0.6091 -0.5105  0.5144
  231poe    c23 2763   3.936   6.427   0.616  0.3126  0.3923  0.1757
  231poe    c23 2764   4.000   6.567   0.612  0.5723  0.2664 -0.1140
  231poe     o2 2765   3.898   6.663   0.626  0.4625  0.1430 -0.0634
  231poe    c23 2766   3.941   6.797   0.619 -0.5933  0.5086  0.2268
  231poe    c23 2767   3.834   6.894   0.671 -0.9624  0.2650 -0.0718
  231poe     o2 2768   3.753   6.829   0.767  0.1391 -0.2511  0.5267
  231poe    c23 2769   3.668   6.926   0.823 -0.7320 -0.6816 -0.0402
  231poe    c23 2770   3.715   7.003   0.947 -0.2290  0.0323 -0.6684
  231poe     o2 2771   3.704   6.932   1.068  0.6593 -0.0208 -0.6115
  231poe    c31 2772   3.769   6.987   1.180  0.1996 -0.1999 -0.2521
  232poe    c31 2773   6.278   2.914   1.593  0.3449  0.5406 -0.7820
  232poe     o2 2774   6.285   2.800   1.509  0.1083 -0.1017  0.0502
  232poe    c23 2775   6.184   2.705   1.530 -0.1493  0.1111 -0.2173
  232poe    c23 2776   6.201   2.593   1.425  0.4157  0.3943 -0.4305
  232poe     o2 2777   6.341   2.588   1.410  0.4439  0.0463 -0.0827
  232poe    c23 2778   6.398   2.475   1.349  0.0884  0.0539 -0.4363
  232poe    c23 2779   6.543   2.507   1.390 -0.1134  0.2219  0.1483
  232poe     o2 2780   6.560   2.639   1.438 -0.5189  0.4387 -0.2965
  232poe    c23 2781   6.690   2.691   1.450 -0.2983  0.0018 -0.7438
  232poe    c23 2782   6.669   2.840   1.483 -0.1595  0.0116 -0.7003
  232poe     o2 2783   6.567   2.886   1.398 -0.7217 -0.3863 -0.2446
  232poe    c31 2784   6.562   3.027   1.391 -0.1186 -0.3340  0.2984
  233poe    c31 2785   3.290   0.209   1.099  0.5133  0.8487  0.0431
  233poe     o2 2786   3.209   0.093   1.101  0.5716  0.8121  0.2868
  233poe    c23 2787   3.294  -0.016   1.129 -0.2575  0.0904  0.0263
  233poe    c23 2788   3.211  -0.141   1.162 -0.2898  0.1092  0.0179
  233poe     o2 2789   3.097  -0.140   1.080 -0.1478 -0.0885 -0.1840
  233poe    c23 2790   3.002  -0.235   1.124 -0.2337 -0.1689 -0.5367
  233poe    c23 2791   2.891  -0.238   1.017 -0.0963 -0.5312 -0.6681
  233poe     o2 2792   2.865  -0.106   0.974  0.0689 -0.3069 -0.0873
  233poe    c23 2793   2.736  -0.084   0.922 -0.3282 -0.7882  0.6737
  233poe    c23 2794   2.706  -0.128   0.778  0.9076  0.1604  0.1061
  233poe     o2 2795   2.677  -0.266   0.772 -0.3722  0.4336 -0.3735
  233poe    c31 2796   2.698  -0.321   0.644 -0.2609 -0.0396 -0.1546
  234poe    c31 2797   1.296   1.002   2.957 -0.3798 -0.3739 -0.1401
  234poe     o2 2798   1.258   0.967   3.088 -0.2088  0.4913  0.1429
  234poe    c23 2799   1.309   0.840   3.122  0.5757  0.6393 -0.4403
  234poe    c23 2800   1.315   0.816   3.274  0.4585 -0.7214 -0.6443
  234poe     o2 2801   1.179   0.829   3.308  0.6348 -0.3285 -0.0765
  234poe    c23 2802   1.132   0.878   3.432  0.4313  0.2687 -0.3825
  234poe    c23 2803   1.107   1.028   3.407  0.1981  0.1720 -0.7379
  234poe     o2 2804   1.029   1.039   3.290 -0.6634 -0.3623 -0.2248
  234poe    c23 2805   1.015   1.173   3.248 -0.2176 -0.2687 -0.0763
  234poe    c23 2806   0.925   1.174   3.123 -0.1584  0.7507 -0.1188
  234poe     o2 2807   0.969   1.072   3.037  0.4201  0.7488  0.1741
  234poe    c31 2808   0.947   1.097   2.900  0.6002 -0.4566 -0.0873
  235poe    c31 2809   0.077   5.577   2.332 -0.3802  0.7243 -0.0011
  235poe     o2 2810  -0.042   5.582   2.407  0.0255  1.1915  0.6211
  235poe    c23 2811  -0.129   5.668   2.336 -0.3346  0.9295  0.7415
  235poe    c23 2812  -0.269   5.604   2.329  0.1201 -0.0082  0.0737
  235poe     o2 2813  -0.282   5.538   2.453 -0.0687 -0.7364 -0.3301
  235poe    c23 2814  -0.406   5.478   2.482 -0.5155  0.0192 -0.6343
  235poe    c23 2815  -0.374   5.395   2.608 -0.0282  0.1348 -0.6784
  235poe     o2 2816  -0.237   5.365   2.611  0.0265  0.4032 -0.4353
  235poe    c23 2817  -0.202   5.248   2.541  0.1394  0.4185 -0.4052
  235poe    c23 2818  -0.052   5.224   2.564  0.0293  0.4684  0.4190
  235poe     o2 2819   0.010   5.341   2.516  0.2816  0.1137 -0.1332
  235poe    c31 2820   0.133   5.343   2.584  0.5362  0.0546 -0.5851
  236poe    c31 2821   3.747   3.524   0.578 -0.5095 -0.1823  0.0462
  236poe     o2 2822   3.746   3.388   0.540 -0.0883 -0.1070 -0.2450
  236poe    c23 2823   3.747   3.394   0.399 -0.0178  0.2083 -0.2335
  236poe    c23 2824   3.747   3.255   0.332  0.5069 -0.1001  0.3863
  236poe     o2 2825   3.854   3.190   0.397  0.1004 -0.8008  0.3628
  236poe    c23 2826   3.866   3.052   0.374  0.2232 -0.6481 -0.5282
  236poe    c23 2827   3.937   2.993   0.498 -0.2637 -0.0015  0.0604
  236poe     o2 2828   3.853   3.037   0.602 -0.3700  0.1558 -0.0898
  236poe    c23 2829   3.747   2.947   0.626 -0.0335 -0.0836  0.5304
  236poe    c23 2830   3.651   3.031   0.712  0.5013  0.2583  0.8012
  236poe     o2 2831   3.619   3.157   0.658  0.1365 -0.3763 -0.5044
  236poe    c31 2832   3.492   3.208   0.692  0.5853  0.2140  0.3111
  237poe    c31 2833   1.526   3.748   0.989 -0.7173 -0.3417 -0.3931
  237poe     o2 2834   1.502   3.767   1.127 -0.2240 -0.3764 -0.3019
  237poe    c23 2835   1.556   3.889   1.173 -0.8168 -0.5472  0.8863
  237poe    c23 2836   1.449   3.989   1.219 -0.8508  0.2683 -0.8882
  237poe     o2 2837   1.369   3.894   1.287 -0.0118  0.4934  0.4476
  237poe    c23 2838   1.244   3.929   1.340 -0.4648  0.2243 -0.4168
  237poe    c23 2839   1.191   3.799   1.403 -0.3728  0.2163 -0.3560
  237poe     o2 2840   1.205   3.702   1.301  0.1005  0.3818 -0.4511
  237poe    c23 2841   1.081   3.651   1.257  0.3287 -0.4297 -0.1735
  237poe    c23 2842   1.116   3.561   1.137  0.6891 -0.3618 -0.1198
  237poe     o2 2843   1.203   3.622   1.044  0.1562  0.1301 -0.3031
  237poe    c31 2844   1.195   3.553   0.921 -0.3376 -0.5833  0.1242
  238poe    c31 2845   5.316   3.451   5.089 -0.5265 -0.7261 -0.4980
  238poe     o2 2846   5.403   3.377   5.006  0.2607 -0.6618  0.2548
  238poe    c23 2847   5.526   3.442   4.985 -0.1283  0.0182  0.0395
  238poe    c23 2848   5.588   3.400   4.851 -0.9074  0.4617 -0.4692
  238poe     o2 2849   5.572   3.260   4.848  0.1087  0.3186  0.0836
  238poe    c23 2850   5.629   3.188   4.740 -0.6870  0.4113 -0.4066
  238poe    c23 2851   5.607   3.041   4.779  0.1209  0.4499  0.1996
  238poe     o2 2852   5.479   3.031   4.837  0.0710 -0.0232  0.0158
  238poe    c23 2853   5.450   2.905   4.892 -0.3592  0.2893  0.5158
  238poe    c23 2854   5.314   2.941   4.955 -0.2355  0.5987  0.6063
  238poe     o2 2855   5.310   3.073   5.004  0.0377  0.8623 -0.0759
  238poe    c31 2856   5.182   3.083   5.062 -0.0732 -0.8312  0.0093
  239poe    c31 2857   5.452   3.226   1.147  0.2146  0.3296  0.0760
  239poe     o2 2858   5.572   3.272   1.207  0.0061 -0.5460  1.2172
  239poe    c23 2859   5.544   3.406   1.243  0.1701 -0.1982  0.1030
  239poe    c23 2860   5.659   3.473   1.320 -0.0552 -0.2084  0.4489
  239poe     o2 2861   5.777   3.426   1.259 -0.3474 -0.2412 -0.0965
  239poe    c23 2862   5.895   3.439   1.334  0.1150 -0.2697 -0.8089
  239poe    c23 2863   5.934   3.298   1.382 -0.3847 -0.0042  0.4416
  239poe     o2 2864   5.860   3.212   1.298  0.3372 -0.3172  0.1060
  239poe    c23 2865   5.891   3.076   1.316  0.3202 -0.2468  0.6886
  239poe    c23 2866   5.789   2.996   1.233  0.2536  0.1882  0.3429
  239poe     o2 2867   5.770   3.061   1.110 -0.2613 -0.1772  0.2288
  239poe    c31 2868   5.730   2.974   1.006  0.2049 -0.0897 -0.0252
  240poe    c31 2869   2.424   1.051   1.280 -0.0550 -0.7021  0.1294
  240poe     o2 2870   2.316   1.097   1.358 -0.3898  0.2864 -0.8892
  240poe    c23 2871   2.210   1.008   1.332 -0.1827 -0.1089 -0.4014
  240poe    c23 2872   2.095   1.087   1.398  0.4373  0.5907 -0.1359
  240poe     o2 2873   2.109   1.108   1.536 -0.3620 -0.3330  0.0982
  240poe    c23 2874   2.027   1.209   1.590 -0.3920 -0.3180  0.0241
  240poe    c23 2875   2.112   1.264   1.705 -0.1160 -0.1957 -0.2392
  240poe     o2 2876   2.234   1.301   1.643 -0.1143 -0.3286 -0.3155
  240poe    c23 2877   2.338   1.327   1.734 -0.0127  0.5206 -0.6647
  240poe    c23 2878   2.456   1.352   1.638  0.3403  0.2583 -0.3069
  240poe     o2 2879   2.455   1.266   1.527 -0.5101 -0.0603 -0.0591
  240poe    c31 2880   2.566   1.297   1.446 -0.4621 -0.1886 -0.0431
  241poe    c31 2881   0.839   1.123   5.259 -0.1752  0.2051 -0.3923
  241poe     o2 2882   0.868   1.023   5.163 -0.5079 -0.2661 -0.0093
  241poe    c23 2883   0.759   0.934   5.155 -0.6487 -0.1578  0.6026
  241poe    c23 2884   0.772   0.864   5.018 -0.0215  0.5901  0.2704
  241poe     o2 2885   0.909   0.861   4.985 -0.0986  0.3465 -0.0245
  241poe    c23 2886   0.945   0.816   4.856 -0.4080  0.4633 -0.1518
  241poe    c23 2887   1.082   0.873   4.816 -0.3683  0.6669  0.2759
  241poe     o2 2888   1.079   1.002   4.874  0.0107  0.6127  0.4219
  241poe    c23 2889   1.200   1.066   4.840  0.1969  0.0628  0.0257
  241poe    c23 2890   1.197   1.190   4.931  0.0113  0.2318 -0.2089
  241poe     o2 2891   1.159   1.159   5.064  0.1097  0.2795 -0.1692
  241poe    c31 2892   1.132   1.282   5.129  0.1337  0.1733  0.0408
  242poe    c31 2893   2.461   2.650   0.911 -0.1247 -1.0158  0.4401
  242poe     o2 2894   2.322   2.648   0.937 -0.3738  0.5690 -0.6549
  242poe    c23 2895   2.282   2.747   1.030 -0.3505 -0.2855  0.2846
  242poe    c23 2896   2.198   2.840   0.940 -0.0071  0.3543  0.6270
  242poe     o2 2897   2.095   2.762   0.886  0.1920  0.5121  0.0089
  242poe    c23 2898   2.035   2.829   0.777  0.8596  0.0146 -0.6758
  242poe    c23 2899   1.967   2.720   0.693 -0.4102  0.2208  0.0554
  242poe     o2 2900   2.072   2.626   0.684 -0.1336  0.5130  0.2119
  242poe    c23 2901   2.036   2.505   0.620  0.5352  0.0193  0.7577
  242poe    c23 2902   2.159   2.414   0.604  0.2358 -0.1868 -0.4411
  242poe     o2 2903   2.224   2.413   0.729 -0.5109 -0.4468 -0.0459
  242poe    c31 2904   2.309   2.301   0.734  0.1759  0.0677  0.0623
  243poe    c31 2905   0.915   4.918   5.568 -0.1758 -0.0221 -0.0898
  243poe     o2 2906   1.039   4.890   5.630 -0.2052  0.0694  0.0108
  243poe    c23 2907   1.130   4.851   5.530 -0.2120  0.0344  0.0186
  243poe    c23 2908   1.269   4.855   5.595 -0.2848  0.5976  0.1519
  243poe     o2 2909   1.249   4.806   5.726  0.4305  0.1372  0.1004
  243poe    c23 2910   1.351   4.845   5.815  0.8952  0.2542 -0.4740
  243poe    c23 2911   1.305   4.968   5.895 -0.3753 -0.4888 -0.0229
  243poe     o2 2912   1.170   4.942   5.925 -0.3427 -0.1701  0.4151
  243poe    c23 2913   1.122   5.051   6.000 -0.4299  0.3609 -0.4011
  243poe    c23 2914   0.972   5.025   6.028 -0.3071  0.2594  0.1622
  243poe     o2 2915   0.933   4.958   5.911 -0.2261 -0.1679  0.3782
  243poe    c31 2916   0.792   4.952   5.898 -0.2131  0.2408  0.0588
  244poe    c31 2917   3.357   3.623   0.391 -0.2201 -0.3866 -0.6266
  244poe     o2 2918   3.242   3.692   0.348 -0.2202  0.3351  0.4770
  244poe    c23 2919   3.146   3.611   0.283  0.5626 -0.5325  0.3725
  244poe    c23 2920   3.008   3.645   0.342  0.3215 -0.1727 -0.3783
  244poe     o2 2921   3.008   3.783   0.371  0.2595 -0.2378 -0.0574
  244poe    c23 2922   2.884   3.821   0.427  0.4825 -0.2241  0.4216
  244poe    c23 2923   2.901   3.971   0.458 -0.4620  0.0188 -0.2308
  244poe     o2 2924   3.033   3.983   0.504 -0.5033 -0.1367 -0.0732
  244poe    c23 2925   3.079   4.116   0.509  0.6810 -0.5427  0.4271
  244poe    c23 2926   3.224   4.106   0.559  0.9708 -0.1017 -0.2991
  244poe     o2 2927   3.276   3.991   0.498  0.0732 -0.4748 -0.3817
  244poe    c31 2928   3.409   3.984   0.547  0.0274 -0.9849 -0.3220
  245poe    c31 2929   0.681   3.910   4.557 -0.5495 -0.5018 -0.2865
  245poe     o2 2930   0.697   3.872   4.692 -0.5195  1.0708  0.1693
  245poe    c23 2931   0.807   3.938   4.752  0.5112 -0.4549  0.0020
  245poe    c23 2932   0.816   3.880   4.894 -0.2557  0.5395  0.4619
  245poe     o2 2933   0.679   3.858   4.922 -0.3885  0.9289  0.1373
  245poe    c23 2934   0.666   3.858   5.062  0.4502 -0.9375  0.2476
  245poe    c23 2935   0.512   3.868   5.074  0.4849 -0.1079  0.0128
  245poe     o2 2936   0.462   3.767   4.989 -0.4084  0.1274  0.2504
  245poe    c23 2937   0.325   3.755   4.960 -0.3229 -1.0650  0.3071
  245poe    c23 2938   0.329   3.672   4.830  0.0799 -0.3552 -0.1428
  245poe     o2 2939   0.398   3.735   4.725 -0.8006  0.2303 -0.3797
  245poe    c31 2940   0.377   3.661   4.607 -0.2236 -0.5271 -0.0216
  246poe    c31 2941   2.116   6.484   2.661 -0.7646  0.3747  0.2399
  246poe     o2 2942   2.156   6.579   2.758 -0.1968  0.3178  0.0624
  246poe    c23 2943   2.243   6.505   2.841  0.3343  0.5097 -0.3151
  246poe    c23 2944   2.289   6.595   2.957 -0.2952  0.1861  0.1901
  246poe     o2 2945   2.190   6.640   3.047 -0.3139 -0.1818  0.3559
  246poe    c23 2946   2.220   6.759   3.115 -0.1343  0.0716 -0.1650
  246poe    c23 2947   2.113   6.859   3.068 -0.2419  0.1813  0.3116
  246poe     o2 2948   2.097   6.851   2.928 -0.3145 -0.3061  0.3440
  246poe    c23 2949   2.020   6.956   2.874 -0.0310 -0.3581 -0.1720
  246poe    c23 2950   2.044   6.964   2.723 -0.3410 -0.6088 -0.2348
  246poe     o2 2951   2.018   6.834   2.673 -0.9097 -0.6307  0.1070
  246poe    c31 2952   2.051   6.834   2.536 -0.2545 -1.2828  0.2620
  247poe    c31 2953   4.303   2.199   4.231 -0.2567  0.0208 -0.1654
  247poe     o2 2954   4.246   2.268   4.340 -0.2766  0.5092 -0.4841
  247poe    c23 2955   4.327   2.382   4.358  0.5199 -0.0913 -0.2017
  247poe    c23 2956   4.283   2.429   4.498 -0.0627 -0.0902 -0.3842
  247poe     o2 2957   4.142   2.439   4.490 -0.0888  0.0382  0.2345
  247poe    c23 2958   4.084   2.509   4.598  0.1139  0.7418 -0.1071
  247poe    c23 2959   3.930   2.513   4.599  0.0900 -0.1029  0.1901
  247poe     o2 2960   3.896   2.386   4.548  0.0861 -0.1886  0.4067
  247poe    c23 2961   3.793   2.384   4.452  0.2787  0.7989  0.1702
  247poe    c23 2962   3.863   2.365   4.316 -0.3916 -0.2565 -0.0346
  247poe     o2 2963   3.939   2.247   4.331  0.1344  0.0821 -0.0593
  247poe    c31 2964   3.898   2.148   4.241 -0.0908  0.2875 -0.1822
  248poe    c31 2965   0.110   6.690   6.795  0.5555  0.6368 -0.2293
  248poe     o2 2966   0.196   6.637   6.894  0.4094  0.4816 -0.1828
  248poe    c23 2967   0.326   6.677   6.857  0.6419 -0.3949 -0.3319
  248poe    c23 2968   0.416   6.608   6.962 -0.0714 -0.3912  0.2940
  248poe     o2 2969   0.356   6.627   7.088 -0.4474  0.1925  0.0300
  248poe    c23 2970   0.429   6.559   7.187 -0.0843 -0.1241 -0.4479
  248poe    c23 2971   0.347   6.548   7.317  0.4490  0.4215 -0.0602
  248poe     o2 2972   0.227   6.483   7.282  0.8442  0.0804 -0.7976
  248poe    c23 2973   0.108   6.522   7.346  0.7891 -0.0758 -0.8032
  248poe    c23 2974   0.002   6.488   7.240  0.1851 -0.2888 -0.1458
  248poe     o2 2975   0.021   6.546   7.112  0.2226 -0.6474 -0.3040
  248poe    c31 2976  -0.055   6.452   7.039 -0.6915  0.3660 -0.6747
  249poe    c31 2977   3.897   6.418   0.197  0.5450 -0.3486  0.4041
  249poe     o2 2978   3.838   6.310   0.128 -0.1898  0.1812  0.1947
  249poe    c23 2979   3.775   6.349   0.008  0.2768  0.0553 -0.0932
  249poe    c23 2980   3.824   6.268  -0.114  0.4497 -0.3777  0.2637
  249poe     o2 2981   3.849   6.142  -0.055 -0.0417 -0.6000 -0.0024
  249poe    c23 2982   3.945   6.068  -0.127  0.5373  0.3493 -0.2209
  249poe    c23 2983   3.974   5.944  -0.041 -0.3994  0.3442  0.1041
  249poe     o2 2984   4.000   5.996   0.088 -0.1263 -0.0977  0.2316
  249poe    c23 2985   4.009   5.896   0.186 -0.0541 -0.1600  0.1612
  249poe    c23 2986   3.981   5.978   0.313 -0.6078 -0.2660  0.1108
  249poe     o2 2987   3.883   6.074   0.282 -0.4743 -0.2168 -0.1615
  249poe    c31 2988   3.845   6.118   0.411 -0.1675  0.4441 -0.2898
  250poe    c31 2989   3.481   3.085   4.675 -0.1792 -0.0653 -0.0863
  250poe     o2 2990   3.590   3.100   4.588 -0.0060  0.0895  0.1557
  250poe    c23 2991   3.703   3.055   4.660  0.1805  0.2692 -0.0219
  250poe    c23 2992   3.820   3.032   4.563  0.3763  0.0370  0.2683
  250poe     o2 2993   3.786   3.110   4.451  0.2648 -0.0167  0.2649
  250poe    c23 2994   3.839   3.073   4.325  0.2274  0.9879 -0.0554
  250poe    c23 2995   3.728   3.031   4.227  0.1022 -0.7451  0.7935
  250poe     o2 2996   3.613   3.102   4.267  0.2382 -0.2697  0.3589
  250poe    c23 2997   3.494   3.038   4.227  0.0795  0.2638 -0.0301
  250poe    c23 2998   3.401   3.155   4.263  0.3026  0.4692 -0.1148
  250poe     o2 2999   3.384   3.170   4.402  0.1183  0.6918 -0.1599
  250poe    c31 3000   3.285   3.264   4.437 -0.4921 -0.2026  0.5857
  251poe    c31 3001   1.033   4.558   4.150  0.5982  0.2328  0.0712
  251poe     o2 3002   0.955   4.459   4.213 -0.3024  0.3952 -0.7522
  251poe    c23 3003   0.954   4.488   4.351 -0.1445 -0.1104 -0.6419
  251poe    c23 3004   0.853   4.392   4.416 -0.1633  0.1212 -0.3259
  251poe     o2 3005   0.728   4.382   4.350 -0.1736  0.1423 -0.3098
  251poe    c23 3006   0.651   4.279   4.409  0.2418 -0.1945 -0.3497
  251poe    c23 3007   0.502   4.300   4.376  0.2019  0.2090  0.0710
  251poe     o2 3008   0.485   4.363   4.250 -0.0447 -0.0791 -0.0391
  251poe    c23 3009   0.350   4.372   4.209  0.0713 -0.2931 -0.4635
  251poe    c23 3010   0.239   4.439   4.290  0.0023 -0.6650 -0.2470
  251poe     o2 3011   0.179   4.348   4.380 -0.4410  0.1581  0.3070
  251poe    c31 3012   0.158   4.424   4.497 -0.1436  0.6206  0.0665
  252poe    c31 3013   1.104   3.169   4.739  0.1283 -0.7459  0.4892
  252poe     o2 3014   1.002   3.143   4.833  0.6140 -0.3696  1.1271
  252poe    c23 3015   1.012   3.248   4.926 -0.5609  1.0052 -0.2366
  252poe    c23 3016   0.911   3.213   5.037 -0.6007  0.9773 -0.2814
  252poe     o2 3017   0.793   3.157   4.985 -0.3613 -0.0424  0.2502
  252poe    c23 3018   0.705   3.147   5.095 -0.5929  0.2844  0.0966
  252poe    c23 3019   0.593   3.042   5.078 -0.3045 -0.0142  0.0210
  252poe     o2 3020   0.641   2.916   5.037  0.1556  0.0776  0.2625
  252poe    c23 3021   0.615   2.882   4.903 -0.1251  0.4920  0.2083
  252poe    c23 3022   0.736   2.792   4.870  0.1419  0.6124  0.8417
  252poe     o2 3023   0.849   2.878   4.870  0.4276  0.2690 -0.6970
  252poe    c31 3024   0.952   2.783   4.856  0.0073 -0.3062  0.0514
  253poe    c31 3025   4.805   1.841   0.012  0.1781 -0.4804  0.1344
  253poe     o2 3026   4.772   1.950   0.095 -0.3578  0.2867 -1.0570
  253poe    c23 3027   4.633   1.970   0.107 -0.3084 -0.1606  0.3788
  253poe    c23 3028   4.618   2.094   0.197  0.6805 -0.0923  0.4617
  253poe     o2 3029   4.735   2.167   0.164  0.3613  0.2638  0.0964
  253poe    c23 3030   4.742   2.294   0.225 -0.0362  0.2082  0.2601
  253poe    c23 3031   4.884   2.350   0.214  0.0597  0.0002  0.4353
  253poe     o2 3032   4.972   2.241   0.228  0.1510 -0.0037 -0.1679
  253poe    c23 3033   5.084   2.273   0.149  0.0460  0.6703 -0.0453
  253poe    c23 3034   5.148   2.135   0.127 -0.0766  0.6948 -0.5634
  253poe     o2 3035   5.058   2.044   0.068  0.2058  0.1390 -0.1447
  253poe    c31 3036   5.149   1.953   0.010  0.2285  0.0211  0.0754
  254poe    c31 3037   6.380   3.389   0.895  0.9063 -0.6063  0.5037
  254poe     o2 3038   6.366   3.458   1.018 -0.5070  0.0044  0.0179
  254poe    c23 3039   6.295   3.389   1.119 -0.9255  0.3604 -0.0292
  254poe    c23 3040   6.317   3.463   1.252 -0.2379 -0.2431  0.1970
  254poe     o2 3041   6.457   3.476   1.269 -0.3149  0.4626  0.2875
  254poe    c23 3042   6.506   3.551   1.378  0.3744  0.1542  0.1878
  254poe    c23 3043   6.632   3.615   1.316  0.3227 -0.3655 -0.4679
  254poe     o2 3044   6.592   3.671   1.193 -0.0391  0.7064  0.1279
  254poe    c23 3045   6.699   3.734   1.126  0.0959  0.2709 -0.0730
  254poe    c23 3046   6.635   3.783   0.995  0.5687  0.8697 -0.0876
  254poe     o2 3047   6.565   3.671   0.944  0.5773  0.5799  0.5245
  254poe    c31 3048   6.541   3.694   0.807  0.2091 -0.2829  0.4396
  255poe    c31 3049   3.526   2.012   5.687  0.4121  0.8976  0.1259
  255poe     o2 3050   3.559   2.097   5.795 -0.9286  1.0333  0.4408
  255poe    c23 3051   3.658   2.042   5.879 -0.9164  0.5503  0.1187
  255poe    c23 3052   3.712   2.143   5.982  0.4815  0.0512 -0.1061
  255poe     o2 3053   3.619   2.171   6.084  0.0196 -0.0868 -0.4844
  255poe    c23 3054   3.651   2.293   6.148 -0.4988 -0.0709 -0.2518
  255poe    c23 3055   3.571   2.296   6.280 -0.4250  0.2801 -0.2134
  255poe     o2 3056   3.436   2.269   6.250 -0.4033  0.1365 -0.1861
  255poe    c23 3057   3.351   2.308   6.356  0.2421 -0.2488  0.4823
  255poe    c23 3058   3.203   2.327   6.320  0.2745  0.1219  0.5398
  255poe     o2 3059   3.134   2.206   6.344  0.0658  0.1237 -0.0254
  255poe    c31 3060   3.005   2.228   6.292  0.1712  0.2078 -0.2535
  256poe    c31 3061   5.739   0.568   5.553  0.4039 -0.9002 -0.1237
  256poe     o2 3062   5.678   0.594   5.429  0.0356 -0.2340  0.1862
  256poe    c23 3063   5.749   0.525   5.328 -0.3383 -1.0012  0.4339
  256poe    c23 3064   5.708   0.612   5.207 -0.4127 -0.4711  0.8354
  256poe     o2 3065   5.570   0.594   5.189 -0.2838 -0.2419 -0.4639
  256poe    c23 3066   5.501   0.675   5.096 -0.6931  0.0417  0.0814
  256poe    c23 3067   5.358   0.683   5.154 -0.6223 -0.8318  0.4000
  256poe     o2 3068   5.379   0.722   5.288  0.6505  0.0421 -0.0314
  256poe    c23 3069   5.280   0.811   5.334 -0.0697 -1.0049  0.4796
  256poe    c23 3070   5.321   0.866   5.472  0.1385  0.1186 -0.0117
  256poe     o2 3071   5.381   0.763   5.549 -0.0304  0.0782  0.0688
  256poe    c31 3072   5.429   0.811   5.672  0.7325  1.0349 -0.5831
  257poe    c31 3073   2.295   3.205   3.834 -0.1642 -0.1727  0.2132
  257poe     o2 3074   2.429   3.161   3.839  0.1306  0.6262 -0.4666
  257poe    c23 3075   2.478   3.127   3.712  0.4874  0.2158 -0.2191
  257poe    c23 3076   2.629   3.098   3.724  0.3872 -0.1389  0.2122
  257poe     o2 3077   2.655   3.004   3.825  0.1251 -0.1099  0.3077
  257poe    c23 3078   2.784   3.005   3.882  0.1920  0.4070  0.1505
  257poe    c23 3079   2.777   2.957   4.029 -0.2458 -0.0504 -0.0183
  257poe     o2 3080   2.669   3.031   4.080 -0.0209  0.1494  0.1690
  257poe    c23 3081   2.641   3.005   4.216 -0.4241  0.3701  0.1278
  257poe    c23 3082   2.531   3.108   4.248 -0.2818  0.4146  0.4819
  257poe     o2 3083   2.445   3.110   4.135  0.0967 -0.6203  0.1725
  257poe    c31 3084   2.313   3.140   4.173  0.2339  0.6922 -0.3677
  258poe    c31 3085   2.119   0.179   6.232 -0.1497  0.2244  0.0378
  258poe     o2 3086   2.118   0.101   6.114  0.0320 -0.0763  0.2321
  258poe    c23 3087   2.186   0.177   6.017 -0.2098 -0.2563 -0.0771
  258poe    c23 3088   2.154   0.122   5.876  0.2380 -0.5341 -0.0754
  258poe     o2 3089   2.179  -0.010   5.836 -0.5389 -0.7566  0.1598
  258poe    c23 3090   2.194  -0.034   5.698 -0.5901 -0.1324  0.0455
  258poe    c23 3091   2.192  -0.187   5.681 -0.3814 -0.1303  0.0021
  258poe     o2 3092   2.252  -0.248   5.793 -0.6597  0.1094  0.2843
  258poe    c23 3093   2.206  -0.379   5.816 -0.2110 -0.1500 -0.2925
  258poe    c23 3094   2.277  -0.436   5.940 -0.8954 -0.3500  0.0155
  258poe     o2 3095   2.274  -0.336   6.040  1.0552 -0.2198 -0.0121
  258poe    c31 3096   2.319  -0.386   6.164  0.1541  0.5032  0.6137
  259poe    c31 3097   5.495   5.795   6.116 -0.3079  0.3608 -0.4260
  259poe     o2 3098   5.616   5.863   6.138 -0.0778 -0.1614 -0.0460
  259poe    c23 3099   5.707   5.785   6.211 -0.3991 -0.5629 -0.0706
  259poe    c23 3100   5.795   5.876   6.299 -0.7293  0.2005 -0.5271
  259poe     o2 3101   5.859   5.966   6.211  0.0579  0.1133 -0.0487
  259poe    c23 3102   5.948   6.050   6.281  0.0628  0.2045 -0.1625
  259poe    c23 3103   5.999   6.137   6.164  0.0019  0.3181 -0.1056
  259poe     o2 3104   5.899   6.154   6.066  0.2269  0.2603 -0.3463
  259poe    c23 3105   5.948   6.174   5.936  0.3428  0.2794 -0.3003
  259poe    c23 3106   5.821   6.165   5.850 -0.0319 -0.2666  0.3108
  259poe     o2 3107   5.746   6.056   5.901  0.2278 -0.6250 -0.0667
  259poe    c31 3108   5.628   6.028   5.830  0.0746 -0.2129  0.0242
  260poe    c31 3109   1.093   1.858   5.474  0.1082  0.4837  0.8244
  260poe     o2 3110   0.977   1.888   5.548 -0.3251  0.1698  0.2850
  260poe    c23 3111   1.001   1.971   5.659  0.2829 -0.2555  0.4818
  260poe    c23 3112   0.866   1.973   5.733  0.1001  0.0043  0.1429
  260poe     o2 3113   0.750   1.964   5.652  0.1011  0.0544  0.1359
  260poe    c23 3114   0.644   1.900   5.719 -0.1661  0.3588  0.0038
  260poe    c23 3115   0.556   1.834   5.611  0.2025  0.0826 -0.1292
  260poe     o2 3116   0.642   1.797   5.505 -0.0866 -0.3616 -0.2083
  260poe    c23 3117   0.593   1.692   5.424  0.1429 -0.7953  0.2023
  260poe    c23 3118   0.726   1.650   5.358  0.3207 -0.2313  0.1876
  260poe     o2 3119   0.792   1.767   5.317  0.2275 -0.2488 -0.0161
  260poe    c31 3120   0.838   1.764   5.184  0.1611  1.1010 -0.0821
  261poe    c31 3121   2.756   4.012   6.031 -0.3046 -0.1800  0.1455
  261poe     o2 3122   2.660   4.013   5.928  0.2181  0.0975 -0.3467
  261poe    c23 3123   2.661   3.885   5.868 -0.3636 -0.1522  0.1635
  261poe    c23 3124   2.568   3.898   5.745  0.0681  1.0159 -0.0576
  261poe     o2 3125   2.471   3.992   5.784 -0.6368  0.1792  0.2401
  261poe    c23 3126   2.378   4.029   5.684 -0.1271 -0.5837 -0.5385
  261poe    c23 3127   2.301   4.149   5.742  0.9084  0.2231 -0.8187
  261poe     o2 3128   2.399   4.222   5.814  0.4403  0.1663 -0.1197
  261poe    c23 3129   2.342   4.332   5.881  0.0224  0.1540 -0.4463
  261poe    c23 3130   2.450   4.365   5.986 -0.0645 -0.2605 -0.2264
  261poe     o2 3131   2.480   4.246   6.055 -0.2146 -0.0688  0.1711
  261poe    c31 3132   2.540   4.289   6.175  0.6314  0.6862 -0.5115
  262poe    c31 3133   2.660   6.613   0.060  0.0841  0.3521  0.1028
  262poe     o2 3134   2.645   6.596  -0.080 -0.2982  0.1783  0.1620
  262poe    c23 3135   2.739   6.654  -0.168  0.3632 -0.6817  0.2862
  262poe    c23 3136   2.669   6.672  -0.305  0.2030  0.2242  0.4797
  262poe     o2 3137   2.537   6.717  -0.287  0.0893  0.0183  0.1600
  262poe    c23 3138   2.478   6.733  -0.415  0.5892  0.0356 -0.0721
  262poe    c23 3139   2.326   6.736  -0.390  0.4872 -0.7677 -0.5490
  262poe     o2 3140   2.325   6.644  -0.284 -0.2434 -0.2811 -0.1255
  262poe    c23 3141   2.198   6.605  -0.238 -0.2344 -0.0814  0.0712
  262poe    c23 3142   2.233   6.492  -0.138 -0.4770  0.0792  0.3414
  262poe     o2 3143   2.361   6.492  -0.079 -0.3598 -0.2950  0.0925
  262poe    c31 3144   2.352   6.439   0.052 -1.1743  0.5003  0.3699
  263poe    c31 3145   0.482   4.605   2.625  0.0741  1.2208 -0.7656
  263poe     o2 3146   0.435   4.610   2.758  0.1074  0.6180 -0.7262
  263poe    c23 3147   0.378   4.494   2.814  0.4168  0.8631  0.1113
  263poe    c23 3148   0.389   4.512   2.967  0.4283 -0.9014  0.3391
  263poe     o2 3149   0.502   4.594   2.990 -0.5775  0.4600  0.5288
  263poe    c23 3150   0.496   4.638   3.124  0.1216  0.0542  0.6989
  263poe    c23 3151   0.576   4.770   3.115  0.0600  0.0343 -0.3159
  263poe     o2 3152   0.534   4.841   3.001 -0.3737 -0.0061 -0.1832
  263poe    c23 3153   0.576   4.975   2.991  0.2355 -0.2195 -0.5282
  263poe    c23 3154   0.566   4.995   2.839  0.1398 -0.2575 -0.5267
  263poe     o2 3155   0.461   4.922   2.780 -0.0249 -0.2714 -0.2176
  263poe    c31 3156   0.442   4.966   2.647 -0.1837  0.1034 -0.0733
  264poe    c31 3157   5.372   3.962   5.572  0.3543  0.1909 -0.2186
  264poe     o2 3158   5.393   3.823   5.589 -0.7165  0.0834  0.3308
  264poe    c23 3159   5.333   3.762   5.477 -0.0508 -0.2073  0.1295
  264poe    c23 3160   5.356   3.615   5.516  0.2603 -0.1467  0.1776
  264poe     o2 3161   5.322   3.607   5.653 -0.3132 -0.6307  0.0112
  264poe    c23 3162   5.219   3.513   5.673 -0.3397 -0.5727  0.1471
  264poe    c23 3163   5.163   3.575   5.803  0.2872  0.0776  0.1155
  264poe     o2 3164   5.267   3.643   5.869 -0.1701  1.2887 -0.3772
  264poe    c23 3165   5.217   3.718   5.978 -0.0455  0.4046  0.3065
  264poe    c23 3166   5.351   3.788   6.006  0.1584 -0.0330  0.4240
  264poe     o2 3167   5.452   3.787   5.907 -0.0874 -0.1652  0.1718
  264poe    c31 3168   5.514   3.913   5.890  0.4108 -0.4304  0.0239
  265poe    c31 3169   0.125   0.422   0.876 -0.1734  0.1287 -0.0161
  265poe     o2 3170   0.048   0.305   0.892 -0.2184  0.0652 -0.6597
  265poe    c23 3171   0.132   0.191   0.899  0.4200  0.5256 -0.7011
  265poe    c23 3172   0.058   0.085   0.981  0.2083  0.8089 -0.5233
  265poe     o2 3173  -0.069   0.084   0.920  0.0103 -0.3608 -0.1335
  265poe    c23 3174  -0.143  -0.011   0.992 -0.1736 -0.2637 -0.1938
  265poe    c23 3175  -0.286   0.005   0.937 -0.3327 -0.1566  0.2519
  265poe     o2 3176  -0.303   0.144   0.916  0.1661 -0.1501 -0.1230
  265poe    c23 3177  -0.427   0.170   0.854 -0.0844  0.7211  0.7086
  265poe    c23 3178  -0.420   0.321   0.828  0.4116  0.4961 -0.5921
  265poe     o2 3179  -0.288   0.334   0.779  0.3576 -0.2500 -0.9452
  265poe    c31 3180  -0.276   0.461   0.719 -0.3917  0.0100 -0.5696
  266poe    c31 3181   0.919   5.625   0.668  0.4557  0.1176  0.4110
  266poe     o2 3182   0.942   5.629   0.529  0.2331 -0.0420  0.3694
  266poe    c23 3183   0.915   5.502   0.474  0.0060  0.3203 -0.3639
  266poe    c23 3184   0.897   5.498   0.321 -0.1057 -0.1743 -0.3404
  266poe     o2 3185   0.822   5.606   0.272 -0.6011  0.1512  1.0961
  266poe    c23 3186   0.682   5.586   0.281 -0.6210 -0.3586 -0.2237
  266poe    c23 3187   0.627   5.723   0.323 -0.4477 -0.3726  0.0492
  266poe     o2 3188   0.697   5.769   0.436 -0.4751 -0.2147  0.0014
  266poe    c23 3189   0.659   5.899   0.475  0.8543  0.1086  0.2869
  266poe    c23 3190   0.785   5.969   0.529  0.6183  1.0006 -0.2965
  266poe     o2 3191   0.898   5.951   0.446 -0.0349 -0.0181 -0.9890
  266poe    c31 3192   0.981   6.064   0.459  0.3510 -0.3840 -0.1586
  267poe    c31 3193   1.574   5.421   2.246  0.0092 -0.2576 -0.4538
  267poe     o2 3194   1.437   5.402   2.220 -0.1410  0.0593  0.0851
  267poe    c23 3195   1.372   5.366   2.339  0.3236 -0.2731  0.2425
  267poe    c23 3196   1.255   5.279   2.292  0.1391 -0.0113  0.2121
  267poe     o2 3197   1.201   5.339   2.176  0.6486 -0.3006 -0.1779
  267poe    c23 3198   1.078   5.284   2.135  0.5036 -0.2710  0.2163
  267poe    c23 3199   1.029   5.392   2.036  0.1177 -0.0812  0.6086
  267poe     o2 3200   1.138   5.449   1.967 -0.0998  0.3258  0.5997
  267poe    c23 3201   1.140   5.590   1.956  0.0089  0.2808  0.0144
  267poe    c23 3202   1.265   5.640   1.882 -0.0158  0.5590  0.1599
  267poe     o2 3203   1.363   5.572   1.957 -0.1281  0.0195 -0.1814
  267poe    c31 3204   1.487   5.592   1.892  0.4850 -0.5993  0.7741
  268poe    c31 3205   0.988   6.037   3.548 -0.9490  0.0701 -0.0161
  268poe     o2 3206   1.042   5.907   3.544 -0.2632  0.3713 -0.7207
  268poe    c23 3207   0.955   5.831   3.464 -0.4318  0.0228 -0.2047
  268poe    c23 3208   1.010   5.687   3.473 -0.3094  0.0109 -1.0592
  268poe     o2 3209   1.029   5.647   3.607 -0.0878  0.0929 -1.0662
  268poe    c23 3210   1.102   5.528   3.626 -0.3600  0.1413  0.3716
  268poe    c23 3211   1.168   5.548   3.764 -0.4508  0.5052  0.3644
  268poe     o2 3212   1.221   5.678   3.754 -0.3529  0.4192 -0.3167
  268poe    c23 3213   1.270   5.705   3.884 -0.0098 -0.3896 -0.2738
  268poe    c23 3214   1.334   5.844   3.867 -0.2037 -0.2787 -0.1058
  268poe     o2 3215   1.238   5.905   3.783 -0.2679 -0.0383  0.1432
  268poe    c31 3216   1.265   6.043   3.778 -0.2912 -0.0553 -0.4397
  269poe    c31 3217   1.840   0.765   6.295 -0.6113  0.1805 -0.5385
  269poe     o2 3218   1.968   0.794   6.346 -0.7196 -0.4986  0.1502
  269poe    c23 3219   2.009   0.720   6.459  0.6116 -0.0356 -0.0113
  269poe    c23 3220   2.152   0.765   6.492  0.4690  0.1414  0.3692
  269poe     o2 3221   2.159   0.905   6.490  0.6159  0.1370  0.4851
  269poe    c23 3222   2.290   0.954   6.508  0.8320 -0.2050 -0.1511
  269poe    c23 3223   2.271   1.101   6.468 -0.2335 -0.3145 -0.0727
  269poe     o2 3224   2.216   1.101   6.338  0.4520 -0.2973 -0.3647
  269poe    c23 3225   2.161   1.224   6.295  0.2714 -0.0263  0.6212
  269poe    c23 3226   2.067   1.180   6.182  0.4274  0.4316  0.3147
  269poe     o2 3227   1.987   1.068   6.213  0.5116  0.2416 -0.1327
  269poe    c31 3228   1.886   1.057   6.116  0.5692  0.7147 -0.2524
  270poe    c31 3229   5.561   4.338   4.845 -0.3214  0.0953 -0.2495
  270poe     o2 3230   5.574   4.273   4.720  0.2535 -0.1342 -0.0772
  270poe    c23 3231   5.444   4.274   4.664  0.1663  0.4957  0.1194
  270poe    c23 3232   5.461   4.236   4.515  0.1950 -0.4269  0.3480
  270poe     o2 3233   5.566   4.143   4.502  0.0006 -0.5477 -0.3821
  270poe    c23 3234   5.609   4.152   4.368  0.2046 -0.1304 -0.2888
  270poe    c23 3235   5.726   4.052   4.360  0.3406  0.0368 -0.4016
  270poe     o2 3236   5.807   4.069   4.475  0.2157  0.3313 -0.3556
  270poe    c23 3237   5.917   3.981   4.467 -0.1993 -0.1852 -0.4638
  270poe    c23 3238   6.024   4.034   4.564 -0.2714 -0.6248 -0.1436
  270poe     o2 3239   6.017   3.986   4.697 -0.0935 -0.3729 -0.0427
  270poe    c31 3240   6.151   3.982   4.741 -0.3083 -0.5107  0.5950
  271poe    c31 3241   5.454   6.169   3.280 -0.0771  0.6717 -0.1760
  271poe     o2 3242   5.573   6.242   3.257  0.5329 -0.3079 -0.1654
  271poe    c23 3243   5.554   6.350   3.169  0.0438  0.1313  0.4723
  271poe    c23 3244   5.685   6.429   3.170  0.1417 -0.0272  0.3522
  271poe     o2 3245   5.796   6.347   3.200  0.1245  0.1032  0.7842
  271poe    c23 3246   5.908   6.426   3.165 -0.2028  0.0906 -0.3151
  271poe    c23 3247   6.041   6.350   3.149 -0.1380  0.0726  0.3075
  271poe     o2 3248   6.056   6.251   3.050 -0.4730  0.4201 -0.0958
  271poe    c23 3249   6.016   6.123   3.096  0.5164 -0.0667 -0.5574
  271poe    c23 3250   5.882   6.060   3.053  0.2951 -0.2503  0.3779
  271poe     o2 3251   5.801   6.070   3.168  0.6873  0.1926  0.6201
  271poe    c31 3252   5.768   5.946   3.226 -0.0537  0.3698  0.5921
  272poe    c31 3253   4.820   6.508   4.543  0.6422  0.8009 -0.1502
  272poe     o2 3254   4.810   6.574   4.419  0.3110 -0.1370 -0.6305
  272poe    c23 3255   4.888   6.691   4.422 -0.0651  0.0968  0.5164
  272poe    c23 3256   4.863   6.753   4.283 -0.3557 -0.2779  0.3993
  272poe     o2 3257   4.748   6.700   4.221 -0.0355  0.0588 -0.4939
  272poe    c23 3258   4.721   6.757   4.095 -0.0949  0.7237 -0.1826
  272poe    c23 3259   4.618   6.666   4.026 -0.0460  0.0696  0.5959
  272poe     o2 3260   4.638   6.535   4.073 -0.1084  0.0805  0.6521
  272poe    c23 3261   4.562   6.424   4.030  0.2867 -0.1008  0.4103
  272poe    c23 3262   4.647   6.312   4.094  1.1491  0.3416  0.0534
  272poe     o2 3263   4.685   6.350   4.224  0.7059  0.6300  0.1027
  272poe    c31 3264   4.799   6.276   4.262 -0.0914 -0.4919  0.3219
  273poe    c31 3265   5.089   4.028   3.102 -0.2791  0.5766  0.2907
  273poe     o2 3266   5.021   4.052   2.982 -0.2653 -0.4089  0.0753
  273poe    c23 3267   4.998   3.924   2.929  0.0043 -0.4877  0.1492
  273poe    c23 3268   4.896   3.824   2.987  0.0891 -0.6935 -0.0561
  273poe     o2 3269   4.951   3.764   3.102 -0.0381  0.0001  0.3725
  273poe    c23 3270   5.004   3.635   3.079 -0.1059 -0.0392  0.4344
  273poe    c23 3271   5.076   3.565   3.195 -0.1845  0.2869  0.6805
  273poe     o2 3272   5.010   3.532   3.315  0.0013 -0.1361  0.6687
  273poe    c23 3273   5.093   3.469   3.410  0.2801 -0.3745  0.2702
  273poe    c23 3274   5.020   3.460   3.546  0.1612 -1.4410  0.1519
  273poe     o2 3275   4.896   3.412   3.501 -0.4240  0.0360  0.1201
  273poe    c31 3276   4.826   3.366   3.615  0.0198  0.1310  0.4336
  274poe    c31 3277   5.436   6.150   3.666 -0.5214  0.6938 -0.7262
  274poe     o2 3278   5.298   6.129   3.683 -0.2393 -0.4288  0.2666
  274poe    c23 3279   5.213   6.183   3.585 -0.0475  0.9421  0.8361
  274poe    c23 3280   5.081   6.104   3.593  0.6448 -0.3269  0.1013
  274poe     o2 3281   5.051   6.112   3.731  0.5895 -0.3833  0.0922
  274poe    c23 3282   4.943   6.033   3.776  0.3311 -0.1796 -0.1578
  274poe    c23 3283   4.955   6.019   3.929  0.5990  0.6456 -0.1018
  274poe     o2 3284   5.091   5.993   3.953  0.3304 -0.7129 -0.0075
  274poe    c23 3285   5.122   5.988   4.091  0.3580  0.0724  0.0189
  274poe    c23 3286   5.276   5.997   4.087  0.3363  0.3606 -0.1566
  274poe     o2 3287   5.333   6.021   3.960 -0.1084  0.1788 -0.3963
  274poe    c31 3288   5.473   6.005   3.962 -0.1916 -0.6329 -0.7462
  275poe    c31 3289   4.704   6.475   1.184  0.2266  0.2021  0.5847
  275poe     o2 3290   4.769   6.397   1.281 -0.1848 -0.4050  0.3755
  275poe    c23 3291   4.896   6.360   1.231 -0.0814  0.1374  0.2327
  275poe    c23 3292   4.986   6.331   1.353 -0.1608  0.5605  0.3943
  275poe     o2 3293   4.919   6.234   1.431 -0.1573  0.1708 -0.0859
  275poe    c23 3294   4.971   6.245   1.561  0.1891 -0.2500 -0.1849
  275poe    c23 3295   4.853   6.197   1.647  0.1708 -0.7004 -0.4563
  275poe     o2 3296   4.739   6.259   1.590  0.2500 -0.0246  0.1010
  275poe    c23 3297   4.629   6.190   1.645 -0.1815  0.2052 -0.4727
  275poe    c23 3298   4.505   6.270   1.600 -0.6403 -0.2088  0.0554
  275poe     o2 3299   4.519   6.315   1.467 -0.2504 -0.4614  0.0085
  275poe    c31 3300   4.395   6.346   1.407 -0.1180 -0.2797 -0.1699
  276poe    c31 3301   6.487   6.417   4.491  0.0342 -0.2144  0.6841
  276poe     o2 3302   6.399   6.502   4.560 -0.3638  0.2119 -0.3278
  276poe    c23 3303   6.432   6.633   4.518  0.0577  0.1581 -0.1686
  276poe    c23 3304   6.351   6.739   4.595 -0.1740 -0.2764  0.1880
  276poe     o2 3305   6.384   6.692   4.724  0.3236 -0.4922 -0.0160
  276poe    c23 3306   6.356   6.777   4.833 -0.1380 -0.3228 -0.2651
  276poe    c23 3307   6.419   6.703   4.953 -0.1814 -0.1506 -0.1357
  276poe     o2 3308   6.365   6.573   4.943  0.2907 -0.3357 -0.3302
  276poe    c23 3309   6.425   6.474   5.025  0.4924 -0.0296 -0.1028
  276poe    c23 3310   6.363   6.345   4.968  0.1500  0.2004 -0.2536
  276poe     o2 3311   6.365   6.354   4.827 -0.5775  0.3690 -0.2583
  276poe    c31 3312   6.393   6.229   4.769 -0.1254  0.1600  0.4023
  277poe    c31 3313   6.650   3.811   1.935  0.0391 -0.0662 -0.4066
  277poe     o2 3314   6.566   3.905   1.873 -0.1704  0.0223  0.0086
  277poe    c23 3315   6.605   3.924   1.739 -0.0197 -0.4254 -0.0128
  277poe    c23 3316   6.480   3.971   1.662 -0.3606 -0.6395  0.4047
  277poe     o2 3317   6.431   4.078   1.740  0.2232 -0.2181  0.2048
  277poe    c23 3318   6.301   4.114   1.699  0.3574 -0.0147 -0.0415
  277poe    c23 3319   6.247   4.198   1.817  0.0906 -0.2897  0.0323
  277poe     o2 3320   6.275   4.116   1.929  0.4195 -0.0933  0.0971
  277poe    c23 3321   6.166   4.060   1.999 -0.1244  0.3995 -0.3381
  277poe    c23 3322   6.229   4.009   2.130 -0.3735 -0.4441 -0.5419
  277poe     o2 3323   6.347   3.942   2.091 -0.2824 -0.6214  0.0254
  277poe    c31 3324   6.398   3.882   2.208  0.5822 -0.4759 -0.2707
  278poe    c31 3325   4.954   5.567   5.940  0.0547 -0.0419 -0.0242
  278poe     o2 3326   4.819   5.608   5.949  0.2735  0.6449  0.1954
  278poe    c23 3327   4.760   5.559   6.067 -0.7956  1.0868 -0.1430
  278poe    c23 3328   4.611   5.596   6.066 -1.0465  0.1248  0.1713
  278poe     o2 3329   4.593   5.733   6.035  0.0563  0.0729 -0.7596
  278poe    c23 3330   4.459   5.748   5.996 -0.3903  0.3487  0.8211
  278poe    c23 3331   4.464   5.868   5.900 -0.4914  0.3900  0.8654
  278poe     o2 3332   4.590   5.859   5.836 -0.6076  0.5935  0.6048
  278poe    c23 3333   4.615   5.956   5.737  0.0569 -0.4528 -0.2696
  278poe    c23 3334   4.753   5.928   5.674  0.0990 -0.0786 -0.3491
  278poe     o2 3335   4.827   5.839   5.754  0.3229  0.1112 -0.3455
  278poe    c31 3336   4.957   5.813   5.707  0.2318 -0.8317 -0.1100
  279poe    c31 3337   0.968   4.116   5.873 -0.1888  0.0985 -0.4559
  279poe     o2 3338   0.889   4.101   5.989  0.2862  0.3738 -0.0938
  279poe    c23 3339   0.758   4.123   5.944  0.1833  0.7491  0.3800
  279poe    c23 3340   0.641   4.090   6.040 -0.9009 -0.0556 -1.1716
  279poe     o2 3341   0.684   3.961   6.078  0.2714  0.7410  0.3120
  279poe    c23 3342   0.629   3.909   6.197 -0.4783 -0.1646 -0.4175
  279poe    c23 3343   0.724   3.798   6.245 -0.4725 -0.1845 -0.4751
  279poe     o2 3344   0.841   3.876   6.261 -0.4221 -0.3816  0.1307
  279poe    c23 3345   0.955   3.794   6.262  0.2366  0.5274  0.4862
  279poe    c23 3346   1.074   3.891   6.276  0.5970  0.0154  0.9956
  279poe     o2 3347   1.064   3.994   6.181 -0.0752 -0.4674  0.5386
  279poe    c31 3348   1.171   4.084   6.195 -0.1205 -0.2718 -0.2847
  280poe    c31 3349   4.047   3.808   1.853  0.0702  0.2112 -0.5133
  280poe     o2 3350   4.084   3.747   1.732  0.1689  0.4170 -0.5867
  280poe    c23 3351   4.164   3.632   1.745  0.1239  0.4691  0.1963
  280poe    c23 3352   4.207   3.600   1.600  0.5813  0.8214  0.2490
  280poe     o2 3353   4.095   3.645   1.527  0.1975 -0.1940  0.2014
  280poe    c23 3354   4.121   3.656   1.389  0.0175 -0.7483  0.1160
  280poe    c23 3355   3.989   3.682   1.315 -0.1243 -0.0112  0.6125
  280poe     o2 3356   3.903   3.745   1.407 -0.4696  0.1958  0.1490
  280poe    c23 3357   3.781   3.673   1.412 -0.6318  0.4634  0.0812
  280poe    c23 3358   3.708   3.711   1.542  0.1219  0.1393  0.6067
  280poe     o2 3359   3.803   3.693   1.644  0.4210  0.1745  0.3377
  280poe    c31 3360   3.726   3.699   1.762  0.0127  0.2246  0.0689
  281poe    c31 3361   4.921   3.949   5.199  0.0093  0.4390 -0.2004
  281poe     o2 3362   4.877   3.927   5.066 -0.1842  0.2335 -0.1026
  281poe    c23 3363   4.980   3.945   4.972 -0.0310  0.3492  0.0853
  281poe    c23 3364   4.950   3.847   4.856  0.0973  0.2006  0.1767
  281poe     o2 3365   4.813   3.863   4.825  0.0365  0.0793  0.3819
  281poe    c23 3366   4.760   3.752   4.757  0.2973  0.3066 -0.2022
  281poe    c23 3367   4.608   3.769   4.741  0.2855  0.1625 -0.2503
  281poe     o2 3368   4.558   3.812   4.866  0.5048  0.1524 -0.1587
  281poe    c23 3369   4.462   3.913   4.846 -0.1760 -0.5244 -0.4033
  281poe    c23 3370   4.443   3.963   4.991  0.5961  0.3841 -0.6033
  281poe     o2 3371   4.562   3.960   5.065  0.1304  0.0046  0.1350
  281poe    c31 3372   4.555   4.023   5.192  0.0286 -0.1736  0.2184
  282poe    c31 3373   1.809   2.692   5.032 -0.7003  0.2214 -0.0580
  282poe     o2 3374   1.919   2.762   5.085 -0.4834 -0.1980  0.0486
  282poe    c23 3375   1.891   2.898   5.107 -0.5858 -0.2008 -0.0619
  282poe    c23 3376   1.964   2.953   5.231 -0.1568 -0.1394 -0.3402
  282poe     o2 3377   2.083   2.878   5.224 -0.0432 -0.0079  0.1477
  282poe    c23 3378   2.172   2.900   5.331 -0.0140  0.0883  0.1034
  282poe    c23 3379   2.295   2.816   5.292 -0.1429  0.2946 -0.7695
  282poe     o2 3380   2.243   2.696   5.240  0.1080  0.0077 -0.3614
  282poe    c23 3381   2.329   2.599   5.185 -0.2240  0.0621 -0.9795
  282poe    c23 3382   2.227   2.498   5.129 -0.2135 -0.5579  0.0869
  282poe     o2 3383   2.135   2.570   5.050 -0.0258 -0.6407 -0.2080
  282poe    c31 3384   2.144   2.547   4.911  0.2549 -0.3129 -0.2464
  283poe    c31 3385   0.641   1.893   6.412 -0.4653  0.2479 -0.3642
  283poe     o2 3386   0.738   1.949   6.326  0.0944  0.2502  0.2569
  283poe    c23 3387   0.698   1.908   6.197  0.1815 -0.7055  0.5252
  283poe    c23 3388   0.833   1.874   6.132  0.2907 -0.0944  0.4271
  283poe     o2 3389   0.902   1.996   6.147 -0.2081  0.2331  0.1087
  283poe    c23 3390   1.030   1.995   6.087 -0.2308  0.4518  0.0567
  283poe    c23 3391   1.088   2.129   6.135 -0.1479  0.3725  0.1795
  283poe     o2 3392   1.047   2.141   6.269 -0.7261  0.1472  0.0224
  283poe    c23 3393   1.057   2.274   6.312  0.1935  0.0319  0.1819
  283poe    c23 3394   1.012   2.281   6.460 -0.1479  0.2873  0.0684
  283poe     o2 3395   0.912   2.182   6.473  0.0691 -0.0587 -0.7735
  283poe    c31 3396   0.848   2.172   6.598 -0.1047  0.2075 -0.8408
  284poe    c31 3397   5.420   0.027   2.955  0.2534  0.5847 -0.1179
  284poe     o2 3398   5.498   0.008   2.839 -0.6500  0.2300 -0.6756
  284poe    c23 3399   5.448  -0.110   2.779 -0.7574  0.0184 -0.1752
  284poe    c23 3400   5.566  -0.166   2.697  0.1379  0.7087  0.6180
  284poe     o2 3401   5.638  -0.059   2.641 -0.0715  0.5389  0.0214
  284poe    c23 3402   5.764  -0.102   2.593 -0.2506  0.1741 -0.1239
  284poe    c23 3403   5.818   0.030   2.535  0.1668  0.1612  0.2370
  284poe     o2 3404   5.761   0.134   2.611  0.3257  0.2155  0.2834
  284poe    c23 3405   5.759   0.257   2.543 -0.0252 -0.0628 -0.2181
  284poe    c23 3406   5.698   0.348   2.652 -0.5206 -0.4558 -0.1606
  284poe     o2 3407   5.583   0.287   2.706 -0.2724 -0.4591  0.3720
  284poe    c31 3408   5.540   0.353   2.823  0.3074 -0.1382  0.4067
  285poe    c31 3409   4.941   5.955   2.860  0.6333 -0.0605  0.3097
  285poe     o2 3410   4.885   5.951   2.990 -0.0847 -0.4601 -0.0097
  285poe    c23 3411   4.981   5.918   3.087 -0.2972  0.3509  0.4783
  285poe    c23 3412   4.912   5.886   3.220  0.0746 -0.4777  0.4741
  285poe     o2 3413   4.804   5.976   3.228  0.1560 -0.3503  0.1536
  285poe    c23 3414   4.712   5.946   3.331  0.0438 -0.2804  0.0729
  285poe    c23 3415   4.599   6.051   3.328  0.0380 -0.2918 -0.0764
  285poe     o2 3416   4.558   6.032   3.194 -0.6118  0.3492  0.0238
  285poe    c23 3417   4.488   6.146   3.150  0.0017  0.4952 -0.5948
  285poe    c23 3418   4.484   6.122   2.998  0.0527  0.2861 -0.5634
  285poe     o2 3419   4.616   6.105   2.952  0.2522  0.0936  0.0709
  285poe    c31 3420   4.620   6.169   2.826 -0.5100 -0.0458 -0.0279
  286poe    c31 3421   4.745   3.714   3.697  0.0226 -0.2722 -0.1697
  286poe     o2 3422   4.759   3.766   3.566 -0.2253 -0.1677 -0.1544
  286poe    c23 3423   4.638   3.757   3.494  0.3312 -0.1793 -1.1028
  286poe    c23 3424   4.643   3.709   3.348  0.4332  0.0203 -1.1645
  286poe     o2 3425   4.672   3.573   3.331 -0.3116 -0.2363 -0.4698
  286poe    c23 3426   4.626   3.531   3.204  0.4009 -0.4871 -0.6520
  286poe    c23 3427   4.639   3.378   3.191 -0.0557 -0.5473 -0.4152
  286poe     o2 3428   4.766   3.333   3.230  0.0763  0.0080 -0.1946
  286poe    c23 3429   4.771   3.194   3.208 -0.5531 -0.1307  0.5272
  286poe    c23 3430   4.915   3.146   3.235 -0.3818  0.0574 -0.0524
  286poe     o2 3431   4.995   3.207   3.136  0.4949 -0.3471  0.3996
  286poe    c31 3432   5.130   3.177   3.165  0.5544 -0.2811  0.1894
  287poe    c31 3433   3.588   6.522   1.520 -0.1104 -0.3679 -0.2741
  287poe     o2 3434   3.550   6.510   1.656  0.0858  0.2204 -0.1672
  287poe    c23 3435   3.428   6.440   1.662  0.6320 -0.6708  0.7946
  287poe    c23 3436   3.333   6.469   1.780  0.0762 -0.1368  0.2203
  287poe     o2 3437   3.418   6.525   1.877 -0.0965  0.3555  0.0931
  287poe    c23 3438   3.363   6.567   2.000  0.1125 -0.2926  0.4150
  287poe    c23 3439   3.482   6.614   2.085  0.3892  0.1611 -0.2130
  287poe     o2 3440   3.554   6.710   2.011  0.4284 -0.3347 -0.8274
  287poe    c23 3441   3.685   6.742   2.053  0.0443 -0.0596  0.1955
  287poe    c23 3442   3.760   6.795   1.929  0.3785 -0.5821  0.1703
  287poe     o2 3443   3.751   6.709   1.818  0.0013 -0.1830 -0.1089
  287poe    c31 3444   3.818   6.744   1.699 -0.1237  0.0558 -0.1105
  288poe    c31 3445   1.318   4.710   4.906  0.5002  0.7371  0.0275
  288poe     o2 3446   1.348   4.713   4.768 -0.1464 -0.0470 -0.1392
  288poe    c23 3447   1.223   4.697   4.705 -0.2376 -0.2672  0.0944
  288poe    c23 3448   1.254   4.691   4.554  0.0083 -0.0576  0.1362
  288poe     o2 3449   1.365   4.604   4.541 -0.1802 -0.2978  0.1357
  288poe    c23 3450   1.406   4.574   4.410 -0.0105 -0.3429  0.1985
  288poe    c23 3451   1.532   4.488   4.434 -0.0301 -0.2365  0.6934
  288poe     o2 3452   1.611   4.536   4.540 -0.0292  0.8665  0.2062
  288poe    c23 3453   1.724   4.457   4.571 -0.3607  0.1249 -0.4438
  288poe    c23 3454   1.740   4.482   4.722  0.1383 -0.6145 -0.3748
  288poe     o2 3455   1.618   4.525   4.777  0.3507 -0.1908 -0.2276
  288poe    c31 3456   1.609   4.520   4.917  0.1068  0.2567 -0.2261
  289poe    c31 3457   1.811   2.615   6.759 -0.6836  0.7269 -0.2719
  289poe     o2 3458   1.732   2.506   6.718  0.0740 -0.0397  0.2618
  289poe    c23 3459   1.699   2.433   6.835 -0.9734  0.0469  0.0304
  289poe    c23 3460   1.563   2.361   6.823 -0.5662 -0.7595  0.2267
  289poe     o2 3461   1.593   2.268   6.721  0.7466  0.1562 -0.2416
  289poe    c23 3462   1.474   2.207   6.676  0.5808  0.1145  0.2502
  289poe    c23 3463   1.478   2.222   6.523 -0.1184 -0.3791  0.1846
  289poe     o2 3464   1.502   2.354   6.479  0.3012 -0.5020  0.0398
  289poe    c23 3465   1.475   2.382   6.344 -0.1123  0.7335  0.3628
  289poe    c23 3466   1.545   2.514   6.307  0.3772  0.3108 -0.2512
  289poe     o2 3467   1.666   2.534   6.377  0.2624 -0.6552  0.2500
  289poe    c31 3468   1.721   2.658   6.338  0.0691 -0.3985  0.7943
  290poe    c31 3469   5.155   1.832   0.863 -0.5591  0.2051 -0.1849
  290poe     o2 3470   5.036   1.797   0.929 -0.2455 -0.8742 -0.1618
  290poe    c23 3471   4.938   1.749   0.839 -0.1267  0.1409 -0.8510
  290poe    c23 3472   4.805   1.746   0.916  0.3687 -0.5219  0.0052
  290poe     o2 3473   4.783   1.864   0.991 -0.1968 -0.3270 -0.4549
  290poe    c23 3474   4.686   1.860   1.093  0.1499  0.0036 -0.1052
  290poe    c23 3475   4.730   1.793   1.224 -0.1945 -0.1041 -0.0425
  290poe     o2 3476   4.868   1.819   1.232 -0.2936  0.2879  0.4937
  290poe    c23 3477   4.938   1.736   1.322 -0.2203  0.0079  0.1803
  290poe    c23 3478   5.075   1.805   1.336 -0.1649 -0.1149  0.2560
  290poe     o2 3479   5.119   1.817   1.202 -0.4651  0.6480  0.2179
  290poe    c31 3480   5.259   1.831   1.212 -0.3660 -0.2018  0.0683
  291poe    c31 3481   3.569   2.972   3.501 -0.3057 -0.1807 -0.0807
  291poe     o2 3482   3.678   2.934   3.582  0.0805  0.0071 -0.5071
  291poe    c23 3483   3.692   3.026   3.688  0.0132  0.5188 -0.9369
  291poe    c23 3484   3.796   2.977   3.790 -0.3663  0.7263 -0.4400
  291poe     o2 3485   3.881   2.907   3.700 -0.1019  0.4771 -0.0001
  291poe    c23 3486   4.012   2.894   3.749 -0.0703  0.3679 -0.1161
  291poe    c23 3487   4.104   2.871   3.627  0.1525  0.7463 -0.0208
  291poe     o2 3488   4.023   2.807   3.531  0.3690 -0.0393  0.3119
  291poe    c23 3489   4.082   2.830   3.405  0.3506 -0.5458  0.2078
  291poe    c23 3490   3.970   2.776   3.314  0.1121 -0.6381  0.5551
  291poe     o2 3491   3.849   2.831   3.361  0.0643  0.1770 -0.5082
  291poe    c31 3492   3.749   2.782   3.275  0.1802 -0.2380 -0.4110
  292poe    c31 3493   4.418   0.059   0.485 -0.2080  0.5070  0.0401
  292poe     o2 3494   4.511   0.014   0.580 -0.1576  0.6957  0.0794
  292poe    c23 3495   4.452  -0.022   0.703  0.1668 -0.1636 -0.0139
  292poe    c23 3496   4.557  -0.043   0.813  0.0220 -0.5052  0.0613
  292poe     o2 3497   4.642  -0.135   0.748  0.1778 -0.9632  0.8973
  292poe    c23 3498   4.769  -0.123   0.808  0.4400  0.0285  0.1703
  292poe    c23 3499   4.861  -0.209   0.718  0.9114  0.3404  0.3523
  292poe     o2 3500   4.839  -0.147   0.593  0.6406 -0.2320  0.1147
  292poe    c23 3501   4.880  -0.217   0.478  0.2390 -0.2350 -0.0296
  292poe    c23 3502   4.826  -0.129   0.364  0.4622  0.3086  0.2775
  292poe     o2 3503   4.690  -0.099   0.386  0.1847 -0.6579 -0.0669
  292poe    c31 3504   4.634  -0.069   0.261  0.6117  0.0703 -0.0890
  293poe    c31 3505   1.551   2.735   0.923  0.2778 -0.1064  0.2434
  293poe     o2 3506   1.469   2.759   1.035  0.2024  0.0733  0.1498
  293poe    c23 3507   1.347   2.694   1.008  0.0614  0.4137 -0.0447
  293poe    c23 3508   1.233   2.713   1.110  0.2409  1.2418  0.0094
  293poe     o2 3509   1.281   2.679   1.238  0.4749  0.3105 -0.3102
  293poe    c23 3510   1.231   2.754   1.347 -0.1012 -0.0088 -0.3515
  293poe    c23 3511   1.344   2.825   1.424  0.0367 -0.7697  0.1551
  293poe     o2 3512   1.453   2.865   1.344 -0.4554  0.2840  0.0077
  293poe    c23 3513   1.498   2.991   1.390  0.3504  0.0290 -0.0747
  293poe    c23 3514   1.530   3.059   1.256 -0.3480 -0.0883 -0.3025
  293poe     o2 3515   1.606   2.964   1.185 -0.3524  0.1578 -0.6383
  293poe    c31 3516   1.714   3.022   1.116 -0.0342 -0.0742 -0.3379
  294poe    c31 3517   0.688   0.745   2.447 -0.2523 -0.2226  0.0240
  294poe     o2 3518   0.657   0.794   2.318 -0.2201 -0.0873  0.0669
  294poe    c23 3519   0.756   0.876   2.261 -0.5106  0.1121 -0.1511
  294poe    c23 3520   0.698   0.932   2.130  0.4680  0.6532 -0.3612
  294poe     o2 3521   0.568   0.969   2.170  0.2238 -0.1962 -0.3607
  294poe    c23 3522   0.517   1.064   2.080  0.0946  0.3304  0.2575
  294poe    c23 3523   0.371   1.083   2.124 -0.0185  0.5910 -0.2155
  294poe     o2 3524   0.329   0.950   2.146  0.3922  0.5601  0.4289
  294poe    c23 3525   0.208   0.936   2.216  0.2765 -0.3141  0.0744
  294poe    c23 3526   0.177   0.795   2.269 -0.6553  0.1042  0.6727
  294poe     o2 3527   0.288   0.771   2.354  0.3128  0.3364 -0.5024
  294poe    c31 3528   0.257   0.656   2.429 -0.4898  0.3468 -0.7973
  295poe    c31 3529   3.731   2.991   2.155 -0.5078 -0.0647 -0.4755
  295poe     o2 3530   3.686   2.890   2.243  0.2764  0.1155  0.1483
  295poe    c23 3531   3.666   2.963   2.362 -1.1118  0.4326 -0.2571
  295poe    c23 3532   3.570   2.898   2.465 -0.5486 -0.5584 -0.3407
  295poe     o2 3533   3.648   2.838   2.566 -0.2230  0.3095 -0.0608
  295poe    c23 3534   3.585   2.734   2.638  0.3857 -0.0993 -0.1059
  295poe    c23 3535   3.661   2.723   2.772 -0.1096 -0.2815  0.1621
  295poe     o2 3536   3.801   2.717   2.756 -0.1011 -0.0563  0.1517
  295poe    c23 3537   3.889   2.746   2.862  0.0329 -0.2813  0.1027
  295poe    c23 3538   4.029   2.693   2.825  0.1616 -0.0043  0.1885
  295poe     o2 3539   4.039   2.720   2.687 -0.1622 -0.2532  0.1148
  295poe    c31 3540   4.158   2.677   2.625  0.0076 -0.1264  0.3517
  296poe    c31 3541   4.131   1.245   3.914  0.1658  0.2039 -0.1556
  296poe     o2 3542   4.182   1.131   3.978  0.5038  0.0893 -0.6215
  296poe    c23 3543   4.188   1.029   3.881 -0.2207 -0.4913 -0.0682
  296poe    c23 3544   4.231   0.895   3.944 -0.7433 -0.1933  0.9429
  296poe     o2 3545   4.256   0.921   4.080 -0.0057  0.4555  0.6906
  296poe    c23 3546   4.258   0.806   4.162 -0.9064 -0.2304 -0.2159
  296poe    c23 3547   4.143   0.827   4.262 -0.2987  0.2384  0.4003
  296poe     o2 3548   4.157   0.959   4.309 -0.2735  0.3221  0.1574
  296poe    c23 3549   4.047   1.005   4.384 -0.3034  0.2590  0.1518
  296poe    c23 3550   4.066   1.158   4.392 -0.2408  0.2890 -0.5160
  296poe     o2 3551   4.061   1.203   4.259  0.4043 -0.0197 -0.6506
  296poe    c31 3552   4.011   1.334   4.265  0.3957 -0.0584  0.1314
  297poe    c31 3553   4.818   0.515   5.276 -1.1384  0.3556 -0.1862
  297poe     o2 3554   4.774   0.481   5.406 -0.4189 -0.4885 -0.1460
  297poe    c23 3555   4.879   0.425   5.480  0.2921  1.0108  0.0154
  297poe    c23 3556   4.841   0.432   5.629  0.0765 -0.1476  0.0239
  297poe     o2 3557   4.701   0.412   5.627  0.0509  0.0143  0.1801
  297poe    c23 3558   4.638   0.405   5.753 -0.0595 -0.5236  0.0972
  297poe    c23 3559   4.487   0.417   5.727 -0.0508 -0.9000 -0.1263
  297poe     o2 3560   4.490   0.518   5.629  0.5258  0.1204  0.9244
  297poe    c23 3561   4.360   0.542   5.582  0.5169  0.1006  0.9396
  297poe    c23 3562   4.379   0.652   5.476  0.1025 -0.0701  0.6846
  297poe     o2 3563   4.497   0.615   5.408 -0.4799 -0.0702 -0.3426
  297poe    c31 3564   4.541   0.724   5.330  0.1537  0.1231  0.2795
  298poe    c31 3565   5.729   4.069   3.334 -0.1504  0.6516 -0.3245
  298poe     o2 3566   5.818   3.969   3.289  0.5456  0.7011  0.8997
  298poe    c23 3567   5.871   4.002   3.162 -0.3915 -0.1073  0.2800
  298poe    c23 3568   5.923   3.879   3.086 -0.9636 -0.0037 -0.2812
  298poe     o2 3569   5.940   3.784   3.189 -0.1690  0.6956  0.2433
  298poe    c23 3570   5.991   3.660   3.145 -0.0662  0.5211  0.8532
  298poe    c23 3571   6.019   3.563   3.261  0.5130 -0.3921 -0.0368
  298poe     o2 3572   5.898   3.559   3.334  0.3278  0.3312 -0.2979
  298poe    c23 3573   5.938   3.551   3.469 -0.0717  0.6864 -0.1559
  298poe    c23 3574   5.843   3.638   3.553  0.0760  0.2021  0.5284
  298poe     o2 3575   5.853   3.768   3.498 -0.2881  0.0667  0.1316
  298poe    c31 3576   5.806   3.858   3.596  0.1636  0.9791 -0.4793
  299poe    c31 3577   5.327   4.636   2.005  0.3096  0.5541 -0.5748
  299poe     o2 3578   5.252   4.674   2.118  0.1404 -0.5793 -0.2973
  299poe    c23 3579   5.158   4.774   2.087  0.4156 -0.1591  0.2255
  299poe    c23 3580   5.041   4.792   2.186  0.0666  0.6562 -0.3193
  299poe     o2 3581   5.095   4.760   2.312 -0.5171 -0.0720 -0.2502
  299poe    c23 3582   5.010   4.735   2.422 -0.1746 -1.5790 -0.3058
  299poe    c23 3583   5.104   4.717   2.543 -0.3609 -0.4139  0.0205
  299poe     o2 3584   5.196   4.624   2.492 -0.1099 -0.3640  0.3846
  299poe    c23 3585   5.317   4.613   2.564  0.5766  0.5255 -0.6005
  299poe    c23 3586   5.407   4.522   2.479  0.2959 -0.4148  0.0893
  299poe     o2 3587   5.411   4.571   2.347  0.4423  0.4804  0.4188
  299poe    c31 3588   5.540   4.549   2.296  0.1858  0.1161 -0.0843
  300poe    c31 3589   2.155   2.351   3.898 -0.7664  0.5614 -0.5034
  300poe     o2 3590   2.121   2.311   4.029  0.0383  0.2471 -0.3792
  300poe    c23 3591   1.986   2.267   4.031  0.0730  0.1683  0.5379
  300poe    c23 3592   1.918   2.353   4.139 -0.2801  0.3897  0.1432
  300poe     o2 3593   1.998   2.328   4.252  0.3970  0.8900 -0.2183
  300poe    c23 3594   1.972   2.408   4.366 -0.0483  0.1569  0.1998
  300poe    c23 3595   2.104   2.413   4.445 -0.1807  0.0296  0.4301
  300poe     o2 3596   2.209   2.402   4.351 -0.0891 -0.2481  0.5618
  300poe    c23 3597   2.335   2.418   4.411  0.0592 -0.2118  0.2388
  300poe    c23 3598   2.428   2.395   4.290 -0.2797  0.3130 -0.1265
  300poe     o2 3599   2.389   2.286   4.210  0.0359  0.2412 -0.1858
  300poe    c31 3600   2.476   2.254   4.104  0.0420 -0.1737 -0.0583
  301poe    c31 3601   1.011   4.288   1.403  0.0921 -0.1930 -0.4989
  301poe     o2 3602   1.089   4.402   1.430 -0.0563 -0.2084  0.0005
  301poe    c23 3603   1.140   4.404   1.561 -0.1710  0.1085  0.0428
  301poe    c23 3604   1.208   4.536   1.603 -0.6258  0.3891 -0.0973
  301poe     o2 3605   1.271   4.594   1.492 -0.1349  0.1851  0.0723
  301poe    c23 3606   1.286   4.733   1.509 -0.7329  0.3224 -0.4880
  301poe    c23 3607   1.316   4.774   1.363  0.2494  0.1037 -0.3546
  301poe     o2 3608   1.226   4.700   1.285 -0.2482  0.3019  0.0229
  301poe    c23 3609   1.146   4.786   1.208 -0.1937  0.7509  0.4629
  301poe    c23 3610   1.018   4.710   1.166  0.1994  0.0074  0.5950
  301poe     o2 3611   0.978   4.639   1.281  0.0528  0.0939  0.5982
  301poe    c31 3612   0.856   4.578   1.247  0.2924 -0.1286  0.1198
  302poe    c31 3613   0.910   3.213   5.921 -0.1071 -0.2142 -0.2734
  302poe     o2 3614   0.863   3.101   5.849 -0.3262 -0.6563  0.5433
  302poe    c23 3615   0.959   2.998   5.847  0.0856 -0.2570 -0.6401
  302poe    c23 3616   0.906   2.856   5.821 -0.2459 -0.2645  0.0661
  302poe     o2 3617   0.874   2.815   5.690 -0.9310  0.3897  0.0183
  302poe    c23 3618   0.865   2.674   5.686  0.9707  0.2558 -1.2239
  302poe    c23 3619   0.820   2.629   5.546 -0.2511 -0.6046 -0.5712
  302poe     o2 3620   0.715   2.715   5.508  0.3550  0.3297 -0.1509
  302poe    c23 3621   0.664   2.676   5.383 -0.2067 -0.6662  0.3761
  302poe    c23 3622   0.515   2.713   5.375  0.0058  0.0209 -0.6293
  302poe     o2 3623   0.505   2.852   5.392 -0.0229 -0.0487 -0.0627
  302poe    c31 3624   0.380   2.883   5.451  0.0130 -0.5076  0.2616
  303poe    c31 3625   0.105   1.992   3.988  0.1411  0.1733 -0.3435
  303poe     o2 3626  -0.024   1.980   3.931 -0.0954  0.0691  0.2051
  303poe    c23 3627  -0.087   2.106   3.933 -0.0522  0.1066 -0.5899
  303poe    c23 3628  -0.235   2.081   3.896 -0.1369  0.0584 -0.2229
  303poe     o2 3629  -0.240   1.974   3.805 -0.1261 -0.3978  0.3092
  303poe    c23 3630  -0.355   1.892   3.800 -0.1598 -0.3550  0.3921
  303poe    c23 3631  -0.314   1.757   3.739 -0.0273 -0.2142  0.1699
  303poe     o2 3632  -0.180   1.739   3.779  0.2470 -0.0194 -0.6443
  303poe    c23 3633  -0.122   1.616   3.741  0.5346  0.0605 -0.4654
  303poe    c23 3634   0.009   1.627   3.822  0.2438 -0.2990  0.0607
  303poe     o2 3635   0.061   1.755   3.792  0.1733 -0.1292  0.6583
  303poe    c31 3636   0.200   1.730   3.790  0.1992  0.0675 -0.3197
  304poe    c31 3637   3.922   1.596   1.566 -0.6895  0.1209  0.6065
  304poe     o2 3638   3.842   1.672   1.478 -0.1958  0.5087  0.4843
  304poe    c23 3639   3.795   1.582   1.380  0.7028  0.1269  0.3920
  304poe    c23 3640   3.745   1.654   1.253  0.3830 -0.2262  0.3151
  304poe     o2 3641   3.650   1.749   1.296 -0.2897 -0.4239 -0.7141
  304poe    c23 3642   3.598   1.821   1.186  0.4580  0.5198 -0.4618
  304poe    c23 3643   3.666   1.958   1.208  0.4635  0.4430  0.0105
  304poe     o2 3644   3.794   1.958   1.265  0.3249  0.0054  0.3296
  304poe    c23 3645   3.851   2.081   1.303 -0.0768  0.4268 -0.4181
  304poe    c23 3646   3.967   2.034   1.393 -0.3752  0.5340  0.0310
  304poe     o2 3647   3.933   1.935   1.487 -0.1294  0.2792 -0.1440
  304poe    c31 3648   4.041   1.929   1.578 -0.0301 -0.3199 -0.2974
  305poe    c31 3649   4.361   4.269   5.524  0.3475  0.0248  0.6447
  305poe     o2 3650   4.378   4.394   5.461  0.0257 -0.3027 -0.0955
  305poe    c23 3651   4.274   4.424   5.371  0.2463  0.0997 -0.2205
  305poe    c23 3652   4.237   4.573   5.372 -0.1035  0.0142 -0.2795
  305poe     o2 3653   4.356   4.640   5.338 -0.0017 -0.2610 -0.4671
  305poe    c23 3654   4.355   4.781   5.335  0.4579 -0.2463 -0.1250
  305poe    c23 3655   4.501   4.819   5.363  0.1498  0.6065  0.3569
  305poe     o2 3656   4.540   4.744   5.476  0.4615  0.1431 -0.0508
  305poe    c23 3657   4.676   4.753   5.509  0.4525  0.0603  0.0110
  305poe    c23 3658   4.700   4.610   5.560  0.0951  0.0785  0.2307
  305poe     o2 3659   4.639   4.510   5.482  0.4717  0.0444 -0.0204
  305poe    c31 3660   4.691   4.381   5.507 -0.4726 -0.3248  0.1014
  306poe    c31 3661   0.788   1.758   0.656  0.3740 -0.1002 -0.0262
  306poe     o2 3662   0.799   1.618   0.643 -0.4153 -0.2107  0.4144
  306poe    c23 3663   0.751   1.542   0.751 -0.2100 -0.0117  0.6482
  306poe    c23 3664   0.723   1.398   0.702  0.4576  0.0924 -0.0623
  306poe     o2 3665   0.829   1.372   0.614  0.5783 -0.3273  0.2032
  306poe    c23 3666   0.820   1.254   0.537  0.2647  0.0774 -0.3921
  306poe    c23 3667   0.763   1.293   0.400 -0.1857  1.1841  0.0944
  306poe     o2 3668   0.841   1.404   0.362  0.6438  0.6415  0.1875
  306poe    c23 3669   0.794   1.483   0.255  0.2322 -0.0429 -0.1435
  306poe    c23 3670   0.913   1.579   0.237  0.3232 -0.1011  0.1417
  306poe     o2 3671   0.934   1.619   0.371  0.3961  0.5887 -0.0730
  306poe    c31 3672   1.028   1.724   0.359  0.8275  0.2881  0.6251
  307poe    c31 3673   4.090   4.027   2.173 -0.2600 -0.5498 -0.0222
  307poe     o2 3674   4.110   4.167   2.182  0.3654 -0.6023 -0.5027
  307poe    c23 3675   4.238   4.187   2.236  0.2354  0.2410 -0.5011
  307poe    c23 3676   4.287   4.330   2.267  0.1283  0.1538  0.0968
  307poe     o2 3677   4.295   4.405   2.148 -0.0621 -0.1364 -0.0989
  307poe    c23 3678   4.336   4.536   2.179 -0.3255  0.0767 -0.6365
  307poe    c23 3679   4.421   4.602   2.068  0.1342 -0.0430 -0.3541
  307poe     o2 3680   4.553   4.561   2.039  0.2912  0.3275 -0.1658
  307poe    c23 3681   4.617   4.636   1.938  0.3421  0.8928  0.2787
  307poe    c23 3682   4.770   4.618   1.942  0.2728  0.1991  0.0105
  307poe     o2 3683   4.795   4.483   1.974  0.5709  0.2957  0.1840
  307poe    c31 3684   4.907   4.433   1.905  0.4099 -0.5089  0.4975
  308poe    c31 3685   1.251   1.541   1.543  0.5244  0.6638  0.2825
  308poe     o2 3686   1.294   1.496   1.670  0.1045  0.0842  0.2264
  308poe    c23 3687   1.183   1.438   1.736  0.0093 -0.3473 -0.3042
  308poe    c23 3688   1.244   1.385   1.867 -0.0244  0.4277  0.0304
  308poe     o2 3689   1.382   1.359   1.849  0.1371  0.8246  0.6657
  308poe    c23 3690   1.441   1.357   1.977  0.1690 -1.1738  0.6427
  308poe    c23 3691   1.584   1.323   1.929  0.3100 -0.1929  0.3590
  308poe     o2 3692   1.615   1.401   1.816 -0.3292 -0.3732  0.0552
  308poe    c23 3693   1.707   1.334   1.733  0.0614  0.4546 -0.1970
  308poe    c23 3694   1.710   1.408   1.599 -0.2213 -0.2567 -0.6017
  308poe     o2 3695   1.582   1.430   1.545 -0.2712  0.3719 -0.2326
  308poe    c31 3696   1.603   1.478   1.414 -0.6329 -0.1460 -0.4820
  309poe    c31 3697   4.968   1.231   0.358  0.1854  0.0865  0.2262
  309poe     o2 3698   4.987   1.156   0.476  0.3856  0.2319  0.2879
  309poe    c23 3699   4.908   1.209   0.581  0.3300  0.4346  0.1428
  309poe    c23 3700   4.986   1.178   0.710  0.7962  0.0984 -0.2131
  309poe     o2 3701   5.026   1.044   0.690  0.2595  0.0070 -0.7199
  309poe    c23 3702   5.125   0.998   0.779 -0.1132  0.1030 -0.2521
  309poe    c23 3703   5.143   0.849   0.746  0.2015  0.1845 -0.4503
  309poe     o2 3704   5.133   0.838   0.605  0.5552  0.2156 -0.4768
  309poe    c23 3705   5.068   0.715   0.587  0.4280  0.3384 -0.8529
  309poe    c23 3706   5.021   0.708   0.440  0.0108  0.0139 -0.7074
  309poe     o2 3707   4.993   0.844   0.419  0.3964  0.1477 -0.3751
  309poe    c31 3708   4.878   0.861   0.339 -0.0903 -0.1495  0.2580
  310poe    c31 3709   4.812   0.106   3.239  0.2558 -0.1891  0.4508
  310poe     o2 3710   4.818   0.246   3.250 -0.1813 -0.1624  0.3609
  310poe    c23 3711   4.952   0.288   3.237 -0.2903  0.0106 -0.2429
  310poe    c23 3712   4.977   0.421   3.310 -0.0033  0.2484 -0.7676
  310poe     o2 3713   4.894   0.415   3.424  0.1990  0.5354 -0.6052
  310poe    c23 3714   4.899   0.538   3.491  0.6090 -0.2036  0.7631
  310poe    c23 3715   4.756   0.584   3.526  0.4189 -0.0462 -0.2104
  310poe     o2 3716   4.688   0.542   3.410 -0.1729 -0.2279  0.1981
  310poe    c23 3717   4.548   0.558   3.408 -0.1597 -0.0966  0.3356
  310poe    c23 3718   4.501   0.523   3.265  0.3481  0.3501  0.0571
  310poe     o2 3719   4.562   0.404   3.220  0.3811  0.3726  0.0416
  310poe    c31 3720   4.490   0.360   3.107  0.2759  0.9570 -0.1206
  311poe    c31 3721   5.749   5.782   4.782 -0.1561  0.0371  0.3360
  311poe     o2 3722   5.798   5.782   4.650 -0.2232  0.0762  0.3114
  311poe    c23 3723   5.925   5.844   4.645 -0.1723 -0.0256  0.3421
  311poe    c23 3724   5.979   5.800   4.508  0.2259  1.0245  0.1530
  311poe     o2 3725   5.894   5.844   4.404  0.1825  0.0755 -0.2237
  311poe    c23 3726   5.914   5.979   4.368  0.0957  0.0254 -0.4604
  311poe    c23 3727   5.775   6.024   4.318 -0.1158  0.5783  0.5959
  311poe     o2 3728   5.687   5.978   4.418 -0.0119  0.1779  0.5074
  311poe    c23 3729   5.552   6.011   4.391  0.0753  0.1149 -0.0144
  311poe    c23 3730   5.478   6.011   4.526  0.8117  0.1494  0.3976
  311poe     o2 3731   5.524   5.890   4.581  0.2054 -0.1457  0.2741
  311poe    c31 3732   5.433   5.858   4.684 -0.4114 -0.1889 -0.2860
  312poe    c31 3733   5.748   0.176   4.934  0.4266 -0.2768 -0.4197
  312poe     o2 3734   5.639   0.087   4.941  0.2135 -0.0580 -0.9519
  312poe    c23 3735   5.588   0.090   5.072  0.8009 -0.3336 -0.7141
  312poe    c23 3736   5.504  -0.035   5.102  0.8832 -0.2004  0.1166
  312poe     o2 3737   5.422  -0.035   4.987  0.7712  0.2172  0.1960
  312poe    c23 3738   5.331  -0.143   4.990  0.5176  0.4238  0.0088
  312poe    c23 3739   5.338  -0.208   4.850 -0.0957  0.2529  0.0567
  312poe     o2 3740   5.452  -0.164   4.780  0.1024  0.4494  0.4940
  312poe    c23 3741   5.434  -0.188   4.642  0.3021  0.0815  0.5311
  312poe    c23 3742   5.567  -0.127   4.593  0.1804 -0.1104 -0.0449
  312poe     o2 3743   5.578   0.006   4.639  0.1824 -0.2030  0.2255
  312poe    c31 3744   5.663   0.071   4.546  0.1075 -0.0203  0.2831
  313poe    c31 3745   0.449   4.859   6.608  0.1640  0.5034  0.3136
  313poe     o2 3746   0.584   4.854   6.568 -0.0243  0.2306 -0.2944
  313poe    c23 3747   0.606   4.755   6.469 -0.2755 -0.1389  0.0205
  313poe    c23 3748   0.755   4.734   6.437 -0.2348  0.5593 -0.2532
  313poe     o2 3749   0.817   4.858   6.464 -0.2548  0.6290 -0.5177
  313poe    c23 3750   0.943   4.822   6.516 -0.3867  0.3397 -0.3954
  313poe    c23 3751   0.999   4.949   6.582  0.1151  0.4140 -0.9537
  313poe     o2 3752   0.885   4.997   6.651  0.4457 -0.6180  0.3622
  313poe    c23 3753   0.901   5.119   6.720  0.7692 -0.4765  0.0409
  313poe    c23 3754   0.759   5.130   6.778  0.4127 -0.4726 -0.8143
  313poe     o2 3755   0.656   5.120   6.682 -0.8637 -0.6846  0.5486
  313poe    c31 3756   0.540   5.173   6.744 -0.4259  0.2109  0.6184
  314poe    c31 3757   4.106   5.303   1.843 -0.4834  0.5884  0.5513
  314poe     o2 3758   4.156   5.432   1.816 -0.3592  0.4175 -0.0625
  314poe    c23 3759   4.247   5.474   1.915 -0.6755  0.3955  0.2405
  314poe    c23 3760   4.263   5.619   1.864  0.0786  0.2816  0.1336
  314poe     o2 3761   4.276   5.620   1.723 -0.1980 -0.0934  0.1008
  314poe    c23 3762   4.297   5.746   1.662  0.1488  0.0767  0.5605
  314poe    c23 3763   4.306   5.723   1.510 -0.3099  0.2326  0.5058
  314poe     o2 3764   4.220   5.624   1.460  0.0472  0.4127 -0.4861
  314poe    c23 3765   4.280   5.540   1.364  0.1511 -0.5277  0.3828
  314poe    c23 3766   4.213   5.402   1.380 -0.7251 -0.1601 -0.0459
  314poe     o2 3767   4.207   5.359   1.514  0.1151 -0.2102 -0.0229
  314poe    c31 3768   4.195   5.218   1.516  0.2967 -0.2376 -0.5907
  315poe    c31 3769   2.692   5.333   0.261  0.2391  0.0276 -0.2142
  315poe     o2 3770   2.665   5.472   0.266  0.5268  0.0806 -0.1098
  315poe    c23 3771   2.525   5.482   0.262  0.4953  0.0336  0.7729
  315poe    c23 3772   2.484   5.630   0.246  0.5834 -0.0282 -0.0273
  315poe     o2 3773   2.584   5.696   0.171  0.2541  0.0650 -0.3924
  315poe    c23 3774   2.553   5.831   0.147 -0.4118 -0.0743 -0.3198
  315poe    c23 3775   2.689   5.895   0.113 -0.2347 -0.3472 -0.1261
  315poe     o2 3776   2.782   5.809   0.175 -0.0781  0.8237  1.3130
  315poe    c23 3777   2.913   5.843   0.138 -0.1114 -0.2678  0.1261
  315poe    c23 3778   2.976   5.767   0.256  0.4951 -0.2138 -0.1584
  315poe     o2 3779   2.928   5.635   0.263  0.0950 -0.0266  0.7563
  315poe    c31 3780   3.035   5.549   0.295  0.7803  0.7509  0.5817
  316poe    c31 3781   3.023   5.960   4.206  0.1102  0.2574 -0.1299
  316poe     o2 3782   3.101   5.956   4.089  0.3471  0.0672  0.0346
  316poe    c23 3783   3.134   5.826   4.048  0.8092  0.0574  0.4271
  316poe    c23 3784   3.187   5.840   3.903 -0.5466 -0.1738 -0.1040
  316poe     o2 3785   3.093   5.926   3.843 -0.1536  0.1502 -0.2572
  316poe    c23 3786   3.139   5.996   3.729 -0.1333  0.1649 -0.2395
  316poe    c23 3787   3.201   6.133   3.759  0.5297 -0.2309  0.2403
  316poe     o2 3788   3.110   6.195   3.848  0.5364 -0.2435  0.2555
  316poe    c23 3789   3.161   6.316   3.900 -0.0596  0.0109  0.2635
  316poe    c23 3790   3.077   6.366   4.019  0.1527  0.5496  0.1909
  316poe     o2 3791   3.055   6.248   4.094 -0.4654  0.1803 -0.5465
  316poe    c31 3792   3.085   6.303   4.220  0.3759 -0.0606 -0.6356
  317poe    c31 3793   2.582   5.947   6.156 -0.0026 -0.7078  0.3115
  317poe     o2 3794   2.457   5.955   6.221 -0.3471  0.2623 -0.4548
  317poe    c23 3795   2.367   5.969   6.113 -0.1534 -0.4403 -0.7113
  317poe    c23 3796   2.232   5.962   6.186  0.2921 -0.4204  0.1232
  317poe     o2 3797   2.238   6.037   6.305 -0.4566 -0.4693  0.1957
  317poe    c23 3798   2.121   6.053   6.382 -0.2447 -0.0610  0.4354
  317poe    c23 3799   2.172   6.111   6.516 -0.4425 -0.1423  0.5468
  317poe     o2 3800   2.288   6.045   6.560  0.0089 -0.0444 -0.4557
  317poe    c23 3801   2.268   5.932   6.642 -0.1214  0.3258  0.0300
  317poe    c23 3802   2.388   5.837   6.624 -0.1307  0.3114  0.0460
  317poe     o2 3803   2.409   5.823   6.485  1.0869  0.1415  0.2354
  317poe    c31 3804   2.518   5.735   6.470  0.2449 -0.9578  0.4346
  318poe    c31 3805   5.161   1.631   3.623  0.1281  0.0093 -0.3743
  318poe     o2 3806   5.186   1.546   3.732 -0.0457  0.6900  0.2078
  318poe    c23 3807   5.323   1.530   3.760 -0.0851  0.1866  0.1399
  318poe    c23 3808   5.351   1.397   3.832 -0.8518  0.0222  0.1362
  318poe     o2 3809   5.281   1.306   3.750 -0.3278 -0.2039 -0.0645
  318poe    c23 3810   5.294   1.167   3.770 -0.6265 -0.2929 -0.4697
  318poe    c23 3811   5.192   1.096   3.680 -0.5972 -0.5505 -0.3009
  318poe     o2 3812   5.084   1.187   3.676 -0.1970 -0.0477  0.2046
  318poe    c23 3813   4.965   1.154   3.609  0.0424  0.3368 -0.4129
  318poe    c23 3814   4.862   1.265   3.642 -0.2046  0.0303 -0.1517
  318poe     o2 3815   4.921   1.393   3.636  0.0519 -0.0930 -0.2703
  318poe    c31 3816   4.808   1.476   3.649  0.0014 -0.1766 -0.1713
  319poe    c31 3817   3.910   5.247   2.540  0.1410 -0.2414 -0.0864
  319poe     o2 3818   3.928   5.362   2.620 -0.0002 -0.2023 -0.1102
  319poe    c23 3819   3.921   5.328   2.756 -0.6496 -0.0379 -0.0984
  319poe    c23 3820   3.949   5.459   2.832 -0.0641 -0.0510 -0.2871
  319poe     o2 3821   4.036   5.538   2.755  0.0168  0.4707  0.3331
  319poe    c23 3822   4.166   5.526   2.807  0.0918  0.4736  0.1503
  319poe    c23 3823   4.248   5.652   2.773  0.6134  0.1542  0.2067
  319poe     o2 3824   4.185   5.777   2.789  0.0035 -0.1170 -0.0088
  319poe    c23 3825   4.257   5.872   2.713 -0.1207 -0.3535 -0.4250
  319poe    c23 3826   4.183   6.001   2.677 -0.5800 -0.4318  0.2254
  319poe     o2 3827   4.147   6.078   2.790  0.0300  0.2671 -0.0478
  319poe    c31 3828   4.018   6.132   2.773  0.1008  0.5387  0.2757
  320poe    c31 3829   0.906   1.561   2.693 -0.2498  0.4436 -0.5229
  320poe     o2 3830   0.850   1.545   2.564  0.0220 -0.1603 -0.5677
  320poe    c23 3831   0.725   1.479   2.564  0.0597 -0.2375  0.0569
  320poe    c23 3832   0.723   1.416   2.424  0.5542  0.0674 -0.0879
  320poe     o2 3833   0.769   1.518   2.338  0.7329  0.1173  0.0662
  320poe    c23 3834   0.755   1.489   2.201  0.1790  0.2648  0.0899
  320poe    c23 3835   0.894   1.459   2.142  0.3938 -0.2449  0.8487
  320poe     o2 3836   0.971   1.568   2.188  0.1217 -0.0676  0.8838
  320poe    c23 3837   1.100   1.529   2.229  0.8593  0.3064 -0.9668
  320poe    c23 3838   1.152   1.621   2.341 -0.3107 -0.1979  0.0181
  320poe     o2 3839   1.046   1.668   2.420 -0.4936 -0.2767 -0.1787
  320poe    c31 3840   1.089   1.773   2.504 -0.3515 -0.4314 -0.0591
  321poe    c31 3841   2.453   3.712   3.182 -0.4252  0.6166 -0.5740
  321poe     o2 3842   2.584   3.712   3.235 -0.6313  0.0560 -0.0526
  321poe    c23 3843   2.574   3.730   3.375  0.0658  0.2015 -0.0179
  321poe    c23 3844   2.722   3.719   3.413  0.0151  0.6812  0.3341
  321poe     o2 3845   2.804   3.789   3.322  0.1285 -0.1477 -0.2141
  321poe    c23 3846   2.941   3.772   3.355  0.0616 -0.1643  0.0563
  321poe    c23 3847   3.023   3.832   3.240  0.2513  0.2123  0.3836
  321poe     o2 3848   2.956   3.825   3.116  0.0394 -0.1788  0.5184
  321poe    c23 3849   2.994   3.712   3.040  0.0807  0.8105 -0.9768
  321poe    c23 3850   2.887   3.636   2.960 -0.4251  0.2468  0.2058
  321poe     o2 3851   2.773   3.633   3.042 -0.1425 -0.5341  0.5826
  321poe    c31 3852   2.682   3.534   3.000 -0.7710  0.2586  0.0397
  322poe    c31 3853   4.161   0.018   2.472  0.2621 -0.4307 -0.1260
  322poe     o2 3854   4.184   0.050   2.607 -0.1575  0.4371 -0.2509
  322poe    c23 3855   4.212   0.187   2.620 -0.1775  0.4603 -0.4570
  322poe    c23 3856   4.265   0.205   2.763  0.3615 -0.2122 -0.5657
  322poe     o2 3857   4.198   0.119   2.853  1.0017  0.3785  0.5061
  322poe    c23 3858   4.086   0.173   2.919  0.1191 -0.2564 -0.4368
  322poe    c23 3859   3.991   0.055   2.947  0.3921 -0.2876  0.3680
  322poe     o2 3860   3.950  -0.017   2.833 -0.5148  0.0788  0.4519
  322poe    c23 3861   3.911  -0.150   2.858  0.0821 -0.0885  0.5122
  322poe    c23 3862   3.972  -0.234   2.743  0.1202  0.6899 -0.0442
  322poe     o2 3863   4.109  -0.202   2.736  0.3212 -0.0229  0.5215
  322poe    c31 3864   4.162  -0.289   2.638 -0.4207  0.2066 -0.0906
  323poe    c31 3865   3.838   3.677   5.314 -0.0790 -0.1016  0.3018
  323poe     o2 3866   3.769   3.637   5.197 -0.1797  0.2729  0.2312
  323poe    c23 3867   3.698   3.751   5.156  0.4993  0.6023 -0.0472
  323poe    c23 3868   3.680   3.773   5.004 -0.1464 -0.5721 -0.1621
  323poe     o2 3869   3.635   3.644   4.970 -0.0417 -0.6253 -0.1008
  323poe    c23 3870   3.640   3.622   4.830  0.1377  0.0717 -0.2087
  323poe    c23 3871   3.562   3.492   4.807 -0.0592  0.0830  0.3811
  323poe     o2 3872   3.612   3.405   4.907  0.6034  0.3601  0.2898
  323poe    c23 3873   3.502   3.364   4.984  0.2703 -0.1851 -0.4651
  323poe    c23 3874   3.581   3.285   5.091 -0.3388  0.0855  0.1937
  323poe     o2 3875   3.660   3.362   5.179  0.2065 -0.3320  0.0704
  323poe    c31 3876   3.742   3.283   5.262  0.5363 -0.1291 -0.0591
  324poe    c31 3877   4.190   6.594   0.924  0.2020  0.2259 -0.6733
  324poe     o2 3878   4.051   6.580   0.906  0.1371 -0.3398  0.1893
  324poe    c23 3879   3.979   6.626   1.018 -0.0921  0.7090 -0.3769
  324poe    c23 3880   3.834   6.582   1.045  0.0426  0.5334  0.0871
  324poe     o2 3881   3.752   6.607   0.932  0.3480  0.5445 -0.1343
  324poe    c23 3882   3.617   6.592   0.971  0.3440  0.7159 -0.0789
  324poe    c23 3883   3.530   6.606   0.845  0.1931 -0.9260 -0.1780
  324poe     o2 3884   3.609   6.601   0.728  0.0100 -0.1655 -0.3399
  324poe    c23 3885   3.528   6.599   0.613 -0.8745  0.4260  0.2608
  324poe    c23 3886   3.601   6.560   0.483 -0.0480  0.3519  0.7371
  324poe     o2 3887   3.651   6.429   0.469 -0.3234  0.3319 -0.1448
  324poe    c31 3888   3.563   6.348   0.395  0.4195 -0.4567 -0.1778
  325poe    c31 3889   3.285   0.616   4.251  0.1408 -0.1953 -0.2218
  325poe     o2 3890   3.318   0.576   4.120 -0.2689  0.2377 -0.4595
  325poe    c23 3891   3.236   0.639   4.024 -0.1812  0.2314 -0.5390
  325poe    c23 3892   3.313   0.614   3.892  0.0839 -0.4193 -0.2677
  325poe     o2 3893   3.342   0.477   3.909  0.3813 -0.2933  0.2595
  325poe    c23 3894   3.401   0.436   3.788  0.9505  0.2682  0.3400
  325poe    c23 3895   3.468   0.300   3.814 -0.0636 -0.3267 -0.0960
  325poe     o2 3896   3.523   0.318   3.942 -0.2647  0.1862 -0.0818
  325poe    c23 3897   3.572   0.200   4.001 -0.5068  0.4346  0.6262
  325poe    c23 3898   3.648   0.259   4.121  0.0881  1.2885 -0.1629
  325poe     o2 3899   3.564   0.350   4.189 -0.1439  0.7224  0.3183
  325poe    c31 3900   3.606   0.351   4.323 -0.1209  1.0742  0.3103
  326poe    c31 3901   6.723   5.858   1.702  0.0751 -0.1903 -0.2426
  326poe     o2 3902   6.634   5.967   1.716  0.3213 -0.1030  0.6949
  326poe    c23 3903   6.629   6.030   1.842  0.1606  0.4149  0.4328
  326poe    c23 3904   6.571   6.172   1.833 -0.2265  0.2574  0.4075
  326poe     o2 3905   6.439   6.159   1.787 -0.1047  0.0676  0.1069
  326poe    c23 3906   6.343   6.208   1.879  0.1418  0.3917  0.1945
  326poe    c23 3907   6.207   6.180   1.813  0.1855  0.1372  0.2137
  326poe     o2 3908   6.227   6.047   1.769 -0.6075  0.1025 -0.0738
  326poe    c23 3909   6.132   6.008   1.673 -0.4317 -0.1706 -0.1372
  326poe    c23 3910   6.192   5.897   1.584  0.5359  0.5740 -0.4440
  326poe     o2 3911   6.329   5.922   1.562  0.5896  0.2816 -0.4439
  326poe    c31 3912   6.372   5.813   1.482 -0.6622 -0.4445 -0.1611
  327poe    c31 3913   6.103   6.235   1.058  0.0425 -0.1229  0.1305
  327poe     o2 3914   6.052   6.364   1.031 -0.0822 -0.2046 -0.0251
  327poe    c23 3915   6.153   6.460   1.051 -0.0680 -0.1543 -0.3377
  327poe    c23 3916   6.083   6.596   1.072 -0.7512 -0.6782  0.8674
  327poe     o2 3917   5.997   6.613   0.962  0.2816  0.1707  0.1722
  327poe    c23 3918   5.873   6.664   1.006 -0.0201 -0.3077 -0.1201
  327poe    c23 3919   5.756   6.617   0.918 -0.5616  0.0970  0.3728
  327poe     o2 3920   5.766   6.476   0.914  0.2012  0.1629 -0.6423
  327poe    c23 3921   5.662   6.404   0.851 -0.4693  0.2009  0.3855
  327poe    c23 3922   5.691   6.254   0.865  0.4150  0.2973 -0.3115
  327poe     o2 3923   5.828   6.226   0.886  0.1890 -0.7121 -0.1014
  327poe    c31 3924   5.862   6.091   0.864  0.0430 -0.7562 -0.0540
  328poe    c31 3925   4.513   0.652   1.865 -0.0723  0.4986  0.5796
  328poe     o2 3926   4.543   0.585   1.985 -0.4966 -0.2960  0.2443
  328poe    c23 3927   4.584   0.454   1.952  0.2139 -0.0088 -0.0505
  328poe    c23 3928   4.688   0.404   2.054 -0.1663 -0.0313  0.3309
  328poe     o2 3929   4.658   0.457   2.181 -0.3790 -0.4345  0.4482
  328poe    c23 3930   4.756   0.482   2.279 -0.0064  0.1240 -0.0678
  328poe    c23 3931   4.703   0.591   2.374 -0.8684 -0.4608  0.1332
  328poe     o2 3932   4.636   0.683   2.292 -0.4236 -0.2757 -0.0287
  328poe    c23 3933   4.582   0.792   2.364  0.3166  0.1183 -0.0560
  328poe    c23 3934   4.517   0.896   2.270 -0.0433 -0.0579 -0.0067
  328poe     o2 3935   4.439   0.826   2.176 -0.3706 -0.2264  0.3907
  328poe    c31 3936   4.323   0.903   2.155 -0.0119  0.4636  0.9046
  329poe    c31 3937   6.089   1.713   0.156  0.2910 -0.0521  0.1111
  329poe     o2 3938   6.185   1.709   0.053  1.2242  0.0330  0.9613
  329poe    c23 3939   6.217   1.834  -0.003 -0.6627  0.2985  0.4418
  329poe    c23 3940   6.347   1.808  -0.081 -0.7975  0.5912  0.1112
  329poe     o2 3941   6.429   1.729   0.002  0.0148  0.6942 -0.5830
  329poe    c23 3942   6.537   1.670  -0.067  0.2672  0.0821  0.3136
  329poe    c23 3943   6.584   1.549   0.015 -0.2289 -0.0062  0.4666
  329poe     o2 3944   6.460   1.488   0.045 -0.4069  0.1680  0.0841
  329poe    c23 3945   6.473   1.363   0.108  0.1477  0.2599  0.1508
  329poe    c23 3946   6.331   1.304   0.099  0.3345 -0.0239 -1.1585
  329poe     o2 3947   6.244   1.410   0.132  0.5515 -0.1083 -0.2670
  329poe    c31 3948   6.117   1.371   0.180  0.6630 -0.1522 -0.0056
  330poe    c31 3949   4.231   3.519   6.372  0.3690  0.1051 -0.8467
  330poe     o2 3950   4.354   3.455   6.349  0.4324 -0.3018  0.5359
  330poe    c23 3951   4.372   3.347   6.438  0.7718  0.0619  0.9173
  330poe    c23 3952   4.490   3.260   6.390  0.2023 -0.0262 -0.3756
  330poe     o2 3953   4.484   3.271   6.249 -0.3542 -0.1357 -0.3607
  330poe    c23 3954   4.592   3.218   6.176  0.1473 -0.7666  0.8039
  330poe    c23 3955   4.694   3.329   6.143 -1.0649  0.1702  0.1045
  330poe     o2 3956   4.614   3.444   6.132 -0.4196  0.6149 -0.0358
  330poe    c23 3957   4.695   3.554   6.098  0.3330  0.0950  0.0740
  330poe    c23 3958   4.584   3.649   6.052 -0.0900 -0.7500 -0.6705
  330poe     o2 3959   4.478   3.628   6.142  0.1587 -0.0683 -0.2153
  330poe    c31 3960   4.398   3.744   6.136 -0.1409 -0.2608  0.0255
  331poe    c31 3961   0.226   3.352   5.434  0.1808 -0.1788 -0.7617
  331poe     o2 3962   0.211   3.480   5.492 -0.0904 -0.3566 -0.4363
  331poe    c23 3963   0.264   3.571   5.398 -0.2676  0.2878  0.0785
  331poe    c23 3964   0.257   3.711   5.462 -0.6307  0.2612  0.1029
  331poe     o2 3965   0.282   3.686   5.598 -0.1324 -0.0278 -0.0346
  331poe    c23 3966   0.282   3.805   5.673  0.3942 -0.1998  0.2381
  331poe    c23 3967   0.297   3.779   5.824 -0.3115 -0.1615  0.3159
  331poe     o2 3968   0.206   3.676   5.857 -0.2118 -0.5002 -0.4451
  331poe    c23 3969   0.187   3.647   5.994  0.1378  0.4260 -0.1904
  331poe    c23 3970   0.107   3.751   6.075 -0.4018  0.0085 -0.1794
  331poe     o2 3971   0.158   3.881   6.097 -0.3575 -0.1555  0.7388
  331poe    c31 3972   0.090   3.975   6.175 -0.0089  0.8263 -0.1201
  332poe    c31 3973   3.651   3.923   4.024  0.1085  0.1789  0.0549
  332poe     o2 3974   3.731   3.847   3.936 -0.0919  0.0048  0.0236
  332poe    c23 3975   3.800   3.756   4.018  0.1989  0.3929  0.2095
  332poe    c23 3976   3.876   3.685   3.905 -0.1233 -0.5667  0.5830
  332poe     o2 3977   3.789   3.661   3.797  0.6030 -0.1803 -0.1034
  332poe    c23 3978   3.851   3.585   3.696  0.3684 -0.5239  0.0117
  332poe    c23 3979   3.744   3.545   3.592 -0.0407  0.3375  0.0908
  332poe     o2 3980   3.659   3.657   3.583  0.1985  0.5328  0.2505
  332poe    c23 3981   3.533   3.616   3.534  0.5209  0.2826 -0.3898
  332poe    c23 3982   3.471   3.757   3.524  0.3647  0.2230 -0.2539
  332poe     o2 3983   3.484   3.813   3.653  0.3148  0.2109 -0.2435
  332poe    c31 3984   3.404   3.929   3.657  0.3620  0.2306  0.1191
  333poe    c31 3985   3.938   0.207   4.651 -0.4129 -0.1210  0.3765
  333poe     o2 3986   3.813   0.153   4.684 -0.8057  0.5167 -0.0417
  333poe    c23 3987   3.772   0.077   4.572 -0.4772 -0.3695  0.4310
  333poe    c23 3988   3.627   0.035   4.605 -0.6408 -0.2282 -0.1104
  333poe     o2 3989   3.593  -0.057   4.705 -0.4995  0.3045  0.4344
  333poe    c23 3990   3.459  -0.041   4.747 -0.5756 -0.5134  0.5332
  333poe    c23 3991   3.444  -0.106   4.886  0.6833  0.2386  1.0461
  333poe     o2 3992   3.441  -0.245   4.865  0.0412  0.3067  0.6422
  333poe    c23 3993   3.448  -0.303   4.993  0.1020  0.0819  0.5381
  333poe    c23 3994   3.452  -0.455   4.974  0.1720  0.1148  0.2907
  333poe     o2 3995   3.558  -0.487   4.886 -0.2246 -0.1760 -0.0878
  333poe    c31 3996   3.583  -0.626   4.892  0.4583 -0.0598 -0.2282
  334poe    c31 3997   4.778   5.119   2.710 -0.2684 -0.2159  0.0875
  334poe     o2 3998   4.762   5.149   2.847 -0.2938 -0.2731  0.0967
  334poe    c23 3999   4.840   5.261   2.882 -0.6490  0.0438 -0.1045
  334poe    c23 4000   4.913   5.232   3.015  0.3763 -0.6332 -0.8021
  334poe     o2 4001   4.808   5.208   3.106  0.1821  0.7860 -0.6379
  334poe    c23 4002   4.856   5.175   3.234  0.1195  0.7890 -0.6137
  334poe    c23 4003   4.729   5.165   3.321  0.5822  0.1356 -0.0007
  334poe     o2 4004   4.638   5.103   3.232  0.2073  0.4104  0.1851
  334poe    c23 4005   4.513   5.167   3.232 -0.4229 -0.7859  0.0836
  334poe    c23 4006   4.438   5.140   3.101 -0.7659  0.1562  0.0745
  334poe     o2 4007   4.513   5.169   2.985 -0.6275  0.4021  0.2264
  334poe    c31 4008   4.448   5.096   2.884  0.4923  0.0905 -0.2935
  335poe    c31 4009   0.649   0.693   4.686  0.1140  0.2917 -0.1816
  335poe     o2 4010   0.513   0.718   4.660 -0.1828 -0.9188  0.1593
  335poe    c23 4011   0.483   0.658   4.536 -0.1494 -0.6741  0.0332
  335poe    c23 4012   0.330   0.643   4.532 -0.2141 -0.0641  0.1353
  335poe     o2 4013   0.254   0.762   4.520  0.0848  0.0513 -0.7195
  335poe    c23 4014   0.119   0.724   4.501  0.0036  0.1341 -0.3271
  335poe    c23 4015   0.044   0.853   4.463 -0.8199 -0.2086  0.1179
  335poe     o2 4016   0.079   0.941   4.568 -0.6610  0.1507 -0.2319
  335poe    c23 4017  -0.024   1.037   4.578 -0.4890  0.3045  0.0630
  335poe    c23 4018  -0.044   1.071   4.727  0.2938 -0.1297  0.2780
  335poe     o2 4019   0.061   1.146   4.782  0.5483 -0.2857  0.0076
  335poe    c31 4020   0.042   1.228   4.896  0.7989 -0.0695 -0.1053
  336poe    c31 4021   3.484   3.762   6.688 -0.5790  0.2600  0.9170
  336poe     o2 4022   3.401   3.853   6.621 -0.0422 -0.4579 -0.7651
  336poe    c23 4023   3.484   3.946   6.554  0.2636  0.0335  0.2795
  336poe    c23 4024   3.406   4.075   6.523 -0.4090 -0.3891  0.2065
  336poe     o2 4025   3.276   4.029   6.489 -0.3644 -0.2367 -0.1730
  336poe    c23 4026   3.188   4.135   6.460  0.0483  0.1458 -0.0568
  336poe    c23 4027   3.053   4.067   6.428 -0.1840  0.3610  0.4484
  336poe     o2 4028   3.038   3.954   6.511 -0.0814  0.3843  0.4978
  336poe    c23 4029   2.973   3.855   6.436  0.2306  0.3457  0.2782
  336poe    c23 4030   2.992   3.729   6.522 -0.3959  0.1659  0.1564
  336poe     o2 4031   3.123   3.728   6.573 -0.1533  0.1884 -0.4692
  336poe    c31 4032   3.155   3.591   6.583 -0.4789  0.1557  0.1425
  337poe    c31 4033   4.908   0.370   4.302  0.2804 -0.6974 -1.1924
  337poe     o2 4034   4.816   0.450   4.230 -0.2449 -0.0372  0.1797
  337poe    c23 4035   4.757   0.557   4.301 -0.5709  0.4460 -0.7898
  337poe    c23 4036   4.658   0.635   4.214 -1.0461  0.9820  0.2186
  337poe     o2 4037   4.723   0.654   4.091 -0.3554  0.0869  0.4371
  337poe    c23 4038   4.672   0.742   3.993  0.3802  0.2423  0.1831
  337poe    c23 4039   4.678   0.889   4.040 -0.7194  0.4202 -0.1949
  337poe     o2 4040   4.570   0.923   4.123 -0.8057 -0.0164 -0.1255
  337poe    c23 4041   4.573   1.056   4.171  0.0573 -0.2655  0.5302
  337poe    c23 4042   4.461   1.106   4.262 -0.5206 -0.9157  0.1874
  337poe     o2 4043   4.347   1.167   4.205  0.1120 -0.0791 -0.1987
  337poe    c31 4044   4.373   1.304   4.183 -1.0937  0.2373  0.2981
  338poe    c31 4045   2.351   5.537   5.999  0.6090  0.0635  0.1278
  338poe     o2 4046   2.290   5.432   5.927  0.2996  0.3398 -0.0134
  338poe    c23 4047   2.318   5.303   5.978  0.2694  0.2281 -0.2799
  338poe    c23 4048   2.289   5.195   5.872 -0.0575  0.3735 -0.3415
  338poe     o2 4049   2.156   5.211   5.830 -0.1714 -0.2767 -0.2367
  338poe    c23 4050   2.116   5.135   5.718  0.5505 -0.0547 -0.6496
  338poe    c23 4051   1.981   5.195   5.675  0.6254  0.4342 -0.2067
  338poe     o2 4052   1.974   5.335   5.694 -0.3523  0.4428 -0.5951
  338poe    c23 4053   1.847   5.368   5.746 -0.0503 -0.0180  0.4477
  338poe    c23 4054   1.869   5.506   5.811 -0.0374  0.2604 -0.1446
  338poe     o2 4055   1.996   5.503   5.873 -0.3420 -0.0095  0.4641
  338poe    c31 4056   1.990   5.593   5.981 -0.3892  0.2842  0.2166
  339poe    c31 4057   2.440   1.587   4.332  0.1759  0.3427  0.3084
  339poe     o2 4058   2.489   1.516   4.220 -0.0683 -0.0878  0.4715
  339poe    c23 4059   2.494   1.375   4.228  0.4093 -0.0854  0.2758
  339poe    c23 4060   2.559   1.321   4.100  0.1997  0.0901  0.0937
  339poe     o2 4061   2.671   1.402   4.074 -0.0244  0.3795  0.0193
  339poe    c23 4062   2.782   1.358   4.150 -0.5061  0.7049  0.9201
  339poe    c23 4063   2.881   1.475   4.153  0.3757 -0.0158  0.3171
  339poe     o2 4064   2.805   1.584   4.200 -0.0240 -0.2048  0.1171
  339poe    c23 4065   2.886   1.700   4.205 -0.0658 -0.1315 -0.7115
  339poe    c23 4066   2.785   1.804   4.259  0.1335 -0.2386 -0.1305
  339poe     o2 4067   2.678   1.786   4.170  0.0022 -0.2844  0.0357
  339poe    c31 4068   2.572   1.875   4.197  0.1606  0.0475 -0.4181
  340poe    c31 4069   2.288   3.214   0.424 -0.0856 -0.1353  0.1025
  340poe     o2 4070   2.342   3.117   0.337  0.2678 -0.2253  0.4195
  340poe    c23 4071   2.282   3.144   0.212 -0.0682 -0.9785  0.4086
  340poe    c23 4072   2.369   3.058   0.118  0.3760  0.0289 -0.1330
  340poe     o2 4073   2.505   3.061   0.155  0.2872  0.4776  0.1629
  340poe    c23 4074   2.587   2.962   0.099  0.2760  0.4702  0.1598
  340poe    c23 4075   2.725   2.976   0.165  0.2787 -0.2851  0.3297
  340poe     o2 4076   2.690   2.975   0.301 -0.8559 -0.5909  0.0468
  340poe    c23 4077   2.795   2.973   0.396 -0.7706 -0.8228 -0.0495
  340poe    c23 4078   2.738   3.074   0.497 -0.0791  0.2802 -0.7368
  340poe     o2 4079   2.599   3.057   0.513  0.1183 -0.4461  0.2432
  340poe    c31 4080   2.572   3.113   0.640  0.8073  0.2797  0.0753
  341poe    c31 4081   1.165   0.604   2.311 -0.1116  0.8117  0.0847
  341poe     o2 4082   1.207   0.650   2.185 -0.1262  0.5563 -0.0149
  341poe    c23 4083   1.249   0.784   2.169  0.1143  0.5142  0.2629
  341poe    c23 4084   1.180   0.833   2.040  0.1513  0.3983  0.1991
  341poe     o2 4085   1.195   0.725   1.950 -0.5226  0.2587  0.2499
  341poe    c23 4086   1.179   0.745   1.811  0.1085  0.1521  0.1603
  341poe    c23 4087   1.145   0.606   1.754 -0.8548  0.1286  0.7637
  341poe     o2 4088   1.212   0.513   1.836  0.0999  0.0561 -0.0644
  341poe    c23 4089   1.119   0.415   1.877 -0.0287  0.3484  0.3534
  341poe    c23 4090   1.201   0.317   1.963 -0.2522  0.5587  0.8100
  341poe     o2 4091   1.266   0.392   2.063  1.0462 -0.0216  0.4211
  341poe    c31 4092   1.327   0.305   2.155  0.3357 -0.5780  0.3686
  342poe    c31 4093   4.829   4.684   4.648 -0.3005  0.0261 -0.1826
  342poe     o2 4094   4.873   4.642   4.520  0.2534 -0.0783  0.0406
  342poe    c23 4095   4.933   4.750   4.452  0.3125 -0.3755 -0.3843
  342poe    c23 4096   4.962   4.715   4.305  0.1778 -0.7506 -0.3223
  342poe     o2 4097   4.851   4.638   4.266 -0.6342  0.4062 -0.3691
  342poe    c23 4098   4.847   4.605   4.129  0.1307  0.1829 -0.3401
  342poe    c23 4099   4.724   4.515   4.112 -0.1446  0.4844  0.0554
  342poe     o2 4100   4.709   4.438   4.230  0.6804 -0.1854 -0.2704
  342poe    c23 4101   4.792   4.326   4.249  1.0911  0.1961  0.2180
  342poe    c23 4102   4.758   4.261   4.385  0.1814  0.0687 -0.0651
  342poe     o2 4103   4.768   4.365   4.480  0.2091  0.0040  0.0022
  342poe    c31 4104   4.776   4.288   4.598  0.4283 -0.1649 -0.1223
  343poe    c31 4105   3.378   3.089   2.801 -0.1798 -0.1757  0.1532
  343poe     o2 4106   3.492   3.105   2.881 -0.2090 -0.0204  0.1642
  343poe    c23 4107   3.610   3.119   2.804 -0.3238 -0.1133 -0.0288
  343poe    c23 4108   3.711   3.085   2.915  0.1478  0.4894 -0.2663
  343poe     o2 4109   3.663   3.167   3.019  0.5409  0.8407 -0.3601
  343poe    c23 4110   3.743   3.145   3.133  0.2624  0.4262 -0.2442
  343poe    c23 4111   3.689   3.242   3.241 -0.5203 -1.0260  0.7048
  343poe     o2 4112   3.550   3.222   3.231 -0.6748  0.0712  0.6094
  343poe    c23 4113   3.474   3.332   3.276 -0.0090  0.5876  0.4787
  343poe    c23 4114   3.341   3.334   3.200  0.4386  0.5187 -0.3189
  343poe     o2 4115   3.352   3.286   3.068  0.3891  0.6295 -0.3646
  343poe    c31 4116   3.259   3.366   2.999 -1.0124 -0.4510  0.2193
  344poe    c31 4117   2.913   3.309   4.239  0.9921 -0.6481  0.5631
  344poe     o2 4118   2.992   3.381   4.145  0.0735 -0.3504  0.0051
  344poe    c23 4119   3.056   3.308   4.043  0.3538  0.1000 -0.1379
  344poe    c23 4120   3.130   3.411   3.954  0.2566  0.1411 -0.1711
  344poe     o2 4121   3.054   3.523   3.915  0.3302  0.5970  0.9543
  344poe    c23 4122   3.151   3.616   3.874  0.5901 -0.2521 -0.4344
  344poe    c23 4123   3.086   3.748   3.919  0.0084 -0.7172  0.1039
  344poe     o2 4124   3.046   3.721   4.052  0.0239 -0.1642  0.2211
  344poe    c23 4125   3.027   3.840   4.126  0.2753 -0.1263  0.2254
  344poe    c23 4126   2.985   3.808   4.270  0.5152 -0.2586  0.2655
  344poe     o2 4127   2.932   3.678   4.256 -0.8892  0.3500 -0.2098
  344poe    c31 4128   2.872   3.647   4.379  0.3154  0.4296  0.4102
  345poe    c31 4129   1.595   0.331   0.229 -0.2471  0.2320 -0.5667
  345poe     o2 4130   1.541   0.316   0.359 -0.2610 -0.1680 -0.6185
  345poe    c23 4131   1.600   0.207   0.426  0.2580  0.4092 -0.1262
  345poe    c23 4132   1.533   0.217   0.564 -0.7261 -0.4982 -0.5294
  345poe     o2 4133   1.548   0.346   0.618  0.2980 -0.7800 -0.1276
  345poe    c23 4134   1.484   0.371   0.741 -0.2665  0.0042 -0.5705
  345poe    c23 4135   1.442   0.519   0.735  0.0798  0.1015 -0.6013
  345poe     o2 4136   1.383   0.542   0.609 -0.3782  0.0252 -0.4035
  345poe    c23 4137   1.390   0.681   0.587  0.3677  0.1184  0.3539
  345poe    c23 4138   1.359   0.698   0.437  0.0782  0.3181  0.4345
  345poe     o2 4139   1.435   0.599   0.372 -0.0115  0.3547  0.2747
  345poe    c31 4140   1.424   0.636   0.236 -0.6125 -0.0961  0.1989
  346poe    c31 4141   2.608   0.265   4.639 -0.0731  0.1208  0.1870
  346poe     o2 4142   2.572   0.147   4.572  0.2683  0.1709 -0.0901
  346poe    c23 4143   2.579   0.158   4.431  0.7155  0.4508 -0.0473
  346poe    c23 4144   2.608   0.018   4.374  0.7686  0.2887  0.3692
  346poe     o2 4145   2.543  -0.065   4.467  0.3472  0.0401 -0.1383
  346poe    c23 4146   2.505  -0.189   4.412  0.2379 -0.0311  0.0923
  346poe    c23 4147   2.501  -0.302   4.516 -0.3536  0.1137  0.2287
  346poe     o2 4148   2.521  -0.227   4.633  0.4225  0.4211 -0.0944
  346poe    c23 4149   2.464  -0.269   4.755  0.2443  0.1700 -0.2657
  346poe    c23 4150   2.502  -0.169   4.865 -0.5791 -0.5865  0.7354
  346poe     o2 4151   2.499  -0.041   4.806 -0.0608 -0.4014  1.1011
  346poe    c31 4152   2.506   0.061   4.904 -0.1344  0.0690  0.6228
  347poe    c31 4153   5.254   2.184   6.344  0.4716 -0.0837 -0.8899
  347poe     o2 4154   5.241   2.259   6.226 -0.1279  0.1850 -0.6570
  347poe    c23 4155   5.368   2.314   6.198  0.0766 -0.0952 -0.2831
  347poe    c23 4156   5.330   2.439   6.116  0.3485  0.1811  0.0030
  347poe     o2 4157   5.226   2.411   6.024  0.0964 -0.3851  0.4526
  347poe    c23 4158   5.139   2.518   5.995 -0.0193 -0.5621  0.1493
  347poe    c23 4159   5.010   2.453   5.940 -0.5286  0.3976  0.1860
  347poe     o2 4160   4.973   2.346   6.024 -0.1367 -0.0005 -0.1422
  347poe    c23 4161   4.849   2.362   6.089 -0.2467 -0.6184 -0.1939
  347poe    c23 4162   4.845   2.230   6.167  0.2579 -0.2637  0.4449
  347poe     o2 4163   4.966   2.158   6.181  0.1379 -0.6034 -0.2399
  347poe    c31 4164   4.930   2.031   6.232 -0.5711 -0.4969 -0.4593
  348poe    c31 4165   6.276   0.686   5.025  0.3815 -0.6770  0.3271
  348poe     o2 4166   6.146   0.693   4.971  0.6315  0.9064 -0.1311
  348poe    c23 4167   6.068   0.763   5.065  0.5677  0.4151  0.1841
  348poe    c23 4168   5.938   0.801   4.993  0.2583  0.1271  0.5804
  348poe     o2 4169   5.890   0.680   4.941 -0.1325  0.2709  0.6003
  348poe    c23 4170   5.792   0.701   4.841 -0.0437 -0.1997  0.4125
  348poe    c23 4171   5.752   0.560   4.793  0.1753 -0.1456  0.0639
  348poe     o2 4172   5.865   0.476   4.796 -0.3070 -0.8047  0.1078
  348poe    c23 4173   5.909   0.446   4.665  0.0691  0.5763 -0.1019
  348poe    c23 4174   6.061   0.426   4.678 -0.0895 -0.5364  0.1760
  348poe     o2 4175   6.122   0.532   4.749  0.1581 -0.3737 -0.2719
  348poe    c31 4176   6.181   0.616   4.653  0.1988  0.4508  0.4675
  349poe    c31 4177   6.692   2.976   4.828 -0.0311  0.1904 -0.2226
  349poe     o2 4178   6.764   2.981   4.706  0.6109  0.1873  0.1521
  349poe    c23 4179   6.825   3.109   4.700  0.4520  0.2873  0.6147
  349poe    c23 4180   6.922   3.121   4.582  0.0976 -0.0972  0.2764
  349poe     o2 4181   6.851   3.062   4.476  0.2578 -0.1097  0.1749
  349poe    c23 4182   6.922   3.057   4.354  0.0032  0.0944  0.0153
  349poe    c23 4183   6.845   2.946   4.280  0.6170 -0.6351  0.4514
  349poe     o2 4184   6.840   2.847   4.381 -0.2187 -0.4290  0.6202
  349poe    c23 4185   6.785   2.727   4.332 -0.4060 -0.0646 -0.0825
  349poe    c23 4186   6.739   2.640   4.450 -0.4717 -0.2360 -0.2326
  349poe     o2 4187   6.694   2.730   4.550 -0.4632  0.0941 -0.5255
  349poe    c31 4188   6.611   2.652   4.633 -0.0491  0.2756  0.0574
  350poe    c31 4189   3.156   3.837   6.052 -0.4664 -0.0894 -0.1783
  350poe     o2 4190   3.253   3.836   5.950  0.1389 -0.2030  0.3935
  350poe    c23 4191   3.380   3.806   6.004  0.3503  0.2738  0.1580
  350poe    c23 4192   3.415   3.660   6.035 -0.1503  0.1955  0.3609
  350poe     o2 4193   3.398   3.569   5.929  0.5459  0.4459  0.0300
  350poe    c23 4194   3.511   3.568   5.844 -0.0266 -0.0279 -0.7420
  350poe    c23 4195   3.531   3.437   5.766  0.8772  0.3984 -1.2379
  350poe     o2 4196   3.407   3.391   5.718  0.3792 -0.3369  0.6362
  350poe    c23 4197   3.403   3.251   5.707  0.0504 -0.2723 -0.1294
  350poe    c23 4198   3.261   3.199   5.675 -0.0955 -0.1668  0.3380
  350poe     o2 4199   3.191   3.281   5.765  0.3904  0.1231  0.4574
  350poe    c31 4200   3.054   3.253   5.745  0.5788  0.0578 -0.7728
  351poe    c31 4201   4.282   1.439   3.034 -0.1762  0.0111 -0.5821
  351poe     o2 4202   4.399   1.366   3.006 -0.0883  0.0220 -0.2375
  351poe    c23 4203   4.359   1.251   2.934  0.4434 -0.2423 -0.1188
  351poe    c23 4204   4.481   1.170   2.888  0.7766  0.3674 -0.3117
  351poe     o2 4205   4.568   1.169   2.999  0.1593 -0.0141  0.1710
  351poe    c23 4206   4.698   1.118   2.982  0.3325  0.3521  0.4003
  351poe    c23 4207   4.762   1.160   3.116 -0.0009  0.2822  0.5805
  351poe     o2 4208   4.734   1.297   3.130 -0.3499  0.2474  0.2487
  351poe    c23 4209   4.762   1.355   3.256  0.7047  0.3680 -0.0332
  351poe    c23 4210   4.699   1.495   3.253 -0.2743 -0.0626 -0.0141
  351poe     o2 4211   4.574   1.500   3.187 -0.1955 -0.2729 -0.1775
  351poe    c31 4212   4.534   1.634   3.175 -0.4004 -0.3212 -0.0427
  352poe    c31 4213   5.885   0.837   6.417 -0.2449 -0.9241  0.2629
  352poe     o2 4214   5.898   0.869   6.554  0.4078  0.0386 -0.0115
  352poe    c23 4215   5.945   0.760   6.629  0.1754  0.2596  0.4565
  352poe    c23 4216   5.905   0.783   6.776 -0.3403  0.2803  0.3146
  352poe     o2 4217   5.939   0.918   6.801  0.1000  0.1001  0.6893
  352poe    c23 4218   5.884   0.946   6.928 -0.5623  0.0477  0.4157
  352poe    c23 4219   5.820   1.086   6.919 -0.9788 -0.1450  0.3469
  352poe     o2 4220   5.769   1.084   6.788 -0.7978  0.3221  0.2653
  352poe    c23 4221   5.719   1.213   6.761  0.2125  0.6898  0.1278
  352poe    c23 4222   5.672   1.207   6.614  0.7285 -0.1499 -0.0129
  352poe     o2 4223   5.775   1.157   6.532  0.5604 -0.1175 -0.2451
  352poe    c31 4224   5.764   1.176   6.393  0.0045  0.7751 -0.0905
  353poe    c31 4225   4.433   3.620   2.580  0.4900 -0.0117 -0.4435
  353poe     o2 4226   4.297   3.653   2.597  0.5433 -0.1766  0.3373
  353poe    c23 4227   4.235   3.678   2.473  0.0067 -0.1541  0.6084
  353poe    c23 4228   4.111   3.766   2.502 -0.0198  0.0717 -0.1656
  353poe     o2 4229   4.064   3.708   2.621 -0.3356  0.0941 -0.2803
  353poe    c23 4230   3.942   3.768   2.662  0.0235  0.6584 -0.0205
  353poe    c23 4231   3.895   3.646   2.743  0.1536  0.8278  0.3101
  353poe     o2 4232   4.001   3.592   2.819  0.1492 -0.0163 -0.2661
  353poe    c23 4233   3.978   3.469   2.884  0.3579  0.1358  0.1029
  353poe    c23 4234   4.118   3.429   2.932  0.2391 -0.0992  0.2565
  353poe     o2 4235   4.203   3.465   2.825  0.1828 -0.3525  0.1230
  353poe    c31 4236   4.325   3.395   2.826  0.3488 -0.0662  0.5702
  354poe    c31 4237   0.551   4.331   0.019  0.3203  0.9056 -0.3103
  354poe     o2 4238   0.613   4.207  -0.004 -0.7408  0.2979  0.0307
  354poe    c23 4239   0.576   4.142  -0.123 -0.4301 -0.0789  0.1355
  354poe    c23 4240   0.568   3.991  -0.093 -0.2822 -0.0153  0.4923
  354poe     o2 4241   0.684   3.960  -0.020  0.2132 -0.2097 -0.3627
  354poe    c23 4242   0.680   3.833   0.040 -0.1172  0.1160  0.3237
  354poe    c23 4243   0.781   3.832   0.156  0.0594  0.1954  0.1709
  354poe     o2 4244   0.786   3.965   0.203  0.4050  0.2939 -0.1352
  354poe    c23 4245   0.746   3.991   0.336 -0.7754 -0.1117 -0.3918
  354poe    c23 4246   0.770   4.141   0.362 -0.8582 -0.1061 -0.3495
  354poe     o2 4247   0.724   4.217   0.252 -0.4159  0.1698 -0.3439
  354poe    c31 4248   0.785   4.344   0.267 -0.0931 -0.0062 -0.1487
  355poe    c31 4249   4.142   1.864   0.287  0.0927 -0.3068 -0.0265
  355poe     o2 4250   4.033   1.821   0.209  0.1950 -0.2714 -0.1896
  355poe    c23 4251   4.015   1.909   0.100 -0.0377 -0.0510  0.0245
  355poe    c23 4252   3.864   1.897   0.072  0.0571  0.3496 -0.6922
  355poe     o2 4253   3.818   1.769   0.033  0.4517 -0.2907  0.8568
  355poe    c23 4254   3.879   1.726  -0.087  0.8120  0.3506  0.8032
  355poe    c23 4255   3.898   1.574  -0.073  0.2368  0.2198  0.1918
  355poe     o2 4256   3.989   1.553   0.032 -0.1761 -0.2025  0.4708
  355poe    c23 4257   4.014   1.417   0.060  0.1407 -0.2629 -0.0856
  355poe    c23 4258   4.107   1.409   0.183  0.0852  0.2031 -0.0103
  355poe     o2 4259   4.045   1.504   0.266 -0.3031  0.3517 -0.4596
  355poe    c31 4260   4.089   1.470   0.396 -0.1597  0.0584 -0.5831
  356poe    c31 4261   4.035   3.193   2.044 -0.1643  0.6954  0.4411
  356poe     o2 4262   4.152   3.131   2.092 -0.1369  0.3294 -0.0878
  356poe    c23 4263   4.111   3.025   2.176  0.1098 -0.5295 -1.0349
  356poe    c23 4264   4.233   2.945   2.228  0.1255  0.3143  0.2544
  356poe     o2 4265   4.306   3.059   2.268  0.7605  0.0786 -0.2172
  356poe    c23 4266   4.440   3.020   2.286  0.6230 -0.2672  0.0686
  356poe    c23 4267   4.517   3.147   2.327 -0.5497  0.4612  0.0512
  356poe     o2 4268   4.506   3.237   2.220  0.0871  0.2783 -0.1682
  356poe    c23 4269   4.570   3.361   2.238  0.0789  0.2520  0.0391
  356poe    c23 4270   4.449   3.454   2.216  0.1943  0.3308 -0.2642
  356poe     o2 4271   4.375   3.398   2.110 -0.2880  0.2097  0.1316
  356poe    c31 4272   4.340   3.494   2.013 -0.0352  0.4024  0.2290
  357poe    c31 4273   0.982   6.407   3.052  0.1268  0.0872  0.0954
  357poe     o2 4274   1.032   6.428   3.183 -0.1760 -0.3519  0.2827
  357poe    c23 4275   1.084   6.306   3.231  0.3708 -0.0266  0.5230
  357poe    c23 4276   1.150   6.326   3.369  0.4435 -0.1383  0.5041
  357poe     o2 4277   1.060   6.374   3.466  0.3796  1.1414 -0.1698
  357poe    c23 4278   1.114   6.395   3.595 -0.3896  0.2002  0.3140
  357poe    c23 4279   0.997   6.440   3.685 -0.1838  0.4337  0.4624
  357poe     o2 4280   0.915   6.531   3.614 -0.1611  0.2642  0.2175
  357poe    c23 4281   0.783   6.544   3.661 -0.0646  0.1661  0.5185
  357poe    c23 4282   0.734   6.641   3.552 -0.2547 -0.1104  0.3542
  357poe     o2 4283   0.790   6.621   3.424 -0.5632 -0.2208  0.2351
  357poe    c31 4284   0.695   6.654   3.326 -0.1399  0.1372 -0.0626
  358poe    c31 4285   0.464   2.690   5.839  0.3795  0.0444  0.0703
  358poe     o2 4286   0.533   2.785   5.761  0.0530  0.1386 -0.1056
  358poe    c23 4287   0.530   2.911   5.826  0.0941  0.2309 -0.2830
  358poe    c23 4288   0.540   3.029   5.727  0.3694  0.3122 -0.1582
  358poe     o2 4289   0.651   3.012   5.642  0.1041 -0.2217 -0.4002
  358poe    c23 4290   0.664   3.121   5.554 -0.3732  0.0962 -0.0812
  358poe    c23 4291   0.801   3.112   5.484 -0.5165 -0.3890 -0.3036
  358poe     o2 4292   0.835   2.980   5.450  0.2121 -0.3703  0.3283
  358poe    c23 4293   0.970   2.983   5.408  0.0096  0.2414 -0.2956
  358poe    c23 4294   1.038   2.886   5.309 -0.0412 -0.1386  0.0404
  358poe     o2 4295   1.170   2.848   5.340  0.1241  0.1747 -0.2726
  358poe    c31 4296   1.186   2.723   5.277 -0.3476 -0.1907  0.3141
  359poe    c31 4297   1.467   3.496   4.053 -0.2305  0.2515 -0.0616
  359poe     o2 4298   1.442   3.614   4.127 -0.1083 -0.0730  0.5001
  359poe    c23 4299   1.544   3.656   4.214  0.4818  0.4006 -0.4054
  359poe    c23 4300   1.522   3.800   4.263  0.0838  0.4017 -0.5896
  359poe     o2 4301   1.388   3.790   4.307 -0.0345  0.4519 -0.9400
  359poe    c23 4302   1.322   3.910   4.339 -0.5241  0.1133 -0.6749
  359poe    c23 4303   1.185   3.880   4.404  0.1067  0.0676  0.6646
  359poe     o2 4304   1.136   3.779   4.319  0.0677  0.9371 -0.3569
  359poe    c23 4305   1.064   3.677   4.384 -0.1254  1.1024 -0.3102
  359poe    c23 4306   1.059   3.554   4.291  0.4190  0.6192  0.2925
  359poe     o2 4307   1.187   3.530   4.238  0.1023  0.5664 -0.4584
  359poe    c31 4308   1.201   3.396   4.195  0.5439  0.6338 -0.5289
  360poe    c31 4309   2.453   0.358   1.057 -0.8337  0.4940  0.1992
  360poe     o2 4310   2.347   0.308   0.979 -0.2745 -0.1526 -0.1610
  360poe    c23 4311   2.405   0.200   0.909  0.0202  0.0363 -0.2139
  360poe    c23 4312   2.330   0.165   0.779 -0.3995  0.0391  0.0221
  360poe     o2 4313   2.200   0.205   0.815 -0.4324 -0.3887  0.3786
  360poe    c23 4314   2.116   0.206   0.701 -0.4118  0.3234  0.3684
  360poe    c23 4315   1.976   0.216   0.764 -0.4598 -0.0510  0.3227
  360poe     o2 4316   2.008   0.334   0.835  0.1684  0.0104 -0.0601
  360poe    c23 4317   1.919   0.416   0.907  0.2736  0.4407 -0.4107
  360poe    c23 4318   1.997   0.533   0.968  0.5330  0.2383 -0.3537
  360poe     o2 4319   2.114   0.474   1.021  0.3912  0.4357  0.1819
  360poe    c31 4320   2.166   0.575   1.105  0.1606  0.5717  0.1645
  361poe    c31 4321   1.597   6.772   4.460 -0.2787 -0.0586 -0.5288
  361poe     o2 4322   1.476   6.747   4.392 -0.3304 -0.4379 -0.3013
  361poe    c23 4323   1.364   6.804   4.456 -0.1776 -0.2305 -0.2162
  361poe    c23 4324   1.261   6.847   4.350 -0.4334  0.7783  0.4290
  361poe     o2 4325   1.342   6.870   4.237 -0.4376  0.1620  0.3015
  361poe    c23 4326   1.271   6.924   4.128 -0.2354 -0.0437  0.0641
  361poe    c23 4327   1.394   6.940   4.037 -0.5764 -0.0530 -0.3995
  361poe     o2 4328   1.455   6.813   4.031  0.4485  0.3531  1.0361
  361poe    c23 4329   1.582   6.826   3.971 -0.0938 -0.3364 -0.3005
  361poe    c23 4330   1.653   6.692   4.000 -0.2237 -0.2177  0.5998
  361poe     o2 4331   1.649   6.672   4.139  0.2826  0.1643  0.6738
  361poe    c31 4332   1.763   6.602   4.181  0.0081 -0.6377  0.1139
  362poe    c31 4333   1.528   1.294   0.209 -0.4886 -0.4312  0.0873
  362poe     o2 4334   1.451   1.231   0.109 -0.7304  0.0216 -0.0128
  362poe    c23 4335   1.392   1.123   0.177  0.0175 -0.6537 -0.4170
  362poe    c23 4336   1.331   1.028   0.072 -0.7532 -0.0624 -0.5100
  362poe     o2 4337   1.431   0.945   0.017 -0.1966  0.1011  0.2323
  362poe    c23 4338   1.362   0.849  -0.060 -0.0324  0.2587 -0.1129
  362poe    c23 4339   1.464   0.757  -0.129 -0.3540 -0.0463 -0.1826
  362poe     o2 4340   1.574   0.744  -0.042 -0.4134  0.1236 -0.0817
  362poe    c23 4341   1.652   0.641  -0.100 -0.0822  0.5092 -0.3306
  362poe    c23 4342   1.790   0.625  -0.034  0.0456  0.2225 -0.6705
  362poe     o2 4343   1.866   0.744  -0.030 -0.0662  0.2710  0.0146
  362poe    c31 4344   1.959   0.740   0.076 -0.0240 -0.1841 -0.0349
  363poe    c31 4345   2.227   3.648   1.439  0.3708 -0.3647 -0.2677
  363poe     o2 4346   2.236   3.782   1.481  0.3009 -0.6379  0.6494
  363poe    c23 4347   2.346   3.801   1.567  0.7385 -0.0570 -0.0277
  363poe    c23 4348   2.397   3.945   1.579  0.0382  0.1929 -0.0111
  363poe     o2 4349   2.277   4.016   1.599 -0.0803 -0.1287  0.4362
  363poe    c23 4350   2.301   4.149   1.558  0.0478 -0.2480  0.1159
  363poe    c23 4351   2.164   4.219   1.548  0.5643  0.7945  0.2674
  363poe     o2 4352   2.068   4.134   1.489  0.2086  0.7436  0.9087
  363poe    c23 4353   1.961   4.126   1.580 -0.0064 -0.3584  0.5648
  363poe    c23 4354   1.910   3.987   1.622 -0.0703 -0.3735  0.4382
  363poe     o2 4355   2.022   3.902   1.612 -0.2429 -0.4696 -0.7940
  363poe    c31 4356   1.982   3.776   1.661  0.1833 -0.4864 -0.4831
  364poe    c31 4357   6.499   3.610   4.522 -0.1545 -0.1146  0.0510
  364poe     o2 4358   6.561   3.735   4.500 -0.7423  0.2172  0.2629
  364poe    c23 4359   6.577   3.805   4.622 -0.0448  0.7897 -0.1488
  364poe    c23 4360   6.714   3.874   4.611  0.1524  0.3642 -0.3841
  364poe     o2 4361   6.704   3.954   4.495  0.0110  0.4791 -0.2925
  364poe    c23 4362   6.830   3.977   4.435  0.6586 -0.8171  0.5075
  364poe    c23 4363   6.788   4.043   4.303  0.8098 -0.1355  0.7941
  364poe     o2 4364   6.699   3.951   4.244  0.9329  0.5342 -0.4817
  364poe    c23 4365   6.631   4.003   4.132  0.1146 -0.2417 -0.3564
  364poe    c23 4366   6.507   3.912   4.129 -0.3931  0.4322  0.0398
  364poe     o2 4367   6.485   3.884   4.265  0.3664 -0.4048 -0.0057
  364poe    c31 4368   6.353   3.916   4.303  0.2193 -0.6296 -0.3264
  365poe    c31 4369   4.744   1.379   6.620  0.3395  0.0035  0.4204
  365poe     o2 4370   4.641   1.349   6.711 -0.0978  0.2403  0.0109
  365poe    c23 4371   4.650   1.427   6.828  0.5978 -0.7103  0.6076
  365poe    c23 4372   4.612   1.328   6.939 -0.0917 -0.0262  0.9858
  365poe     o2 4373   4.493   1.275   6.885 -0.0199  0.7163  0.0826
  365poe    c23 4374   4.452   1.157   6.951  0.1049  0.2947 -0.5761
  365poe    c23 4375   4.336   1.104   6.865  0.2251 -0.6373 -0.1713
  365poe     o2 4376   4.381   1.118   6.732  0.8140 -0.0409  0.0839
  365poe    c23 4377   4.276   1.128   6.638  0.6924  0.6560  0.2862
  365poe    c23 4378   4.332   1.170   6.501  0.5292 -0.4816 -0.1433
  365poe     o2 4379   4.420   1.276   6.532 -0.7443  0.7110 -0.4875
  365poe    c31 4380   4.454   1.342   6.412  0.2626  1.0442 -0.0306
  366poe    c31 4381   2.792   5.285   0.652 -0.4806 -0.3945  0.1569
  366poe     o2 4382   2.779   5.404   0.727  0.0309 -0.0888 -0.2239
  366poe    c23 4383   2.755   5.512   0.640  1.0148  0.5823  0.3165
  366poe    c23 4384   2.699   5.628   0.724  0.5202  0.1575  0.5818
  366poe     o2 4385   2.589   5.563   0.785 -0.4913  0.3961 -0.9130
  366poe    c23 4386   2.505   5.654   0.853 -0.2835 -0.2727  0.2695
  366poe    c23 4387   2.409   5.571   0.939 -0.4446 -0.4902 -0.1147
  366poe     o2 4388   2.484   5.470   1.003  0.1332 -0.0480 -0.0854
  366poe    c23 4389   2.397   5.374   1.060  0.2312 -0.2985 -0.3557
  366poe    c23 4390   2.488   5.250   1.068 -0.1785 -0.5929 -0.2992
  366poe     o2 4391   2.578   5.253   0.960 -0.3456  0.0089 -0.4264
  366poe    c31 4392   2.672   5.149   0.976  0.2198  0.6469  0.5388
  367poe    c31 4393   2.009   2.263   0.104  0.0876 -0.0905 -0.0026
  367poe     o2 4394   2.074   2.159   0.035  0.1722 -0.3158  0.4188
  367poe    c23 4395   2.187   2.221  -0.021  0.2177  0.0478  0.9093
  367poe    c23 4396   2.307   2.124  -0.028 -0.0609 -0.2252 -0.3804
  367poe     o2 4397   2.241   2.002  -0.050  0.2644 -0.4235 -0.2560
  367poe    c23 4398   2.325   1.919  -0.128 -0.0645 -0.6294 -0.3907
  367poe    c23 4399   2.253   1.784  -0.112 -0.5523 -0.3049  0.1761
  367poe     o2 4400   2.116   1.818  -0.110 -0.2469  0.9762  0.4862
  367poe    c23 4401   2.020   1.714  -0.121  0.4149  0.3638  0.4466
  367poe    c23 4402   1.888   1.786  -0.090  0.3052 -0.1490  1.1932
  367poe     o2 4403   1.910   1.919  -0.049  0.0560  0.0959  0.5315
  367poe    c31 4404   1.792   1.981  -0.003 -0.2356  0.3663 -0.5359
  368poe    c31 4405   2.682   4.714   0.800  0.0834 -0.3655 -0.0239
  368poe     o2 4406   2.774   4.699   0.694 -0.0061  0.0498 -0.1604
  368poe    c23 4407   2.714   4.653   0.575  0.1072  0.1873 -0.2719
  368poe    c23 4408   2.828   4.567   0.517 -0.3647 -0.2337 -0.5884
  368poe     o2 4409   2.933   4.658   0.496 -0.3299 -0.2332 -0.4194
  368poe    c23 4410   3.057   4.592   0.484 -0.2473 -0.2448  0.4818
  368poe    c23 4411   3.170   4.693   0.511 -0.4957  0.1921 -0.1085
  368poe     o2 4412   3.125   4.747   0.633  0.4100  0.2355  0.2063
  368poe    c23 4413   3.213   4.832   0.704  0.1500  0.6265  0.0574
  368poe    c23 4414   3.152   4.830   0.846 -0.3556 -0.5128 -0.1604
  368poe     o2 4415   3.013   4.851   0.841 -0.3196 -0.2294 -0.0235
  368poe    c31 4416   2.955   4.856   0.970 -0.6432 -0.3654 -0.1625
  369poe    c31 4417   5.860   1.533   0.810  0.2344  0.0838 -0.0584
  369poe     o2 4418   5.799   1.619   0.717  0.1411  0.2032  0.1125
  369poe    c23 4419   5.893   1.702   0.653  0.2521 -0.1491 -0.1883
  369poe    c23 4420   5.855   1.689   0.504  0.6572  0.5707 -0.3616
  369poe     o2 4421   5.729   1.751   0.487  0.3058  0.0277  0.2276
  369poe    c23 4422   5.682   1.716   0.359 -0.1347  0.2440  0.3289
  369poe    c23 4423   5.530   1.694   0.373 -0.0920 -0.5017 -0.3404
  369poe     o2 4424   5.497   1.627   0.492  0.5465  0.4411  0.3863
  369poe    c23 4425   5.358   1.607   0.507  0.5182  0.6304  0.3734
  369poe    c23 4426   5.354   1.529   0.640  0.1415 -0.2690 -0.1562
  369poe     o2 4427   5.464   1.583   0.709  0.1573 -0.3670 -0.1062
  369poe    c31 4428   5.459   1.546   0.845 -0.4190  0.5705  0.1332
  370poe    c31 4429   6.023   2.423   3.008 -0.1165  0.4986 -0.0966
  370poe     o2 4430   5.984   2.447   2.874 -0.0550  0.1242 -0.1823
  370poe    c23 4431   5.845   2.465   2.860 -0.0107  0.5421 -0.0912
  370poe    c23 4432   5.794   2.429   2.719  0.1194  0.1773 -0.0453
  370poe     o2 4433   5.879   2.506   2.636 -0.5398  0.9249 -0.0328
  370poe    c23 4434   5.879   2.490   2.496  0.0986  0.5473  0.0046
  370poe    c23 4435   5.968   2.374   2.448 -0.3642 -0.1021  0.7018
  370poe     o2 4436   6.084   2.378   2.528  0.0578 -0.1378  0.0963
  370poe    c23 4437   6.136   2.252   2.566  0.0931 -0.2156 -0.2030
  370poe    c23 4438   6.259   2.272   2.656 -0.3613  0.2725  0.3249
  370poe     o2 4439   6.232   2.357   2.766  0.1928  0.7802  0.0764
  370poe    c31 4440   6.343   2.360   2.852  0.3524 -0.7145 -0.0492
  371poe    c31 4441   1.518   4.278   5.686 -0.7995 -0.1838  0.2725
  371poe     o2 4442   1.594   4.389   5.643  0.0212 -1.0011 -0.4530
  371poe    c23 4443   1.537   4.448   5.528  0.7263 -0.3400 -0.4697
  371poe    c23 4444   1.593   4.592   5.521 -0.2187  0.0751  0.2499
  371poe     o2 4445   1.732   4.569   5.516 -0.1266  0.6723  0.0722
  371poe    c23 4446   1.810   4.686   5.530  0.6366  0.1040  0.6899
  371poe    c23 4447   1.937   4.659   5.612  0.6219 -0.5726  0.4965
  371poe     o2 4448   1.881   4.582   5.716 -0.0112  0.2548  0.7841
  371poe    c23 4449   1.982   4.551   5.810  0.3056 -0.8039  0.1149
  371poe    c23 4450   1.918   4.450   5.908 -0.1125 -0.1983  0.4737
  371poe     o2 4451   1.860   4.349   5.829 -0.0335  0.2808 -0.2094
  371poe    c31 4452   1.836   4.232   5.903 -0.0192  0.5394  0.2091
  372poe    c31 4453   2.395   4.070   4.539  0.4522 -0.0783  0.7414
  372poe     o2 4454   2.358   3.937   4.566 -0.3106 -0.0899 -0.2815
  372poe    c23 4455   2.360   3.892   4.433  0.0592  0.1321 -0.3509
  372poe    c23 4456   2.403   3.744   4.433  0.4325  0.2375  0.0294
  372poe     o2 4457   2.342   3.666   4.533  0.3795  0.2537  0.0098
  372poe    c23 4458   2.356   3.527   4.552  0.2122  0.2437  0.0592
  372poe    c23 4459   2.264   3.494   4.671  0.2723  0.3539  0.1354
  372poe     o2 4460   2.270   3.612   4.749  0.3752  0.2844  0.2328
  372poe    c23 4461   2.167   3.613   4.845 -0.1321  0.4058 -0.3048
  372poe    c23 4462   2.209   3.722   4.945 -0.1950  0.1993 -0.0533
  372poe     o2 4463   2.236   3.830   4.859  0.3197 -0.0678 -0.2339
  372poe    c31 4464   2.237   3.943   4.943 -0.5450 -0.3198  0.1260
  373poe    c31 4465   5.265   1.334   5.032 -0.1086  0.3680 -0.4462
  373poe     o2 4466   5.309   1.360   4.900  0.1614  0.4294 -0.3448
  373poe    c23 4467   5.185   1.376   4.834 -0.0604 -0.0983 -0.0632
  373poe    c23 4468   5.214   1.355   4.685  0.4019 -0.4644  0.0771
  373poe     o2 4469   5.343   1.413   4.680  0.1233  0.1428 -0.1494
  373poe    c23 4470   5.390   1.433   4.549  0.3023  0.7289  0.0037
  373poe    c23 4471   5.532   1.491   4.563  0.3513  0.6285 -0.0827
  373poe     o2 4472   5.577   1.428   4.680 -0.4057 -0.8450 -0.5588
  373poe    c23 4473   5.699   1.482   4.727 -0.4541 -1.1217 -0.1001
  373poe    c23 4474   5.735   1.385   4.840  0.3285  0.0248  0.6554
  373poe     o2 4475   5.625   1.359   4.924 -0.2639 -0.1224 -0.1516
  373poe    c31 4476   5.659   1.290   5.043 -0.2842  0.1435  0.0095
  374poe    c31 4477   4.516   4.866   1.438 -0.6770 -0.1227  0.0284
  374poe     o2 4478   4.527   4.782   1.325 -0.4266 -0.2103  0.1154
  374poe    c23 4479   4.650   4.807   1.262 -0.3103  0.0622  0.4487
  374poe    c23 4480   4.678   4.690   1.167 -0.3429  0.5718 -0.1966
  374poe     o2 4481   4.557   4.624   1.139 -0.0599  0.0818 -0.2900
  374poe    c23 4482   4.568   4.488   1.104 -0.1650  0.0647 -0.2606
  374poe    c23 4483   4.427   4.433   1.076  0.0240 -0.4673 -0.1707
  374poe     o2 4484   4.346   4.522   1.150  0.2718 -0.2466 -0.1613
  374poe    c23 4485   4.221   4.476   1.197  0.0923  0.3854 -0.0094
  374poe    c23 4486   4.147   4.599   1.251 -0.2414  0.3912 -0.4736
  374poe     o2 4487   4.242   4.678   1.317  0.1177 -0.1353 -0.3547
  374poe    c31 4488   4.174   4.767   1.402 -0.5429 -0.7624 -0.2221
  375poe    c31 4489   3.035   4.299   4.703 -0.7816  0.2846 -0.2926
  375poe     o2 4490   3.161   4.317   4.764 -0.6793  0.2969 -0.5057
  375poe    c23 4491   3.203   4.443   4.715  0.0952  0.3981  0.3828
  375poe    c23 4492   3.346   4.474   4.764  0.2726  0.3707 -0.1108
  375poe     o2 4493   3.359   4.429   4.897  0.1070 -0.1542 -0.2680
  375poe    c23 4494   3.474   4.460   4.972  0.0237 -0.4536 -0.0155
  375poe    c23 4495   3.459   4.382   5.104  0.4851  0.1882  0.4216
  375poe     o2 4496   3.426   4.250   5.064  0.4589  0.2439  0.2558
  375poe    c23 4497   3.352   4.186   5.166  0.2952  0.2371  0.1318
  375poe    c23 4498   3.286   4.066   5.096 -0.1144  0.2235  0.5360
  375poe     o2 4499   3.252   4.098   4.963  0.7908 -0.6337  0.0837
  375poe    c31 4500   3.164   4.008   4.899 -0.3524  0.2277  0.4146
  376poe    c31 4501   0.103   4.053   2.921  0.7576  0.7839  0.5842
  376poe     o2 4502   0.150   4.133   2.815 -0.0800 -0.1123 -0.4978
  376poe    c23 4503   0.282   4.101   2.779  0.0553  0.1366 -0.2273
  376poe    c23 4504   0.324   4.170   2.647 -0.3756  0.5819 -0.1350
  376poe     o2 4505   0.205   4.144   2.576  0.0838 -0.5435 -0.5190
  376poe    c23 4506   0.205   4.225   2.461 -0.1353  0.4566  0.1703
  376poe    c23 4507   0.060   4.260   2.426 -0.2480 -0.2588 -0.1024
  376poe     o2 4508  -0.000   4.280   2.552  0.0725 -0.2496  0.0504
  376poe    c23 4509  -0.138   4.308   2.543  0.1600  0.1745  0.0163
  376poe    c23 4510  -0.191   4.312   2.688 -0.3364 -0.2859 -0.1461
  376poe     o2 4511  -0.129   4.204   2.754  0.4494  0.6263  0.6510
  376poe    c31 4512  -0.205   4.144   2.857 -0.1266  0.8916  0.3900
  377poe    c31 4513   3.676   4.988   2.293 -0.2495  0.0667 -0.7020
  377poe     o2 4514   3.580   4.886   2.274 -0.0112 -0.2086 -0.4443
  377poe    c23 4515   3.621   4.783   2.188 -0.1125 -0.0091 -0.7338
  377poe    c23 4516   3.542   4.651   2.198 -0.0399  0.0405  0.6935
  377poe     o2 4517   3.407   4.694   2.193  0.0120  0.1557  0.2523
  377poe    c23 4518   3.309   4.595   2.216  0.1957 -0.0935 -0.0278
  377poe    c23 4519   3.256   4.629   2.356  0.2525 -0.0749 -0.0111
  377poe     o2 4520   3.264   4.767   2.384  0.0555 -0.0865  0.1022
  377poe    c23 4521   3.245   4.780   2.523  0.0379  0.2125  0.0728
  377poe    c23 4522   3.276   4.930   2.537  0.2925  0.1459  0.2307
  377poe     o2 4523   3.392   4.983   2.476  0.3693 -0.0168  0.2331
  377poe    c31 4524   3.465   5.050   2.576 -0.0863  0.1396  0.4632
  378poe    c31 4525   5.633   2.173   2.981 -0.4237  0.3163  0.2400
  378poe     o2 4526   5.519   2.135   2.907 -0.6401 -0.0069  0.7308
  378poe    c23 4527   5.468   2.230   2.816  0.1328  0.4274  0.7422
  378poe    c23 4528   5.317   2.201   2.815  0.2941 -0.4266  0.1651
  378poe     o2 4529   5.308   2.062   2.839 -0.2446 -0.5576 -0.7616
  378poe    c23 4530   5.173   2.024   2.855 -0.3043  0.0287  0.1802
  378poe    c23 4531   5.180   1.915   2.963 -0.1376  0.1044  0.2455
  378poe     o2 4532   5.299   1.846   2.931 -0.0573  0.2403  0.2489
  378poe    c23 4533   5.317   1.757   3.039 -0.3733  0.1186  0.2037
  378poe    c23 4534   5.470   1.737   3.033 -0.3232  0.4559  0.3011
  378poe     o2 4535   5.543   1.850   2.991 -0.0178  0.1854  0.1010
  378poe    c31 4536   5.675   1.809   2.963 -0.1666 -0.2045 -0.0333
  379poe    c31 4537   5.691   0.071   1.303  0.0046  0.8505  0.3443
  379poe     o2 4538   5.553   0.070   1.274  0.1649 -0.4679 -0.4692
  379poe    c23 4539   5.468  -0.023   1.337 -0.0680  0.1270  0.1018
  379poe    c23 4540   5.450   0.017   1.485  0.1093  0.0926  0.1323
  379poe     o2 4541   5.393   0.140   1.521 -0.2381 -0.0268 -0.0053
  379poe    c23 4542   5.378   0.161   1.660  0.3375  0.5686 -0.0287
  379poe    c23 4543   5.343   0.311   1.664  0.8274  0.6838 -0.0426
  379poe     o2 4544   5.248   0.349   1.567  0.5327  0.0173 -0.0183
  379poe    c23 4545   5.172   0.456   1.620  0.0902 -0.2895 -0.0226
  379poe    c23 4546   5.060   0.483   1.519  0.2271  0.2515 -0.0350
  379poe     o2 4547   5.097   0.451   1.386  0.2224  0.3108 -0.0505
  379poe    c31 4548   5.027   0.530   1.293  0.2380  0.1772 -0.1754
  380poe    c31 4549   1.875   5.301   4.358 -0.0680 -0.1227  0.2716
  380poe     o2 4550   1.788   5.293   4.247  0.6889 -0.5426 -0.2931
  380poe    c23 4551   1.693   5.194   4.281  0.1878 -0.1776 -0.6181
  380poe    c23 4552   1.621   5.163   4.148 -0.1760  0.0561 -0.4756
  380poe     o2 4553   1.589   5.287   4.088 -0.0285  0.1767 -0.3090
  380poe    c23 4554   1.524   5.274   3.963 -0.3891 -0.6000 -0.0516
  380poe    c23 4555   1.534   5.410   3.891 -0.1601 -0.1251  0.8596
  380poe     o2 4556   1.671   5.436   3.908 -0.0096  0.0624 -0.4999
  380poe    c23 4557   1.707   5.566   3.868 -0.4173  0.2690 -0.2075
  380poe    c23 4558   1.854   5.572   3.914 -0.3207 -0.3924 -0.4174
  380poe     o2 4559   1.868   5.508   4.039  0.0350 -0.2588 -0.3893
  380poe    c31 4560   1.985   5.559   4.100 -0.3101 -0.0484  0.1064
  381poe    c31 4561   2.679   0.128   1.671  0.5480  0.1884  0.1019
  381poe     o2 4562   2.591   0.105   1.563 -0.1594 -0.2493  0.7627
  381poe    c23 4563   2.468   0.175   1.568 -0.0409  0.1299 -0.9676
  381poe    c23 4564   2.371   0.145   1.684  0.7197  0.0424 -0.3377
  381poe     o2 4565   2.331   0.010   1.673 -0.1189  0.2508  0.0956
  381poe    c23 4566   2.283  -0.045   1.794  0.0602  0.6691  0.3581
  381poe    c23 4567   2.280  -0.197   1.771 -0.0261  0.6578  0.4389
  381poe     o2 4568   2.179  -0.240   1.683  0.4627  0.3993 -0.0033
  381poe    c23 4569   2.202  -0.378   1.665  0.0821  0.2472  0.6366
  381poe    c23 4570   2.093  -0.454   1.587  0.3178  0.2686  0.2828
  381poe     o2 4571   2.053  -0.366   1.484 -0.1804  0.0959  0.3248
  381poe    c31 4572   1.984  -0.442   1.387 -0.7791  0.6554  0.3105
  382poe    c31 4573   5.930   4.074   6.748 -0.0675  0.5897 -0.3752
  382poe     o2 4574   5.823   3.995   6.795  0.5865  0.1383  0.3906
  382poe    c23 4575   5.821   3.994   6.936 -0.3468  0.3162  0.3864
  382poe    c23 4576   5.688   3.925   6.972 -0.1048  0.0538  0.7789
  382poe     o2 4577   5.680   3.808   6.893  0.1551  0.4988  0.0875
  382poe    c23 4578   5.551   3.752   6.902  0.3283  0.1044  0.1251
  382poe    c23 4579   5.531   3.672   6.772  0.6283  0.3652 -0.0850
  382poe     o2 4580   5.572   3.757   6.668  1.1500  0.1794 -0.0307
  382poe    c23 4581   5.581   3.707   6.536  0.3822  0.5162 -0.2148
  382poe    c23 4582   5.634   3.822   6.450  0.7792  0.5525  0.0756
  382poe     o2 4583   5.735   3.892   6.519  0.7640  0.3204  0.3353
  382poe    c31 4584   5.819   3.954   6.424 -0.1059  0.2612 -0.4938
  383poe    c31 4585   5.595   0.198   0.624 -0.1776 -0.0581 -0.1705
  383poe     o2 4586   5.710   0.279   0.609  0.0862 -0.3746  0.1072
  383poe    c23 4587   5.819   0.195   0.636  0.2011 -0.2707 -0.0339
  383poe    c23 4588   5.937   0.292   0.650 -0.1069  0.0964  0.0097
  383poe     o2 4589   5.946   0.370   0.533 -0.0423 -0.1812 -0.1680
  383poe    c23 4590   6.024   0.487   0.544  0.6318 -0.6010 -0.4081
  383poe    c23 4591   5.954   0.579   0.443  0.0789  0.0613  0.5675
  383poe     o2 4592   5.814   0.565   0.450  0.0192  0.3501  0.0278
  383poe    c23 4593   5.743   0.683   0.421 -0.4094  0.0580 -0.1290
  383poe    c23 4594   5.606   0.652   0.484 -0.3123  0.0947  0.1011
  383poe     o2 4595   5.543   0.527   0.466 -0.9240  0.4019  0.1080
  383poe    c31 4596   5.437   0.522   0.558 -0.7201 -0.0253  0.3202
  384poe    c31 4597   6.151   1.353   5.212 -0.7016  0.6447 -1.3391
  384poe     o2 4598   6.088   1.434   5.308 -0.1106  0.0802 -0.4611
  384poe    c23 4599   5.991   1.354   5.372  0.0883  0.4490  0.3191
  384poe    c23 4600   5.953   1.397   5.515 -0.1929  0.0307  0.3713
  384poe     o2 4601   5.944   1.538   5.511 -0.8177 -0.0076  0.3387
  384poe    c23 4602   5.960   1.606   5.633  0.4800 -0.2483  0.3196
  384poe    c23 4603   5.980   1.754   5.599  0.0630 -0.3001 -0.1584
  384poe     o2 4604   6.078   1.756   5.497  0.2761  0.2930  0.0544
  384poe    c23 4605   6.066   1.881   5.433 -0.0213  0.2723  0.0691
  384poe    c23 4606   6.169   1.875   5.319 -0.0343 -0.5535  0.0931
  384poe     o2 4607   6.141   1.745   5.273  0.0591 -0.5462  0.0147
  384poe    c31 4608   6.202   1.742   5.146  0.6212  0.2733  0.2596
  385poe    c31 4609   0.498   4.300   1.188 -0.2067  0.0980  0.0224
  385poe     o2 4610   0.453   4.279   1.320 -0.6345 -0.1596 -0.1637
  385poe    c23 4611   0.392   4.153   1.333  0.6766 -0.7776  0.0935
  385poe    c23 4612   0.356   4.171   1.482 -0.7012  0.1357 -0.3364
  385poe     o2 4613   0.264   4.277   1.496 -0.3790  0.3885 -0.1278
  385poe    c23 4614   0.203   4.275   1.623  0.5691  0.5940  0.3378
  385poe    c23 4615   0.099   4.387   1.607 -0.0205 -0.0010 -0.0385
  385poe     o2 4616   0.177   4.487   1.545 -0.2370 -0.1246 -0.5159
  385poe    c23 4617   0.120   4.613   1.518 -0.3260 -0.0518 -0.0086
  385poe    c23 4618   0.226   4.696   1.444  0.0970 -0.4634  0.1333
  385poe     o2 4619   0.285   4.607   1.351 -0.5880  0.0386 -0.8027
  385poe    c31 4620   0.346   4.696   1.260  0.5029  0.1227 -0.0230
  386poe    c31 4621   6.737   5.501   4.902 -0.2388 -0.0249  0.6385
  386poe     o2 4622   6.689   5.632   4.922 -0.5630 -0.0271 -0.0974
  386poe    c23 4623   6.681   5.693   4.795  0.0839  0.5647  0.1406
  386poe    c23 4624   6.651   5.839   4.833  0.1693  0.5411  0.2986
  386poe     o2 4625   6.529   5.826   4.903  0.0601 -0.3321 -0.0435
  386poe    c23 4626   6.455   5.939   4.941  0.0282 -0.2695 -0.2902
  386poe    c23 4627   6.358   5.884   5.047 -0.0800  0.0236 -0.2337
  386poe     o2 4628   6.423   5.790   5.130 -0.5801  0.1986  0.3650
  386poe    c23 4629   6.500   5.847   5.233 -0.3742  0.0050  0.3179
  386poe    c23 4630   6.561   5.731   5.314  0.4113  0.0261 -0.2295
  386poe     o2 4631   6.608   5.645   5.213  0.6262  0.1833 -0.2662
  386poe    c31 4632   6.641   5.516   5.262  0.6660  0.0852 -0.5516
  387poe    c31 4633   4.011   4.785   4.184  0.0960  0.7819  0.4855
  387poe     o2 4634   3.939   4.890   4.122 -0.2508 -0.1517 -0.7392
  387poe    c23 4635   4.024   4.966   4.040 -0.0802  0.0251 -0.4025
  387poe    c23 4636   3.943   5.074   3.966 -0.3812 -0.1617 -0.3461
  387poe     o2 4637   3.852   5.020   3.872 -0.9220 -0.1142  0.1438
  387poe    c23 4638   3.810   5.135   3.802 -0.1068 -0.0336 -0.2258
  387poe    c23 4639   3.699   5.092   3.704  0.0405  0.2239 -0.5076
  387poe     o2 4640   3.722   4.958   3.666 -0.3239 -0.0768  0.3029
  387poe    c23 4641   3.641   4.938   3.552 -0.6434 -0.3453  0.5714
  387poe    c23 4642   3.620   4.788   3.525 -0.1681 -0.1762 -0.8672
  387poe     o2 4643   3.738   4.712   3.515  0.0737  0.1496 -0.5655
  387poe    c31 4644   3.699   4.577   3.528 -0.6336  0.4192  0.1766
  388poe    c31 4645   5.690   2.175   1.976 -0.3166 -0.9630 -0.3958
  388poe     o2 4646   5.572   2.231   2.029  0.2775 -0.0634  0.0019
  388poe    c23 4647   5.545   2.362   1.984  0.6608  0.0450  0.0889
  388poe    c23 4648   5.397   2.401   2.000  0.6759  0.0573  0.2052
  388poe     o2 4649   5.367   2.341   2.123  0.3591 -0.4309 -0.1095
  388poe    c23 4650   5.228   2.359   2.141  0.5166  0.5584  0.1256
  388poe    c23 4651   5.187   2.290   2.273  0.0388 -0.0629 -0.3441
  388poe     o2 4652   5.248   2.164   2.257 -0.0551 -0.1155 -0.2890
  388poe    c23 4653   5.174   2.059   2.199 -0.1800  0.0368 -0.4081
  388poe    c23 4654   5.282   1.952   2.173 -0.0959 -0.0473  0.2547
  388poe     o2 4655   5.388   2.011   2.102 -0.1914 -0.3450 -0.1386
  388poe    c31 4656   5.486   1.919   2.057 -0.0125  0.1043 -0.6765
  389poe    c31 4657   4.514   5.683   4.839 -0.2343 -0.2264  0.1211
  389poe     o2 4658   4.471   5.804   4.781  0.7242 -0.0959 -0.3425
  389poe    c23 4659   4.494   5.910   4.871 -0.3277 -0.1422 -0.0042
  389poe    c23 4660   4.415   6.038   4.839  0.0611  0.1878  0.3500
  389poe     o2 4661   4.417   6.035   4.698 -0.1410 -0.1174  0.3541
  389poe    c23 4662   4.332   6.129   4.636  0.5746  0.5030  0.3012
  389poe    c23 4663   4.377   6.125   4.488 -0.4179  0.4185 -0.0029
  389poe     o2 4664   4.394   5.987   4.465  0.1693  0.4114  0.4562
  389poe    c23 4665   4.464   5.958   4.346  0.1792  0.2254  0.5064
  389poe    c23 4666   4.497   5.808   4.360  0.5713  0.2877  0.2799
  389poe     o2 4667   4.522   5.769   4.493 -0.2593 -0.3657  0.2506
  389poe    c31 4668   4.600   5.652   4.485 -0.4363 -0.4452 -0.4061
  390poe    c31 4669   5.911   1.083   0.958 -0.0889  0.2978  0.1086
  390poe     o2 4670   5.770   1.078   0.970 -0.1158  0.4237 -0.1451
  390poe    c23 4671   5.699   1.165   0.885 -0.2053  0.7227  0.2326
  390poe    c23 4672   5.549   1.135   0.906 -0.1040  0.1515  0.1494
  390poe     o2 4673   5.531   1.123   1.046  0.1820  0.0883  0.1828
  390poe    c23 4674   5.412   1.057   1.085  0.3556 -0.4429 -0.1580
  390poe    c23 4675   5.411   1.055   1.239  0.2405 -0.0999 -0.1536
  390poe     o2 4676   5.534   0.990   1.261  0.1880 -0.1338  0.0431
  390poe    c23 4677   5.583   0.995   1.393 -0.1297  0.2260  0.1506
  390poe    c23 4678   5.724   0.933   1.393 -0.1071  0.2773 -0.2014
  390poe     o2 4679   5.791   0.977   1.277  0.0044 -0.7116 -0.5238
  390poe    c31 4680   5.925   0.934   1.269  0.2808  0.1508 -0.6529
  391poe    c31 4681   1.829   2.026   1.383  0.2305  0.1226 -0.7148
  391poe     o2 4682   1.793   2.138   1.460  0.6281 -0.0651 -0.2485
  391poe    c23 4683   1.856   2.140   1.586 -0.3722  0.1581  0.2619
  391poe    c23 4684   1.846   2.285   1.635  0.2926  0.2975  0.0021
  391poe     o2 4685   1.708   2.310   1.618  0.1243 -0.5400  0.1021
  391poe    c23 4686   1.680   2.441   1.661 -0.1367 -0.5507 -0.0371
  391poe    c23 4687   1.534   2.459   1.615  0.0254  0.8916 -0.0461
  391poe     o2 4688   1.535   2.414   1.482 -0.3145 -0.9504  0.5478
  391poe    c23 4689   1.411   2.400   1.416 -0.2004 -0.0621  0.1290
  391poe    c23 4690   1.442   2.332   1.281 -0.2159 -0.0373  0.1131
  391poe     o2 4691   1.558   2.254   1.300 -0.0204  0.1539 -0.2907
  391poe    c31 4692   1.582   2.192   1.175 -0.1670  0.3648 -0.4232
  392poe    c31 4693   1.180   3.443   5.661  0.9177 -0.5386 -0.8103
  392poe     o2 4694   1.233   3.568   5.623 -0.2338  0.2941  0.2474
  392poe    c23 4695   1.119   3.648   5.599 -0.3233  0.0959  0.0020
  392poe    c23 4696   1.155   3.747   5.486  0.3303 -1.2222 -0.9853
  392poe     o2 4697   1.280   3.801   5.522 -0.3020 -0.4937  0.2005
  392poe    c23 4698   1.338   3.876   5.418 -0.1899  0.0333  0.6374
  392poe    c23 4699   1.486   3.887   5.459 -0.0670  0.1353  0.1765
  392poe     o2 4700   1.520   3.755   5.494  0.1837  0.2290  0.2853
  392poe    c23 4701   1.660   3.750   5.510  0.2020  0.2054  0.1176
  392poe    c23 4702   1.671   3.597   5.530 -0.6809  0.1070 -0.1304
  392poe     o2 4703   1.564   3.562   5.616 -0.3628  0.4029  0.3881
  392poe    c31 4704   1.569   3.435   5.677  0.1980 -0.2573 -0.9862
  393poe    c31 4705   4.404   4.089   3.883 -0.4123  0.1572  0.0432
  393poe     o2 4706   4.456   4.162   3.774 -0.2580  0.2121  0.1525
  393poe    c23 4707   4.509   4.281   3.829 -0.1490  0.3534 -0.2564
  393poe    c23 4708   4.548   4.375   3.714 -0.6734  0.7322 -0.1257
  393poe     o2 4709   4.467   4.342   3.603 -0.7622  0.0023  0.1546
  393poe    c23 4710   4.521   4.351   3.473  0.0165 -0.4717  0.4405
  393poe    c23 4711   4.417   4.271   3.392  0.0171  0.6021 -0.6327
  393poe     o2 4712   4.405   4.149   3.461  0.2292  0.6092 -0.5836
  393poe    c23 4713   4.317   4.058   3.399  0.5708 -0.4238  0.4056
  393poe    c23 4714   4.317   3.932   3.486  0.3152 -0.2814  0.6142
  393poe     o2 4715   4.284   3.974   3.617  0.2583  0.7472  0.2742
  393poe    c31 4716   4.200   3.880   3.679  0.6975  0.0765 -0.1357
  394poe    c31 4717   5.297   1.010   2.524 -0.2873 -0.7635  0.2352
  394poe     o2 4718   5.207   1.070   2.615 -0.2916 -0.0924 -0.1997
  394poe    c23 4719   5.137   0.982   2.700 -0.8614  0.3139 -0.2420
  394poe    c23 4720   5.109   1.045   2.838 -0.8107  0.3797 -0.2613
  394poe     o2 4721   5.058   1.175   2.825 -0.9611  0.3714  0.2140
  394poe    c23 4722   5.070   1.249   2.945  0.0990 -0.4199  0.6053
  394poe    c23 4723   5.126   1.387   2.908  0.0502 -0.5175  0.1610
  394poe     o2 4724   5.205   1.365   2.793 -0.1047 -0.1957 -0.0087
  394poe    c23 4725   5.269   1.477   2.736 -0.9157  0.0665 -0.4300
  394poe    c23 4726   5.328   1.438   2.599  0.1980  0.0967  0.0321
  394poe     o2 4727   5.234   1.352   2.541 -0.3678  0.4844  0.3654
  394poe    c31 4728   5.188   1.386   2.412  0.0869  0.4414  0.1924
  395poe    c31 4729   6.751   0.065   6.299  0.2418  0.5711 -0.6281
  395poe     o2 4730   6.664   0.100   6.194  0.1439  0.1400 -0.6914
  395poe    c23 4731   6.592  -0.014   6.155  0.1541 -0.1703  0.1749
  395poe    c23 4732   6.514   0.010   6.024 -0.1317 -0.0606  0.3645
  395poe     o2 4733   6.482   0.147   6.036 -0.3376 -0.0690 -0.0690
  395poe    c23 4734   6.432   0.204   5.918 -0.4393 -0.2116 -0.0954
  395poe    c23 4735   6.437   0.356   5.945 -0.2226 -0.3285  0.5389
  395poe     o2 4736   6.556   0.377   6.016 -0.2768 -0.1666  0.5828
  395poe    c23 4737   6.601   0.510   6.016 -0.4842 -0.0965  0.2766
  395poe    c23 4738   6.741   0.488   6.076 -0.1828 -0.2398 -0.4686
  395poe     o2 4739   6.730   0.404   6.189 -0.5003  0.8384  0.3169
  395poe    c31 4740   6.842   0.433   6.268 -0.4130  0.2259  0.4220
  396poe    c31 4741   4.006   6.068   4.281  0.2661  0.1366 -0.0963
  396poe     o2 4742   3.902   5.982   4.322  0.5283 -0.2943 -0.3269
  396poe    c23 4743   3.829   6.047   4.423  0.2790 -0.6901 -0.2493
  396poe    c23 4744   3.708   5.957   4.451 -0.1926  0.0246  0.0536
  396poe     o2 4745   3.766   5.830   4.473 -0.1699  0.0406  0.0831
  396poe    c23 4746   3.667   5.736   4.507 -0.0786 -0.3102 -0.6202
  396poe    c23 4747   3.748   5.608   4.482  0.7313  0.1507 -0.3919
  396poe     o2 4748   3.818   5.629   4.361  0.2530  0.0110 -0.6985
  396poe    c23 4749   3.878   5.515   4.305  0.0916 -0.3791 -0.0786
  396poe    c23 4750   3.941   5.557   4.172 -0.0782 -0.4665 -0.1870
  396poe     o2 4751   3.988   5.686   4.204 -0.0635 -0.3101 -0.8222
  396poe    c31 4752   4.103   5.718   4.129  0.4930  0.9261  0.5030
  397poe    c31 4753   3.995   5.817   1.059 -0.3957 -0.0887  0.2361
  397poe     o2 4754   4.013   5.830   0.920 -0.5100 -0.5352  0.1762
  397poe    c23 4755   3.949   5.953   0.892  0.7227  0.0107 -0.3182
  397poe    c23 4756   4.011   6.003   0.760  0.2462  0.2870 -0.4396
  397poe     o2 4757   4.083   5.890   0.714 -0.3403 -0.3994  0.2904
  397poe    c23 4758   4.203   5.923   0.648 -0.6957 -0.1337 -0.2282
  397poe    c23 4759   4.246   5.789   0.585 -0.7043 -0.1663 -0.1645
  397poe     o2 4760   4.242   5.689   0.684  0.5675 -0.0335  0.0488
  397poe    c23 4761   4.244   5.552   0.651  0.4550 -0.2297  0.8465
  397poe    c23 4762   4.229   5.480   0.786  0.0289 -0.4304  0.6922
  397poe     o2 4763   4.124   5.555   0.842 -0.1902 -0.0770 -0.1785
  397poe    c31 4764   4.054   5.481   0.940  0.2052  0.1748  0.2997
  398poe    c31 4765   2.896   5.809   5.032  0.3436  0.3722 -0.0210
  398poe     o2 4766   2.883   5.787   4.894 -0.2917 -0.2063  0.1233
  398poe    c23 4767   2.832   5.663   4.850  0.1655 -0.3216 -0.0903
  398poe    c23 4768   2.818   5.643   4.698  0.2184 -0.1249 -0.1207
  398poe     o2 4769   2.752   5.761   4.659 -0.2374 -0.1591  0.5293
  398poe    c23 4770   2.747   5.796   4.523  0.4526  0.2946  0.6147
  398poe    c23 4771   2.747   5.950   4.531  0.2868  0.3425 -0.2335
  398poe     o2 4772   2.848   5.977   4.625 -0.3367 -0.0527  0.5581
  398poe    c23 4773   2.865   6.117   4.624  0.3597 -0.1304 -0.8453
  398poe    c23 4774   2.987   6.148   4.712 -0.3749  0.1235  0.0944
  398poe     o2 4775   2.984   6.076   4.833 -0.0465 -0.1154 -0.0380
  398poe    c31 4776   3.023   6.160   4.939  0.1056 -0.2224 -0.0085
  399poe    c31 4777   4.733   4.335   6.686 -0.0058 -0.0489  0.4966
  399poe     o2 4778   4.629   4.296   6.598  0.3175  0.1834  0.0110
  399poe    c23 4779   4.511   4.337   6.662  0.0231 -0.6877  0.0273
  399poe    c23 4780   4.386   4.324   6.573  0.2617 -0.1858 -0.3870
  399poe     o2 4781   4.377   4.187   6.539  0.1683 -0.4017  0.4791
  399poe    c23 4782   4.330   4.160   6.409 -0.6972 -0.2114  0.7492
  399poe    c23 4783   4.409   4.046   6.343  0.3414  0.9141  0.0064
  399poe     o2 4784   4.549   4.063   6.348  0.4357  0.2344 -0.2148
  399poe    c23 4785   4.621   4.054   6.227  0.2150 -1.1195 -0.2608
  399poe    c23 4786   4.769   4.071   6.265 -0.1121  0.2795  0.4391
  399poe     o2 4787   4.775   4.139   6.388  0.1199 -0.0799  0.6276
  399poe    c31 4788   4.913   4.160   6.408  0.1473  0.0311  0.3341
  400poe    c31 4789   1.800   1.532   2.649 -0.1167  0.0825  0.4848
  400poe     o2 4790   1.676   1.550   2.715  0.0606  0.1229  0.8049
  400poe    c23 4791   1.626   1.678   2.683 -0.1139 -0.0768  0.2672
  400poe    c23 4792   1.481   1.685   2.732 -0.3431  0.1379 -0.4312
  400poe     o2 4793   1.472   1.638   2.865  0.0718  0.3430 -0.3304
  400poe    c23 4794   1.345   1.636   2.927  0.4212 -0.5039  0.3716
  400poe    c23 4795   1.361   1.559   3.060 -0.3234 -0.3225  0.5669
  400poe     o2 4796   1.419   1.437   3.021 -0.3132 -0.2902  0.4809
  400poe    c23 4797   1.509   1.391   3.118  0.2925 -0.0258  0.0530
  400poe    c23 4798   1.618   1.293   3.070  0.1713 -0.1305 -0.0079
  400poe     o2 4799   1.689   1.358   2.967 -0.2950  0.0198 -0.2406
  400poe    c31 4800   1.826   1.327   2.984 -0.4050 -0.3207  0.0555
  401poe    c31 4801   6.162   2.539   4.138 -0.0243 -0.1317  0.4098
  401poe     o2 4802   6.058   2.505   4.227 -0.0782 -0.4008  0.2448
  401poe    c23 4803   5.956   2.441   4.154 -0.0593  0.5227 -0.6077
  401poe    c23 4804   5.917   2.320   4.241  0.1119  0.4416 -0.6424
  401poe     o2 4805   5.895   2.383   4.365  0.0775 -0.1846 -0.3300
  401poe    c23 4806   5.881   2.296   4.475  0.6425 -0.0260 -0.1276
  401poe    c23 4807   5.994   2.310   4.579  0.0949  0.1736  0.4506
  401poe     o2 4808   6.041   2.438   4.543 -0.0742  0.1249  0.0438
  401poe    c23 4809   6.165   2.469   4.605 -0.2090  0.0880  0.3342
  401poe    c23 4810   6.189   2.620   4.592 -0.0056  0.0834  0.6669
  401poe     o2 4811   6.159   2.657   4.460  0.2826 -0.4953  0.4386
  401poe    c31 4812   6.242   2.765   4.424 -0.2354 -0.3255 -0.2949
  402poe    c31 4813   1.766   4.515   2.823  0.0854  0.5843  0.1462
  402poe     o2 4814   1.885   4.457   2.775 -0.6820 -0.1337 -0.9277
  402poe    c23 4815   1.875   4.458   2.635 -0.3935  0.8593 -0.9494
  402poe    c23 4816   2.014   4.436   2.573  0.1598  0.0370  0.5272
  402poe     o2 4817   2.062   4.352   2.675 -0.3151 -0.6712  0.1749
  402poe    c23 4818   2.162   4.261   2.636 -0.0873 -0.2137 -0.3297
  402poe    c23 4819   2.240   4.220   2.763 -0.3934 -0.0208 -0.0769
  402poe     o2 4820   2.149   4.231   2.870  0.0556 -0.0858  0.3137
  402poe    c23 4821   2.215   4.244   2.994  0.1578  0.2471  0.2276
  402poe    c23 4822   2.098   4.275   3.089 -0.0510 -0.0780  0.0799
  402poe     o2 4823   2.036   4.385   3.025  0.1514  0.0692  0.1371
  402poe    c31 4824   1.955   4.450   3.120 -0.0013  0.3352 -0.1749
  403poe    c31 4825   4.946   4.881   5.230  0.1413 -0.0202  0.9297
  403poe     o2 4826   5.077   4.846   5.190 -0.1925  0.3274 -0.5313
  403poe    c23 4827   5.088   4.865   5.051 -0.0328  0.5033 -0.4949
  403poe    c23 4828   5.225   4.812   5.004 -0.2258 -0.5238  0.0768
  403poe     o2 4829   5.331   4.871   5.077 -0.0282 -0.2812 -0.3992
  403poe    c23 4830   5.464   4.832   5.054  0.1097 -0.0128 -0.0635
  403poe    c23 4831   5.503   4.706   5.133  0.1520  0.3021  0.4227
  403poe     o2 4832   5.401   4.694   5.231  0.1043  0.4471  0.3905
  403poe    c23 4833   5.412   4.577   5.308 -0.3198  0.2845  0.2040
  403poe    c23 4834   5.269   4.555   5.359 -0.3222  0.2888  0.1983
  403poe     o2 4835   5.202   4.678   5.380 -0.6182  0.2168 -0.2974
  403poe    c31 4836   5.122   4.667   5.496 -0.0546  0.6820  0.1435
  404poe    c31 4837   2.208   2.620   6.345  0.0151 -0.5000  0.3319
  404poe     o2 4838   2.301   2.695   6.270 -0.0471 -0.4347  0.3198
  404poe    c23 4839   2.285   2.646   6.139  0.3013  0.5266 -0.0907
  404poe    c23 4840   2.425   2.665   6.079  0.8595 -0.3591  0.9032
  404poe     o2 4841   2.441   2.804   6.099  0.1468 -0.1064 -0.1895
  404poe    c23 4842   2.557   2.856   6.040 -0.2527  0.2423 -0.6791
  404poe    c23 4843   2.594   2.975   6.130 -0.5205 -0.1140 -0.0966
  404poe     o2 4844   2.591   2.922   6.261  1.1357 -0.1832 -0.0686
  404poe    c23 4845   2.602   3.023   6.359 -0.5242  0.2053 -0.2455
  404poe    c23 4846   2.586   2.940   6.488  0.4055 -0.3229 -0.4544
  404poe     o2 4847   2.471   2.861   6.465  0.3042 -0.3104 -0.0073
  404poe    c31 4848   2.446   2.776   6.575  0.2972  0.0670  0.2856
  405poe    c31 4849   2.963   5.698   1.594  0.3002  0.2396  0.0939
  405poe     o2 4850   2.935   5.827   1.642  0.0413  0.0396  0.4921
  405poe    c23 4851   3.031   5.918   1.592 -0.2736  0.0938 -0.0274
  405poe    c23 4852   2.980   6.063   1.582  0.6507  0.3917 -0.4745
  405poe     o2 4853   2.927   6.078   1.712  0.1356  0.0201 -0.6405
  405poe    c23 4854   2.903   6.210   1.755  0.3207 -0.2380  0.2697
  405poe    c23 4855   2.807   6.195   1.875  0.1628 -0.0853  0.1630
  405poe     o2 4856   2.741   6.072   1.859  0.2005 -0.0583 -0.2219
  405poe    c23 4857   2.626   6.045   1.937  0.2033 -0.1062 -0.2340
  405poe    c23 4858   2.559   5.931   1.860  0.1906  0.0785 -0.4960
  405poe     o2 4859   2.646   5.835   1.804  0.4055 -0.2813  0.4518
  405poe    c31 4860   2.564   5.744   1.735  1.1165 -0.4967 -0.1205
  406poe    c31 4861   2.825   5.665   2.422  0.5465  0.2703 -0.1355
  406poe     o2 4862   2.900   5.681   2.304  0.0719  0.2390 -0.4423
  406poe    c23 4863   2.910   5.564   2.225 -0.0662 -0.1330  0.0891
  406poe    c23 4864   3.039   5.487   2.259  0.4696  0.4550 -0.5693
  406poe     o2 4865   3.135   5.590   2.263  0.3695  0.5474 -0.5424
  406poe    c23 4866   3.252   5.550   2.331 -0.1329  0.6032  0.3814
  406poe    c23 4867   3.314   5.683   2.375  0.3175  0.2536  0.8058
  406poe     o2 4868   3.205   5.758   2.425 -0.0890  0.5331 -0.4755
  406poe    c23 4869   3.241   5.883   2.479  0.1346  0.2536  0.0303
  406poe    c23 4870   3.101   5.929   2.525  0.0134  0.3977 -0.4800
  406poe     o2 4871   3.023   5.887   2.415 -0.1176  0.1605 -0.2965
  406poe    c31 4872   2.923   5.987   2.408 -0.3640  0.0105  0.7992
  407poe    c31 4873   5.300   6.354   2.284  0.0410  0.0121 -0.3110
  407poe     o2 4874   5.423   6.369   2.216 -0.1860  0.6425 -0.5836
  407poe    c23 4875   5.518   6.436   2.294 -0.0076 -0.4034  0.1159
  407poe    c23 4876   5.657   6.374   2.269 -0.0055 -0.3617  0.0224
  407poe     o2 4877   5.673   6.363   2.130  0.7413  0.6966  0.0197
  407poe    c23 4878   5.796   6.295   2.118  0.2212 -0.3530  0.6043
  407poe    c23 4879   5.825   6.270   1.969 -0.5204 -0.1720  0.4232
  407poe     o2 4880   5.715   6.197   1.919 -0.2605 -0.0405 -0.3432
  407poe    c23 4881   5.657   6.243   1.799 -0.5800 -0.5401 -0.3841
  407poe    c23 4882   5.583   6.378   1.795  0.8665  0.3213  0.7923
  407poe     o2 4883   5.508   6.381   1.915 -0.0989 -0.0567  0.2074
  407poe    c31 4884   5.406   6.477   1.920 -0.0380  0.0133  0.1170
  408poe    c31 4885   2.093   5.929   4.100 -0.1329  0.3220 -0.1104
  408poe     o2 4886   2.158   5.998   4.204  0.0601 -0.3748  0.2366
  408poe    c23 4887   2.104   6.127   4.222 -0.1410 -0.5072  0.5957
  408poe    c23 4888   2.117   6.156   4.372  0.2639  0.4973  0.3758
  408poe     o2 4889   2.251   6.122   4.401  0.3271  0.5074  0.0989
  408poe    c23 4890   2.265   6.124   4.542 -0.9680 -0.2317  0.2600
  408poe    c23 4891   2.223   5.984   4.590 -0.1021 -0.1358  1.3275
  408poe     o2 4892   2.282   5.895   4.498  0.1281  0.5361  0.8134
  408poe    c23 4893   2.248   5.762   4.531 -1.1257  0.6368  0.0216
  408poe    c23 4894   2.294   5.687   4.405  0.1402  0.6413  0.4619
  408poe     o2 4895   2.335   5.782   4.308  0.3571 -0.1720 -0.2529
  408poe    c31 4896   2.355   5.723   4.182 -0.0984 -0.2608 -0.2849
  409poe    c31 4897   3.251   5.294   1.670 -0.0539 -0.0947  0.3968
  409poe     o2 4898   3.378   5.237   1.687 -0.0915 -0.3638 -0.1986
  409poe    c23 4899   3.390   5.131   1.595 -0.1310 -0.3320 -0.2394
  409poe    c23 4900   3.538   5.093   1.603 -0.0481  0.1030  0.2934
  409poe     o2 4901   3.573   5.085   1.740  0.0718  1.0218  0.3186
  409poe    c23 4902   3.711   5.072   1.763 -0.0112 -0.1814  0.1828
  409poe    c23 4903   3.744   5.103   1.911  0.5672  0.2167 -0.0259
  409poe     o2 4904   3.644   5.198   1.941 -0.0873 -0.6061  0.4498
  409poe    c23 4905   3.651   5.238   2.076 -0.0106 -0.2495  0.3417
  409poe    c23 4906   3.547   5.352   2.074 -0.0893 -0.3296 -0.1250
  409poe     o2 4907   3.451   5.325   1.974  0.3683 -0.1392 -0.6220
  409poe    c31 4908   3.346   5.419   1.977  0.7297  0.2571 -0.1807
  410poe    c31 4909   0.285   1.131   4.425  0.9411  0.8675  0.5783
  410poe     o2 4910   0.344   1.057   4.529  0.0733 -0.6480  0.0148
  410poe    c23 4911   0.406   1.125   4.636 -0.0243  0.2941 -0.5190
  410poe    c23 4912   0.437   1.046   4.764 -0.5040  0.7222 -0.1327
  410poe     o2 4913   0.328   0.957   4.765 -0.2480  0.4081  0.0348
  410poe    c23 4914   0.323   0.906   4.896  0.1798  0.0182 -0.0973
  410poe    c23 4915   0.245   0.775   4.921 -0.1023  0.1347 -0.3647
  410poe     o2 4916   0.111   0.820   4.924  0.1009  0.7591 -0.4272
  410poe    c23 4917   0.011   0.720   4.932  0.4503  0.4276 -0.1486
  410poe    c23 4918  -0.132   0.772   4.955  0.3337  0.0994 -0.1234
  410poe     o2 4919  -0.144   0.843   5.076  0.3375  0.1387 -0.1464
  410poe    c31 4920  -0.264   0.915   5.093  0.0992 -0.3052  0.0520
  411poe    c31 4921   5.138   5.878   0.591  0.0010 -0.3328 -0.2515
  411poe     o2 4922   5.019   5.855   0.664 -0.0437 -0.1146 -0.2526
  411poe    c23 4923   4.988   5.977   0.728 -0.5246 -0.6427  0.5328
  411poe    c23 4924   4.839   5.971   0.766 -0.5635  0.1686  0.5158
  411poe     o2 4925   4.818   5.836   0.800  0.6440  0.0550  0.8232
  411poe    c23 4926   4.687   5.796   0.831  0.6555 -1.1619 -0.5733
  411poe    c23 4927   4.699   5.656   0.892  0.0046 -0.8811  0.2228
  411poe     o2 4928   4.802   5.593   0.819  0.4891 -0.2591  0.3606
  411poe    c23 4929   4.857   5.486   0.892  0.0928 -0.5105  0.2969
  411poe    c23 4930   4.972   5.458   0.794  0.4739 -0.1548  0.6371
  411poe     o2 4931   5.041   5.576   0.760  0.4148 -0.0242  0.9629
  411poe    c31 4932   5.140   5.521   0.676 -0.0313 -0.2068  0.5514
  412poe    c31 4933   0.824   4.487   3.477  0.1300  0.7969  0.9593
  412poe     o2 4934   0.915   4.446   3.376 -1.0485  0.5721 -0.0358
  412poe    c23 4935   0.852   4.378   3.270 -0.4192 -0.0175 -0.0350
  412poe    c23 4936   0.957   4.309   3.180 -0.5552  0.0142 -0.2185
  412poe     o2 4937   1.058   4.403   3.154 -0.6844 -0.0035 -0.7879
  412poe    c23 4938   1.167   4.347   3.084  0.1278  0.1983  0.2965
  412poe    c23 4939   1.295   4.432   3.071 -0.3719  0.9639  0.3065
  412poe     o2 4940   1.340   4.428   3.205 -0.0208 -0.3008  0.1604
  412poe    c23 4941   1.464   4.495   3.213  0.1042 -0.5364  0.2122
  412poe    c23 4942   1.538   4.495   3.348  0.3020  0.1129  0.1058
  412poe     o2 4943   1.501   4.605   3.428  0.3975  0.4729 -0.3371
  412poe    c31 4944   1.592   4.604   3.536  0.2372 -0.3614 -0.2003
  413poe    c31 4945   0.216   2.459   5.970 -0.0931 -0.3768 -0.2890
  413poe     o2 4946   0.183   2.322   5.977 -0.3389 -0.2775  0.5923
  413poe    c23 4947   0.138   2.297   5.846 -0.1628  0.1978  0.4392
  413poe    c23 4948   0.048   2.172   5.847  0.3376 -0.1730 -0.0532
  413poe     o2 4949   0.101   2.084   5.943  0.0421  0.0122  0.2826
  413poe    c23 4950   0.042   1.956   5.936 -0.3855  0.2287 -0.1621
  413poe    c23 4951   0.073   1.885   6.070 -0.3736  0.5166 -0.0120
  413poe     o2 4952   0.191   1.952   6.107 -0.0989  0.1736 -0.2686
  413poe    c23 4953   0.230   1.933   6.241  0.2981 -0.1664 -0.4306
  413poe    c23 4954   0.199   2.070   6.304 -0.7831 -0.5606 -0.0744
  413poe     o2 4955   0.248   2.176   6.225  0.0171 -0.5914  0.3690
  413poe    c31 4956   0.224   2.296   6.295 -0.0652 -0.3778 -0.0237
  414poe    c31 4957   1.579   3.790   3.606  0.3818 -0.7350  0.0789
  414poe     o2 4958   1.474   3.700   3.582  0.0549 -0.1741 -0.6666
  414poe    c23 4959   1.512   3.564   3.579  0.0698 -0.2158  0.6067
  414poe    c23 4960   1.385   3.478   3.580 -0.0279 -0.0809  0.2138
  414poe     o2 4961   1.310   3.554   3.671 -0.5855 -0.1107 -0.2156
  414poe    c23 4962   1.179   3.515   3.705 -0.4715  0.4452  0.9205
  414poe    c23 4963   1.088   3.580   3.599  0.6150 -0.0018 -0.3094
  414poe     o2 4964   1.137   3.712   3.584  0.9595 -0.0969 -0.0637
  414poe    c23 4965   1.055   3.783   3.493 -0.1529  0.0483  1.0302
  414poe    c23 4966   1.091   3.932   3.511 -0.3157  0.1684  0.3767
  414poe     o2 4967   1.226   3.951   3.548 -0.2392  0.1177  0.1277
  414poe    c31 4968   1.255   4.086   3.520 -0.0598  0.1157  0.3001
  415poe    c31 4969   3.042   1.742   2.941 -0.4403 -0.2369 -0.3393
  415poe     o2 4970   2.937   1.748   2.847 -0.5648 -0.4112 -0.2131
  415poe    c23 4971   2.859   1.865   2.863  0.4816  0.2585  0.0631
  415poe    c23 4972   2.847   1.933   2.725 -0.3911  0.8017  0.4000
  415poe     o2 4973   2.788   1.831   2.648  0.5492  0.6100 -0.0804
  415poe    c23 4974   2.786   1.842   2.507  0.8951  0.0667 -0.1294
  415poe    c23 4975   2.907   1.756   2.465  0.3471 -0.4811 -0.6044
  415poe     o2 4976   2.894   1.633   2.533 -0.2778  0.0573  0.2754
  415poe    c23 4977   3.006   1.550   2.512 -0.1836  0.2180  0.1341
  415poe    c23 4978   3.014   1.447   2.626  0.7336 -0.0607 -0.1750
  415poe     o2 4979   3.004   1.506   2.754 -0.8820  0.4099 -0.4972
  415poe    c31 4980   2.993   1.400   2.847  0.4915 -0.1679 -0.9602
  416poe    c31 4981   5.634   1.187   3.634 -0.5936 -0.3908 -0.4575
  416poe     o2 4982   5.692   1.112   3.530  0.0303 -0.0677 -0.3470
  416poe    c23 4983   5.820   1.160   3.493  0.0749 -0.1186 -0.2584
  416poe    c23 4984   5.895   1.054   3.411  0.1012 -0.3168  0.0183
  416poe     o2 4985   5.836   1.023   3.286  0.4463 -0.3756 -0.1322
  416poe    c23 4986   5.922   0.938   3.214  0.4053 -0.5154 -0.0165
  416poe    c23 4987   5.853   0.918   3.078  0.0486  0.3973  0.0262
  416poe     o2 4988   5.730   0.861   3.119 -0.0161  0.8715  0.5050
  416poe    c23 4989   5.636   0.876   3.015 -0.0716  0.0100  0.4232
  416poe    c23 4990   5.496   0.843   3.067  0.0406 -0.4512  0.4306
  416poe     o2 4991   5.488   0.931   3.177  0.1144 -0.3125  0.3236
  416poe    c31 4992   5.359   0.922   3.233  0.0350  0.1374  0.2168
  417poe    c31 4993   1.652   2.339   4.895  0.1456  0.2887 -0.1670
  417poe     o2 4994   1.633   2.371   4.759 -0.2142  0.6359 -0.0378
  417poe    c23 4995   1.750   2.444   4.729 -0.0610  0.2443 -0.4040
  417poe    c23 4996   1.717   2.555   4.628 -0.1703  0.1922 -0.4256
  417poe     o2 4997   1.708   2.483   4.507 -0.0466  0.4088 -0.5638
  417poe    c23 4998   1.642   2.552   4.403 -0.2261  0.4176 -0.4449
  417poe    c23 4999   1.582   2.433   4.325  0.0072  0.0004  0.0090
  417poe     o2 5000   1.520   2.342   4.413 -0.0720 -0.1262 -0.1774
  417poe    c23 5001   1.464   2.228   4.352 -0.5307 -0.1446  0.2686
  417poe    c23 5002   1.412   2.137   4.464 -0.3674 -0.4832  0.0749
  417poe     o2 5003   1.502   2.136   4.572  0.3036  0.6697 -0.4545
  417poe    c31 5004   1.466   2.027   4.654  0.2409  0.9095 -0.1611
  418poe    c31 5005   2.993   4.000   2.588 -0.3733 -0.9491  0.9247
  418poe     o2 5006   2.925   3.923   2.492  0.2817 -0.1069 -0.2448
  418poe    c23 5007   2.861   4.026   2.420 -0.0999 -0.1257  0.0629
  418poe    c23 5008   2.830   3.959   2.284 -0.2353 -0.1574  0.1099
  418poe     o2 5009   2.749   3.848   2.318 -0.3205 -0.0098  0.3981
  418poe    c23 5010   2.726   3.768   2.204 -1.0118  0.2351  0.3648
  418poe    c23 5011   2.697   3.621   2.238  0.1836 -0.1072 -0.0487
  418poe     o2 5012   2.806   3.609   2.327  0.7405 -0.5361 -0.7833
  418poe    c23 5013   2.811   3.481   2.387 -0.2627  0.1492  0.7985
  418poe    c23 5014   2.940   3.490   2.472  0.3444 -0.5483 -0.0396
  418poe     o2 5015   2.960   3.623   2.515  0.2678 -0.4433 -0.3256
  418poe    c31 5016   3.083   3.650   2.577 -0.4777  0.0233  0.9976
  419poe    c31 5017   0.662   5.430   3.471  0.5437  0.0750 -0.0279
  419poe     o2 5018   0.614   5.357   3.360 -0.1144 -0.0006  0.3022
  419poe    c23 5019   0.593   5.219   3.378 -0.0252 -0.1380 -0.6126
  419poe    c23 5020   0.459   5.167   3.324 -0.4228  0.1072  0.1305
  419poe     o2 5021   0.446   5.218   3.194  0.4440  0.0624  0.0188
  419poe    c23 5022   0.314   5.202   3.145  0.4680  0.0055 -0.0274
  419poe    c23 5023   0.320   5.286   3.015  0.1022  0.3112  0.1511
  419poe     o2 5024   0.374   5.406   3.064  0.1564  0.2955  0.1309
  419poe    c23 5025   0.387   5.508   2.967 -0.7622  0.1968 -0.0978
  419poe    c23 5026   0.437   5.624   3.055 -0.0018 -0.1804 -0.0277
  419poe     o2 5027   0.544   5.589   3.140 -0.1441 -0.4299  0.0487
  419poe    c31 5028   0.591   5.706   3.202 -0.0413 -0.4048 -0.0761
  420poe    c31 5029   2.839   1.381   5.553  0.0932 -0.0529  0.2501
  420poe     o2 5030   2.932   1.465   5.616  0.0511  0.0516  0.1733
  420poe    c23 5031   2.916   1.469   5.756 -0.2982  0.3626  0.1248
  420poe    c23 5032   3.012   1.569   5.821  0.3075 -0.4754  0.5363
  420poe     o2 5033   3.122   1.543   5.736 -0.1915 -0.1177 -0.2312
  420poe    c23 5034   3.251   1.581   5.778 -0.0800 -0.3281 -0.3831
  420poe    c23 5035   3.342   1.577   5.653  0.1751 -0.5161 -0.1909
  420poe     o2 5036   3.290   1.618   5.529  0.0216  0.2459  0.1138
  420poe    c23 5037   3.256   1.754   5.523 -0.5939  0.0951  0.1389
  420poe    c23 5038   3.131   1.768   5.434 -0.1642 -0.2583 -0.5244
  420poe     o2 5039   3.027   1.678   5.465 -0.2927  0.1482  0.2645
  420poe    c31 5040   2.948   1.638   5.355  0.5461  0.3694 -0.4311
  421poe    c31 5041   3.181   1.600   5.044 -0.1484 -0.0021 -0.2331
  421poe     o2 5042   3.211   1.611   4.907  0.2548  0.0303 -0.1429
  421poe    c23 5043   3.322   1.534   4.868  0.4022 -0.0899  0.5072
  421poe    c23 5044   3.347   1.552   4.717 -0.7136  0.8181  0.4217
  421poe     o2 5045   3.392   1.685   4.703  1.3416  0.1051 -0.0219
  421poe    c23 5046   3.354   1.721   4.573 -0.9863  0.0594  0.6147
  421poe    c23 5047   3.261   1.844   4.568 -0.3867  0.4880 -0.3205
  421poe     o2 5048   3.168   1.829   4.673 -0.0826 -0.6770 -0.2020
  421poe    c23 5049   3.056   1.915   4.660  0.2636 -0.1704  0.1276
  421poe    c23 5050   2.949   1.880   4.765  0.1605  0.3789  0.2087
  421poe     o2 5051   3.008   1.828   4.882 -0.2204 -0.1005  0.1949
  421poe    c31 5052   2.905   1.824   4.978 -0.4128 -0.1878 -0.0138
  422poe    c31 5053   4.606   5.260   1.378  0.1623  0.2969  0.3431
  422poe     o2 5054   4.741   5.240   1.344  0.0457 -0.1131  0.1126
  422poe    c23 5055   4.811   5.200   1.460  0.5199 -0.0218 -0.1405
  422poe    c23 5056   4.881   5.070   1.416  0.8632 -0.0159  0.3767
  422poe     o2 5057   4.942   5.078   1.289 -0.2290 -0.3786 -0.1852
  422poe    c23 5058   5.055   5.002   1.250 -0.1255 -0.3138 -0.0120
  422poe    c23 5059   5.057   4.961   1.102 -0.2216 -0.4371  0.0203
  422poe     o2 5060   5.040   5.078   1.025 -0.4531 -0.5570 -0.1144
  422poe    c23 5061   5.039   5.073   0.884 -0.0006 -0.0015 -0.1414
  422poe    c23 5062   5.176   5.082   0.814  0.2582 -0.2512  0.3235
  422poe     o2 5063   5.215   5.217   0.799  0.2507 -0.1979  0.7635
  422poe    c31 5064   5.350   5.228   0.761 -0.0048 -0.4479 -0.2446
  423poe    c31 5065   0.182   2.492   3.592 -0.5744 -0.2663 -0.3531
  423poe     o2 5066   0.050   2.538   3.606 -0.3867  0.2778 -0.3607
  423poe    c23 5067  -0.014   2.522   3.481  0.1566 -0.0454 -0.6006
  423poe    c23 5068  -0.119   2.634   3.471  0.4477  0.2913  0.0747
  423poe     o2 5069  -0.185   2.629   3.596 -0.0925 -0.0298 -0.2216
  423poe    c23 5070  -0.281   2.732   3.600  0.0489  0.1088 -0.4008
  423poe    c23 5071  -0.326   2.732   3.747  0.2411  0.3195 -0.3398
  423poe     o2 5072  -0.209   2.696   3.817 -0.1245  0.1804  0.2093
  423poe    c23 5073  -0.236   2.621   3.933  0.4097 -0.1817  0.1010
  423poe    c23 5074  -0.101   2.573   3.990  0.7067  0.8640  0.2883
  423poe     o2 5075  -0.023   2.526   3.882  0.1404  0.4083  0.0756
  423poe    c31 5076   0.091   2.455   3.926 -0.0241  0.0277 -0.1015
  424poe    c31 5077   6.168   4.988   1.029  0.8710  0.4038  0.1097
  424poe     o2 5078   6.081   5.062   0.945  0.6098 -0.4471 -0.3798
  424poe    c23 5079   6.108   4.995   0.824 -0.0173 -0.7443 -0.3570
  424poe    c23 5080   6.059   5.059   0.692  0.0890 -0.5010 -0.2779
  424poe     o2 5081   5.932   5.112   0.721  0.5420  0.5962 -0.2313
  424poe    c23 5082   5.881   5.174   0.605 -0.5692 -0.3908 -0.2963
  424poe    c23 5083   5.732   5.204   0.629 -0.3174  0.3902  0.3250
  424poe     o2 5084   5.702   5.227   0.765  0.0400 -0.4932  0.5618
  424poe    c23 5085   5.711   5.357   0.817 -0.3248 -0.1222 -0.2803
  424poe    c23 5086   5.752   5.345   0.965  0.4786  0.3842 -0.4567
  424poe     o2 5087   5.851   5.245   0.979  0.6637  0.5544 -0.5493
  424poe    c31 5088   5.925   5.278   1.095 -0.2862 -0.1867  0.2831
  425poe    c31 5089   5.082   0.067   1.447  0.4421 -0.2319  0.1746
  425poe     o2 5090   5.113   0.178   1.366 -0.1263 -0.4001 -0.2826
  425poe    c23 5091   5.098   0.152   1.228  0.2402 -0.1238 -0.3793
  425poe    c23 5092   5.230   0.178   1.153  0.2342  0.2112 -0.2771
  425poe     o2 5093   5.271   0.299   1.212 -0.0278 -0.0731  0.5091
  425poe    c23 5094   5.410   0.308   1.188  0.0865 -0.7477  0.8939
  425poe    c23 5095   5.443   0.447   1.246  1.5462 -1.0498  0.8176
  425poe     o2 5096   5.388   0.464   1.375  0.4689  0.4170  0.1810
  425poe    c23 5097   5.466   0.560   1.444  0.3128  0.9009 -0.3032
  425poe    c23 5098   5.402   0.696   1.475  0.7485  0.8801  0.7068
  425poe     o2 5099   5.292   0.704   1.564 -0.0010  0.2843 -0.1495
  425poe    c31 5100   5.240   0.835   1.558 -0.5543  0.0686 -0.1313
  426poe    c31 5101   2.558   3.636   0.772 -0.3170 -0.4666  0.5397
  426poe     o2 5102   2.604   3.610   0.903 -0.0905  0.1114  0.5777
  426poe    c23 5103   2.527   3.500   0.947  0.2636 -0.1833  0.4653
  426poe    c23 5104   2.589   3.450   1.079  0.0981  0.1668  0.6780
  426poe     o2 5105   2.611   3.573   1.145  0.3557  0.5318 -0.0722
  426poe    c23 5106   2.661   3.565   1.276  0.0435 -0.0859  0.0172
  426poe    c23 5107   2.687   3.714   1.309  0.7158 -0.2266  0.1538
  426poe     o2 5108   2.757   3.769   1.200  0.1601 -0.0406 -0.1156
  426poe    c23 5109   2.796   3.903   1.221  0.0342  0.0057 -0.1780
  426poe    c23 5110   2.864   3.951   1.091 -0.0007 -0.0188 -0.2053
  426poe     o2 5111   2.796   3.870   0.998 -0.0684  0.0796 -0.2420
  426poe    c31 5112   2.777   3.932   0.873 -0.0225  0.4047 -0.0876
  427poe    c31 5113   5.177   0.660   4.403 -0.0741 -0.3477  0.0174
  427poe     o2 5114   5.305   0.679   4.348  0.0085 -0.3223  0.2192
  427poe    c23 5115   5.389   0.579   4.401  0.3953  0.0695  0.3566
  427poe    c23 5116   5.484   0.534   4.289 -0.2704 -0.2846 -0.0739
  427poe     o2 5117   5.494   0.648   4.205  0.4035 -0.0266  0.3490
  427poe    c23 5118   5.544   0.614   4.077 -0.4626  0.1697 -0.0481
  427poe    c23 5119   5.563   0.758   4.026  0.2425 -0.1012 -0.5596
  427poe     o2 5120   5.448   0.837   4.049  0.6109  0.2605  0.0953
  427poe    c23 5121   5.479   0.973   4.065 -0.5707  0.4677  0.6838
  427poe    c23 5122   5.347   1.036   4.114 -0.7505  0.2721  0.4566
  427poe     o2 5123   5.290   0.939   4.198 -0.2732 -0.7472 -0.3852
  427poe    c31 5124   5.163   0.986   4.237  0.2806  0.2182  0.2805
  428poe    c31 5125   5.809   4.391   0.558 -0.3887 -0.3669  0.2416
  428poe     o2 5126   5.876   4.324   0.662  0.2773 -0.3696 -0.1832
  428poe    c23 5127   5.998   4.267   0.620  0.0181 -0.8688 -0.2708
  428poe    c23 5128   6.069   4.220   0.748  0.7640 -0.0360 -0.3647
  428poe     o2 5129   6.044   4.329   0.833  0.2044 -0.3991 -0.0561
  428poe    c23 5130   6.129   4.331   0.946  0.0202  0.8923  0.0746
  428poe    c23 5131   6.066   4.260   1.067  0.3559 -0.3550 -0.4605
  428poe     o2 5132   5.928   4.287   1.067  0.4999  0.4344  0.0012
  428poe    c23 5133   5.864   4.256   1.188  0.5329  0.9416  0.1512
  428poe    c23 5134   5.906   4.343   1.308  0.0206  0.4295  0.7080
  428poe     o2 5135   5.798   4.433   1.315 -0.5035 -0.1150 -0.1569
  428poe    c31 5136   5.838   4.544   1.393 -1.0438 -0.3131  0.4163
  429poe    c31 5137   0.086   6.137   6.470  0.0650  0.6237  0.0165
  429poe     o2 5138  -0.014   6.121   6.372 -0.1106 -0.1102  0.3094
  429poe    c23 5139   0.040   6.164   6.249 -0.0114 -0.2241  0.3134
  429poe    c23 5140  -0.013   6.302   6.205  0.1155 -0.1963  0.2476
  429poe     o2 5141  -0.153   6.291   6.201  0.1583 -0.6563 -0.0561
  429poe    c23 5142  -0.199   6.224   6.085  0.5087 -0.3526 -0.3732
  429poe    c23 5143  -0.345   6.182   6.109  0.5517 -0.6627 -0.6404
  429poe     o2 5144  -0.341   6.120   6.236 -0.1809  0.1173 -0.2220
  429poe    c23 5145  -0.444   6.023   6.243  0.3930 -0.5219 -0.4854
  429poe    c23 5146  -0.459   5.992   6.394 -0.0812 -0.4107 -0.5101
  429poe     o2 5147  -0.327   5.993   6.442 -0.2984  0.3637  0.1084
  429poe    c31 5148  -0.337   5.978   6.581  0.1626  0.5838  0.1692
  430poe    c31 5149   0.531   0.097   5.596 -0.2175  0.2623  0.1762
  430poe     o2 5150   0.534   0.126   5.734  0.0265 -0.3382  0.3003
  430poe    c23 5151   0.608   0.023   5.796  0.3758 -0.5952 -0.5370
  430poe    c23 5152   0.604   0.057   5.946 -0.5871 -0.7162 -0.5295
  430poe     o2 5153   0.470   0.097   5.968 -0.2833  0.0171  0.0145
  430poe    c23 5154   0.431   0.096   6.104 -0.3548 -0.4989 -0.0041
  430poe    c23 5155   0.306   0.186   6.106 -0.0871 -0.1201 -0.0226
  430poe     o2 5156   0.331   0.280   6.004 -0.5998 -0.0349 -0.0731
  430poe    c23 5157   0.351   0.410   6.055  0.1855  0.1996 -0.9567
  430poe    c23 5158   0.395   0.492   5.932 -0.1331 -0.0330 -1.2307
  430poe     o2 5159   0.497   0.421   5.866 -0.1089 -0.9494 -0.2365
  430poe    c31 5160   0.518   0.495   5.748  0.3975 -0.4033  0.1881
  431poe    c31 5161   1.045   2.324   3.281  0.0844  0.2278 -0.2654
  431poe     o2 5162   0.963   2.287   3.173  0.3262 -0.2966 -0.2696
  431poe    c23 5163   0.830   2.273   3.216  0.2361  0.3437 -0.3332
  431poe    c23 5164   0.740   2.291   3.092 -0.6295  0.6411  0.3240
  431poe     o2 5165   0.813   2.215   2.999 -0.2416  1.0820  0.2651
  431poe    c23 5166   0.739   2.165   2.890  0.2034  0.4734  0.2360
  431poe    c23 5167   0.840   2.113   2.786 -0.5211  0.7221 -0.6074
  431poe     o2 5168   0.951   2.200   2.790 -0.1232  0.1868  0.5239
  431poe    c23 5169   1.054   2.117   2.743 -0.2884  0.3532 -0.1436
  431poe    c23 5170   1.185   2.185   2.786 -0.1246 -0.1695  0.1869
  431poe     o2 5171   1.159   2.217   2.921  0.3125  0.7688  0.0541
  431poe    c31 5172   1.281   2.224   2.992 -0.2552 -0.0800  1.1518
  432poe    c31 5173   0.429   5.975   2.692 -0.4070  0.7753  0.1586
  432poe     o2 5174   0.555   6.009   2.641 -0.1097 -0.5459 -0.0425
  432poe    c23 5175   0.535   5.983   2.504  0.1777  0.5468 -0.3072
  432poe    c23 5176   0.672   5.950   2.444  0.0733 -0.9739  0.2503
  432poe     o2 5177   0.671   5.915   2.307  0.1744  0.5916 -0.1721
  432poe    c23 5178   0.807   5.906   2.272  0.2849 -0.6619  0.5150
  432poe    c23 5179   0.806   5.889   2.119 -0.2067 -0.2324  0.4661
  432poe     o2 5180   0.689   5.814   2.093 -0.3269 -0.1049  0.6404
  432poe    c23 5181   0.691   5.761   1.963 -0.0684 -0.0195  0.6070
  432poe    c23 5182   0.590   5.646   1.942  0.0853  0.0527 -0.6103
  432poe     o2 5183   0.458   5.670   1.987  0.2058  0.1362 -0.3010
  432poe    c31 5184   0.386   5.550   1.973 -0.6865  0.6805 -0.4168
  433poe    c31 5185   5.246   3.501   4.115  0.6999  0.2375 -0.5155
  433poe     o2 5186   5.214   3.521   4.250  0.3150 -0.0188 -0.5694
  433poe    c23 5187   5.118   3.625   4.245 -0.3003 -0.5309  0.1768
  433poe    c23 5188   5.118   3.695   4.381  0.1800  0.3265 -0.2584
  433poe     o2 5189   5.255   3.715   4.409  0.0513  0.2524  0.4418
  433poe    c23 5190   5.287   3.790   4.524  0.1622  0.7325  0.1023
  433poe    c23 5191   5.435   3.757   4.551  0.0181  0.1133  0.1428
  433poe     o2 5192   5.461   3.627   4.501 -0.2692 -0.1759  0.7390
  433poe    c23 5193   5.591   3.597   4.456 -0.6303  0.1554 -0.5781
  433poe    c23 5194   5.577   3.447   4.424  0.2541  0.0698 -0.5827
  433poe     o2 5195   5.462   3.419   4.348 -0.3832 -0.0050  0.3851
  433poe    c31 5196   5.465   3.294   4.282 -0.1110 -0.2762  0.9077
  434poe    c31 5197   0.565   0.269   3.890 -0.3228  0.1913 -0.4984
  434poe     o2 5198   0.659   0.215   3.980  0.2550  1.2486 -0.4427
  434poe    c23 5199   0.771   0.167   3.909 -0.2319  0.1865 -0.5120
  434poe    c23 5200   0.841   0.059   3.993  0.0409  1.0714  0.4151
  434poe     o2 5201   0.867   0.120   4.118  0.4682  0.8060  0.4589
  434poe    c23 5202   0.893   0.016   4.210  0.2319  0.6788  0.3812
  434poe    c23 5203   0.804   0.053   4.330 -0.3167  0.7456 -0.0393
  434poe     o2 5204   0.681   0.098   4.278 -0.1345  0.3705 -0.8120
  434poe    c23 5205   0.580   0.096   4.377  0.6009  0.2618 -0.0517
  434poe    c23 5206   0.459   0.180   4.332  0.2188 -0.1128  0.2719
  434poe     o2 5207   0.514   0.295   4.272  0.1952 -0.2813 -0.0746
  434poe    c31 5208   0.417   0.392   4.240  0.4996 -0.0724 -0.3762
  435poe    c31 5209   5.169   6.212   6.520  0.0848 -0.1163  0.2352
  435poe     o2 5210   5.064   6.130   6.567  0.0626 -0.2684 -0.0746
  435poe    c23 5211   5.127   6.053   6.667 -0.2190  0.5937  0.7864
  435poe    c23 5212   5.024   5.958   6.729 -0.0194 -0.2721 -0.1767
  435poe     o2 5213   4.912   6.043   6.743 -0.1129 -0.3588 -0.3908
  435poe    c23 5214   4.795   5.997   6.806  0.0902  0.0079  0.2693
  435poe    c23 5215   4.707   6.124   6.808  0.3412  0.1901 -0.1259
  435poe     o2 5216   4.723   6.192   6.685  0.0417  0.3101 -0.0975
  435poe    c23 5217   4.711   6.332   6.703  0.3765  0.3048  0.1657
  435poe    c23 5218   4.735   6.371   6.556 -0.1113 -0.0239 -0.0018
  435poe     o2 5219   4.863   6.336   6.508 -0.1142  0.3265 -0.2657
  435poe    c31 5220   4.886   6.404   6.386 -0.8500 -0.0620 -0.6317
  436poe    c31 5221   3.596   1.364   6.032  0.3334  0.4460  0.0718
  436poe     o2 5222   3.484   1.281   6.051  0.1563  0.7540  0.3748
  436poe    c23 5223   3.365   1.339   6.004 -0.1227 -0.2730 -0.2338
  436poe    c23 5224   3.249   1.247   6.045 -0.0054 -0.2250  0.2183
  436poe     o2 5225   3.303   1.122   6.007  0.0380 -0.1731  0.1099
  436poe    c23 5226   3.213   1.015   6.025  0.4662 -0.6399 -0.4769
  436poe    c23 5227   3.287   0.881   6.017 -0.0820 -0.9939  0.2809
  436poe     o2 5228   3.394   0.887   6.109 -0.0724  0.0969  0.2107
  436poe    c23 5229   3.489   0.788   6.076 -0.1523 -0.0011  0.2739
  436poe    c23 5230   3.622   0.862   6.056 -0.2797  0.2204  0.2417
  436poe     o2 5231   3.595   0.986   5.995 -0.3624  0.1907  0.2194
  436poe    c31 5232   3.609   0.992   5.854 -0.1305  0.1890  0.2427
  437poe    c31 5233   5.212   6.782   0.451  0.6313  0.3154 -0.5847
  437poe     o2 5234   5.272   6.659   0.419 -0.0310 -0.1724 -0.0018
  437poe    c23 5235   5.408   6.696   0.423  0.0705 -0.4749 -0.5490
  437poe    c23 5236   5.499   6.572   0.418  0.1856 -0.3814 -0.8498
  437poe     o2 5237   5.427   6.468   0.354 -0.5550  0.0306 -0.6944
  437poe    c23 5238   5.503   6.352   0.330  0.2032  0.3957 -0.1184
  437poe    c23 5239   5.397   6.273   0.251  0.2290 -0.0127  0.2519
  437poe     o2 5240   5.268   6.260   0.306 -0.1105 -0.2711 -0.5856
  437poe    c23 5241   5.195   6.153   0.251  0.5409 -0.9750 -0.0998
  437poe    c23 5242   5.073   6.099   0.328  0.1379 -0.0065 -0.0442
  437poe     o2 5243   4.958   6.169   0.286 -0.1091 -0.4155 -0.0591
  437poe    c31 5244   4.843   6.145   0.364  0.1343 -0.7913  0.1843
  438poe    c31 5245   0.251   2.728   0.559 -0.1032 -0.1113 -0.7223
  438poe     o2 5246   0.113   2.717   0.586  0.0423 -0.0468  0.0448
  438poe    c23 5247   0.055   2.636   0.487 -0.0222 -0.8064  0.6855
  438poe    c23 5248  -0.094   2.605   0.508 -0.0482 -0.9838  0.2574
  438poe     o2 5249  -0.120   2.561   0.639  0.2487 -0.7386  0.3980
  438poe    c23 5250  -0.237   2.616   0.694  0.1960 -0.2414 -0.2100
  438poe    c23 5251  -0.220   2.677   0.834 -0.4316 -0.0604 -0.2084
  438poe     o2 5252  -0.091   2.735   0.831 -0.2207 -0.4960  0.2845
  438poe    c23 5253  -0.082   2.794   0.958  0.3901 -0.2699  0.1408
  438poe    c23 5254   0.024   2.905   0.946 -0.0812  0.1594 -0.1047
  438poe     o2 5255   0.115   2.860   0.849  0.0953  0.0459  0.1135
  438poe    c31 5256   0.204   2.962   0.809  0.2545 -0.2035 -0.1751
  439poe    c31 5257   2.274   4.680   3.152 -0.2757  0.0167  0.2693
  439poe     o2 5258   2.334   4.807   3.155 -0.2496 -0.0065  0.8584
  439poe    c23 5259   2.390   4.839   3.029 -0.5256 -0.4376  0.6267
  439poe    c23 5260   2.459   4.976   3.038  0.0549 -0.7173  0.4604
  439poe     o2 5261   2.354   5.063   3.071  0.4799 -0.0828  0.1541
  439poe    c23 5262   2.363   5.203   3.054  0.4047  0.0670  1.2312
  439poe    c23 5263   2.224   5.259   3.089 -0.1060 -0.0064 -0.5801
  439poe     o2 5264   2.195   5.181   3.202  0.0464 -0.1768 -0.6578
  439poe    c23 5265   2.062   5.177   3.249  0.3146 -0.1227  0.1143
  439poe    c23 5266   2.035   5.057   3.343  0.3372  0.1171  0.4289
  439poe     o2 5267   2.073   4.942   3.270 -0.0782  0.4541 -0.3341
  439poe    c31 5268   1.956   4.864   3.263  0.1152  0.1114  0.1432
  440poe    c31 5269   1.735   2.567   5.889 -0.1378  0.3026 -0.1372
  440poe     o2 5270   1.754   2.688   5.818  0.2159  0.2647 -0.1089
  440poe    c23 5271   1.819   2.768   5.915  0.2772  0.0637  0.0178
  440poe    c23 5272   1.861   2.898   5.843 -0.6056  0.2055 -0.2562
  440poe     o2 5273   1.763   2.932   5.748 -0.6117  0.7693 -0.0569
  440poe    c23 5274   1.784   3.036   5.656  0.3092  0.0788 -0.6453
  440poe    c23 5275   1.675   3.035   5.547 -0.2212  0.1486 -0.1160
  440poe     o2 5276   1.621   2.905   5.553  0.0098  0.0472 -0.2225
  440poe    c23 5277   1.504   2.869   5.485 -0.1198  0.4768 -0.2271
  440poe    c23 5278   1.472   2.722   5.517  1.0104  0.1268 -0.6766
  440poe     o2 5279   1.493   2.690   5.652  0.1207  0.3529 -0.4811
  440poe    c31 5280   1.439   2.562   5.673  1.0071 -0.0593 -0.6758
  441poe    c31 5281   6.596   0.737   1.984  0.4883  0.3624 -0.4448
  441poe     o2 5282   6.596   0.732   1.843 -0.0792  0.1498 -0.4380
  441poe    c23 5283   6.667   0.617   1.804  0.3473  0.4344 -0.5075
  441poe    c23 5284   6.652   0.610   1.651 -0.2670  0.2771 -0.4433
  441poe     o2 5285   6.669   0.743   1.607 -0.3692  0.6440  0.5981
  441poe    c23 5286   6.634   0.766   1.472  0.8607 -0.1856  0.1202
  441poe    c23 5287   6.605   0.917   1.468  0.4888 -0.2288  0.9891
  441poe     o2 5288   6.499   0.924   1.561 -0.1172 -0.2960  0.3174
  441poe    c23 5289   6.450   1.055   1.580 -0.6530 -0.3361 -0.7145
  441poe    c23 5290   6.330   1.051   1.676 -0.5297 -0.3655 -0.5608
  441poe     o2 5291   6.377   0.945   1.757  0.4685  0.1152 -0.4965
  441poe    c31 5292   6.297   0.919   1.870  0.1180 -0.5826 -0.9009
  442poe    c31 5293   5.811   2.500   5.658  0.0289 -0.4910  0.5885
  442poe     o2 5294   5.937   2.475   5.717  0.3555  0.2578  0.2143
  442poe    c23 5295   6.023   2.584   5.688  0.1481  0.4703  0.3941
  442poe    c23 5296   6.152   2.567   5.769  0.4856  0.2181 -0.1880
  442poe     o2 5297   6.193   2.438   5.731 -0.4379 -0.1592  0.0556
  442poe    c23 5298   6.289   2.379   5.816  0.1202  0.2233 -0.3005
  442poe    c23 5299   6.283   2.226   5.803  0.2236  0.1150  0.8008
  442poe     o2 5300   6.145   2.199   5.793  0.3403 -0.1182 -0.3831
  442poe    c23 5301   6.109   2.065   5.814 -0.0528  0.1858  0.9648
  442poe    c23 5302   5.958   2.047   5.792  0.0375  0.0801  0.4337
  442poe     o2 5303   5.898   2.127   5.692  0.2360 -0.2398  0.0553
  442poe    c31 5304   5.763   2.105   5.659  0.2735 -0.2703 -0.0768
  443poe    c31 5305   6.638   4.857   5.626 -0.2198  0.7219  0.9315
  443poe     o2 5306   6.765   4.849   5.688  0.1843  0.2276  0.0634
  443poe    c23 5307   6.857   4.798   5.595 -0.4979  0.2410 -0.6322
  443poe    c23 5308   6.998   4.803   5.657 -0.7365 -0.3507 -0.0272
  443poe     o2 5309   7.021   4.696   5.746 -0.1197 -0.0912  0.1278
  443poe    c23 5310   7.159   4.677   5.767 -0.1384  0.0514  0.3885
  443poe    c23 5311   7.182   4.610   5.904  0.3385  0.7266  0.6473
  443poe     o2 5312   7.083   4.510   5.911  0.4934  0.4959 -0.2529
  443poe    c23 5313   7.089   4.473   6.047  0.4163 -0.0421 -0.3915
  443poe    c23 5314   6.975   4.377   6.085  0.0859  0.4268 -0.1787
  443poe     o2 5315   6.852   4.437   6.053 -0.0383  0.4219  0.2796
  443poe    c31 5316   6.738   4.376   6.109  0.2513  0.3227  0.7632
  444poe    c31 5317   1.283   6.368   2.826  0.1703 -0.1575 -0.3036
  444poe     o2 5318   1.280   6.227   2.821 -0.0161 -0.1493 -0.4073
  444poe    c23 5319   1.392   6.176   2.889  0.0236  0.4270 -0.0313
  444poe    c23 5320   1.346   6.109   3.020  0.2522 -0.2329 -0.2814
  444poe     o2 5321   1.240   6.027   2.976 -0.2808  0.0124  0.5201
  444poe    c23 5322   1.164   5.972   3.081 -0.6045 -0.4522  0.0435
  444poe    c23 5323   1.028   5.930   3.021 -0.8956  0.0475  0.3474
  444poe     o2 5324   1.009   6.031   2.925  0.4509 -0.0149 -0.0063
  444poe    c23 5325   0.886   6.013   2.859 -0.0222  0.3262  0.7689
  444poe    c23 5326   0.883   6.128   2.757  0.2520 -0.3538 -0.0230
  444poe     o2 5327   1.013   6.158   2.712  0.0872 -0.2541 -0.4405
  444poe    c31 5328   1.004   6.213   2.583  0.0197 -0.5158 -0.5479
  445poe    c31 5329   2.580   1.841   5.887 -0.5302 -0.3854 -0.0684
  445poe     o2 5330   2.451   1.852   5.943 -0.2569 -0.4580  0.5792
  445poe    c23 5331   2.367   1.774   5.861 -0.0008 -0.4075  0.2678
  445poe    c23 5332   2.225   1.780   5.919 -0.2420 -0.3430 -0.3199
  445poe     o2 5333   2.257   1.785   6.057 -0.3054  0.0512 -0.3198
  445poe    c23 5334   2.147   1.838   6.128 -0.1382 -0.2587  0.1693
  445poe    c23 5335   2.187   1.816   6.275 -0.2418 -0.2833  0.1944
  445poe     o2 5336   2.314   1.876   6.291 -0.3207 -0.1517  0.3246
  445poe    c23 5337   2.334   2.012   6.322 -0.2084  0.1055 -0.8379
  445poe    c23 5338   2.482   2.055   6.310 -0.0731  0.0595  0.4743
  445poe     o2 5339   2.549   1.978   6.213  0.1294  0.2372  0.4729
  445poe    c31 5340   2.688   2.004   6.211  0.0194  0.8178  0.0225
  446poe    c31 5341   3.242   3.695   1.792  0.3223 -0.3099  0.2941
  446poe     o2 5342   3.265   3.814   1.719 -0.1518  0.0213  0.6754
  446poe    c23 5343   3.392   3.871   1.738 -0.1238  0.2124 -0.0351
  446poe    c23 5344   3.380   3.999   1.653 -0.3572 -0.0163 -0.3493
  446poe     o2 5345   3.325   3.965   1.528  0.4503 -0.3471 -0.6212
  446poe    c23 5346   3.284   4.067   1.440 -0.4372 -0.2952 -0.1640
  446poe    c23 5347   3.254   3.979   1.317  0.2128 -0.2910 -0.3288
  446poe     o2 5348   3.169   3.871   1.350 -0.0607 -0.1892 -0.6893
  446poe    c23 5349   3.179   3.768   1.255  0.0196 -0.4910 -0.3547
  446poe    c23 5350   3.094   3.660   1.324 -0.1113 -0.3375 -0.2759
  446poe     o2 5351   3.140   3.649   1.457  0.0211 -0.0612 -0.2995
  446poe    c31 5352   3.105   3.523   1.508  0.2847  0.3420  0.8933
  447poe    c31 5353   0.547   1.772   2.923  0.3704  0.3895  1.1297
  447poe     o2 5354   0.514   1.649   2.985  1.3027 -0.1889  0.5034
  447poe    c23 5355   0.532   1.551   2.886  0.1991  0.1131 -0.0083
  447poe    c23 5356   0.578   1.427   2.964  0.2206 -0.0921 -0.3420
  447poe     o2 5357   0.488   1.410   3.072  0.4022  0.2367 -0.1369
  447poe    c23 5358   0.552   1.331   3.169  0.1389  0.1314 -0.0487
  447poe    c23 5359   0.509   1.371   3.311 -0.4481 -0.0069 -0.1856
  447poe     o2 5360   0.460   1.503   3.321  0.4553  0.3549 -0.4332
  447poe    c23 5361   0.546   1.586   3.397 -0.5095  0.1321  0.9425
  447poe    c23 5362   0.487   1.727   3.381 -0.7535 -0.0638  0.0354
  447poe     o2 5363   0.435   1.729   3.250 -0.5925 -0.8464 -0.0471
  447poe    c31 5364   0.367   1.853   3.246  0.6708 -0.1543 -0.5899
  448poe    c31 5365   1.072   3.479   1.795 -0.1559 -0.2135 -0.1799
  448poe     o2 5366   1.181   3.550   1.847 -0.1040 -0.1701 -0.3476
  448poe    c23 5367   1.204   3.655   1.755  0.0940 -0.4677 -0.6392
  448poe    c23 5368   1.309   3.748   1.818  0.3038 -0.8966 -0.3440
  448poe     o2 5369   1.402   3.664   1.881  0.0450 -0.7787  0.2059
  448poe    c23 5370   1.526   3.730   1.888 -0.2034 -0.2786 -0.0545
  448poe    c23 5371   1.606   3.610   1.942 -0.7240 -0.4306  0.3861
  448poe     o2 5372   1.521   3.529   2.020 -0.9181 -0.8164 -0.2212
  448poe    c23 5373   1.575   3.399   2.013  0.1864 -0.3815  0.0684
  448poe    c23 5374   1.473   3.289   2.050 -0.0991  0.0360  0.5393
  448poe     o2 5375   1.352   3.334   1.994 -0.2845 -0.3724  0.6128
  448poe    c31 5376   1.282   3.227   1.933  0.3981 -0.2738 -0.3625
  449poe    c31 5377   3.400   4.911   5.788 -0.1298 -0.2433  0.3423
  449poe     o2 5378   3.388   4.986   5.669  0.5348  0.4692  0.7131
  449poe    c23 5379   3.504   4.993   5.590  0.1250  0.6283  0.1168
  449poe    c23 5380   3.471   5.034   5.445  0.0818  0.4343  0.0724
  449poe     o2 5381   3.430   5.165   5.416 -0.1209  0.1453 -1.0132
  449poe    c23 5382   3.291   5.183   5.434 -0.0815 -0.0461 -0.4847
  449poe    c23 5383   3.252   5.324   5.387  0.3629  0.1764 -0.1960
  449poe     o2 5384   3.362   5.406   5.419  0.4026  0.1013 -0.1406
  449poe    c23 5385   3.356   5.534   5.359  0.1544  0.2396  0.1775
  449poe    c23 5386   3.495   5.599   5.371  0.4265 -0.0759 -1.0669
  449poe     o2 5387   3.580   5.508   5.306  0.0589 -0.5550 -0.8820
  449poe    c31 5388   3.697   5.584   5.285  0.1618 -0.3631  0.3303
  450poe    c31 5389   4.763   2.676   5.464  0.4093  0.6582  0.3386
  450poe     o2 5390   4.681   2.708   5.353 -0.2672  0.0424  0.6475
  450poe    c23 5391   4.562   2.640   5.384 -0.5224  0.2196  0.0546
  450poe    c23 5392   4.452   2.701   5.295 -0.7420 -0.1953  0.0390
  450poe     o2 5393   4.503   2.693   5.164 -0.2609 -0.6276  0.2506
  450poe    c23 5394   4.414   2.673   5.057 -0.0665 -0.2032  0.0069
  450poe    c23 5395   4.447   2.769   4.941  0.2788 -0.2424  0.0719
  450poe     o2 5396   4.587   2.776   4.932  0.1944  0.1216 -1.0833
  450poe    c23 5397   4.636   2.906   4.908 -0.0976  0.3324 -0.5534
  450poe    c23 5398   4.763   2.940   4.988 -0.3793  0.0389  0.0266
  450poe     o2 5399   4.748   2.898   5.121 -0.4909  0.5281  0.1686
  450poe    c31 5400   4.842   2.960   5.206 -0.1719  0.0540  0.1608
  451poe    c31 5401   4.059   5.095   5.468  0.1491  0.6215  0.0251
  451poe     o2 5402   4.109   5.224   5.494  0.3119  0.5607  0.0100
  451poe    c23 5403   4.139   5.274   5.366  0.3617  0.0692 -0.1719
  451poe    c23 5404   4.214   5.403   5.403  0.0056  0.0938  0.4659
  451poe     o2 5405   4.158   5.467   5.516 -0.5149 -0.0724  0.3006
  451poe    c23 5406   4.238   5.569   5.571 -0.2351 -0.0949 -0.0615
  451poe    c23 5407   4.181   5.588   5.712 -0.6904 -0.1048 -0.2415
  451poe     o2 5408   4.163   5.458   5.763  0.8892 -0.1772  0.1687
  451poe    c23 5409   4.105   5.437   5.890 -0.3718  0.1083 -0.3557
  451poe    c23 5410   4.092   5.285   5.912 -0.2069  0.1454 -0.0065
  451poe     o2 5411   4.065   5.222   5.789  0.3727  0.4926 -0.3174
  451poe    c31 5412   4.022   5.089   5.806  0.0413  0.5441 -0.7281
  452poe    c31 5413   2.870   4.970   2.432 -0.7666 -0.2450 -0.0395
  452poe     o2 5414   2.773   4.912   2.516 -0.1797 -0.7025  0.3284
  452poe    c23 5415   2.724   5.004   2.611 -0.4856 -0.3783 -0.1433
  452poe    c23 5416   2.593   4.949   2.670 -0.2779 -0.3804  0.3208
  452poe     o2 5417   2.521   4.906   2.557 -0.1925  0.4137 -0.0449
  452poe    c23 5418   2.409   4.830   2.596  0.2359 -0.2295 -0.0506
  452poe    c23 5419   2.379   4.757   2.463 -0.5592 -0.4334  0.2346
  452poe     o2 5420   2.499   4.696   2.419 -0.5358 -0.1174 -0.1446
  452poe    c23 5421   2.499   4.653   2.285  0.1500  0.4124 -0.3149
  452poe    c23 5422   2.637   4.608   2.232 -0.1718  0.5015 -1.2476
  452poe     o2 5423   2.726   4.699   2.292 -0.0295 -0.6385  0.3367
  452poe    c31 5424   2.854   4.679   2.235 -0.1146 -0.0578 -0.0746
  453poe    c31 5425   2.104   1.381   3.874  0.0784  0.2650  0.2369
  453poe     o2 5426   1.965   1.394   3.892 -0.0493 -0.2021 -0.4046
  453poe    c23 5427   1.940   1.532   3.886  0.1083 -0.1324  0.4654
  453poe    c23 5428   1.879   1.573   4.021 -0.3405  0.4065  0.1055
  453poe     o2 5429   1.773   1.481   4.025 -0.2982  0.3585  0.1205
  453poe    c23 5430   1.717   1.464   4.154  0.1217 -0.3179  0.2222
  453poe    c23 5431   1.641   1.330   4.147 -0.4024 -0.0250  0.2116
  453poe     o2 5432   1.725   1.237   4.082 -0.7724 -0.0233 -0.2734
  453poe    c23 5433   1.673   1.107   4.062 -0.4546 -0.3263  0.7984
  453poe    c23 5434   1.799   1.037   4.010 -0.7298  0.0243 -0.3644
  453poe     o2 5435   1.866   1.097   3.902 -0.2064 -0.2537 -0.2006
  453poe    c31 5436   1.983   1.024   3.872  0.4767  0.4113  0.7738
  454poe    c31 5437   5.724   4.868   1.793 -0.4954 -0.4288 -0.3842
  454poe     o2 5438   5.669   4.961   1.884  0.4367  0.0771 -0.3263
  454poe    c23 5439   5.748   4.976   2.000  0.6241  0.3133 -0.4823
  454poe    c23 5440   5.659   5.027   2.115  0.0218 -0.6425 -0.5068
  454poe     o2 5441   5.586   5.128   2.049  0.2280 -0.1305  0.0479
  454poe    c23 5442   5.481   5.179   2.128  0.2907  0.4526 -0.2401
  454poe    c23 5443   5.378   5.246   2.034  0.2924  0.3784 -0.2959
  454poe     o2 5444   5.372   5.175   1.913 -0.2067 -0.0535 -0.0247
  454poe    c23 5445   5.289   5.231   1.813  0.5563  0.7202 -0.2462
  454poe    c23 5446   5.320   5.138   1.694  0.1391 -0.3512  0.4603
  454poe     o2 5447   5.454   5.097   1.699  0.4121  0.4196 -0.2892
  454poe    c31 5448   5.478   5.021   1.583  0.1558 -0.2983  0.1231
  455poe    c31 5449   5.565   2.925   6.478 -0.3417  0.0382 -0.4431
  455poe     o2 5450   5.511   3.054   6.466  0.1758  0.3231  0.2318
  455poe    c23 5451   5.591   3.140   6.544  0.1447 -0.0095  0.6354
  455poe    c23 5452   5.521   3.278   6.551  0.1038 -0.0288  0.6058
  455poe     o2 5453   5.470   3.279   6.419  0.3917 -0.4308  0.4867
  455poe    c23 5454   5.393   3.391   6.382  0.7111 -0.4756 -0.3293
  455poe    c23 5455   5.313   3.361   6.254 -0.2168 -0.0330  0.1419
  455poe     o2 5456   5.292   3.222   6.266  0.5136 -0.1727 -0.1882
  455poe    c23 5457   5.250   3.181   6.138 -0.1501  0.5201 -0.2010
  455poe    c23 5458   5.228   3.031   6.165  0.1539  0.4321 -0.4341
  455poe     o2 5459   5.324   2.972   6.250 -0.1198  0.2721 -0.2333
  455poe    c31 5460   5.305   2.835   6.276 -0.4176  0.4110  0.2897
  456poe    c31 5461   0.728   3.541   4.131  0.2167  0.0648  0.0230
  456poe     o2 5462   0.626   3.451   4.093  0.1422  0.1248  0.0795
  456poe    c23 5463   0.578   3.357   4.186 -0.1316  0.2125  0.0273
  456poe    c23 5464   0.467   3.278   4.115  0.2910  0.0039 -0.4117
  456poe     o2 5465   0.506   3.248   3.983 -0.1347  0.2967 -0.6048
  456poe    c23 5466   0.407   3.187   3.902 -0.3950 -0.3430  0.1856
  456poe    c23 5467   0.326   3.294   3.826  0.1787 -0.3931 -0.4991
  456poe     o2 5468   0.429   3.382   3.785  0.0802 -0.2700 -0.4816
  456poe    c23 5469   0.374   3.509   3.760  0.2811 -0.1395 -0.2625
  456poe    c23 5470   0.490   3.598   3.711  0.1592 -0.0736 -0.4298
  456poe     o2 5471   0.592   3.603   3.808 -0.0541  0.3459 -0.2242
  456poe    c31 5472   0.710   3.658   3.755  0.2565  0.5361  0.6558
  457poe    c31 5473   5.036   3.945   1.159  0.0816 -0.4639 -1.1071
  457poe     o2 5474   4.900   3.928   1.195  0.1459  0.7393 -0.2171
  457poe    c23 5475   4.865   4.030   1.286  0.1824  0.3316  0.2602
  457poe    c23 5476   4.711   4.033   1.285  0.1765  0.1883  0.6433
  457poe     o2 5477   4.671   3.898   1.289  0.3216  0.1130 -0.3240
  457poe    c23 5478   4.532   3.877   1.298  0.3062 -0.0477 -0.9187
  457poe    c23 5479   4.505   3.735   1.353  0.5744  0.1585 -0.2572
  457poe     o2 5480   4.573   3.654   1.260 -0.1710 -0.2572 -0.4419
  457poe    c23 5481   4.640   3.545   1.319 -0.1733  0.0538  0.1467
  457poe    c23 5482   4.789   3.568   1.350 -0.2364  0.5616  0.0833
  457poe     o2 5483   4.839   3.636   1.237 -0.0416  0.3295  0.0283
  457poe    c31 5484   4.976   3.603   1.233 -0.2425 -0.4365 -0.6282
  458poe    c31 5485   0.891   2.201   4.851  0.0462  0.4808  0.3052
  458poe     o2 5486   0.791   2.102   4.853  0.1758  0.3551  0.6543
  458poe    c23 5487   0.820   1.965   4.871 -0.4009  0.2166  0.5580
  458poe    c23 5488   0.688   1.886   4.876 -0.2193 -0.1093  0.2710
  458poe     o2 5489   0.612   1.968   4.962 -0.1366  0.3963 -0.1275
  458poe    c23 5490   0.499   1.915   5.028 -0.1102  0.9682  0.3846
  458poe    c23 5491   0.384   2.010   4.988 -0.4954  0.4083  0.1399
  458poe     o2 5492   0.460   2.128   4.995  0.2158 -0.0470  0.2473
  458poe    c23 5493   0.380   2.243   4.980  0.2553 -0.0094  0.3230
  458poe    c23 5494   0.470   2.365   5.006 -0.1762  0.3622  0.0862
  458poe     o2 5495   0.588   2.372   4.928 -0.1784 -0.2339  0.0292
  458poe    c31 5496   0.679   2.470   4.971 -1.1137  0.6705 -0.0202
  459poe    c31 5497   3.144   2.282   4.770  0.1087 -0.1977  0.0868
  459poe     o2 5498   3.116   2.357   4.654  0.1601 -0.2397  0.0467
  459poe    c23 5499   2.977   2.383   4.642  0.2208  0.1156  0.0809
  459poe    c23 5500   2.952   2.449   4.505 -0.0521 -0.0455  0.0528
  459poe     o2 5501   3.059   2.540   4.495  0.4399 -0.6323 -0.0710
  459poe    c23 5502   3.080   2.588   4.364  0.2065 -0.0892  0.0897
  459poe    c23 5503   3.206   2.677   4.368 -0.0476  0.2680  0.1766
  459poe     o2 5504   3.298   2.601   4.442  0.2956  0.2915 -0.2247
  459poe    c23 5505   3.406   2.682   4.485  0.2987  0.4081 -0.4535
  459poe    c23 5506   3.498   2.575   4.546 -0.2399 -0.0425 -0.4182
  459poe     o2 5507   3.411   2.489   4.616  0.3462 -0.2680  0.0426
  459poe    c31 5508   3.497   2.409   4.695 -0.4691 -1.1298  0.0770
  460poe    c31 5509   0.934   1.890   1.573  0.0178 -0.1343  0.4358
  460poe     o2 5510   0.818   1.955   1.529  0.3799  0.1986 -0.0422
  460poe    c23 5511   0.712   1.896   1.602  0.2565  0.2867 -0.1489
  460poe    c23 5512   0.596   1.995   1.619 -0.3976 -0.5397  0.2543
  460poe     o2 5513   0.583   2.065   1.497  0.4835  0.2922  0.6335
  460poe    c23 5514   0.513   2.187   1.500 -0.0598 -0.0072  0.1486
  460poe    c23 5515   0.566   2.263   1.376  0.4029 -0.3160  0.1553
  460poe     o2 5516   0.704   2.239   1.366  0.3779 -0.4442  0.1130
  460poe    c23 5517   0.774   2.297   1.258 -0.0235 -0.1191  0.0238
  460poe    c23 5518   0.921   2.259   1.286 -0.0876 -0.0346  0.4750
  460poe     o2 5519   0.944   2.132   1.343 -0.0551 -0.1195  0.2724
  460poe    c31 5520   1.082   2.109   1.333 -0.0557 -0.0578  0.1160
  461poe    c31 5521   2.884   0.253   0.133  0.6258  0.3747  0.3863
  461poe     o2 5522   2.830   0.282   0.006  0.1949 -0.7922  0.2961
  461poe    c23 5523   2.700   0.232  -0.020 -0.1393  0.1995  0.0144
  461poe    c23 5524   2.606   0.346  -0.063 -0.4016  0.0128  0.0932
  461poe     o2 5525   2.660   0.421  -0.169 -0.2036  0.0934  0.2494
  461poe    c23 5526   2.550   0.497  -0.213 -0.3769 -0.1908  0.1864
  461poe    c23 5527   2.589   0.568  -0.344 -0.0134 -0.8556 -0.0702
  461poe     o2 5528   2.715   0.628  -0.325 -0.6904  0.6330 -0.1466
  461poe    c23 5529   2.772   0.665  -0.448  0.2108 -0.2805 -0.0174
  461poe    c23 5530   2.915   0.687  -0.396  0.1638  0.1598 -0.0668
  461poe     o2 5531   2.957   0.579  -0.315 -0.2380 -0.2042 -0.3386
  461poe    c31 5532   3.098   0.590  -0.312 -0.2046 -0.6145 -0.3630
  462poe    c31 5533   5.648   2.084   0.099  0.1031 -0.1451  0.2215
  462poe     o2 5534   5.775   2.141   0.117  0.2438 -0.2443 -0.4087
  462poe    c23 5535   5.869   2.044   0.154  0.0247 -0.3343 -0.0766
  462poe    c23 5536   5.984   2.123   0.221 -0.2847  0.1707 -0.1393
  462poe     o2 5537   6.023   2.221   0.127  0.4154  0.0982  0.0716
  462poe    c23 5538   6.129   2.300   0.175 -0.0573  0.4362  0.5730
  462poe    c23 5539   6.156   2.404   0.065 -0.6874 -0.1954 -0.1922
  462poe     o2 5540   6.029   2.462   0.051 -0.4289  0.5061  0.3130
  462poe    c23 5541   6.003   2.497  -0.083  0.3557  0.0453  0.0334
  462poe    c23 5542   5.852   2.519  -0.105  0.4272  0.5431  0.0182
  462poe     o2 5543   5.793   2.397  -0.066  0.2122  0.7608  0.3848
  462poe    c31 5544   5.659   2.401  -0.108  0.1570  0.8839  0.5763
  463poe    c31 5545   6.644   4.964   4.732 -0.1218 -0.5488 -0.3369
  463poe     o2 5546   6.515   4.914   4.761  0.1825 -0.6143  0.9651
  463poe    c23 5547   6.435   5.010   4.827 -0.1850 -0.2597  0.0111
  463poe    c23 5548   6.292   4.986   4.774 -0.1798  0.0189 -0.1270
  463poe     o2 5549   6.282   4.846   4.777  0.0188  0.0174  0.5780
  463poe    c23 5550   6.151   4.800   4.752  0.2639 -0.0956 -0.5462
  463poe    c23 5551   6.137   4.653   4.795  0.0262  0.1978  0.4173
  463poe     o2 5552   6.252   4.602   4.731 -0.2716  0.0184  0.0191
  463poe    c23 5553   6.327   4.498   4.790  0.5054  0.6048  0.0842
  463poe    c23 5554   6.408   4.531   4.916  0.3795  0.0196  0.3218
  463poe     o2 5555   6.477   4.651   4.889  0.5826 -0.0249  0.6352
  463poe    c31 5556   6.585   4.689   4.972  0.6635  0.4494  0.3200
  464poe    c31 5557   1.902   5.320   2.406 -0.0610 -0.4174  0.2519
  464poe     o2 5558   1.929   5.186   2.375  0.0692 -0.4084  0.3260
  464poe    c23 5559   1.980   5.175   2.244 -0.7133 -0.4141  0.0122
  464poe    c23 5560   2.045   5.036   2.228 -0.0071 -0.1444  0.5019
  464poe     o2 5561   1.959   4.952   2.301  0.0343 -0.0779  0.6284
  464poe    c23 5562   1.987   4.813   2.300  0.3328 -0.0288  1.2288
  464poe    c23 5563   1.872   4.725   2.350  0.0550 -0.2983  0.1497
  464poe     o2 5564   1.805   4.796   2.452  0.1291  0.4906 -0.3464
  464poe    c23 5565   1.665   4.786   2.445  0.0859  0.5105  0.3896
  464poe    c23 5566   1.603   4.920   2.489 -0.1210  0.4731  0.2157
  464poe     o2 5567   1.689   5.031   2.472  0.3612  0.1142  0.3052
  464poe    c31 5568   1.619   5.147   2.510 -0.0626 -0.2174  0.5405
  465poe    c31 5569   1.584   6.106   1.374  0.2763 -0.1803  0.5529
  465poe     o2 5570   1.626   5.972   1.386  0.1643 -0.3051 -0.4200
  465poe    c23 5571   1.542   5.896   1.301 -0.5259  0.2186 -0.2149
  465poe    c23 5572   1.573   5.747   1.318 -0.1874  0.3358  0.2303
  465poe     o2 5573   1.607   5.737   1.454  0.4325 -0.3217  0.0350
  465poe    c23 5574   1.638   5.603   1.486 -0.0746 -0.3863  0.2767
  465poe    c23 5575   1.760   5.595   1.580  0.1592 -0.4688 -0.0312
  465poe     o2 5576   1.767   5.710   1.660 -0.0879 -0.0662 -0.5825
  465poe    c23 5577   1.896   5.760   1.685 -0.3297  0.7095 -0.8488
  465poe    c23 5578   1.871   5.904   1.734  0.1464  0.3663  0.4605
  465poe     o2 5579   1.795   5.971   1.635  0.3439  0.1397  0.1542
  465poe    c31 5580   1.783   6.110   1.650 -0.3330  0.0288  0.6843
  466poe    c31 5581   6.768   1.711   0.701  0.1416 -0.4046 -0.0817
  466poe     o2 5582   6.755   1.810   0.601  0.4865 -0.2404  0.0339
  466poe    c23 5583   6.776   1.732   0.485  0.2403  0.2529 -0.3462
  466poe    c23 5584   6.847   1.822   0.382  0.4908  0.2225 -0.2018
  466poe     o2 5585   6.773   1.942   0.377  0.2478  0.0674 -0.3195
  466poe    c23 5586   6.856   2.048   0.335  0.2776  0.2253  0.1327
  466poe    c23 5587   6.797   2.171   0.406  0.2752  0.1292  0.3002
  466poe     o2 5588   6.793   2.136   0.542  0.5470 -0.5332  0.1421
  466poe    c23 5589   6.784   2.246   0.630  0.2298 -0.2886 -0.1917
  466poe    c23 5590   6.758   2.190   0.771  0.6599 -0.5582 -0.2176
  466poe     o2 5591   6.662   2.086   0.770  0.3154 -0.2464  0.1022
  466poe    c31 5592   6.632   2.030   0.896  0.1031  0.0659  0.1929
  467poe    c31 5593   3.044   4.405   4.169  0.0456  0.0887  0.5549
  467poe     o2 5594   2.929   4.325   4.190 -0.2217  0.2350 -0.3108
  467poe    c23 5595   2.933   4.222   4.285 -0.0214  0.1495 -0.4114
  467poe    c23 5596   2.810   4.132   4.260  0.0985 -0.1521  0.0546
  467poe     o2 5597   2.797   4.126   4.119  0.1970  0.7949 -0.0034
  467poe    c23 5598   2.671   4.086   4.070  0.0937  0.5681  0.4402
  467poe    c23 5599   2.657   4.119   3.921  0.2347 -0.2651  0.2353
  467poe     o2 5600   2.697   4.254   3.933  0.0813 -0.2370  0.4403
  467poe    c23 5601   2.642   4.343   3.839  0.2489 -0.0966  0.4747
  467poe    c23 5602   2.642   4.476   3.917 -0.5950  0.3886 -0.3254
  467poe     o2 5603   2.764   4.474   3.988 -0.8461 -1.1571  0.1088
  467poe    c31 5604   2.770   4.594   4.062  0.6997 -0.8071 -0.5563
  468poe    c31 5605   6.345   0.423   4.199  0.4975  0.2070 -0.1993
  468poe     o2 5606   6.421   0.306   4.185 -0.1500 -0.2499  0.0668
  468poe    c23 5607   6.476   0.273   4.311  0.3837  0.7696  0.1096
  468poe    c23 5608   6.548   0.137   4.300 -0.6422  0.2197  0.0810
  468poe     o2 5609   6.607   0.118   4.173  0.0815  0.5751  0.3566
  468poe    c23 5610   6.672  -0.007   4.162 -0.7312  0.1742  0.0012
  468poe    c23 5611   6.754  -0.008   4.032 -0.1251 -0.2219  0.3835
  468poe     o2 5612   6.684   0.040   3.920  0.6428  0.3053  0.1207
  468poe    c23 5613   6.737   0.160   3.868  0.4555  0.5194  0.4151
  468poe    c23 5614   6.617   0.230   3.802  0.0833 -0.0252  0.5092
  468poe     o2 5615   6.528   0.293   3.892 -0.0044  0.0626  0.3627
  468poe    c31 5616   6.450   0.391   3.828 -0.1810 -0.2003  0.1761
  469poe    c31 5617   4.281   2.795   6.516  0.3793 -0.1734  0.0300
  469poe     o2 5618   4.263   2.688   6.606  0.2052 -0.2501 -0.0944
  469poe    c23 5619   4.335   2.703   6.726 -0.4041 -0.4459  0.2996
  469poe    c23 5620   4.316   2.564   6.790 -0.0467 -0.5216  0.2468
  469poe     o2 5621   4.353   2.461   6.701  0.5768  0.2597 -0.4184
  469poe    c23 5622   4.336   2.336   6.765 -0.2773  0.2902 -0.5684
  469poe    c23 5623   4.364   2.224   6.663 -0.4290 -0.6484  0.4098
  469poe     o2 5624   4.284   2.253   6.551  0.5954  0.2675 -0.1116
  469poe    c23 5625   4.356   2.230   6.433  0.4163  0.2394 -0.2152
  469poe    c23 5626   4.328   2.342   6.330 -0.0977  0.2979 -0.0128
  469poe     o2 5627   4.343   2.472   6.381  0.3756  0.1947  0.1083
  469poe    c31 5628   4.306   2.557   6.275 -0.2996  0.0871  0.2542
  470poe    c31 5629   5.937   6.687   6.154  0.4340 -0.2163  0.2844
  470poe     o2 5630   5.884   6.718   6.281  0.9509  0.3462  0.3695
  470poe    c23 5631   5.941   6.649   6.390 -0.2466 -0.3582  0.5718
  470poe    c23 5632   5.907   6.740   6.509  0.2958  0.1056  0.3763
  470poe     o2 5633   5.769   6.760   6.490  0.1759 -0.6400  0.4128
  470poe    c23 5634   5.699   6.798   6.606 -0.1312 -0.2150  0.0906
  470poe    c23 5635   5.549   6.793   6.570 -0.2371  0.4688  0.4024
  470poe     o2 5636   5.537   6.894   6.473 -0.3314 -0.4440 -0.5586
  470poe    c23 5637   5.444   6.860   6.373 -0.1542 -0.7466 -0.6201
  470poe    c23 5638   5.489   6.896   6.230 -0.2715  0.4044 -0.3761
  470poe     o2 5639   5.599   6.820   6.186 -0.4308  0.0284 -0.1343
  470poe    c31 5640   5.609   6.828   6.046 -0.5399  0.0285 -0.1416
  471poe    c31 5641   6.750   6.185   3.656  0.1885 -0.6247  0.4032
  471poe     o2 5642   6.665   6.125   3.562  0.1595 -0.0706  0.0743
  471poe    c23 5643   6.536   6.113   3.618  0.2186 -0.3295  0.1552
  471poe    c23 5644   6.447   6.103   3.492  0.3936 -0.2055  0.0212
  471poe     o2 5645   6.502   5.993   3.425 -0.3123 -0.2794 -0.4537
  471poe    c23 5646   6.429   5.955   3.311 -0.2041  0.3407 -0.7308
  471poe    c23 5647   6.540   5.922   3.209  0.0068  0.0132 -0.3985
  471poe     o2 5648   6.639   6.022   3.213  0.3517 -0.3549  0.5972
  471poe    c23 5649   6.738   6.009   3.114 -0.3944  0.4779 -0.2807
  471poe    c23 5650   6.844   6.114   3.151 -0.1846  0.0660  0.3055
  471poe     o2 5651   6.870   6.113   3.289 -0.5434  0.4808  0.3764
  471poe    c31 5652   6.998   6.167   3.316 -0.4754  0.3800  0.2565
  472poe    c31 5653   6.799   3.356   2.452 -0.3062  0.3203  0.2760
  472poe     o2 5654   6.740   3.330   2.578 -0.4908 -0.1875  0.0878
  472poe    c23 5655   6.828   3.233   2.629  0.3547  0.5782  0.1147
  472poe    c23 5656   6.744   3.152   2.730  0.1260  0.1469 -0.4174
  472poe     o2 5657   6.650   3.239   2.791  0.1408 -0.2247  0.1400
  472poe    c23 5658   6.539   3.169   2.842 -0.7026  0.6936 -0.3993
  472poe    c23 5659   6.419   3.265   2.841 -0.5707  0.8790  0.4600
  472poe     o2 5660   6.427   3.323   2.713  0.0581 -0.1476  0.0185
  472poe    c23 5661   6.314   3.393   2.665  0.3120  0.4229  0.2414
  472poe    c23 5662   6.351   3.398   2.516  0.3386 -0.4631  0.2108
  472poe     o2 5663   6.475   3.463   2.500  0.2123 -0.1953  0.3038
  472poe    c31 5664   6.495   3.510   2.369 -0.0585  0.5554  0.5268
  473poe    c31 5665   5.024   1.582   6.037 -0.4959 -0.0266  0.5102
  473poe     o2 5666   5.140   1.523   6.089 -0.2906  0.2287  0.3425
  473poe    c23 5667   5.144   1.543   6.229 -0.4131  0.0878  0.3667
  473poe    c23 5668   5.247   1.442   6.282 -0.0535  0.3882  0.2509
  473poe     o2 5669   5.220   1.311   6.236  0.2150  0.4001  0.0597
  473poe    c23 5670   5.331   1.229   6.207  0.1483  0.3780 -0.1378
  473poe    c23 5671   5.302   1.146   6.081 -0.1389  0.3624 -0.0626
  473poe     o2 5672   5.296   1.232   5.970 -0.0914  0.1558 -0.2246
  473poe    c23 5673   5.226   1.186   5.856 -0.7067  0.2377  0.1154
  473poe    c23 5674   5.224   1.291   5.744 -0.6987  0.4665  0.3290
  473poe     o2 5675   5.189   1.418   5.795 -0.1155  0.3941  0.9196
  473poe    c31 5676   5.148   1.510   5.697 -0.1872  0.0287  0.6056
  474poe    c31 5677   3.714   0.802   2.214  0.3172 -0.5293  0.0111
  474poe     o2 5678   3.703   0.921   2.139 -0.1707 -0.8113 -0.3734
  474poe    c23 5679   3.829   0.964   2.093 -0.1889  0.0635  0.3532
  474poe    c23 5680   3.815   1.109   2.043  0.2824  0.0372  0.1315
  474poe     o2 5681   3.788   1.192   2.154 -0.0090 -0.0167  0.1011
  474poe    c23 5682   3.780   1.329   2.120  0.1187 -0.0169  0.0728
  474poe    c23 5683   3.725   1.412   2.238 -0.0827  0.1916 -0.1681
  474poe     o2 5684   3.619   1.333   2.287  0.0465 -0.0619 -0.2941
  474poe    c23 5685   3.563   1.391   2.402 -0.1152 -0.0708 -0.3682
  474poe    c23 5686   3.426   1.329   2.432 -0.1731  0.3059  0.1792
  474poe     o2 5687   3.438   1.188   2.428  0.3826  0.3584 -0.0872
  474poe    c31 5688   3.318   1.119   2.457  0.7455 -0.3821 -0.3265
  475poe    c31 5689   4.675   5.220   6.748 -0.2348 -0.4814  0.1169
  475poe     o2 5690   4.611   5.345   6.731  0.5574 -0.0913 -0.0332
  475poe    c23 5691   4.695   5.437   6.665  0.1591  0.2385 -0.0792
  475poe    c23 5692   4.610   5.557   6.618 -0.1850 -0.1496 -0.4559
  475poe     o2 5693   4.548   5.601   6.737 -0.2367 -0.2407 -0.4495
  475poe    c23 5694   4.475   5.718   6.707  0.0128  0.0988  0.2515
  475poe    c23 5695   4.382   5.734   6.829 -0.0424 -0.4119  0.2773
  475poe     o2 5696   4.322   5.612   6.868 -0.1576 -0.4472 -0.0067
  475poe    c23 5697   4.203   5.572   6.805 -0.0180  0.1667 -0.6845
  475poe    c23 5698   4.191   5.420   6.829  0.2766  0.3316  0.5469
  475poe     o2 5699   4.318   5.366   6.802  0.1775  0.1098  0.5277
  475poe    c31 5700   4.290   5.232   6.768 -0.0248  0.1243  0.6332
  476poe    c31 5701   2.008   1.381   5.064 -0.1853 -0.3715  0.1038
  476poe     o2 5702   1.944   1.284   4.985 -0.1052 -0.3063 -0.0425
  476poe    c23 5703   1.804   1.278   5.004 -0.0714 -0.5234  0.1477
  476poe    c23 5704   1.748   1.185   4.895  0.0061 -0.7182  0.2724
  476poe     o2 5705   1.847   1.085   4.901  0.5254 -0.2049  0.3230
  476poe    c23 5706   1.842   1.003   4.787 -0.0988  0.2036  0.0524
  476poe    c23 5707   1.978   0.931   4.779 -0.3342 -0.1979 -0.4095
  476poe     o2 5708   2.072   1.036   4.781 -0.1869 -0.3236 -0.6892
  476poe    c23 5709   2.203   0.994   4.753 -0.1207 -0.4190 -0.2394
  476poe    c23 5710   2.294   1.117   4.769 -1.0429  0.3039 -0.5258
  476poe     o2 5711   2.257   1.203   4.875  0.4896 -0.5021  0.7036
  476poe    c31 5712   2.338   1.313   4.907  0.4829 -0.1073 -0.5872
  477poe    c31 5713   0.935   2.084   2.078 -0.2144 -0.0737  0.4199
  477poe     o2 5714   1.059   2.139   2.040 -0.2895 -0.0314  0.2342
  477poe    c23 5715   1.091   2.096   1.910  0.0045 -0.3836  0.4208
  477poe    c23 5716   1.233   2.151   1.888 -0.1941  0.2999  0.8229
  477poe     o2 5717   1.238   2.282   1.940 -0.7888  0.5654  0.2199
  477poe    c23 5718   1.364   2.345   1.932 -0.4018 -0.2477 -0.2574
  477poe    c23 5719   1.334   2.472   2.014 -0.1665 -0.1089 -0.3868
  477poe     o2 5720   1.270   2.428   2.131  0.2202  0.1240 -0.0841
  477poe    c23 5721   1.262   2.513   2.243  0.1883 -0.1584  0.1304
  477poe    c23 5722   1.221   2.430   2.366 -0.7150  1.1281  0.7277
  477poe     o2 5723   1.109   2.358   2.322  0.1857 -0.1113  0.3968
  477poe    c31 5724   1.011   2.361   2.424  0.4697  0.3176  0.6573
  478poe    c31 5725   2.608   2.709   4.453  0.3449  0.0367  0.5400
  478poe     o2 5726   2.622   2.737   4.591  0.0709  0.2824  0.5213
  478poe    c23 5727   2.635   2.624   4.674 -0.4383 -0.0722  0.1238
  478poe    c23 5728   2.627   2.664   4.822 -0.4118  0.0162  0.1012
  478poe     o2 5729   2.669   2.798   4.831 -0.5887  0.0780  0.0121
  478poe    c23 5730   2.738   2.835   4.948  0.3177 -0.6474 -0.2857
  478poe    c23 5731   2.652   2.890   5.063  0.2977  0.2759 -0.7303
  478poe     o2 5732   2.600   3.018   5.040 -0.5252  0.1255  0.2169
  478poe    c23 5733   2.564   3.080   5.161  0.1167  0.8155  0.0618
  478poe    c23 5734   2.462   3.195   5.149 -0.8825 -0.1226 -0.5652
  478poe     o2 5735   2.506   3.311   5.083 -0.5997  0.0045 -0.1516
  478poe    c31 5736   2.400   3.401   5.059  0.0026  0.6739 -0.3623
  479poe    c31 5737   2.420   3.996   2.208 -0.1742  0.1959 -0.8908
  479poe     o2 5738   2.310   4.010   2.295  0.3858 -0.3611 -0.0821
  479poe    c23 5739   2.329   3.950   2.421  0.1281 -0.4861 -0.1016
  479poe    c23 5740   2.197   3.886   2.468  0.0432 -0.1435  0.1327
  479poe     o2 5741   2.103   3.990   2.457  0.1482 -0.1027 -0.4201
  479poe    c23 5742   1.978   3.938   2.497  0.1230  0.3649  0.1229
  479poe    c23 5743   1.876   4.013   2.410 -0.2356 -0.5362 -0.2415
  479poe     o2 5744   1.932   3.990   2.283  0.5106 -0.0318 -0.0086
  479poe    c23 5745   1.847   4.030   2.177  0.2290  0.1759  0.2942
  479poe    c23 5746   1.930   4.000   2.051 -0.1264  0.2804  0.0362
  479poe     o2 5747   2.061   4.038   2.084  0.1842 -0.4105 -0.3744
  479poe    c31 5748   2.130   4.020   1.962  0.6187  0.1999 -0.2278
  480poe    c31 5749   6.446   3.167   0.651 -0.1587 -0.0038  0.1970
  480poe     o2 5750   6.369   3.195   0.536  0.3341  0.0775 -0.1209
  480poe    c23 5751   6.405   3.323   0.488  0.0030  0.0964 -0.3217
  480poe    c23 5752   6.295   3.368   0.390 -0.0047  0.4229 -0.1613
  480poe     o2 5753   6.295   3.255   0.306  0.0413  0.1176  0.2454
  480poe    c23 5754   6.184   3.252   0.219  0.6264  0.0904 -0.5102
  480poe    c23 5755   6.191   3.113   0.154  0.1804 -0.1981  0.0484
  480poe     o2 5756   6.261   3.029   0.244 -0.2026 -0.5058  0.0604
  480poe    c23 5757   6.199   2.903   0.253 -0.0824 -0.5876 -0.2544
  480poe    c23 5758   6.295   2.824   0.344  0.7859 -0.4197 -1.0119
  480poe     o2 5759   6.302   2.915   0.451 -0.3962 -0.7192 -0.6629
  480poe    c31 5760   6.337   2.843   0.567  0.0841 -0.3269 -0.5613
  481poe    c31 5761   0.063   5.173   6.661  0.8405 -0.1816  0.8259
  481poe     o2 5762   0.015   5.069   6.743 -0.2603  0.0959  0.5549
  481poe    c23 5763   0.127   5.009   6.805 -0.3461 -0.2369  0.3917
  481poe    c23 5764   0.096   4.863   6.842 -0.1603 -0.3362  0.1583
  481poe     o2 5765   0.042   4.809   6.723 -0.4621  0.0086  0.1369
  481poe    c23 5766   0.020   4.670   6.731  0.5221 -0.1556  0.1527
  481poe    c23 5767  -0.057   4.635   6.602  0.0411  0.3574  0.3001
  481poe     o2 5768  -0.165   4.726   6.602  0.0823  0.4063  0.1004
  481poe    c23 5769  -0.227   4.747   6.477 -0.1813  0.3253  0.2151
  481poe    c23 5770  -0.332   4.859   6.487 -0.0171  0.5296 -0.2898
  481poe     o2 5771  -0.257   4.954   6.560 -0.1827  0.4231  0.0226
  481poe    c31 5772  -0.317   5.081   6.546  0.3177  0.6938  0.3191
  482poe    c31 5773   0.749   5.726   5.322 -0.1421 -0.2623 -0.0219
  482poe     o2 5774   0.717   5.827   5.228  0.1425  0.0672  0.2342
  482poe    c23 5775   0.798   5.834   5.113  0.4164  0.0442  0.4228
  482poe    c23 5776   0.750   5.956   5.032  0.2883 -0.0422  0.3672
  482poe     o2 5777   0.685   6.042   5.122  0.4134  0.2827  0.1480
  482poe    c23 5778   0.599   6.137   5.061  0.3090  0.3994  0.4744
  482poe    c23 5779   0.514   6.191   5.178 -0.5001  0.0015  0.0762
  482poe     o2 5780   0.463   6.077   5.244 -0.2278 -0.2856 -0.2058
  482poe    c23 5781   0.447   6.101   5.382 -0.0763 -0.4634 -0.1563
  482poe    c23 5782   0.396   5.965   5.431 -0.4448 -0.1942  0.2177
  482poe     o2 5783   0.479   5.858   5.392 -0.1221 -0.1422  0.7621
  482poe    c31 5784   0.420   5.733   5.420  0.3915 -0.5080  0.2488
  483poe    c31 5785   0.760   2.292   3.844  0.2662 -0.1301  0.5314
  483poe     o2 5786   0.782   2.160   3.801  0.1215 -0.1246  0.4390
  483poe    c23 5787   0.877   2.158   3.696  0.3099 -0.2626  0.6101
  483poe    c23 5788   0.873   2.029   3.613  0.1682  0.0283  0.1639
  483poe     o2 5789   0.886   1.934   3.716 -0.7932  0.0875  0.3473
  483poe    c23 5790   0.857   1.808   3.661 -0.2437  0.3207 -0.4959
  483poe    c23 5791   0.817   1.712   3.775  0.1958  0.2759 -0.3801
  483poe     o2 5792   0.721   1.783   3.850  0.7197  0.1467  0.4257
  483poe    c23 5793   0.718   1.747   3.987  0.0663  0.1038  0.4040
  483poe    c23 5794   0.623   1.851   4.049 -0.0388  0.1293  0.2024
  483poe     o2 5795   0.657   1.978   3.998 -0.3868 -0.0383 -0.4568
  483poe    c31 5796   0.569   2.068   4.063 -0.3024 -0.1734 -0.1535
  484poe    c31 5797   1.710   3.548   3.160 -0.0315 -0.9590 -0.2727
  484poe     o2 5798   1.801   3.500   3.256  0.4139  0.3707 -0.0087
  484poe    c23 5799   1.755   3.384   3.322  0.4963  0.7125  0.6589
  484poe    c23 5800   1.873   3.296   3.367  0.2550  0.1787  0.2527
  484poe     o2 5801   1.990   3.372   3.389  0.1082  0.3337  0.5006
  484poe    c23 5802   2.115   3.308   3.395  0.1053  0.2614 -0.1314
  484poe    c23 5803   2.207   3.420   3.446  0.5396  0.0666 -0.4808
  484poe     o2 5804   2.168   3.534   3.373  0.5537  0.3347 -0.0775
  484poe    c23 5805   2.187   3.649   3.452 -0.0807  0.1349  0.3748
  484poe    c23 5806   2.111   3.763   3.381  0.4846 -0.1332 -0.6895
  484poe     o2 5807   1.984   3.718   3.338 -0.0008  0.0034  0.5526
  484poe    c31 5808   1.922   3.830   3.279 -0.4816 -0.2681  0.5465
  485poe    c31 5809   3.505   6.474   6.466 -0.0928 -0.4633 -0.4075
  485poe     o2 5810   3.431   6.567   6.390 -0.0170 -0.0755 -0.0116
  485poe    c23 5811   3.499   6.579   6.267 -0.4701 -0.5298 -0.3091
  485poe    c23 5812   3.417   6.668   6.171 -0.0396 -0.3304 -0.4947
  485poe     o2 5813   3.282   6.644   6.207  0.0376 -0.4382 -0.2717
  485poe    c23 5814   3.190   6.595   6.112  0.1027 -0.7074 -0.1974
  485poe    c23 5815   3.060   6.577   6.192 -0.0364 -0.3232 -0.3319
  485poe     o2 5816   3.121   6.517   6.305 -0.2197 -0.7554 -0.4600
  485poe    c23 5817   3.032   6.494   6.411  0.2345  0.1823  0.1320
  485poe    c23 5818   3.123   6.435   6.521  0.4007  0.2839  0.0490
  485poe     o2 5819   3.212   6.539   6.557  0.2727  0.6422 -0.6488
  485poe    c31 5820   3.199   6.552   6.696 -0.2403  0.6806 -0.6986
  486poe    c31 5821   6.451   0.372   2.867 -0.2504  0.0320  0.0371
  486poe     o2 5822   6.385   0.377   2.991 -0.3606  0.2176 -0.0286
  486poe    c23 5823   6.262   0.439   2.960 -0.3931  0.3185  0.2908
  486poe    c23 5824   6.180   0.473   3.085 -0.3169 -0.0260  0.4358
  486poe     o2 5825   6.232   0.381   3.178 -0.3681 -0.6003 -0.0972
  486poe    c23 5826   6.183   0.411   3.307 -0.5159 -0.4298 -0.1928
  486poe    c23 5827   6.166   0.272   3.371  0.2990 -0.5577 -0.2343
  486poe     o2 5828   6.288   0.206   3.345  0.2987 -0.2817 -0.9728
  486poe    c23 5829   6.270   0.066   3.337 -0.3476 -0.2683 -0.0131
  486poe    c23 5830   6.386   0.013   3.250 -0.4081 -0.1345 -0.1761
  486poe     o2 5831   6.417   0.103   3.146  0.1793 -0.1614 -0.0296
  486poe    c31 5832   6.486   0.046   3.038  0.2133  0.1078 -0.1513
  487poe    c31 5833   6.253   0.339   1.826 -1.2198 -0.0883 -0.5072
  487poe     o2 5834   6.193   0.217   1.788 -0.1028 -0.7748 -0.1109
  487poe    c23 5835   6.271   0.146   1.694  0.4317 -0.3095 -0.0225
  487poe    c23 5836   6.172   0.098   1.587 -0.2603  0.0893  0.4275
  487poe     o2 5837   6.088   0.018   1.667 -0.3496  0.1659  0.4103
  487poe    c23 5838   5.968  -0.019   1.603 -0.4603  0.0092  0.7020
  487poe    c23 5839   5.875  -0.076   1.712  0.3075 -1.0016  0.8403
  487poe     o2 5840   5.887   0.026   1.808 -0.1331  0.0119 -0.1668
  487poe    c23 5841   5.831  -0.005   1.933  0.1249  0.1795 -0.0077
  487poe    c23 5842   5.883   0.089   2.043 -0.5321  0.0358  0.4303
  487poe     o2 5843   6.021   0.103   2.019 -0.5464  0.1041  0.3868
  487poe    c31 5844   6.076   0.150   2.140  0.2717 -0.4040  0.2214
  488poe    c31 5845   4.415   1.194   5.065 -0.0179 -0.0749 -0.3332
  488poe     o2 5846   4.511   1.174   4.964 -0.1045 -0.6255 -0.3101
  488poe    c23 5847   4.465   1.258   4.860  0.1996 -0.2152 -0.1143
  488poe    c23 5848   4.540   1.228   4.729  0.3995  1.0578 -0.3089
  488poe     o2 5849   4.677   1.220   4.764  0.2928 -0.0869 -0.1017
  488poe    c23 5850   4.751   1.132   4.682  0.2224  0.1602 -0.4318
  488poe    c23 5851   4.875   1.090   4.763  0.1686  0.3132 -0.2689
  488poe     o2 5852   4.837   1.094   4.898 -0.0677  0.1141 -0.3289
  488poe    c23 5853   4.913   1.002   4.974 -0.1583 -0.3700 -0.8214
  488poe    c23 5854   4.832   0.975   5.102 -0.1135 -0.0026 -0.7153
  488poe     o2 5855   4.755   1.093   5.118  0.1018  0.0203  0.1521
  488poe    c31 5856   4.676   1.068   5.232 -0.5182 -0.2528 -0.3364
  489poe    c31 5857   6.094   3.747   5.409 -0.0364  0.3685 -0.2695
  489poe     o2 5858   6.099   3.655   5.302  0.6502  0.1183 -0.0270
  489poe    c23 5859   5.966   3.613   5.285  0.4738  0.4757  0.4755
  489poe    c23 5860   5.960   3.564   5.140  0.5806  0.2035  0.5622
  489poe     o2 5861   6.072   3.484   5.111  0.3755  0.2257 -0.3489
  489poe    c23 5862   6.072   3.463   4.972 -0.0555 -0.3809 -0.2626
  489poe    c23 5863   6.176   3.352   4.986  0.2090 -0.1652 -0.5023
  489poe     o2 5864   6.285   3.404   5.059 -0.0842 -0.0805 -0.1248
  489poe    c23 5865   6.357   3.311   5.138  0.4672  0.2240 -0.2656
  489poe    c23 5866   6.310   3.316   5.285  0.7652  0.5151 -0.1793
  489poe     o2 5867   6.285   3.449   5.325 -0.0735  0.4612 -0.4894
  489poe    c31 5868   6.346   3.464   5.452 -0.0200 -0.0017 -0.4585
  490poe    c31 5869   4.721   2.128   5.769  0.2819  0.0197 -0.3720
  490poe     o2 5870   4.609   2.086   5.695 -0.0348  0.5664 -0.2084
  490poe    c23 5871   4.637   1.952   5.660  0.2065  0.6151 -0.2028
  490poe    c23 5872   4.538   1.890   5.561  0.2137 -0.3530  0.3822
  490poe     o2 5873   4.424   1.960   5.605  0.2549 -0.1027  0.0988
  490poe    c23 5874   4.298   1.918   5.558  0.4631 -0.1171 -0.4501
  490poe    c23 5875   4.199   2.035   5.572  0.1732 -0.3229 -0.7636
  490poe     o2 5876   4.267   2.156   5.545 -0.3105  0.2004  0.3018
  490poe    c23 5877   4.273   2.193   5.409  0.0043  0.5958  0.4219
  490poe    c23 5878   4.393   2.289   5.401  0.4597  0.0144  0.1324
  490poe     o2 5879   4.505   2.221   5.454  0.3805 -0.7424 -0.6573
  490poe    c31 5880   4.632   2.251   5.403  0.4559 -0.3736 -0.2578
  491poe    c31 5881   3.330   0.148   5.095 -0.1216  0.1338 -0.2238
  491poe     o2 5882   3.460   0.120   5.140 -0.4445 -0.6714  0.2432
  491poe    c23 5883   3.519   0.208   5.234 -0.3448 -0.1987 -0.2519
  491poe    c23 5884   3.661   0.156   5.262 -0.0250  0.6021 -0.3773
  491poe     o2 5885   3.718   0.221   5.374  0.5496  0.1880 -0.4273
  491poe    c23 5886   3.849   0.168   5.384  0.4110 -0.0778 -0.0041
  491poe    c23 5887   3.919   0.249   5.494  0.1140  0.2533 -0.0561
  491poe     o2 5888   3.861   0.217   5.618  0.3384  0.4158  0.0922
  491poe    c23 5889   3.919   0.305   5.711 -0.0369  0.1904  0.5442
  491poe    c23 5890   3.832   0.282   5.836 -0.4468  0.1756  0.2586
  491poe     o2 5891   3.701   0.282   5.786 -0.1845  0.3408 -0.4346
  491poe    c31 5892   3.608   0.275   5.892 -0.0362  0.7174 -0.2792
  492poe    c31 5893   6.004   5.201   0.189 -0.2089  0.0831  0.4986
  492poe     o2 5894   6.020   5.202   0.049  0.9525  0.1065  0.6236
  492poe    c23 5895   6.021   5.078  -0.018 -0.1034  0.4305 -0.0266
  492poe    c23 5896   6.005   5.110  -0.167 -0.0766 -0.1310 -0.1533
  492poe     o2 5897   6.076   5.227  -0.201 -0.5819  0.3404  0.3936
  492poe    c23 5898   6.036   5.287  -0.322  0.0870  0.5360  0.2643
  492poe    c23 5899   5.915   5.374  -0.284 -0.1578  0.4555 -0.3265
  492poe     o2 5900   5.958   5.446  -0.170  0.3230  0.1226 -0.2960
  492poe    c23 5901   5.844   5.489  -0.100  0.3537  0.7508 -0.6236
  492poe    c23 5902   5.886   5.598   0.000  0.1375 -0.0395  0.3450
  492poe     o2 5903   5.963   5.515   0.084  0.1092 -0.2306  0.1832
  492poe    c31 5904   5.987   5.561   0.215  0.2277  0.6275 -0.1323
  493poe    c31 5905   2.726   0.597   2.818  0.8646  0.4623  0.3019
  493poe     o2 5906   2.776   0.505   2.912  0.2648  0.2003  0.3711
  493poe    c23 5907   2.740   0.546   3.042 -0.1918 -0.3471  0.4177
  493poe    c23 5908   2.756   0.436   3.149  0.0053  0.1189  0.8717
  493poe     o2 5909   2.848   0.354   3.080 -0.2168  0.2522  0.4087
  493poe    c23 5910   2.888   0.242   3.156 -0.1168  0.0028 -0.0116
  493poe    c23 5911   2.997   0.168   3.074 -0.3398 -0.4732  0.1173
  493poe     o2 5912   2.946   0.174   2.943  0.0359  0.6192  0.0126
  493poe    c23 5913   3.054   0.157   2.855 -0.0947  0.3176 -0.0897
  493poe    c23 5914   3.014   0.223   2.722  0.0410 -0.3417 -0.4610
  493poe     o2 5915   2.963   0.351   2.752  0.5740 -0.3002  0.2887
  493poe    c31 5916   2.968   0.429   2.634 -0.1493  0.0725  0.5020
  494poe    c31 5917   2.114   6.330   3.181  0.6322  0.2057 -0.0661
  494poe     o2 5918   2.063   6.283   3.304  0.1748  0.5878 -0.1079
  494poe    c23 5919   2.170   6.214   3.365 -0.0266  0.0294 -0.3794
  494poe    c23 5920   2.113   6.099   3.451  1.0297 -0.0833  0.1765
  494poe     o2 5921   2.019   6.171   3.527  0.4715 -0.7065  0.0801
  494poe    c23 5922   1.942   6.094   3.617  0.3032 -0.6180  0.0125
  494poe    c23 5923   1.835   6.196   3.659  1.0767  0.2847 -0.1791
  494poe     o2 5924   1.798   6.254   3.535  0.5700 -0.3568 -0.3338
  494poe    c23 5925   1.691   6.346   3.536  0.8839  0.0118 -0.1582
  494poe    c23 5926   1.670   6.382   3.388  0.3010 -0.0036 -0.0837
  494poe     o2 5927   1.801   6.407   3.342  0.1802  0.4706 -0.1696
  494poe    c31 5928   1.790   6.492   3.230  0.0846  0.8212  0.1014
  495poe    c31 5929   0.340   4.432   5.381 -0.0608 -0.0817 -0.5602
  495poe     o2 5930   0.286   4.315   5.322 -0.1159 -0.1649 -0.3456
  495poe    c23 5931   0.353   4.201   5.369 -0.1944 -0.0215  0.1217
  495poe    c23 5932   0.306   4.075   5.294  0.0179  0.2906 -0.5408
  495poe     o2 5933   0.167   4.084   5.276 -0.0964 -0.0900  0.1400
  495poe    c23 5934   0.109   4.001   5.179 -0.1386  0.1279 -0.0222
  495poe    c23 5935  -0.030   4.054   5.140 -0.6211 -0.2908  1.0726
  495poe     o2 5936  -0.024   4.194   5.156  0.2467 -0.2384  0.3941
  495poe    c23 5937  -0.136   4.257   5.216 -0.0099  0.1672 -0.4886
  495poe    c23 5938  -0.112   4.406   5.185  1.1569 -0.0215 -0.5479
  495poe     o2 5939   0.018   4.424   5.236  0.7917 -0.0863  0.4321
  495poe    c31 5940   0.056   4.558   5.254  0.3962  0.0185  0.4802
  496poe    c31 5941   1.064   5.208   1.596  1.1024  0.0484  0.1508
  496poe     o2 5942   1.018   5.240   1.467  0.1163 -0.4863  0.3588
  496poe    c23 5943   0.965   5.117   1.422  0.3109 -0.1606 -0.8108
  496poe    c23 5944   0.911   5.141   1.280 -0.0189  0.0642 -0.6506
  496poe     o2 5945   0.878   5.278   1.280  0.2717  0.1410  0.1184
  496poe    c23 5946   0.802   5.306   1.164  0.2723 -0.0626  0.0689
  496poe    c23 5947   0.783   5.458   1.150  0.4463  0.0133  0.6310
  496poe     o2 5948   0.913   5.512   1.149  0.3511  0.2344  0.1952
  496poe    c23 5949   0.932   5.639   1.208 -0.0580  0.6291 -0.5035
  496poe    c23 5950   1.070   5.647   1.275 -0.1315 -0.1124 -0.2528
  496poe     o2 5951   1.066   5.547   1.375 -0.1994  0.1644  0.0244
  496poe    c31 5952   1.175   5.538   1.464  0.1242 -0.2523 -0.4066
  497poe    c31 5953   1.478   0.402   4.715  0.4740  0.4629 -0.1808
  497poe     o2 5954   1.589   0.433   4.796  0.6195  0.1175 -0.2442
  497poe    c23 5955   1.556   0.562   4.842 -1.0724 -0.6883  0.9332
  497poe    c23 5956   1.620   0.599   4.977 -0.1364  0.5464  0.1792
  497poe     o2 5957   1.555   0.563   5.097  0.0431 -0.2969  0.0355
  497poe    c23 5958   1.568   0.426   5.126  0.5896 -0.2780 -0.1053
  497poe    c23 5959   1.518   0.398   5.270 -0.3484  0.0295 -0.3629
  497poe     o2 5960   1.610   0.470   5.350 -0.3728 -0.3900  0.0408
  497poe    c23 5961   1.590   0.449   5.488 -0.3973 -0.0344  0.0917
  497poe    c23 5962   1.703   0.518   5.568 -0.0938  0.0235 -0.3832
  497poe     o2 5963   1.725   0.633   5.489 -0.3651  0.2152 -0.1820
  497poe    c31 5964   1.832   0.709   5.541  0.3527 -0.4608 -0.6407
  498poe    c31 5965   0.617   0.066   4.922 -0.3597  0.3404  0.2353
  498poe     o2 5966   0.730   0.142   4.884 -0.0249 -0.4998 -0.4945
  498poe    c23 5967   0.703   0.245   4.792 -0.2815 -0.1024  0.0222
  498poe    c23 5968   0.841   0.311   4.772 -0.0169 -0.5725  0.2805
  498poe     o2 5969   0.882   0.346   4.903  0.2158  0.5756 -0.0893
  498poe    c23 5970   1.012   0.398   4.913  0.3694  0.1138  0.3366
  498poe    c23 5971   1.060   0.378   5.058  0.2045  0.2975  0.4158
  498poe     o2 5972   1.003   0.255   5.094  0.7325 -0.0419  0.1047
  498poe    c23 5973   1.007   0.237   5.234  0.2659 -0.1413  0.1102
  498poe    c23 5974   0.943   0.101   5.264 -0.3577  0.0383 -0.4066
  498poe     o2 5975   0.824   0.086   5.189 -0.2864 -0.9593 -0.3313
  498poe    c31 5976   0.709   0.093   5.270 -0.1141 -0.8498 -0.0949
  499poe    c31 5977   6.795   1.213   5.333 -0.1744 -0.5881 -0.3035
  499poe     o2 5978   6.802   1.074   5.353  0.3076 -0.5143  0.0541
  499poe    c23 5979   6.888   1.016   5.256  0.5429 -0.0604 -0.0127
  499poe    c23 5980   6.933   0.883   5.319  0.0002  0.1487  0.8424
  499poe     o2 5981   6.820   0.824   5.377 -0.3762  0.0495  0.0227
  499poe    c23 5982   6.825   0.685   5.402 -0.4306 -0.0137 -0.3196
  499poe    c23 5983   6.681   0.648   5.444 -0.3372 -0.0540 -0.0309
  499poe     o2 5984   6.640   0.747   5.534  0.2476 -0.5027  0.7399
  499poe    c23 5985   6.500   0.757   5.522  0.2194 -0.2672  1.2064
  499poe    c23 5986   6.474   0.906   5.553 -0.0367 -0.0911  0.2065
  499poe     o2 5987   6.540   0.989   5.460 -0.4129 -0.0131  0.0065
  499poe    c31 5988   6.491   1.121   5.467 -0.4586  0.0089 -0.7345
  500poe    c31 5989   3.053   6.406   5.836  0.0031  0.2512 -0.9056
  500poe     o2 5990   2.939   6.325   5.820 -0.1328  0.1897  0.2568
  500poe    c23 5991   2.925   6.220   5.913  0.8475 -0.0364  0.1552
  500poe    c23 5992   2.780   6.174   5.892  0.4776  1.2311 -0.1329
  500poe     o2 5993   2.769   6.139   5.756  0.1531  0.1253  0.1710
  500poe    c23 5994   2.642   6.097   5.709  0.3564 -0.3870  0.0795
  500poe    c23 5995   2.638   6.101   5.555 -0.3208 -0.1445  0.1037
  500poe     o2 5996   2.705   6.220   5.522 -0.5120 -0.3027 -0.8600
  500poe    c23 5997   2.703   6.260   5.386  0.4997 -0.6304 -0.9786
  500poe    c23 5998   2.760   6.403   5.390 -0.1064 -0.4032 -0.1736
  500poe     o2 5999   2.875   6.418   5.472 -0.2679 -0.7083  0.1134
  500poe    c31 6000   2.990   6.436   5.392 -0.2865  0.0622  0.2541
  501poe    c31 6001   5.650   2.060   3.554 -0.0359 -0.1255 -0.5068
  501poe     o2 6002   5.700   1.936   3.510  0.3935 -0.0215 -0.3137
  501poe    c23 6003   5.602   1.868   3.435  0.3461 -0.3670  0.0602
  501poe    c23 6004   5.660   1.730   3.401 -0.2536 -0.5014 -0.4268
  501poe     o2 6005   5.721   1.682   3.519 -0.5901 -0.0129 -0.0497
  501poe    c23 6006   5.810   1.580   3.477 -0.0352  0.4291  0.0483
  501poe    c23 6007   5.886   1.558   3.609  0.3143 -0.3360 -0.2819
  501poe     o2 6008   5.927   1.686   3.649 -0.1678 -0.4836  0.7164
  501poe    c23 6009   6.004   1.683   3.767  0.1018  0.0697  0.5594
  501poe    c23 6010   6.030   1.831   3.802  0.6953  0.0698  0.1338
  501poe     o2 6011   5.903   1.889   3.786  0.3280 -0.5104  0.8475
  501poe    c31 6012   5.925   2.027   3.808  0.4004 -0.2011 -0.9620
  502poe    c31 6013   4.330   2.470   1.457 -0.1454 -0.4362  0.0696
  502poe     o2 6014   4.460   2.414   1.460  0.0036 -0.0792  0.6299
  502poe    c23 6015   4.450   2.273   1.460 -0.1345 -0.0714  0.3148
  502poe    c23 6016   4.575   2.193   1.501 -0.2768 -0.2315  0.4366
  502poe     o2 6017   4.633   2.261   1.610  0.3655 -0.0541 -0.0156
  502poe    c23 6018   4.764   2.220   1.642  0.5845  0.2094 -0.5512
  502poe    c23 6019   4.802   2.243   1.790 -0.1016  0.2854 -0.3844
  502poe     o2 6020   4.776   2.380   1.811  0.2668  0.3187 -0.1375
  502poe    c23 6021   4.797   2.402   1.949 -0.2235 -0.2510  0.0312
  502poe    c23 6022   4.837   2.546   1.984  0.2835 -0.2279 -0.6303
  502poe     o2 6023   4.737   2.634   1.939 -0.1076 -0.4389 -0.1762
  502poe    c31 6024   4.761   2.764   1.987 -0.9228 -0.2118 -0.3601
  503poe    c31 6025   2.389   2.841   2.171 -0.7868  0.6539 -0.4410
  503poe     o2 6026   2.278   2.762   2.210 -0.2485 -0.0279 -0.2695
  503poe    c23 6027   2.297   2.625   2.183 -0.2706  0.0053 -0.4540
  503poe    c23 6028   2.189   2.539   2.251  0.0520  0.1453  0.2400
  503poe     o2 6029   2.148   2.560   2.384 -0.0762 -0.3839  0.2835
  503poe    c23 6030   2.008   2.554   2.403 -0.1921 -0.4212 -0.5385
  503poe    c23 6031   1.979   2.683   2.482  0.3305 -0.1895 -0.7228
  503poe     o2 6032   2.009   2.806   2.420  0.1010  0.1838 -0.1014
  503poe    c23 6033   1.997   2.926   2.493 -0.2706  0.1619 -0.1268
  503poe    c23 6034   2.119   3.005   2.442 -0.3709  0.3250 -0.1169
  503poe     o2 6035   2.114   3.007   2.301  0.2788 -0.1550 -0.1500
  503poe    c31 6036   2.078   3.137   2.262 -0.0285 -0.1515  0.1417
  504poe    c31 6037   4.681   2.693   6.342 -0.9085  0.6575 -0.4898
  504poe     o2 6038   4.661   2.780   6.451  0.1740 -0.1801  0.4176
  504poe    c23 6039   4.775   2.859   6.473 -0.1148  0.4214 -0.2037
  504poe    c23 6040   4.788   2.911   6.617  0.6823  0.1438 -0.1678
  504poe     o2 6041   4.822   2.822   6.722  0.1073  0.0487 -0.0547
  504poe    c23 6042   4.704   2.772   6.780  0.0312  0.1072 -0.1570
  504poe    c23 6043   4.750   2.735   6.923  0.0794 -0.0257 -0.2062
  504poe     o2 6044   4.887   2.705   6.937 -0.0755 -0.4792  0.3619
  504poe    c23 6045   4.937   2.779   7.046  0.3755  0.4759 -0.4805
  504poe    c23 6046   5.088   2.746   7.048  0.2651 -0.0158 -0.1432
  504poe     o2 6047   5.125   2.767   6.914  0.1207 -0.0381 -0.1869
  504poe    c31 6048   5.261   2.730   6.901  0.2595  0.2241  0.4900
  505poe    c31 6049   0.312   1.550   0.873 -0.1686 -0.3925  0.1887
  505poe     o2 6050   0.293   1.569   1.011 -0.2073  0.3484  0.0874
  505poe    c23 6051   0.312   1.449   1.084 -0.0066  0.3274 -0.0001
  505poe    c23 6052   0.374   1.484   1.220 -0.4872 -0.0349  0.3128
  505poe     o2 6053   0.318   1.609   1.252 -0.4228  0.0842 -0.0374
  505poe    c23 6054   0.382   1.681   1.355  0.1701 -0.1716 -0.2273
  505poe    c23 6055   0.282   1.784   1.411  0.4842  0.5405 -0.9565
  505poe     o2 6056   0.226   1.841   1.295  0.1180  0.6220 -0.7405
  505poe    c23 6057   0.248   1.977   1.266  0.7390  0.5657 -0.5643
  505poe    c23 6058   0.173   1.985   1.131 -0.2183 -0.1918 -0.0930
  505poe     o2 6059   0.228   1.879   1.056 -0.4007 -0.2272 -0.1762
  505poe    c31 6060   0.223   1.893   0.916 -0.1928 -0.0727 -0.1686
  506poe    c31 6061   4.114   2.941   5.603  0.1321 -0.0356 -0.2619
  506poe     o2 6062   4.004   2.886   5.534  0.0980  0.1123 -0.3252
  506poe    c23 6063   4.048   2.780   5.453 -0.3576 -0.2588 -0.0903
  506poe    c23 6064   4.028   2.632   5.494 -0.2657 -0.2325  0.0472
  506poe     o2 6065   3.902   2.572   5.508 -0.5459  0.3871  0.2035
  506poe    c23 6066   3.896   2.435   5.538  0.1882  0.2785 -0.1283
  506poe    c23 6067   3.748   2.392   5.529  0.2358  0.1997 -0.5579
  506poe     o2 6068   3.685   2.444   5.413  0.0988  0.5928 -0.3083
  506poe    c23 6069   3.559   2.381   5.412  0.5321 -0.3002 -0.2699
  506poe    c23 6070   3.466   2.426   5.298  0.4970  0.0577 -0.1047
  506poe     o2 6071   3.423   2.560   5.296  0.3215  0.0092  0.3381
  506poe    c31 6072   3.296   2.570   5.236  0.2585  0.0176  0.4730
  507poe    c31 6073   5.495   6.784   4.008 -0.1557 -0.1920 -0.1056
  507poe     o2 6074   5.523   6.868   3.898 -0.0468 -0.2298 -0.1074
  507poe    c23 6075   5.652   6.922   3.912 -0.3003  0.3203  0.1603
  507poe    c23 6076   5.649   7.048   3.824  0.0716  0.2207 -0.0002
  507poe     o2 6077   5.593   7.000   3.704  0.2880 -0.3385  0.1224
  507poe    c23 6078   5.563   7.109   3.620  0.6177 -0.5885 -0.3262
  507poe    c23 6079   5.455   7.061   3.521 -0.1082 -0.1801  0.2533
  507poe     o2 6080   5.350   7.001   3.592  0.0253 -0.4727  0.2064
  507poe    c23 6081   5.300   6.888   3.525  0.2300 -0.2191 -0.3737
  507poe    c23 6082   5.288   6.784   3.638  0.2289 -0.0314 -0.2023
  507poe     o2 6083   5.407   6.758   3.710  0.0268  0.1587  0.2013
  507poe    c31 6084   5.471   6.644   3.657  0.5377  0.3612  0.3831
  508poe    c31 6085   0.914   6.296   2.060  0.2732 -0.4413 -0.5828
  508poe     o2 6086   1.019   6.327   1.972  0.3691  0.3734 -0.1859
  508poe    c23 6087   1.138   6.357   2.040  0.5422  0.0220 -0.3303
  508poe    c23 6088   1.231   6.426   1.938  0.8309  0.0661 -0.0414
  508poe     o2 6089   1.211   6.367   1.811  0.1872  0.3388 -0.0735
  508poe    c23 6090   1.238   6.463   1.711 -0.0742  0.0239 -0.4490
  508poe    c23 6091   1.154   6.420   1.590 -1.1083  0.3094  0.1555
  508poe     o2 6092   1.027   6.380   1.637 -0.9078  0.2707  0.6630
  508poe    c23 6093   0.928   6.365   1.538 -0.1407 -0.3531 -0.0202
  508poe    c23 6094   0.800   6.350   1.623  0.0961  0.2561  0.4526
  508poe     o2 6095   0.825   6.267   1.733 -0.2259 -0.5029 -0.0368
  508poe    c31 6096   0.706   6.210   1.782  0.0454 -0.6072  0.5158
  509poe    c31 6097   5.617   1.100   2.721 -0.3837  0.3476 -0.1688
  509poe     o2 6098   5.743   1.049   2.684 -0.4675 -0.1090  0.1642
  509poe    c23 6099   5.852   1.115   2.744 -0.1481 -0.1756 -0.3347
  509poe    c23 6100   5.924   1.216   2.652  0.2351 -0.2366 -0.1030
  509poe     o2 6101   5.964   1.161   2.529  0.5165 -0.0957 -0.0740
  509poe    c23 6102   6.035   1.265   2.466  0.5260  0.6895  1.1817
  509poe    c23 6103   6.135   1.192   2.373 -0.1533  0.8861  0.2833
  509poe     o2 6104   6.074   1.079   2.315  0.6681  0.4325  0.2889
  509poe    c23 6105   6.152   1.014   2.218  0.1685  0.1695  0.0593
  509poe    c23 6106   6.087   0.880   2.178  0.1533  0.1780  0.0562
  509poe     o2 6107   6.112   0.784   2.278 -0.5509  0.0870  0.1510
  509poe    c31 6108   6.134   0.656   2.222 -0.3726  0.1628  0.0488
  510poe    c31 6109   3.556   4.603   0.180 -0.5619  0.3121  0.1460
  510poe     o2 6110   3.584   4.571   0.046  0.0274 -0.3979  0.4265
  510poe    c23 6111   3.709   4.507   0.033  0.3610  0.3963 -0.4735
  510poe    c23 6112   3.746   4.483  -0.114  0.1226  0.3560 -0.5287
  510poe     o2 6113   3.638   4.406  -0.160  0.2216 -0.1085  0.0205
  510poe    c23 6114   3.628   4.436  -0.297  0.0960  0.4825  0.1571
  510poe    c23 6115   3.478   4.437  -0.332  0.0244 -0.5392  0.3853
  510poe     o2 6116   3.433   4.526  -0.232  0.2048  0.0842 -0.0752
  510poe    c23 6117   3.307   4.576  -0.271  0.2192  0.2121  0.0426
  510poe    c23 6118   3.269   4.670  -0.155 -0.1846  0.1050 -0.0017
  510poe     o2 6119   3.308   4.620  -0.029  0.1816 -0.6537 -0.4047
  510poe    c31 6120   3.197   4.634   0.057  0.4739 -0.5591 -0.0398
  511poe    c31 6121   3.994   6.009   2.008 -0.2700  0.2045  0.1610
  511poe     o2 6122   3.879   5.965   1.941  0.1528 -0.4623 -0.1374
  511poe    c23 6123   3.770   5.954   2.029  0.1294 -0.1683 -0.1293
  511poe    c23 6124   3.644   5.944   1.940  0.5290  0.1127 -0.7340
  511poe     o2 6125   3.651   6.052   1.850  0.0171  0.4177 -0.4146
  511poe    c23 6126   3.550   6.039   1.752 -0.2275 -0.4028 -0.0624
  511poe    c23 6127   3.607   6.128   1.640 -0.2722 -0.7281 -0.3451
  511poe     o2 6128   3.727   6.064   1.600  0.0585 -0.2756 -0.0786
  511poe    c23 6129   3.799   6.117   1.492 -0.0145 -0.6372 -0.3056
  511poe    c23 6130   3.945   6.070   1.511  0.0265 -0.3509  0.1109
  511poe     o2 6131   3.972   6.084   1.648 -0.1352 -0.2803  0.1366
  511poe    c31 6132   4.111   6.066   1.663  0.0705  0.7002 -0.5040
  512poe    c31 6133   5.432   5.169   3.611  0.2162 -0.3520  0.6723
  512poe     o2 6134   5.553   5.194   3.544 -0.3358 -0.2146 -0.3052
  512poe    c23 6135   5.596   5.328   3.543 -1.3280  0.1110 -0.1709
  512poe    c23 6136   5.739   5.328   3.484 -1.1937 -0.5145  0.1475
  512poe     o2 6137   5.795   5.202   3.509 -0.1356  0.0796  0.8600
  512poe    c23 6138   5.935   5.190   3.509 -0.1520 -0.1524 -0.1151
  512poe    c23 6139   5.942   5.060   3.426 -0.3748  0.0161 -0.4003
  512poe     o2 6140   5.834   4.981   3.470 -0.2587  0.0732 -0.0074
  512poe    c23 6141   5.818   4.855   3.410 -0.4760  0.2384 -0.2998
  512poe    c23 6142   5.689   4.793   3.466 -0.1596 -0.2675 -0.1223
  512poe     o2 6143   5.589   4.893   3.469 -0.2274 -0.3367 -0.0460
  512poe    c31 6144   5.485   4.877   3.376 -0.6060  0.0782  0.3058
  513poe    c31 6145   0.617   6.541   6.367  0.3522  0.3062 -0.6887
  513poe     o2 6146   0.717   6.572   6.462 -0.1743 -0.5357  0.1544
  513poe    c23 6147   0.687   6.512   6.585  0.1882 -0.0240  0.4983
  513poe    c23 6148   0.770   6.576   6.698  0.0608  0.3894  0.3571
  513poe     o2 6149   0.898   6.579   6.640  0.0790 -0.3330  0.3515
  513poe    c23 6150   1.011   6.626   6.709  0.4196 -0.7142  0.0583
  513poe    c23 6151   1.085   6.732   6.625 -0.4171  0.0099  0.2224
  513poe     o2 6152   1.072   6.683   6.493 -0.2116  0.2742  0.1045
  513poe    c23 6153   1.136   6.767   6.400  0.9108 -0.7313 -0.0603
  513poe    c23 6154   1.103   6.708   6.261 -0.2498 -0.3907  0.0592
  513poe     o2 6155   0.964   6.682   6.266 -0.3298  0.0199  0.0162
  513poe    c31 6156   0.919   6.671   6.132 -0.5575  0.2000  0.0773
  514poe    c31 6157   2.600   2.243   5.436 -0.0336  0.1730 -0.9220
  514poe     o2 6158   2.476   2.226   5.372 -0.8493  0.3762  0.5547
  514poe    c23 6159   2.429   2.093   5.371  0.5199 -0.1250 -0.0256
  514poe    c23 6160   2.284   2.088   5.320  0.5018 -0.0645  0.0201
  514poe     o2 6161   2.257   2.115   5.184 -0.0297  0.3703  0.2024
  514poe    c23 6162   2.123   2.104   5.144 -0.0423  0.2575  0.2744
  514poe    c23 6163   2.128   2.110   4.990  0.1663 -0.7238  0.2376
  514poe     o2 6164   2.200   1.995   4.951 -0.5719 -1.1321  0.0538
  514poe    c23 6165   2.172   1.959   4.818  0.3432 -0.4184 -0.3444
  514poe    c23 6166   2.221   1.815   4.800  0.1653 -0.5728  0.3680
  514poe     o2 6167   2.352   1.807   4.854  0.3008 -0.1899  0.0956
  514poe    c31 6168   2.410   1.683   4.820  0.5710 -0.0370 -0.0054
  515poe    c31 6169   5.491   5.311   3.133  0.1532 -0.1071 -0.7644
  515poe     o2 6170   5.589   5.240   3.060  0.1763 -0.0968 -0.7432
  515poe    c23 6171   5.704   5.283   3.130 -0.3924  0.7074 -0.2838
  515poe    c23 6172   5.823   5.221   3.055 -0.5613 -0.3509  0.3017
  515poe     o2 6173   5.804   5.082   3.042 -0.6105 -0.3113 -0.0461
  515poe    c23 6174   5.884   5.021   2.943 -0.8938 -0.4421 -0.1944
  515poe    c23 6175   5.829   4.877   2.931  0.7454 -1.0769 -0.3503
  515poe     o2 6176   5.693   4.904   2.907  0.8765 -0.0663 -0.0382
  515poe    c23 6177   5.617   4.785   2.922  0.2805  0.3373  0.1699
  515poe    c23 6178   5.469   4.827   2.932  0.1882  0.0528 -0.0348
  515poe     o2 6179   5.477   4.939   3.017  0.4091 -0.0993  0.1464
  515poe    c31 6180   5.355   4.967   3.082  0.5908  0.5040  0.2257
  516poe    c31 6181   6.751   2.582   5.506  0.8113  0.0981 -0.9653
  516poe     o2 6182   6.771   2.502   5.391  0.1173 -1.3406 -0.1073
  516poe    c23 6183   6.902   2.454   5.411  0.3246 -0.6496  0.2083
  516poe    c23 6184   6.939   2.412   5.268 -0.0998  0.7178 -0.3151
  516poe     o2 6185   6.833   2.347   5.201 -0.0172 -0.1438  0.3769
  516poe    c23 6186   6.831   2.346   5.061  0.1629  0.7580  0.3582
  516poe    c23 6187   6.692   2.289   5.030  0.1842  0.2375  1.2028
  516poe     o2 6188   6.605   2.381   5.092 -0.2281  0.9231 -0.3416
  516poe    c23 6189   6.469   2.345   5.100 -0.0533  0.4234  0.5421
  516poe    c23 6190   6.414   2.456   5.191 -0.8171  0.4454  0.0630
  516poe     o2 6191   6.494   2.493   5.302 -0.8582  0.3745  0.1159
  516poe    c31 6192   6.429   2.543   5.417 -0.0488 -0.3115  0.8826
  517poe    c31 6193   6.123   1.307   3.047 -0.2056  0.2793 -0.1927
  517poe     o2 6194   6.235   1.378   3.096  0.0922 -0.2179 -0.1396
  517poe    c23 6195   6.313   1.432   2.992 -0.3715  0.3239 -0.2152
  517poe    c23 6196   6.445   1.498   3.033 -0.5067  0.0384  0.6918
  517poe     o2 6197   6.445   1.632   3.079 -0.0001  0.0770  0.5825
  517poe    c23 6198   6.401   1.644   3.212 -0.0035 -0.0654  0.5939
  517poe    c23 6199   6.477   1.765   3.268  0.6224 -0.1327 -0.1037
  517poe     o2 6200   6.470   1.864   3.168 -0.2187 -0.1459 -0.0577
  517poe    c23 6201   6.560   1.967   3.201 -0.0520 -0.3259  0.0500
  517poe    c23 6202   6.572   2.076   3.093  0.5790 -0.5441 -0.1049
  517poe     o2 6203   6.580   2.018   2.965  0.4895 -0.0452 -0.3379
  517poe    c31 6204   6.610   2.116   2.868  0.1522  0.3289 -0.0665
  518poe    c31 6205   1.184   5.299   6.460  0.1323 -0.1551 -0.3511
  518poe     o2 6206   1.090   5.376   6.389 -0.2582 -0.5985 -0.3204
  518poe    c23 6207   1.094   5.321   6.260  0.2160 -0.4145 -0.3869
  518poe    c23 6208   1.116   5.436   6.160 -0.9102  0.3114  0.1762
  518poe     o2 6209   1.020   5.537   6.179 -0.7398  0.5267 -0.1008
  518poe    c23 6210   1.077   5.665   6.164  0.3650  0.0346 -0.2067
  518poe    c23 6211   0.984   5.767   6.232  0.1851 -0.4113  0.2163
  518poe     o2 6212   0.985   5.708   6.360 -0.1663 -0.2395  0.2992
  518poe    c23 6213   0.921   5.785   6.459  0.2351  0.0978  0.3013
  518poe    c23 6214   0.979   5.714   6.583  0.8478 -0.0435 -0.0634
  518poe     o2 6215   0.965   5.576   6.561 -0.0790  0.1716 -0.8914
  518poe    c31 6216   0.992   5.498   6.676 -0.2301  0.7536 -0.4559
  519poe    c31 6217   6.515   5.068   0.857 -0.5119  0.0393  0.4439
  519poe     o2 6218   6.584   5.190   0.866 -0.1948 -0.0972 -0.1369
  519poe    c23 6219   6.722   5.175   0.891 -0.1913 -0.6767 -0.4679
  519poe    c23 6220   6.773   5.311   0.836  0.0113 -0.5049  0.1379
  519poe     o2 6221   6.693   5.416   0.885 -0.0119 -0.3596 -0.2138
  519poe    c23 6222   6.744   5.544   0.853 -0.0399 -0.4127 -0.4728
  519poe    c23 6223   6.630   5.642   0.889  0.5173 -0.1677  0.6518
  519poe     o2 6224   6.552   5.592   0.995 -0.3102 -0.3203 -0.0246
  519poe    c23 6225   6.479   5.703   1.041 -0.1445 -0.1512 -0.1694
  519poe    c23 6226   6.383   5.669   1.157  0.1479  0.0475  0.1321
  519poe     o2 6227   6.306   5.552   1.149 -0.1087  0.1943  0.4461
  519poe    c31 6228   6.180   5.567   1.211 -0.2251  0.1612  0.2176
  520poe    c31 6229   2.155   4.462   4.878  0.5477 -0.0719  0.8835
  520poe     o2 6230   2.244   4.563   4.836  0.4005 -0.0437  0.6385
  520poe    c23 6231   2.159   4.653   4.769  0.1280 -1.0674 -0.4469
  520poe    c23 6232   2.241   4.757   4.691  0.2775 -0.8438 -0.0001
  520poe     o2 6233   2.363   4.774   4.759 -0.1659  0.5993  0.4640
  520poe    c23 6234   2.460   4.853   4.694 -0.3764  0.2647 -0.2602
  520poe    c23 6235   2.585   4.869   4.782 -0.3585 -0.3006 -0.1807
  520poe     o2 6236   2.642   4.741   4.797  0.2563  0.0184  0.2475
  520poe    c23 6237   2.713   4.722   4.917  0.6657  0.4370  0.0783
  520poe    c23 6238   2.662   4.595   4.989 -0.0554  0.1441 -0.9314
  520poe     o2 6239   2.522   4.594   4.973 -0.1525  0.3477 -0.1117
  520poe    c31 6240   2.475   4.533   5.091 -0.5160 -0.3178 -0.5925
  521poe    c31 6241   5.312   2.392   0.471  0.1685  0.3776  0.2892
  521poe     o2 6242   5.225   2.351   0.574  0.1478 -0.0291  0.1107
  521poe    c23 6243   5.150   2.239   0.532 -0.3260  0.0142  0.8281
  521poe    c23 6244   5.013   2.238   0.604 -0.4905 -0.3541  0.5116
  521poe     o2 6245   4.943   2.358   0.582  0.6335  0.2470  0.0885
  521poe    c23 6246   4.902   2.419   0.703 -0.2926  0.0205 -0.1026
  521poe    c23 6247   4.958   2.561   0.719  0.5142 -0.2845 -0.1853
  521poe     o2 6248   5.098   2.570   0.708  0.4966  0.6289  0.2848
  521poe    c23 6249   5.131   2.685   0.784  0.4697  0.1199  1.0802
  521poe    c23 6250   5.281   2.702   0.753  0.2174 -0.1326 -0.3565
  521poe     o2 6251   5.347   2.578   0.750  0.0728 -0.2270  0.2480
  521poe    c31 6252   5.487   2.591   0.746  0.0362  0.0263 -0.3643
  522poe    c31 6253   1.984   2.950   1.568  0.2599 -0.2373 -1.3408
  522poe     o2 6254   2.079   3.045   1.611 -0.3475 -0.2552  0.1100
  522poe    c23 6255   2.019   3.117   1.717  0.0723  0.1534  0.0722
  522poe    c23 6256   2.125   3.218   1.766  0.0365  0.0790  0.3027
  522poe     o2 6257   2.255   3.167   1.747 -0.1234 -0.3923  0.4447
  522poe    c23 6258   2.348   3.220   1.839  0.2217 -0.8379  0.3563
  522poe    c23 6259   2.498   3.196   1.820  0.3607  0.4912 -0.2865
  522poe     o2 6260   2.519   3.066   1.770  0.3002  0.5898 -0.5713
  522poe    c23 6261   2.650   3.026   1.805 -0.2650 -0.9165 -0.1097
  522poe    c23 6262   2.763   3.037   1.702  0.0863  0.3325  0.3855
  522poe     o2 6263   2.772   3.173   1.666  0.0266  0.3904  0.5932
  522poe    c31 6264   2.855   3.186   1.553 -0.3553 -0.6076  0.1877
  523poe    c31 6265   3.827   1.009   0.309 -0.1470 -0.2465 -0.0549
  523poe     o2 6266   3.726   1.067   0.389  0.1777  0.5792 -0.2411
  523poe    c23 6267   3.760   1.042   0.523 -0.1497  0.2266 -0.2242
  523poe    c23 6268   3.668   1.109   0.627 -0.2187  0.1128 -0.2107
  523poe     o2 6269   3.536   1.105   0.577 -0.1257 -0.2684 -0.4269
  523poe    c23 6270   3.450   1.215   0.594  0.3254  0.0064  0.0885
  523poe    c23 6271   3.476   1.326   0.490 -0.8670  0.3452  0.1358
  523poe     o2 6272   3.499   1.271   0.362  0.3925  0.1812  0.4183
  523poe    c23 6273   3.526   1.377   0.273  0.3586  0.0870  0.2969
  523poe    c23 6274   3.531   1.311   0.133  0.4888  0.2500  0.2245
  523poe     o2 6275   3.597   1.187   0.132 -0.3144 -0.1837  0.0945
  523poe    c31 6276   3.557   1.124   0.012 -0.0183  0.0967 -0.1535
  524poe    c31 6277   0.154   6.160   1.616 -1.1366  0.7914 -0.8605
  524poe     o2 6278   0.243   6.253   1.558  0.0703  0.4208  0.3443
  524poe    c23 6279   0.366   6.191   1.528 -0.3961 -0.1699 -0.3718
  524poe    c23 6280   0.458   6.287   1.450  0.1523  0.0518  0.5320
  524poe     o2 6281   0.418   6.421   1.467  0.5593  0.1814  0.4750
  524poe    c23 6282   0.511   6.508   1.407  0.1024  0.4599  0.1651
  524poe    c23 6283   0.453   6.650   1.422 -0.4002  0.2881 -0.1301
  524poe     o2 6284   0.318   6.657   1.381 -0.5712 -0.5455  0.2642
  524poe    c23 6285   0.279   6.792   1.371 -0.3574 -0.5020 -0.0058
  524poe    c23 6286   0.271   6.879   1.498 -0.4193 -0.1910 -0.2211
  524poe     o2 6287   0.400   6.921   1.535 -0.1980 -1.2833  0.2970
  524poe    c31 6288   0.394   6.976   1.665 -0.0647  0.2335 -0.3110
  525poe    c31 6289   4.291   0.380   1.655 -0.2916 -0.4007 -0.7155
  525poe     o2 6290   4.372   0.267   1.633 -0.0316 -0.1919 -0.8360
  525poe    c23 6291   4.363   0.177   1.742  0.0958  0.0674 -0.6115
  525poe    c23 6292   4.364   0.032   1.691  0.0643 -0.2573  0.3071
  525poe     o2 6293   4.476   0.025   1.605  0.2095  0.4823  0.4304
  525poe    c23 6294   4.520  -0.105   1.574 -0.2597  0.3644  0.2481
  525poe    c23 6295   4.654  -0.094   1.500 -0.2764  0.4992  0.2379
  525poe     o2 6296   4.629  -0.028   1.377 -0.5259  0.5688  0.3259
  525poe    c23 6297   4.701   0.090   1.349  0.2921  0.0501  0.2190
  525poe    c23 6298   4.678   0.225   1.419  0.2441  0.3768 -0.4133
  525poe     o2 6299   4.547   0.274   1.407  0.0970  0.2460  0.5559
  525poe    c31 6300   4.531   0.389   1.326  0.5702  0.1711  0.3521
  526poe    c31 6301   4.170   0.993   1.021  0.4119  0.2485  0.0402
  526poe     o2 6302   4.113   0.867   0.994 -0.3939  0.5539  0.2778
  526poe    c23 6303   4.008   0.890   0.902  0.0589  0.5718 -0.2443
  526poe    c23 6304   3.949   0.760   0.845  0.8761  0.0972 -0.0244
  526poe     o2 6305   4.070   0.693   0.819  0.7294 -0.0501 -0.3297
  526poe    c23 6306   4.060   0.552   0.809  0.0995 -0.0267 -0.0718
  526poe    c23 6307   4.208   0.517   0.788  0.1072  0.2121 -0.4212
  526poe     o2 6308   4.286   0.592   0.878 -0.0533  0.5604 -0.5717
  526poe    c23 6309   4.422   0.559   0.859 -0.1749 -0.4194  0.1995
  526poe    c23 6310   4.495   0.654   0.956  0.2585 -0.4238 -0.1200
  526poe     o2 6311   4.437   0.781   0.938  0.4040 -0.2930  0.3235
  526poe    c31 6312   4.525   0.888   0.966 -0.1737  0.3942 -0.4360
  527poe    c31 6313   6.531   2.765   5.090 -0.3359 -0.1643  0.6657
  527poe     o2 6314   6.415   2.773   5.010  0.4581  0.5153 -0.4502
  527poe    c23 6315   6.326   2.865   5.070  0.0670 -0.4308  0.4499
  527poe    c23 6316   6.213   2.911   4.975  0.8074 -0.1816 -0.3224
  527poe     o2 6317   6.111   2.819   4.947  0.1468  0.3076  0.4203
  527poe    c23 6318   6.024   2.868   4.847  0.1436 -0.4832  0.0272
  527poe    c23 6319   5.909   2.774   4.805  0.1144 -0.1881 -0.5642
  527poe     o2 6320   5.825   2.715   4.902 -0.2077  0.8268 -0.2195
  527poe    c23 6321   5.728   2.635   4.839 -0.1413  0.5019  0.0864
  527poe    c23 6322   5.660   2.541   4.941  0.0507  0.3100  0.0375
  527poe     o2 6323   5.728   2.546   5.065  0.0092  0.1056  0.0679
  527poe    c31 6324   5.679   2.444   5.150 -0.2224  0.1176 -0.0513
  528poe    c31 6325   0.705   5.869   5.839  0.3505  0.4658  0.1204
  528poe     o2 6326   0.621   5.926   5.938  0.7145  0.8779  0.1962
  528poe    c23 6327   0.548   5.838   6.021  1.2692  0.4872  0.2796
  528poe    c23 6328   0.561   5.898   6.162 -0.4529  0.4560  0.4736
  528poe     o2 6329   0.504   6.027   6.159  0.1458  0.7050 -0.4847
  528poe    c23 6330   0.489   6.092   6.283  0.3641  0.0848 -0.1326
  528poe    c23 6331   0.401   6.213   6.249  0.5000  0.4875  0.9089
  528poe     o2 6332   0.464   6.305   6.161 -0.5266 -0.3422 -0.7494
  528poe    c23 6333   0.387   6.330   6.046 -0.5990  0.7359 -0.4719
  528poe    c23 6334   0.460   6.330   5.910 -0.0950  0.2516 -0.2070
  528poe     o2 6335   0.520   6.208   5.874 -0.3421  0.0915 -0.0835
  528poe    c31 6336   0.540   6.218   5.735 -0.7062 -0.9338 -0.2146
  529poe    c31 6337   6.198   2.569   2.076  0.3681  0.1944  0.1895
  529poe     o2 6338   6.299   2.584   2.173  0.4962 -0.4712  0.1676
  529poe    c23 6339   6.252   2.659   2.283 -0.4194  0.2087 -0.6688
  529poe    c23 6340   6.345   2.624   2.401 -0.8873 -0.0978 -0.3907
  529poe     o2 6341   6.477   2.625   2.352 -0.7963 -0.3673 -0.1530
  529poe    c23 6342   6.576   2.570   2.436 -0.5794  0.4260  0.1096
  529poe    c23 6343   6.696   2.531   2.347 -0.3113  1.1071  0.1632
  529poe     o2 6344   6.636   2.495   2.225  0.7933  0.1179 -0.0990
  529poe    c23 6345   6.700   2.405   2.137  0.2738 -0.0880 -0.2741
  529poe    c23 6346   6.595   2.369   2.031  0.0045  0.3416 -0.1553
  529poe     o2 6347   6.523   2.481   1.985 -0.2092  0.3233  0.1350
  529poe    c31 6348   6.557   2.542   1.863  0.0227 -0.2057 -0.0669
  530poe    c31 6349   1.512   4.803   6.742  0.8662  0.6340 -0.0091
  530poe     o2 6350   1.596   4.758   6.637  0.0645 -0.8676 -0.0337
  530poe    c23 6351   1.714   4.824   6.678 -0.4383  0.0065  0.0334
  530poe    c23 6352   1.832   4.792   6.584  0.1838  1.1760  0.3961
  530poe     o2 6353   1.802   4.661   6.541  0.4665  1.1764  0.1987
  530poe    c23 6354   1.904   4.599   6.466 -0.2558 -0.1795  0.3030
  530poe    c23 6355   1.873   4.449   6.455 -0.0454 -0.2547  0.7129
  530poe     o2 6356   1.736   4.437   6.421  0.1436 -0.6495  0.0741
  530poe    c23 6357   1.661   4.343   6.494 -0.3977  0.3439  0.8298
  530poe    c23 6358   1.510   4.371   6.479 -0.4750 -0.3309  0.2987
  530poe     o2 6359   1.499   4.494   6.546 -0.5652  0.1336 -0.5590
  530poe    c31 6360   1.384   4.492   6.628  0.0807  1.1351  0.4039
  531poe    c31 6361   3.931   5.930   6.045 -0.0169  0.2692  1.1565
  531poe     o2 6362   3.854   6.045   6.019  0.4540  0.4543  0.5349
  531poe    c23 6363   3.862   6.081   5.883  0.2745  0.4247  0.5162
  531poe    c23 6364   3.793   6.214   5.848  0.0003  0.1658  0.0605
  531poe     o2 6365   3.661   6.203   5.897  0.0409 -0.2963  0.0682
  531poe    c23 6366   3.579   6.315   5.877 -0.0049 -0.2671  0.4122
  531poe    c23 6367   3.447   6.285   5.950 -0.5238  0.4318 -0.2296
  531poe     o2 6368   3.481   6.247   6.081 -0.7433  0.3055 -0.2084
  531poe    c23 6369   3.395   6.173   6.165 -0.1573  0.6246  0.6867
  531poe    c23 6370   3.483   6.109   6.274 -0.1583 -0.0241  0.3081
  531poe     o2 6371   3.591   6.047   6.208 -0.5256 -0.4615  0.1141
  531poe    c31 6372   3.651   5.953   6.294 -0.2291 -0.0051  0.4111
  532poe    c31 6373   3.350   5.075   3.291  0.9654  0.8866  0.2384
  532poe     o2 6374   3.258   5.179   3.265  0.1958  0.1739  0.0896
  532poe    c23 6375   3.160   5.195   3.365  0.3805 -0.1311  0.3210
  532poe    c23 6376   3.131   5.346   3.364 -0.1910 -0.2365  0.7112
  532poe     o2 6377   3.115   5.394   3.233 -1.0899 -0.6431  0.6659
  532poe    c23 6378   3.153   5.530   3.235 -0.7684 -0.7042 -0.5472
  532poe    c23 6379   3.215   5.566   3.099  0.5690 -0.4018  0.1267
  532poe     o2 6380   3.302   5.458   3.071  0.7014 -0.2434 -0.0765
  532poe    c23 6381   3.365   5.471   2.945  0.0089 -0.7782 -0.4800
  532poe    c23 6382   3.455   5.346   2.935  1.1115 -0.0464  0.2243
  532poe     o2 6383   3.393   5.241   3.005 -0.1157  0.5559  0.0746
  532poe    c31 6384   3.456   5.121   2.966  0.3654  0.7548  0.2354
  533poe    c31 6385   4.520   1.932   4.008 -1.0254 -1.6914  0.0763
  533poe     o2 6386   4.435   1.981   3.907 -0.1272  0.1635  0.1713
  533poe    c23 6387   4.430   2.121   3.923  0.6135  0.2835 -0.5948
  533poe    c23 6388   4.383   2.172   3.785  0.1106  0.5049 -0.3440
  533poe     o2 6389   4.283   2.085   3.737  0.6089  0.0111 -0.5090
  533poe    c23 6390   4.227   2.119   3.612  0.2079  0.3805 -0.2329
  533poe    c23 6391   4.294   2.046   3.494  0.8777  0.0966  0.3226
  533poe     o2 6392   4.334   1.926   3.556 -0.2605 -0.5834 -0.2378
  533poe    c23 6393   4.406   1.850   3.462  0.3328 -0.3038 -0.0137
  533poe    c23 6394   4.439   1.722   3.541  0.2052 -0.0805  0.4011
  533poe     o2 6395   4.450   1.753   3.678  0.2027  0.3025  0.3166
  533poe    c31 6396   4.455   1.643   3.765 -0.3437  0.0375  0.0168
  534poe    c31 6397   5.740   5.863   2.003 -0.5367  0.8142  0.6028
  534poe     o2 6398   5.846   5.784   2.052 -0.1956  0.7708 -0.1897
  534poe    c23 6399   5.958   5.771   1.967 -0.6554  0.1657 -0.7098
  534poe    c23 6400   6.086   5.705   2.022 -1.0868  0.2425  0.4119
  534poe     o2 6401   6.070   5.573   2.069  0.0353 -0.1239 -0.1948
  534poe    c23 6402   6.020   5.561   2.200  0.0684  0.0352 -0.1671
  534poe    c23 6403   5.978   5.415   2.223 -0.3994  0.2707  0.5122
  534poe     o2 6404   6.069   5.318   2.177 -0.5431  0.1851  0.4067
  534poe    c23 6405   6.012   5.189   2.177 -0.4959  0.1597 -0.3725
  534poe    c23 6406   6.093   5.102   2.079 -0.7397 -0.1695 -0.2856
  534poe     o2 6407   6.110   5.191   1.971 -0.2102  0.5334  0.3667
  534poe    c31 6408   6.197   5.136   1.875 -0.5107 -0.0040  0.4040
  535poe    c31 6409   1.673   6.124   4.881 -0.3800 -0.3508 -0.4877
  535poe     o2 6410   1.729   6.006   4.827 -0.2987 -0.3648 -0.3729
  535poe    c23 6411   1.865   6.012   4.861 -0.4392  0.0565  0.1208
  535poe    c23 6412   1.936   5.891   4.798 -0.2917  0.2137 -0.0182
  535poe     o2 6413   1.872   5.769   4.827 -0.3554  0.2696  0.0774
  535poe    c23 6414   1.944   5.654   4.788 -0.6859  0.0332  0.1531
  535poe    c23 6415   1.888   5.526   4.853  0.0399 -0.1877  0.3510
  535poe     o2 6416   1.911   5.509   4.991 -0.4561  0.1341  0.4733
  535poe    c23 6417   1.861   5.384   5.035 -0.2922 -0.3215 -0.5982
  535poe    c23 6418   1.861   5.383   5.189  0.1270 -0.0275 -0.5928
  535poe     o2 6419   1.986   5.437   5.225 -0.0422  0.3138 -0.5216
  535poe    c31 6420   1.999   5.406   5.362  0.5802  0.4401 -0.5509
  536poe    c31 6421   0.943   0.347   2.402 -0.4836  0.3752 -0.1402
  536poe     o2 6422   0.860   0.385   2.509  0.0474 -0.0972  0.4515
  536poe    c23 6423   0.729   0.355   2.464  0.1918  0.7125 -0.5503
  536poe    c23 6424   0.629   0.422   2.560 -0.5548 -0.5115 -0.4498
  536poe     o2 6425   0.682   0.410   2.690  0.4676  0.0668 -0.8012
  536poe    c23 6426   0.598   0.334   2.774  0.8398  0.1805 -0.3229
  536poe    c23 6427   0.690   0.257   2.870 -0.0763  0.2250  0.6030
  536poe     o2 6428   0.803   0.216   2.797 -0.8010 -0.8642  0.0516
  536poe    c23 6429   0.890   0.129   2.867  0.3288  0.4309  0.3104
  536poe    c23 6430   0.990   0.075   2.764  0.2305 -0.0757  0.4786
  536poe     o2 6431   1.019   0.178   2.673 -0.0150 -0.1696  0.2922
  536poe    c31 6432   1.131   0.146   2.593 -0.1848 -0.1714  0.0546
  537poe    c31 6433   5.781   2.938   3.265 -0.1500  0.3408  0.7473
  537poe     o2 6434   5.916   2.980   3.260 -0.1385  0.2780  0.5598
  537poe    c23 6435   5.923   3.121   3.252  0.4937  0.1982 -0.4685
  537poe    c23 6436   6.072   3.158   3.247  0.5388  0.0934  0.0659
  537poe     o2 6437   6.124   3.094   3.361  0.1618  0.1213  0.2570
  537poe    c23 6438   6.262   3.120   3.377  0.1516  0.3663 -0.0391
  537poe    c23 6439   6.331   3.007   3.298 -0.8275  0.3441 -0.8793
  537poe     o2 6440   6.242   2.899   3.312  0.1733 -0.4008 -0.1928
  537poe    c23 6441   6.279   2.800   3.218  0.2176 -0.2137 -0.3715
  537poe    c23 6442   6.191   2.679   3.253 -0.1133  0.0374 -0.3265
  537poe     o2 6443   6.065   2.736   3.280  0.1365  0.2452  0.4306
  537poe    c31 6444   5.978   2.640   3.335 -0.3349  0.3287 -0.1609
  538poe    c31 6445   0.873   6.431   0.779 -0.1936 -0.9121 -0.2968
  538poe     o2 6446   1.014   6.432   0.769 -0.2042  0.1336 -0.4652
  538poe    c23 6447   1.067   6.356   0.663  0.3681 -0.1932  0.0480
  538poe    c23 6448   1.220   6.356   0.686  0.2807 -0.7418  0.6398
  538poe     o2 6449   1.253   6.491   0.704  0.3176 -0.6230 -0.2961
  538poe    c23 6450   1.387   6.508   0.745 -0.1493  0.0862  0.9839
  538poe    c23 6451   1.424   6.654   0.777 -0.0244  0.1948  0.3517
  538poe     o2 6452   1.305   6.694   0.840 -0.4572  0.0900 -0.3844
  538poe    c23 6453   1.276   6.831   0.823 -0.2744  0.2631  0.6182
  538poe    c23 6454   1.149   6.848   0.907 -0.9581 -0.4920 -0.2407
  538poe     o2 6455   1.063   6.736   0.898 -0.4214 -0.8915 -0.4132
  538poe    c31 6456   0.954   6.730   0.987 -0.3432 -0.5736 -0.2919
  539poe    c31 6457   0.324   0.010   5.289 -0.5004 -0.4531  0.2865
  539poe     o2 6458   0.187   0.033   5.313 -0.4335  0.2839 -0.0341
  539poe    c23 6459   0.132   0.129   5.224  0.4526  0.6628 -0.1872
  539poe    c23 6460  -0.008   0.170   5.275  0.0916  0.1181 -0.7270
  539poe     o2 6461  -0.067   0.047   5.310  0.4375  0.2944  0.5106
  539poe    c23 6462  -0.182   0.073   5.388  0.0859 -0.3058  0.2022
  539poe    c23 6463  -0.243  -0.063   5.427 -0.1928 -0.1632  0.2635
  539poe     o2 6464  -0.130  -0.145   5.444  0.1685  0.2404 -0.1566
  539poe    c23 6465  -0.135  -0.278   5.398  0.4852  0.2567 -0.2390
  539poe    c23 6466  -0.001  -0.340   5.440 -0.1021 -0.9985 -0.1691
  539poe     o2 6467   0.105  -0.251   5.412 -0.5519 -0.5532 -0.4764
  539poe    c31 6468   0.227  -0.306   5.457 -0.3686 -0.2064 -0.5505
  540poe    c31 6469   4.977   5.552   4.064  0.2467 -0.0529 -0.7456
  540poe     o2 6470   4.926   5.445   4.139  0.0961  0.8674  0.4991
  540poe    c23 6471   4.793   5.415   4.100  0.5203 -0.1953 -0.1821
  540poe    c23 6472   4.738   5.318   4.206  0.2429  0.7184  0.5325
  540poe     o2 6473   4.831   5.212   4.222  0.4580  0.8731  0.3083
  540poe    c23 6474   4.826   5.157   4.351 -0.3592 -0.0405 -0.0927
  540poe    c23 6475   4.938   5.219   4.438 -0.1100 -0.7231  0.0746
  540poe     o2 6476   5.049   5.214   4.352  0.1719  0.3380  0.3689
  540poe    c23 6477   5.154   5.283   4.417  0.3296  0.3389  0.1177
  540poe    c23 6478   5.268   5.269   4.315  0.1080  0.4043 -0.1384
  540poe     o2 6479   5.209   5.303   4.191  0.1862  0.1704 -0.2389
  540poe    c31 6480   5.303   5.315   4.086  0.3480 -0.0796 -0.1242
  541lim     li 6481   6.271   1.267   4.280  0.6410  0.2951  0.1097
  542lim     li 6482   6.080   2.465   2.703  0.2078  0.3678  0.5767
  543lim     li 6483   0.833   2.494   0.431  1.0212 -0.4031  0.3827
  544lim     li 6484   2.453   6.630   6.665  0.4270  0.3656 -0.1216
  545lim     li 6485   1.742   5.365   6.673 -0.2129  0.2579  0.4304
  546lim     li 6486   5.204   2.002   4.164  0.7888  0.1776  0.3279
  547lim     li 6487   2.674   0.993   2.353 -0.4829  0.8923  0.1297
  548lim     li 6488   6.625   3.828   4.352 -1.1090  0.0826  0.0091
  549lim     li 6489   5.468   3.390   2.788  0.8105  0.3858 -0.6358
  550lim     li 6490   6.505   5.136   3.136 -0.4551  0.6498 -0.5333
  551lim     li 6491   2.074   0.952   6.332  1.1670  0.4459 -0.4327
  552lim     li 6492   1.578   0.270   6.118 -1.0998 -0.5578  0.3228
  553lim     li 6493   5.761   4.820   4.237 -0.4062  0.3978 -0.2682
  554lim     li 6494   4.395   4.676   1.218 -0.2219 -0.0924 -0.0006
  555lim     li 6495   2.631   5.429   0.909 -0.8045  1.2780  1.1669
  556lim     li 6496   6.549   1.731   1.462  1.1100 -0.5194 -0.7288
  557lim     li 6497   0.379   2.881   2.049  0.3273  0.0555  0.5751
  558lim     li 6498   5.417   3.670   5.776  0.2476 -0.6341  0.4593
  559lim     li 6499   4.928   5.679   1.957 -0.4346  1.5014 -0.2352
  560lim     li 6500   5.956   4.336   5.413 -0.4025  1.2056  0.1853
  561lim     li 6501   0.985   2.246   2.977  0.4724 -0.0113  0.1914
  562lim     li 6502   6.600   6.135   6.371 -0.8932 -0.2425  0.4642
  563lim     li 6503   5.648   0.970   3.270  0.4481  0.1689  0.0663
  564lim     li 6504   5.742   3.274   1.170  0.0308 -1.0521  0.1636
  565lim     li 6505   3.888   5.809   4.323 -0.8121  1.2277  0.6118
  566lim     li 6506   3.978   5.539   2.592  1.1453  0.1378  0.4456
  567lim     li 6507   2.430   4.597   4.822 -0.4595 -0.7668 -0.5663
  568lim     li 6508   2.143   3.950   1.493  0.2683 -0.8229 -0.8371
  569lim     li 6509   6.138   4.581   2.472 -1.1106  0.8957 -0.1207
  570lim     li 6510   0.636   4.433   4.209  0.8054  0.3455  1.0622
  571lim     li 6511   4.679   5.108   3.019 -0.1787  0.0918  1.9383
  572lim     li 6512   0.900   3.187   6.530  0.4633  0.1021  0.4436
  573lim     li 6513   4.409   3.118   0.870 -0.8931  0.2158  0.7478
  574lim     li 6514   6.432   1.021   3.505  0.6553 -0.8004 -0.7102
  575lim     li 6515   2.675   4.763   2.446  0.6302 -0.4129  0.5577
  576lim     li 6516   0.082   5.325   1.386  2.2706  0.0884 -0.0685
  577lim     li 6517   6.038   0.125   1.813  0.0408 -0.1926 -0.3033
  578lim     li 6518   4.354   4.166   3.638 -0.7986  0.6357 -0.0289
  579lim     li 6519   3.182   2.739   1.052 -0.5411  0.5117  0.1888
  580lim     li 6520   0.243   0.921   4.621  0.2564  0.6120  0.0135
  581lim     li 6521   2.848   0.283   5.684  0.1714 -0.2560  0.9355
  582lim     li 6522   0.042   4.151   2.680  0.9025 -0.6386  0.3167
  583lim     li 6523   3.456   4.503   6.750 -0.3242  1.0912  0.8878
  584lim     li 6524   6.055   5.344   6.743  1.0219 -0.6382  0.7095
  585lim     li 6525   4.084   2.271   4.438 -0.8457 -0.1660 -0.2039
  586lim     li 6526   5.228   2.460   0.718 -0.3963 -0.1354  1.3828
  587lim     li 6527   0.699   3.944   2.015 -2.0286  0.9083 -0.3810
  588lim     li 6528   0.319   6.041   0.851  1.9710 -1.1365 -1.0394
  589lim     li 6529   4.329   6.794   3.539  1.9978  0.3758 -1.1733
  590lim     li 6530   4.918   5.713   0.726  0.4032 -0.5628 -0.4258
  591lim     li 6531   2.367   1.929   5.000 -0.4343 -0.8888 -0.2201
  592lim     li 6532   4.284   4.904   4.716 -1.3153 -1.0900 -0.0599
  593lim     li 6533   2.133   2.643   3.361 -0.4366 -0.6760 -1.1847
  594lim     li 6534   4.291   2.504   6.542  0.9967 -1.1098  0.0481
  595lim     li 6535   4.730   6.291   1.419 -0.1100 -0.4210 -0.7499
  596lim     li 6536   0.198   3.534   5.652 -0.0576 -0.1556 -0.9388
  597lim     li 6537   1.680   5.878   1.534  0.0203  0.8342  0.4824
  598lim     li 6538   2.048   6.718   2.802  0.2859  0.1124 -0.8866
  599lim     li 6539   5.717   6.758   6.317  0.3649  0.1613 -0.2920
  600lim     li 6540   5.869   1.025   6.646 -0.5044  0.6068 -0.0958
  601lim     li 6541   5.987   3.264   4.132 -0.4301 -0.5455  1.0237
  602lim     li 6542   2.123   5.390   5.785 -0.3700  0.5208  0.1368
  603lim     li 6543   6.480   2.569   2.140 -0.3904 -2.1574 -0.3002
  604lim     li 6544   1.746   5.397   4.106  0.0911 -0.6936  1.0461
  605lim     li 6545   0.155   3.396   3.263 -0.3000 -0.1842 -0.4117
  606lim     li 6546   3.547   2.106   2.925 -0.0406  0.8424 -0.5181
  607lim     li 6547   4.823   1.237   1.862 -0.4706  0.6644  0.2904
  608lim     li 6548   0.119   4.574   5.856  0.7214 -1.2092  0.3380
  609lim     li 6549   0.420   5.955   4.101  0.7483 -0.1494  0.2149
  610lim     li 6550   0.540   3.267   0.450  0.3072 -0.4776  0.1509
  611lim     li 6551   5.675   1.062   1.138 -0.4272 -1.2375  0.5698
  612lim     li 6552   1.294   0.190   3.466  1.3987  0.0430 -1.3607
  613lim     li 6553   2.637   2.456   1.626 -0.1395  0.3397  0.7324
  614lim     li 6554   5.980   6.392   0.134  0.7148 -0.6421  1.1497
  615lim     li 6555   3.689   0.236   5.603  0.1154  0.6978 -0.2436
  616lim     li 6556   0.467   0.862   2.252  0.6473  0.2158  0.4971
  617lim     li 6557   3.052   6.089   3.993  1.8386  0.5580  0.2371
  618lim     li 6558   1.594   0.115   1.378  0.8282 -0.9045  0.1013
  619lim     li 6559   6.615   0.988   2.663 -0.3803  0.2386 -1.3471
  620lim     li 6560   4.444   0.149   1.490  0.7094 -0.3277  0.4510
  621lim     li 6561   3.124   0.676   5.042  0.4806  0.2745  0.3259
  622lim     li 6562   1.781   4.422   5.664 -0.5212  1.6691 -0.0252
  623lim     li 6563   0.294   6.413   4.544  0.0291  0.8310 -0.8378
  624lim     li 6564   4.685   1.186   4.957 -0.7297 -0.0228  0.6890
  625lim     li 6565   3.239   5.065   4.808  1.3366  0.8484  0.4675
  626lim     li 6566   4.708   5.996   3.068 -0.3631  0.7834  0.0514
  627lim     li 6567   1.316   1.199   0.865  0.2912 -0.8173 -0.5397
  628lim     li 6568   5.740   0.402   0.486 -1.6908  0.3561 -0.1128
  629lim     li 6569   5.694   4.172   4.637 -0.5011 -0.5101 -1.2688
  630lim     li 6570   2.023   4.144   3.939  0.4999  0.5934  0.4804
  631lim     li 6571   6.423   6.168   2.574  0.0135 -0.2620 -0.0251
  632lim     li 6572   3.181   1.786   4.849  0.5542 -1.1980  0.3269
  633lim     li 6573   1.301   5.163   2.980  0.3167  1.0034  0.2951
  634lim     li 6574   3.194   2.379   2.287 -0.8373 -0.3747 -1.4123
  635lim     li 6575   3.271   6.630   6.404 -0.1462  0.1441 -0.0040
  636lim     li 6576   3.494   5.218   1.825 -0.2551  0.1949  0.0784
  637lim     li 6577   4.478   5.465   0.025 -0.8971  0.4291  1.0717
  638lim     li 6578   3.266   3.069   6.579  0.4065  0.6822 -1.3116
  639lim     li 6579   2.686   3.377   5.045  0.0100 -0.2756 -0.4987
  640lim     li 6580   3.928   1.329   5.487 -0.5643 -0.2435 -0.2250
  641lim     li 6581   4.688   2.629   3.190  0.5791 -1.1343 -0.3206
  642lim     li 6582   0.419   0.210   5.836  0.0192 -1.0678  0.1877
  643lim     li 6583   3.611   0.734   4.798 -0.6928 -0.0653 -0.4387
  644lim     li 6584   3.586   1.117   0.313 -0.4985  1.5925 -0.1019
  645lim     li 6585   3.418   4.863   2.317 -0.4385  1.2654  0.4130
  646lim     li 6586   4.984   2.761   6.798  0.0518 -0.8297 -0.0317
  647lim     li 6587   4.326   1.426   1.073  0.1438  0.4832  0.3560
  648lim     li 6588   5.448   2.183   2.149 -0.0699 -0.1732 -0.0701
  649lim     li 6589   4.177   3.836   0.212 -0.5713 -0.0090 -0.6652
  650lim     li 6590   5.834   5.123   0.852  0.1073 -0.7578 -0.5772
  651lim     li 6591   3.741   4.092   0.970  1.1135  1.7156  0.4115
  652lim     li 6592   1.079   0.943   3.139 -0.6146 -0.6282 -0.1736
  653lim     li 6593   0.443   4.756   2.882  0.5475  0.4220  0.7160
  654lim     li 6594   6.728   2.609   3.729  0.6152  0.9432  0.2232
  655lim     li 6595   3.381   1.789   1.884  0.5714 -0.6889  1.4346
  656lim     li 6596   5.111   1.383   3.729 -0.8151  0.1854 -0.1748
  657lim     li 6597   0.909   5.774   0.417 -0.1095  0.0406  0.1415
  658lim     li 6598   2.404   3.178   5.635  0.5670  0.2677 -0.7978
  659lim     li 6599   3.525   2.439   0.354 -0.2274  0.0570  0.4858
  660lim     li 6600   6.559   0.854   1.725  0.2856  0.1883  0.6323
  661lim     li 6601   5.162   2.915   1.561 -0.1245  0.7580 -1.3482
  662lim     li 6602   6.072   2.913   3.359 -0.9210  0.3446  0.1836
  663lim     li 6603   5.676   5.070   3.538 -0.9123  0.3722  0.0564
  664lim     li 6604   5.501   0.628   5.384 -0.9536 -0.3928  0.6707
  665lim     li 6605   3.326   0.738   3.327 -0.0469  0.4512  0.9217
  666lim     li 6606   6.136   6.561   3.900 -0.0667  0.0479  0.1760
  667lim     li 6607   0.593   6.105   5.994 -0.1394  0.1183 -0.8682
  668lim     li 6608   6.328   1.589   0.077 -0.4826  0.9358 -0.3350
  669lim     li 6609   6.181   2.971   6.271 -0.4249 -1.3592  0.7182
  670lim     li 6610   0.295   5.318   4.121 -0.3835  0.0629 -0.1489
  671lim     li 6611   4.289   1.764   2.510  0.2228  0.9157  0.3968
  672lim     li 6612   3.823   4.345   4.519  0.4280  0.7656  0.8669
  673lim     li 6613   3.378   2.270   3.591 -0.5395 -0.5805 -0.4623
  674lim     li 6614   1.516   4.642   4.633 -0.1008 -0.1731  0.5650
  675lim     li 6615   4.732   0.370   3.338  0.0970  0.6841  0.5681
  676lim     li 6616   1.165   5.581   5.462 -0.1717 -0.8316 -0.4629
  677lim     li 6617   5.286   1.920   5.110 -0.1425  0.3886 -0.6696
  678lim     li 6618   2.497   3.026   0.356 -0.6284  0.0509  0.4216
  679lim     li 6619   0.678   2.901   3.645 -1.0112 -0.4732  0.3207
  680lim     li 6620   0.883   4.012   6.152 -0.2032  0.4099 -0.0863
  681lim     li 6621   2.189   2.291   4.207 -0.5489 -0.5372  0.3501
  682lim     li 6622   3.278   3.255   2.010  1.0616  0.5088  0.1699
  683lim     li 6623   0.893   1.505   0.509  0.3241 -0.1260 -0.2073
  684lim     li 6624   1.062   1.417   4.382 -0.1884  0.1723  0.2400
  685lim     li 6625   1.113   5.235   4.416  0.7144 -2.1243  1.1238
  686lim     li 6626   1.332   3.522   1.968 -0.4369 -0.0945 -0.3286
  687lim     li 6627   3.192   1.053   1.170 -0.9616  0.4607 -0.5346
  688lim     li 6628   4.117   5.989   5.132  1.2763  0.2361  0.9175
  689lim     li 6629   1.332   5.173   0.761  0.2091  0.9296  0.5480
  690lim     li 6630   1.304   4.440   0.444  0.4337  1.7620 -0.7483
  691lim     li 6631   5.028   5.278   4.179 -0.7100  1.6485  0.3741
  692lim     li 6632   4.659   4.415   2.094 -1.6831 -1.5741  0.3128
  693lim     li 6633   3.582   6.602   1.810  0.9220 -0.3341 -0.5299
  694lim     li 6634   4.834   3.467   3.347  0.6465 -0.0377  0.1078
  695lim     li 6635   0.795   1.900   5.482  0.7419 -0.4364  0.5900
  696lim     li 6636   0.752   4.107   0.100  0.1743 -0.0732  0.4719
  697lim     li 6637   5.883   2.081   1.261  0.3290  0.0203 -0.1997
  698lim     li 6638   3.731   2.605   5.379 -0.5586  0.3102  0.4692
  699lim     li 6639   6.003   0.808   5.877  0.5367 -0.1300  0.9962
  700lim     li 6640   4.104   5.731   0.791  1.3207  0.9159  0.3410
  701lim     li 6641   1.475   1.468   1.710 -1.1240  0.3935  0.2902
  702lim     li 6642   0.227   1.696   1.145 -0.3186 -0.6817 -0.2647
  703lim     li 6643   1.647   5.829   6.625 -0.0627  0.0047  0.0645
  704lim     li 6644   5.796   1.812   3.619  0.7266  0.2080  0.4290
  705lim     li 6645   0.226   1.408   5.863  1.3716 -0.2873 -0.3316
  706lim     li 6646   5.453   1.966   2.885  1.8854  0.0811 -0.2216
  707lim     li 6647   3.665   3.799   3.725  0.1379 -0.4276  1.5941
  708lim     li 6648   1.040   6.296   1.794 -0.0274  0.9897  0.6588
  709lim     li 6649   0.896   6.618   6.446 -0.3656 -0.0466 -1.8639
  710lim     li 6650   3.606   3.187   4.435  0.4854 -0.2885  1.2757
  711lim     li 6651   6.731   6.069   3.389  0.2588 -0.9722 -0.4682
  712lim     li 6652   5.360   3.115   6.389 -0.8441  0.2004 -0.5796
  713lim     li 6653   6.491   1.840   2.998  0.3115  1.0563  0.1555
  714lim     li 6654   1.360   3.692   1.235 -0.1032  0.5668 -0.8297
  715lim     li 6655   5.122   3.625   2.176 -1.2757 -0.1539  0.2605
  716lim     li 6656   5.918   6.377   0.900 -0.9947  1.0019  0.0753
  717lim     li 6657   1.646   5.881   0.638 -0.5749  0.7115 -0.0016
  718lim     li 6658   0.254   0.830   3.349 -0.3217  0.3969  0.4533
  719lim     li 6659   3.838   2.844   3.547  0.1529  0.6001 -1.1030
  720lim     li 6660   6.611   1.533   2.175 -0.7521  0.2753 -0.0525
  721lim     li 6661   5.025   2.797   4.398  0.0197  0.0908 -0.1112
  722lim     li 6662   6.463   0.357   6.722 -0.0655 -0.0567 -0.5200
  723lim     li 6663   4.510   0.311   4.946  0.6494  0.1797 -0.0973
  724lim     li 6664   2.163   6.236   0.756  0.7584  0.1667  0.5233
  725lim     li 6665   5.619   5.064   2.976  0.3016 -0.3740  0.5253
  726lim     li 6666   1.632   2.260   1.456  0.1121  0.1583  0.1824
  727lim     li 6667   4.562   1.348   3.079  1.8407  0.0583 -0.4845
  728lim     li 6668   0.305   6.555   2.910  1.2787 -0.7210  0.0673
  729lim     li 6669   1.242   0.560   2.025 -0.6564  0.1129 -0.5013
  730lim     li 6670   0.975   5.400   1.354 -0.1441 -1.1652  0.2153
  731lim     li 6671   1.105   5.799   3.682 -0.7876  1.0073  0.1512
  732lim     li 6672   5.719   3.875   6.699 -0.6080  0.3909  0.4005
  733lim     li 6673   5.869   6.542   5.444 -0.3383  0.5604  0.1647
  734lim     li 6674   4.631   4.147   6.501  0.4937  0.6125 -0.6618
  735lim     li 6675   1.655   2.426   6.547  0.6232  0.5456  0.0352
  736lim     li 6676   4.308   3.220   2.132  0.1890  1.1439 -0.0486
  737lim     li 6677   4.692   6.537   4.262 -0.8351  0.3513 -0.8228
  738lim     li 6678   3.756   6.373   3.806  0.1435  0.6926 -0.2535
  739lim     li 6679   5.843   3.787   3.326 -0.1795 -1.9705  0.0982
  740lim     li 6680   5.947   4.819   5.956  0.0469  0.2926  0.1942
  741lim     li 6681   1.542   3.155   0.289 -0.6603 -0.5259  0.7451
  742lim     li 6682   3.799   1.846   1.428  0.1441  0.3685 -0.5713
  743lim     li 6683   5.543   5.726   2.636  0.0516  0.1843 -1.1576
  744lim     li 6684   0.046   1.749   4.616 -1.3985 -0.2176  0.2745
  745lim     li 6685   6.521   0.233   4.061  0.3200 -0.4786  1.4013
  746lim     li 6686   0.891   2.579   4.388  0.7954  0.5569  0.6321
  747lim     li 6687   3.152   4.642   1.459 -0.0082  1.8522  0.5700
  748lim     li 6688   4.841   5.200   1.200 -0.0255  0.0883  0.3470
  749lim     li 6689   1.140   2.306   2.082  1.4408 -0.8052  0.3625
  750lim     li 6690   0.605   3.517   2.809 -0.2877 -0.6578 -0.8034
  751lim     li 6691   3.278   5.469   0.965 -0.5131  0.1642  0.5577
  752lim     li 6692   5.465   1.368   4.819  0.4762 -1.2722  0.2667
  753lim     li 6693   0.843   3.061   4.829  0.2781  0.6378  1.7984
  754lim     li 6694   0.261   2.434   2.890 -1.2446 -0.6295 -0.7840
  755lim     li 6695   6.509   3.535   1.114 -0.0723  0.7481  0.6417
  756lim     li 6696   2.118   0.689   1.719  0.1024  0.8528  0.2156
  757lim     li 6697   5.924   3.300   2.179 -0.1307 -0.5781 -0.6363
  758lim     li 6698   1.516   0.466   0.468  0.0347 -1.3226  0.1627
  759lim     li 6699   3.051   0.020   1.018  0.6114 -0.1255  0.9142
  760lim     li 6700   5.942   1.006   2.432 -0.8399 -1.3721  0.8671
  761lim     li 6701   5.844   2.304   0.084 -0.6994 -1.1435  0.7641
  762lim     li 6702   0.740   2.865   5.591  0.4181 -0.5574 -0.4620
  763lim     li 6703   0.535   3.781   1.172  0.1282  0.4610 -0.0543
  764lim     li 6704   0.567   5.786   2.224 -0.5965 -0.0722  0.2690
  765lim     li 6705   2.088   5.851   2.684 -0.3824  0.2412 -0.2553
  766lim     li 6706   0.665   0.879   3.897  0.6504 -0.0220  0.8896
  767lim     li 6707   4.415   5.112   2.153  0.9426 -1.0765 -0.9012
  768lim     li 6708   0.871   0.178   5.006  0.1703 -0.0349  0.3442
  769lim     li 6709   5.625   0.102   2.741 -1.0076  0.1264  0.3843
  770lim     li 6710   5.341   3.551   4.393  0.8818 -0.1138  0.7107
  771lim     li 6711   3.547   5.387   6.430 -0.0846  0.2791 -0.5968
  772lim     li 6712   3.945   0.711   1.549 -0.6154 -0.6761  0.7766
  773lim     li 6713   5.072   1.009   0.509 -0.5808  0.2200 -0.2099
  774lim     li 6714   3.824   3.226   0.584 -0.6295 -0.5796  0.1047
  775lim     li 6715   4.650   2.438   1.691 -0.4690 -0.1972  0.4005
  776lim     li 6716   2.077   2.710   5.164  0.0998 -0.5240  0.6648
  777lim     li 6717   6.736   2.209   6.617  0.3300 -0.3038 -0.3115
  778lim     li 6718   4.812   0.497   4.057 -0.2618 -0.5849 -0.4315
  779lim     li 6719   4.676   2.736   5.179  0.3617  0.1804  0.0085
  780lim     li 6720   0.122   4.278   5.217  1.4931 -0.1715 -0.3756
  781lim     li 6721   4.057   1.806   6.130 -0.1274 -0.0373  1.3502
  782lim     li 6722   4.891   6.157   6.606 -0.0291  0.0615  0.3825
  783lim     li 6723   6.767   1.007   6.657 -0.1128 -0.6539  0.9642
  784lim     li 6724   6.425   4.027   1.924 -0.7164  0.4893  0.7716
  785lim     li 6725   3.866   6.119   0.119 -0.3077  0.0149 -0.2182
  786lim     li 6726   1.782   0.696   2.542  0.7124  0.6396  0.3567
  787lim     li 6727   3.423   2.176   6.095  0.3731  1.7401  0.5531
  788lim     li 6728   0.616   4.880   1.905 -0.3047 -0.4227 -0.2216
  789lim     li 6729   2.793   4.473   5.544 -0.6219 -0.0222  0.4368
  790lim     li 6730   5.128   1.256   2.677  0.0999  0.9023 -0.0215
  791lim     li 6731   2.253   4.989   3.225  0.2802  0.3769 -0.9263
  792lim     li 6732   2.596   0.012   1.419  1.1289  0.4035  0.6198
  793lim     li 6733   3.274   3.477   5.827 -0.7480 -0.1370  0.2480
  794lim     li 6734   5.440   0.561   2.340 -0.4332 -0.2019  0.0591
  795lim     li 6735   6.372   0.271   3.197  0.4215 -0.0213 -0.2175
  796lim     li 6736   6.223   3.538   5.196 -1.2806  1.0362 -0.7271
  797lim     li 6737   5.364   0.782   4.199 -0.9743  0.7377 -0.0181
  798lim     li 6738   2.042   0.706   3.356  2.0032  0.5274 -0.3974
  799lim     li 6739   4.015   1.128   3.275  0.9160  0.2533  2.2902
  800lim     li 6740   1.404   3.647   5.587  0.9764  0.0698  0.2027
  801lim     li 6741   2.681   5.715   3.324 -1.5009 -0.0872 -1.8315
  802lim     li 6742   2.541   3.068   3.964  0.6497 -0.7498 -0.0782
  803lim     li 6743   2.295   4.208   0.821 -0.2495 -0.2785 -0.2773
  804lim     li 6744   2.254   4.873   0.382  0.2644 -0.3343  0.2562
  805lim     li 6745   5.261   1.430   6.008 -0.1162  1.7442  0.0620
  806lim     li 6746   5.479   5.827   1.324 -0.1446 -0.5538  0.5335
  807lim     li 6747   2.288   3.548   6.558 -0.4397  0.2205  0.0402
  808lim     li 6748   1.705   3.577   6.079  0.3624 -0.2180 -0.5228
  809lim     li 6749   6.239   3.787   6.074 -0.0977  1.1334 -1.0054
  810lim     li 6750   2.584   6.750   4.652 -1.5528 -0.6208  0.1970
  811lim     li 6751   2.734   6.681   2.337 -0.1259  0.0223  0.6426
  812lim     li 6752   6.653   0.234   0.907 -1.1097  0.1453 -0.0323
  813lim     li 6753   5.422   3.174   4.914 -0.3651  0.9005 -0.3012
  814lim     li 6754   1.856   5.016   2.430 -0.1421  0.8184 -0.4034
  815lim     li 6755   3.962   5.699   3.358  1.0565  0.3307 -0.0519
  816lim     li 6756   1.643   3.624   4.888  0.7378  0.0211  0.6661
  817lim     li 6757   0.149   0.094   2.185  0.6377 -0.5759 -0.5318
  818lim     li 6758   5.623   1.649   0.640 -0.0297 -0.2251  0.2458
  819lim     li 6759   3.184   3.815   1.534  0.1817  1.5468  0.9676
  820lim     li 6760   1.330   0.774   4.233 -0.2845 -0.9488 -1.0852
  821lim     li 6761   2.037   1.195   4.863  1.1105 -0.3566 -1.5496
  822lim     li 6762   3.229   1.798   6.543  0.7553  0.6159  0.7640
  823lim     li 6763   4.427   5.860   4.616 -1.6140 -1.3820 -0.8933
  824lim     li 6764   2.902   1.976   0.580 -0.5360  0.6665  0.8808
  825lim     li 6765   6.588   3.386   2.663 -0.1889  1.3775  0.2070
  826lim     li 6766   6.566   3.000   5.930  0.6691  0.9684 -0.4165
  827lim     li 6767   0.052   6.721   5.364  0.4558  0.4246 -0.4818
  828lim     li 6768   2.373   0.914   5.332  0.1217 -0.1743 -0.3860
  829lim     li 6769   2.951   3.573   4.087  0.3035  0.0236  0.0434
  830lim     li 6770   6.208   1.674   6.216  0.3163  0.0726  0.6148
  831lim     li 6771   4.202   6.758   2.757  0.6557 -0.0514 -0.4729
  832lim     li 6772   1.604   0.917   0.021 -0.4443  0.6092  0.6527
  833lim     li 6773   5.251   5.405   6.639  0.0050 -0.9989 -0.3774
  834lim     li 6774   2.844   6.277   5.662 -0.7558  0.2991 -0.0774
  835lim     li 6775   2.070   1.981   0.007 -1.0439  0.1864 -0.3846
  836lim     li 6776   1.950   6.317   3.443  0.4579 -1.2703  0.6647
  837lim     li 6777   5.232   4.244   3.724  0.1291  0.0161  0.0988
  838lim     li 6778   5.526   6.293   2.079 -0.2329 -0.7091  1.2153
  839lim     li 6779   2.117   0.478   4.301  0.3952 -0.1599 -1.1360
  840lim     li 6780   3.216   2.463   4.549  0.1824  0.4584 -0.0828
  841lim     li 6781   1.227   6.171   4.489 -0.1700  0.2579  1.1882
  842lim     li 6782   2.241   6.639   5.949 -0.5986  0.7830 -1.0984
  843lim     li 6783   3.922   4.822   0.424  0.9655 -0.9393 -0.7917
  844lim     li 6784   1.617   4.641   6.520  0.5627 -1.0111 -0.6359
  845lim     li 6785   1.071   4.871   5.806  0.7209  0.0879 -1.5688
  846lim     li 6786   2.836   0.342   2.903 -0.1802  0.6279 -0.6295
  847lim     li 6787   2.711   3.707   1.027  0.1017  0.1383 -0.6302
  848lim     li 6788   6.745   1.892   3.781  0.4905 -0.3775 -0.2402
  849lim     li 6789   0.787   1.998   3.873 -0.9016  0.8417 -0.3408
  850lim     li 6790   6.730   5.640   0.348 -0.8639 -0.0399 -0.8929
  851lim     li 6791   6.550   5.687   5.043  0.0112  0.0341 -0.4582
  852lim     li 6792   1.690   5.842   4.794  0.5799 -0.0752 -1.0616
  853lim     li 6793   2.804   5.918   1.794  0.4889  0.3797 -0.3281
  854lim     li 6794   2.348   2.038   2.784 -1.0004  0.9945  0.4966
  855lim     li 6795   5.211   6.106   3.830  0.3957 -0.8578  0.7970
  856lim     li 6796   4.301   2.141   0.681  0.1612  0.1867  0.4211
  857lim     li 6797   3.969   3.110   6.005  0.4046  0.8035  0.8465
  858lim     li 6798   2.006   4.329   2.854  1.4214  0.7277 -0.2270
  859lim     li 6799   5.138   4.434   0.701 -0.1932 -0.4204 -1.0937
  860lim     li 6800   6.413   4.724   4.751  1.1433 -0.6431  0.8636
  861lim     li 6801   4.792   6.779   2.399  0.3693 -0.4124 -0.2436
  862lim     li 6802   3.725   3.494   5.057  0.4561 -1.2268 -0.2323
  863lim     li 6803   3.781   6.627   0.763  1.4307 -0.1713  1.1655
  864lim     li 6804   4.345   1.907   3.765  0.3189  1.4334  0.4646
  865lim     li 6805   2.407   6.022   6.395  1.0961  0.7485  0.6094
  866lim     li 6806   2.430   2.818   6.286 -0.5859  0.8263  0.7931
  867lim     li 6807   2.768   6.592   3.499  0.4544  0.2524 -1.3478
  868lim     li 6808   2.494   4.099   5.931  0.7334 -0.4050  0.3618
  869lim     li 6809   4.956   4.209   2.924  1.2509  1.0043  0.2461
  870lim     li 6810   0.210   4.405   0.545 -0.5869 -0.2356  0.6367
  871lim     li 6811   6.107   5.704   5.471  0.1208 -0.6481 -1.1760
  872lim     li 6812   5.419   2.894   5.681 -1.5662 -0.6781  0.1520
  873lim     li 6813   1.303   3.755   3.628 -0.2255  0.2269  0.1074
  874lim     li 6814   2.832   4.585   3.203  0.5313 -0.1127 -0.1784
  875lim     li 6815   4.532   0.644   2.156  0.4508  1.2158  0.3121
  876lim     li 6816   2.265   3.024   1.627  0.2137 -0.3230 -0.7274
  877lim     li 6817   1.879   6.728   5.032 -0.5576 -0.6381  0.2989
  878lim     li 6818   6.676   5.496   2.540 -0.0824 -0.8639 -1.1019
  879lim     li 6819   3.626   1.164   2.264 -0.3355 -0.7048 -0.4115
  880lim     li 6820   2.850   4.307   4.019  0.7448 -0.3544  0.4814
  881lim     li 6821   4.716   5.740   5.868  0.1126 -0.0408 -0.0441
  882lim     li 6822   6.429   2.748   1.400  0.2820 -0.1405  0.4183
  883lim     li 6823   0.068   2.724   0.759  0.0456 -0.3601  0.2453
  884lim     li 6824   5.229   0.334   1.379  0.6202 -0.2771 -0.4521
  885lim     li 6825   3.028   5.462   5.705  1.6427  0.4641 -0.5556
  886lim     li 6826   0.216   1.905   2.150  0.1292 -0.7885 -0.5641
  887lim     li 6827   2.049   5.538   5.099  0.1960 -0.2642  1.4598
  888lim     li 6828   5.498   0.005   4.821  0.4552 -0.5724 -1.7374
  889lim     li 6829   3.473   3.142   3.060  0.6812  0.0552  1.4388
  890lim     li 6830   2.900   5.046   6.436  0.7261  0.1641  0.4904
  891lim     li 6831   0.878   1.631   2.416  0.9678 -0.0012 -0.4521
  892lim     li 6832   3.065   5.751   2.317 -0.0373 -0.1906 -0.5439
  893lim     li 6833   2.196   2.589   0.819  0.3577 -0.2852 -0.6178
  894lim     li 6834   2.924   5.906   4.775  0.5217 -0.8690 -0.7775
  895lim     li 6835   2.781   5.255   4.078 -0.4223 -0.6036 -0.4881
  896lim     li 6836   3.215   3.884   6.577 -1.0906 -0.9015  0.2645
  897lim     li 6837   3.365   6.466   2.868 -0.1140  0.6203 -0.8360
  898lim     li 6838   6.563   0.257   6.161 -1.9004 -0.7386  0.6739
  899lim     li 6839   4.167   3.617   2.739 -0.2910 -0.3231 -0.7977
  900lim     li 6840   4.204   1.073   4.145 -0.8725  1.8766  0.0551
  901lim     li 6841   2.373   1.819   1.195  0.1457  1.6880  0.3006
  902lim     li 6842   0.563   3.776   4.810  0.5831  1.0591 -0.2085
  903lim     li 6843   5.250   4.793   5.248 -0.6807 -0.9773 -1.1461
  904lim     li 6844   1.562   3.744   0.344 -0.3137 -0.7216  0.8791
  905lim     li 6845   3.453   4.306   2.927 -0.3733  0.0917  0.0105
  906lim     li 6846   0.953   5.523   6.383 -0.5257 -0.9309  0.8913
  907lim     li 6847   4.180   5.487   1.644  0.3936  0.9374 -0.7603
  908lim     li 6848   1.464   6.738   4.206 -0.4928 -0.0490 -1.0108
  909lim     li 6849   3.960   3.763   1.591 -0.1638  0.1391  0.4257
  910lim     li 6850   1.179   4.546   1.334  1.2587 -0.8331  0.0185
  911lim     li 6851   4.226   0.761   0.905 -0.7133  0.8177 -0.1434
  912lim     li 6852   2.115   2.843   2.257 -0.7568 -1.7238 -0.3909
  913lim     li 6853   0.302   4.444   1.433  0.4644 -0.1065  1.0586
  914lim     li 6854   0.567   5.918   5.236 -0.1811 -0.9978  1.0665
  915lim     li 6855   1.693   2.900   3.871 -0.2730  0.5290 -0.8598
  916lim     li 6856   3.789   4.175   5.907 -0.0028  0.9009 -0.7339
  917lim     li 6857   2.830   0.455   6.620  0.1326  0.9344  0.0504
  918lim     li 6858   2.401   4.141   0.038  0.1053 -0.1921  0.6377
  919lim     li 6859   4.864   4.773   0.302 -0.5959  1.5063  0.1324
  920lim     li 6860   5.096   2.255   6.113  0.2361  0.1878 -1.5758
  921lim     li 6861   3.806   6.047   1.764  0.1859  0.6447 -0.4439
  922lim     li 6862   1.653   2.797   5.701 -1.6934 -0.6605 -0.8693
  923lim     li 6863   5.078   4.997   6.090 -0.2839 -0.3660  0.8770
  924lim     li 6864   1.570   2.318   4.591 -0.0501 -0.0413  0.6611
  925lim     li 6865   2.102   4.038   2.270  0.5658  0.0121 -0.5081
  926lim     li 6866   5.957   5.092   5.282 -0.1483 -0.9733  0.0408
  927lim     li 6867   2.423   1.840   6.128 -0.1578 -0.7715  0.7735
  928lim     li 6868   3.710   0.290   6.731 -0.0033 -0.8438 -0.2388
  929lim     li 6869   2.086   6.624   1.538 -0.4596 -1.1132  0.3392
  930lim     li 6870   6.527   1.089   0.982 -0.4623 -1.1374 -1.1111
  931lim     li 6871   6.011   2.546   4.387 -0.1946  0.4242  1.7495
  932lim     li 6872   5.750   6.197   3.275 -0.1400  0.0360 -0.6006
  933lim     li 6873   4.113   4.704   3.046  0.6888  0.1801 -0.4741
  934lim     li 6874   3.009   2.517   5.840 -0.3273 -0.4212 -0.7987
  935lim     li 6875   0.719   0.237   4.152  0.4121 -0.2108 -1.0929
  936lim     li 6876   6.386   4.449   0.176  1.1784  0.0642 -0.3656
  937lim     li 6877   1.036   1.510   6.475  0.1705 -0.1880  0.1383
  938lim     li 6878   0.915   0.716   6.005 -0.0333 -0.5208 -0.7351
  939lim     li 6879   4.469   4.556   5.481 -0.1277 -0.6978  0.1236
  940lim     li 6880   0.574   3.018   1.441 -1.2775 -0.6869  0.0654
  941lim     li 6881   3.786   2.811   1.527 -0.0457  0.8512 -0.3903
  942lim     li 6882   4.517   1.216   6.695 -0.0168 -1.0205 -0.4891
  943lim     li 6883   5.255   6.495   0.372  0.2910  0.3560  0.1454
  944lim     li 6884   0.004   2.894   4.555  0.2196  0.3344  0.9136
  945lim     li 6885   1.991   3.538   3.291 -0.1841 -0.1281 -0.5496
  946lim     li 6886   2.157   0.311   0.958  0.1503  0.3971  0.9629
  947lim     li 6887   2.104   4.918   3.995  0.4790  0.9616  2.1111
  948lim     li 6888   0.905   0.318   2.689 -0.4671  1.3111 -0.8276
  949lim     li 6889   6.312   4.696   1.568 -0.3160  0.7392  0.4398
  950lim     li 6890   0.442   1.570   3.139  0.2512  1.1204 -1.0589
  951lim     li 6891   6.099   1.611   5.380 -0.2367  0.2337 -0.4110
  952lim     li 6892   1.658   0.639   5.313  1.0451  0.6314 -0.2792
  953lim     li 6893   0.724   0.431   0.734 -0.8510  1.0621  0.4007
  954lim     li 6894   3.033   0.186   4.431 -1.2249 -0.2893  0.0233
  955lim     li 6895   3.588   1.621   3.848  0.0185 -0.4776  0.1031
  956lim     li 6896   4.867   6.545   5.761 -0.1561 -0.0600  0.3132
  957lim     li 6897   4.117   5.336   5.629  0.8976 -0.8620 -0.5861
  958lim     li 6898   3.649   6.135   6.071  0.4501  0.9294 -0.9809
  959lim     li 6899   1.009   4.397   5.195 -0.1496  0.2942 -1.0900
  960lim     li 6900   2.329   1.158   0.610 -0.5210 -0.7303  0.2404
  961lim     li 6901   2.832   3.749   2.440  0.4743  0.4671  0.4795
  962lim     li 6902   4.338   4.801   6.269 -1.0506  0.0479  1.2058
  963lim     li 6903   2.678   2.757   3.124  0.0289  0.1831 -0.5383
  964lim     li 6904   2.632   1.594   4.137 -0.6938 -1.3309  1.8152
  965lim     li 6905   1.150   6.098   2.827  1.1121  0.5521  1.4147
  966lim     li 6906   4.443   2.393   2.221 -0.5147  0.6277 -0.4368
  967lim     li 6907   4.675   6.748   0.561 -0.3099 -0.3701  0.2395
  968lim     li 6908   0.249   6.427   1.525 -0.0466 -0.4315  0.7110
  969lim     li 6909   5.654   1.507   2.004  0.3000 -1.4915  1.1904
  970lim     li 6910   1.978   4.922   1.398 -0.0474  0.9057 -1.7342
  971lim     li 6911   5.426   2.963   3.665 -0.4875 -0.7450 -1.1454
  972lim     li 6912   2.808   0.593   0.408  0.5370  0.6888 -0.4014
  973lim     li 6913   6.599   3.752   3.624 -0.1794  0.0994  1.7361
  974lim     li 6914   4.621   0.512   5.487 -0.7382  0.3830 -0.7154
  975lim     li 6915   2.868   1.675   2.699 -0.7390  0.6281 -0.5925
  976lim     li 6916   1.532   2.811   1.197  0.0072 -0.3979 -0.9739
  977lim     li 6917   4.438   0.457   6.751 -0.1849 -0.2944  1.0220
  978lim     li 6918   0.915   2.857   3.053 -0.8286  0.1909  2.1291
  979lim     li 6919   0.567   3.396   3.907 -0.0701 -1.2483  0.7649
  980lim     li 6920   1.078   4.514   3.321  1.2682  0.4918 -0.1575
  981lim     li 6921   6.740   3.720   0.027  1.3005  0.4885 -0.3889
  982lim     li 6922   1.074   6.509   5.354 -0.5948 -0.7514 -0.5872
  983lim     li 6923   1.685   6.612   2.287  0.0435 -1.2529 -0.1864
  984lim     li 6924   3.545   5.315   5.378  1.1378  0.1907 -0.0884
  985lim     li 6925   0.727   5.002   6.568  0.3892  0.7297  0.9495
  986lim     li 6926   0.616   4.789   0.639  1.1500 -0.2743 -0.0256
  987lim     li 6927   4.406   1.826   4.754  0.3557 -0.0791 -1.0278
  988lim     li 6928   5.860   4.331   0.888  0.9082 -0.7852  0.0941
  989lim     li 6929   0.439   5.093   4.994 -0.0811  0.8758  1.6987
  990lim     li 6930   6.661   2.419   5.271 -0.0264 -1.1632  0.8881
  991lim     li 6931   2.952   4.770   0.652  1.1019  0.2403 -0.4211
  992lim     li 6932   1.476   1.351   5.557  0.3495  1.7927  0.2775
  993lim     li 6933   6.710   1.989   0.594 -0.0273 -0.7008 -1.0088
  994lim     li 6934   3.885   2.778   2.608 -0.2246  0.1042  0.4086
  995lim     li 6935   2.769   0.905   4.286  0.2806  0.3681 -0.4108
  996lim     li 6936   3.333   4.244   4.911 -1.1234 -0.4901 -0.9546
  997lim     li 6937   0.899   2.041   6.338  0.8598  0.8959 -0.4175
  998lim     li 6938   3.948   1.644   0.175 -0.2200 -0.9282 -0.9796
  999lim     li 6939   5.738   6.027   6.066  1.0992  0.7817 -0.1463
 1000lim     li 6940   6.394   6.038   1.671  0.5348  1.0298  1.4886
 1001lim     li 6941   2.862   1.373   0.035 -0.6200 -0.2119  0.1612
 1002lim     li 6942   1.520   1.869   3.727  0.2564 -1.0149 -1.4686
 1003lim     li 6943   3.099   1.539   5.567  0.5465 -0.6214 -0.4661
 1004lim     li 6944   2.621   2.925   4.722  0.0988  0.3616  0.4917
 1005lim     li 6945   0.054   0.133   3.271  1.4279 -1.8000 -0.1092
 1006lim     li 6946   0.744   2.058   1.393 -0.2380 -0.5200  1.2169
 1007lim     li 6947   1.664   2.079   5.477  0.7793 -0.4297 -0.0051
 1008lim     li 6948   4.459   2.134   5.611  0.9322  0.0788 -0.3127
 1009lim     li 6949   6.122   5.392   2.022  0.3334 -0.1737 -1.8164
 1010lim     li 6950   5.236   0.605   6.681  0.7458 -0.0786 -1.4160
 1011lim     li 6951   1.256   3.922   2.706  0.4416 -0.3763 -0.3786
 1012lim     li 6952   6.334   3.112   0.388 -0.3789  0.0861  1.1259
 1013lim     li 6953   5.162   5.522   5.018 -0.0381 -0.6387 -0.3666
 1014lim     li 6954   1.309   5.423   2.055 -0.6011  1.0397  0.3980
 1015lim     li 6955   4.444   3.451   6.168  1.2111  0.1954 -0.7146
 1016lim     li 6956   5.382   4.092   1.574 -0.3956  0.3781 -0.3056
 1017lim     li 6957   5.003   3.686   0.256  1.4833  1.1485 -0.1387
 1018lim     li 6958   3.546   0.308   2.443  0.0915  0.6172 -0.3217
 1019lim     li 6959   3.986   4.278   2.158  0.4539 -0.8050 -0.2783
 1020lim     li 6960   6.332   6.516   4.765  0.4508  0.1748  0.5480
 1021lim     li 6961   0.626   2.143   4.933  0.6464  0.0430 -0.6464
 1022lim     li 6962   0.226   2.124   6.062 -0.4773 -0.8100 -0.9184
 1023lim     li 6963   0.602   0.858   1.323  0.1893  0.7149 -0.0918
 1024lim     li 6964   2.547   5.072   1.735 -0.2189  0.6473  0.5147
 1025lim     li 6965   4.753   0.804   6.037  0.1436 -0.6383  0.8609
 1026lim     li 6966   4.978   1.858   1.101  0.4274 -0.0949  0.6717
 1027lim     li 6967   2.308   5.963   4.321 -0.1563 -0.3048  0.0775
 1028lim     li 6968   6.111   5.537   3.903  0.5627 -1.0480 -0.9036
 1029lim     li 6969   4.703   3.907   4.982 -1.0245  0.1861  0.3990
 1030lim     li 6970   1.833   1.284   3.925 -1.3074  0.3805 -1.2285
 1031lim     li 6971   5.721   3.655   0.670  0.4417 -0.0269  0.0705
 1032lim     li 6972   6.714   0.941   5.458  0.7886 -0.7818  0.5872
 1033lim     li 6973   3.158   0.530   1.800 -0.6398 -2.0645 -0.0970
 1034lim     li 6974   3.469   1.071   6.070  0.3532 -1.0576  0.0856
 1035lim     li 6975   3.146   6.204   0.570  0.4801 -0.1429  0.7365
 1036lim     li 6976   3.805   4.868   3.799  0.2448 -0.8617  0.9817
 1037lim     li 6977   2.729   3.764   3.156  0.1202 -0.3039  0.3777
 1038lim     li 6978   1.009   1.005   5.053  0.4647 -1.4446 -0.2813
 1039lim     li 6979   5.252   4.647   2.298  0.7085 -0.2252 -0.8265
 1040lim     li 6980   1.632   1.517   2.872 -0.3797  0.5346 -1.4851
 1041lim     li 6981   3.169   3.866   0.423  1.5008  1.0955 -0.4728
 1042lim     li 6982   5.609   4.454   6.576  0.6268 -0.2022 -1.4749
 1043lim     li 6983   0.218   2.791   6.586 -0.3439 -0.2744 -0.9097
 1044lim     li 6984   3.254   5.290   3.122  0.6507  0.5112  1.9937
 1045lim     li 6985   2.751   5.631   0.174 -0.3891 -0.2287 -0.0157
 1046lim     li 6986   5.443   0.122   3.743 -1.0713  0.4373  1.0262
 1047lim     li 6987   2.151   1.683   2.055 -0.0225 -1.8567 -0.1836
 1048lim     li 6988   1.395   3.230   2.635 -0.5359  0.5708  0.3895
 1049lim     li 6989   4.765   3.798   1.180  0.4835  0.4146 -0.9942
 1050lim     li 6990   0.936   6.512   3.430  0.0916 -0.4081 -0.6938
 1051lim     li 6991   4.236   6.668   5.978 -0.2097 -0.1013  1.2026
 1052lim     li 6992   6.530   5.376   0.950  0.1198  0.2392 -0.8621
 1053lim     li 6993   1.421   2.716   2.812  0.2244  0.3245 -0.3313
 1054lim     li 6994   3.556   6.476   4.768  0.1169 -0.2126 -0.3325
 1055lim     li 6995   4.754   4.535   4.409 -0.1367 -0.1200 -0.3941
 1056lim     li 6996   1.510   6.437   0.001 -0.3982 -0.3929 -1.4193
 1057lim     li 6997   6.010   0.562   4.896 -0.4700 -0.5338  1.1914
 1058lim     li 6998   1.142   6.606   0.808 -0.9373  1.1928 -0.6558
 1059lim     li 6999   4.017   2.112   2.082  0.6139 -0.7797 -0.5696
 1060lim     li 7000   6.047   2.340   5.749 -1.3586  0.1090  0.2877
 1061lim     li 7001   5.541   5.119   1.860 -0.0321  0.7488 -0.2669
 1062lim     li 7002   5.903   2.647   5.047  0.0375  0.7925 -0.1579
 1063lim     li 7003   1.667   6.219   5.650  0.6409  0.4731  0.7296
 1064lim     li 7004   0.088   5.401   5.923 -0.0744 -0.1014 -0.1509
 1065lim     li 7005   4.364   3.422   4.239  0.2324 -0.1733  0.2592
 1066lim     li 7006   1.316   4.410   2.190  0.2472 -0.5917  0.8092
 1067lim     li 7007   5.685   5.834   4.520  0.5594  1.0596  0.4878
 1068lim     li 7008   4.887   2.049   0.156  1.2784 -0.7867  0.5437
 1069lim     li 7009   0.183   6.622   0.283  0.1975 -0.2574 -0.7112
 1070lim     li 7010   2.299   3.777   4.693 -0.5689  0.4521 -0.2533
 1071lim     li 7011   2.746   1.783   3.556  0.8201 -0.2326  0.7053
 1072lim     li 7012   4.410   3.532   5.357  0.0867 -0.4159 -0.3757
 1073lim     li 7013   2.308   1.161   1.527  0.3363 -0.6605 -0.5625
 1074lim     li 7014   6.683   4.883   6.667  0.1926 -1.2943 -0.6391
 1075lim     li 7015   1.270   3.675   4.198  0.4482 -0.7287  0.6021
 1076lim     li 7016   6.621   4.652   3.758  0.2343 -0.4781 -0.8554
 1077lim     li 7017   3.418   0.411   4.057 -0.4316  0.8445  0.1688
 1078lim     li 7018   0.525   5.404   3.179  0.3074 -0.1942  1.8010
 1079lim     li 7019   1.657   1.792   0.644 -0.5352  0.2061 -0.7864
 1080lim     li 7020   0.566   0.869   6.801 -0.0252 -0.1024  0.6639
 1081ntf    cn1 7021   2.841   3.063   2.228  0.0383 -0.0424  0.1036
 1081ntf    sn2 7022   2.964   2.970   2.325  0.3818  0.1207 -0.1753
 1081ntf    nn3 7023   3.067   3.082   2.366  0.4925 -0.1592  0.3147
 1081ntf    sn2 7024   3.212   3.116   2.318  0.3135  0.0295 -0.0996
 1081ntf    cn1 7025   3.260   3.225   2.456 -0.2210  0.2626 -0.0978
 1081ntf    fn4 7026   2.882   3.091   2.105  0.4621 -0.2662  0.1924
 1081ntf    fn4 7027   2.728   2.997   2.211  0.2436 -0.2345 -0.5432
 1081ntf    fn4 7028   2.827   3.175   2.296 -0.3623  0.2317 -0.4275
 1081ntf    on5 7029   2.888   2.913   2.433 -0.0165  0.2332 -0.3937
 1081ntf    on5 7030   3.014   2.871   2.233  0.1834 -0.2578  0.1237
 1081ntf    on5 7031   3.303   3.004   2.318 -0.5072 -0.6457  0.3503
 1081ntf    on5 7032   3.218   3.203   2.203 -0.2381  0.4542  0.1889
 1081ntf    fn4 7033   3.385   3.217   2.498 -0.1274  0.5927 -0.3037
 1081ntf    fn4 7034   3.187   3.201   2.564 -0.0109  0.2428  0.0402
 1081ntf    fn4 7035   3.241   3.349   2.415  0.1398  0.1478 -0.6221
 1082ntf    cn1 7036   1.415   1.890   1.367  0.4508  0.0229 -0.2920
 1082ntf    sn2 7037   1.461   1.948   1.533  0.4919 -0.1419 -0.2452
 1082ntf    nn3 7038   1.580   1.848   1.555  0.1671 -0.4395  0.1620
 1082ntf    sn2 7039   1.616   1.767   1.685  0.4032 -0.1826  0.2593
 1082ntf    cn1 7040   1.604   1.900   1.808  0.2328 -0.0074  0.0538
 1082ntf    fn4 7041   1.386   1.762   1.350  0.0487  0.1073 -0.2346
 1082ntf    fn4 7042   1.311   1.959   1.325  0.6129  0.1718 -0.4541
 1082ntf    fn4 7043   1.504   1.915   1.272  0.5001  0.0145 -0.2483
 1082ntf    on5 7044   1.505   2.084   1.513 -0.6371  0.1826 -0.5826
 1082ntf    on5 7045   1.341   1.919   1.607  0.3778  0.1290 -0.3246
 1082ntf    on5 7046   1.514   1.674   1.727 -0.2579  0.7743  0.8011
 1082ntf    on5 7047   1.753   1.724   1.688  0.2544 -0.6334  1.1974
 1082ntf    fn4 7048   1.478   1.922   1.842  0.2764  0.4628 -0.0816
 1082ntf    fn4 7049   1.660   2.013   1.767  0.1856  0.2457  0.6761
 1082ntf    fn4 7050   1.657   1.871   1.925  0.2548  0.1060  0.0720
 1083ntf    cn1 7051   2.231   5.293   0.337 -0.2503 -0.1543 -0.3779
 1083ntf    sn2 7052   2.244   5.217   0.502  0.1998  0.1665 -0.2628
 1083ntf    nn3 7053   2.113   5.270   0.570  0.0670 -0.6785  0.1619
 1083ntf    sn2 7054   2.045   5.233   0.707 -0.4096  0.0313  0.1230
 1083ntf    cn1 7055   1.889   5.163   0.645 -0.3254 -0.0207 -0.0296
 1083ntf    fn4 7056   2.197   5.421   0.345  0.0399 -0.1365  0.7656
 1083ntf    fn4 7057   2.340   5.277   0.263  0.3804 -0.0696  0.5113
 1083ntf    fn4 7058   2.130   5.237   0.273 -0.6778 -0.1496  0.2782
 1083ntf    on5 7059   2.245   5.078   0.461  0.6168  0.0821  0.0263
 1083ntf    on5 7060   2.373   5.268   0.540 -0.0117  0.5400 -0.0495
 1083ntf    on5 7061   2.110   5.127   0.781 -0.1720 -0.2256 -0.4457
 1083ntf    on5 7062   2.017   5.357   0.776  0.6842  0.7071 -0.6084
 1083ntf    fn4 7063   1.824   5.244   0.563 -0.3946 -0.1658 -0.1180
 1083ntf    fn4 7064   1.800   5.138   0.739 -0.4554  0.1737 -0.1001
 1083ntf    fn4 7065   1.910   5.049   0.582  0.1299 -0.0887  0.2398
 1084ntf    cn1 7066   6.573   2.931   5.447  0.2375  0.0873 -0.2822
 1084ntf    sn2 7067   6.587   3.056   5.578  0.2550 -0.0944 -0.1104
 1084ntf    nn3 7068   6.437   3.105   5.583  0.0898 -0.5992 -0.1151
 1084ntf    sn2 7069   6.322   3.086   5.688 -0.0260  0.1848 -0.0964
 1084ntf    cn1 7070   6.240   2.941   5.616  0.1166  0.0836 -0.0578
 1084ntf    fn4 7071   6.525   2.984   5.336  0.1128  0.2762 -0.1385
 1084ntf    fn4 7072   6.690   2.874   5.423  0.2105 -0.1285  0.1002
 1084ntf    fn4 7073   6.481   2.842   5.479  0.4268 -0.1243 -0.3268
 1084ntf    on5 7074   6.619   2.979   5.696 -0.2027 -0.6157 -0.3238
 1084ntf    on5 7075   6.680   3.150   5.521  0.3178 -0.0972 -0.0123
 1084ntf    on5 7076   6.369   3.056   5.821 -0.3524 -0.1767 -0.0618
 1084ntf    on5 7077   6.229   3.195   5.680  0.0992  0.3026  0.0353
 1084ntf    fn4 7078   6.200   2.961   5.492  0.3344 -0.1362 -0.1628
 1084ntf    fn4 7079   6.129   2.899   5.675  0.2937  0.1572  0.3284
 1084ntf    fn4 7080   6.311   2.830   5.624  0.9809  0.6448  0.1817
 1085ntf    cn1 7081   0.013   1.823   5.172 -0.0874 -0.0248  0.0120
 1085ntf    sn2 7082   0.079   1.923   5.309  0.1240  0.2504 -0.2902
 1085ntf    nn3 7083  -0.029   2.037   5.303 -0.1704 -0.0131 -0.0107
 1085ntf    sn2 7084  -0.105   2.112   5.419  0.1482  0.0936  0.1299
 1085ntf    cn1 7085  -0.263   2.028   5.450  0.0413  0.1428 -0.2696
 1085ntf    fn4 7086   0.023   1.885   5.056  0.4765 -0.3318 -0.1084
 1085ntf    fn4 7087   0.077   1.709   5.149 -0.2233 -0.1065  0.0383
 1085ntf    fn4 7088  -0.111   1.777   5.184 -0.2035  0.3926  0.4175
 1085ntf    on5 7089   0.076   1.837   5.424  0.5502  0.5147 -0.0776
 1085ntf    on5 7090   0.206   1.965   5.256  0.0382  0.5421 -0.2679
 1085ntf    on5 7091  -0.041   2.103   5.547  0.1950  0.0236  0.1018
 1085ntf    on5 7092  -0.141   2.247   5.384 -0.2976  0.0439  0.3997
 1085ntf    fn4 7093  -0.319   2.068   5.563  0.0279  0.2412 -0.3108
 1085ntf    fn4 7094  -0.241   1.900   5.471  0.7493  0.3009 -0.0052
 1085ntf    fn4 7095  -0.351   2.043   5.352  0.0219  0.1529 -0.2512
 1086ntf    cn1 7096   2.856   0.411   4.158  0.0281 -0.3844  0.2188
 1086ntf    sn2 7097   2.856   0.443   4.337  0.0832 -0.4962  0.2394
 1086ntf    nn3 7098   2.706   0.480   4.364  0.1661  0.1111 -0.1276
 1086ntf    sn2 7099   2.629   0.615   4.384 -0.5225 -0.2413 -0.3544
 1086ntf    cn1 7100   2.567   0.594   4.554  0.1629  0.1491 -0.0493
 1086ntf    fn4 7101   2.780   0.304   4.142 -0.4338 -0.0029 -0.1498
 1086ntf    fn4 7102   2.810   0.518   4.095  0.0234 -0.2765  0.4036
 1086ntf    fn4 7103   2.980   0.381   4.123  0.3035  0.2620  0.6120
 1086ntf    on5 7104   2.889   0.316   4.398 -0.1915 -0.7991 -0.2435
 1086ntf    on5 7105   2.956   0.544   4.363 -0.2491 -0.2465  0.5542
 1086ntf    on5 7106   2.710   0.734   4.391 -0.6477 -0.1582 -0.3004
 1086ntf    on5 7107   2.512   0.622   4.300 -0.6947  0.8439 -0.0365
 1086ntf    fn4 7108   2.665   0.583   4.643  0.2984  0.0802 -0.2070
 1086ntf    fn4 7109   2.498   0.482   4.568  0.3497  0.0240 -0.1140
 1086ntf    fn4 7110   2.494   0.695   4.596 -0.2757 -0.2890  0.2520
 1087ntf    cn1 7111   0.778   1.340   5.902  0.1448 -0.2313 -0.1552
 1087ntf    sn2 7112   0.730   1.514   5.882  0.0858 -0.2525 -0.2032
 1087ntf    nn3 7113   0.574   1.500   5.894 -0.0360  0.8670 -0.4119
 1087ntf    sn2 7114   0.472   1.585   5.978 -0.0274  0.3171  0.1665
 1087ntf    cn1 7115   0.484   1.522   6.148 -0.2740  0.1992  0.1418
 1087ntf    fn4 7116   0.893   1.305   5.847 -0.0079 -0.4591 -0.3379
 1087ntf    fn4 7117   0.776   1.308   6.030 -0.5004 -0.8927 -0.3196
 1087ntf    fn4 7118   0.695   1.252   5.845 -0.4956  0.1712  0.1443
 1087ntf    on5 7119   0.796   1.580   5.992 -0.3287 -0.4468  0.1657
 1087ntf    on5 7120   0.765   1.539   5.745  0.4593 -0.0165 -0.0684
 1087ntf    on5 7121   0.504   1.726   5.987  0.5111  0.1702  0.5880
 1087ntf    on5 7122   0.336   1.562   5.933  0.0683  0.7425 -0.3481
 1087ntf    fn4 7123   0.467   1.391   6.147 -0.6423  0.2454 -0.1226
 1087ntf    fn4 7124   0.398   1.575   6.234  0.0838  0.1357  0.5380
 1087ntf    fn4 7125   0.607   1.537   6.193 -0.1152  0.5408 -0.4002
 1088ntf    cn1 7126   4.147   1.374   5.829  0.3387  0.3247 -0.2082
 1088ntf    sn2 7127   3.966   1.396   5.822  0.2798 -0.1236 -0.1035
 1088ntf    nn3 7128   3.940   1.534   5.892  0.2719  0.0036 -0.3523
 1088ntf    sn2 7129   3.947   1.676   5.828  0.4296  0.1703  0.0299
 1088ntf    cn1 7130   3.787   1.700   5.744  0.3396 -0.2712  0.0731
 1088ntf    fn4 7131   4.186   1.269   5.759 -0.8208 -0.0208 -0.3686
 1088ntf    fn4 7132   4.207   1.469   5.760 -0.0240  0.5662 -0.1983
 1088ntf    fn4 7133   4.205   1.360   5.947 -0.5456 -0.1935  0.1780
 1088ntf    on5 7134   3.932   1.403   5.682  0.0699 -0.3047 -0.0613
 1088ntf    on5 7135   3.920   1.282   5.897 -0.0027  0.2403  0.2815
 1088ntf    on5 7136   3.948   1.788   5.919 -0.2525  0.5526 -0.4215
 1088ntf    on5 7137   4.045   1.688   5.723  0.2383  0.4195 -0.1223
 1088ntf    fn4 7138   3.786   1.805   5.663 -1.0153  0.0312  0.4612
 1088ntf    fn4 7139   3.691   1.713   5.833  0.2853 -0.0851 -0.0115
 1088ntf    fn4 7140   3.752   1.602   5.662 -0.1013 -0.3040  0.2996
 1089ntf    cn1 7141   6.053   0.614   2.646  0.1050 -0.0628  0.1994
 1089ntf    sn2 7142   6.023   0.790   2.679 -0.3303 -0.0880 -0.0439
 1089ntf    nn3 7143   6.168   0.828   2.727 -0.5228  0.0961  0.4043
 1089ntf    sn2 7144   6.216   0.917   2.847  0.1123  0.3398 -0.0284
 1089ntf    cn1 7145   6.389   0.865   2.870  0.0482 -0.0170 -0.3354
 1089ntf    fn4 7146   5.961   0.545   2.580  0.2728 -0.2487  0.1597
 1089ntf    fn4 7147   6.165   0.580   2.585  0.2700  0.3864  0.2446
 1089ntf    fn4 7148   6.063   0.551   2.762  0.1664 -0.1433  0.1504
 1089ntf    on5 7149   5.994   0.840   2.547 -0.0895  0.4241  0.0936
 1089ntf    on5 7150   5.916   0.791   2.775 -0.3496  0.6780 -0.0679
 1089ntf    on5 7151   6.231   1.052   2.798  0.0577  0.3308 -0.0695
 1089ntf    on5 7152   6.155   0.887   2.973 -0.3348 -0.2010 -0.3682
 1089ntf    fn4 7153   6.472   0.879   2.768  0.2258 -0.7792 -0.3052
 1089ntf    fn4 7154   6.385   0.734   2.888  0.4516 -0.0038 -0.1242
 1089ntf    fn4 7155   6.445   0.923   2.975  0.0986  0.0949 -0.4245
 1090ntf    cn1 7156   6.583   0.360   4.862 -0.0485  0.0385  0.2535
 1090ntf    sn2 7157   6.604   0.401   4.686 -0.0700  0.0825  0.2605
 1090ntf    nn3 7158   6.756   0.365   4.684 -0.1295 -0.1675  0.2001
 1090ntf    sn2 7159   6.848   0.252   4.625 -0.3451 -0.0742 -0.3131
 1090ntf    cn1 7160   6.847   0.309   4.452  0.2887 -0.2033 -0.3594
 1090ntf    fn4 7161   6.589   0.471   4.934 -0.9382 -0.0262  0.4503
 1090ntf    fn4 7162   6.465   0.311   4.898 -0.4788  0.8502 -0.0213
 1090ntf    fn4 7163   6.679   0.283   4.910 -0.1089 -0.3413 -0.2329
 1090ntf    on5 7164   6.500   0.315   4.634 -0.3891  0.3406  0.4601
 1090ntf    on5 7165   6.576   0.542   4.675 -0.3734 -0.0141 -0.2406
 1090ntf    on5 7166   6.983   0.271   4.672 -0.2808 -1.0311 -0.0954
 1090ntf    on5 7167   6.792   0.120   4.616 -0.3255 -0.0863 -0.2545
 1090ntf    fn4 7168   6.913   0.424   4.446  0.0051 -0.0117  0.1681
 1090ntf    fn4 7169   6.724   0.325   4.407  0.3173  0.6414 -0.1491
 1090ntf    fn4 7170   6.913   0.232   4.366 -0.3722 -0.8368 -0.3074
 1091ntf    cn1 7171   5.897   0.823   1.731 -0.1126  0.0291 -0.3679
 1091ntf    sn2 7172   5.968   0.661   1.774  0.1054  0.1949 -0.0991
 1091ntf    nn3 7173   5.850   0.567   1.731  0.2724 -0.0264 -0.0776
 1091ntf    sn2 7174   5.833   0.411   1.727 -0.0943  0.0105 -0.0601
 1091ntf    cn1 7175   5.859   0.372   1.552  0.1924 -0.4336  0.0779
 1091ntf    fn4 7176   5.901   0.848   1.601  0.3308 -0.0637 -0.3724
 1091ntf    fn4 7177   5.771   0.830   1.772 -0.2415 -0.1388 -0.7333
 1091ntf    fn4 7178   5.961   0.927   1.781  0.0091 -0.6054  0.8318
 1091ntf    on5 7179   6.089   0.658   1.696  0.3803 -0.2755  0.3412
 1091ntf    on5 7180   5.987   0.671   1.916 -0.3640  0.0081 -0.0220
 1091ntf    on5 7181   5.929   0.328   1.797 -0.4197  0.4168  0.8926
 1091ntf    on5 7182   5.696   0.380   1.759 -0.0892  0.1224  0.0712
 1091ntf    fn4 7183   5.863   0.242   1.528  0.4735 -0.3961 -0.0841
 1091ntf    fn4 7184   5.974   0.407   1.495 -0.1949  0.2864 -0.2844
 1091ntf    fn4 7185   5.769   0.443   1.486  0.4446 -0.1087  0.0778
 1092ntf    cn1 7186   2.860   5.113   2.987  0.1717 -0.0658  0.2212
 1092ntf    sn2 7187   3.028   5.114   2.918 -0.1601 -0.0957 -0.5994
 1092ntf    nn3 7188   2.994   5.155   2.771 -0.6885 -0.0780 -0.4724
 1092ntf    sn2 7189   2.991   5.300   2.712 -0.0491  0.2148  0.2093
 1092ntf    cn1 7190   3.155   5.311   2.634  0.1572  0.1564  0.6346
 1092ntf    fn4 7191   2.855   5.126   3.119 -0.3079 -0.2555  0.2239
 1092ntf    fn4 7192   2.789   5.212   2.936 -0.6032 -0.4857  0.4691
 1092ntf    fn4 7193   2.803   4.997   2.961  0.8284 -0.4408  0.4304
 1092ntf    on5 7194   3.111   5.206   2.991 -0.2040 -0.2968 -0.2921
 1092ntf    on5 7195   3.064   4.974   2.924  0.3054  0.0286 -0.3793
 1092ntf    on5 7196   2.906   5.315   2.597  0.4351 -0.6173 -0.2663
 1092ntf    on5 7197   2.974   5.407   2.807 -0.8765 -0.0644  0.3826
 1092ntf    fn4 7198   3.236   5.240   2.712  0.1201 -0.4435  0.1302
 1092ntf    fn4 7199   3.202   5.434   2.619 -0.1560  0.1930 -0.0685
 1092ntf    fn4 7200   3.160   5.254   2.515 -0.2111 -0.1181  0.7479
 1093ntf    cn1 7201   1.943   2.896   4.575 -0.2568  0.0276  0.0480
 1093ntf    sn2 7202   2.124   2.883   4.589 -0.2870 -0.2316  0.2070
 1093ntf    nn3 7203   2.157   2.964   4.719  0.5363  0.0292 -0.1547
 1093ntf    sn2 7204   2.291   2.963   4.800  0.4233  0.2563  0.0380
 1093ntf    cn1 7205   2.310   3.141   4.826 -0.0069  0.3482 -0.2686
 1093ntf    fn4 7206   1.889   2.846   4.685  0.0474 -0.6308 -0.0977
 1093ntf    fn4 7207   1.899   3.021   4.573 -0.1066  0.0816  0.0684
 1093ntf    fn4 7208   1.885   2.840   4.471 -0.1650  0.4166 -0.2172
 1093ntf    on5 7209   2.149   2.741   4.593 -0.0072 -0.1940 -0.1453
 1093ntf    on5 7210   2.173   2.948   4.470  0.8162 -0.8785  0.2960
 1093ntf    on5 7211   2.281   2.896   4.928 -0.4292 -0.3020 -0.3100
 1093ntf    on5 7212   2.408   2.927   4.724  0.8048  0.3665  0.5668
 1093ntf    fn4 7213   2.434   3.155   4.872  0.0042 -0.0867 -0.1607
 1093ntf    fn4 7214   2.231   3.183   4.924 -0.0340 -0.1347 -0.0793
 1093ntf    fn4 7215   2.278   3.211   4.718 -0.4598  0.1719 -0.2517
 1094ntf    cn1 7216   6.089   1.057   0.468  0.5133  0.4001 -0.0462
 1094ntf    sn2 7217   6.230   0.958   0.409  0.3411  0.0948  0.0479
 1094ntf    nn3 7218   6.298   0.920   0.546 -0.3624 -0.0308  0.3690
 1094ntf    sn2 7219   6.393   0.801   0.583 -0.2650 -0.1439 -0.2296
 1094ntf    cn1 7220   6.556   0.881   0.580 -0.2212 -0.2283 -0.0876
 1094ntf    fn4 7221   6.143   1.161   0.528  0.3237  0.4438  0.0502
 1094ntf    fn4 7222   6.007   1.095   0.371  0.1995 -0.2663 -0.0484
 1094ntf    fn4 7223   6.024   0.983   0.556  0.7094 -0.0007 -0.2359
 1094ntf    on5 7224   6.151   0.850   0.358 -0.3788  0.9301 -0.6393
 1094ntf    on5 7225   6.313   1.040   0.325  0.3030 -0.2495 -0.3259
 1094ntf    on5 7226   6.382   0.774   0.724 -0.2426 -0.3191 -0.2604
 1094ntf    on5 7227   6.402   0.689   0.492  0.2238 -0.0229 -0.3350
 1094ntf    fn4 7228   6.653   0.797   0.616  0.0803  0.0842 -0.1671
 1094ntf    fn4 7229   6.572   0.997   0.642  0.2764 -0.0571 -0.5339
 1094ntf    fn4 7230   6.588   0.902   0.454  0.7009 -0.6425  0.0639
 1095ntf    cn1 7231   0.747   5.506   5.787 -0.0724  0.1559 -0.1703
 1095ntf    sn2 7232   0.844   5.352   5.797 -0.0414  0.1799 -0.0940
 1095ntf    nn3 7233   0.830   5.324   5.644  0.2724 -0.0595 -0.0797
 1095ntf    sn2 7234   0.917   5.357   5.517  0.2083 -0.0971 -0.1337
 1095ntf    cn1 7235   0.778   5.399   5.407  0.0213 -0.0541  0.1171
 1095ntf    fn4 7236   0.624   5.481   5.746 -0.1155  0.1616 -0.0450
 1095ntf    fn4 7237   0.745   5.572   5.902 -0.0954 -0.2651  0.0727
 1095ntf    fn4 7238   0.799   5.580   5.691  0.8387 -0.1607  0.0616
 1095ntf    on5 7239   0.975   5.387   5.848 -0.0456 -0.0275  0.0589
 1095ntf    on5 7240   0.765   5.259   5.874  0.2645 -0.0340 -0.0361
 1095ntf    on5 7241   0.989   5.482   5.514 -0.3289  0.1984 -0.8748
 1095ntf    on5 7242   0.968   5.243   5.445 -0.6434 -0.5593 -0.0297
 1095ntf    fn4 7243   0.695   5.299   5.381  0.1162 -0.0262 -0.2965
 1095ntf    fn4 7244   0.836   5.435   5.294 -0.6550  0.3961 -0.0879
 1095ntf    fn4 7245   0.710   5.504   5.451 -0.1707  0.1139 -0.5789
 1096ntf    cn1 7246   5.938   5.575   5.092  0.2507  0.5487  0.0083
 1096ntf    sn2 7247   6.100   5.552   5.173  0.1031  0.1160  0.1841
 1096ntf    nn3 7248   6.204   5.595   5.063 -0.3449  0.2764 -0.1828
 1096ntf    sn2 7249   6.286   5.502   4.967 -0.3637 -0.1120  0.1718
 1096ntf    cn1 7250   6.227   5.560   4.805 -0.1612 -0.0572  0.1167
 1096ntf    fn4 7251   5.840   5.577   5.181  0.1222 -0.7610 -0.0826
 1096ntf    fn4 7252   5.929   5.695   5.039 -0.9272  0.4241 -0.0950
 1096ntf    fn4 7253   5.912   5.486   4.998 -0.2835  0.1637  0.5119
 1096ntf    on5 7254   6.090   5.653   5.275  0.1340  0.6193 -0.3051
 1096ntf    on5 7255   6.097   5.414   5.214 -0.0983  0.0252 -0.1287
 1096ntf    on5 7256   6.427   5.533   4.975 -0.2054 -0.8292  0.1742
 1096ntf    on5 7257   6.247   5.365   4.949  0.0926 -0.1724 -0.3876
 1096ntf    fn4 7258   6.271   5.480   4.709 -0.1827  0.3759 -0.2579
 1096ntf    fn4 7259   6.275   5.681   4.784 -0.1079 -0.0862  0.0719
 1096ntf    fn4 7260   6.095   5.565   4.801 -0.1431  0.1356 -0.2180
 1097ntf    cn1 7261   6.090   1.001   5.549 -0.3970  0.3026 -0.3386
 1097ntf    sn2 7262   5.947   0.889   5.556  0.0925 -0.2776  0.4908
 1097ntf    nn3 7263   5.831   0.986   5.515  0.7496  0.1862 -0.2831
 1097ntf    sn2 7264   5.764   1.001   5.374 -0.2737  0.2282  0.2024
 1097ntf    cn1 7265   5.657   1.147   5.389 -0.1773  0.3093  0.0978
 1097ntf    fn4 7266   6.092   1.097   5.641 -0.0835 -0.0041 -0.0258
 1097ntf    fn4 7267   6.203   0.932   5.555 -0.5705  0.0354 -0.0847
 1097ntf    fn4 7268   6.094   1.070   5.437  0.2364  0.3114 -0.3127
 1097ntf    on5 7269   5.990   0.778   5.474 -0.2306  0.2171 -0.3552
 1097ntf    on5 7270   5.940   0.861   5.698 -0.0675  0.4428  0.6300
 1097ntf    on5 7271   5.860   1.037   5.272  0.1538 -0.8638  0.2026
 1097ntf    on5 7272   5.667   0.903   5.330  0.3174 -0.4518  0.3848
 1097ntf    fn4 7273   5.591   1.153   5.503 -0.3649  0.2153 -0.0054
 1097ntf    fn4 7274   5.583   1.154   5.279 -0.1135  0.1319  0.0426
 1097ntf    fn4 7275   5.738   1.252   5.383  0.3920 -0.1456 -0.2534
 1098ntf    cn1 7276   0.143   1.217   3.945  0.2428 -0.4354  0.0713
 1098ntf    sn2 7277   0.142   1.288   4.113  0.0215  0.1423 -0.1695
 1098ntf    nn3 7278   0.296   1.309   4.133  0.0213 -0.2356  0.2425
 1098ntf    sn2 7279   0.384   1.438   4.118 -0.2623 -0.0863 -0.1471
 1098ntf    cn1 7280   0.469   1.388   3.965  0.2351 -0.1162  0.1355
 1098ntf    fn4 7281   0.237   1.126   3.923  0.2968 -0.2968 -0.2740
 1098ntf    fn4 7282   0.031   1.156   3.913 -0.0770  0.0107  0.3313
 1098ntf    fn4 7283   0.168   1.310   3.854  0.0035  0.1124  0.5543
 1098ntf    on5 7284   0.054   1.401   4.106 -0.8169 -0.4721  0.1973
 1098ntf    on5 7285   0.109   1.169   4.188  0.5602 -0.4582 -0.8605
 1098ntf    on5 7286   0.324   1.565   4.088  0.1120 -0.0532 -0.7869
 1098ntf    on5 7287   0.498   1.437   4.206  0.0077 -0.3238 -0.4969
 1098ntf    fn4 7288   0.380   1.401   3.868  0.5081 -0.2926 -0.1384
 1098ntf    fn4 7289   0.516   1.265   3.959  0.1191 -0.1737  0.3854
 1098ntf    fn4 7290   0.568   1.469   3.929  0.5357 -0.7121 -0.3943
 1099ntf    cn1 7291   3.708   5.192   4.989  0.2979  0.3411  0.2613
 1099ntf    sn2 7292   3.737   5.140   5.161  0.3091  0.1559  0.2044
 1099ntf    nn3 7293   3.677   4.995   5.156 -0.4087  0.4658 -0.4107
 1099ntf    sn2 7294   3.755   4.860   5.179 -0.2263  0.6974  0.3796
 1099ntf    cn1 7295   3.747   4.834   5.359  0.4060  0.4051  0.3641
 1099ntf    fn4 7296   3.767   5.105   4.909 -0.4382  0.3097 -0.2548
 1099ntf    fn4 7297   3.581   5.186   4.954  0.3653  0.4217  0.0079
 1099ntf    fn4 7298   3.762   5.310   4.965 -0.9154  0.9079  0.2157
 1099ntf    on5 7299   3.880   5.151   5.173  0.3458  0.1053 -0.1864
 1099ntf    on5 7300   3.658   5.235   5.236  0.3920  0.6558 -0.3331
 1099ntf    on5 7301   3.665   4.757   5.133  0.3929  0.0489  0.6080
 1099ntf    on5 7302   3.894   4.851   5.142 -0.4580 -0.4008 -0.2593
 1099ntf    fn4 7303   3.626   4.818   5.409  0.5183 -0.2965  0.4303
 1099ntf    fn4 7304   3.804   4.927   5.434 -0.0464  0.9568  0.0280
 1099ntf    fn4 7305   3.810   4.723   5.395  0.4043  0.4492  0.5047
 1100ntf    cn1 7306   3.572   0.029   2.885 -0.3415 -0.1414 -0.2393
 1100ntf    sn2 7307   3.449  -0.012   2.758 -0.2645 -0.2623 -0.2752
 1100ntf    nn3 7308   3.557  -0.053   2.652 -0.5567 -0.3379 -0.5439
 1100ntf    sn2 7309   3.575  -0.035   2.497  0.0720  0.0990 -0.4201
 1100ntf    cn1 7310   3.756  -0.044   2.477  0.0827  0.0330 -0.2949
 1100ntf    fn4 7311   3.661  -0.069   2.891  0.2848  0.4056 -0.4935
 1100ntf    fn4 7312   3.643   0.135   2.849  0.1148 -0.4412 -0.2280
 1100ntf    fn4 7313   3.524   0.043   3.007 -0.0034 -0.0082 -0.1203
 1100ntf    on5 7314   3.368  -0.121   2.806  0.3849 -0.4210  0.4837
 1100ntf    on5 7315   3.380   0.110   2.721  0.4502  0.4415  0.6590
 1100ntf    on5 7316   3.531  -0.148   2.419  0.0495 -0.3007  0.1681
 1100ntf    on5 7317   3.547   0.102   2.459  0.1386 -0.0593 -1.0577
 1100ntf    fn4 7318   3.813  -0.158   2.512 -0.0686  0.1363  0.2913
 1100ntf    fn4 7319   3.817   0.043   2.555  0.3161  0.0100 -0.4519
 1100ntf    fn4 7320   3.795  -0.015   2.354  0.8500  0.2265 -0.0123
 1101ntf    cn1 7321   0.508   5.628   0.763  0.0478 -0.4728  0.1313
 1101ntf    sn2 7322   0.331   5.664   0.790  0.0804 -0.0605 -0.1926
 1101ntf    nn3 7323   0.265   5.585   0.672 -0.7441 -0.1187  0.3024
 1101ntf    sn2 7324   0.235   5.649   0.532 -0.2409 -0.3236  0.0976
 1101ntf    cn1 7325   0.336   5.538   0.430 -0.2207 -0.3594  0.1566
 1101ntf    fn4 7326   0.534   5.498   0.764 -0.0338 -0.4898  0.0620
 1101ntf    fn4 7327   0.559   5.685   0.656 -0.0089 -0.4328  0.1254
 1101ntf    fn4 7328   0.573   5.679   0.866 -0.2305  0.1612 -0.0004
 1101ntf    on5 7329   0.303   5.605   0.919  0.3975  0.4131  0.1001
 1101ntf    on5 7330   0.335   5.807   0.776 -0.3912  0.0105  0.3753
 1101ntf    on5 7331   0.101   5.617   0.490  0.2162 -0.7098 -1.1048
 1101ntf    on5 7332   0.280   5.780   0.491 -0.8486  0.1429  0.8961
 1101ntf    fn4 7333   0.265   5.430   0.404 -0.2348 -0.3749  0.2616
 1101ntf    fn4 7334   0.459   5.509   0.469  0.2594  0.3932 -0.7469
 1101ntf    fn4 7335   0.356   5.585   0.308 -0.2008 -0.7906 -0.0076
 1102ntf    cn1 7336   1.040   2.780   2.579 -0.3731 -0.3568  0.0790
 1102ntf    sn2 7337   1.102   2.765   2.750  0.0920  0.3493 -0.0260
 1102ntf    nn3 7338   1.039   2.624   2.777  0.0135  0.4307  0.2200
 1102ntf    sn2 7339   0.946   2.570   2.891 -0.2670  0.2636 -0.0846
 1102ntf    cn1 7340   0.795   2.520   2.804 -0.1537 -0.1010 -0.0772
 1102ntf    fn4 7341   0.918   2.731   2.567 -0.1143 -0.8252 -0.6689
 1102ntf    fn4 7342   1.042   2.900   2.524  0.3736 -0.1126  0.6288
 1102ntf    fn4 7343   1.109   2.705   2.494 -0.9366 -0.5049 -0.2502
 1102ntf    on5 7344   1.245   2.758   2.731  0.0686  1.1356 -0.5731
 1102ntf    on5 7345   1.042   2.881   2.812  0.0044  0.1272  0.3018
 1102ntf    on5 7346   1.000   2.450   2.951 -0.1001  0.4404  0.1229
 1102ntf    on5 7347   0.909   2.670   2.988 -0.0434  0.1711  0.0999
 1102ntf    fn4 7348   0.697   2.477   2.881  0.2691 -0.4733  0.2550
 1102ntf    fn4 7349   0.819   2.428   2.713 -0.1613  0.1352 -0.3202
 1102ntf    fn4 7350   0.733   2.619   2.741 -0.0438  0.1349  0.1840
 1103ntf    cn1 7351   6.778   1.100   2.024  0.1142  0.1696 -0.3575
 1103ntf    sn2 7352   6.679   1.133   1.876 -0.2615 -0.2579 -0.2037
 1103ntf    nn3 7353   6.537   1.155   1.940 -0.0383 -0.4370  0.3576
 1103ntf    sn2 7354   6.482   1.281   2.016 -0.0934 -0.2319 -0.0217
 1103ntf    cn1 7355   6.387   1.371   1.889 -0.2808  0.3153  0.5024
 1103ntf    fn4 7356   6.904   1.066   1.998 -0.0469 -0.7664  0.0335
 1103ntf    fn4 7357   6.787   1.207   2.102 -0.2645 -0.0523 -0.0032
 1103ntf    fn4 7358   6.718   1.013   2.104  0.3540  0.4049  0.0867
 1103ntf    on5 7359   6.744   1.245   1.812  0.3657 -0.1793  0.5595
 1103ntf    on5 7360   6.675   1.007   1.806 -0.2208 -0.2018 -0.3075
 1103ntf    on5 7361   6.395   1.245   2.125  0.1273 -0.1671  0.1765
 1103ntf    on5 7362   6.577   1.384   2.051 -0.0906 -0.1433 -0.2876
 1103ntf    fn4 7363   6.314   1.472   1.934 -0.5068  0.1095  0.6029
 1103ntf    fn4 7364   6.304   1.290   1.825  0.5068 -0.0896 -0.0150
 1103ntf    fn4 7365   6.466   1.424   1.798  0.0572 -0.3028  0.4289
 1104ntf    cn1 7366   2.558   1.357   2.808  0.2556 -0.1630 -0.1167
 1104ntf    sn2 7367   2.599   1.534   2.826 -0.1155 -0.0948  0.0819
 1104ntf    nn3 7368   2.457   1.598   2.815 -0.0619 -0.0026 -0.0781
 1104ntf    sn2 7369   2.391   1.681   2.700 -0.1239 -0.1813 -0.1726
 1104ntf    cn1 7370   2.214   1.650   2.729 -0.2183  0.3096 -0.2148
 1104ntf    fn4 7371   2.460   1.337   2.721  0.6294  0.5235 -0.7060
 1104ntf    fn4 7372   2.660   1.286   2.763  0.2923  0.0743 -0.4131
 1104ntf    fn4 7373   2.515   1.311   2.924 -0.1681  0.8023  0.1248
 1104ntf    on5 7374   2.649   1.532   2.962 -0.0139  0.6695  0.0565
 1104ntf    on5 7375   2.695   1.558   2.720 -0.4667  0.0888 -0.1948
 1104ntf    on5 7376   2.402   1.823   2.723  0.3943 -0.2790  0.2123
 1104ntf    on5 7377   2.418   1.640   2.564 -0.4684  0.1673 -0.3474
 1104ntf    fn4 7378   2.173   1.690   2.849 -0.0387 -0.3937  0.0866
 1104ntf    fn4 7379   2.183   1.524   2.707  1.0469 -0.0526 -0.0150
 1104ntf    fn4 7380   2.143   1.722   2.645 -0.9174  0.1623  0.2422
 1105ntf    cn1 7381   3.440   4.162   0.190  0.0355 -0.0105 -0.1846
 1105ntf    sn2 7382   3.299   4.240   0.106 -0.0307 -0.2433 -0.2921
 1105ntf    nn3 7383   3.231   4.120   0.032 -0.3951 -0.2858  0.1037
 1105ntf    sn2 7384   3.153   3.995   0.085 -0.4458 -0.2721  0.0612
 1105ntf    cn1 7385   2.981   4.050   0.111 -0.3310 -0.0094  0.2648
 1105ntf    fn4 7386   3.524   4.253   0.235  0.0059 -0.0147 -0.1210
 1105ntf    fn4 7387   3.411   4.086   0.294  0.1335  0.5902  0.2867
 1105ntf    fn4 7388   3.522   4.098   0.108 -0.2246 -0.2655 -0.2451
 1105ntf    on5 7389   3.217   4.285   0.216  0.4635  0.2510 -0.1227
 1105ntf    on5 7390   3.358   4.336   0.015 -0.5338  0.5370  0.1908
 1105ntf    on5 7391   3.146   3.901  -0.024 -0.2279 -0.7760  0.4782
 1105ntf    on5 7392   3.188   3.953   0.218 -0.6749 -0.3376  0.1029
 1105ntf    fn4 7393   2.901   3.953   0.153  0.1511 -0.4027  0.2974
 1105ntf    fn4 7394   2.923   4.076  -0.005  0.1626 -0.5334 -0.1072
 1105ntf    fn4 7395   2.970   4.148   0.199 -0.1438  0.0167  0.2599
 1106ntf    cn1 7396   5.988   6.106   0.490  0.1007  0.3044  0.3991
 1106ntf    sn2 7397   5.973   6.281   0.443 -0.3672  0.1660  0.0186
 1106ntf    nn3 7398   6.101   6.352   0.499 -0.1368 -0.6529  0.5478
 1106ntf    sn2 7399   6.120   6.424   0.637 -0.4508  0.1991  0.1547
 1106ntf    cn1 7400   6.290   6.383   0.687 -0.5503 -0.5356 -0.0986
 1106ntf    fn4 7401   5.882   6.036   0.453  0.2640  0.2784 -0.0355
 1106ntf    fn4 7402   6.087   6.046   0.426  0.0096  0.1459  0.4062
 1106ntf    fn4 7403   6.011   6.084   0.618 -0.4793 -0.5379  0.3702
 1106ntf    on5 7404   5.977   6.284   0.299 -0.0228 -0.7513  0.0024
 1106ntf    on5 7405   5.843   6.317   0.494 -0.3874 -0.6458  0.5518
 1106ntf    on5 7406   6.130   6.566   0.616  0.0787  0.2307  0.6108
 1106ntf    on5 7407   6.040   6.377   0.748  0.0566  0.1860  0.5159
 1106ntf    fn4 7408   6.321   6.426   0.808 -0.3640  0.3303 -0.4490
 1106ntf    fn4 7409   6.384   6.435   0.611 -0.3862 -0.2045  0.3240
 1106ntf    fn4 7410   6.322   6.255   0.691  0.7289 -0.2226  0.0839
 1107ntf    cn1 7411   3.202   3.054   0.350  0.0293 -0.4917  0.1343
 1107ntf    sn2 7412   3.343   3.054   0.236 -0.2537  0.1569 -0.2216
 1107ntf    nn3 7413   3.340   3.203   0.187  0.7245  0.2853  0.0939
 1107ntf    sn2 7414   3.303   3.264   0.047 -0.0019 -0.0556  0.1341
 1107ntf    cn1 7415   3.128   3.301   0.078  0.0809  0.5042 -0.0544
 1107ntf    fn4 7416   3.225   3.127   0.458  0.0095 -0.2339 -0.0362
 1107ntf    fn4 7417   3.089   3.096   0.295 -0.0522 -0.5150  0.2824
 1107ntf    fn4 7418   3.177   2.933   0.398 -0.0986 -0.5832 -0.1639
 1107ntf    on5 7419   3.454   3.022   0.322  0.0028  0.0752 -0.5788
 1107ntf    on5 7420   3.306   2.956   0.136 -0.5473 -0.1991  0.2313
 1107ntf    on5 7421   3.355   3.396   0.020  0.0106 -0.1152 -0.1320
 1107ntf    on5 7422   3.293   3.172  -0.063 -0.4243  0.2968 -0.1271
 1107ntf    fn4 7423   3.059   3.189   0.064 -0.3934  0.7690  0.1219
 1107ntf    fn4 7424   3.079   3.385  -0.012  0.1706  0.8885  0.2531
 1107ntf    fn4 7425   3.106   3.357   0.196  0.4484  0.2763  0.1230
 1108ntf    cn1 7426   4.783   3.704   2.440  0.1854 -0.1944 -0.7418
 1108ntf    sn2 7427   4.953   3.661   2.487  0.0674  0.4855  0.3532
 1108ntf    nn3 7428   4.935   3.533   2.576 -0.1066  0.0988 -0.2320
 1108ntf    sn2 7429   4.847   3.511   2.704 -0.1151  0.3236 -0.1998
 1108ntf    cn1 7430   4.761   3.364   2.642 -0.0066  0.0357  0.3267
 1108ntf    fn4 7431   4.723   3.762   2.543 -0.2657 -1.3955 -0.3165
 1108ntf    fn4 7432   4.772   3.784   2.335  0.1436  0.0939 -0.5216
 1108ntf    fn4 7433   4.716   3.597   2.402 -0.1286 -0.2465 -0.0624
 1108ntf    on5 7434   5.020   3.634   2.362 -0.2110  0.1276  0.2765
 1108ntf    on5 7435   5.008   3.765   2.570 -0.6726  0.2522  1.1583
 1108ntf    on5 7436   4.918   3.460   2.819 -0.2406  0.2489 -0.1558
 1108ntf    on5 7437   4.739   3.604   2.726 -0.3149  0.0906 -0.1862
 1108ntf    fn4 7438   4.687   3.390   2.536 -0.3316  0.3411  0.6274
 1108ntf    fn4 7439   4.684   3.305   2.732  0.0942  0.5768  0.7743
 1108ntf    fn4 7440   4.848   3.274   2.599 -0.4348 -0.2371  0.0176
 1109ntf    cn1 7441   1.032   2.434   5.147  0.0181 -0.7670  0.2105
 1109ntf    sn2 7442   1.011   2.316   5.284  0.0864 -0.3794  0.5534
 1109ntf    nn3 7443   0.857   2.295   5.262 -0.0084  0.0115  0.8347
 1109ntf    sn2 7444   0.764   2.170   5.277 -0.2250  0.0687 -0.0213
 1109ntf    cn1 7445   0.644   2.258   5.381 -0.2115 -0.2811  0.2916
 1109ntf    fn4 7446   0.943   2.532   5.144 -0.3785 -1.1287 -0.0096
 1109ntf    fn4 7447   1.153   2.486   5.136 -0.0502 -0.6056  0.2299
 1109ntf    fn4 7448   1.018   2.376   5.029  0.7258 -0.2909 -0.1095
 1109ntf    on5 7449   1.099   2.208   5.247 -0.0037 -0.1991 -0.2063
 1109ntf    on5 7450   1.038   2.405   5.395 -0.0212  0.3256  0.0198
 1109ntf    on5 7451   0.684   2.138   5.161 -0.5464  0.0494  0.2043
 1109ntf    on5 7452   0.799   2.063   5.367  0.0413  0.0624 -0.1300
 1109ntf    fn4 7453   0.540   2.183   5.412 -0.3992 -0.2477 -0.2609
 1109ntf    fn4 7454   0.596   2.362   5.315  0.3773 -0.3538 -0.2654
 1109ntf    fn4 7455   0.696   2.310   5.491  0.1641 -0.1351  0.0483
 1110ntf    cn1 7456   3.296   5.406   3.953  0.1601  0.2699  0.1862
 1110ntf    sn2 7457   3.290   5.305   3.802  0.0890 -0.0247  0.3845
 1110ntf    nn3 7458   3.183   5.200   3.849 -0.1014 -0.0244 -0.0483
 1110ntf    sn2 7459   3.033   5.194   3.803 -0.1893 -0.0831  0.2480
 1110ntf    cn1 7460   3.040   5.017   3.763 -0.6841 -0.0561  0.0309
 1110ntf    fn4 7461   3.176   5.457   3.979  0.3662  0.7040  0.2920
 1110ntf    fn4 7462   3.331   5.336   4.060 -0.0778 -0.5269 -0.2507
 1110ntf    fn4 7463   3.378   5.510   3.949  0.0548  0.3291 -0.4239
 1110ntf    on5 7464   3.250   5.397   3.698  0.2959 -0.0112  0.3181
 1110ntf    on5 7465   3.415   5.236   3.787  0.0316 -0.0351 -0.0678
 1110ntf    on5 7466   2.930   5.207   3.904  0.2682  0.3915  0.6604
 1110ntf    on5 7467   3.006   5.237   3.668 -0.2772 -0.5609  0.1121
 1110ntf    fn4 7468   3.122   4.947   3.840 -0.1733  0.6810  0.1655
 1110ntf    fn4 7469   3.086   4.991   3.641 -0.3604 -0.1170  0.1660
 1110ntf    fn4 7470   2.919   4.964   3.765 -0.4946 -0.5008  0.0009
 1111ntf    cn1 7471   5.119   0.680   3.829 -0.2848 -0.4760 -0.0936
 1111ntf    sn2 7472   5.136   0.596   3.990  0.0271 -0.4867 -0.1318
 1111ntf    nn3 7473   5.230   0.475   3.956  0.0405 -0.1986 -1.1534
 1111ntf    sn2 7474   5.195   0.324   3.933 -0.2726 -0.3643  0.3432
 1111ntf    cn1 7475   5.246   0.268   4.099 -0.0244 -0.2434  0.3098
 1111ntf    fn4 7476   5.235   0.734   3.796 -0.4764 -0.1636 -0.2593
 1111ntf    fn4 7477   5.078   0.605   3.728 -0.1415  0.4645 -0.8668
 1111ntf    fn4 7478   5.039   0.786   3.828 -0.1558 -0.3788 -0.0908
 1111ntf    on5 7479   5.215   0.684   4.072 -0.6874  0.1351 -0.0948
 1111ntf    on5 7480   5.002   0.571   4.038  0.1912  0.1694  0.6908
 1111ntf    on5 7481   5.056   0.287   3.925 -0.3713  0.0812  0.0115
 1111ntf    on5 7482   5.280   0.244   3.848 -0.1118  0.1425  0.0243
 1111ntf    fn4 7483   5.196   0.148   4.126 -0.0881 -0.3610 -0.3005
 1111ntf    fn4 7484   5.190   0.349   4.187 -0.0821 -0.3162  0.3397
 1111ntf    fn4 7485   5.376   0.273   4.125 -0.0987 -0.1767  0.6732
 1112ntf    cn1 7486   1.488   3.796   2.357 -0.1985 -0.7891  0.3854
 1112ntf    sn2 7487   1.317   3.776   2.416 -0.3778  0.0526  0.1686
 1112ntf    nn3 7488   1.299   3.620   2.418  0.0130  0.0081  0.2531
 1112ntf    sn2 7489   1.248   3.519   2.309 -0.0249  0.3840 -0.0777
 1112ntf    cn1 7490   1.077   3.516   2.370  0.1802  0.3035  0.4990
 1112ntf    fn4 7491   1.582   3.746   2.435 -0.1313 -0.6003  0.4271
 1112ntf    fn4 7492   1.514   3.759   2.232 -0.2137  0.3427  0.0320
 1112ntf    fn4 7493   1.524   3.923   2.363 -0.2883 -0.7580  0.2850
 1112ntf    on5 7494   1.319   3.825   2.551  0.4232 -0.1430  0.2310
 1112ntf    on5 7495   1.233   3.840   2.317  0.1724  0.8773  0.2257
 1112ntf    on5 7496   1.244   3.554   2.169  1.1646 -0.0680 -0.2360
 1112ntf    on5 7497   1.304   3.389   2.332  0.3514  0.4415 -0.6328
 1112ntf    fn4 7498   1.020   3.632   2.398 -0.5583 -0.0395  0.4416
 1112ntf    fn4 7499   1.078   3.444   2.481  0.3147  0.5689  0.6709
 1112ntf    fn4 7500   1.001   3.458   2.279  0.0061  0.3107  0.6396
 1113ntf    cn1 7501   2.098   6.006   1.277 -0.3496  0.0124 -0.2024
 1113ntf    sn2 7502   2.012   5.847   1.262 -0.2127 -0.0614 -0.1992
 1113ntf    nn3 7503   2.125   5.752   1.317 -0.1006  0.3173  0.2326
 1113ntf    sn2 7504   2.103   5.617   1.394 -0.1070  0.2879  0.1798
 1113ntf    cn1 7505   2.235   5.527   1.306 -0.1764 -0.1551  0.5242
 1113ntf    fn4 7506   2.217   6.008   1.221 -0.4759  0.1385 -0.4715
 1113ntf    fn4 7507   2.033   6.101   1.211 -0.2252  0.2409  0.0016
 1113ntf    fn4 7508   2.119   6.037   1.404 -0.2209  0.4234 -0.3229
 1113ntf    on5 7509   1.905   5.867   1.357 -0.0450 -0.6341  0.1236
 1113ntf    on5 7510   1.979   5.827   1.123 -0.1761 -0.1418 -0.1967
 1113ntf    on5 7511   2.144   5.624   1.532  0.0958 -0.3669  0.1577
 1113ntf    on5 7512   1.989   5.536   1.360  0.0439  0.2087 -0.1441
 1113ntf    fn4 7513   2.339   5.603   1.277 -0.3770 -0.1056 -0.0697
 1113ntf    fn4 7514   2.196   5.478   1.190  0.2177 -0.4396  0.5105
 1113ntf    fn4 7515   2.287   5.426   1.373  0.1388  0.0002  0.5171
 1114ntf    cn1 7516   2.678   6.055   3.788 -0.5341 -0.0061  0.3421
 1114ntf    sn2 7517   2.738   6.024   3.957  0.0445 -0.3497  0.0762
 1114ntf    nn3 7518   2.611   6.061   4.041 -0.0794  0.2296 -0.3597
 1114ntf    sn2 7519   2.605   6.114   4.188  0.5710  0.0333 -0.2615
 1114ntf    cn1 7520   2.608   6.295   4.168  0.0093  0.0879  0.1232
 1114ntf    fn4 7521   2.692   6.186   3.770 -0.5098 -0.1496 -0.7463
 1114ntf    fn4 7522   2.752   6.001   3.693  0.3378  0.1489  0.9227
 1114ntf    fn4 7523   2.549   6.027   3.776 -0.5101  0.0185  0.0232
 1114ntf    on5 7524   2.782   5.887   3.952 -1.3408 -0.8148  0.2954
 1114ntf    on5 7525   2.847   6.119   3.967 -0.3252  0.0782  0.0798
 1114ntf    on5 7526   2.484   6.081   4.259  0.9884 -0.0553  0.4225
 1114ntf    on5 7527   2.730   6.088   4.255  0.3029 -0.5667  0.0064
 1114ntf    fn4 7528   2.608   6.359   4.284 -0.2122 -0.2357  0.3054
 1114ntf    fn4 7529   2.506   6.343   4.099  0.4736 -0.5765 -1.0484
 1114ntf    fn4 7530   2.721   6.322   4.106 -0.3564  0.4282 -0.4054
 1115ntf    cn1 7531   6.132   3.656   2.325  0.3550 -0.2946  0.1721
 1115ntf    sn2 7532   5.971   3.591   2.375  0.3163 -0.0299  0.3949
 1115ntf    nn3 7533   5.885   3.720   2.354  0.1845 -0.1504  0.1838
 1115ntf    sn2 7534   5.929   3.868   2.384 -0.0404 -0.0184 -0.1271
 1115ntf    cn1 7535   5.765   3.925   2.436 -0.0258 -0.1333  0.0453
 1115ntf    fn4 7536   6.136   3.713   2.205 -0.4169 -0.0898  0.2391
 1115ntf    fn4 7537   6.181   3.736   2.418 -0.6705  0.5447  0.0098
 1115ntf    fn4 7538   6.221   3.559   2.309  0.6829  0.0842 -0.3512
 1115ntf    on5 7539   5.956   3.484   2.279 -0.1684  0.2862  0.1161
 1115ntf    on5 7540   5.986   3.559   2.515  0.4022 -0.2763  0.3295
 1115ntf    on5 7541   6.015   3.895   2.497  0.0912  0.4953 -0.3455
 1115ntf    on5 7542   5.956   3.945   2.265 -0.5330 -0.3196 -0.4347
 1115ntf    fn4 7543   5.720   3.880   2.552 -0.5378 -0.1314 -0.1476
 1115ntf    fn4 7544   5.672   3.893   2.348 -0.1235 -0.0195  0.1061
 1115ntf    fn4 7545   5.758   4.056   2.454  0.1352 -0.1129 -0.0423
 1116ntf    cn1 7546   1.711   4.229   5.319 -0.0662 -0.0818  0.0532
 1116ntf    sn2 7547   1.870   4.205   5.403 -0.1739  0.2223  0.3481
 1116ntf    nn3 7548   1.969   4.287   5.314 -0.0685 -0.5389 -0.2428
 1116ntf    sn2 7549   2.112   4.327   5.367 -0.3375  0.1105  0.0049
 1116ntf    cn1 7550   2.198   4.166   5.362 -0.4190  0.0807 -0.5728
 1116ntf    fn4 7551   1.703   4.190   5.193  0.0745  0.1628 -0.0325
 1116ntf    fn4 7552   1.609   4.170   5.378 -0.7347  0.4774 -0.5231
 1116ntf    fn4 7553   1.682   4.358   5.310 -0.1693 -0.1257 -0.2350
 1116ntf    on5 7554   1.840   4.254   5.536 -0.3754  0.4448  0.2195
 1116ntf    on5 7555   1.893   4.064   5.384 -0.1091  0.2103  0.5067
 1116ntf    on5 7556   2.189   4.400   5.269 -0.3650 -0.2122 -0.2632
 1116ntf    on5 7557   2.120   4.375   5.502  0.5187 -0.0058  0.0006
 1116ntf    fn4 7558   2.180   4.095   5.472  1.2402  0.0552 -0.2881
 1116ntf    fn4 7559   2.329   4.173   5.345 -0.2546 -0.2288  0.5033
 1116ntf    fn4 7560   2.159   4.090   5.262 -0.3278 -0.5553 -0.1269
 1117ntf    cn1 7561   0.064   0.151   0.548  0.9346  0.2300 -0.0505
 1117ntf    sn2 7562   0.053   0.078   0.382  0.2110 -0.1249  0.1489
 1117ntf    nn3 7563  -0.076  -0.012   0.387  0.4140 -0.4284  0.0020
 1117ntf    sn2 7564  -0.228   0.024   0.370  0.3800 -0.4488  0.2499
 1117ntf    cn1 7565  -0.301  -0.096   0.484  0.1102 -0.0037  0.5472
 1117ntf    fn4 7566   0.045   0.065   0.647 -0.2086  0.1882 -0.2980
 1117ntf    fn4 7567   0.174   0.220   0.575  0.7445  0.4800  0.0873
 1117ntf    fn4 7568  -0.034   0.238   0.566  0.1734 -0.6132 -0.0221
 1117ntf    on5 7569   0.040   0.190   0.292  0.4477 -0.1986  0.0212
 1117ntf    on5 7570   0.166  -0.012   0.371  0.1650 -0.1635 -0.0052
 1117ntf    on5 7571  -0.264   0.146   0.438  0.0598  0.1066 -0.8948
 1117ntf    on5 7572  -0.279  -0.007   0.239 -0.3547  0.4303  0.3237
 1117ntf    fn4 7573  -0.249  -0.092   0.606 -0.2538 -0.6664  0.7339
 1117ntf    fn4 7574  -0.289  -0.222   0.445 -0.4849  0.1179 -0.0449
 1117ntf    fn4 7575  -0.432  -0.083   0.498  0.0870  0.3937 -0.0129
 1118ntf    cn1 7576   4.532   2.436   5.912 -0.1141  0.1424 -0.0207
 1118ntf    sn2 7577   4.401   2.310   5.907 -0.1693  0.2033 -0.1120
 1118ntf    nn3 7578   4.271   2.378   5.961  0.0896  1.0447 -0.5401
 1118ntf    sn2 7579   4.131   2.409   5.896 -0.2093  0.3045 -0.2616
 1118ntf    cn1 7580   4.020   2.450   6.034 -0.1702  0.0413 -0.1515
 1118ntf    fn4 7581   4.517   2.525   5.815 -0.4541 -0.2123 -0.2994
 1118ntf    fn4 7582   4.528   2.505   6.025  0.2026 -0.3086  0.2702
 1118ntf    fn4 7583   4.650   2.378   5.899 -0.0781  0.1380  0.3127
 1118ntf    on5 7584   4.407   2.284   5.765  0.1908 -0.0652 -0.0511
 1118ntf    on5 7585   4.460   2.212   5.996  0.1009  0.1315 -0.3672
 1118ntf    on5 7586   4.136   2.535   5.825 -0.1863  0.4525  0.0008
 1118ntf    on5 7587   4.070   2.298   5.828 -0.3503  0.1159  0.1721
 1118ntf    fn4 7588   3.894   2.467   5.997 -0.2347  0.2124  0.1528
 1118ntf    fn4 7589   4.062   2.562   6.090 -0.7502  0.1244  0.1254
 1118ntf    fn4 7590   4.030   2.358   6.129 -0.8004  0.2688  0.1362
 1119ntf    cn1 7591   0.060   2.181   4.686  0.6122  0.5636  0.4228
 1119ntf    sn2 7592   0.162   2.069   4.586 -0.3807  0.3173 -0.3290
 1119ntf    nn3 7593   0.299   2.071   4.662 -0.2584 -0.3036 -0.5275
 1119ntf    sn2 7594   0.433   2.137   4.611 -0.1043 -0.1735  0.0379
 1119ntf    cn1 7595   0.515   2.005   4.518  0.1289 -0.0118  0.0149
 1119ntf    fn4 7596  -0.056   2.225   4.640 -0.0309 -0.9390  0.5647
 1119ntf    fn4 7597   0.028   2.113   4.795 -0.0214 -0.3960 -0.3512
 1119ntf    fn4 7598   0.113   2.297   4.722  0.2193  1.3260 -1.3261
 1119ntf    on5 7599   0.088   1.947   4.607  0.4037 -0.1149 -0.0451
 1119ntf    on5 7600   0.156   2.126   4.453  0.1661 -0.4605 -0.6902
 1119ntf    on5 7601   0.416   2.249   4.522  0.3137  0.0046  0.1815
 1119ntf    on5 7602   0.532   2.153   4.714 -0.2273  0.2563  0.0917
 1119ntf    fn4 7603   0.557   1.903   4.591 -0.4544  0.2028  0.6586
 1119ntf    fn4 7604   0.622   2.054   4.456 -0.0860  0.1014 -0.2694
 1119ntf    fn4 7605   0.425   1.966   4.429  0.0896  0.6345 -0.2356
 1120ntf    cn1 7606   1.411   6.016   1.882 -0.1609  0.3139 -0.1139
 1120ntf    sn2 7607   1.382   5.993   1.704  0.0490  0.1760 -0.1313
 1120ntf    nn3 7608   1.252   5.904   1.706  0.1313  0.0635  0.3937
 1120ntf    sn2 7609   1.102   5.951   1.712  0.0523 -0.1438  0.0896
 1120ntf    cn1 7610   1.039   5.949   1.542  0.4832 -0.6674 -0.0670
 1120ntf    fn4 7611   1.459   5.902   1.930 -0.3123  0.5555  0.6176
 1120ntf    fn4 7612   1.503   6.109   1.900  0.2719 -0.1868  0.3071
 1120ntf    fn4 7613   1.309   6.049   1.959 -0.5559 -0.0212 -0.4902
 1120ntf    on5 7614   1.384   6.124   1.645  0.9363  0.1790 -0.0983
 1120ntf    on5 7615   1.498   5.919   1.662  0.1037  0.2257 -0.0664
 1120ntf    on5 7616   1.026   5.847   1.776 -0.3009 -0.2410 -0.4907
 1120ntf    on5 7617   1.074   6.085   1.759  0.1369  0.0836 -0.5022
 1120ntf    fn4 7618   1.087   6.046   1.466 -0.6571  0.1574  0.2338
 1120ntf    fn4 7619   0.907   5.956   1.537  0.4697 -0.5689  0.4079
 1120ntf    fn4 7620   1.073   5.831   1.493  0.6543 -0.6495  0.0072
 1121ntf    cn1 7621   3.335   3.625   5.207  0.1345  0.3899  0.0622
 1121ntf    sn2 7622   3.336   3.682   5.380 -0.2456  0.2311  0.1175
 1121ntf    nn3 7623   3.188   3.640   5.408 -0.2491 -0.0700 -0.3484
 1121ntf    sn2 7624   3.103   3.613   5.537 -0.3863  0.5999 -0.2956
 1121ntf    cn1 7625   3.019   3.772   5.565 -0.4739  0.5046 -0.0133
 1121ntf    fn4 7626   3.236   3.671   5.133  0.5941 -0.3340 -1.0306
 1121ntf    fn4 7627   3.448   3.669   5.153  0.4308 -0.3102  0.0955
 1121ntf    fn4 7628   3.334   3.495   5.184  0.1358  0.3915  0.0531
 1121ntf    on5 7629   3.429   3.598   5.452 -0.3125 -0.2309 -0.3292
 1121ntf    on5 7630   3.360   3.823   5.369  0.7345  0.0431 -0.2802
 1121ntf    on5 7631   2.994   3.521   5.513  0.1998 -0.1919  0.0079
 1121ntf    on5 7632   3.170   3.579   5.660 -0.1716  0.7880 -0.3607
 1121ntf    fn4 7633   2.984   3.821   5.447  0.0430  0.0909 -0.3437
 1121ntf    fn4 7634   3.104   3.861   5.611 -0.0776 -0.1362  0.5017
 1121ntf    fn4 7635   2.910   3.767   5.641 -0.3243  0.1783  0.1816
 1122ntf    cn1 7636   5.315   1.878   2.520  0.5555 -0.2235  0.0008
 1122ntf    sn2 7637   5.490   1.857   2.563  0.5264  0.1517  0.3070
 1122ntf    nn3 7638   5.548   1.940   2.442 -0.0952 -0.2943 -0.3040
 1122ntf    sn2 7639   5.618   2.079   2.420  0.0385 -0.3360 -0.1394
 1122ntf    cn1 7640   5.786   2.034   2.366  0.0795 -0.0342 -0.2617
 1122ntf    fn4 7641   5.285   2.005   2.498 -0.1940 -0.4572 -0.3781
 1122ntf    fn4 7642   5.279   1.808   2.414  0.2927 -0.4776  0.2563
 1122ntf    fn4 7643   5.245   1.822   2.618  0.4303  0.4890  0.3255
 1122ntf    on5 7644   5.498   1.920   2.693  0.0015  0.7303  0.0634
 1122ntf    on5 7645   5.494   1.714   2.548  0.0071  0.1147  0.5287
 1122ntf    on5 7646   5.571   2.147   2.302  0.1086  0.5459  0.3331
 1122ntf    on5 7647   5.633   2.163   2.537 -0.3976 -0.5937  0.1054
 1122ntf    fn4 7648   5.858   1.970   2.456 -0.3269 -0.2017 -0.0553
 1122ntf    fn4 7649   5.849   2.142   2.322  0.2394 -0.3172 -0.7353
 1122ntf    fn4 7650   5.787   1.960   2.256  0.2310 -0.4454  0.0136
 1123ntf    cn1 7651   0.041   1.624   3.301  0.2302 -0.1801 -0.3446
 1123ntf    sn2 7652   0.105   1.529   3.160  0.2331 -0.2959 -0.2655
 1123ntf    nn3 7653   0.013   1.588   3.047 -0.4601  0.3202  0.6189
 1123ntf    sn2 7654   0.001   1.728   2.976 -0.1431  0.1159  0.1655
 1123ntf    cn1 7655   0.082   1.691   2.817 -0.1031  0.0394  0.2038
 1123ntf    fn4 7656   0.056   1.755   3.297  0.4779 -0.1809  0.5758
 1123ntf    fn4 7657  -0.089   1.610   3.323  0.3029 -0.2240  0.0499
 1123ntf    fn4 7658   0.096   1.591   3.416 -0.0182 -0.4268 -0.2945
 1123ntf    on5 7659   0.247   1.552   3.144  0.2191 -0.1444 -0.1725
 1123ntf    on5 7660   0.073   1.393   3.195  0.4288 -0.1936  0.3145
 1123ntf    on5 7661  -0.136   1.760   2.946 -0.2692 -0.6204 -0.0701
 1123ntf    on5 7662   0.075   1.832   3.042  0.2969 -0.0488 -0.0618
 1123ntf    fn4 7663   0.213   1.689   2.835 -0.0287  0.3500 -0.2996
 1123ntf    fn4 7664   0.057   1.782   2.725 -0.3888  0.0083  0.2497
 1123ntf    fn4 7665   0.038   1.575   2.770 -0.0481  0.2263 -0.3145
 1124ntf    cn1 7666   0.918   6.563   2.492  0.0081 -0.2012 -0.0676
 1124ntf    sn2 7667   0.856   6.678   2.365 -0.1416 -0.0998  0.0970
 1124ntf    nn3 7668   0.988   6.736   2.305 -0.3315  0.2582  0.0258
 1124ntf    sn2 7669   1.031   6.748   2.154 -0.4085 -0.2986 -0.0429
 1124ntf    cn1 7670   0.934   6.895   2.108  0.1214 -0.0601 -0.4046
 1124ntf    fn4 7671   0.817   6.506   2.556 -0.0010  0.1926  0.2776
 1124ntf    fn4 7672   1.001   6.470   2.448 -0.3034 -0.4407 -0.1486
 1124ntf    fn4 7673   0.980   6.630   2.587  0.1431  0.1887 -0.4262
 1124ntf    on5 7674   0.783   6.588   2.278  0.0720  0.0733 -0.2644
 1124ntf    on5 7675   0.780   6.774   2.441 -0.1372  0.0598 -0.1009
 1124ntf    on5 7676   1.169   6.787   2.137 -0.6284  0.2735 -0.5833
 1124ntf    on5 7677   0.972   6.663   2.053 -0.5047 -0.2780 -0.0043
 1124ntf    fn4 7678   0.967   6.997   2.187 -0.1181  0.1201 -0.5369
 1124ntf    fn4 7679   0.807   6.864   2.128  0.3700 -0.5040  0.5695
 1124ntf    fn4 7680   0.951   6.938   1.984  0.2705  0.3671 -0.2409
 1125ntf    cn1 7681   0.121   2.829   5.790 -0.1461 -0.2654 -0.1919
 1125ntf    sn2 7682   0.022   2.798   5.939  0.2395  0.3914  0.2036
 1125ntf    nn3 7683  -0.075   2.686   5.889  0.0003  0.2508  0.9667
 1125ntf    sn2 7684  -0.231   2.698   5.870  0.0622  0.0051  0.2606
 1125ntf    cn1 7685  -0.278   2.572   5.992  0.0483  0.0345  0.2863
 1125ntf    fn4 7686   0.186   2.726   5.736 -0.4008 -0.5092 -0.0362
 1125ntf    fn4 7687   0.045   2.879   5.694  0.1580  0.2526 -0.1615
 1125ntf    fn4 7688   0.217   2.918   5.809  0.4277 -0.7490 -0.7888
 1125ntf    on5 7689   0.123   2.750   6.031 -0.3136  0.0835  0.6585
 1125ntf    on5 7690  -0.037   2.926   5.969  0.1443  0.3478  0.2033
 1125ntf    on5 7691  -0.300   2.810   5.930  0.4429 -0.1886  1.0809
 1125ntf    on5 7692  -0.275   2.645   5.744 -0.0200  0.6423  0.0169
 1125ntf    fn4 7693  -0.250   2.613   6.115 -0.2524  0.1045  0.3316
 1125ntf    fn4 7694  -0.214   2.459   5.969 -0.0188  0.0247  0.1490
 1125ntf    fn4 7695  -0.407   2.541   5.990  0.2079 -0.6442  0.2975
 1126ntf    cn1 7696   2.471   1.472   3.762  0.0984  0.4859 -0.0394
 1126ntf    sn2 7697   2.522   1.643   3.797  0.2698  0.4255  0.0048
 1126ntf    nn3 7698   2.391   1.717   3.752  0.1891  0.2144 -0.1110
 1126ntf    sn2 7699   2.276   1.770   3.845  0.1107 -0.0533 -0.0549
 1126ntf    cn1 7700   2.312   1.944   3.885  0.0706 -0.0027 -0.2394
 1126ntf    fn4 7701   2.396   1.417   3.856  0.1198  0.3501 -0.1022
 1126ntf    fn4 7702   2.411   1.460   3.645 -0.4021  0.0527  0.2547
 1126ntf    fn4 7703   2.575   1.392   3.752  0.1325  0.5259 -0.0028
 1126ntf    on5 7704   2.559   1.638   3.936 -0.2769 -0.6418  0.1139
 1126ntf    on5 7705   2.629   1.662   3.701  0.3379 -0.4552 -0.0995
 1126ntf    on5 7706   2.151   1.778   3.773 -0.1017  0.6541  0.3850
 1126ntf    on5 7707   2.276   1.713   3.977 -0.6085 -0.2409 -0.1325
 1126ntf    fn4 7708   2.241   1.991   3.986  0.2021  0.2767 -0.2763
 1126ntf    fn4 7709   2.288   2.021   3.780 -0.1711 -0.4172 -0.4955
 1126ntf    fn4 7710   2.440   1.969   3.907  0.0276  0.3735 -0.4096
 1127ntf    cn1 7711   0.907   3.528   4.757 -0.5142  0.0847  0.1764
 1127ntf    sn2 7712   0.735   3.514   4.702 -0.3905 -0.2499 -0.1259
 1127ntf    nn3 7713   0.698   3.362   4.719  0.0199 -0.2602  0.7123
 1127ntf    sn2 7714   0.688   3.244   4.616  0.2132 -0.0285  0.4289
 1127ntf    cn1 7715   0.511   3.225   4.580  0.1763  0.2106  0.4759
 1127ntf    fn4 7716   0.980   3.438   4.694 -0.3784  0.5623 -0.3510
 1127ntf    fn4 7717   0.965   3.644   4.730  0.3946 -0.5627 -0.7010
 1127ntf    fn4 7718   0.926   3.519   4.888  0.4736 -0.4275  0.0104
 1127ntf    on5 7719   0.659   3.596   4.793 -0.1499 -0.0858 -0.0727
 1127ntf    on5 7720   0.754   3.560   4.567  0.6204  1.0248  0.4356
 1127ntf    on5 7721   0.755   3.261   4.489  0.1994  0.4245  0.4796
 1127ntf    on5 7722   0.718   3.124   4.689  0.3632 -0.1966  0.0918
 1127ntf    fn4 7723   0.496   3.124   4.495  0.6119  0.3875  0.1849
 1127ntf    fn4 7724   0.453   3.330   4.524 -0.1299 -0.2369 -0.0593
 1127ntf    fn4 7725   0.443   3.192   4.688 -0.0402 -0.7535  0.0628
 1128ntf    cn1 7726   2.904   1.427   1.722  0.0847 -0.0203  0.0673
 1128ntf    sn2 7727   2.776   1.519   1.812 -0.1277 -0.4998  0.2611
 1128ntf    nn3 7728   2.873   1.612   1.894 -0.2552  0.0023 -0.1526
 1128ntf    sn2 7729   2.884   1.651   2.045 -0.1465  0.1163 -0.1894
 1128ntf    cn1 7730   3.036   1.750   2.039 -0.2467  0.2835 -0.0042
 1128ntf    fn4 7731   2.996   1.505   1.668  0.0053  0.7200  0.9713
 1128ntf    fn4 7732   2.972   1.349   1.804  0.1797  0.0740  0.0775
 1128ntf    fn4 7733   2.854   1.354   1.623  0.3176  0.2836 -0.2772
 1128ntf    on5 7734   2.698   1.583   1.710 -0.7589 -0.1428  0.9562
 1128ntf    on5 7735   2.713   1.416   1.891  0.3022 -1.1643 -0.2506
 1128ntf    on5 7736   2.779   1.741   2.087 -0.2484 -0.0251 -0.1380
 1128ntf    on5 7737   2.914   1.539   2.130  0.0462  0.3943  0.1107
 1128ntf    fn4 7738   3.148   1.680   2.024 -0.1227  0.4192  0.2864
 1128ntf    fn4 7739   3.057   1.812   2.154  0.3742  0.6738 -0.3226
 1128ntf    fn4 7740   3.024   1.843   1.945 -0.1359 -0.3061 -0.6139
 1129ntf    cn1 7741   2.234   5.960   5.670 -0.5566  0.4855  0.1194
 1129ntf    sn2 7742   2.168   5.805   5.738 -0.1529 -0.0510 -0.6990
 1129ntf    nn3 7743   2.277   5.701   5.691 -0.0998 -0.3641  0.1095
 1129ntf    sn2 7744   2.285   5.591   5.580 -0.2588 -0.5529  0.2852
 1129ntf    cn1 7745   2.459   5.541   5.565 -0.0198  0.3384  0.0711
 1129ntf    fn4 7746   2.353   5.995   5.717 -0.4417  0.2442  0.0147
 1129ntf    fn4 7747   2.244   5.958   5.538  0.1349  0.2339  0.1695
 1129ntf    fn4 7748   2.150   6.059   5.696 -0.6440  0.3997  0.1636
 1129ntf    on5 7749   2.183   5.825   5.880 -0.1833  0.4327 -0.7621
 1129ntf    on5 7750   2.036   5.791   5.683 -0.4873 -0.2322  0.1443
 1129ntf    on5 7751   2.223   5.469   5.626 -0.3729 -0.3254  0.7403
 1129ntf    on5 7752   2.244   5.638   5.451  0.4417 -0.8306 -0.0443
 1129ntf    fn4 7753   2.514   5.591   5.455  0.1219  0.1514  0.0568
 1129ntf    fn4 7754   2.479   5.410   5.568  0.3835  0.4023  0.2049
 1129ntf    fn4 7755   2.521   5.598   5.667 -0.6067  0.6105  0.2774
 1130ntf    cn1 7756   6.653   0.674   3.103 -0.1594  0.1410  0.1581
 1130ntf    sn2 7757   6.637   0.682   3.284  0.2738  0.0337  0.2021
 1130ntf    nn3 7758   6.708   0.543   3.300  0.4637  0.0788 -0.2311
 1130ntf    sn2 7759   6.641   0.403   3.323  0.0853  0.2602 -0.2219
 1130ntf    cn1 7760   6.613   0.415   3.502  0.0332 -0.8392 -0.1502
 1130ntf    fn4 7761   6.591   0.571   3.049  0.1634  0.0967 -0.1343
 1130ntf    fn4 7762   6.599   0.782   3.049 -0.2848 -0.2298 -0.4660
 1130ntf    fn4 7763   6.781   0.661   3.073  0.0057 -0.1728  0.9646
 1130ntf    on5 7764   6.732   0.784   3.322  0.2080  0.1052  0.1743
 1130ntf    on5 7765   6.500   0.688   3.328  0.2672 -0.4946  0.2566
 1130ntf    on5 7766   6.512   0.381   3.263  0.0834  0.0143 -0.1290
 1130ntf    on5 7767   6.728   0.288   3.311 -0.2998 -0.0545 -0.0348
 1130ntf    fn4 7768   6.618   0.300   3.567 -0.8776 -0.5882  0.3814
 1130ntf    fn4 7769   6.499   0.471   3.538  0.7314  0.5149  0.0226
 1130ntf    fn4 7770   6.710   0.492   3.548 -0.0964 -0.6800 -0.1414
 1131ntf    cn1 7771   3.575   0.660   5.575  0.4963 -0.0035 -0.1223
 1131ntf    sn2 7772   3.637   0.525   5.471 -0.0902 -0.2412 -0.1698
 1131ntf    nn3 7773   3.793   0.547   5.480 -0.1564  0.0680  0.2556
 1131ntf    sn2 7774   3.877   0.639   5.384 -0.2784  0.0428  0.1248
 1131ntf    cn1 7775   4.023   0.669   5.487 -0.0967 -0.0008 -0.1206
 1131ntf    fn4 7776   3.585   0.637   5.705 -0.1824 -0.0302 -0.0675
 1131ntf    fn4 7777   3.655   0.763   5.556  0.1318  0.3246  0.0992
 1131ntf    fn4 7778   3.450   0.700   5.558  0.2393 -0.5956  0.3320
 1131ntf    on5 7779   3.600   0.405   5.542 -0.2233 -0.1249 -0.0433
 1131ntf    on5 7780   3.576   0.554   5.344  0.3046  0.3522 -0.2306
 1131ntf    on5 7781   3.932   0.570   5.270  0.2756 -0.4969  0.7130
 1131ntf    on5 7782   3.826   0.773   5.369 -0.0692  0.0855 -0.2152
 1131ntf    fn4 7783   4.089   0.555   5.499  0.3090  0.2494  0.0459
 1131ntf    fn4 7784   3.995   0.705   5.611  0.7096 -0.2769  0.1519
 1131ntf    fn4 7785   4.108   0.763   5.447  0.1616 -0.0271  0.3583
 1132ntf    cn1 7786   4.599   0.788   1.422 -0.1324 -0.4623  0.4723
 1132ntf    sn2 7787   4.421   0.824   1.434 -0.0888 -0.0136 -0.1171
 1132ntf    nn3 7788   4.390   0.836   1.588 -0.2096  0.4593 -0.1776
 1132ntf    sn2 7789   4.250   0.836   1.659 -0.3226 -0.4549 -0.3858
 1132ntf    cn1 7790   4.210   1.013   1.652 -0.4649 -0.4681  0.0623
 1132ntf    fn4 7791   4.676   0.895   1.440  0.4389 -0.6878 -0.5514
 1132ntf    fn4 7792   4.635   0.700   1.513 -0.5627 -0.9955  0.1296
 1132ntf    fn4 7793   4.645   0.729   1.313  0.5006 -0.0898  0.5296
 1132ntf    on5 7794   4.412   0.949   1.363  0.2288  0.1539  0.1368
 1132ntf    on5 7795   4.378   0.705   1.365 -0.2693  0.0314 -0.0829
 1132ntf    on5 7796   4.140   0.774   1.591 -0.8272  0.2368 -0.2077
 1132ntf    on5 7797   4.252   0.813   1.802 -0.5894 -0.3825 -0.3707
 1132ntf    fn4 7798   4.210   1.057   1.527 -0.1691 -0.1345  0.1796
 1132ntf    fn4 7799   4.289   1.094   1.720 -0.6896 -0.2829  0.1055
 1132ntf    fn4 7800   4.091   1.047   1.699 -0.3840  0.0886 -0.1322
 1133ntf    cn1 7801   1.791   1.916   4.512 -0.0441  0.4707  0.2316
 1133ntf    sn2 7802   1.850   2.066   4.427  0.0335  0.2773 -0.0551
 1133ntf    nn3 7803   2.001   2.026   4.416  0.0168  0.1836  0.0546
 1133ntf    sn2 7804   2.090   1.979   4.296 -0.0572 -0.0850  0.1049
 1133ntf    cn1 7805   2.211   1.880   4.389  0.4600  0.4740  0.0300
 1133ntf    fn4 7806   1.846   1.809   4.458  0.4241  0.4612  0.7256
 1133ntf    fn4 7807   1.825   1.917   4.640 -0.2316  0.0623  0.2844
 1133ntf    fn4 7808   1.660   1.903   4.501  0.0105  0.4140 -0.3778
 1133ntf    on5 7809   1.776   2.057   4.303 -0.1000  0.6540 -0.0035
 1133ntf    on5 7810   1.813   2.164   4.526 -0.4185 -0.3018  0.3583
 1133ntf    on5 7811   2.023   1.885   4.209  0.3528 -0.1224 -0.1759
 1133ntf    on5 7812   2.177   2.084   4.251  0.7422 -0.2430  1.2520
 1133ntf    fn4 7813   2.330   1.879   4.331  0.1976  0.3649 -0.5183
 1133ntf    fn4 7814   2.160   1.760   4.412 -0.0969  0.7236  0.1059
 1133ntf    fn4 7815   2.216   1.933   4.510  0.0376  0.4376  0.0655
 1134ntf    cn1 7816   2.991   1.408   4.534  0.0402  0.1459 -0.2869
 1134ntf    sn2 7817   2.838   1.460   4.618 -0.0361 -0.2459 -0.1807
 1134ntf    nn3 7818   2.817   1.323   4.692 -0.0818 -0.3600 -0.4042
 1134ntf    sn2 7819   2.853   1.284   4.840 -0.2170  0.3846 -0.1726
 1134ntf    cn1 7820   2.760   1.398   4.947 -0.1595 -0.0410  0.3364
 1134ntf    fn4 7821   3.053   1.521   4.506  0.1955  0.1359  0.0160
 1134ntf    fn4 7822   3.066   1.330   4.611 -0.0778  0.3908  0.0824
 1134ntf    fn4 7823   2.968   1.338   4.424 -0.0575 -0.5035  0.1411
 1134ntf    on5 7824   2.867   1.573   4.702  0.0007 -0.4791  0.1261
 1134ntf    on5 7825   2.746   1.481   4.510 -0.2413 -0.1066  0.0202
 1134ntf    on5 7826   2.791   1.158   4.875 -0.0122  0.1144 -0.7701
 1134ntf    on5 7827   2.990   1.294   4.886 -0.4612 -0.0506  0.6724
 1134ntf    fn4 7828   2.763   1.357   5.072  0.2770 -0.9176  0.0499
 1134ntf    fn4 7829   2.633   1.419   4.913 -0.0025  0.2683 -0.0644
 1134ntf    fn4 7830   2.821   1.514   4.960  0.1124 -0.1741  0.2647
 1135ntf    cn1 7831   0.810   5.012   3.732  0.1177 -0.1011  0.6128
 1135ntf    sn2 7832   0.763   4.840   3.769  0.4593 -0.3467 -0.0794
 1135ntf    nn3 7833   0.610   4.850   3.801  0.4560  0.0408 -0.2095
 1135ntf    sn2 7834   0.485   4.836   3.705  0.2848  0.0117  0.0169
 1135ntf    cn1 7835   0.456   4.658   3.720 -0.3504  0.0888 -0.3044
 1135ntf    fn4 7836   0.790   5.089   3.838  0.5341  0.1063  0.5404
 1135ntf    fn4 7837   0.937   5.025   3.698 -0.1514  0.3533 -0.2491
 1135ntf    fn4 7838   0.738   5.064   3.634  0.6005 -0.5816  0.0005
 1135ntf    on5 7839   0.788   4.755   3.655  0.0905 -0.5036 -0.0431
 1135ntf    on5 7840   0.840   4.815   3.889  0.1388  0.0025  0.2014
 1135ntf    on5 7841   0.365   4.891   3.762  0.4136  0.5312 -0.2036
 1135ntf    on5 7842   0.513   4.859   3.566  0.0442  0.5657  0.0569
 1135ntf    fn4 7843   0.343   4.623   3.659 -0.6553 -0.8851  0.7693
 1135ntf    fn4 7844   0.443   4.616   3.844 -0.4870 -0.7852 -0.6046
 1135ntf    fn4 7845   0.543   4.576   3.663  0.2374  0.3062  0.2772
 1136ntf    cn1 7846   2.263   2.659   4.036 -0.0092 -0.3039 -0.0974
 1136ntf    sn2 7847   2.439   2.704   4.041 -0.0959  0.0146  0.1439
 1136ntf    nn3 7848   2.513   2.572   3.999 -0.3524  0.0913 -0.5590
 1136ntf    sn2 7849   2.613   2.545   3.881 -0.1967  0.1251 -0.4347
 1136ntf    cn1 7850   2.763   2.563   3.982 -0.2645  0.1052 -0.3303
 1136ntf    fn4 7851   2.244   2.541   4.093  0.0998 -0.0861  0.4009
 1136ntf    fn4 7852   2.184   2.735   4.110  0.0221 -0.9197  0.5801
 1136ntf    fn4 7853   2.218   2.667   3.912 -0.6100  0.3455  0.1553
 1136ntf    on5 7854   2.456   2.819   3.957 -0.0730  0.0017  0.1313
 1136ntf    on5 7855   2.457   2.721   4.183 -0.6845 -0.1355  0.2367
 1136ntf    on5 7856   2.607   2.409   3.833 -0.2634 -0.0878  0.1645
 1136ntf    on5 7857   2.629   2.648   3.781 -0.1611  1.0463  0.4954
 1136ntf    fn4 7858   2.864   2.535   3.901  0.2106  0.6303  0.0679
 1136ntf    fn4 7859   2.762   2.475   4.081  0.0533 -0.2760 -0.6626
 1136ntf    fn4 7860   2.782   2.682   4.036  0.5122 -0.1732  0.0321
 1137ntf    cn1 7861   5.546   4.935   5.460  0.0245 -0.0039 -0.1621
 1137ntf    sn2 7862   5.378   5.003   5.475  0.1056  0.1629 -0.0040
 1137ntf    nn3 7863   5.413   5.156   5.472  0.2111  0.1372 -0.1384
 1137ntf    sn2 7864   5.316   5.274   5.433 -0.2502 -0.1603  0.0914
 1137ntf    cn1 7865   5.372   5.393   5.559 -0.0354 -0.0635 -0.0939
 1137ntf    fn4 7866   5.627   5.009   5.534  0.1621 -0.4121  0.1010
 1137ntf    fn4 7867   5.558   4.814   5.514  0.3195  0.2908  0.4406
 1137ntf    fn4 7868   5.589   4.931   5.335  0.1820 -0.0282 -0.1070
 1137ntf    on5 7869   5.312   4.940   5.363  0.3771 -0.1150 -0.0090
 1137ntf    on5 7870   5.336   4.966   5.608 -0.6381  0.8500 -0.0415
 1137ntf    on5 7871   5.342   5.334   5.305 -0.2308  0.0179  0.1788
 1137ntf    on5 7872   5.178   5.248   5.462 -0.4245  0.2134 -0.3927
 1137ntf    fn4 7873   5.336   5.343   5.676  0.6535 -0.0283  0.1370
 1137ntf    fn4 7874   5.333   5.518   5.544  0.3803  0.0613 -0.1450
 1137ntf    fn4 7875   5.504   5.392   5.557 -0.0349  0.3231 -0.2044
 1138ntf    cn1 7876   4.971   3.982   5.682  0.4083 -0.3700  0.6157
 1138ntf    sn2 7877   4.863   3.929   5.819  0.0119 -0.1858  0.3742
 1138ntf    nn3 7878   4.747   4.035   5.823  0.1246 -0.0398 -0.1162
 1138ntf    sn2 7879   4.597   4.020   5.780  0.0241 -0.1989  0.2828
 1138ntf    cn1 7880   4.527   4.173   5.849  0.2791  0.2783 -0.5007
 1138ntf    fn4 7881   5.067   3.896   5.653  0.1411 -0.5930  0.3845
 1138ntf    fn4 7882   4.904   4.001   5.570  0.8385 -0.6690  0.3065
 1138ntf    fn4 7883   5.032   4.094   5.716 -0.3878  0.0876  0.5644
 1138ntf    on5 7884   4.823   3.800   5.768  0.0061  0.0382 -0.1950
 1138ntf    on5 7885   4.935   3.937   5.943  0.2927 -0.5615  0.2385
 1138ntf    on5 7886   4.576   4.019   5.637 -0.1629  0.0876  0.3051
 1138ntf    on5 7887   4.522   3.923   5.855 -0.3997  0.1592  0.3293
 1138ntf    fn4 7888   4.405   4.152   5.897  0.4603  0.1009 -0.1139
 1138ntf    fn4 7889   4.538   4.271   5.761 -0.3216  0.6186 -0.2017
 1138ntf    fn4 7890   4.595   4.205   5.959  0.1393  0.2260 -0.3991
 1139ntf    cn1 7891   5.824   6.098   4.961 -0.1566  0.3086 -0.1470
 1139ntf    sn2 7892   5.994   6.162   4.946  0.0511 -0.2497 -0.2184
 1139ntf    nn3 7893   5.977   6.305   4.883 -1.0479 -0.4847 -0.4943
 1139ntf    sn2 7894   6.006   6.360   4.739  0.2275  0.0630 -0.0483
 1139ntf    cn1 7895   5.855   6.458   4.715 -0.0201 -0.4368 -0.5545
 1139ntf    fn4 7896   5.757   6.153   5.061  0.2896 -0.0128  0.3381
 1139ntf    fn4 7897   5.755   6.116   4.850 -0.0449 -0.3250 -0.3231
 1139ntf    fn4 7898   5.813   5.970   4.992 -0.3769  0.5084  0.6081
 1139ntf    on5 7899   6.047   6.164   5.079  1.0674  0.3414 -0.6207
 1139ntf    on5 7900   6.057   6.073   4.851  0.0021 -0.2849 -0.2182
 1139ntf    on5 7901   6.110   6.460   4.738 -0.2194  0.5256 -0.4526
 1139ntf    on5 7902   5.996   6.257   4.638 -0.3625 -0.0247  0.0952
 1139ntf    fn4 7903   5.839   6.506   4.593 -0.3543 -0.4523 -0.5193
 1139ntf    fn4 7904   5.853   6.556   4.804  0.0232 -0.5110 -0.4716
 1139ntf    fn4 7905   5.744   6.391   4.745 -0.3409  0.5204  0.4600
 1140ntf    cn1 7906   6.522   3.758   2.651 -0.4873 -0.4836 -0.1831
 1140ntf    sn2 7907   6.683   3.696   2.706 -0.2702  0.3505  0.1238
 1140ntf    nn3 7908   6.763   3.727   2.575 -0.0454  0.5182  0.2992
 1140ntf    sn2 7909   6.834   3.860   2.529  0.2693  0.3558  0.3093
 1140ntf    cn1 7910   6.772   3.873   2.359  0.4928 -0.1446  0.1893
 1140ntf    fn4 7911   6.427   3.742   2.742 -0.0822 -0.1128  0.3059
 1140ntf    fn4 7912   6.532   3.889   2.634 -0.4512 -0.3283  1.0103
 1140ntf    fn4 7913   6.474   3.710   2.537  0.0031  0.4894 -0.8076
 1140ntf    on5 7914   6.710   3.763   2.831 -0.0058 -0.1980  0.3650
 1140ntf    on5 7915   6.648   3.557   2.719  0.4824  0.1178 -0.2387
 1140ntf    on5 7916   6.797   3.984   2.594 -0.3886  0.2390  0.1649
 1140ntf    on5 7917   6.974   3.840   2.505  0.2126  0.6009 -0.2402
 1140ntf    fn4 7918   6.640   3.863   2.359  0.5192 -0.5477 -0.0445
 1140ntf    fn4 7919   6.820   3.781   2.276 -0.1626 -0.1169 -0.2299
 1140ntf    fn4 7920   6.798   3.990   2.304  0.2951 -0.2136 -0.0553
 1141ntf    cn1 7921   6.139   3.200   3.772  0.0560  0.5527 -0.0394
 1141ntf    sn2 7922   5.969   3.147   3.807  0.1317  0.2290 -0.1550
 1141ntf    nn3 7923   5.983   2.994   3.776 -0.2637  0.0049  0.7230
 1141ntf    sn2 7924   5.924   2.911   3.656  0.4397  0.2000  0.2324
 1141ntf    cn1 7925   5.931   2.749   3.738 -0.1137  0.0192 -0.0719
 1141ntf    fn4 7926   6.154   3.332   3.773 -0.2242  0.5950 -0.7441
 1141ntf    fn4 7927   6.209   3.149   3.872 -0.4864 -0.4168 -0.1450
 1141ntf    fn4 7928   6.181   3.152   3.656  0.1122  0.8969 -0.1628
 1141ntf    on5 7929   5.958   3.165   3.950  0.0153 -0.1231 -0.1188
 1141ntf    on5 7930   5.884   3.229   3.724 -0.5345 -0.3277 -0.0348
 1141ntf    on5 7931   5.783   2.934   3.635  0.0669 -1.3977  0.8117
 1141ntf    on5 7932   6.022   2.901   3.551  0.0665 -0.5444 -0.0533
 1141ntf    fn4 7933   6.059   2.716   3.746 -0.1008 -0.0050 -0.3606
 1141ntf    fn4 7934   5.865   2.654   3.674  0.4296 -0.2427 -0.2581
 1141ntf    fn4 7935   5.875   2.759   3.857 -0.2269 -0.2752 -0.0998
 1142ntf    cn1 7936   1.900   2.725   1.313 -0.2559 -0.0944  0.2668
 1142ntf    sn2 7937   1.797   2.597   1.235 -0.2017 -0.0154  0.0623
 1142ntf    nn3 7938   1.885   2.552   1.113  0.2227  0.3185  0.2418
 1142ntf    sn2 7939   2.001   2.447   1.110 -0.1164 -0.0485 -0.1908
 1142ntf    cn1 7940   1.928   2.282   1.091  0.0588 -0.1420 -0.0504
 1142ntf    fn4 7941   1.838   2.842   1.318 -1.0222 -0.4869  0.0070
 1142ntf    fn4 7942   1.919   2.686   1.438  0.2219 -0.1874  0.1699
 1142ntf    fn4 7943   2.021   2.739   1.260 -0.3355 -0.0445  0.0977
 1142ntf    on5 7944   1.781   2.498   1.339 -0.1599  0.4173  0.4882
 1142ntf    on5 7945   1.680   2.675   1.203 -0.3316 -0.1367  0.2378
 1142ntf    on5 7946   2.079   2.464   0.990  0.0860 -0.0610 -0.0611
 1142ntf    on5 7947   2.079   2.435   1.231 -0.9429  0.3932  0.3946
 1142ntf    fn4 7948   1.845   2.242   1.187 -0.2280 -0.3008 -0.3631
 1142ntf    fn4 7949   2.025   2.192   1.093 -0.1510 -0.3635  0.5251
 1142ntf    fn4 7950   1.872   2.269   0.973 -0.0522 -0.7204  0.0606
 1143ntf    cn1 7951   4.354   0.150   1.053  0.2660 -0.2432 -0.5221
 1143ntf    sn2 7952   4.179   0.187   1.083  0.3892 -0.0492 -0.0343
 1143ntf    nn3 7953   4.135   0.077   1.185  0.3839 -0.2589 -0.2609
 1143ntf    sn2 7954   4.157   0.070   1.341  0.2917  0.0365 -0.2351
 1143ntf    cn1 7955   4.153  -0.109   1.369  0.9391  0.0803  0.1370
 1143ntf    fn4 7956   4.433   0.165   1.157 -0.2864 -1.1263  0.0444
 1143ntf    fn4 7957   4.357   0.022   1.019  0.3636 -0.3057 -0.2770
 1143ntf    fn4 7958   4.407   0.225   0.958 -0.2116  0.4848 -0.2182
 1143ntf    on5 7959   4.173   0.319   1.141 -0.1241 -0.2378  0.3506
 1143ntf    on5 7960   4.111   0.171   0.956  0.2846  0.0726  0.0063
 1143ntf    on5 7961   4.286   0.115   1.386  0.0888  0.2158  0.1747
 1143ntf    on5 7962   4.043   0.109   1.421  0.7841  0.0375  0.4734
 1143ntf    fn4 7963   4.188  -0.186   1.267  0.0476 -0.1805  0.0192
 1143ntf    fn4 7964   4.033  -0.151   1.404  0.8469  0.0660 -0.1983
 1143ntf    fn4 7965   4.234  -0.146   1.468  0.4578 -0.2748  0.4023
 1144ntf    cn1 7966   4.062   4.229   1.467  0.1569 -0.2462 -0.1985
 1144ntf    sn2 7967   3.977   4.073   1.426 -0.3272 -0.0721  0.1285
 1144ntf    nn3 7968   3.827   4.118   1.423 -0.3560 -0.1687  0.1104
 1144ntf    sn2 7969   3.703   4.099   1.329 -0.1181  0.0539 -0.2510
 1144ntf    cn1 7970   3.606   4.246   1.374  0.0855  0.1082  0.0105
 1144ntf    fn4 7971   4.025   4.329   1.389 -0.0786 -0.1236  0.0676
 1144ntf    fn4 7972   4.044   4.270   1.591 -0.3186 -0.3485 -0.2311
 1144ntf    fn4 7973   4.191   4.210   1.447  0.2653  0.9471 -0.7140
 1144ntf    on5 7974   4.033   4.031   1.300 -0.5360  0.5494 -0.1774
 1144ntf    on5 7975   4.001   3.993   1.543  0.3533 -0.1615 -0.0664
 1144ntf    on5 7976   3.729   4.126   1.189 -0.8610 -0.8923 -0.5870
 1144ntf    on5 7977   3.618   3.987   1.364  0.1903 -0.0728  0.0958
 1144ntf    fn4 7978   3.479   4.222   1.347  0.2780 -0.8597 -0.0868
 1144ntf    fn4 7979   3.655   4.359   1.325  0.1624 -0.0274 -0.2276
 1144ntf    fn4 7980   3.611   4.253   1.506 -0.0654 -0.1381  0.0309
 1145ntf    cn1 7981   6.440   5.257   1.355 -0.3467  0.0979 -0.3892
 1145ntf    sn2 7982   6.588   5.227   1.253  0.0091  0.3132  0.0543
 1145ntf    nn3 7983   6.557   5.074   1.233  0.1232  0.3016 -0.0333
 1145ntf    sn2 7984   6.615   4.945   1.301 -0.2320 -0.1108 -0.5082
 1145ntf    cn1 7985   6.735   4.897   1.173  0.1161 -0.0197 -0.2192
 1145ntf    fn4 7986   6.326   5.217   1.302 -0.1797  0.1154 -0.7629
 1145ntf    fn4 7987   6.452   5.179   1.461  0.3523 -0.1661 -0.6559
 1145ntf    fn4 7988   6.432   5.380   1.403 -0.6571  0.0898 -0.4204
 1145ntf    on5 7989   6.566   5.312   1.138  1.4468 -0.2091 -0.6251
 1145ntf    on5 7990   6.703   5.262   1.331  0.2326  0.2568 -0.2498
 1145ntf    on5 7991   6.713   4.971   1.404 -0.7093 -0.5452  0.0591
 1145ntf    on5 7992   6.523   4.834   1.307  0.0371 -0.3068  0.0344
 1145ntf    fn4 7993   6.789   4.779   1.198 -0.2427  0.1217  1.3256
 1145ntf    fn4 7994   6.832   4.986   1.165  0.1920 -0.0206  0.6189
 1145ntf    fn4 7995   6.686   4.894   1.050  0.1620 -0.2638 -0.2323
 1146ntf    cn1 7996   0.160   4.080   0.078 -0.5064  0.3138  0.0567
 1146ntf    sn2 7997   0.088   4.005  -0.072  0.0949 -0.0223 -0.0681
 1146ntf    nn3 7998  -0.008   4.109  -0.139  0.4039  0.3867  0.1189
 1146ntf    sn2 7999  -0.008   4.181  -0.279 -0.0235 -0.0198 -0.0902
 1146ntf    cn1 8000  -0.141   4.092  -0.365 -0.0144 -0.2745  0.1562
 1146ntf    fn4 8001   0.237   4.180   0.038  0.1582  0.0839  0.7309
 1146ntf    fn4 8002   0.079   4.132   0.168 -0.4825  0.4520 -0.0013
 1146ntf    fn4 8003   0.245   4.002   0.143 -0.3308 -0.0030 -0.5410
 1146ntf    on5 8004   0.199   3.957  -0.150 -0.2971 -1.1085  0.0279
 1146ntf    on5 8005   0.010   3.900  -0.012 -0.1724  0.1765 -0.0696
 1146ntf    on5 8006  -0.051   4.318  -0.266  0.0591 -0.0045  0.0280
 1146ntf    on5 8007   0.112   4.154  -0.354  0.2857 -0.1595  0.4442
 1146ntf    fn4 8008  -0.254   4.101  -0.298  0.0476 -0.4467  0.2857
 1146ntf    fn4 8009  -0.117   3.962  -0.378 -0.2058 -0.3110  0.1602
 1146ntf    fn4 8010  -0.166   4.131  -0.489  0.4602  0.0745  0.1666
 1147ntf    cn1 8011   2.779   4.075   2.888  0.3207 -0.1038  0.1546
 1147ntf    sn2 8012   2.630   3.985   2.939  0.2127  0.0900  0.1803
 1147ntf    nn3 8013   2.646   3.865   2.839 -0.1130  0.4380 -0.2954
 1147ntf    sn2 8014   2.597   3.846   2.691 -0.5126 -0.2925 -0.0734
 1147ntf    cn1 8015   2.452   3.742   2.725 -0.4478 -0.2422  0.3644
 1147ntf    fn4 8016   2.887   3.998   2.890  0.2414 -0.2262 -0.1380
 1147ntf    fn4 8017   2.771   4.125   2.766  0.0442  0.8103  0.5465
 1147ntf    fn4 8018   2.815   4.177   2.964 -0.5322  0.5549 -0.3100
 1147ntf    on5 8019   2.651   3.943   3.075  1.1792  0.0911  0.0382
 1147ntf    on5 8020   2.527   4.081   2.907  0.3004  0.0227 -0.3139
 1147ntf    on5 8021   2.554   3.964   2.621 -0.2282 -0.3092 -0.2792
 1147ntf    on5 8022   2.687   3.757   2.621 -0.0842 -0.2974  0.4704
 1147ntf    fn4 8023   2.489   3.620   2.759 -0.3116 -0.3898 -0.2960
 1147ntf    fn4 8024   2.381   3.712   2.617  0.5230  0.6574 -0.5489
 1147ntf    fn4 8025   2.375   3.793   2.819 -0.3675  0.3735  0.1027
 1148ntf    cn1 8026   4.831   4.409   1.411  0.1007  0.0865 -0.0656
 1148ntf    sn2 8027   4.995   4.477   1.374  0.1876 -0.3060 -0.4156
 1148ntf    nn3 8028   5.044   4.540   1.509  0.1317 -0.4146 -0.3444
 1148ntf    sn2 8029   5.068   4.694   1.534 -0.1062 -0.4363  0.0351
 1148ntf    cn1 8030   5.157   4.684   1.692 -0.0600 -0.3839  0.0121
 1148ntf    fn4 8031   4.778   4.325   1.323  0.2007 -0.4305  0.3622
 1148ntf    fn4 8032   4.823   4.330   1.517 -0.5837  0.1175 -0.0878
 1148ntf    fn4 8033   4.738   4.501   1.431  0.0444  0.0858 -0.3184
 1148ntf    on5 8034   5.062   4.355   1.337  0.2003 -0.1951 -0.7649
 1148ntf    on5 8035   4.970   4.575   1.271  0.1570  0.2917  0.1533
 1148ntf    on5 8036   5.157   4.759   1.441 -0.3702  0.0101  0.0944
 1148ntf    on5 8037   4.953   4.772   1.570  0.4160  0.2055  0.3236
 1148ntf    fn4 8038   5.183   4.807   1.736 -0.1896 -0.3413 -0.0297
 1148ntf    fn4 8039   5.271   4.624   1.662  0.0649 -0.1343 -0.0237
 1148ntf    fn4 8040   5.104   4.631   1.801  0.3727 -0.4817  0.1788
 1149ntf    cn1 8041   2.144   0.076   0.058 -0.5142 -0.2906  0.1761
 1149ntf    sn2 8042   2.319   0.053   0.104 -0.4179  0.1246  0.0227
 1149ntf    nn3 8043   2.297  -0.025   0.238 -0.0532 -0.0235 -0.0022
 1149ntf    sn2 8044   2.338   0.021   0.382  0.0638  0.1335 -0.0855
 1149ntf    cn1 8045   2.485  -0.083   0.404 -0.1518 -0.1801 -0.1231
 1149ntf    fn4 8046   2.074  -0.029   0.098 -0.4204 -0.3805  0.1048
 1149ntf    fn4 8047   2.101   0.192   0.106  0.8922  0.3782 -0.1190
 1149ntf    fn4 8048   2.127   0.101  -0.071 -0.3895 -0.3528  0.1470
 1149ntf    on5 8049   2.379  -0.034   0.006  0.2046  0.5926 -0.0141
 1149ntf    on5 8050   2.365   0.189   0.116  0.0616 -0.1097  0.8618
 1149ntf    on5 8051   2.394   0.152   0.404  0.3332 -0.0247  0.1855
 1149ntf    on5 8052   2.245  -0.025   0.482  0.2539 -0.1099 -0.0200
 1149ntf    fn4 8053   2.551  -0.064   0.517  0.0532  0.3152 -0.3255
 1149ntf    fn4 8054   2.573  -0.065   0.307 -0.2150 -0.1328 -0.1715
 1149ntf    fn4 8055   2.447  -0.210   0.400  0.0836 -0.2817  0.5968
 1150ntf    cn1 8056   0.213   5.834   5.955 -0.1063 -0.1768  0.3953
 1150ntf    sn2 8057   0.056   5.743   5.951  0.0050 -0.3569  0.1068
 1150ntf    nn3 8058  -0.022   5.835   5.850  0.1471  0.0111  0.3310
 1150ntf    sn2 8059  -0.021   5.829   5.693  0.1050 -0.2270  0.3394
 1150ntf    cn1 8060   0.082   5.973   5.650 -0.0894 -0.2399 -0.1843
 1150ntf    fn4 8061   0.284   5.825   6.067  0.3257 -0.4835  0.1013
 1150ntf    fn4 8062   0.298   5.797   5.861 -0.1069  0.4949  0.1254
 1150ntf    fn4 8063   0.206   5.966   5.949  0.7565 -0.1124  0.6683
 1150ntf    on5 8064   0.098   5.612   5.908 -0.4256 -0.3752 -0.2672
 1150ntf    on5 8065   0.012   5.762   6.087  0.2965  0.5695  0.0783
 1150ntf    on5 8066   0.051   5.723   5.626  0.2300 -0.1998  0.4303
 1150ntf    on5 8067  -0.145   5.871   5.632  0.3256  0.2692  0.2265
 1150ntf    fn4 8068   0.036   6.080   5.711 -0.0440 -0.4103  0.1520
 1150ntf    fn4 8069   0.089   5.990   5.519  0.2234  0.0725 -0.1273
 1150ntf    fn4 8070   0.205   5.952   5.695 -0.1144 -0.0306 -0.0181
 1151ntf    cn1 8071   6.016   3.132   0.603  0.1795 -0.4242  0.0989
 1151ntf    sn2 8072   5.939   3.295   0.626  0.2630 -0.3738  0.0257
 1151ntf    nn3 8073   5.912   3.287   0.781 -0.1171  0.6964  0.0237
 1151ntf    sn2 8074   5.831   3.389   0.869 -0.2642  0.5742  0.0294
 1151ntf    cn1 8075   5.970   3.468   0.954  0.1223 -0.0586 -0.0073
 1151ntf    fn4 8076   5.935   3.031   0.627  0.1655 -0.4822 -0.1893
 1151ntf    fn4 8077   6.053   3.120   0.476 -0.0307  0.4477 -0.0522
 1151ntf    fn4 8078   6.126   3.116   0.674  0.7821  0.3415 -0.6290
 1151ntf    on5 8079   6.039   3.392   0.589  0.4423 -0.4022  0.4310
 1151ntf    on5 8080   5.818   3.284   0.548  0.3923  0.0222 -0.2307
 1151ntf    on5 8081   5.764   3.499   0.803 -0.4358  0.3703 -0.1421
 1151ntf    on5 8082   5.763   3.326   0.979  0.6193  0.4106  0.4880
 1151ntf    fn4 8083   5.930   3.576   1.018 -0.0942  0.0716 -0.3568
 1151ntf    fn4 8084   6.070   3.496   0.872  0.1099  0.8521  0.2800
 1151ntf    fn4 8085   6.022   3.387   1.044  0.8194  0.2563 -0.1205
 1152ntf    cn1 8086   0.997   3.057   1.062 -0.4297 -0.0519 -0.1103
 1152ntf    sn2 8087   0.859   3.173   1.088 -0.4162 -0.0052 -0.2460
 1152ntf    nn3 8088   0.738   3.096   1.025 -0.3546 -0.3223  0.0215
 1152ntf    sn2 8089   0.604   3.073   1.104 -0.3150  0.0621  0.2017
 1152ntf    cn1 8090   0.574   2.897   1.069  0.3638 -0.0931  0.3815
 1152ntf    fn4 8091   1.110   3.125   1.055 -0.1132 -0.6005 -0.3447
 1152ntf    fn4 8092   1.009   2.973   1.163 -0.8164  0.5411  0.4350
 1152ntf    fn4 8093   1.001   2.979   0.955  0.3666  0.1377 -0.2246
 1152ntf    on5 8094   0.859   3.194   1.231 -0.3832 -0.5156 -0.1693
 1152ntf    on5 8095   0.909   3.279   1.004 -0.0697 -0.2103 -0.3020
 1152ntf    on5 8096   0.597   3.072   1.248 -0.3875  0.1486  0.1985
 1152ntf    on5 8097   0.496   3.143   1.038 -0.2812  0.3080  0.4041
 1152ntf    fn4 8098   0.674   2.814   1.091  0.7332  0.2227 -0.0988
 1152ntf    fn4 8099   0.537   2.876   0.944  0.4809  0.0264  0.3272
 1152ntf    fn4 8100   0.476   2.849   1.145 -0.1433 -0.4111 -0.4633
 1153ntf    cn1 8101   4.698   2.979   5.839 -0.0776  0.0246 -0.0287
 1153ntf    sn2 8102   4.836   2.864   5.865  0.1319  0.2162 -0.2796
 1153ntf    nn3 8103   4.930   2.924   5.754 -0.8518  1.1822 -0.5985
 1153ntf    sn2 8104   5.045   3.026   5.784 -0.1428  0.2730 -0.1817
 1153ntf    cn1 8105   5.034   3.114   5.625  0.3578  0.0804 -0.3257
 1153ntf    fn4 8106   4.745   3.102   5.823  0.4890 -0.1606  0.1620
 1153ntf    fn4 8107   4.626   2.951   5.732  0.0003  0.6426 -0.2478
 1153ntf    fn4 8108   4.614   2.982   5.941 -0.0144  0.1129  0.0212
 1153ntf    on5 8109   4.889   2.883   5.997 -0.3941  0.1859 -0.0636
 1153ntf    on5 8110   4.793   2.730   5.835  0.4002  0.3558 -1.3616
 1153ntf    on5 8111   5.009   3.133   5.874  0.1177  0.5748 -0.4323
 1153ntf    on5 8112   5.175   2.966   5.798 -0.2631  0.0219 -0.1437
 1153ntf    fn4 8113   5.134   3.200   5.619  0.1379  0.3269 -0.5523
 1153ntf    fn4 8114   4.917   3.174   5.604  0.0080 -0.5180 -0.0986
 1153ntf    fn4 8115   5.045   3.029   5.524  0.2010 -0.0108 -0.2666
 1154ntf    cn1 8116   5.680   2.701   4.254  0.0702 -0.1465  0.0052
 1154ntf    sn2 8117   5.781   2.778   4.385  0.0270  0.0206 -0.0601
 1154ntf    nn3 8118   5.848   2.903   4.318  0.8525  0.3505  1.3380
 1154ntf    sn2 8119   5.821   3.057   4.331 -0.3154  0.2543  0.2764
 1154ntf    cn1 8120   5.913   3.110   4.479 -0.0168  0.0324  0.1707
 1154ntf    fn4 8121   5.616   2.590   4.286  0.8488 -0.4469  0.5756
 1154ntf    fn4 8122   5.588   2.776   4.197  0.0135 -0.0017  0.2840
 1154ntf    fn4 8123   5.759   2.655   4.158  0.3512  0.0755  0.1270
 1154ntf    on5 8124   5.687   2.807   4.490 -0.1137 -0.5992 -0.0090
 1154ntf    on5 8125   5.874   2.675   4.422 -0.1053  0.1595  0.6715
 1154ntf    on5 8126   5.878   3.138   4.226  0.5939 -0.4692  0.2021
 1154ntf    on5 8127   5.683   3.088   4.363 -0.4697  0.1670 -0.2973
 1154ntf    fn4 8128   5.892   3.238   4.507  0.0434  0.1880 -0.4757
 1154ntf    fn4 8129   6.043   3.089   4.464 -0.0199 -0.3915  0.7338
 1154ntf    fn4 8130   5.869   3.045   4.586 -0.2376 -0.1289 -0.0159
 1155ntf    cn1 8131   4.008   6.627   4.385  0.0608 -0.4846  0.0834
 1155ntf    sn2 8132   4.140   6.577   4.499  0.0406  0.0022  0.3238
 1155ntf    nn3 8133   4.265   6.606   4.409 -0.0164 -0.6252  0.0391
 1155ntf    sn2 8134   4.405   6.667   4.445 -0.2395 -0.1458  0.0943
 1155ntf    cn1 8135   4.394   6.820   4.348 -0.4450 -0.0044  0.3383
 1155ntf    fn4 8136   4.018   6.755   4.351  0.3658 -0.5591 -0.1177
 1155ntf    fn4 8137   3.998   6.548   4.279  0.2903 -0.0035 -0.3009
 1155ntf    fn4 8138   3.891   6.626   4.445  0.2227 -0.1075  0.4127
 1155ntf    on5 8139   4.119   6.669   4.608 -0.4399  0.5713 -0.2407
 1155ntf    on5 8140   4.129   6.435   4.527  1.1484 -0.1478  0.0490
 1155ntf    on5 8141   4.422   6.711   4.582  0.0715  0.2153 -0.0578
 1155ntf    on5 8142   4.515   6.601   4.380 -0.2308 -0.4477  0.4153
 1155ntf    fn4 8143   4.315   6.911   4.403 -0.6245 -0.0640  0.1783
 1155ntf    fn4 8144   4.352   6.799   4.225  0.2456 -0.1386  0.1193
 1155ntf    fn4 8145   4.513   6.878   4.344 -0.1769 -0.5693 -0.0725
 1156ntf    cn1 8146   2.436   4.808   5.548 -0.0480  0.0249 -0.0928
 1156ntf    sn2 8147   2.507   4.881   5.698 -0.2740 -0.0497  0.0508
 1156ntf    nn3 8148   2.386   4.888   5.798  0.2003  0.1510  0.6154
 1156ntf    sn2 8149   2.332   4.789   5.908  0.1419 -0.6042 -0.0842
 1156ntf    cn1 8150   2.476   4.808   6.017 -0.3079 -0.0669  0.4265
 1156ntf    fn4 8151   2.525   4.809   5.450  0.0856 -0.5008  0.0220
 1156ntf    fn4 8152   2.409   4.680   5.571  0.3207  0.0375  0.4284
 1156ntf    fn4 8153   2.325   4.864   5.502 -0.2883 -0.3777 -0.0079
 1156ntf    on5 8154   2.615   4.789   5.727 -0.3024 -0.2490 -0.4786
 1156ntf    on5 8155   2.548   5.013   5.658  0.3018 -0.1850  0.1868
 1156ntf    on5 8156   2.219   4.850   5.975  0.1943 -0.1236 -0.4244
 1156ntf    on5 8157   2.334   4.652   5.862 -0.7879 -0.6480 -0.0183
 1156ntf    fn4 8158   2.454   4.768   6.141 -0.0083 -0.8795  0.2229
 1156ntf    fn4 8159   2.514   4.935   6.028 -0.1273 -0.1128  0.3444
 1156ntf    fn4 8160   2.577   4.735   5.972  0.4276  1.0447  0.2251
 1157ntf    cn1 8161   5.362   6.203   2.745 -0.2103  0.1275  0.0539
 1157ntf    sn2 8162   5.541   6.205   2.780 -0.2566 -0.2435  0.3170
 1157ntf    nn3 8163   5.604   6.191   2.637 -0.4674 -0.3380  0.2322
 1157ntf    sn2 8164   5.635   6.053   2.568 -0.1594 -0.1212 -0.0633
 1157ntf    cn1 8165   5.810   6.025   2.609 -0.2855 -0.3393  0.3253
 1157ntf    fn4 8166   5.322   6.082   2.708  0.4204 -0.1231  0.1690
 1157ntf    fn4 8167   5.289   6.232   2.851  0.5950 -0.1679  0.7014
 1157ntf    fn4 8168   5.337   6.289   2.648  0.1610 -0.0806 -0.2314
 1157ntf    on5 8169   5.563   6.337   2.831  0.2917  0.0390 -0.6267
 1157ntf    on5 8170   5.570   6.097   2.870  0.8341 -0.3596 -0.1614
 1157ntf    on5 8171   5.563   5.939   2.619 -0.3036 -0.1234 -0.2710
 1157ntf    on5 8172   5.644   6.070   2.425 -0.2891  0.1026 -0.0451
 1157ntf    fn4 8173   5.839   5.977   2.729 -0.2154 -0.1906  0.3676
 1157ntf    fn4 8174   5.885   6.133   2.599  0.1232 -0.6658 -0.1987
 1157ntf    fn4 8175   5.866   5.937   2.526  0.1232 -0.3726  0.6321
 1158ntf    cn1 8176   0.504   3.238   6.306  0.0142 -0.1578 -0.4833
 1158ntf    sn2 8177   0.660   3.327   6.331 -0.1619  0.0353 -0.0552
 1158ntf    nn3 8178   0.597   3.467   6.361 -0.0722  0.0368  0.1274
 1158ntf    sn2 8179   0.566   3.514   6.508  0.3415  0.0681  0.2055
 1158ntf    cn1 8180   0.434   3.637   6.482 -0.0257 -0.3706 -0.0304
 1158ntf    fn4 8181   0.417   3.216   6.403 -0.0478 -0.5294 -0.6215
 1158ntf    fn4 8182   0.424   3.307   6.226 -0.0273  0.0992 -0.2230
 1158ntf    fn4 8183   0.528   3.120   6.252  0.3418 -0.3298  0.0310
 1158ntf    on5 8184   0.721   3.259   6.443 -0.4424 -0.4524 -0.1940
 1158ntf    on5 8185   0.735   3.341   6.208  0.0894  0.1448  0.1082
 1158ntf    on5 8186   0.507   3.413   6.592 -0.0442 -0.1202 -0.2868
 1158ntf    on5 8187   0.668   3.597   6.567  0.1347  0.2224  0.3500
 1158ntf    fn4 8188   0.455   3.733   6.394  0.2105 -0.2154  0.1907
 1158ntf    fn4 8189   0.411   3.695   6.599 -0.3812 -0.3500 -0.1108
 1158ntf    fn4 8190   0.317   3.585   6.452  0.2476 -0.7812 -0.3941
 1159ntf    cn1 8191   3.587   5.325   3.370 -0.2614  0.2631 -0.0536
 1159ntf    sn2 8192   3.715   5.256   3.261 -0.3267 -0.0205  0.0481
 1159ntf    nn3 8193   3.834   5.275   3.361  0.2670 -0.4770 -0.5626
 1159ntf    sn2 8194   3.965   5.360   3.345 -0.0489  0.1277  0.0263
 1159ntf    cn1 8195   4.067   5.292   3.479 -0.6561 -0.3980  0.2263
 1159ntf    fn4 8196   3.475   5.329   3.300  0.0563 -0.1522 -0.5894
 1159ntf    fn4 8197   3.562   5.258   3.481 -0.4401  0.3131 -0.0619
 1159ntf    fn4 8198   3.606   5.448   3.416 -0.3781  0.0983  0.4480
 1159ntf    on5 8199   3.675   5.118   3.254  0.7272 -0.3170 -0.2349
 1159ntf    on5 8200   3.729   5.342   3.146  0.4943  0.2999  0.3775
 1159ntf    on5 8201   4.036   5.322   3.226 -0.5668  0.1402 -0.2919
 1159ntf    on5 8202   3.948   5.500   3.375 -0.4415  0.1056 -0.0891
 1159ntf    fn4 8203   4.084   5.161   3.467 -0.7102 -0.4306  0.5018
 1159ntf    fn4 8204   4.012   5.319   3.596 -0.0623 -0.1113  0.4417
 1159ntf    fn4 8205   4.191   5.338   3.472 -0.6922 -0.4063 -0.5738
 1160ntf    cn1 8206   4.130   4.817   6.696 -0.1058  0.3635 -0.0425
 1160ntf    sn2 8207   4.258   4.762   6.813 -0.0377  0.0799 -0.2499
 1160ntf    nn3 8208   4.170   4.750   6.943 -0.6415  0.4979 -0.6155
 1160ntf    sn2 8209   4.080   4.631   6.990  0.4791 -0.1383 -0.0346
 1160ntf    cn1 8210   4.196   4.509   7.059 -0.2248 -0.6803  0.2075
 1160ntf    fn4 8211   4.171   4.802   6.571  0.4385 -0.1147  0.1897
 1160ntf    fn4 8212   4.013   4.759   6.714 -0.0892  0.2929 -0.1618
 1160ntf    fn4 8213   4.105   4.946   6.712 -0.4858  0.3581 -0.5808
 1160ntf    on5 8214   4.294   4.635   6.754  0.2440 -0.0059  0.1029
 1160ntf    on5 8215   4.351   4.871   6.823  0.6271 -0.4369 -0.7308
 1160ntf    on5 8216   3.998   4.668   7.103  0.3101 -0.1123 -0.1635
 1160ntf    on5 8217   4.016   4.563   6.879  0.3551 -0.0494 -0.0186
 1160ntf    fn4 8218   4.256   4.562   7.164  0.5201 -0.4366 -0.3290
 1160ntf    fn4 8219   4.291   4.476   6.973  0.3380  0.2827  0.4477
 1160ntf    fn4 8220   4.143   4.397   7.106  0.5870 -1.3078 -0.3457
 1161ntf    cn1 8221   1.848   3.961   6.528 -0.0701  0.0150  0.3132
 1161ntf    sn2 8222   1.955   3.876   6.649 -0.0491 -0.2078  0.1390
 1161ntf    nn3 8223   1.899   3.730   6.644  0.0002 -0.2103 -0.5303
 1161ntf    sn2 8224   1.978   3.601   6.689  0.3044 -0.0267 -0.5323
 1161ntf    cn1 8225   1.981   3.647   6.864  0.4650  0.0003 -0.5423
 1161ntf    fn4 8226   1.886   4.082   6.490 -0.3657  0.0071 -0.0074
 1161ntf    fn4 8227   1.829   3.892   6.417 -0.1506 -0.2224  0.4716
 1161ntf    fn4 8228   1.728   3.960   6.583 -0.3018  1.1674 -0.1578
 1161ntf    on5 8229   2.087   3.892   6.592 -0.2920  0.1204 -0.3382
 1161ntf    on5 8230   1.930   3.951   6.769 -0.0322 -0.4871  0.3163
 1161ntf    on5 8231   1.901   3.481   6.668 -0.0935  0.1766 -0.2429
 1161ntf    on5 8232   2.114   3.582   6.645  0.3692 -0.4377 -0.1630
 1161ntf    fn4 8233   2.066   3.744   6.894 -0.1426  0.1902  0.6314
 1161ntf    fn4 8234   2.012   3.549   6.948 -0.1513  0.6207  0.4359
 1161ntf    fn4 8235   1.861   3.679   6.909  0.7119  0.1038  0.0585
 1162ntf    cn1 8236   3.929   6.401   3.179  0.3619  0.0039 -0.2426
 1162ntf    sn2 8237   4.050   6.404   3.314  0.1733 -0.1183 -0.0694
 1162ntf    nn3 8238   3.975   6.459   3.440 -0.3850  0.0172 -0.4608
 1162ntf    sn2 8239   3.990   6.605   3.496  0.0393 -0.1671 -0.0871
 1162ntf    cn1 8240   3.853   6.679   3.402  0.2125  0.3199  0.0389
 1162ntf    fn4 8241   3.918   6.505   3.098  0.0334  0.1877  0.0368
 1162ntf    fn4 8242   3.963   6.306   3.094  0.1913 -0.2006 -0.0837
 1162ntf    fn4 8243   3.807   6.365   3.217  0.3853  0.0088 -0.1612
 1162ntf    on5 8244   4.077   6.262   3.323  0.0817 -0.1009  0.5766
 1162ntf    on5 8245   4.158   6.485   3.263  0.0109 -0.0463 -0.2956
 1162ntf    on5 8246   3.929   6.610   3.627  0.7163 -0.2819  0.2340
 1162ntf    on5 8247   4.108   6.686   3.479 -0.2335  0.1537 -0.4601
 1162ntf    fn4 8248   3.868   6.643   3.275  0.2999  0.1591  0.0942
 1162ntf    fn4 8249   3.858   6.811   3.393  0.7577  0.2762 -0.3510
 1162ntf    fn4 8250   3.734   6.637   3.442 -0.0275  0.3509 -0.6267
 1163ntf    cn1 8251   0.293   5.885   4.890  0.0318 -0.1661 -0.3758
 1163ntf    sn2 8252   0.433   5.780   4.939 -0.1995 -0.2751  0.0547
 1163ntf    nn3 8253   0.537   5.845   4.841 -0.4575 -0.0861 -0.0962
 1163ntf    sn2 8254   0.571   5.795   4.697 -0.1786  0.1098 -0.1009
 1163ntf    cn1 8255   0.704   5.672   4.719 -0.4580 -0.1096  0.3810
 1163ntf    fn4 8256   0.184   5.854   4.958  0.6470  0.5540  0.9749
 1163ntf    fn4 8257   0.312   6.016   4.898  0.3179 -0.1858 -0.6866
 1163ntf    fn4 8258   0.268   5.864   4.761 -0.5666  0.2986 -0.3395
 1163ntf    on5 8259   0.451   5.815   5.078 -1.0336  0.3882  0.0073
 1163ntf    on5 8260   0.405   5.641   4.913  0.8658 -0.5592  0.3563
 1163ntf    on5 8261   0.457   5.743   4.626  0.2201 -0.0506 -0.6324
 1163ntf    on5 8262   0.640   5.897   4.623  0.1499 -0.1959 -0.2213
 1163ntf    fn4 8263   0.815   5.718   4.774 -0.2575 -0.0173 -0.0962
 1163ntf    fn4 8264   0.748   5.624   4.604 -0.1222  0.6013  0.2041
 1163ntf    fn4 8265   0.667   5.575   4.800 -0.3080 -0.1800  0.3652
 1164ntf    cn1 8266   3.148   6.043   2.989 -0.4277 -0.1051  0.3409
 1164ntf    sn2 8267   3.309   6.108   3.044 -0.3594 -0.0554  0.0848
 1164ntf    nn3 8268   3.287   6.118   3.199  0.0809  0.2939  0.1268
 1164ntf    sn2 8269   3.331   6.018   3.313  0.0418  0.1614  0.0267
 1164ntf    cn1 8270   3.504   6.071   3.323  0.0668  0.2387 -0.7325
 1164ntf    fn4 8271   3.133   6.026   2.859  0.0861 -0.0663  0.2758
 1164ntf    fn4 8272   3.120   5.925   3.040 -0.1542 -0.0067  0.7238
 1164ntf    fn4 8273   3.040   6.113   3.022 -0.0977  0.4938  0.1733
 1164ntf    on5 8274   3.400   6.007   2.997  0.1899  0.7941 -0.7163
 1164ntf    on5 8275   3.306   6.237   2.980  0.5033  0.1527  0.4512
 1164ntf    on5 8276   3.262   6.052   3.435  0.6256 -0.0665  0.4207
 1164ntf    on5 8277   3.326   5.880   3.272  0.2419 -0.1584  1.0606
 1164ntf    fn4 8278   3.562   6.023   3.432  0.7237  0.5222 -0.9512
 1164ntf    fn4 8279   3.508   6.204   3.323 -0.3911  0.2554 -0.4174
 1164ntf    fn4 8280   3.573   6.018   3.223 -0.1336 -0.4439 -0.5067
 1165ntf    cn1 8281   5.124   1.455   3.281  0.3020  0.3090 -0.4666
 1165ntf    sn2 8282   5.197   1.294   3.323 -0.1904  0.1827 -0.0867
 1165ntf    nn3 8283   5.309   1.287   3.212  0.2625 -0.5943  0.4115
 1165ntf    sn2 8284   5.459   1.331   3.224  0.0150  0.3818 -0.0293
 1165ntf    cn1 8285   5.481   1.381   3.051 -0.1223  0.2317 -0.0903
 1165ntf    fn4 8286   5.202   1.562   3.271  0.3238  0.3962  0.5629
 1165ntf    fn4 8287   5.038   1.461   3.181 -0.0038  0.3003 -0.2036
 1165ntf    fn4 8288   5.042   1.479   3.382  0.5600 -0.9736  0.0656
 1165ntf    on5 8289   5.245   1.313   3.457  0.0336  0.4301 -0.2023
 1165ntf    on5 8290   5.095   1.197   3.293 -0.0422  0.0967 -0.3204
 1165ntf    on5 8291   5.483   1.460   3.284 -0.2572  0.3850  0.0755
 1165ntf    on5 8292   5.555   1.225   3.235 -0.2644  0.1559  0.2687
 1165ntf    fn4 8293   5.590   1.453   3.029 -0.2894  0.3769 -0.4464
 1165ntf    fn4 8294   5.377   1.459   3.027 -0.6398 -0.3646  0.1780
 1165ntf    fn4 8295   5.482   1.276   2.970  0.2653 -0.5028  0.8396
 1166ntf    cn1 8296   2.732   2.149   1.043 -0.1582  0.1116 -0.3828
 1166ntf    sn2 8297   2.691   1.974   1.019  0.3164 -0.0361 -0.1259
 1166ntf    nn3 8298   2.826   1.896   1.037  0.5657  0.3734 -0.2012
 1166ntf    sn2 8299   2.866   1.793   1.149 -0.3616  0.1002 -0.1039
 1166ntf    cn1 8300   3.042   1.839   1.140 -0.3383  0.0066 -0.1280
 1166ntf    fn4 8301   2.639   2.238   1.009  0.0537  0.4827 -0.0033
 1166ntf    fn4 8302   2.764   2.175   1.168 -0.1729  0.0174 -0.3597
 1166ntf    fn4 8303   2.847   2.180   0.986  0.0896  0.1018  0.1108
 1166ntf    on5 8304   2.592   1.958   1.122  0.3360  0.2103 -0.0677
 1166ntf    on5 8305   2.637   1.960   0.885 -0.2164 -0.2370  0.1064
 1166ntf    on5 8306   2.822   1.824   1.282  0.0903  0.2615  0.0105
 1166ntf    on5 8307   2.866   1.655   1.106 -0.0330 -0.2886  1.1208
 1166ntf    fn4 8308   3.113   1.789   1.240 -0.9621 -0.1617  0.2340
 1166ntf    fn4 8309   3.057   1.971   1.138 -0.2919  0.0051  0.1112
 1166ntf    fn4 8310   3.110   1.797   1.034 -0.0890  0.0004  0.0351
 1167ntf    cn1 8311   0.437   0.761   1.852  0.2451 -0.0104  0.3705
 1167ntf    sn2 8312   0.422   0.636   1.982  0.3252 -0.0370  0.3549
 1167ntf    nn3 8313   0.503   0.515   1.924 -0.5472 -0.7099  0.5152
 1167ntf    sn2 8314   0.656   0.486   1.943 -0.3008 -0.0961 -0.4273
 1167ntf    cn1 8315   0.686   0.343   1.836  0.1958 -0.0940 -0.2950
 1167ntf    fn4 8316   0.351   0.860   1.869 -0.0953 -0.2761  0.2075
 1167ntf    fn4 8317   0.557   0.814   1.832  0.1172  0.0634 -0.2143
 1167ntf    fn4 8318   0.407   0.705   1.735  0.3502  0.2925  0.1968
 1167ntf    on5 8319   0.464   0.693   2.108 -0.1629  0.3867  0.3295
 1167ntf    on5 8320   0.285   0.591   1.979  0.5430 -0.7513  0.7175
 1167ntf    on5 8321   0.737   0.590   1.886  0.3553 -0.4179 -0.0953
 1167ntf    on5 8322   0.694   0.438   2.074  0.2491 -0.1312 -0.5965
 1167ntf    fn4 8323   0.588   0.255   1.854 -0.1734  0.3388 -0.1722
 1167ntf    fn4 8324   0.803   0.290   1.869  0.3338 -0.0188 -0.6554
 1167ntf    fn4 8325   0.691   0.371   1.706  0.1746  0.1709 -0.2389
 1168ntf    cn1 8326   5.819   4.781   2.559  0.1883  0.3649 -0.4526
 1168ntf    sn2 8327   5.949   4.861   2.461  0.5018  0.2859 -0.1043
 1168ntf    nn3 8328   6.003   4.952   2.577 -0.0416  0.0571  0.3283
 1168ntf    sn2 8329   6.107   5.070   2.568  0.0430 -0.0557 -0.1656
 1168ntf    cn1 8330   6.004   5.220   2.570 -0.0073 -0.0965  0.2669
 1168ntf    fn4 8331   5.733   4.867   2.610 -0.2305 -0.4202  0.1845
 1168ntf    fn4 8332   5.759   4.702   2.472  0.0077 -0.5330  0.4687
 1168ntf    fn4 8333   5.869   4.715   2.662  0.3249  0.9453 -0.1477
 1168ntf    on5 8334   6.038   4.752   2.430  0.1207  0.0701 -0.4503
 1168ntf    on5 8335   5.887   4.935   2.353 -0.6051 -0.2809  0.1360
 1168ntf    on5 8336   6.168   5.063   2.698  0.4553  0.3947 -0.3330
 1168ntf    on5 8337   6.194   5.076   2.453  0.3289  0.0515  0.0561
 1168ntf    fn4 8338   5.934   5.231   2.682 -0.4135  0.2992 -0.0221
 1168ntf    fn4 8339   5.924   5.218   2.465  0.4849  0.2454 -0.1169
 1168ntf    fn4 8340   6.085   5.325   2.564 -0.0155 -0.0861  0.3280
 1169ntf    cn1 8341   4.040   0.605   2.062 -0.0226 -0.1312  0.2316
 1169ntf    sn2 8342   4.112   0.437   2.065 -0.1328 -0.1750  0.4450
 1169ntf    nn3 8343   4.151   0.415   2.215 -0.0079  0.1437  0.4602
 1169ntf    sn2 8344   4.283   0.457   2.289  0.2790 -0.1910  0.1403
 1169ntf    cn1 8345   4.214   0.544   2.433  0.0098 -0.0820 -0.0543
 1169ntf    fn4 8346   4.030   0.672   1.949 -0.1837  0.2022  0.4446
 1169ntf    fn4 8347   3.923   0.600   2.122 -0.1433 -0.3425 -0.0187
 1169ntf    fn4 8348   4.122   0.684   2.130 -0.2780  0.1309  0.2347
 1169ntf    on5 8349   3.996   0.356   2.040 -0.1652  0.1228 -0.4006
 1169ntf    on5 8350   4.220   0.442   1.969 -0.1969 -0.5204  0.3573
 1169ntf    on5 8351   4.362   0.359   2.360 -0.4944 -0.6964  0.3183
 1169ntf    on5 8352   4.361   0.564   2.232 -0.4782  0.0250 -0.5124
 1169ntf    fn4 8353   4.291   0.636   2.489 -0.1608 -0.0821  0.1848
 1169ntf    fn4 8354   4.181   0.457   2.527 -0.2613  0.1134  0.0323
 1169ntf    fn4 8355   4.099   0.606   2.411  0.1520  0.2439  0.1211
 1170ntf    cn1 8356   4.586   5.105   5.682  0.0544  0.0409 -0.0093
 1170ntf    sn2 8357   4.524   5.266   5.740 -0.0804 -0.0294  0.0410
 1170ntf    nn3 8358   4.565   5.363   5.624  0.4260 -0.1159  0.1492
 1170ntf    sn2 8359   4.626   5.507   5.618  0.3471 -0.0844  0.1211
 1170ntf    cn1 8360   4.800   5.461   5.591  0.2262 -0.3367 -0.2319
 1170ntf    fn4 8361   4.577   5.001   5.763 -0.1768  0.3158  0.3166
 1170ntf    fn4 8362   4.521   5.061   5.576 -0.4019  0.4548  0.0982
 1170ntf    fn4 8363   4.713   5.108   5.644 -0.2500  0.2207 -1.0426
 1170ntf    on5 8364   4.380   5.251   5.749 -0.1092  0.5348  0.5700
 1170ntf    on5 8365   4.585   5.273   5.871  0.2545  0.3531 -0.1343
 1170ntf    on5 8366   4.588   5.581   5.500  0.7975  0.5284  0.3513
 1170ntf    on5 8367   4.631   5.580   5.742  0.4819  0.2381 -0.0709
 1170ntf    fn4 8368   4.866   5.416   5.697  0.6369  0.2612 -0.2286
 1170ntf    fn4 8369   4.878   5.561   5.556  0.0804 -0.1429 -0.0080
 1170ntf    fn4 8370   4.806   5.361   5.504  0.3878 -0.2574 -0.3101
 1171ntf    cn1 8371   0.577   6.616   1.031 -0.1710  0.1290  0.4388
 1171ntf    sn2 8372   0.463   6.578   0.894 -0.3109  0.1999  0.5353
 1171ntf    nn3 8373   0.431   6.427   0.920 -0.1498  0.0404 -0.1670
 1171ntf    sn2 8374   0.309   6.358   0.990  0.0336 -0.1953 -0.0762
 1171ntf    cn1 8375   0.163   6.451   0.932  0.0669 -0.1680 -0.1165
 1171ntf    fn4 8376   0.669   6.527   1.063 -0.3611  0.1058  0.9291
 1171ntf    fn4 8377   0.650   6.725   1.013  0.4434 -0.2173  0.8157
 1171ntf    fn4 8378   0.504   6.646   1.137 -0.5569 -0.0253  0.2200
 1171ntf    on5 8379   0.354   6.670   0.914 -0.4461  0.1716 -0.0643
 1171ntf    on5 8380   0.540   6.583   0.772 -0.8242 -0.3159  0.1886
 1171ntf    on5 8381   0.285   6.223   0.947  0.0895 -0.1421 -0.2725
 1171ntf    on5 8382   0.307   6.373   1.134 -0.2203 -0.0299 -0.0965
 1171ntf    fn4 8383   0.053   6.382   0.955  0.0311 -0.3411 -0.7687
 1171ntf    fn4 8384   0.161   6.474   0.802  0.4655 -0.2022 -0.1314
 1171ntf    fn4 8385   0.151   6.565   0.998  0.2119 -0.0301 -0.3245
 1172ntf    cn1 8386   6.530   5.572   6.433 -0.3302  0.1591  0.4223
 1172ntf    sn2 8387   6.366   5.506   6.474 -0.0909 -0.3789  0.5141
 1172ntf    nn3 8388   6.347   5.548   6.624 -0.3819  0.3875  0.2681
 1172ntf    sn2 8389   6.358   5.459   6.753 -0.1944 -0.3730 -0.2662
 1172ntf    cn1 8390   6.409   5.589   6.869  0.1981 -0.4117 -0.3913
 1172ntf    fn4 8391   6.563   5.687   6.489 -0.0917  0.2007  0.2034
 1172ntf    fn4 8392   6.629   5.488   6.460  0.0117  0.5091  0.2748
 1172ntf    fn4 8393   6.543   5.596   6.303 -0.0714 -0.2370  0.3742
 1172ntf    on5 8394   6.283   5.593   6.396  0.6469 -0.0737  0.0554
 1172ntf    on5 8395   6.368   5.364   6.448 -0.0285 -0.3304  0.2514
 1172ntf    on5 8396   6.227   5.416   6.795 -0.4210  0.0637 -0.5277
 1172ntf    on5 8397   6.474   5.373   6.762  0.4501  0.5374  0.3712
 1172ntf    fn4 8398   6.508   5.666   6.826 -0.0505 -0.1572 -0.5185
 1172ntf    fn4 8399   6.445   5.534   6.983 -0.6978  0.1910  0.2008
 1172ntf    fn4 8400   6.302   5.663   6.894  0.0830 -0.7111  0.0174
 1173ntf    cn1 8401   3.010   2.257   5.184 -0.0908  0.0463 -0.0081
 1173ntf    sn2 8402   3.075   2.114   5.278 -0.1559 -0.1052 -0.1938
 1173ntf    nn3 8403   3.131   2.011   5.174  0.3311  0.2340 -0.2670
 1173ntf    sn2 8404   3.252   2.034   5.076  0.3379  0.0697 -0.2978
 1173ntf    cn1 8405   3.397   1.966   5.162  0.2834 -0.0000 -0.2599
 1173ntf    fn4 8406   2.945   2.223   5.075  0.1019 -0.4198  0.0179
 1173ntf    fn4 8407   2.918   2.315   5.259 -0.1947  0.0615 -0.1475
 1173ntf    fn4 8408   3.097   2.346   5.140 -0.5903  0.5263 -0.0185
 1173ntf    on5 8409   3.170   2.178   5.366 -0.6052 -0.4901  0.5785
 1173ntf    on5 8410   2.953   2.062   5.336  0.2738 -0.7890  0.0949
 1173ntf    on5 8411   3.241   1.958   4.955 -0.2680  0.1869 -0.3159
 1173ntf    on5 8412   3.279   2.175   5.059 -0.3288  0.2097 -0.2095
 1173ntf    fn4 8413   3.377   1.843   5.206 -0.2511  0.0638 -0.3247
 1173ntf    fn4 8414   3.447   2.043   5.258 -0.4253  0.1664 -0.0205
 1173ntf    fn4 8415   3.490   1.951   5.069  0.1172 -0.0604 -0.4167
 1174ntf    cn1 8416   4.724   2.697   2.378  0.2435 -0.2563  0.2806
 1174ntf    sn2 8417   4.567   2.613   2.414 -0.0355  0.0290 -0.2558
 1174ntf    nn3 8418   4.625   2.504   2.511  0.9879  0.3746 -0.4645
 1174ntf    sn2 8419   4.618   2.347   2.504  0.0069  0.3907  0.0264
 1174ntf    cn1 8420   4.794   2.319   2.468 -0.0764 -0.4526  0.2502
 1174ntf    fn4 8421   4.712   2.792   2.286  0.0715  0.0324  0.5966
 1174ntf    fn4 8422   4.774   2.753   2.487  0.0684 -0.1018  0.2821
 1174ntf    fn4 8423   4.816   2.621   2.322  0.8216  0.5802  0.0725
 1174ntf    on5 8424   4.500   2.727   2.471 -0.3294 -0.0808 -0.3825
 1174ntf    on5 8425   4.519   2.560   2.289 -0.2364 -0.1518 -0.1021
 1174ntf    on5 8426   4.592   2.271   2.624 -0.2055 -0.9880 -0.8726
 1174ntf    on5 8427   4.560   2.299   2.382  0.2501 -0.0700  0.0883
 1174ntf    fn4 8428   4.833   2.422   2.395  0.3059 -0.1650  0.8524
 1174ntf    fn4 8429   4.838   2.210   2.408  0.0321 -0.1700 -0.1861
 1174ntf    fn4 8430   4.858   2.334   2.583  0.2999 -0.1052 -0.0013
 1175ntf    cn1 8431   0.678   2.627   3.321  0.0005  0.0467 -0.2465
 1175ntf    sn2 8432   0.771   2.782   3.340 -0.0341  0.0463 -0.0707
 1175ntf    nn3 8433   0.909   2.747   3.406  0.1029  0.2710 -0.2336
 1175ntf    sn2 8434   0.952   2.738   3.557 -0.1384 -0.2203 -0.1900
 1175ntf    cn1 8435   1.082   2.865   3.548 -0.4642  0.1030 -0.3451
 1175ntf    fn4 8436   0.646   2.577   3.439  0.1348 -0.1565 -0.2964
 1175ntf    fn4 8437   0.568   2.641   3.248  0.0133  0.1436 -0.2479
 1175ntf    fn4 8438   0.754   2.542   3.255  0.3123  0.1085  0.0304
 1175ntf    on5 8439   0.791   2.834   3.207  0.1761  0.7061  0.2110
 1175ntf    on5 8440   0.681   2.859   3.422  0.2226  0.7868 -0.4682
 1175ntf    on5 8441   0.857   2.798   3.647 -0.0181 -0.0163 -0.1983
 1175ntf    on5 8442   1.029   2.620   3.586 -0.4857 -0.4568 -0.2321
 1175ntf    fn4 8443   1.054   2.975   3.479 -0.5401  0.1710 -0.2052
 1175ntf    fn4 8444   1.201   2.825   3.506 -0.3888 -0.0861  0.0474
 1175ntf    fn4 8445   1.121   2.908   3.667 -0.0004 -0.1740 -0.3923
 1176ntf    cn1 8446   4.215   6.579   1.855 -0.0619  0.0772 -0.0366
 1176ntf    sn2 8447   4.103   6.444   1.807 -0.2885  0.2552 -0.0085
 1176ntf    nn3 8448   3.963   6.491   1.860 -0.0409  0.3903  0.5339
 1176ntf    sn2 8449   3.844   6.397   1.901 -0.0471  0.3246  0.3663
 1176ntf    cn1 8450   3.874   6.392   2.080  0.2976  0.0510  0.3011
 1176ntf    fn4 8451   4.197   6.612   1.982 -0.1612  0.8069 -0.2346
 1176ntf    fn4 8452   4.345   6.559   1.845 -0.0736  0.1263 -0.3011
 1176ntf    fn4 8453   4.181   6.690   1.792 -0.5877 -0.1017 -0.0726
 1176ntf    on5 8454   4.115   6.439   1.663 -0.1260 -0.1347  0.0182
 1176ntf    on5 8455   4.160   6.330   1.874 -0.2549  0.4640  0.3231
 1176ntf    on5 8456   3.715   6.459   1.878 -0.5450 -0.8397 -0.0402
 1176ntf    on5 8457   3.854   6.261   1.857  0.1557  0.3543  0.3178
 1176ntf    fn4 8458   3.890   6.511   2.135  0.2108  0.0753  0.2739
 1176ntf    fn4 8459   3.991   6.336   2.106  0.3095 -0.0879 -0.0446
 1176ntf    fn4 8460   3.778   6.324   2.142 -0.0162  0.0524 -0.1829
 1177ntf    cn1 8461   1.905   4.279   3.450  0.1924  0.0985 -0.5187
 1177ntf    sn2 8462   2.060   4.351   3.513 -0.2285  0.1802  0.4405
 1177ntf    nn3 8463   2.144   4.219   3.511 -0.7141 -0.1247 -0.3630
 1177ntf    sn2 8464   2.164   4.126   3.636 -0.4304 -0.2237 -0.4816
 1177ntf    cn1 8465   2.333   4.184   3.669 -0.5797 -0.1019  0.0835
 1177ntf    fn4 8466   1.920   4.220   3.333  0.2862  0.7870 -0.8589
 1177ntf    fn4 8467   1.858   4.185   3.531  0.1102  0.4116 -0.2011
 1177ntf    fn4 8468   1.809   4.369   3.439  0.2428  0.1777 -0.3264
 1177ntf    on5 8469   2.091   4.435   3.400 -0.1982 -0.4594 -0.0321
 1177ntf    on5 8470   2.035   4.413   3.641 -0.1838  0.0589  0.5077
 1177ntf    on5 8471   2.080   4.152   3.750  0.3285  0.1093  0.0149
 1177ntf    on5 8472   2.187   3.989   3.600  0.4122  0.0572 -1.0483
 1177ntf    fn4 8473   2.398   4.126   3.769  0.1132 -0.6460 -0.6710
 1177ntf    fn4 8474   2.343   4.313   3.696  0.3998 -0.2167  0.3209
 1177ntf    fn4 8475   2.401   4.164   3.557  0.0612 -0.5307  0.5382
 1178ntf    cn1 8476   0.070   2.338   1.794  0.1644 -0.5364  1.0108
 1178ntf    sn2 8477   0.231   2.301   1.716 -0.2117 -0.1096  0.0104
 1178ntf    nn3 8478   0.310   2.255   1.844  0.6050  0.1719 -0.3896
 1178ntf    sn2 8479   0.325   2.118   1.918  0.1522  0.4040  0.1411
 1178ntf    cn1 8480   0.498   2.135   1.971  0.2314  0.0100  0.0168
 1178ntf    fn4 8481   0.078   2.441   1.877  0.4990  0.1003  0.2032
 1178ntf    fn4 8482  -0.024   2.366   1.705  0.7553  0.0064  0.5412
 1178ntf    fn4 8483   0.022   2.231   1.855 -0.1501 -0.5760  0.6973
 1178ntf    on5 8484   0.210   2.202   1.614  0.5277 -0.7347  0.4552
 1178ntf    on5 8485   0.285   2.428   1.674 -0.3018 -0.1596 -0.2594
 1178ntf    on5 8486   0.261   2.094   2.045 -0.6862 -0.4760 -0.4290
 1178ntf    on5 8487   0.336   2.001   1.834 -0.0106  0.7466 -0.3585
 1178ntf    fn4 8488   0.568   2.133   1.858 -0.0537  0.3861 -0.1689
 1178ntf    fn4 8489   0.547   2.040   2.049 -0.2788 -0.1739  0.1151
 1178ntf    fn4 8490   0.518   2.253   2.027 -0.4159  0.1574 -0.0516
 1179ntf    cn1 8491   2.971   1.154   3.834  0.1488  0.3438 -0.5695
 1179ntf    sn2 8492   3.153   1.148   3.834  0.1474  0.2688 -0.3016
 1179ntf    nn3 8493   3.171   1.148   3.990  0.1010 -0.2322 -0.2955
 1179ntf    sn2 8494   3.296   1.173   4.082 -0.2344  0.0280  0.0888
 1179ntf    cn1 8495   3.236   1.314   4.181 -0.4148  0.1959 -0.2550
 1179ntf    fn4 8496   2.913   1.218   3.935  0.3026 -0.2994 -0.0671
 1179ntf    fn4 8497   2.920   1.215   3.729 -0.8447 -0.1369 -0.3760
 1179ntf    fn4 8498   2.921   1.031   3.830  0.8031  0.0518  0.0452
 1179ntf    on5 8499   3.171   1.020   3.771 -0.2751  0.2342 -0.3587
 1179ntf    on5 8500   3.182   1.273   3.768  0.5173  0.1397 -0.3860
 1179ntf    on5 8501   3.314   1.080   4.190 -0.2908  0.1621  0.2140
 1179ntf    on5 8502   3.417   1.225   4.024  0.2243 -1.0842  0.0265
 1179ntf    fn4 8503   3.335   1.350   4.262 -0.1378 -0.2287 -0.3982
 1179ntf    fn4 8504   3.129   1.289   4.254  0.0221 -0.2489  0.2476
 1179ntf    fn4 8505   3.202   1.412   4.100 -0.2839 -0.3640 -0.9990
 1180ntf    cn1 8506   3.561   1.768   0.339  0.3382 -0.3400  0.3300
 1180ntf    sn2 8507   3.724   1.740   0.415  0.2361 -0.0969  0.6420
 1180ntf    nn3 8508   3.675   1.652   0.536 -0.0784  0.0474  0.6198
 1180ntf    sn2 8509   3.758   1.589   0.653  0.1059 -0.1893  0.3634
 1180ntf    cn1 8510   3.697   1.682   0.797  0.1414  0.0069  0.2518
 1180ntf    fn4 8511   3.490   1.865   0.393 -0.2221 -0.4352 -0.2210
 1180ntf    fn4 8512   3.584   1.804   0.214 -0.5170  0.0368  0.2806
 1180ntf    fn4 8513   3.485   1.660   0.334 -0.4702  0.2369  0.0845
 1180ntf    on5 8514   3.799   1.654   0.326  0.5440  0.8161  0.0026
 1180ntf    on5 8515   3.779   1.869   0.447  0.4866  0.1149 -0.5805
 1180ntf    on5 8516   3.718   1.456   0.694  0.3527 -0.2826  0.3050
 1180ntf    on5 8517   3.898   1.621   0.663  0.2099 -0.6259  0.3345
 1180ntf    fn4 8518   3.736   1.616   0.905 -0.7210  0.5963  0.9313
 1180ntf    fn4 8519   3.566   1.683   0.814  0.0864  0.3535 -0.1875
 1180ntf    fn4 8520   3.749   1.802   0.818  0.5307 -0.2250  0.6374
 1181ntf    cn1 8521   4.937   5.046   1.854 -0.0407  0.2100  0.0810
 1181ntf    sn2 8522   4.906   5.214   1.916 -0.3150  0.2317 -0.1124
 1181ntf    nn3 8523   4.759   5.195   1.967 -0.1035 -0.1890  0.3494
 1181ntf    sn2 8524   4.617   5.230   1.909 -0.0572 -0.1392  0.2648
 1181ntf    cn1 8525   4.617   5.406   1.953 -0.4211 -0.0057 -0.2652
 1181ntf    fn4 8526   4.865   5.010   1.750  0.4862 -0.5065 -0.0420
 1181ntf    fn4 8527   5.063   5.018   1.826  0.0145  0.0136  0.5100
 1181ntf    fn4 8528   4.916   4.959   1.952 -0.5511  0.0767 -0.1464
 1181ntf    on5 8529   5.009   5.238   2.014 -0.3860 -0.7608  0.2190
 1181ntf    on5 8530   4.927   5.301   1.803  0.1005 -0.3459 -0.4826
 1181ntf    on5 8531   4.596   5.236   1.767  0.0039  0.1528  0.2673
 1181ntf    on5 8532   4.510   5.176   1.988 -0.5079 -0.2157 -0.3905
 1181ntf    fn4 8533   4.607   5.420   2.084 -0.0014 -0.5242 -0.1757
 1181ntf    fn4 8534   4.523   5.480   1.896 -0.5090 -0.3794 -0.6027
 1181ntf    fn4 8535   4.735   5.460   1.925 -0.0984 -0.7257 -0.3173
 1182ntf    cn1 8536   5.060   4.352   5.985 -0.0753 -0.2539  0.0448
 1182ntf    sn2 8537   5.185   4.469   6.047 -0.1415 -0.1301 -0.0537
 1182ntf    nn3 8538   5.317   4.399   5.999  0.0360  0.2156 -0.0743
 1182ntf    sn2 8539   5.422   4.429   5.886 -0.0386  0.3378 -0.1115
 1182ntf    cn1 8540   5.371   4.295   5.774  0.1729 -0.0585  0.2580
 1182ntf    fn4 8541   4.933   4.374   6.017 -0.0208  0.0670  0.0500
 1182ntf    fn4 8542   5.082   4.337   5.855  0.2038 -0.5439  0.1248
 1182ntf    fn4 8543   5.088   4.233   6.035 -0.6722 -0.4933 -0.1797
 1182ntf    on5 8544   5.156   4.587   5.969  0.0222  0.0182  0.1104
 1182ntf    on5 8545   5.165   4.468   6.190 -0.2206 -0.7109 -0.0671
 1182ntf    on5 8546   5.420   4.556   5.819  0.1393  0.5121  0.2105
 1182ntf    on5 8547   5.549   4.383   5.936 -0.0912  0.2251 -0.0817
 1182ntf    fn4 8548   5.376   4.182   5.841 -0.0203  0.1085  0.5576
 1182ntf    fn4 8549   5.448   4.292   5.666 -0.3079 -0.1589 -0.0865
 1182ntf    fn4 8550   5.249   4.302   5.722  0.3583  0.0053 -0.1758
 1183ntf    cn1 8551   1.783   0.964   1.011  0.4482  0.5908  0.0361
 1183ntf    sn2 8552   1.698   0.845   1.118  0.5818  0.0007 -0.5036
 1183ntf    nn3 8553   1.632   0.954   1.210  0.5897 -0.2420 -0.2098
 1183ntf    sn2 8554   1.634   0.974   1.366 -0.0108 -0.3612 -0.1831
 1183ntf    cn1 8555   1.491   1.084   1.386 -0.2555 -0.7417  0.1768
 1183ntf    fn4 8556   1.860   1.042   1.085  0.3389  0.8783 -0.1511
 1183ntf    fn4 8557   1.862   0.899   0.926  0.8122  0.1618  0.6976
 1183ntf    fn4 8558   1.701   1.040   0.941  0.4140  0.2370 -0.3090
 1183ntf    on5 8559   1.615   0.776   1.022 -0.4896  0.3371  0.1539
 1183ntf    on5 8560   1.798   0.759   1.176  0.0932 -0.4075 -0.2542
 1183ntf    on5 8561   1.588   0.857   1.436 -0.1724 -0.1941 -0.0100
 1183ntf    on5 8562   1.743   1.046   1.426 -0.8853  0.2829  0.6591
 1183ntf    fn4 8563   1.475   1.134   1.508 -0.0911 -0.6296  0.1532
 1183ntf    fn4 8564   1.376   1.026   1.358 -0.4192 -0.1291 -0.4692
 1183ntf    fn4 8565   1.510   1.193   1.314 -1.0861 -0.7370 -0.0476
 1184ntf    cn1 8566   3.107   5.074   2.094 -0.3509  0.1755 -0.5459
 1184ntf    sn2 8567   3.250   4.971   2.047 -0.0654  0.2339  0.1983
 1184ntf    nn3 8568   3.169   4.847   1.996  0.7277 -0.3208  0.2704
 1184ntf    sn2 8569   3.147   4.812   1.845 -0.6143 -0.0494  0.3901
 1184ntf    cn1 8570   3.297   4.713   1.822 -0.4039  0.3934 -0.1847
 1184ntf    fn4 8571   3.009   5.002   2.147  0.1230  0.1282  0.2740
 1184ntf    fn4 8572   3.141   5.164   2.184 -0.1159 -0.4906  0.0362
 1184ntf    fn4 8573   3.065   5.139   1.987 -0.2252  0.8386 -0.1956
 1184ntf    on5 8574   3.322   5.054   1.954 -0.4103  1.1488  0.7253
 1184ntf    on5 8575   3.318   4.958   2.174 -0.1767  0.0287  0.2370
 1184ntf    on5 8576   3.046   4.709   1.840 -0.5738 -0.0656 -0.1882
 1184ntf    on5 8577   3.147   4.903   1.732  0.4878  0.0617  0.4755
 1184ntf    fn4 8578   3.413   4.758   1.868 -0.3467 -0.2073  0.2675
 1184ntf    fn4 8579   3.316   4.691   1.693  0.6302  0.6819 -0.0855
 1184ntf    fn4 8580   3.279   4.595   1.879 -0.1029  0.3634 -0.1482
 1185ntf    cn1 8581   5.758   3.242   5.250 -0.0700 -0.4280  0.2658
 1185ntf    sn2 8582   5.739   3.089   5.153  0.1190 -0.3561  0.1161
 1185ntf    nn3 8583   5.729   2.979   5.265  0.1968  0.3384  0.8149
 1185ntf    sn2 8584   5.826   2.860   5.297  0.0233 -0.0082  0.0733
 1185ntf    cn1 8585   5.707   2.744   5.370  0.2767 -0.3310 -0.0236
 1185ntf    fn4 8586   5.868   3.262   5.321 -0.1478  0.1230  0.2280
 1185ntf    fn4 8587   5.747   3.347   5.172 -0.2710 -0.5668  0.1058
 1185ntf    fn4 8588   5.656   3.248   5.335  0.1117  0.4925  0.4209
 1185ntf    on5 8589   5.621   3.116   5.075  0.0438 -0.3778  0.2216
 1185ntf    on5 8590   5.862   3.093   5.078  0.1653 -0.1849  0.2017
 1185ntf    on5 8591   5.872   2.778   5.188 -0.7918 -0.5828  0.1453
 1185ntf    on5 8592   5.914   2.880   5.410 -0.2399 -0.1263  0.3012
 1185ntf    fn4 8593   5.766   2.628   5.393  0.0279 -0.4357  0.0933
 1185ntf    fn4 8594   5.599   2.716   5.299  0.2406  0.4538 -0.2902
 1185ntf    fn4 8595   5.653   2.788   5.483 -0.0396  0.6545 -0.5424
 1186ntf    cn1 8596   3.472   2.265   4.279  0.3798  0.3621 -0.2631
 1186ntf    sn2 8597   3.357   2.181   4.392 -0.0091  0.4509 -0.5886
 1186ntf    nn3 8598   3.276   2.088   4.296  0.1547  0.1530 -0.4389
 1186ntf    sn2 8599   3.149   2.125   4.211 -0.3535  0.1636  0.3157
 1186ntf    cn1 8600   3.007   2.092   4.319 -0.4443  0.2050  0.2084
 1186ntf    fn4 8601   3.560   2.340   4.342  0.4162  0.1613 -0.0732
 1186ntf    fn4 8602   3.554   2.180   4.218 -0.2331 -0.3084 -0.1750
 1186ntf    fn4 8603   3.414   2.327   4.177 -0.2430 -0.2152 -0.2626
 1186ntf    on5 8604   3.450   2.110   4.477 -0.1270  0.0849 -0.7659
 1186ntf    on5 8605   3.283   2.289   4.453  0.5791  0.3609  0.3015
 1186ntf    on5 8606   3.128   2.262   4.170 -0.6484  0.1298  0.3517
 1186ntf    on5 8607   3.136   2.016   4.117 -0.7413  0.1269  0.4133
 1186ntf    fn4 8608   2.892   2.127   4.263 -0.4982  0.3178  0.3886
 1186ntf    fn4 8609   3.017   2.158   4.433 -0.2761  0.4052  0.0773
 1186ntf    fn4 8610   2.984   1.963   4.339 -0.1223  0.0951 -0.1259
 1187ntf    cn1 8611   5.290   5.716   3.618  0.0164 -0.5448 -0.1515
 1187ntf    sn2 8612   5.350   5.735   3.448 -0.0396 -0.4666 -0.1629
 1187ntf    nn3 8613   5.218   5.678   3.385 -0.5402  0.0196  0.4341
 1187ntf    sn2 8614   5.186   5.544   3.309 -0.2911  0.2273 -0.0395
 1187ntf    cn1 8615   5.036   5.490   3.396 -0.0967 -0.0226  0.1414
 1187ntf    fn4 8616   5.369   5.779   3.704  0.0701 -0.8254  0.0051
 1187ntf    fn4 8617   5.169   5.768   3.630  0.0119 -0.5922  0.0154
 1187ntf    fn4 8618   5.291   5.592   3.662 -0.0485 -0.6005 -0.3067
 1187ntf    on5 8619   5.353   5.877   3.427 -0.7468 -0.4296 -0.0431
 1187ntf    on5 8620   5.471   5.657   3.435  0.1647 -0.2957  0.7119
 1187ntf    on5 8621   5.154   5.565   3.170  0.7597 -0.0116 -0.3286
 1187ntf    on5 8622   5.286   5.445   3.340  0.0103  0.3329 -0.6588
 1187ntf    fn4 8623   4.933   5.563   3.357  0.0125  0.1564  0.1895
 1187ntf    fn4 8624   5.049   5.513   3.525  0.2243 -0.6680  0.2293
 1187ntf    fn4 8625   4.994   5.367   3.372 -0.0696  0.1015 -0.5583
 1188ntf    cn1 8626   3.747   4.421   5.436  0.3976  0.3468  0.0184
 1188ntf    sn2 8627   3.716   4.242   5.432  0.1947  0.3849 -0.1500
 1188ntf    nn3 8628   3.781   4.212   5.293  0.8652  0.7567  0.0797
 1188ntf    sn2 8629   3.918   4.144   5.256  0.2846 -0.3824 -0.0337
 1188ntf    cn1 8630   3.900   4.134   5.075  0.3321 -0.2882 -0.0441
 1188ntf    fn4 8631   3.704   4.484   5.544 -0.1755  0.5383 -0.3154
 1188ntf    fn4 8632   3.876   4.448   5.426  0.4496  0.1961  0.2800
 1188ntf    fn4 8633   3.681   4.474   5.334 -0.5578 -0.3698  0.2474
 1188ntf    on5 8634   3.767   4.188   5.556  0.3777 -0.3974 -0.5545
 1188ntf    on5 8635   3.571   4.241   5.427  0.2108  0.3679 -0.6052
 1188ntf    on5 8636   4.028   4.232   5.287  0.4573 -0.5132 -0.2675
 1188ntf    on5 8637   3.920   4.007   5.298 -0.7416 -0.3458  0.1680
 1188ntf    fn4 8638   3.830   4.025   5.049  0.0082 -0.1856  0.3927
 1188ntf    fn4 8639   4.012   4.122   5.005  0.2316  0.5724 -0.3754
 1188ntf    fn4 8640   3.838   4.245   5.037  0.4447 -0.0553  0.4425
 1189ntf    cn1 8641   3.906   3.187   1.064 -0.0980  0.2659 -0.1318
 1189ntf    sn2 8642   3.931   3.344   0.976  0.5487  0.0961 -0.2532
 1189ntf    nn3 8643   4.072   3.316   0.913  0.5826 -0.4099  0.0383
 1189ntf    sn2 8644   4.114   3.306   0.762  0.0606 -0.1544 -0.1233
 1189ntf    cn1 8645   4.175   3.476   0.741 -0.1598 -0.0895 -0.2416
 1189ntf    fn4 8646   4.017   3.147   1.125 -0.1157  0.1712 -0.1616
 1189ntf    fn4 8647   3.818   3.199   1.162  0.2503 -0.7915  0.3256
 1189ntf    fn4 8648   3.866   3.092   0.982  0.0872  0.0120  0.0710
 1189ntf    on5 8649   3.816   3.356   0.890  0.2281 -0.0597  0.1517
 1189ntf    on5 8650   3.939   3.438   1.086  0.1146  0.4966 -0.5616
 1189ntf    on5 8651   4.237   3.234   0.743 -0.1707 -0.5474 -0.1368
 1189ntf    on5 8652   4.001   3.300   0.672  0.1146  0.1534 -0.2121
 1189ntf    fn4 8653   4.090   3.576   0.763 -0.0024  0.0616 -0.3186
 1189ntf    fn4 8654   4.211   3.484   0.614 -0.0242  0.0190 -0.1956
 1189ntf    fn4 8655   4.286   3.493   0.811 -0.2553  0.2451 -0.1669
 1190ntf    cn1 8656   0.092   6.435   4.148 -0.0829 -0.1635 -0.0733
 1190ntf    sn2 8657   0.269   6.403   4.174 -0.0707 -0.2985 -0.3214
 1190ntf    nn3 8658   0.332   6.515   4.084 -0.2463 -0.0343 -0.1158
 1190ntf    sn2 8659   0.399   6.654   4.117 -0.4319 -0.0135  0.1776
 1190ntf    cn1 8660   0.499   6.651   3.965 -0.4072  0.9133  0.1736
 1190ntf    fn4 8661   0.060   6.454   4.021 -0.5484  0.3302  0.1166
 1190ntf    fn4 8662   0.009   6.345   4.199  0.0656 -0.1152  0.2577
 1190ntf    fn4 8663   0.062   6.551   4.203  0.3052 -0.0538 -0.0880
 1190ntf    on5 8664   0.283   6.430   4.315 -0.0720 -0.2759 -0.3255
 1190ntf    on5 8665   0.292   6.271   4.120  0.2672 -0.3329 -0.0993
 1190ntf    on5 8666   0.303   6.761   4.116 -0.3892  0.0418  1.1373
 1190ntf    on5 8667   0.500   6.661   4.219  0.3361 -0.5099 -0.5318
 1190ntf    fn4 8668   0.419   6.618   3.865  0.0812  0.3214 -0.0292
 1190ntf    fn4 8669   0.595   6.560   3.962 -0.8814  0.4150  0.0478
 1190ntf    fn4 8670   0.546   6.772   3.938  0.3984  0.6464  0.3297
 1191ntf    cn1 8671   5.962   0.398   1.220  0.3538  0.0932 -0.0320
 1191ntf    sn2 8672   5.930   0.361   1.045  0.1690 -0.1141  0.0447
 1191ntf    nn3 8673   5.895   0.501   0.984  0.2113 -0.0815  0.0952
 1191ntf    sn2 8674   5.757   0.576   0.988  0.3262  0.1210  0.3128
 1191ntf    cn1 8675   5.734   0.616   0.812  0.4539 -0.2754  0.2053
 1191ntf    fn4 8676   6.056   0.490   1.236 -0.3792  0.8930 -0.2380
 1191ntf    fn4 8677   5.854   0.450   1.276 -0.0816 -0.5235 -0.2967
 1191ntf    fn4 8678   5.996   0.295   1.295  0.1232 -0.1825 -0.3040
 1191ntf    on5 8679   6.063   0.330   0.999  0.2066 -0.1158  0.1539
 1191ntf    on5 8680   5.826   0.263   1.033  0.4409 -0.4034  0.0404
 1191ntf    on5 8681   5.641   0.494   1.015  0.4040 -0.0831  0.0268
 1191ntf    on5 8682   5.764   0.704   1.055 -0.5549  0.2282  0.2113
 1191ntf    fn4 8683   5.844   0.673   0.764  0.1107  0.3833  0.1773
 1191ntf    fn4 8684   5.639   0.704   0.781  0.3741 -0.3710  0.1783
 1191ntf    fn4 8685   5.700   0.511   0.739  0.0008  0.0634 -0.0783
 1192ntf    cn1 8686   1.757   6.185   6.525 -0.1119  0.2750  0.1858
 1192ntf    sn2 8687   1.700   6.148   6.694 -0.1012 -0.2859  0.0692
 1192ntf    nn3 8688   1.838   6.154   6.769 -0.1453 -0.1146  0.1376
 1192ntf    sn2 8689   1.879   6.256   6.880 -0.0203 -0.0363  0.0201
 1192ntf    cn1 8690   2.036   6.199   6.950 -0.0347 -0.0488  0.0428
 1192ntf    fn4 8691   1.656   6.206   6.442  0.2140  0.3038 -0.2048
 1192ntf    fn4 8692   1.826   6.296   6.507 -0.0739  0.1635 -0.3806
 1192ntf    fn4 8693   1.830   6.088   6.471 -0.1732  0.1599  0.3092
 1192ntf    on5 8694   1.614   6.257   6.733 -0.2845 -0.4611  0.1573
 1192ntf    on5 8695   1.639   6.020   6.665 -0.2112 -0.0392 -0.8272
 1192ntf    on5 8696   1.899   6.391   6.833  0.4875 -0.0491  0.2034
 1192ntf    on5 8697   1.785   6.235   6.988  0.3798  0.0279  0.3801
 1192ntf    fn4 8698   2.024   6.100   7.037 -0.4975  0.4069  0.5004
 1192ntf    fn4 8699   2.094   6.300   7.014  0.3978 -0.0414 -0.3510
 1192ntf    fn4 8700   2.122   6.167   6.854 -0.1012  0.2247 -0.1097
 1193ntf    cn1 8701   3.957   2.467   1.386  0.0128 -0.0738 -0.0716
 1193ntf    sn2 8702   3.800   2.527   1.317  0.0662 -0.0149 -0.1428
 1193ntf    nn3 8703   3.857   2.601   1.190  0.0461 -0.0061 -0.1466
 1193ntf    sn2 8704   3.917   2.547   1.055 -0.1001  0.4357 -0.3881
 1193ntf    cn1 8705   3.786   2.594   0.938 -0.5946 -0.1045 -0.0584
 1193ntf    fn4 8706   4.057   2.554   1.376 -0.5529  0.5781 -0.1512
 1193ntf    fn4 8707   3.958   2.441   1.515  0.5825  0.3256  0.0118
 1193ntf    fn4 8708   3.995   2.360   1.318 -0.3726 -0.0517 -0.3257
 1193ntf    on5 8709   3.716   2.415   1.283 -0.2593  0.3479 -0.5460
 1193ntf    on5 8710   3.761   2.611   1.427 -0.1365  0.5988 -0.6746
 1193ntf    on5 8711   4.032   2.624   1.013  0.5443 -0.2425  0.1097
 1193ntf    on5 8712   3.922   2.405   1.036 -0.1766  0.3731  0.0526
 1193ntf    fn4 8713   3.758   2.723   0.939 -0.3267 -0.0411 -0.3785
 1193ntf    fn4 8714   3.665   2.548   0.963 -0.4123 -0.5566 -0.0076
 1193ntf    fn4 8715   3.805   2.554   0.813 -0.3889  0.3715 -0.1822
 1194ntf    cn1 8716   2.755   0.749   1.514 -0.0209 -0.2538  0.3653
 1194ntf    sn2 8717   2.581   0.709   1.480 -0.0023 -0.1425  0.1386
 1194ntf    nn3 8718   2.512   0.839   1.535 -0.2466 -0.2408  0.0639
 1194ntf    sn2 8719   2.395   0.857   1.637 -0.0393 -0.2750  0.3083
 1194ntf    cn1 8720   2.484   0.877   1.794  0.1020  0.0257  0.1912
 1194ntf    fn4 8721   2.803   0.869   1.483 -0.5910 -0.0620  0.2133
 1194ntf    fn4 8722   2.787   0.740   1.642  0.1508 -0.6631  0.2941
 1194ntf    fn4 8723   2.834   0.659   1.457 -0.2667 -0.5895  0.5498
 1194ntf    on5 8724   2.555   0.695   1.339 -0.1519 -0.2810  0.1794
 1194ntf    on5 8725   2.560   0.589   1.556  0.1016 -0.2570 -0.0133
 1194ntf    on5 8726   2.327   0.982   1.612 -0.1833 -0.4113  0.0133
 1194ntf    on5 8727   2.305   0.747   1.665  0.2663 -0.4000  0.8159
 1194ntf    fn4 8728   2.584   0.791   1.803 -0.3639 -0.5388  0.0097
 1194ntf    fn4 8729   2.410   0.876   1.904  0.1511  0.0275  0.2243
 1194ntf    fn4 8730   2.551   0.990   1.784  0.2819 -0.0958  0.0298
 1195ntf    cn1 8731   5.595   5.476   4.236 -0.3073  0.1211 -0.0098
 1195ntf    sn2 8732   5.700   5.497   4.383 -0.4256  0.2048  0.0642
 1195ntf    nn3 8733   5.631   5.387   4.471 -0.0071 -0.2702 -0.1912
 1195ntf    sn2 8734   5.542   5.407   4.599  0.0844  0.2274 -0.2050
 1195ntf    cn1 8735   5.639   5.314   4.722 -0.2265  0.2793  0.0827
 1195ntf    fn4 8736   5.467   5.497   4.261 -0.2847  0.5756 -0.2562
 1195ntf    fn4 8737   5.630   5.565   4.144  0.0925  0.0603  0.0835
 1195ntf    fn4 8738   5.592   5.357   4.180  0.4164 -0.0760  0.3629
 1195ntf    on5 8739   5.827   5.453   4.330 -0.2076 -0.0253  0.7664
 1195ntf    on5 8740   5.680   5.638   4.404  0.0710  0.2956 -0.0566
 1195ntf    on5 8741   5.552   5.539   4.657 -0.3189  0.1165  0.1220
 1195ntf    on5 8742   5.417   5.335   4.590  0.2109 -0.0271  0.0532
 1195ntf    fn4 8743   5.670   5.193   4.679 -0.5832 -0.0182  0.6523
 1195ntf    fn4 8744   5.565   5.294   4.830  0.1094  0.4756  0.3484
 1195ntf    fn4 8745   5.749   5.374   4.764  0.1586 -0.1595 -0.2975
 1196ntf    cn1 8746   6.425   3.270   4.135  0.3061  0.6186  0.3081
 1196ntf    sn2 8747   6.299   3.274   4.266  0.0071  0.3381  0.0324
 1196ntf    nn3 8748   6.346   3.154   4.357 -0.3764  0.3199  0.2087
 1196ntf    sn2 8749   6.448   3.150   4.476  0.1964  0.2657 -0.2754
 1196ntf    cn1 8750   6.321   3.178   4.604  0.0492 -0.4785 -0.2539
 1196ntf    fn4 8751   6.406   3.358   4.038 -0.1998  0.2583  0.0762
 1196ntf    fn4 8752   6.546   3.288   4.185  0.4548  0.2590  0.0817
 1196ntf    fn4 8753   6.432   3.151   4.077 -0.8513  0.6698  0.0221
 1196ntf    on5 8754   6.312   3.400   4.334 -0.4163  0.4947 -0.1776
 1196ntf    on5 8755   6.177   3.246   4.195  0.2203  0.4357 -0.3763
 1196ntf    on5 8756   6.495   3.018   4.510  0.2750  0.2533 -0.4349
 1196ntf    on5 8757   6.544   3.257   4.483  1.1833 -0.6104 -0.2252
 1196ntf    fn4 8758   6.378   3.193   4.722 -0.2111 -0.1690 -0.1666
 1196ntf    fn4 8759   6.236   3.077   4.618 -0.0946 -0.3255 -0.0167
 1196ntf    fn4 8760   6.244   3.283   4.580 -0.0931 -0.5334 -0.0383
 1197ntf    cn1 8761   6.505   4.191   0.951 -0.2121  0.4998  0.0835
 1197ntf    sn2 8762   6.525   4.197   1.132 -0.2353  0.0696  0.1026
 1197ntf    nn3 8763   6.677   4.169   1.160 -0.2073 -0.3090 -0.4209
 1197ntf    sn2 8764   6.767   4.205   1.283 -0.6460  0.0804 -0.2124
 1197ntf    cn1 8765   6.864   4.347   1.223  0.0481 -0.2697  0.0721
 1197ntf    fn4 8766   6.388   4.234   0.907 -0.2007  0.2246 -0.2207
 1197ntf    fn4 8767   6.603   4.259   0.894  0.3681 -0.3692  0.0339
 1197ntf    fn4 8768   6.519   4.065   0.912 -0.4382  0.6748 -0.5704
 1197ntf    on5 8769   6.483   4.331   1.164  0.1852  0.2196  0.0386
 1197ntf    on5 8770   6.443   4.085   1.170  0.3648 -0.2027  0.5967
 1197ntf    on5 8771   6.699   4.252   1.401 -0.9945 -0.5368 -0.1653
 1197ntf    on5 8772   6.867   4.105   1.307 -0.4393  0.2723 -0.2657
 1197ntf    fn4 8773   6.924   4.329   1.106  0.4662  0.6136  0.1403
 1197ntf    fn4 8774   6.963   4.386   1.301  0.1554 -0.1340 -0.1288
 1197ntf    fn4 8775   6.787   4.452   1.200  0.2924 -0.1476 -0.1955
 1198ntf    cn1 8776   1.946   6.432   0.988  0.4699  0.3869  0.2259
 1198ntf    sn2 8777   1.881   6.403   0.820  1.0336 -0.0984  0.0919
 1198ntf    nn3 8778   1.882   6.547   0.759  0.6249 -0.3134 -0.4321
 1198ntf    sn2 8779   1.788   6.619   0.656  0.3724 -0.1299 -0.0739
 1198ntf    cn1 8780   1.918   6.646   0.532  0.4650 -0.4520 -0.0476
 1198ntf    fn4 8781   2.076   6.450   0.996  0.5992 -0.2518 -0.3391
 1198ntf    fn4 8782   1.892   6.540   1.041  0.4024  0.2796  0.3760
 1198ntf    fn4 8783   1.921   6.334   1.073 -0.1258  0.1560 -0.2021
 1198ntf    on5 8784   1.969   6.304   0.761  0.2326 -0.3879 -0.6268
 1198ntf    on5 8785   1.751   6.345   0.844  0.7151  0.3996 -0.4170
 1198ntf    on5 8786   1.687   6.539   0.592  0.2951  0.1415 -0.2945
 1198ntf    on5 8787   1.748   6.751   0.700  0.2854 -0.1646 -0.0500
 1198ntf    fn4 8788   2.017   6.722   0.577 -0.2344  0.2783  0.2845
 1198ntf    fn4 8789   1.871   6.716   0.430 -0.1032 -0.4346  0.2224
 1198ntf    fn4 8790   1.974   6.541   0.476  0.3678 -0.4334 -0.1798
 1199ntf    cn1 8791   0.721   0.767   3.312  0.1505 -0.0331 -0.0020
 1199ntf    sn2 8792   0.609   0.893   3.380 -0.1713 -0.3407  0.0344
 1199ntf    nn3 8793   0.676   0.933   3.516 -0.0230 -0.1919 -0.0836
 1199ntf    sn2 8794   0.650   1.054   3.613  0.2507  0.0621 -0.3223
 1199ntf    cn1 8795   0.802   1.150   3.587  0.3475 -0.0910 -0.3258
 1199ntf    fn4 8796   0.840   0.816   3.279  0.2062  0.0436  0.3172
 1199ntf    fn4 8797   0.744   0.672   3.401 -0.2213  0.0884  0.2234
 1199ntf    fn4 8798   0.679   0.709   3.200  0.1197 -0.2831  0.1397
 1199ntf    on5 8799   0.605   0.999   3.283  0.0000  0.2942  0.7113
 1199ntf    on5 8800   0.487   0.818   3.398 -0.3856 -0.0476 -0.2041
 1199ntf    on5 8801   0.538   1.139   3.582  0.3236  0.2406 -0.1000
 1199ntf    on5 8802   0.665   1.019   3.752  0.8234  0.4194 -0.2890
 1199ntf    fn4 8803   0.803   1.272   3.638 -0.2328 -0.0796 -0.3295
 1199ntf    fn4 8804   0.815   1.164   3.456  0.3599  0.3214 -0.2804
 1199ntf    fn4 8805   0.911   1.087   3.627 -0.0756 -0.4505  0.2699
 1200ntf    cn1 8806   3.145   5.275   1.314 -0.0127  0.3500  0.2633
 1200ntf    sn2 8807   3.067   5.321   1.156  0.2646  0.1750  0.0756
 1200ntf    nn3 8808   2.997   5.454   1.202  0.2809  0.4504 -0.6937
 1200ntf    sn2 8809   2.848   5.492   1.172 -0.0926 -0.1929  0.3018
 1200ntf    cn1 8810   2.752   5.394   1.292 -0.2925  0.1105  0.3914
 1200ntf    fn4 8811   3.228   5.174   1.299 -0.0462  0.3364  0.1666
 1200ntf    fn4 8812   3.209   5.372   1.378  0.4324  0.0277  0.3056
 1200ntf    fn4 8813   3.063   5.232   1.409  0.1807  1.0329  0.7498
 1200ntf    on5 8814   3.177   5.342   1.066 -0.0603  1.1249 -0.1088
 1200ntf    on5 8815   2.973   5.214   1.132  0.6300 -0.1584  0.1195
 1200ntf    on5 8816   2.825   5.625   1.225  0.1957 -0.0032 -0.0472
 1200ntf    on5 8817   2.788   5.466   1.043 -0.2093  0.4907  0.2137
 1200ntf    fn4 8818   2.816   5.394   1.408  0.2041  0.0331  0.1204
 1200ntf    fn4 8819   2.742   5.265   1.268 -0.0292  0.1210  0.2177
 1200ntf    fn4 8820   2.636   5.451   1.320 -0.5334 -0.1139 -0.1383
 1201ntf    cn1 8821   5.892   3.449   6.474  0.2466  0.0731  0.0465
 1201ntf    sn2 8822   5.947   3.433   6.646 -0.1652  0.0515  0.1788
 1201ntf    nn3 8823   6.054   3.548   6.657 -0.2448  0.2106 -0.6227
 1201ntf    sn2 8824   6.029   3.694   6.709 -0.3965 -0.0482  0.0402
 1201ntf    cn1 8825   6.041   3.677   6.890  0.0579  0.0244  0.0175
 1201ntf    fn4 8826   5.785   3.380   6.435 -0.0208  0.2286  0.4951
 1201ntf    fn4 8827   5.853   3.574   6.451 -0.0787  0.0305  0.3544
 1201ntf    fn4 8828   5.985   3.419   6.385 -0.2614 -0.4008 -0.3373
 1201ntf    on5 8829   5.833   3.437   6.734  0.0518  0.5603  0.4365
 1201ntf    on5 8830   6.022   3.309   6.646 -0.2468  0.0021  0.1994
 1201ntf    on5 8831   6.143   3.773   6.670  0.3069 -0.9732  0.1738
 1201ntf    on5 8832   5.893   3.739   6.693 -0.5033 -0.3674  0.0299
 1201ntf    fn4 8833   5.971   3.580   6.945 -0.0196  0.0446 -0.0468
 1201ntf    fn4 8834   6.009   3.794   6.943 -0.1263  0.0019 -0.0453
 1201ntf    fn4 8835   6.167   3.652   6.924  0.0087  0.2914  0.3998
 1202ntf    cn1 8836   4.034   0.039   0.184 -0.0369  0.1011  0.0063
 1202ntf    sn2 8837   4.029   0.206   0.113  0.2600 -0.0115 -0.2770
 1202ntf    nn3 8838   4.055   0.284   0.247  0.1738  0.3673 -0.4797
 1202ntf    sn2 8839   3.946   0.363   0.328 -0.1396 -0.2733 -0.2756
 1202ntf    cn1 8840   4.003   0.352   0.500  0.0588  0.0536 -0.3202
 1202ntf    fn4 8841   4.155   0.018   0.231 -0.1475 -0.6727 -0.0387
 1202ntf    fn4 8842   3.948   0.023   0.284 -0.3861  0.0664 -0.2990
 1202ntf    fn4 8843   4.014  -0.060   0.099  0.3456  0.2013 -0.1977
 1202ntf    on5 8844   4.146   0.202   0.028  0.1690 -0.1864 -0.3936
 1202ntf    on5 8845   3.900   0.216   0.050 -0.4084 -0.4734  0.9987
 1202ntf    on5 8846   3.950   0.504   0.298  0.1738 -0.1685  0.2536
 1202ntf    on5 8847   3.818   0.300   0.351 -0.4583  0.4600 -0.0323
 1202ntf    fn4 8848   4.017   0.225   0.534 -0.2103  0.3279  0.8676
 1202ntf    fn4 8849   3.902   0.381   0.581  0.0847  0.0202 -0.2758
 1202ntf    fn4 8850   4.111   0.423   0.531  0.3578 -0.3965 -0.3215
 1203ntf    cn1 8851   3.948   3.393   2.433 -0.0756  0.2479  0.3639
 1203ntf    sn2 8852   4.101   3.295   2.441 -0.0143  0.2679 -0.4924
 1203ntf    nn3 8853   4.033   3.156   2.467 -0.1761  0.4265 -0.0560
 1203ntf    sn2 8854   4.026   3.087   2.608 -0.2306  0.1110 -0.2135
 1203ntf    cn1 8855   4.196   3.035   2.643 -0.2621  0.1379 -0.0200
 1203ntf    fn4 8856   3.893   3.399   2.554 -0.4686  0.1628  0.1888
 1203ntf    fn4 8857   3.962   3.518   2.392  0.0199  0.2114  0.2837
 1203ntf    fn4 8858   3.865   3.330   2.353 -0.0786  0.2071  0.3987
 1203ntf    on5 8859   4.166   3.304   2.313  0.2010  0.0830 -0.3965
 1203ntf    on5 8860   4.167   3.362   2.551 -0.7899  0.4269 -0.1161
 1203ntf    on5 8861   3.985   3.172   2.717  0.5619  0.3970 -0.1362
 1203ntf    on5 8862   3.945   2.968   2.593  0.0184 -0.0822 -0.0186
 1203ntf    fn4 8863   4.209   2.993   2.768 -0.1365  0.2790  0.0149
 1203ntf    fn4 8864   4.286   3.129   2.619  0.0760 -0.2386 -0.2300
 1203ntf    fn4 8865   4.235   2.931   2.571 -0.1732 -0.1703  0.4674
 1204ntf    cn1 8866   5.404   2.683   2.485 -0.1393 -0.2691  0.1633
 1204ntf    sn2 8867   5.487   2.770   2.348 -0.1442 -0.0131  0.3221
 1204ntf    nn3 8868   5.358   2.829   2.280 -0.3352 -0.1549  0.5588
 1204ntf    sn2 8869   5.292   2.970   2.295  0.0394  0.0778  0.0645
 1204ntf    cn1 8870   5.121   2.920   2.257  0.1911 -0.1312 -0.3417
 1204ntf    fn4 8871   5.304   2.749   2.541 -0.4325  0.0720 -0.7415
 1204ntf    fn4 8872   5.380   2.553   2.476  0.5872 -0.3748 -0.3890
 1204ntf    fn4 8873   5.488   2.690   2.587  0.3556  0.5495 -0.2887
 1204ntf    on5 8874   5.583   2.852   2.418  0.0056  0.6039 -0.5998
 1204ntf    on5 8875   5.533   2.657   2.271  0.2300  0.3712 -0.0266
 1204ntf    on5 8876   5.291   3.026   2.428  0.1629  0.1730  0.0252
 1204ntf    on5 8877   5.331   3.065   2.194 -0.5539  0.3285  0.0661
 1204ntf    fn4 8878   5.124   2.867   2.136  0.3389  0.1390 -0.4585
 1204ntf    fn4 8879   5.033   3.018   2.270  0.7965  0.3697  0.0286
 1204ntf    fn4 8880   5.086   2.824   2.340 -0.2139  0.5142  0.2421
 1205ntf    cn1 8881   0.727   2.525   6.131 -0.3445  0.0921  0.1061
 1205ntf    sn2 8882   0.637   2.372   6.168 -0.0361 -0.1080  0.0367
 1205ntf    nn3 8883   0.549   2.339   6.042  0.5724 -0.1850 -0.3695
 1205ntf    sn2 8884   0.543   2.220   5.940 -0.1837 -0.2484 -0.2580
 1205ntf    cn1 8885   0.541   2.303   5.779 -0.2216  0.4041  0.0751
 1205ntf    fn4 8886   0.822   2.541   6.222 -0.2991  0.0123  0.0727
 1205ntf    fn4 8887   0.786   2.520   6.012 -0.1684 -0.2038  0.2053
 1205ntf    fn4 8888   0.652   2.634   6.133 -0.0768  0.2783  0.0935
 1205ntf    on5 8889   0.724   2.266   6.211  0.2340  0.0062 -0.2268
 1205ntf    on5 8890   0.550   2.423   6.272  0.0583 -0.2951  0.2094
 1205ntf    on5 8891   0.661   2.138   5.922 -0.2450 -0.4811  0.3743
 1205ntf    on5 8892   0.416   2.152   5.944 -0.5881  0.5163 -0.0968
 1205ntf    fn4 8893   0.456   2.403   5.769 -0.3906  0.2499 -0.0348
 1205ntf    fn4 8894   0.500   2.223   5.681  0.2067  0.6153 -0.2796
 1205ntf    fn4 8895   0.658   2.352   5.740  0.0126 -0.3672 -0.2286
 1206ntf    cn1 8896   5.305   0.965   4.693 -0.2895  0.0519  0.0488
 1206ntf    sn2 8897   5.470   1.006   4.757  0.0362 -0.2890 -0.5635
 1206ntf    nn3 8898   5.557   0.939   4.644  0.2248 -0.5580 -0.2610
 1206ntf    sn2 8899   5.582   0.986   4.497 -0.1068 -0.0631 -0.1617
 1206ntf    cn1 8900   5.761   1.012   4.511 -0.1427  0.1519 -0.0949
 1206ntf    fn4 8901   5.298   0.997   4.565 -0.2089 -0.2381 -0.0288
 1206ntf    fn4 8902   5.262   0.841   4.710 -0.2684  0.0235 -0.1052
 1206ntf    fn4 8903   5.210   1.037   4.750 -0.5391 -0.1279 -0.1375
 1206ntf    on5 8904   5.478   1.150   4.761 -1.0634 -0.2351 -0.0234
 1206ntf    on5 8905   5.473   0.933   4.881 -0.2755  0.6705  0.0227
 1206ntf    on5 8906   5.581   0.883   4.397 -0.3183 -0.2737  0.0577
 1206ntf    on5 8907   5.528   1.114   4.458 -0.0793  0.0073  0.0340
 1206ntf    fn4 8908   5.826   0.982   4.400 -0.7079 -0.3770 -0.2858
 1206ntf    fn4 8909   5.818   0.940   4.607 -0.0507 -0.3321 -0.5081
 1206ntf    fn4 8910   5.793   1.136   4.543 -0.3656  0.1307  0.2156
 1207ntf    cn1 8911   2.392   1.207   2.299 -0.0106  0.1986  0.1673
 1207ntf    sn2 8912   2.256   1.167   2.185  0.2005 -0.1016  0.0188
 1207ntf    nn3 8913   2.164   1.293   2.195  0.1589 -0.1384  0.0987
 1207ntf    sn2 8914   2.041   1.339   2.108  0.4822  0.1623 -0.2001
 1207ntf    cn1 8915   1.914   1.321   2.236  0.5391  0.1141 -0.1502
 1207ntf    fn4 8916   2.460   1.317   2.272 -0.0768 -0.0252 -1.0011
 1207ntf    fn4 8917   2.340   1.216   2.420 -0.0205 -0.2561  0.1987
 1207ntf    fn4 8918   2.480   1.109   2.316  0.1698  0.2693 -0.3362
 1207ntf    on5 8919   2.325   1.157   2.058 -0.1971 -0.5509 -0.1671
 1207ntf    on5 8920   2.199   1.046   2.239  0.2436 -0.3849 -0.5556
 1207ntf    on5 8921   2.061   1.478   2.074  0.0854  0.1419 -0.5186
 1207ntf    on5 8922   1.991   1.258   2.000 -0.0439 -0.2472  0.3476
 1207ntf    fn4 8923   1.894   1.191   2.254 -0.2390  0.2174 -0.2507
 1207ntf    fn4 8924   1.798   1.373   2.198  0.4592  0.0690  0.0296
 1207ntf    fn4 8925   1.948   1.373   2.353  0.1303  0.6551 -0.2682
 1208ntf    cn1 8926   3.227   0.296   4.780  0.0472  0.0782  0.0025
 1208ntf    sn2 8927   3.258   0.380   4.621  0.0710  0.1691  0.0548
 1208ntf    nn3 8928   3.216   0.523   4.672  0.4288  0.2606  0.0949
 1208ntf    sn2 8929   3.282   0.647   4.743  0.1618  0.6595 -0.3488
 1208ntf    cn1 8930   3.177   0.772   4.662 -0.2217  0.3802 -0.2905
 1208ntf    fn4 8931   3.236   0.164   4.784  0.8753  0.1469  0.6753
 1208ntf    fn4 8932   3.305   0.347   4.874 -0.1362  0.5473 -0.0969
 1208ntf    fn4 8933   3.101   0.320   4.810  0.0244 -0.5221  0.4016
 1208ntf    on5 8934   3.397   0.352   4.596  0.0509  0.7134 -0.6852
 1208ntf    on5 8935   3.162   0.318   4.534  0.2548  0.2653 -0.2150
 1208ntf    on5 8936   3.230   0.656   4.877  0.0905 -0.0252 -0.3271
 1208ntf    on5 8937   3.415   0.689   4.709  0.2449  0.2796 -0.5065
 1208ntf    fn4 8938   3.227   0.894   4.670 -0.5402  0.5102 -0.2775
 1208ntf    fn4 8939   3.052   0.765   4.702  0.0629  0.3287  0.5950
 1208ntf    fn4 8940   3.172   0.756   4.530  0.6292 -0.1665 -0.2734
 1209ntf    cn1 8941   1.943   3.186   4.119 -0.6324 -0.7557 -0.1016
 1209ntf    sn2 8942   1.800   3.225   4.013 -0.2385  0.1806 -0.2939
 1209ntf    nn3 8943   1.860   3.351   3.941  0.3459  0.1735  0.1715
 1209ntf    sn2 8944   1.865   3.388   3.789  0.3321  0.2497  0.1890
 1209ntf    cn1 8945   1.797   3.556   3.796  0.1132  0.1570  0.2953
 1209ntf    fn4 8946   2.053   3.183   4.046 -0.8607  0.9307 -0.5588
 1209ntf    fn4 8947   1.953   3.275   4.216 -0.1539  0.2124 -1.0220
 1209ntf    fn4 8948   1.928   3.067   4.176  0.2508 -0.5514  0.5755
 1209ntf    on5 8949   1.798   3.111   3.925  0.0897 -0.0253 -0.0371
 1209ntf    on5 8950   1.691   3.258   4.102  0.4595  0.1501  0.5912
 1209ntf    on5 8951   2.002   3.406   3.747  0.2464 -0.2998 -0.3402
 1209ntf    on5 8952   1.777   3.318   3.698  0.1401  0.5224  0.1638
 1209ntf    fn4 8953   1.848   3.638   3.706 -0.2764  0.0407 -0.0332
 1209ntf    fn4 8954   1.820   3.607   3.917 -0.1331  0.0574  0.3853
 1209ntf    fn4 8955   1.666   3.561   3.781  0.1753 -0.4738 -0.4425
 1210ntf    cn1 8956   2.690   6.360   6.293  0.0756 -0.2026  0.1214
 1210ntf    sn2 8957   2.584   6.301   6.429  0.0543 -0.3364  0.0466
 1210ntf    nn3 8958   2.698   6.287   6.536 -0.0157 -0.1733  0.1421
 1210ntf    sn2 8959   2.699   6.189   6.658 -0.2518 -0.2452  0.0863
 1210ntf    cn1 8960   2.823   6.073   6.594  0.0584 -0.0355  0.3062
 1210ntf    fn4 8961   2.739   6.480   6.321 -0.5826  0.0638  0.1583
 1210ntf    fn4 8962   2.799   6.289   6.274  0.1502  0.1131 -0.6827
 1210ntf    fn4 8963   2.620   6.375   6.181  0.0737 -0.1249  0.1324
 1210ntf    on5 8964   2.497   6.415   6.446 -0.5706 -0.7613 -0.2439
 1210ntf    on5 8965   2.531   6.175   6.383  0.1178 -0.4009  0.1492
 1210ntf    on5 8966   2.768   6.239   6.774 -0.0245  0.0580 -0.1804
 1210ntf    on5 8967   2.579   6.112   6.683  0.1440 -0.8246  0.2240
 1210ntf    fn4 8968   2.771   5.983   6.512 -0.1910 -0.0220  0.4485
 1210ntf    fn4 8969   2.882   6.007   6.692 -0.3770 -0.0837  0.5394
 1210ntf    fn4 8970   2.917   6.137   6.526  0.0562 -0.5127 -0.1541
 1211ntf    cn1 8971   5.757   4.647   0.277  0.0868 -0.0723 -0.2336
 1211ntf    sn2 8972   5.798   4.817   0.228  0.0440 -0.0136 -0.0677
 1211ntf    nn3 8973   5.674   4.858   0.141  0.7017  1.0324 -0.5330
 1211ntf    sn2 8974   5.544   4.935   0.185  0.0537 -0.3002 -0.0597
 1211ntf    cn1 8975   5.592   5.111   0.195 -0.2787 -0.1862 -0.4505
 1211ntf    fn4 8976   5.757   4.553   0.184  0.2290 -0.3545  0.0496
 1211ntf    fn4 8977   5.836   4.600   0.373 -0.7009 -0.5696  0.1814
 1211ntf    fn4 8978   5.634   4.642   0.326  0.2922 -0.2523  0.2653
 1211ntf    on5 8979   5.803   4.891   0.352 -0.4511 -0.1769  0.0519
 1211ntf    on5 8980   5.919   4.805   0.151  0.0501  0.9837 -0.2348
 1211ntf    on5 8981   5.449   4.942   0.076 -0.0101 -0.1943  0.0026
 1211ntf    on5 8982   5.492   4.905   0.316  0.0437 -0.8078 -0.1777
 1211ntf    fn4 8983   5.680   5.137   0.100  0.0288 -0.2489 -0.1802
 1211ntf    fn4 8984   5.645   5.148   0.310 -0.8292 -0.0728 -0.2297
 1211ntf    fn4 8985   5.487   5.187   0.170  0.0863  0.3472 -0.3661
 1212ntf    cn1 8986   4.663   3.720   0.756 -0.2293 -0.2269  0.5289
 1212ntf    sn2 8987   4.729   3.864   0.845  0.0588 -0.1589  0.2083
 1212ntf    nn3 8988   4.615   3.964   0.803  0.6439  0.4298  0.0038
 1212ntf    sn2 8989   4.524   4.045   0.902  0.3938  0.2220 -0.0559
 1212ntf    cn1 8990   4.465   4.184   0.800 -0.1280  0.1969  0.2038
 1212ntf    fn4 8991   4.534   3.708   0.784 -0.2321  0.0326  0.6341
 1212ntf    fn4 8992   4.671   3.728   0.624  0.0776  0.9557  0.6084
 1212ntf    fn4 8993   4.712   3.606   0.802  0.1805 -0.0701  0.4788
 1212ntf    on5 8994   4.724   3.821   0.983 -0.2678  0.0833  0.2727
 1212ntf    on5 8995   4.851   3.895   0.776 -0.1885 -0.3444 -0.3157
 1212ntf    on5 8996   4.405   3.975   0.945  0.0985  0.8955  0.2497
 1212ntf    on5 8997   4.607   4.110   1.000 -0.2118  0.7528  0.1193
 1212ntf    fn4 8998   4.545   4.289   0.786  0.0271 -0.0204 -0.5785
 1212ntf    fn4 8999   4.357   4.234   0.858 -0.2480 -0.0548  0.1973
 1212ntf    fn4 9000   4.439   4.142   0.677  0.0517  0.4851  0.0659
 1213ntf    cn1 9001   5.386   4.349   3.314 -0.6113  0.0639 -0.4439
 1213ntf    sn2 9002   5.459   4.452   3.183  0.1038 -0.2148 -0.2692
 1213ntf    nn3 9003   5.488   4.337   3.079 -0.3399 -0.2250 -0.3827
 1213ntf    sn2 9004   5.490   4.324   2.923 -0.0619  0.0807 -0.4064
 1213ntf    cn1 9005   5.671   4.307   2.916 -0.0662 -0.3224  0.3291
 1213ntf    fn4 9006   5.284   4.283   3.264 -0.7619  0.4243 -0.6154
 1213ntf    fn4 9007   5.468   4.261   3.368 -0.4175  0.5187  0.0188
 1213ntf    fn4 9008   5.343   4.420   3.417  0.1893 -0.0960  0.0109
 1213ntf    on5 9009   5.354   4.546   3.157 -0.1952 -0.4950 -0.0845
 1213ntf    on5 9010   5.580   4.506   3.241  0.1390 -0.0964 -0.4550
 1213ntf    on5 9011   5.447   4.195   2.875  0.0543  0.1049 -0.5743
 1213ntf    on5 9012   5.459   4.444   2.850 -0.7031  0.3551  0.3044
 1213ntf    fn4 9013   5.716   4.206   2.989 -0.5209 -0.3555  0.5691
 1213ntf    fn4 9014   5.722   4.417   2.969 -0.0070 -0.2474  0.1169
 1213ntf    fn4 9015   5.725   4.302   2.796  0.4530 -0.2648  0.5591
 1214ntf    cn1 9016   2.019   2.497   5.576  0.3153  0.0971 -0.1933
 1214ntf    sn2 9017   1.897   2.583   5.471  0.0919  0.2809  0.2124
 1214ntf    nn3 9018   1.781   2.479   5.454  0.4302 -0.0744  0.0629
 1214ntf    sn2 9019   1.739   2.392   5.330  0.1793  0.6184 -0.3456
 1214ntf    cn1 9020   1.572   2.451   5.291  0.0581  0.4047 -0.1481
 1214ntf    fn4 9021   2.046   2.564   5.687  0.0804 -0.0745 -0.0316
 1214ntf    fn4 9022   1.967   2.390   5.633 -0.4458  0.7288  0.3363
 1214ntf    fn4 9023   2.134   2.473   5.517  0.2748  0.7644 -0.5531
 1214ntf    on5 9024   1.853   2.700   5.543 -0.3740 -0.2336  0.7744
 1214ntf    on5 9025   1.972   2.613   5.351  0.2429 -0.6490  0.0678
 1214ntf    on5 9026   1.804   2.412   5.203 -0.4414 -0.0621 -0.7781
 1214ntf    on5 9027   1.719   2.257   5.378  0.2903  0.8404  0.3292
 1214ntf    fn4 9028   1.574   2.579   5.260 -0.4500  0.4114 -0.1749
 1214ntf    fn4 9029   1.483   2.431   5.388 -0.1448  0.5455 -0.3038
 1214ntf    fn4 9030   1.523   2.388   5.185  0.2968  0.3356 -0.2165
 1215ntf    cn1 9031   2.590   6.142   4.980 -0.2057 -0.0262  0.2369
 1215ntf    sn2 9032   2.422   6.111   4.918  0.0960 -0.6009 -0.3006
 1215ntf    nn3 9033   2.343   6.089   5.052  0.1227  0.5138 -0.0873
 1215ntf    sn2 9034   2.261   6.185   5.144  0.0906  0.2454  0.1671
 1215ntf    cn1 9035   2.293   6.112   5.307  0.2355 -0.2502 -0.0812
 1215ntf    fn4 9036   2.663   6.181   4.877 -0.1248 -0.3954  0.1507
 1215ntf    fn4 9037   2.595   6.232   5.077 -0.1825 -0.0992  0.3041
 1215ntf    fn4 9038   2.641   6.027   5.022  0.2523  0.1214  0.0892
 1215ntf    on5 9039   2.398   6.233   4.845 -0.8736 -0.4622  0.2326
 1215ntf    on5 9040   2.431   5.988   4.842  1.2421 -0.4846 -0.3785
 1215ntf    on5 9041   2.321   6.316   5.157  0.7412 -0.0264 -0.0990
 1215ntf    on5 9042   2.119   6.167   5.130  0.1165  0.1664  0.0009
 1215ntf    fn4 9043   2.211   6.011   5.327 -0.0707  0.0110 -0.0096
 1215ntf    fn4 9044   2.252   6.203   5.395  0.6036  0.4338 -0.6060
 1215ntf    fn4 9045   2.419   6.081   5.333  0.2076 -0.3270 -0.0359
 1216ntf    cn1 9046   6.349   6.501   5.847 -0.1727  0.2457  0.4037
 1216ntf    sn2 9047   6.197   6.580   5.789  0.0149  0.2003 -0.1547
 1216ntf    nn3 9048   6.190   6.536   5.638  0.1848  0.1294 -0.1422
 1216ntf    sn2 9049   6.144   6.395   5.586  0.1653 -0.0001  0.2210
 1216ntf    cn1 9050   6.280   6.366   5.469 -0.1962 -0.2728 -0.1370
 1216ntf    fn4 9051   6.448   6.508   5.759  0.0704  0.1574  0.6658
 1216ntf    fn4 9052   6.384   6.559   5.960  0.1092  0.3477  0.2661
 1216ntf    fn4 9053   6.327   6.375   5.880  0.5567  0.0760  0.2686
 1216ntf    on5 9054   6.095   6.522   5.873 -0.1827 -0.0403 -0.5555
 1216ntf    on5 9055   6.208   6.723   5.810  0.8843  0.0608  0.3679
 1216ntf    on5 9056   6.149   6.282   5.675 -0.2667 -0.3719 -0.2169
 1216ntf    on5 9057   6.031   6.403   5.497 -0.3857 -0.3223  0.8799
 1216ntf    fn4 9058   6.392   6.344   5.536 -0.1712 -0.4899 -0.2524
 1216ntf    fn4 9059   6.304   6.470   5.391  0.3406 -0.2297  0.0789
 1216ntf    fn4 9060   6.267   6.256   5.397  0.0589 -0.4579  0.0946
 1217ntf    cn1 9061   1.383   4.216   4.072 -0.2154 -0.0796  0.3327
 1217ntf    sn2 9062   1.393   4.071   3.962  0.2622  0.1713  0.0441
 1217ntf    nn3 9063   1.269   3.984   4.002  0.6073 -0.3137  0.0690
 1217ntf    sn2 9064   1.226   3.847   3.938  0.0043 -0.0974 -0.0012
 1217ntf    cn1 9065   1.064   3.908   3.882  0.3049  0.2419 -0.5128
 1217ntf    fn4 9066   1.351   4.190   4.198 -0.0426 -0.2772  0.3366
 1217ntf    fn4 9067   1.501   4.276   4.071 -0.1073 -0.2925 -0.3958
 1217ntf    fn4 9068   1.304   4.310   4.023  0.5616  0.3173 -0.1808
 1217ntf    on5 9069   1.390   4.118   3.825 -0.0760  0.1451  0.0416
 1217ntf    on5 9070   1.513   4.014   4.017  0.4629  0.2966 -0.2539
 1217ntf    on5 9071   1.297   3.811   3.818 -0.1785  0.4385 -0.2741
 1217ntf    on5 9072   1.191   3.738   4.026  0.3408 -0.1187  0.1086
 1217ntf    fn4 9073   0.997   3.948   3.989  0.8292 -0.0612 -0.0650
 1217ntf    fn4 9074   1.000   3.816   3.811  0.1522 -0.1958  0.1782
 1217ntf    fn4 9075   1.079   4.014   3.805 -0.9127  0.4477 -0.4898
 1218ntf    cn1 9076   1.164   6.359   1.229 -0.0437 -0.0875  0.1521
 1218ntf    sn2 9077   1.201   6.360   1.051 -0.1031 -0.0083  0.1406
 1218ntf    nn3 9078   1.091   6.261   0.999  0.3119 -0.1967 -0.3812
 1218ntf    sn2 9079   1.105   6.105   0.980 -0.2281 -0.2986  0.0260
 1218ntf    cn1 9080   0.932   6.075   0.937 -0.3367  0.0412  0.2224
 1218ntf    fn4 9081   1.186   6.240   1.283  0.5185 -0.2072 -0.3331
 1218ntf    fn4 9082   1.240   6.442   1.299  0.6013 -0.2791 -0.3141
 1218ntf    fn4 9083   1.041   6.384   1.270 -0.0285  0.9233 -0.3957
 1218ntf    on5 9084   1.191   6.498   1.010  0.9106 -0.0790 -0.3904
 1218ntf    on5 9085   1.336   6.309   1.047 -0.2982 -0.4851 -0.3846
 1218ntf    on5 9086   1.174   6.068   0.858 -0.3179  0.5798 -0.3023
 1218ntf    on5 9087   1.119   6.025   1.099 -0.6519  0.6149  0.7068
 1218ntf    fn4 9088   0.852   6.108   1.037 -0.5464  0.0742  0.0468
 1218ntf    fn4 9089   0.901   5.951   0.902 -0.1844  0.1377 -0.2682
 1218ntf    fn4 9090   0.883   6.145   0.835  0.0593 -0.0118 -0.0072
 1219ntf    cn1 9091   4.666   5.518   2.624 -0.3257 -0.3392  0.1712
 1219ntf    sn2 9092   4.725   5.652   2.733  0.0787 -0.0540 -0.3949
 1219ntf    nn3 9093   4.694   5.603   2.879 -1.0002  0.1819 -0.5340
 1219ntf    sn2 9094   4.612   5.673   2.993  0.0852 -0.0621  0.4183
 1219ntf    cn1 9095   4.691   5.589   3.133  0.6227 -0.2372  0.0104
 1219ntf    fn4 9096   4.691   5.526   2.495  0.1899 -0.2948  0.2729
 1219ntf    fn4 9097   4.720   5.401   2.656  0.2607 -0.0779  0.1489
 1219ntf    fn4 9098   4.534   5.505   2.630 -0.3547 -0.2486 -0.2288
 1219ntf    on5 9099   4.864   5.646   2.698  0.1701 -0.4328  0.0255
 1219ntf    on5 9100   4.654   5.770   2.690 -0.7185 -0.4510 -0.2054
 1219ntf    on5 9101   4.640   5.808   3.035 -0.4930  0.3136 -0.3612
 1219ntf    on5 9102   4.479   5.618   2.989 -0.1249  0.4643 -0.0435
 1219ntf    fn4 9103   4.661   5.461   3.144  0.3422 -0.1457  0.2909
 1219ntf    fn4 9104   4.652   5.636   3.250  0.2802 -0.4492 -0.0187
 1219ntf    fn4 9105   4.823   5.582   3.130  0.6445  0.1193  0.0240
 1220ntf    cn1 9106   4.785   2.219   1.021  0.3978 -0.1783  0.0267
 1220ntf    sn2 9107   4.934   2.202   1.124  0.2474 -0.0632  0.2634
 1220ntf    nn3 9108   5.019   2.292   1.027  0.2589  0.8417  1.0966
 1220ntf    sn2 9109   5.174   2.280   1.003  0.0138  0.0996 -0.1796
 1220ntf    cn1 9110   5.237   2.389   1.134 -0.2510 -0.1675  0.1729
 1220ntf    fn4 9111   4.679   2.154   1.067  0.3110  0.1457  0.2865
 1220ntf    fn4 9112   4.748   2.346   1.017  0.0577 -0.3011 -1.0236
 1220ntf    fn4 9113   4.807   2.181   0.896  0.2383 -0.0318 -0.0464
 1220ntf    on5 9114   4.906   2.266   1.250  0.2957 -0.6730  0.5841
 1220ntf    on5 9115   4.960   2.060   1.116 -0.0502 -0.1131  0.1876
 1220ntf    on5 9116   5.244   2.158   1.035 -0.7193 -0.1500  0.4973
 1220ntf    on5 9117   5.209   2.360   0.888  0.0368  0.4010  0.0379
 1220ntf    fn4 9118   5.161   2.497   1.132  0.1599  0.1127 -0.8461
 1220ntf    fn4 9119   5.361   2.429   1.113 -0.0964 -0.5702  0.3029
 1220ntf    fn4 9120   5.230   2.348   1.259 -0.3750  0.3668  0.3425
 1221ntf    cn1 9121   0.614   5.309   1.582  0.0285 -0.0899 -0.0385
 1221ntf    sn2 9122   0.705   5.466   1.592 -0.1257  0.0045 -0.1197
 1221ntf    nn3 9123   0.587   5.569   1.591 -0.0504  0.0914 -0.2052
 1221ntf    sn2 9124   0.549   5.670   1.477 -0.4330  0.2286  0.0406
 1221ntf    cn1 9125   0.681   5.794   1.491 -0.1652 -0.1142  0.6109
 1221ntf    fn4 9126   0.688   5.213   1.636 -0.5212 -0.2994  0.3504
 1221ntf    fn4 9127   0.506   5.319   1.657  0.1677  0.2502  0.1216
 1221ntf    fn4 9128   0.581   5.279   1.458  0.3912 -0.0559 -0.1457
 1221ntf    on5 9129   0.773   5.450   1.718  0.3700 -0.1240 -0.3976
 1221ntf    on5 9130   0.786   5.462   1.473 -0.1361 -0.0015 -0.1266
 1221ntf    on5 9131   0.561   5.613   1.345 -0.2251 -0.1480  0.2204
 1221ntf    on5 9132   0.437   5.754   1.512 -0.0862  0.8156 -0.2500
 1221ntf    fn4 9133   0.699   5.821   1.619  0.4732 -0.1630  0.5325
 1221ntf    fn4 9134   0.638   5.907   1.437 -0.2450 -0.4467 -0.0353
 1221ntf    fn4 9135   0.793   5.754   1.434 -0.2831  0.1768  0.1698
 1222ntf    cn1 9136   1.602   5.898   3.605 -0.2477  0.7321  0.0803
 1222ntf    sn2 9137   1.500   5.904   3.455 -0.0835 -0.0979 -0.0654
 1222ntf    nn3 9138   1.590   5.817   3.360 -0.2579 -0.5249  0.1561
 1222ntf    sn2 9139   1.594   5.828   3.204  0.1353 -0.4775  0.1663
 1222ntf    cn1 9140   1.732   5.719   3.160  0.4338 -0.1359  0.2530
 1222ntf    fn4 9141   1.560   5.987   3.694 -0.0524  1.1292 -0.2181
 1222ntf    fn4 9142   1.597   5.777   3.657 -0.1460  0.5334 -0.3679
 1222ntf    fn4 9143   1.733   5.912   3.587 -0.1826 -0.0387 -0.0689
 1222ntf    on5 9144   1.375   5.834   3.470  0.2278 -0.5420  0.5203
 1222ntf    on5 9145   1.491   6.044   3.423 -0.3953 -0.1542 -0.2324
 1222ntf    on5 9146   1.484   5.772   3.129  0.1018 -0.1108 -0.0588
 1222ntf    on5 9147   1.645   5.951   3.150 -0.2672 -0.4490 -0.1591
 1222ntf    fn4 9148   1.742   5.698   3.030  0.8734 -0.2495  0.3020
 1222ntf    fn4 9149   1.729   5.606   3.229 -0.3374 -0.1177  0.2502
 1222ntf    fn4 9150   1.846   5.775   3.199  0.2431  0.4189  0.0187
 1223ntf    cn1 9151   3.727   4.108   3.445  0.2792 -0.4422  0.3504
 1223ntf    sn2 9152   3.788   4.073   3.613  0.0305 -0.1728  0.4986
 1223ntf    nn3 9153   3.940   4.111   3.605 -0.2434  0.7491 -0.6995
 1223ntf    sn2 9154   4.015   4.242   3.648  0.3644  0.1696  0.0338
 1223ntf    cn1 9155   3.980   4.233   3.826 -0.1507  0.1072 -0.0695
 1223ntf    fn4 9156   3.766   4.225   3.397 -0.3739 -0.2462  0.2860
 1223ntf    fn4 9157   3.781   4.014   3.370 -0.6940 -0.6751 -0.0701
 1223ntf    fn4 9158   3.595   4.104   3.438  0.2395  0.7864  0.2589
 1223ntf    on5 9159   3.697   4.152   3.693  0.1268 -0.4124  0.8453
 1223ntf    on5 9160   3.772   3.931   3.628  1.0660 -0.4139 -0.5139
 1223ntf    on5 9161   4.158   4.230   3.637  0.3610 -0.1276  0.2737
 1223ntf    on5 9162   3.946   4.366   3.623 -0.1014 -0.0297  0.3127
 1223ntf    fn4 9163   4.043   4.130   3.880  0.7374  0.2565 -0.7985
 1223ntf    fn4 9164   3.850   4.230   3.855  0.0008 -0.1251  0.6189
 1223ntf    fn4 9165   4.018   4.342   3.892  0.0011  0.1252 -0.1889
 1224ntf    cn1 9166   5.441   0.046   5.669  0.4568  0.0087 -0.4823
 1224ntf    sn2 9167   5.555   0.181   5.628  0.2876  0.2562 -0.1391
 1224ntf    nn3 9168   5.466   0.307   5.661  0.3106  0.0658  0.6654
 1224ntf    sn2 9169   5.359   0.379   5.573  0.4466 -0.1745  0.3027
 1224ntf    cn1 9170   5.251   0.455   5.698 -0.6582  0.0088 -0.7418
 1224ntf    fn4 9171   5.330   0.056   5.598  0.0966  0.7464  0.1643
 1224ntf    fn4 9172   5.490  -0.075   5.646  0.1191 -0.1880 -0.1905
 1224ntf    fn4 9173   5.412   0.047   5.798  0.9015  0.4055 -0.3856
 1224ntf    on5 9174   5.656   0.168   5.730 -0.0629  0.3595  0.2255
 1224ntf    on5 9175   5.590   0.156   5.491  0.5238 -0.1724 -0.0023
 1224ntf    on5 9176   5.414   0.488   5.496 -0.3485  0.0225  0.0008
 1224ntf    on5 9177   5.272   0.296   5.493  0.7435  0.3076 -0.5410
 1224ntf    fn4 9178   5.142   0.503   5.640 -0.5908  0.1426 -0.7568
 1224ntf    fn4 9179   5.313   0.554   5.760  0.0140 -0.4114 -0.7362
 1224ntf    fn4 9180   5.204   0.372   5.790  0.9615 -0.0550  0.0592
 1225ntf    cn1 9181   3.438   4.081   4.260  0.1910 -0.0791 -0.4152
 1225ntf    sn2 9182   3.371   4.129   4.422 -0.0246 -0.6445 -0.3336
 1225ntf    nn3 9183   3.471   4.069   4.527  0.2547  0.2093 -0.0964
 1225ntf    sn2 9184   3.556   4.143   4.636 -0.0515  0.1323  0.1957
 1225ntf    cn1 9185   3.664   4.011   4.697  0.0734  0.0868 -0.1251
 1225ntf    fn4 9186   3.355   4.120   4.165 -0.2928 -0.2369 -0.0621
 1225ntf    fn4 9187   3.554   4.139   4.234  0.3251 -0.2430 -0.1884
 1225ntf    fn4 9188   3.455   3.950   4.248 -0.7124 -0.1981 -0.4522
 1225ntf    on5 9189   3.367   4.273   4.406  0.0895 -0.6141 -0.0868
 1225ntf    on5 9190   3.243   4.063   4.421 -0.3645 -0.0189  0.3797
 1225ntf    on5 9191   3.648   4.241   4.583  0.1170 -0.2585 -0.2396
 1225ntf    on5 9192   3.483   4.182   4.754 -0.3217  0.0245  0.0639
 1225ntf    fn4 9193   3.736   3.963   4.596 -1.0675 -0.5088 -0.6829
 1225ntf    fn4 9194   3.602   3.908   4.751 -0.2234 -0.0548 -0.7197
 1225ntf    fn4 9195   3.745   4.048   4.794 -0.0720 -0.0516  0.0483
 1226ntf    cn1 9196   2.849   4.484   1.192  0.1175  0.1009  0.0765
 1226ntf    sn2 9197   3.026   4.446   1.169  0.1350  0.3409 -0.1878
 1226ntf    nn3 9198   3.039   4.460   1.013 -0.2259  0.3513 -0.2183
 1226ntf    sn2 9199   3.082   4.352   0.907 -0.1295  0.3015 -0.1277
 1226ntf    cn1 9200   3.181   4.224   0.990 -0.1744  0.1613 -0.2895
 1226ntf    fn4 9201   2.798   4.548   1.088 -0.0669  0.4102  0.3590
 1226ntf    fn4 9202   2.778   4.373   1.203 -0.1122  0.2338 -0.0760
 1226ntf    fn4 9203   2.838   4.554   1.303  0.6389 -0.0504  0.2266
 1226ntf    on5 9204   3.086   4.546   1.253 -0.2431  0.0833  0.3960
 1226ntf    on5 9205   3.053   4.316   1.225  0.2161  0.2146 -0.5142
 1226ntf    on5 9206   2.970   4.276   0.857 -0.1515  0.1818  0.1010
 1226ntf    on5 9207   3.187   4.391   0.816  0.1811 -0.2004  0.0075
 1226ntf    fn4 9208   3.115   4.141   1.070  0.0317  0.2561 -0.0194
 1226ntf    fn4 9209   3.282   4.270   1.062 -0.0813  0.1521 -0.4154
 1226ntf    fn4 9210   3.242   4.143   0.905  0.2228 -0.1248  0.2616
 1227ntf    cn1 9211   3.497   5.628   1.673  0.0326  0.1626 -0.2340
 1227ntf    sn2 9212   3.649   5.540   1.721 -0.0405 -0.0089 -0.3143
 1227ntf    nn3 9213   3.750   5.578   1.608 -0.1426 -0.3604 -0.5225
 1227ntf    sn2 9214   3.875   5.672   1.607 -0.3122 -0.1317 -0.1081
 1227ntf    cn1 9215   3.858   5.710   1.430 -0.4357 -0.5105 -0.1777
 1227ntf    fn4 9216   3.438   5.579   1.565 -0.0506 -0.3380  0.0368
 1227ntf    fn4 9217   3.399   5.635   1.761  0.4282 -0.3240  0.2479
 1227ntf    fn4 9218   3.519   5.755   1.640  0.0383 -0.0846 -1.2323
 1227ntf    on5 9219   3.671   5.594   1.854 -0.1645  0.7925 -0.6121
 1227ntf    on5 9220   3.601   5.405   1.711 -0.2672  0.0066  0.4517
 1227ntf    on5 9221   3.865   5.799   1.676  0.2777 -0.2941  0.2864
 1227ntf    on5 9222   3.996   5.594   1.606  0.0562  0.4287 -0.0292
 1227ntf    fn4 9223   3.742   5.772   1.417  0.0079  0.3075 -0.2744
 1227ntf    fn4 9224   3.871   5.601   1.356  0.6202 -0.2814 -0.3438
 1227ntf    fn4 9225   3.951   5.799   1.400 -0.5371 -0.3891 -0.1318
 1228ntf    cn1 9226   1.174   5.843   4.882  0.2125 -0.1759  0.2064
 1228ntf    sn2 9227   1.319   5.772   4.799  0.3348  0.3566 -0.0435
 1228ntf    nn3 9228   1.362   5.680   4.919 -0.1372  0.3602  0.1291
 1228ntf    sn2 9229   1.505   5.630   4.960 -0.2675 -0.0904  0.0487
 1228ntf    cn1 9230   1.508   5.463   4.891 -0.1723 -0.0648 -0.0091
 1228ntf    fn4 9231   1.123   5.946   4.816 -0.5673 -0.7594 -0.1119
 1228ntf    fn4 9232   1.080   5.753   4.902  0.0041 -0.0668 -0.2665
 1228ntf    fn4 9233   1.209   5.888   5.001  0.3181 -0.3741  0.2496
 1228ntf    on5 9234   1.273   5.686   4.692  0.8900 -0.0878  0.0692
 1228ntf    on5 9235   1.407   5.882   4.767 -0.1507  0.7922  0.1007
 1228ntf    on5 9236   1.616   5.701   4.901 -0.1610 -0.2346  0.0754
 1228ntf    on5 9237   1.519   5.607   5.102  0.1268  0.2486  0.0679
 1228ntf    fn4 9238   1.516   5.470   4.759  0.4424 -0.0764  0.0243
 1228ntf    fn4 9239   1.393   5.403   4.918  0.0827 -0.5398  0.0400
 1228ntf    fn4 9240   1.617   5.393   4.920 -0.2201 -0.1647 -0.0672
 1229ntf    cn1 9241   1.216   3.639   5.067  0.3302  0.2658  0.0347
 1229ntf    sn2 9242   1.382   3.573   5.102  0.1627 -0.2560 -0.1458
 1229ntf    nn3 9243   1.350   3.423   5.135  0.1975 -0.2381 -0.0320
 1229ntf    sn2 9244   1.422   3.324   5.233  0.1532 -0.2038  0.0350
 1229ntf    cn1 9245   1.354   3.366   5.397  0.2673  0.4816 -0.0936
 1229ntf    fn4 9246   1.171   3.570   4.963  0.2059  0.5007 -0.0695
 1229ntf    fn4 9247   1.137   3.623   5.172 -0.0336 -0.2509 -0.3156
 1229ntf    fn4 9248   1.216   3.765   5.026  0.5389  0.1945 -0.1866
 1229ntf    on5 9249   1.458   3.599   4.982 -0.0759 -0.2875 -0.3055
 1229ntf    on5 9250   1.407   3.672   5.204  0.0982 -0.4932  0.1000
 1229ntf    on5 9251   1.373   3.188   5.224 -0.1003 -0.1219  0.1612
 1229ntf    on5 9252   1.563   3.351   5.246  0.1048  0.2015 -0.2761
 1229ntf    fn4 9253   1.377   3.494   5.423  0.2542  0.3869  0.3818
 1229ntf    fn4 9254   1.406   3.294   5.495 -0.2980  0.2681  0.0494
 1229ntf    fn4 9255   1.223   3.348   5.393  0.3310  0.0458 -0.3151
 1230ntf    cn1 9256   6.031   4.771   5.563  0.2917  0.2803 -0.2102
 1230ntf    sn2 9257   5.962   4.775   5.394 -0.0322  0.3268 -0.0780
 1230ntf    nn3 9258   6.088   4.734   5.309 -0.1962  0.0091 -0.1680
 1230ntf    sn2 9259   6.134   4.599   5.244  0.3135  0.0232  0.1608
 1230ntf    cn1 9260   6.312   4.622   5.275  0.3653 -0.4429  0.2212
 1230ntf    fn4 9261   6.158   4.807   5.571  0.5100 -0.4288 -0.4406
 1230ntf    fn4 9262   5.973   4.846   5.655 -0.0891  0.5722 -0.6806
 1230ntf    fn4 9263   6.028   4.652   5.620 -0.0502  0.3394 -0.0980
 1230ntf    on5 9264   5.860   4.673   5.393 -0.1931  0.4724  0.6033
 1230ntf    on5 9265   5.931   4.914   5.371  0.4399  0.6082  0.9232
 1230ntf    on5 9266   6.108   4.473   5.311 -0.0485  0.4447  0.8241
 1230ntf    on5 9267   6.131   4.598   5.100 -0.3909 -0.0856  0.1722
 1230ntf    fn4 9268   6.335   4.660   5.400 -0.1209  0.3317  0.0823
 1230ntf    fn4 9269   6.367   4.712   5.195 -0.1479  0.1681  0.5472
 1230ntf    fn4 9270   6.391   4.517   5.261  0.5040 -0.4575  1.0629
 1231ntf    cn1 9271   0.865   4.368   0.835  0.6062 -0.3177 -0.0922
 1231ntf    sn2 9272   0.775   4.471   0.715 -0.2747 -0.5403  0.3711
 1231ntf    nn3 9273   0.628   4.416   0.711 -0.3569 -0.3244  0.3976
 1231ntf    sn2 9274   0.492   4.494   0.718 -0.3623 -0.2849 -0.1270
 1231ntf    cn1 9275   0.441   4.480   0.892  0.1286 -0.1663  0.0296
 1231ntf    fn4 9276   0.808   4.357   0.954 -0.0535 -0.0211 -0.3750
 1231ntf    fn4 9277   0.890   4.247   0.789  0.2177 -0.4039 -0.0773
 1231ntf    fn4 9278   0.985   4.418   0.860  0.5261 -0.1388 -0.0658
 1231ntf    on5 9279   0.781   4.604   0.772 -0.1219 -0.4377  0.1191
 1231ntf    on5 9280   0.854   4.458   0.595 -0.5224  0.1908  0.1183
 1231ntf    on5 9281   0.507   4.636   0.698  0.0099 -0.3097 -0.0343
 1231ntf    on5 9282   0.387   4.431   0.641 -0.5790  0.2060 -0.2401
 1231ntf    fn4 9283   0.344   4.562   0.930  0.4883  0.0493  0.4914
 1231ntf    fn4 9284   0.545   4.499   0.971  0.2624 -0.8571  0.0286
 1231ntf    fn4 9285   0.392   4.358   0.907  0.0116 -0.0603  0.5276
 1232ntf    cn1 9286   0.737   6.265   0.112  0.0408 -1.0016 -0.1946
 1232ntf    sn2 9287   0.615   6.181   0.217  0.0060 -0.1786  0.4312
 1232ntf    nn3 9288   0.478   6.253   0.189  0.3003  0.2949  0.2102
 1232ntf    sn2 9289   0.333   6.193   0.184  0.3335  0.2593 -0.4611
 1232ntf    cn1 9290   0.295   6.174   0.007 -0.3492  0.0152 -0.2921
 1232ntf    fn4 9291   0.731   6.395   0.131  0.0492 -1.0033 -0.1812
 1232ntf    fn4 9292   0.861   6.224   0.133  0.2509 -0.2234  0.0939
 1232ntf    fn4 9293   0.710   6.253  -0.017  0.1340 -0.6616 -0.2451
 1232ntf    on5 9294   0.619   6.042   0.178 -0.3549 -0.0058 -0.2371
 1232ntf    on5 9295   0.666   6.209   0.349  0.4431 -0.3110  0.2903
 1232ntf    on5 9296   0.328   6.057   0.232  0.6530  0.1906 -0.6172
 1232ntf    on5 9297   0.235   6.286   0.233  0.6863  0.4338 -0.0816
 1232ntf    fn4 9298   0.287   6.289  -0.059  0.6950  0.2182 -0.0864
 1232ntf    fn4 9299   0.176   6.121  -0.013 -0.4190  0.1194 -0.1570
 1232ntf    fn4 9300   0.389   6.105  -0.056  0.3612  0.4992  0.2216
 1233ntf    cn1 9301   1.579   5.038   2.121 -0.3643  0.1525  0.0279
 1233ntf    sn2 9302   1.649   5.081   1.959  0.0009 -0.0497  0.1299
 1233ntf    nn3 9303   1.518   5.041   1.883  0.3487 -0.4101 -0.2890
 1233ntf    sn2 9304   1.391   5.133   1.867  0.2278 -0.4962  0.1478
 1233ntf    cn1 9305   1.419   5.194   1.698 -0.1245  0.1939  0.3348
 1233ntf    fn4 9306   1.561   4.908   2.136 -0.0334  0.1681  0.6016
 1233ntf    fn4 9307   1.661   5.069   2.220 -0.0566  0.5024 -0.3323
 1233ntf    fn4 9308   1.466   5.099   2.153 -0.4366 -0.0361  0.1306
 1233ntf    on5 9309   1.682   5.221   1.976  0.4328 -0.0763 -0.4296
 1233ntf    on5 9310   1.762   4.995   1.936 -0.0610 -0.2179  0.4698
 1233ntf    on5 9311   1.267   5.060   1.866 -0.6495  0.9731  0.2394
 1233ntf    on5 9312   1.394   5.258   1.939  0.6921 -0.3081 -0.1879
 1233ntf    fn4 9313   1.544   5.239   1.690 -0.2178  0.4478  0.2996
 1233ntf    fn4 9314   1.340   5.293   1.659  0.7467  0.8088  0.0983
 1233ntf    fn4 9315   1.404   5.100   1.606 -0.4273  0.1766  0.4016
 1234ntf    cn1 9316   3.688   6.431   5.502 -0.2883  0.0566  0.0140
 1234ntf    sn2 9317   3.742   6.569   5.607 -0.2950 -0.0425  0.1481
 1234ntf    nn3 9318   3.603   6.626   5.652 -0.6377 -0.5556 -0.2505
 1234ntf    sn2 9319   3.517   6.744   5.594 -0.3938 -0.0882  0.3256
 1234ntf    cn1 9320   3.369   6.723   5.698 -0.3921 -0.2091  0.3046
 1234ntf    fn4 9321   3.613   6.469   5.400 -0.3319 -0.0765 -0.0044
 1234ntf    fn4 9322   3.792   6.368   5.450 -0.3506  0.0400 -0.0908
 1234ntf    fn4 9323   3.615   6.337   5.561 -0.5224  0.3874  0.2551
 1234ntf    on5 9324   3.820   6.504   5.709 -0.0553 -0.1170 -0.0805
 1234ntf    on5 9325   3.820   6.653   5.519 -0.3454  0.3420  0.4682
 1234ntf    on5 9326   3.565   6.877   5.618 -0.3814  0.0845 -0.6160
 1234ntf    on5 9327   3.472   6.726   5.458 -0.9444 -0.4288  0.5471
 1234ntf    fn4 9328   3.412   6.706   5.822  0.0193  0.1566  0.2175
 1234ntf    fn4 9329   3.295   6.618   5.665 -0.2175 -0.2437  0.0226
 1234ntf    fn4 9330   3.282   6.822   5.683  0.1151  0.2529  0.3869
 1235ntf    cn1 9331   4.580   1.601   2.687 -0.5082  0.0457 -0.0047
 1235ntf    sn2 9332   4.697   1.480   2.755 -0.1347  0.2242 -0.3242
 1235ntf    nn3 9333   4.683   1.361   2.653 -0.0539 -0.2451  0.2055
 1235ntf    sn2 9334   4.786   1.319   2.542 -0.0075 -0.0548  0.1745
 1235ntf    cn1 9335   4.720   1.159   2.483 -0.0904  0.1373 -0.2638
 1235ntf    fn4 9336   4.601   1.628   2.559 -0.6625  0.3466  0.0307
 1235ntf    fn4 9337   4.452   1.569   2.693 -0.4469 -0.2028 -0.0204
 1235ntf    fn4 9338   4.584   1.716   2.752  1.0392 -0.2881  0.5127
 1235ntf    on5 9339   4.822   1.551   2.752 -0.1772  0.3178  0.0898
 1235ntf    on5 9340   4.633   1.458   2.882 -0.2304 -0.1074 -0.4271
 1235ntf    on5 9341   4.787   1.406   2.427 -0.1064  0.0758  0.2739
 1235ntf    on5 9342   4.917   1.283   2.591  0.0680 -0.3336 -0.2201
 1235ntf    fn4 9343   4.776   1.124   2.369  0.3676 -0.3073  0.0885
 1235ntf    fn4 9344   4.590   1.162   2.462 -0.0840 -0.0609 -0.3305
 1235ntf    fn4 9345   4.746   1.063   2.570  0.0830  0.1573 -0.2933
 1236ntf    cn1 9346   4.630   5.938   6.324 -0.2329  0.1699 -0.1376
 1236ntf    sn2 9347   4.803   5.912   6.372 -0.3422 -0.0840  0.1230
 1236ntf    nn3 9348   4.872   5.897   6.232 -1.1888  0.1785 -0.3263
 1236ntf    sn2 9349   4.939   6.008   6.143 -0.2300 -0.3436 -0.2648
 1236ntf    cn1 9350   5.106   5.941   6.114  0.0177  0.1181  0.0848
 1236ntf    fn4 9351   4.570   5.825   6.290 -0.3188  0.2813 -0.3607
 1236ntf    fn4 9352   4.562   5.985   6.427  0.0846 -0.5486  0.4086
 1236ntf    fn4 9353   4.623   6.021   6.221  0.1589  0.3905  0.0117
 1236ntf    on5 9354   4.832   6.022   6.462  0.5428 -0.0980 -0.1332
 1236ntf    on5 9355   4.798   5.784   6.438  0.2142 -0.2761 -0.2072
 1236ntf    on5 9356   4.873   6.012   6.015  0.0382 -0.4010 -0.4063
 1236ntf    on5 9357   4.967   6.138   6.200  0.1511 -0.4277 -0.2554
 1236ntf    fn4 9358   5.105   5.842   6.027 -0.0813  0.4140 -0.2548
 1236ntf    fn4 9359   5.156   5.893   6.227 -0.4559  0.2063  0.3390
 1236ntf    fn4 9360   5.193   6.030   6.069  0.2836 -0.4394 -0.5057
 1237ntf    cn1 9361   5.158   4.871   3.954 -0.3271  0.0308 -0.1728
 1237ntf    sn2 9362   5.009   4.895   3.852 -0.2365  0.1505 -0.2771
 1237ntf    nn3 9363   5.041   5.027   3.775 -0.4513  0.3053 -0.1029
 1237ntf    sn2 9364   5.026   5.166   3.846  0.4098  0.4724 -0.2350
 1237ntf    cn1 9365   4.868   5.221   3.775 -0.1165 -0.0189  0.5488
 1237ntf    fn4 9366   5.261   4.826   3.884 -0.0500 -0.0093  0.2530
 1237ntf    fn4 9367   5.190   4.990   4.002 -0.3881 -0.0470  0.0599
 1237ntf    fn4 9368   5.129   4.793   4.057 -0.8120  0.4459  0.0110
 1237ntf    on5 9369   5.015   4.781   3.764 -0.1480 -0.1829  0.1517
 1237ntf    on5 9370   4.900   4.893   3.947  0.3693 -0.3311  0.4242
 1237ntf    on5 9371   5.006   5.180   3.988  0.1134 -0.2807 -0.1981
 1237ntf    on5 9372   5.116   5.267   3.796  0.2670  0.6019 -0.2307
 1237ntf    fn4 9373   4.885   5.240   3.645 -0.6204 -0.1544  0.4628
 1237ntf    fn4 9374   4.835   5.340   3.822 -0.3424  0.0636  0.1900
 1237ntf    fn4 9375   4.771   5.133   3.792 -0.4038  0.0093 -0.8320
 1238ntf    cn1 9376   5.718   2.014   4.769 -0.2170  0.4061 -0.5617
 1238ntf    sn2 9377   5.585   1.896   4.728  0.1086 -0.2012  0.0900
 1238ntf    nn3 9378   5.612   1.792   4.842 -0.4991  0.0792  0.4896
 1238ntf    sn2 9379   5.513   1.727   4.945 -0.2177 -0.2798  0.5339
 1238ntf    cn1 9380   5.622   1.662   5.075  0.1469 -0.2224  0.2590
 1238ntf    fn4 9381   5.836   1.961   4.744 -0.2062 -0.1175  0.5087
 1238ntf    fn4 9382   5.716   2.128   4.703 -0.0920  0.6195 -0.2020
 1238ntf    fn4 9383   5.715   2.046   4.898 -0.3230  0.1406 -0.4949
 1238ntf    on5 9384   5.467   1.978   4.740 -0.3693 -0.9122  0.3024
 1238ntf    on5 9385   5.626   1.858   4.595 -0.4117  0.0324 -0.1414
 1238ntf    on5 9386   5.445   1.832   5.016 -0.6404 -0.2035  0.0216
 1238ntf    on5 9387   5.441   1.606   4.912  0.0013 -0.2044 -0.2534
 1238ntf    fn4 9388   5.634   1.747   5.176 -0.3954  0.3999 -0.1852
 1238ntf    fn4 9389   5.744   1.628   5.039  0.0600  0.1186 -0.3824
 1238ntf    fn4 9390   5.574   1.551   5.127 -0.0706 -0.0937  0.3350
 1239ntf    cn1 9391   1.153   4.167   6.687 -0.0617 -0.0965  0.3363
 1239ntf    sn2 9392   0.976   4.208   6.687 -0.0504 -0.0398 -0.0907
 1239ntf    nn3 9393   0.927   4.162   6.545 -0.6401 -0.1878  0.1580
 1239ntf    sn2 9394   0.871   4.245   6.424 -0.0976  0.1142  0.1131
 1239ntf    cn1 9395   0.993   4.377   6.396  0.1075 -0.2096 -0.5325
 1239ntf    fn4 9396   1.222   4.222   6.785 -0.2086 -0.0185  0.3956
 1239ntf    fn4 9397   1.169   4.036   6.697 -0.2702 -0.2029 -0.5952
 1239ntf    fn4 9398   1.210   4.206   6.574  0.4840  0.4608  0.8008
 1239ntf    on5 9399   0.938   4.131   6.803  0.4459 -0.0785  0.0479
 1239ntf    on5 9400   0.982   4.350   6.713  0.5872 -0.0312 -0.2653
 1239ntf    on5 9401   0.874   4.169   6.302 -0.5048 -0.6511  0.5735
 1239ntf    on5 9402   0.746   4.313   6.448  0.0328  0.1952  0.5751
 1239ntf    fn4 9403   0.964   4.465   6.301 -0.6247  0.5802  0.4038
 1239ntf    fn4 9404   1.108   4.323   6.359  0.2252 -0.4391  0.1555
 1239ntf    fn4 9405   1.017   4.455   6.500 -0.0244 -0.2201 -0.4940
 1240ntf    cn1 9406   2.936   4.533   6.482 -0.1525 -0.0856  0.2780
 1240ntf    sn2 9407   2.810   4.473   6.365  0.0772 -0.3315  0.1554
 1240ntf    nn3 9408   2.882   4.504   6.228 -0.0120 -0.1892  0.1397
 1240ntf    sn2 9409   3.012   4.440   6.167  0.1921  0.0866  0.2826
 1240ntf    cn1 9410   3.104   4.589   6.120 -0.0988  0.1238 -0.1688
 1240ntf    fn4 9411   3.029   4.441   6.504 -0.3446 -0.4814 -0.5388
 1240ntf    fn4 9412   3.005   4.639   6.445  0.4087 -0.4992  0.1323
 1240ntf    fn4 9413   2.877   4.570   6.595 -0.3060 -0.1640  0.2245
 1240ntf    on5 9414   2.806   4.333   6.397 -0.0095 -0.2882  0.3297
 1240ntf    on5 9415   2.695   4.556   6.390  0.1306 -0.0197 -0.5750
 1240ntf    on5 9416   3.099   4.362   6.252  0.6780  0.6302  0.2912
 1240ntf    on5 9417   2.977   4.377   6.042  0.1799  0.9820 -0.1719
 1240ntf    fn4 9418   3.232   4.579   6.154 -0.2126  0.0580  0.2421
 1240ntf    fn4 9419   3.064   4.699   6.181  0.0635 -0.1267  0.3954
 1240ntf    fn4 9420   3.090   4.606   5.989  0.0337 -0.2349 -0.2312
 1241ntf    cn1 9421   4.127   2.317   2.853 -0.6796 -0.3415 -0.2920
 1241ntf    sn2 9422   4.131   2.318   3.035  0.2167 -0.1054 -0.3056
 1241ntf    nn3 9423   3.987   2.270   3.075  0.2408 -0.1274 -0.2477
 1241ntf    sn2 9424   3.878   2.344   3.160  0.2886  0.0874 -0.3728
 1241ntf    cn1 9425   3.942   2.304   3.325 -0.0056  0.2020 -0.2295
 1241ntf    fn4 9426   4.045   2.411   2.810 -0.2909  0.1939  0.1230
 1241ntf    fn4 9427   4.247   2.341   2.801 -0.3588 -0.6002  0.3207
 1241ntf    fn4 9428   4.096   2.196   2.809 -0.3083 -0.3013 -0.6781
 1241ntf    on5 9429   4.240   2.230   3.070 -0.4080 -0.9550 -0.4567
 1241ntf    on5 9430   4.162   2.456   3.060  0.3789 -0.2034  0.0392
 1241ntf    on5 9431   3.872   2.488   3.157  0.2883  0.0888 -0.3204
 1241ntf    on5 9432   3.752   2.273   3.150  0.6741 -0.5622 -0.6798
 1241ntf    fn4 9433   4.063   2.353   3.348  0.2054 -0.3098 -0.2137
 1241ntf    fn4 9434   3.943   2.172   3.341  0.1431  0.2075 -0.1883
 1241ntf    fn4 9435   3.874   2.350   3.429  0.7138 -0.1546  0.4146
 1242ntf    cn1 9436   5.946   4.508   3.342 -0.0851 -0.2915 -0.1750
 1242ntf    sn2 9437   6.066   4.587   3.231 -0.0311 -0.3993 -0.1942
 1242ntf    nn3 9438   6.182   4.483   3.247 -0.1313 -0.3374  1.0129
 1242ntf    sn2 9439   6.255   4.376   3.158 -0.1772  0.2941  0.2109
 1242ntf    cn1 9440   6.250   4.239   3.276 -0.4068  0.1111 -0.0110
 1242ntf    fn4 9441   5.993   4.491   3.465  0.2141 -0.1088 -0.2619
 1242ntf    fn4 9442   5.840   4.584   3.366 -0.1549 -0.6207  0.6218
 1242ntf    fn4 9443   5.917   4.384   3.308  0.3382 -0.6346  0.6819
 1242ntf    on5 9444   6.007   4.580   3.100  0.9980 -1.1285 -0.6317
 1242ntf    on5 9445   6.092   4.711   3.301 -0.3283 -0.6694  0.4057
 1242ntf    on5 9446   6.183   4.310   3.052  0.5496  0.2530 -0.2666
 1242ntf    on5 9447   6.392   4.414   3.131  0.0577 -0.7778 -0.1410
 1242ntf    fn4 9448   6.335   4.141   3.247 -0.4059  0.0613  0.1573
 1242ntf    fn4 9449   6.131   4.182   3.284 -0.2299 -0.2679 -0.0271
 1242ntf    fn4 9450   6.278   4.274   3.400  0.2839 -0.1275 -0.0934
 1243ntf    cn1 9451   3.612   4.965   4.605 -0.0060 -0.1155 -0.2988
 1243ntf    sn2 9452   3.453   4.879   4.625 -0.0304  0.0029  0.0280
 1243ntf    nn3 9453   3.391   4.904   4.482 -0.1446 -0.0044  0.0756
 1243ntf    sn2 9454   3.354   4.811   4.362 -0.2323 -0.0622  0.1477
 1243ntf    cn1 9455   3.184   4.780   4.419 -0.1461 -0.5827  0.1280
 1243ntf    fn4 9456   3.700   4.947   4.702 -0.3342 -0.4907 -0.0681
 1243ntf    fn4 9457   3.680   4.930   4.497  0.1140  0.6830 -0.4874
 1243ntf    fn4 9458   3.611   5.097   4.593  0.6523 -0.0756  0.0347
 1243ntf    on5 9459   3.496   4.749   4.668  0.1144  0.0716  0.0901
 1243ntf    on5 9460   3.390   4.966   4.721  0.1083 -0.3788  0.4694
 1243ntf    on5 9461   3.343   4.879   4.235 -0.5474  0.3600  0.4003
 1243ntf    on5 9462   3.414   4.680   4.377  0.4055  0.0916 -0.9794
 1243ntf    fn4 9463   3.103   4.715   4.337  0.2258 -0.4389 -0.3601
 1243ntf    fn4 9464   3.126   4.894   4.452  0.7381  0.1346 -0.7654
 1243ntf    fn4 9465   3.184   4.705   4.528  0.0305 -0.3288  0.3041
 1244ntf    cn1 9466   0.545   5.129   6.162  0.6733 -0.1516 -0.0202
 1244ntf    sn2 9467   0.635   5.209   6.298 -0.0115  0.1218  0.2772
 1244ntf    nn3 9468   0.553   5.339   6.329 -0.2780 -0.0438  0.2714
 1244ntf    sn2 9469   0.597   5.487   6.362  0.5734 -0.3236  0.4071
 1244ntf    cn1 9470   0.521   5.501   6.526 -0.3247 -0.3609  0.0022
 1244ntf    fn4 9471   0.421   5.104   6.201  0.5236  0.1903 -0.2654
 1244ntf    fn4 9472   0.546   5.204   6.053 -0.2430  0.5498  0.4296
 1244ntf    fn4 9473   0.595   5.014   6.120 -0.1242 -0.6300  0.3090
 1244ntf    on5 9474   0.643   5.110   6.402  0.1782  0.1153  0.2560
 1244ntf    on5 9475   0.761   5.234   6.232  0.1202  0.1758  0.5491
 1244ntf    on5 9476   0.737   5.504   6.388  0.4211  0.8044  0.5265
 1244ntf    on5 9477   0.548   5.595   6.281  0.5140 -1.0603 -0.5639
 1244ntf    fn4 9478   0.390   5.480   6.531 -0.2801 -0.5971  0.2480
 1244ntf    fn4 9479   0.536   5.622   6.577  0.1885 -0.4390  0.0413
 1244ntf    fn4 9480   0.581   5.411   6.603 -0.8110 -0.5708  0.1431
 1245ntf    cn1 9481   4.381   5.420   2.424 -0.0685 -0.0502 -0.2309
 1245ntf    sn2 9482   4.260   5.373   2.296 -0.0846 -0.0821 -0.2045
 1245ntf    nn3 9483   4.219   5.512   2.235 -0.0323 -0.0369 -0.1385
 1245ntf    sn2 9484   4.128   5.625   2.292 -0.1153 -0.1677 -0.0120
 1245ntf    cn1 9485   4.250   5.759   2.304 -0.1485 -0.0755 -0.6979
 1245ntf    fn4 9486   4.359   5.538   2.479 -0.4072 -0.2163 -0.0013
 1245ntf    fn4 9487   4.388   5.327   2.518  0.0233 -0.0367 -0.2235
 1245ntf    fn4 9488   4.503   5.436   2.377 -0.0797  0.0910 -0.2108
 1245ntf    on5 9489   4.342   5.303   2.200  0.0313 -0.2425  0.0098
 1245ntf    on5 9490   4.158   5.299   2.366  0.1923  0.2289  0.5432
 1245ntf    on5 9491   4.028   5.670   2.199 -0.0964  0.4192  0.2405
 1245ntf    on5 9492   4.086   5.600   2.428 -0.0412 -0.7258 -0.0917
 1245ntf    fn4 9493   4.199   5.881   2.315  0.0260 -0.0640  0.0451
 1245ntf    fn4 9494   4.327   5.767   2.197  0.1432  0.6516 -0.4444
 1245ntf    fn4 9495   4.334   5.745   2.406 -0.9155  0.5391  0.0304
 1246ntf    cn1 9496   3.429   2.741   3.889 -0.0826 -0.1051 -0.1918
 1246ntf    sn2 9497   3.587   2.681   3.954 -0.0119  0.1234 -0.1513
 1246ntf    nn3 9498   3.688   2.686   3.834  0.2527 -0.2698  0.0485
 1246ntf    sn2 9499   3.692   2.587   3.712 -0.3421  0.1042 -0.2808
 1246ntf    cn1 9500   3.817   2.470   3.771 -0.2658  0.2610 -0.1298
 1246ntf    fn4 9501   3.348   2.774   3.988  0.0842 -0.2373 -0.0108
 1246ntf    fn4 9502   3.436   2.840   3.802 -0.0418  0.2153  0.1743
 1246ntf    fn4 9503   3.368   2.644   3.822 -0.3935 -0.4179  0.5294
 1246ntf    on5 9504   3.618   2.783   4.052 -0.1713 -0.1185  0.1547
 1246ntf    on5 9505   3.567   2.552   4.017 -0.6124  0.1747 -0.2349
 1246ntf    on5 9506   3.576   2.503   3.698 -0.1374 -0.2891  0.3276
 1246ntf    on5 9507   3.757   2.649   3.599  0.2244 -0.8998 -0.5148
 1246ntf    fn4 9508   3.776   2.394   3.872 -0.0231  0.5716  0.2061
 1246ntf    fn4 9509   3.922   2.539   3.812  0.0848 -0.1197 -0.3751
 1246ntf    fn4 9510   3.861   2.386   3.679  0.1393 -0.1905  0.4648
 1247ntf    cn1 9511   5.917   2.212   4.961  0.5864 -0.0286  0.0181
 1247ntf    sn2 9512   6.047   2.333   4.997  0.0570  0.3545  0.6503
 1247ntf    nn3 9513   6.070   2.296   5.148  0.0056  0.1369  0.6052
 1247ntf    sn2 9514   6.009   2.360   5.277 -0.1606  0.1916  0.4989
 1247ntf    cn1 9515   6.127   2.310   5.406  0.0566  0.0782  0.2575
 1247ntf    fn4 9516   5.972   2.091   4.954  0.4527 -0.1070  0.3257
 1247ntf    fn4 9517   5.833   2.210   5.063  0.1957 -0.0130 -0.3022
 1247ntf    fn4 9518   5.862   2.230   4.842 -0.1170 -0.3479  0.2872
 1247ntf    on5 9519   6.143   2.296   4.897 -0.3304  0.0415  0.3930
 1247ntf    on5 9520   5.986   2.462   4.979 -0.1132  0.1004 -0.6916
 1247ntf    on5 9521   6.003   2.504   5.277 -1.3416  0.1639 -0.7664
 1247ntf    on5 9522   5.895   2.288   5.327 -0.3219  0.3762  0.4007
 1247ntf    fn4 9523   6.086   2.365   5.520 -0.3602  0.2373  0.0366
 1247ntf    fn4 9524   6.245   2.365   5.384 -0.0095 -0.1233 -0.6299
 1247ntf    fn4 9525   6.135   2.179   5.420  0.0638  0.0918  0.3862
 1248ntf    cn1 9526   4.962   1.903   1.866 -0.1690 -0.1862 -0.4771
 1248ntf    sn2 9527   5.125   1.827   1.841 -0.1248 -0.3328  0.2308
 1248ntf    nn3 9528   5.225   1.948   1.838 -0.2179 -0.2581  0.0740
 1248ntf    sn2 9529   5.249   2.051   1.723 -0.0603 -0.1906  0.1665
 1248ntf    cn1 9530   5.396   1.977   1.647 -0.1819 -0.1363 -0.1234
 1248ntf    fn4 9531   4.862   1.816   1.863  0.2074 -0.6182 -0.4356
 1248ntf    fn4 9532   4.955   1.958   1.986 -0.0514 -0.5480 -0.3057
 1248ntf    fn4 9533   4.936   2.005   1.785  0.1054 -0.2368 -0.6291
 1248ntf    on5 9534   5.137   1.745   1.959  0.0445 -0.4799  0.1119
 1248ntf    on5 9535   5.112   1.751   1.719 -0.2442  0.2737 -0.1409
 1248ntf    on5 9536   5.149   2.056   1.619  0.2115 -0.7100 -0.1221
 1248ntf    on5 9537   5.289   2.179   1.776  0.2460  0.0668 -0.6734
 1248ntf    fn4 9538   5.377   1.854   1.601 -0.1310 -0.1956  0.0159
 1248ntf    fn4 9539   5.500   1.979   1.728  0.1077 -0.2775 -0.4866
 1248ntf    fn4 9540   5.435   2.038   1.536  0.4202  0.2342  0.2880
 1249ntf    cn1 9541   6.292   4.905   0.101 -0.3302  0.2011  0.2607
 1249ntf    sn2 9542   6.451   4.823   0.133 -0.5363 -0.3456 -0.0842
 1249ntf    nn3 9543   6.478   4.872   0.280  0.0150  0.0931 -0.3282
 1249ntf    sn2 9544   6.610   4.932   0.341 -0.2603  0.3993 -0.0265
 1249ntf    cn1 9545   6.537   4.988   0.498 -0.3008  0.0522  0.0782
 1249ntf    fn4 9546   6.287   5.032   0.137  0.1069  0.0477  0.8863
 1249ntf    fn4 9547   6.262   4.894  -0.027  0.6645 -0.6386  0.0911
 1249ntf    fn4 9548   6.196   4.852   0.176 -0.5136  0.1785  0.0112
 1249ntf    on5 9549   6.420   4.684   0.115 -0.0678 -0.3756 -0.6588
 1249ntf    on5 9550   6.537   4.892   0.040  0.4589 -0.1353  0.9589
 1249ntf    on5 9551   6.707   4.828   0.363 -0.2306  0.3480 -0.3885
 1249ntf    on5 9552   6.653   5.060   0.290  0.3617 -0.0279 -0.5986
 1249ntf    fn4 9553   6.476   4.888   0.559 -0.6043  0.1520 -0.0614
 1249ntf    fn4 9554   6.444   5.080   0.482 -0.3584 -0.0263 -0.0364
 1249ntf    fn4 9555   6.626   5.027   0.588  0.2952 -0.7619 -0.1426
 1250ntf    cn1 9556   1.102   1.850   4.056 -0.2369  0.1591  0.3975
 1250ntf    sn2 9557   1.024   2.006   4.109 -0.1099  0.4318 -0.2087
 1250ntf    nn3 9558   0.955   1.953   4.240  0.7645 -0.4925 -0.1061
 1250ntf    sn2 9559   1.019   1.944   4.383  0.0973  0.2200  0.2453
 1250ntf    cn1 9560   0.952   1.782   4.432 -0.2615  0.1562 -0.4402
 1250ntf    fn4 9561   1.132   1.847   3.927  0.4994  0.2433  0.5649
 1250ntf    fn4 9562   1.211   1.826   4.127 -0.1433 -0.3772  0.0711
 1250ntf    fn4 9563   1.019   1.748   4.073  0.0751 -0.1370  0.1513
 1250ntf    on5 9564   1.130   2.102   4.129  0.0736  0.0778  0.5661
 1250ntf    on5 9565   0.933   2.022   3.999 -0.9469 -1.2282  0.2066
 1250ntf    on5 9566   1.161   1.919   4.382  0.0235 -0.2745 -1.3369
 1250ntf    on5 9567   0.965   2.041   4.475  0.1821  0.5379 -0.0369
 1250ntf    fn4 9568   0.820   1.786   4.423 -0.2834  0.3620 -0.0362
 1250ntf    fn4 9569   0.990   1.747   4.554 -0.7761 -0.0248 -0.3298
 1250ntf    fn4 9570   0.998   1.682   4.359 -0.7433  0.0099 -0.5481
 1251ntf    cn1 9571   4.690   3.460   4.994  0.1999 -0.1498 -0.1691
 1251ntf    sn2 9572   4.662   3.565   5.140  0.5181 -0.1454 -0.1111
 1251ntf    nn3 9573   4.778   3.521   5.236  0.2006  0.5799  0.6242
 1251ntf    sn2 9574   4.926   3.492   5.189 -0.1544 -0.1028 -0.1069
 1251ntf    cn1 9575   5.011   3.568   5.330  0.2403 -0.2715 -0.2537
 1251ntf    fn4 9576   4.578   3.449   4.924  0.0530  0.5341 -0.0479
 1251ntf    fn4 9577   4.783   3.509   4.914  0.0491  0.4118 -0.0031
 1251ntf    fn4 9578   4.734   3.341   5.033  0.0499 -0.2126 -0.1917
 1251ntf    on5 9579   4.669   3.698   5.083  0.1276  0.0994  0.4066
 1251ntf    on5 9580   4.531   3.523   5.182  0.4233  0.8189  0.5994
 1251ntf    on5 9581   4.953   3.351   5.189  0.1641 -0.0430 -0.5887
 1251ntf    on5 9582   4.979   3.577   5.085 -0.0622 -0.0149  0.0125
 1251ntf    fn4 9583   4.960   3.536   5.448 -0.1849 -0.1889 -0.4137
 1251ntf    fn4 9584   5.017   3.700   5.320  0.3841 -0.2681 -0.1276
 1251ntf    fn4 9585   5.137   3.528   5.332  0.1686 -0.4834  0.0009
 1252ntf    cn1 9586   5.402   4.013   5.127  0.0288 -0.4698 -0.4741
 1252ntf    sn2 9587   5.566   3.939   5.151  0.1611 -0.0230  0.0068
 1252ntf    nn3 9588   5.647   3.991   5.027  0.0721  0.3689  0.1098
 1252ntf    sn2 9589   5.658   3.935   4.880 -0.1724  0.0079  0.2292
 1252ntf    cn1 9590   5.805   3.829   4.898 -0.0838  0.2018  0.6590
 1252ntf    fn4 9591   5.401   4.137   5.080 -0.7491 -0.1940  0.2375
 1252ntf    fn4 9592   5.330   3.954   5.033 -0.0158 -0.0978 -0.6769
 1252ntf    fn4 9593   5.328   4.021   5.236  0.2693  0.3895 -0.3653
 1252ntf    on5 9594   5.606   3.999   5.276  0.2620 -0.1069  0.0149
 1252ntf    on5 9595   5.533   3.799   5.154 -0.8576  0.2011 -0.4709
 1252ntf    on5 9596   5.553   3.841   4.848  0.3772 -0.3667 -0.4973
 1252ntf    on5 9597   5.690   4.032   4.779  0.1014 -0.3459 -0.0241
 1252ntf    fn4 9598   5.780   3.729   4.980  0.2717 -0.4274  0.0051
 1252ntf    fn4 9599   5.897   3.901   4.960  0.4685 -0.1159  0.2128
 1252ntf    fn4 9600   5.852   3.778   4.786 -1.0671  0.0845  0.2869
 1253ntf    cn1 9601   6.284   1.399   3.518  0.3039 -0.4284 -0.5916
 1253ntf    sn2 9602   6.321   1.293   3.662 -0.1948 -0.0389 -0.1724
 1253ntf    nn3 9603   6.194   1.320   3.750 -0.1415  0.1329 -0.1459
 1253ntf    sn2 9604   6.189   1.370   3.898 -0.2631 -0.0159 -0.0992
 1253ntf    cn1 9605   6.012   1.351   3.937 -0.1355 -0.5328  0.2437
 1253ntf    fn4 9606   6.249   1.518   3.564 -0.0719 -0.5014 -0.6889
 1253ntf    fn4 9607   6.402   1.414   3.461  0.6304 -0.0805  0.1526
 1253ntf    fn4 9608   6.192   1.349   3.438 -0.0950 -0.0159 -0.3940
 1253ntf    on5 9609   6.329   1.160   3.607 -0.2737 -0.1000 -0.0352
 1253ntf    on5 9610   6.443   1.357   3.703  0.1884  0.0248 -1.3563
 1253ntf    on5 9611   6.239   1.277   3.996 -1.2715 -0.2724  0.1876
 1253ntf    on5 9612   6.220   1.511   3.905  0.4400 -0.1851  0.2591
 1253ntf    fn4 9613   5.991   1.404   4.056 -0.0886 -0.5091  0.2416
 1253ntf    fn4 9614   5.967   1.228   3.949 -0.3829 -0.5148 -0.4493
 1253ntf    fn4 9615   5.931   1.403   3.847 -0.0532 -0.8634 -0.0235
 1254ntf    cn1 9616   2.426   1.507   5.582  0.1575 -0.2219  0.3806
 1254ntf    sn2 9617   2.420   1.645   5.464 -0.0537 -0.4162  0.1646
 1254ntf    nn3 9618   2.334   1.584   5.347 -0.4310 -0.3203  0.3922
 1254ntf    sn2 9619   2.297   1.655   5.212  0.0068 -0.0399  0.4189
 1254ntf    cn1 9620   2.142   1.733   5.266 -0.2114 -0.1669 -0.0239
 1254ntf    fn4 9621   2.473   1.548   5.699  0.1323  0.4104  0.1735
 1254ntf    fn4 9622   2.310   1.446   5.600  0.0804 -0.0305  0.5411
 1254ntf    fn4 9623   2.505   1.407   5.547  0.2159 -0.1629  0.3425
 1254ntf    on5 9624   2.353   1.754   5.531  0.1566  0.4837 -1.0617
 1254ntf    on5 9625   2.557   1.672   5.430 -0.1228 -0.3107 -0.0359
 1254ntf    on5 9626   2.372   1.770   5.168  0.1951 -0.6298 -0.8424
 1254ntf    on5 9627   2.247   1.567   5.110  0.4283  0.0595  0.1250
 1254ntf    fn4 9628   2.163   1.831   5.352 -0.3356  0.0288 -0.2133
 1254ntf    fn4 9629   2.053   1.649   5.318 -0.4436  0.2276  0.2195
 1254ntf    fn4 9630   2.088   1.786   5.157  0.2210  0.1685 -0.0761
 1255ntf    cn1 9631   0.510   1.053   6.374 -0.4963 -0.0056 -0.4331
 1255ntf    sn2 9632   0.469   0.912   6.482  0.2343  0.1307  0.0271
 1255ntf    nn3 9633   0.313   0.909   6.496  0.2883  0.0810  0.6422
 1255ntf    sn2 9634   0.242   0.821   6.605  0.2715 -0.2484  0.3690
 1255ntf    cn1 9635   0.191   0.670   6.518  0.2601 -0.1858  0.2659
 1255ntf    fn4 9636   0.461   1.022   6.255 -0.6510 -0.3192 -0.2901
 1255ntf    fn4 9637   0.442   1.160   6.412 -0.5029 -0.2296  0.2014
 1255ntf    fn4 9638   0.637   1.083   6.353 -0.4737 -0.0964 -0.4280
 1255ntf    on5 9639   0.509   0.802   6.398  0.1580 -0.1321  0.3340
 1255ntf    on5 9640   0.544   0.940   6.602  0.0095  0.2164  0.1478
 1255ntf    on5 9641   0.322   0.775   6.716  0.9274  0.1319  0.0649
 1255ntf    on5 9642   0.117   0.886   6.635  0.0345 -0.6157  0.1724
 1255ntf    fn4 9643   0.149   0.573   6.598  0.2214 -0.0839  0.3712
 1255ntf    fn4 9644   0.277   0.622   6.430 -0.4673 -0.7066 -0.1703
 1255ntf    fn4 9645   0.089   0.693   6.438  0.5451 -0.1024 -0.0764
 1256ntf    cn1 9646   3.279   5.127   0.207  0.0311 -0.2679 -0.3260
 1256ntf    sn2 9647   3.300   5.034   0.361 -0.0253 -0.0349 -0.1757
 1256ntf    nn3 9648   3.159   4.971   0.389  0.1047  0.0835  0.7847
 1256ntf    sn2 9649   3.027   5.035   0.444 -0.3115 -0.1228  0.0422
 1256ntf    cn1 9650   2.917   5.039   0.300 -0.3526  0.1133  0.0790
 1256ntf    fn4 9651   3.200   5.233   0.221  0.3718 -0.0602  0.0587
 1256ntf    fn4 9652   3.387   5.187   0.160  0.1290 -0.0157  0.2109
 1256ntf    fn4 9653   3.228   5.058   0.106  0.3598 -0.6240 -0.2499
 1256ntf    on5 9654   3.400   4.935   0.328  0.1955  0.1337 -0.0137
 1256ntf    on5 9655   3.334   5.136   0.457  0.1984 -0.1034 -0.1809
 1256ntf    on5 9656   2.961   4.951   0.542 -1.1112  0.3174 -0.1098
 1256ntf    on5 9657   3.028   5.175   0.480  0.6639 -0.0474 -0.2433
 1256ntf    fn4 9658   2.789   5.056   0.330 -0.3055 -0.1057  0.4039
 1256ntf    fn4 9659   2.927   4.919   0.244 -0.0896  0.1778 -0.0119
 1256ntf    fn4 9660   2.958   5.134   0.218  0.1961 -0.2405 -0.0608
 1257ntf    cn1 9661   1.450   0.994   6.234  0.2836 -0.0360  0.1163
 1257ntf    sn2 9662   1.356   0.925   6.095  0.2035  0.0246  0.1402
 1257ntf    nn3 9663   1.259   0.829   6.173  0.1496  0.0393  0.0925
 1257ntf    sn2 9664   1.115   0.860   6.227  0.1985  0.2671  0.0934
 1257ntf    cn1 9665   1.118   0.776   6.388  0.3693 -0.1954 -0.1468
 1257ntf    fn4 9666   1.501   0.902   6.313  0.1587 -0.0786  0.1472
 1257ntf    fn4 9667   1.550   1.072   6.196  0.0942 -0.3932 -1.1499
 1257ntf    fn4 9668   1.387   1.080   6.313  0.2323  0.3658 -0.3511
 1257ntf    on5 9669   1.299   1.047   6.043 -0.4929 -0.4871 -0.3199
 1257ntf    on5 9670   1.464   0.856   6.030 -0.0062 -0.2373  0.0672
 1257ntf    on5 9671   1.081   0.996   6.259 -0.1839  0.2493 -0.2313
 1257ntf    on5 9672   1.006   0.793   6.161  0.6599 -0.3334 -0.0673
 1257ntf    fn4 9673   1.198   0.671   6.389  0.7805  0.1101 -0.2496
 1257ntf    fn4 9674   1.004   0.729   6.434  0.0718  0.4849 -0.1720
 1257ntf    fn4 9675   1.167   0.860   6.478  0.7621 -0.4133 -0.1532
 1258ntf    cn1 9676   4.696   4.687   2.937  0.1665  0.4909 -0.2753
 1258ntf    sn2 9677   4.684   4.790   3.087  0.1426 -0.1409  0.1592
 1258ntf    nn3 9678   4.529   4.795   3.111  0.0861  0.0239 -0.2334
 1258ntf    sn2 9679   4.433   4.692   3.180  0.1981  0.0675 -0.0123
 1258ntf    cn1 9680   4.424   4.752   3.351 -0.4397 -0.3338  0.0983
 1258ntf    fn4 9681   4.667   4.755   2.827 -0.2825 -0.1875 -0.5828
 1258ntf    fn4 9682   4.815   4.631   2.926 -0.1069 -0.2185  0.3339
 1258ntf    fn4 9683   4.616   4.583   2.948  0.7240  0.1264  0.4270
 1258ntf    on5 9684   4.756   4.713   3.185 -0.0143  0.3760  0.6829
 1258ntf    on5 9685   4.741   4.912   3.035 -0.4610 -0.1128 -0.4583
 1258ntf    on5 9686   4.303   4.718   3.124  0.0820  0.2886  0.3527
 1258ntf    on5 9687   4.470   4.554   3.198 -0.1987  0.0247  0.4813
 1258ntf    fn4 9688   4.397   4.881   3.362 -0.3957 -0.3485  0.3850
 1258ntf    fn4 9689   4.537   4.733   3.417 -0.1528 -0.2934 -0.3798
 1258ntf    fn4 9690   4.327   4.697   3.423 -0.5760 -0.4529 -0.1743
 1259ntf    cn1 9691   3.097   3.049   4.731  0.1540  0.2969 -0.0869
 1259ntf    sn2 9692   2.939   3.075   4.645 -0.1808  0.0338  0.4408
 1259ntf    nn3 9693   2.882   3.196   4.727 -0.1716 -0.0897  0.6287
 1259ntf    sn2 9694   2.732   3.239   4.735 -0.0414  0.4183  0.3818
 1259ntf    cn1 9695   2.723   3.341   4.585  0.3388 -0.1920 -0.0606
 1259ntf    fn4 9696   3.085   3.031   4.862 -0.1767  0.3566 -0.1078
 1259ntf    fn4 9697   3.149   2.934   4.691 -0.5314 -0.0993  0.1405
 1259ntf    fn4 9698   3.196   3.135   4.714  0.2705  0.1335 -0.2433
 1259ntf    on5 9699   2.990   3.098   4.512  0.5834 -0.1738  0.6920
 1259ntf    on5 9700   2.865   2.953   4.668 -0.6254  0.3020  0.4433
 1259ntf    on5 9701   2.642   3.128   4.715  0.2982  0.1753  0.1957
 1259ntf    on5 9702   2.703   3.327   4.846  0.4626  0.4351  0.5005
 1259ntf    fn4 9703   2.601   3.392   4.572  0.3240 -0.2870 -0.3004
 1259ntf    fn4 9704   2.735   3.278   4.470  1.2129 -1.3161  0.6330
 1259ntf    fn4 9705   2.822   3.429   4.583  0.0738  0.1141  0.0330
 1260ntf    cn1 9706   3.778   1.174   6.353  0.2811 -0.2207  0.3938
 1260ntf    sn2 9707   3.673   1.261   6.473 -0.0665 -0.2116  0.0866
 1260ntf    nn3 9708   3.570   1.146   6.503 -0.0043 -0.1756  0.4422
 1260ntf    sn2 9709   3.432   1.128   6.430  0.2435 -0.1284 -0.0389
 1260ntf    cn1 9710   3.401   0.955   6.479  0.0934 -0.0585  0.1130
 1260ntf    fn4 9711   3.709   1.112   6.258  0.4095 -0.7870  0.6615
 1260ntf    fn4 9712   3.858   1.260   6.293 -0.0655 -0.3873 -0.3201
 1260ntf    fn4 9713   3.847   1.085   6.422 -0.1538 -0.8005  0.0945
 1260ntf    on5 9714   3.767   1.291   6.578  0.2039  0.6733 -0.4040
 1260ntf    on5 9715   3.613   1.375   6.409 -0.4818 -0.2973  0.3162
 1260ntf    on5 9716   3.319   1.198   6.486 -0.1968 -0.7042 -0.1987
 1260ntf    on5 9717   3.444   1.117   6.287  0.3998 -0.0190 -0.0340
 1260ntf    fn4 9718   3.424   0.940   6.608  0.3513 -0.2212  0.0496
 1260ntf    fn4 9719   3.497   0.890   6.415 -0.1562 -0.0590 -0.2642
 1260ntf    fn4 9720   3.285   0.903   6.445  0.1248  0.1339 -0.3000
 1261ntf    cn1 9721   4.974   3.797   6.606 -0.2504 -0.2379 -0.1875
 1261ntf    sn2 9722   4.891   3.851   6.758  0.1961  0.0658 -0.0483
 1261ntf    nn3 9723   4.747   3.795   6.730  0.0734  0.0032  0.6943
 1261ntf    sn2 9724   4.613   3.868   6.694  0.4213  0.2888 -0.0426
 1261ntf    cn1 9725   4.534   3.756   6.575 -0.1284 -0.0975  0.6752
 1261ntf    fn4 9726   4.965   3.666   6.589 -0.1885 -0.3112  0.3429
 1261ntf    fn4 9727   4.926   3.863   6.502 -0.4512 -0.6233 -0.3409
 1261ntf    fn4 9728   5.103   3.827   6.605 -0.2641 -0.1435  0.4160
 1261ntf    on5 9729   4.967   3.777   6.855 -0.0216  0.2895  0.2948
 1261ntf    on5 9730   4.907   3.994   6.758 -0.1103  0.1007 -0.1855
 1261ntf    on5 9731   4.508   3.863   6.794  0.0080  0.2252 -0.4766
 1261ntf    on5 9732   4.634   3.991   6.621 -0.3171  0.1004 -0.5825
 1261ntf    fn4 9733   4.597   3.768   6.459 -0.4429  0.2041  0.5345
 1261ntf    fn4 9734   4.409   3.784   6.540  0.2691  0.4103 -0.3915
 1261ntf    fn4 9735   4.532   3.630   6.614 -0.1537 -0.2585  0.1688
 1262ntf    cn1 9736   1.705   5.260   0.251  0.3555 -0.1303 -0.4122
 1262ntf    sn2 9737   1.646   5.145   0.123 -0.0339 -0.2900 -0.0927
 1262ntf    nn3 9738   1.498   5.108   0.162 -0.0286  0.0777  0.2988
 1262ntf    sn2 9739   1.367   5.154   0.088 -0.0435 -0.2747  0.1034
 1262ntf    cn1 9740   1.245   5.029   0.139 -0.0955 -0.1685  0.2387
 1262ntf    fn4 9741   1.832   5.287   0.228  0.3441  0.3467  0.0525
 1262ntf    fn4 9742   1.637   5.372   0.269  0.4476 -0.0560 -0.5271
 1262ntf    fn4 9743   1.713   5.200   0.369 -0.6524 -0.2877 -0.4114
 1262ntf    on5 9744   1.664   5.229   0.007  0.2862 -0.4923 -0.1876
 1262ntf    on5 9745   1.728   5.028   0.133  0.0889 -0.1479  0.6077
 1262ntf    on5 9746   1.318   5.277   0.143  0.0381 -0.0690 -0.2790
 1262ntf    on5 9747   1.367   5.133  -0.055  0.2215 -0.8960  0.1877
 1262ntf    fn4 9748   1.225   5.032   0.269 -0.1201  0.8302  0.2233
 1262ntf    fn4 9749   1.267   4.901   0.117  0.3112 -0.0482 -0.0805
 1262ntf    fn4 9750   1.129   5.057   0.081 -0.1791  0.3502  0.6470
 1263ntf    cn1 9751   0.269   0.189   6.553 -0.0692  0.0544 -0.2529
 1263ntf    sn2 9752   0.395   0.074   6.488  0.1916  0.0301  0.2849
 1263ntf    nn3 9753   0.506   0.176   6.444 -0.3120  0.3534 -0.2606
 1263ntf    sn2 9754   0.659   0.161   6.414 -0.3375  0.0521 -0.2508
 1263ntf    cn1 9755   0.742   0.182   6.574 -0.1192 -0.1069 -0.3415
 1263ntf    fn4 9756   0.309   0.259   6.658 -0.0020  0.0215 -0.2562
 1263ntf    fn4 9757   0.222   0.274   6.464  0.1201  0.6331  0.1936
 1263ntf    fn4 9758   0.159   0.126   6.590 -0.2977  0.4863 -0.1954
 1263ntf    on5 9759   0.427   0.001   6.608  0.1828 -0.2175  0.1383
 1263ntf    on5 9760   0.328   0.005   6.380 -0.2382 -0.1439  0.6601
 1263ntf    on5 9761   0.704   0.031   6.372 -0.5523 -0.1448  0.1348
 1263ntf    on5 9762   0.719   0.270   6.340  0.5936 -0.0515  0.3352
 1263ntf    fn4 9763   0.664   0.269   6.636  0.2296 -0.0136 -0.0295
 1263ntf    fn4 9764   0.868   0.223   6.578 -0.1590 -0.0304  0.2167
 1263ntf    fn4 9765   0.734   0.076   6.653 -1.1285  0.0536 -0.2078
 1264ntf    cn1 9766   0.809   3.483   5.314  0.4031 -0.2814 -0.5839
 1264ntf    sn2 9767   0.636   3.513   5.359  0.5988 -0.0366  0.0128
 1264ntf    nn3 9768   0.637   3.614   5.479 -0.0954  0.3883 -0.3302
 1264ntf    sn2 9769   0.726   3.741   5.503 -0.0310  0.2714  0.0550
 1264ntf    cn1 9770   0.607   3.869   5.552 -0.2563 -0.0413  0.3303
 1264ntf    fn4 9771   0.869   3.425   5.417 -0.0795  0.1213 -0.0726
 1264ntf    fn4 9772   0.823   3.398   5.213  0.1051 -0.5886 -0.3694
 1264ntf    fn4 9773   0.887   3.590   5.302 -0.1279  0.1418 -0.2866
 1264ntf    on5 9774   0.575   3.580   5.247  0.2613 -0.1865  0.1049
 1264ntf    on5 9775   0.570   3.390   5.397  0.4912  0.0613  0.1423
 1264ntf    on5 9776   0.808   3.735   5.622 -0.6581  0.4966  0.5049
 1264ntf    on5 9777   0.783   3.800   5.384 -0.2410  0.6165  0.1233
 1264ntf    fn4 9778   0.566   3.859   5.678  0.1163  0.1361  0.4685
 1264ntf    fn4 9779   0.500   3.861   5.475  0.1218 -0.0812 -0.1936
 1264ntf    fn4 9780   0.659   3.990   5.541  0.2710 -0.2544  0.4542
 1265ntf    cn1 9781   6.515   4.500   5.769  0.1674  0.2657  0.3554
 1265ntf    sn2 9782   6.667   4.428   5.699  0.0779  0.1526  0.2769
 1265ntf    nn3 9783   6.657   4.273   5.726 -0.1940  0.0953 -0.1495
 1265ntf    sn2 9784   6.697   4.153   5.633 -0.2223  0.0859 -0.1491
 1265ntf    cn1 9785   6.786   4.054   5.757 -0.2743  0.2055 -0.0168
 1265ntf    fn4 9786   6.410   4.448   5.708  0.1956  0.2901  0.2858
 1265ntf    fn4 9787   6.509   4.464   5.896  0.4938 -0.0978  0.2752
 1265ntf    fn4 9788   6.511   4.632   5.768 -0.3544  0.2506  0.0783
 1265ntf    on5 9789   6.649   4.462   5.560 -0.4633 -0.2980  0.2328
 1265ntf    on5 9790   6.780   4.481   5.771  0.3774  0.0623 -0.1225
 1265ntf    on5 9791   6.577   4.083   5.593  0.2732 -0.2620 -1.0536
 1265ntf    on5 9792   6.802   4.184   5.539  0.3008 -0.1444  0.3597
 1265ntf    fn4 9793   6.710   4.000   5.850 -0.5695 -0.2852 -0.5376
 1265ntf    fn4 9794   6.878   4.123   5.824  0.0470 -0.2778  0.0415
 1265ntf    fn4 9795   6.845   3.950   5.701 -0.2421  0.2679 -0.1018
 1266ntf    cn1 9796   4.748   2.214   6.587 -0.0520 -0.1236 -0.2427
 1266ntf    sn2 9797   4.733   2.395   6.591  0.2285 -0.1080  0.1080
 1266ntf    nn3 9798   4.865   2.438   6.518  0.0989 -0.1716 -0.1631
 1266ntf    sn2 9799   5.003   2.468   6.587 -0.0709  0.5494 -0.1252
 1266ntf    cn1 9800   5.094   2.544   6.450 -0.0173  0.0443 -0.3719
 1266ntf    fn4 9801   4.641   2.137   6.604 -0.0457 -0.0838 -0.0126
 1266ntf    fn4 9802   4.816   2.172   6.482  0.1721 -0.5361  0.0656
 1266ntf    fn4 9803   4.825   2.175   6.687 -0.4268 -0.4749 -0.0871
 1266ntf    on5 9804   4.614   2.420   6.515 -0.0911 -0.9123  0.3402
 1266ntf    on5 9805   4.721   2.417   6.733 -0.7138  0.2893 -0.0224
 1266ntf    on5 9806   4.990   2.575   6.683 -0.3354  0.3856  0.0238
 1266ntf    on5 9807   5.079   2.352   6.629 -0.4059  0.3329 -0.1115
 1266ntf    fn4 9808   5.041   2.663   6.426 -0.4376 -0.0128  0.2675
 1266ntf    fn4 9809   5.103   2.477   6.335 -0.1455  0.1507 -0.4431
 1266ntf    fn4 9810   5.223   2.561   6.476 -0.0535  0.1344 -0.2528
 1267ntf    cn1 9811   4.379   2.042   1.825 -0.1886  0.3296 -0.1103
 1267ntf    sn2 9812   4.324   2.163   1.949  0.2874 -0.0056  0.4332
 1267ntf    nn3 9813   4.301   2.297   1.870  0.5786 -0.0921  0.2011
 1267ntf    sn2 9814   4.362   2.440   1.890  0.1467  0.1609 -0.2506
 1267ntf    cn1 9815   4.229   2.559   1.861 -0.3508 -0.2176  0.4377
 1267ntf    fn4 9816   4.498   2.073   1.778  0.0490 -0.4785 -0.0607
 1267ntf    fn4 9817   4.388   1.924   1.886 -0.4780  0.1804 -0.3539
 1267ntf    fn4 9818   4.311   2.033   1.712 -0.5370 -0.1113  0.1281
 1267ntf    on5 9819   4.200   2.114   2.003 -0.2867  0.1955 -0.6819
 1267ntf    on5 9820   4.433   2.174   2.043  0.3831  0.2514  0.2943
 1267ntf    on5 9821   4.409   2.469   2.023  0.4819  0.1804 -0.3716
 1267ntf    on5 9822   4.458   2.462   1.785 -0.1645  0.1490 -0.5366
 1267ntf    fn4 9823   4.149   2.545   1.756  0.3359  1.3149 -0.3330
 1267ntf    fn4 9824   4.276   2.683   1.861 -0.2881 -0.2305 -0.6071
 1267ntf    fn4 9825   4.152   2.549   1.968 -0.2935 -0.2238  0.4783
 1268ntf    cn1 9826   0.052   4.880   3.082  0.3398 -0.7337  0.0586
 1268ntf    sn2 9827   0.118   4.884   2.913 -0.2047  0.0397 -0.1412
 1268ntf    nn3 9828  -0.008   4.846   2.828 -0.1296  0.1104 -0.2844
 1268ntf    sn2 9829  -0.032   4.716   2.743  0.0456  0.0080 -0.1788
 1268ntf    cn1 9830   0.057   4.750   2.589 -0.3603  0.1035 -0.3937
 1268ntf    fn4 9831  -0.019   4.989   3.103  1.0847 -0.2486  0.0853
 1268ntf    fn4 9832  -0.016   4.767   3.097  0.1408 -0.6173  0.0394
 1268ntf    fn4 9833   0.146   4.899   3.174 -0.0219 -0.0855  0.3040
 1268ntf    on5 9834   0.148   5.024   2.893 -0.0244 -0.0803 -0.7226
 1268ntf    on5 9835   0.231   4.794   2.917  0.3855  0.7195 -1.2057
 1268ntf    on5 9836   0.029   4.599   2.801 -0.2734 -0.2138 -0.2891
 1268ntf    on5 9837  -0.169   4.717   2.697  0.0521  0.4493 -0.2006
 1268ntf    fn4 9838   0.024   4.869   2.540 -0.2827  0.1459 -0.3445
 1268ntf    fn4 9839   0.025   4.664   2.494 -0.2809  0.5271 -0.8095
 1268ntf    fn4 9840   0.188   4.737   2.603 -0.3186  0.4917 -0.3896
 1269ntf    cn1 9841   6.288   6.654   2.200  0.2828 -0.3216  0.1659
 1269ntf    sn2 9842   6.185   6.507   2.176  0.0068 -0.0821 -0.1153
 1269ntf    nn3 9843   6.222   6.431   2.308  0.5675 -0.0612 -0.2584
 1269ntf    sn2 9844   6.162   6.307   2.384  0.0193  0.1654 -0.3130
 1269ntf    cn1 9845   6.075   6.404   2.510 -0.3859 -0.1224 -0.3703
 1269ntf    fn4 9846   6.252   6.758   2.126  0.0392 -0.3741  0.2113
 1269ntf    fn4 9847   6.293   6.697   2.325  0.1541 -0.0192  0.0690
 1269ntf    fn4 9848   6.412   6.622   2.165  0.0638 -0.8123 -0.1724
 1269ntf    on5 9849   6.053   6.566   2.173  0.2280  0.3924 -0.7967
 1269ntf    on5 9850   6.226   6.441   2.054 -0.4096  0.4122 -0.5301
 1269ntf    on5 9851   6.059   6.242   2.307  0.4110 -0.8911  0.0273
 1269ntf    on5 9852   6.251   6.227   2.464 -0.0409  0.4336  0.0212
 1269ntf    fn4 9853   6.016   6.327   2.600  0.0471  0.1600  0.1641
 1269ntf    fn4 9854   5.986   6.483   2.452 -0.1571 -0.1105 -0.7063
 1269ntf    fn4 9855   6.157   6.478   2.582 -0.4420 -0.4839  0.0711
 1270ntf    cn1 9856   5.778   2.876   0.059  0.4684 -0.5191 -0.3861
 1270ntf    sn2 9857   5.636   2.775   0.114  0.3891 -0.3812 -0.3397
 1270ntf    nn3 9858   5.714   2.677   0.209  0.1524 -0.0481  0.2037
 1270ntf    sn2 9859   5.673   2.534   0.258  0.1086  0.0410  0.4252
 1270ntf    cn1 9860   5.685   2.569   0.436 -0.2111 -0.0626  0.4667
 1270ntf    fn4 9861   5.842   2.952   0.147 -0.1253 -0.5110  0.0464
 1270ntf    fn4 9862   5.877   2.801   0.013  0.7017 -0.0765 -0.6092
 1270ntf    fn4 9863   5.736   2.968  -0.026  0.6964 -0.2026 -0.1581
 1270ntf    on5 9864   5.549   2.865   0.186  0.1147 -0.6905 -0.2864
 1270ntf    on5 9865   5.597   2.718  -0.013  0.2294 -0.2779 -0.3378
 1270ntf    on5 9866   5.542   2.488   0.222  0.3425 -0.0627 -0.2968
 1270ntf    on5 9867   5.773   2.431   0.237  0.4302  0.4238  0.0648
 1270ntf    fn4 9868   5.612   2.476   0.497 -0.8061  0.0549 -0.0610
 1270ntf    fn4 9869   5.633   2.684   0.477  0.0623  0.0652  0.4518
 1270ntf    fn4 9870   5.808   2.556   0.484 -0.1690 -0.4326  0.2571
 1271ntf    cn1 9871   4.833   6.483   3.184 -0.0971 -0.3454 -0.0629
 1271ntf    sn2 9872   4.966   6.376   3.246 -0.1929 -0.2114  0.3815
 1271ntf    nn3 9873   5.099   6.457   3.226 -0.4366  0.0904 -0.0394
 1271ntf    sn2 9874   5.169   6.564   3.317  0.0099 -0.3712  0.1697
 1271ntf    cn1 9875   5.281   6.645   3.199 -0.0295 -0.2923  0.1859
 1271ntf    fn4 9876   4.864   6.513   3.059  0.2366 -0.4913 -0.0166
 1271ntf    fn4 9877   4.714   6.425   3.188 -0.2318 -0.1121 -0.5860
 1271ntf    fn4 9878   4.825   6.595   3.254  0.2249 -0.4369  0.1240
 1271ntf    on5 9879   4.939   6.360   3.386  0.0991 -0.6361  0.3914
 1271ntf    on5 9880   4.971   6.256   3.165 -0.2299  0.4018 -0.5443
 1271ntf    on5 9881   5.078   6.671   3.349  0.6140  0.4075 -0.6565
 1271ntf    on5 9882   5.263   6.518   3.416  0.2434 -1.1987 -0.4308
 1271ntf    fn4 9883   5.376   6.571   3.144  0.2399  0.4337 -0.3407
 1271ntf    fn4 9884   5.343   6.750   3.250  0.5355 -0.4627 -0.1365
 1271ntf    fn4 9885   5.223   6.693   3.090  0.3453  0.2051  0.2009
 1272ntf    cn1 9886   2.818   4.374   2.549  0.0147 -0.5504 -0.2394
 1272ntf    sn2 9887   2.837   4.539   2.624 -0.0323 -0.6290 -0.0547
 1272ntf    nn3 9888   2.824   4.512   2.778 -0.3544  0.4232  0.1077
 1272ntf    sn2 9889   2.721   4.571   2.881 -0.3290  0.3084  0.1990
 1272ntf    cn1 9890   2.596   4.438   2.889  0.2072 -0.2227 -0.1879
 1272ntf    fn4 9891   2.811   4.386   2.417 -0.4772 -0.0319 -0.1727
 1272ntf    fn4 9892   2.924   4.299   2.573  0.3600  0.0106  0.0093
 1272ntf    fn4 9893   2.712   4.309   2.593 -0.2387  0.3409  0.5118
 1272ntf    on5 9894   2.970   4.571   2.578 -0.1526  0.1363  0.1157
 1272ntf    on5 9895   2.737   4.616   2.555  0.3033  0.4467  0.6411
 1272ntf    on5 9896   2.778   4.568   3.014  0.6612 -0.6101 -0.2301
 1272ntf    on5 9897   2.655   4.690   2.833 -0.0767  0.4641  0.2346
 1272ntf    fn4 9898   2.487   4.475   2.953  0.2229 -0.4848 -0.0119
 1272ntf    fn4 9899   2.645   4.330   2.946  0.6618  0.3577  0.5480
 1272ntf    fn4 9900   2.557   4.400   2.768  0.2849 -0.1631 -0.2321
 1273ntf    cn1 9901   3.148   0.082   1.833 -0.0532  0.2738  0.1182
 1273ntf    sn2 9902   3.277   0.210   1.843 -0.0008  0.2268  0.0469
 1273ntf    nn3 9903   3.343   0.185   1.703 -0.6761 -1.3543 -0.0091
 1273ntf    sn2 9904   3.483   0.120   1.672 -0.0362 -0.0074 -0.0191
 1273ntf    cn1 9905   3.472   0.106   1.491 -0.3197  0.3719 -0.0329
 1273ntf    fn4 9906   3.204  -0.035   1.856 -0.0869  0.4038  0.8727
 1273ntf    fn4 9907   3.051   0.107   1.919 -0.3935  0.0880 -0.2083
 1273ntf    fn4 9908   3.103   0.076   1.708  0.6953 -0.1889 -0.1357
 1273ntf    on5 9909   3.205   0.335   1.836  0.1961  0.3197 -0.3635
 1273ntf    on5 9910   3.350   0.169   1.961 -0.2625  0.0536  0.1493
 1273ntf    on5 9911   3.590   0.216   1.684 -0.3864  0.3198  0.5418
 1273ntf    on5 9912   3.488  -0.014   1.726 -0.2080  0.0147  0.0522
 1273ntf    fn4 9913   3.356   0.051   1.460  0.0642 -0.5174  0.0878
 1273ntf    fn4 9914   3.569   0.025   1.453 -0.3370  0.4489 -0.2394
 1273ntf    fn4 9915   3.493   0.217   1.422 -0.5019 -0.0100 -0.7070
 1274ntf    cn1 9916   1.684   4.430   1.046 -0.3217 -0.1800  0.2610
 1274ntf    sn2 9917   1.528   4.504   0.987 -0.2707 -0.1693  0.1388
 1274ntf    nn3 9918   1.433   4.389   1.038 -0.0221 -0.4021  0.0793
 1274ntf    sn2 9919   1.281   4.401   1.072  0.0045  0.3293 -0.0353
 1274ntf    cn1 9920   1.226   4.233   1.030  0.1069  0.3146 -0.1119
 1274ntf    fn4 9921   1.788   4.501   1.003 -0.3821  0.4353  1.0989
 1274ntf    fn4 9922   1.691   4.436   1.178 -0.4973 -0.2736  0.2745
 1274ntf    fn4 9923   1.705   4.304   1.012  0.2067  0.0532 -0.2961
 1274ntf    on5 9924   1.521   4.626   1.063 -0.3520 -0.1074  0.0323
 1274ntf    on5 9925   1.542   4.522   0.845 -0.3544  0.2294  0.1800
 1274ntf    on5 9926   1.261   4.401   1.214  0.3741  0.0804  0.0156
 1274ntf    on5 9927   1.204   4.494   0.993  0.5763  0.2408 -0.7066
 1274ntf    fn4 9928   1.278   4.182   0.919 -0.3424 -0.2987 -0.0459
 1274ntf    fn4 9929   1.094   4.221   1.023  0.0759  0.3927  0.3146
 1274ntf    fn4 9930   1.257   4.148   1.126 -0.4173  0.3601  0.1010
 1275ntf    cn1 9931   0.097   3.377   0.963  0.0189 -0.3577  0.3030
 1275ntf    sn2 9932  -0.029   3.340   1.089 -0.2369 -0.2373  0.0839
 1275ntf    nn3 9933   0.044   3.397   1.216 -0.4784  0.0162  0.1092
 1275ntf    sn2 9934   0.122   3.317   1.326 -0.1548  0.0458 -0.0970
 1275ntf    cn1 9935   0.102   3.425   1.471  0.2564 -0.1841  0.1327
 1275ntf    fn4 9936   0.102   3.497   0.908  0.0351 -0.3511  0.3195
 1275ntf    fn4 9937   0.217   3.353   1.014  0.0514 -0.0256  0.3790
 1275ntf    fn4 9938   0.076   3.299   0.858 -0.2954 -0.2244  0.2657
 1275ntf    on5 9939  -0.139   3.424   1.050 -0.2708 -0.3799 -0.1310
 1275ntf    on5 9940  -0.053   3.198   1.085 -0.1497 -0.2471 -0.1163
 1275ntf    on5 9941   0.068   3.191   1.370 -0.4521  0.0584 -0.4210
 1275ntf    on5 9942   0.264   3.330   1.306 -0.1594  0.2168 -0.0207
 1275ntf    fn4 9943   0.137   3.551   1.450  0.4753 -0.2812 -0.0908
 1275ntf    fn4 9944   0.170   3.383   1.576 -0.0321  0.3472  0.5351
 1275ntf    fn4 9945  -0.025   3.430   1.506  0.2919 -0.2879  0.2770
 1276ntf    cn1 9946   6.015   1.367   1.495 -0.1482  0.1458  0.4381
 1276ntf    sn2 9947   6.004   1.396   1.316 -0.2062  0.0327  0.4230
 1276ntf    nn3 9948   5.855   1.445   1.318 -0.1635  0.2019 -0.3109
 1276ntf    sn2 9949   5.730   1.403   1.232 -0.3200  0.0535 -0.0133
 1276ntf    cn1 9950   5.590   1.429   1.345 -0.1641  0.2856  0.1281
 1276ntf    fn4 9951   6.034   1.482   1.558  0.2889  0.4688 -0.2745
 1276ntf    fn4 9952   5.916   1.305   1.557 -0.2430 -0.3806 -0.2256
 1276ntf    fn4 9953   6.117   1.286   1.521 -0.1404 -0.0680 -0.2379
 1276ntf    on5 9954   6.099   1.504   1.309 -0.1002 -0.0449  0.6535
 1276ntf    on5 9955   6.032   1.269   1.255  0.5644  0.2512  0.3114
 1276ntf    on5 9956   5.714   1.496   1.123 -0.0440 -0.2121 -0.2830
 1276ntf    on5 9957   5.723   1.262   1.201  0.3904 -0.1166  0.5682
 1276ntf    fn4 9958   5.602   1.341   1.443  0.1350  0.6152  0.3898
 1276ntf    fn4 9959   5.472   1.395   1.295 -0.1297 -0.1057  0.3107
 1276ntf    fn4 9960   5.587   1.547   1.405  0.7015  0.1295  0.4934
 1277ntf    cn1 9961   3.285   6.598   4.201 -0.3678  0.5498 -0.2497
 1277ntf    sn2 9962   3.356   6.759   4.247  0.1523  0.1509  0.3675
 1277ntf    nn3 9963   3.292   6.847   4.134  0.0375  0.1558  0.4363
 1277ntf    sn2 9964   3.185   6.962   4.136  0.1591  0.2804 -0.0216
 1277ntf    cn1 9965   3.077   6.907   4.000 -0.1418  0.4566  0.1448
 1277ntf    fn4 9966   3.321   6.540   4.087  0.0141  0.0279  0.1328
 1277ntf    fn4 9967   3.323   6.506   4.288  0.0385  0.5731 -0.4001
 1277ntf    fn4 9968   3.153   6.597   4.202 -0.3645  0.3091 -0.1090
 1277ntf    on5 9969   3.308   6.775   4.382 -0.1759 -0.0427  0.2734
 1277ntf    on5 9970   3.495   6.733   4.219  0.0369 -0.1958  0.1147
 1277ntf    on5 9971   3.093   6.970   4.247 -0.2119  0.4330 -0.3354
 1277ntf    on5 9972   3.239   7.089   4.095  0.3663  0.4022  0.6275
 1277ntf    fn4 9973   3.075   6.775   4.002 -0.5232  0.4658  0.5329
 1277ntf    fn4 9974   3.111   6.952   3.880 -0.5450  0.0089 -0.1391
 1277ntf    fn4 9975   2.948   6.930   4.022 -0.2443 -0.1695  0.2174
 1278ntf    cn1 9976   2.570   5.406   4.546 -0.1314  0.3279 -0.8068
 1278ntf    sn2 9977   2.483   5.246   4.549  0.4867 -0.0014  0.2296
 1278ntf    nn3 9978   2.346   5.285   4.613  0.3925  0.1675 -0.0728
 1278ntf    sn2 9979   2.206   5.295   4.542  0.0621 -0.2589  0.5057
 1278ntf    cn1 9980   2.161   5.119   4.542  0.3549 -0.3352  0.2980
 1278ntf    fn4 9981   2.491   5.500   4.498 -0.7992  0.0251 -0.3160
 1278ntf    fn4 9982   2.599   5.451   4.667 -0.4513 -0.1084 -0.5660
 1278ntf    fn4 9983   2.684   5.398   4.479  0.2551 -0.2141 -0.1095
 1278ntf    on5 9984   2.491   5.203   4.411  0.9055 -0.1879  0.3103
 1278ntf    on5 9985   2.567   5.172   4.639 -0.2271 -0.0919  0.8286
 1278ntf    on5 9986   2.097   5.362   4.607 -0.6166  0.1627 -1.0094
 1278ntf    on5 9987   2.208   5.335   4.403 -0.7379 -0.7968  0.3308
 1278ntf    fn4 9988   2.238   5.043   4.466  0.3756 -0.2532  0.2375
 1278ntf    fn4 9989   2.039   5.091   4.501  0.3912  0.1496 -0.1451
 1278ntf    fn4 9990   2.163   5.066   4.663 -0.0250  1.0387  0.9248
 1279ntf    cn1 9991   2.902   2.651   1.919 -0.5476 -0.1322  0.4486
 1279ntf    sn2 9992   2.896   2.579   1.752  0.4040  0.3713  0.1841
 1279ntf    nn3 9993   2.994   2.679   1.682 -0.0538  0.7585  0.0943
 1279ntf    sn2 9994   3.117   2.644   1.591 -0.4954  0.0628 -0.2432
 1279ntf    cn1 9995   3.104   2.791   1.484  0.1123 -0.0844 -0.5220
 1279ntf    fn4 9996   3.024   2.699   1.941 -0.5147 -0.1035  0.2049
 1279ntf    fn4 9997   2.825   2.755   1.946 -0.0904  0.2819  0.1869
 1279ntf    fn4 9998   2.873   2.567   2.016 -1.0343  0.1343  0.5365
 1279ntf    on5 9999   2.944   2.446   1.781 -0.2525  0.0529 -0.1579
 1279ntf    on510000   2.759   2.589   1.708  0.4402  0.0618 -0.0040
 1279ntf    on510001   3.245   2.663   1.654 -0.4376  0.0595 -0.3599
 1279ntf    on510002   3.106   2.530   1.504  0.1765 -0.3154  0.1577
 1279ntf    fn410003   2.992   2.775   1.416 -0.2667  0.7016 -0.0932
 1279ntf    fn410004   3.204   2.798   1.398  0.5502  0.2243  0.0067
 1279ntf    fn410005   3.090   2.907   1.546 -0.2006 -0.4839  0.1630
 1280ntf    cn110006   5.336   1.048   0.181 -0.4003 -0.2993 -0.1919
 1280ntf    sn210007   5.342   0.968   0.344 -0.0168  0.0716 -0.0240
 1280ntf    nn310008   5.494   1.000   0.369  0.0659  0.1849 -0.6634
 1280ntf    sn210009   5.558   1.131   0.427  0.1057 -0.1321  0.0172
 1280ntf    cn110010   5.705   1.068   0.513  0.1225  0.0504  0.1241
 1280ntf    fn410011   5.389   1.169   0.190  0.1758 -0.5720  0.0910
 1280ntf    fn410012   5.395   0.983   0.083 -0.5777 -0.5684 -0.1223
 1280ntf    fn410013   5.210   1.071   0.147 -0.3994  0.1029  0.0647
 1280ntf    on510014   5.242   1.037   0.422  0.0460 -0.4034  0.4867
 1280ntf    on510015   5.328   0.826   0.325  0.2230  0.0524 -0.0582
 1280ntf    on510016   5.616   1.231   0.341  0.4959 -0.2194  0.1753
 1280ntf    on510017   5.479   1.175   0.540 -0.0917  0.4562 -0.3492
 1280ntf    fn410018   5.681   0.978   0.607  0.3174  0.2007  0.3161
 1280ntf    fn410019   5.775   1.163   0.572 -0.2165  0.1886  0.3078
 1280ntf    fn410020   5.790   1.002   0.435 -0.1146  0.2759 -0.3293
 1281ntf    cn110021   0.206   5.342   5.300 -0.0449 -0.1249 -0.1979
 1281ntf    sn210022   0.196   5.162   5.275 -0.2196 -0.0972 -0.3233
 1281ntf    nn310023   0.041   5.141   5.258 -0.2594 -0.2603  0.2158
 1281ntf    sn210024  -0.021   5.016   5.187 -0.0429 -0.1854 -0.1099
 1281ntf    cn110025  -0.188   5.088   5.176  0.3368  0.6942 -0.2290
 1281ntf    fn410026   0.179   5.406   5.187 -0.3193  0.2006  0.0499
 1281ntf    fn410027   0.120   5.371   5.396 -0.4036 -0.2506 -0.4805
 1281ntf    fn410028   0.324   5.379   5.347  0.1305 -0.0492 -0.6909
 1281ntf    on510029   0.272   5.152   5.153  0.3057  0.1287 -0.0193
 1281ntf    on510030   0.247   5.109   5.398 -0.2365 -0.3083 -0.4075
 1281ntf    on510031   0.018   4.997   5.049 -0.0019 -0.3858 -0.0709
 1281ntf    on510032  -0.036   4.899   5.269  0.0047 -0.2547 -0.2004
 1281ntf    fn410033  -0.268   5.010   5.106  0.0608  0.6945  0.0799
 1281ntf    fn410034  -0.181   5.203   5.111  0.4252  0.6012 -0.3847
 1281ntf    fn410035  -0.252   5.096   5.292  0.1937 -0.1963 -0.2338
 1282ntf    cn110036   1.601   0.634   1.798  0.0493  0.2335 -0.0280
 1282ntf    sn210037   1.572   0.512   1.929  0.0085  0.1811 -0.0853
 1282ntf    nn310038   1.713   0.526   1.998 -0.2740 -0.1668  0.5749
 1282ntf    sn210039   1.771   0.453   2.124  0.3783 -0.1588  0.2806
 1282ntf    cn110040   1.776   0.605   2.223  0.5280  0.1042 -0.1259
 1282ntf    fn410041   1.490   0.668   1.735 -0.2547  0.6426  0.7266
 1282ntf    fn410042   1.658   0.742   1.849  0.4787  0.1863 -0.3969
 1282ntf    fn410043   1.677   0.582   1.702 -0.0989  0.2790 -0.1706
 1282ntf    on510044   1.463   0.569   2.004  0.0076  0.4992 -0.3276
 1282ntf    on510045   1.555   0.392   1.851 -0.2401 -0.0141  0.2637
 1282ntf    on510046   1.680   0.366   2.195  0.1796 -0.2309 -0.0573
 1282ntf    on510047   1.912   0.422   2.111  0.4053  0.1049 -0.0580
 1282ntf    fn410048   1.854   0.698   2.171 -0.0989  0.6697 -0.0674
 1282ntf    fn410049   1.812   0.587   2.349  0.0887  0.0137 -0.0091
 1282ntf    fn410050   1.651   0.648   2.233  0.4159 -0.1507 -0.4092
 1283ntf    cn110051   4.310   6.014   3.963  0.3958 -0.0580  0.1021
 1283ntf    sn210052   4.461   5.984   3.867  0.0888 -0.3212 -0.2989
 1283ntf    nn310053   4.450   5.832   3.830 -0.0651 -0.3554 -0.1129
 1283ntf    sn210054   4.507   5.705   3.903 -0.1414 -0.2414  0.1425
 1283ntf    cn110055   4.658   5.662   3.812 -0.0299  0.4296  0.0033
 1283ntf    fn410056   4.274   6.142   3.960 -0.0853 -0.2028 -0.3636
 1283ntf    fn410057   4.206   5.949   3.915  0.4896  0.3702 -0.7058
 1283ntf    fn410058   4.326   5.975   4.088 -0.2692 -0.6843 -0.0058
 1283ntf    on510059   4.442   6.069   3.752  0.0894  0.1512  0.0472
 1283ntf    on510060   4.564   6.014   3.964 -0.1389 -0.3424 -0.0507
 1283ntf    on510061   4.554   5.737   4.036  0.3383  0.7232 -0.2514
 1283ntf    on510062   4.422   5.590   3.886  0.1434 -0.4111 -0.1426
 1283ntf    fn410063   4.640   5.676   3.682  0.4452  0.0488 -0.1079
 1283ntf    fn410064   4.691   5.534   3.824 -0.2242  0.2904 -0.8547
 1283ntf    fn410065   4.764   5.732   3.849  0.0718  0.3008 -0.0413
 1284ntf    cn110066   2.352   4.378   2.096 -0.2518  0.2106 -0.0800
 1284ntf    sn210067   2.190   4.392   2.177 -0.0748  0.0444  0.3032
 1284ntf    nn310068   2.097   4.409   2.052  1.0563  0.7464 -0.4635
 1284ntf    sn210069   2.019   4.537   2.005  0.0786  0.2436 -0.2555
 1284ntf    cn110070   1.998   4.523   1.824  0.0018  0.0279 -0.2301
 1284ntf    fn410071   2.453   4.367   2.180 -0.1636  0.3178 -0.1712
 1284ntf    fn410072   2.368   4.273   2.017  0.3879  0.0163  0.3012
 1284ntf    fn410073   2.386   4.486   2.027  0.5335  0.2657  0.3785
 1284ntf    on510074   2.160   4.264   2.237  0.0198 -0.2141 -0.1956
 1284ntf    on510075   2.195   4.501   2.271 -0.8419 -0.0768  0.4902
 1284ntf    on510076   1.887   4.545   2.062  0.0210 -0.6759 -0.2476
 1284ntf    on510077   2.092   4.662   2.008  0.5845 -0.0671  0.7921
 1284ntf    fn410078   2.120   4.539   1.774  0.2648 -0.4152  0.2562
 1284ntf    fn410079   1.917   4.615   1.776  0.1226  0.1237 -0.2535
 1284ntf    fn410080   1.955   4.402   1.794  0.2798 -0.0951 -0.1446
 1285ntf    cn110081   0.063   6.006   2.541  0.2448 -0.0122 -0.0131
 1285ntf    sn210082  -0.075   5.976   2.655  0.0307 -0.0820 -0.2884
 1285ntf    nn310083  -0.094   5.820   2.648  0.0777 -0.0956 -0.1173
 1285ntf    sn210084  -0.062   5.718   2.763 -0.0168  0.0558  0.0420
 1285ntf    cn110085  -0.220   5.743   2.851 -0.1276  0.2031 -0.1965
 1285ntf    fn410086   0.088   6.136   2.550 -0.0099  0.0051  0.4271
 1285ntf    fn410087   0.171   5.937   2.571 -0.1520 -0.3432  0.6521
 1285ntf    fn410088   0.032   5.979   2.415 -0.1251  0.3964 -0.0135
 1285ntf    on510089  -0.032   6.036   2.779 -0.1232 -0.0851 -0.2330
 1285ntf    on510090  -0.190   6.031   2.588 -0.4140 -0.0230  0.5115
 1285ntf    on510091  -0.062   5.581   2.721 -0.2092  0.1082 -0.1318
 1285ntf    on510092   0.041   5.748   2.859  0.0594 -0.1898  0.0363
 1285ntf    fn410093  -0.257   5.868   2.872 -0.2553  0.1455 -0.0711
 1285ntf    fn410094  -0.232   5.669   2.961 -0.1917  0.8379  0.2294
 1285ntf    fn410095  -0.313   5.697   2.770  0.1843 -0.2019 -0.3293
 1286ntf    cn110096   1.161   2.711   1.752 -0.2771 -0.2428 -0.0303
 1286ntf    sn210097   1.044   2.584   1.695 -0.2521 -0.3080  0.0620
 1286ntf    nn310098   1.032   2.501   1.827 -0.1870 -0.6648 -0.1550
 1286ntf    sn210099   0.941   2.518   1.954  0.0454 -0.1665 -0.0524
 1286ntf    cn110100   0.799   2.417   1.899  0.2829 -0.2723 -0.4757
 1286ntf    fn410101   1.125   2.767   1.867  0.0408 -0.4627  0.1787
 1286ntf    fn410102   1.284   2.663   1.768 -0.4465 -0.7052 -0.1102
 1286ntf    fn410103   1.176   2.808   1.663 -0.9221  0.0336  0.1592
 1286ntf    on510104   0.930   2.659   1.648  0.0901  0.6084  0.6520
 1286ntf    on510105   1.126   2.518   1.596 -0.3749 -0.7365  0.2441
 1286ntf    on510106   0.993   2.447   2.068  0.9981  0.2020 -0.2490
 1286ntf    on510107   0.888   2.650   1.974 -0.1384 -0.3317  0.5764
 1286ntf    fn410108   0.841   2.309   1.835  0.4286 -0.2220 -0.4676
 1286ntf    fn410109   0.730   2.482   1.807 -0.0240 -0.2280 -0.2135
 1286ntf    fn410110   0.718   2.374   1.994  0.1292 -0.1464 -0.5484
 1287ntf    cn110111   1.895   0.234   5.402 -0.0665 -0.2029  0.2599
 1287ntf    sn210112   1.992   0.102   5.323 -0.1719  0.0404 -0.2820
 1287ntf    nn310113   2.119   0.176   5.268  0.0654 -0.1642 -0.0152
 1287ntf    sn210114   2.267   0.124   5.278  0.0591 -0.1522  0.1495
 1287ntf    cn110115   2.347   0.244   5.167 -0.0395 -0.3620 -0.1506
 1287ntf    fn410116   1.934   0.268   5.524  0.2555  0.3594  0.0058
 1287ntf    fn410117   1.900   0.346   5.332  0.7412 -0.2607  0.2161
 1287ntf    fn410118   1.767   0.205   5.413 -0.0553 -0.1745  0.4711
 1287ntf    on510119   2.014   0.008   5.431  0.0346 -0.0093 -0.3677
 1287ntf    on510120   1.914   0.052   5.213 -0.3110 -0.2123 -0.0714
 1287ntf    on510121   2.334   0.144   5.404  0.1239 -0.2717  0.1334
 1287ntf    on510122   2.296   0.005   5.202 -0.4563 -0.4661  0.4404
 1287ntf    fn410123   2.472   0.210   5.139 -0.2461 -0.7019 -0.6756
 1287ntf    fn410124   2.347   0.356   5.238  0.2859 -0.0979 -0.5604
 1287ntf    fn410125   2.288   0.264   5.050 -0.0257 -0.0187 -0.0995
 1288ntf    cn110126   5.957   1.485   6.568 -0.0385  0.0189 -0.5504
 1288ntf    sn210127   6.130   1.456   6.520  0.0607  0.0572 -0.2155
 1288ntf    nn310128   6.114   1.312   6.459 -0.1212 -0.1975  0.4254
 1288ntf    sn210129   6.158   1.174   6.519 -0.0888 -0.2229  0.3435
 1288ntf    cn110130   6.155   1.076   6.366 -0.2270 -0.1033  0.2697
 1288ntf    fn410131   5.919   1.603   6.614  0.0766 -0.2331  0.2003
 1288ntf    fn410132   5.882   1.470   6.459 -0.5776 -0.7282 -0.0849
 1288ntf    fn410133   5.916   1.399   6.660  0.4338  0.2756 -0.0937
 1288ntf    on510134   6.147   1.560   6.422 -0.4870  0.2766 -0.0828
 1288ntf    on510135   6.209   1.473   6.640 -0.3536  0.2655  0.0297
 1288ntf    on510136   6.294   1.160   6.566  0.2354  0.1394 -0.4783
 1288ntf    on510137   6.054   1.110   6.596 -0.4399 -0.2818 -0.1757
 1288ntf    fn410138   6.197   0.951   6.372  0.0012 -0.0609 -0.3534
 1288ntf    fn410139   6.233   1.134   6.276 -0.1524  0.0269  0.4163
 1288ntf    fn410140   6.033   1.075   6.315 -0.0635  0.5250 -0.1551
 1289ntf    cn110141   5.366   4.143   6.539  0.1805 -0.1611  0.1484
 1289ntf    sn210142   5.480   4.165   6.679  0.3679 -0.3403  0.0249
 1289ntf    nn310143   5.388   4.219   6.794  0.5721  0.4415 -0.1692
 1289ntf    sn210144   5.324   4.129   6.906  0.0811  0.3958 -0.4800
 1289ntf    cn110145   5.176   4.228   6.940 -0.1346  0.0190 -0.3143
 1289ntf    fn410146   5.432   4.093   6.435 -0.0570 -0.0475 -0.0595
 1289ntf    fn410147   5.273   4.051   6.560  0.3126 -0.2007  0.5605
 1289ntf    fn410148   5.312   4.258   6.503 -0.0928 -0.2346  0.3217
 1289ntf    on510149   5.550   4.041   6.701  0.4541 -0.4446 -0.7857
 1289ntf    on510150   5.564   4.274   6.636 -0.0052 -0.0711 -0.0316
 1289ntf    on510151   5.283   4.000   6.857 -0.1527  0.2323  0.1333
 1289ntf    on510152   5.397   4.142   7.030 -0.6130 -0.1937 -0.0023
 1289ntf    fn410153   5.075   4.222   6.854 -0.1489 -0.2803 -0.2758
 1289ntf    fn410154   5.200   4.358   6.949 -0.3782  0.0794 -0.5302
 1289ntf    fn410155   5.130   4.205   7.062 -0.0397 -0.6064 -0.3943
 1290ntf    cn110156   2.471   2.046   4.540 -0.0480 -0.6653 -0.2688
 1290ntf    sn210157   2.626   2.116   4.606 -0.1297 -0.3096 -0.4525
 1290ntf    nn310158   2.601   2.090   4.758 -0.5061 -0.0809 -0.4745
 1290ntf    sn210159   2.542   2.185   4.870 -0.0376  0.0646 -0.3510
 1290ntf    cn110160   2.697   2.208   4.962 -0.2750 -0.2175  0.1234
 1290ntf    fn410161   2.458   1.924   4.586 -0.1091 -0.3098  0.6673
 1290ntf    fn410162   2.365   2.113   4.581 -0.0755 -0.7651 -0.1791
 1290ntf    fn410163   2.462   2.060   4.408  0.5921  0.5161 -0.2081
 1290ntf    on510164   2.727   2.026   4.557 -0.3787 -0.5841 -0.4634
 1290ntf    on510165   2.632   2.252   4.556  0.2590 -0.5535 -1.0872
 1290ntf    on510166   2.489   2.315   4.841 -0.7324 -0.1591 -0.1059
 1290ntf    on510167   2.467   2.105   4.964  0.3019  0.2606  0.0895
 1290ntf    fn410168   2.668   2.259   5.081 -0.7790 -0.9117  0.3018
 1290ntf    fn410169   2.785   2.285   4.900  0.2099 -0.8897 -0.0371
 1290ntf    fn410170   2.743   2.088   4.991 -0.0779 -0.0053  0.7165
 1291ntf    cn110171   6.444   3.409   5.992  0.1423  0.2280 -0.4090
 1291ntf    sn210172   6.573   3.309   6.073 -0.1974  0.2249  0.1291
 1291ntf    nn310173   6.516   3.280   6.216 -0.3556 -0.3370 -0.0420
 1291ntf    sn210174   6.482   3.143   6.285 -0.0550 -0.5381 -0.2897
 1291ntf    cn110175   6.555   3.168   6.450 -0.0775  0.1679 -0.3812
 1291ntf    fn410176   6.482   3.455   5.874  0.1606  0.3123 -0.3704
 1291ntf    fn410177   6.340   3.334   5.958 -0.2094  0.5333 -0.0128
 1291ntf    fn410178   6.396   3.504   6.070  0.8785  0.4357 -0.2036
 1291ntf    on510179   6.582   3.188   5.994  0.7238  0.6161 -0.3802
 1291ntf    on510180   6.688   3.394   6.082 -0.2101  0.2038  0.4822
 1291ntf    on510181   6.340   3.118   6.292 -0.1599 -0.0188 -0.4683
 1291ntf    on510182   6.558   3.034   6.231 -0.7477 -0.7709 -0.7994
 1291ntf    fn410183   6.660   3.248   6.451 -0.0334  0.1059  0.2349
 1291ntf    fn410184   6.594   3.054   6.505  0.0435  0.2555 -0.2855
 1291ntf    fn410185   6.470   3.223   6.535 -0.2828 -0.0815 -0.4226
 1292ntf    cn110186   1.828   6.476   4.727 -0.2028  0.0512 -0.0914
 1292ntf    sn210187   1.870   6.408   4.564  0.0678 -0.0400  0.0161
 1292ntf    nn310188   2.008   6.481   4.549 -0.0187  0.1956  0.3595
 1292ntf    sn210189   2.052   6.611   4.472 -0.0782  0.0801  0.1293
 1292ntf    cn110190   2.094   6.553   4.305  0.4039  0.4444  0.1213
 1292ntf    fn410191   1.830   6.608   4.738 -0.0272  0.0362  0.0620
 1292ntf    fn410192   1.707   6.438   4.765  0.0220 -0.6281 -0.0478
 1292ntf    fn410193   1.901   6.430   4.827 -0.2365 -0.2403 -0.2017
 1292ntf    on510194   1.895   6.268   4.593 -0.2822 -0.1602 -0.2578
 1292ntf    on510195   1.753   6.439   4.486  0.0572 -0.9302 -0.3307
 1292ntf    on510196   1.948   6.708   4.447 -0.5772 -0.4782  0.0186
 1292ntf    on510197   2.179   6.668   4.508  0.2904 -0.6637  0.0374
 1292ntf    fn410198   2.090   6.653   4.219 -0.2580  0.1025 -0.2560
 1292ntf    fn410199   2.008   6.459   4.269  0.0923  0.7180  0.1420
 1292ntf    fn410200   2.211   6.492   4.300  0.0960 -0.1268 -0.2805
 1293ntf    cn110201   0.877   6.649   0.418 -0.4610  0.6487  0.0489
 1293ntf    sn210202   0.930   6.762   0.551 -0.1442  0.0545  0.4358
 1293ntf    nn310203   0.985   6.872   0.453  0.6199 -0.3280  0.4345
 1293ntf    sn210204   1.135   6.901   0.417  0.4364  0.0711 -0.0086
 1293ntf    cn110205   1.092   6.926   0.242 -0.5184 -0.2053  0.1831
 1293ntf    fn410206   0.815   6.551   0.482  0.1436  0.6342  0.6274
 1293ntf    fn410207   0.788   6.702   0.336 -0.5458  0.1886 -0.1597
 1293ntf    fn410208   0.973   6.598   0.344 -0.4635  0.4046  0.2116
 1293ntf    on510209   0.804   6.807   0.605 -0.4854 -0.1284 -0.1962
 1293ntf    on510210   1.022   6.689   0.634  0.1738 -0.1411 -0.0858
 1293ntf    on510211   1.173   7.032   0.464  0.7183 -0.4810  1.3302
 1293ntf    on510212   1.228   6.791   0.425 -0.0469 -0.3895 -0.6082
 1293ntf    fn410213   1.197   6.949   0.165 -0.9038  0.2024 -0.2255
 1293ntf    fn410214   1.009   7.028   0.227  0.2837  0.5119  0.5838
 1293ntf    fn410215   1.035   6.820   0.186  0.2292 -0.2172 -0.5798
 1294ntf    cn110216   5.322   4.145   4.092  0.1900 -0.1064  0.0128
 1294ntf    sn210217   5.162   4.220   4.052  0.2170  0.1241  0.3390
 1294ntf    nn310218   5.068   4.105   4.102  0.4903 -0.1659  0.1872
 1294ntf    sn210219   5.004   3.976   4.039  0.1959  0.0784 -0.0217
 1294ntf    cn110220   4.873   4.050   3.937 -0.0583 -0.5085 -0.1248
 1294ntf    fn410221   5.321   4.084   4.210 -0.1049  0.3430  0.2425
 1294ntf    fn410222   5.357   4.056   4.001 -0.4433 -0.0226 -0.3143
 1294ntf    fn410223   5.423   4.230   4.099  0.1240 -0.0413  0.1698
 1294ntf    on510224   5.150   4.333   4.141 -0.3247  0.0498  0.3631
 1294ntf    on510225   5.162   4.257   3.913 -0.0679 -0.1871  0.2568
 1294ntf    on510226   5.093   3.911   3.945  0.3354  0.1470  0.0619
 1294ntf    on510227   4.937   3.895   4.137 -0.1598 -0.5318 -0.7587
 1294ntf    fn410228   4.808   4.143   4.005  0.7351  0.0897 -0.1784
 1294ntf    fn410229   4.778   3.962   3.910 -0.2091 -0.3642 -0.0651
 1294ntf    fn410230   4.914   4.109   3.827 -0.3823  0.8652  0.4691
 1295ntf    cn110231   0.891   5.011   0.312 -0.0112  0.2428 -0.0737
 1295ntf    sn210232   0.731   5.006   0.399  0.1041  0.3063  0.1421
 1295ntf    nn310233   0.635   4.981   0.277  0.4104  0.0227 -0.0451
 1295ntf    sn210234   0.551   4.854   0.239  0.3489  0.0209  0.0970
 1295ntf    cn110235   0.649   4.750   0.127 -0.0995  0.2099 -0.4778
 1295ntf    fn410236   0.982   5.070   0.386  0.1938 -0.0842 -0.0657
 1295ntf    fn410237   0.933   4.889   0.281 -0.3773  0.1459 -0.1965
 1295ntf    fn410238   0.891   5.089   0.205  0.3610 -0.0866 -0.3163
 1295ntf    on510239   0.740   4.886   0.479 -0.3782  0.5227  0.5247
 1295ntf    on510240   0.717   5.140   0.448  0.1573  0.4331 -0.1862
 1295ntf    on510241   0.522   4.764   0.348  0.1633 -0.1575 -0.0982
 1295ntf    on510242   0.438   4.890   0.157  0.3926 -1.1840 -0.5087
 1295ntf    fn410243   0.676   4.813   0.014 -0.2161  0.3280 -0.4403
 1295ntf    fn410244   0.580   4.643   0.095  0.7166 -0.5214  0.1466
 1295ntf    fn410245   0.761   4.707   0.184 -0.6393 -0.0217  0.4224
 1296ntf    cn110246   4.323   1.332   3.497  0.0735 -0.0886 -0.2146
 1296ntf    sn210247   4.343   1.206   3.367 -0.3060 -0.1680 -0.1996
 1296ntf    nn310248   4.386   1.080   3.450  0.1925  0.3748  0.3816
 1296ntf    sn210249   4.534   1.031   3.466  0.0334 -0.1910  0.1702
 1296ntf    cn110250   4.521   0.991   3.643  0.4675 -0.2114  0.1991
 1296ntf    fn410251   4.271   1.286   3.609  0.6132  0.6784  0.3587
 1296ntf    fn410252   4.441   1.385   3.520  0.1628 -0.4971  0.2828
 1296ntf    fn410253   4.247   1.434   3.460 -0.3667  0.0189  0.9558
 1296ntf    on510254   4.208   1.180   3.325 -0.4195 -0.3520  0.2787
 1296ntf    on510255   4.437   1.257   3.270 -0.5283  0.1677 -0.2404
 1296ntf    on510256   4.549   0.903   3.403 -0.2306 -0.1739  0.0736
 1296ntf    on510257   4.639   1.131   3.457 -0.2798  0.0846 -0.4485
 1296ntf    fn410258   4.629   0.924   3.680  0.3814 -0.6341 -0.3088
 1296ntf    fn410259   4.416   0.915   3.669  0.0883  0.1327 -0.3046
 1296ntf    fn410260   4.514   1.095   3.723  0.5204 -0.2909  0.3071
 1297ntf    cn110261   4.702   2.175   4.238  0.1313 -0.1138  0.5486
 1297ntf    sn210262   4.821   2.281   4.325  0.5670  0.0502 -0.2313
 1297ntf    nn310263   4.887   2.183   4.428  0.0990  0.2291  0.2443
 1297ntf    sn210264   5.024   2.106   4.414 -0.1166 -0.1584  0.2457
 1297ntf    cn110265   5.122   2.229   4.506 -0.4904  0.4016 -0.0985
 1297ntf    fn410266   4.591   2.156   4.307 -0.1011 -0.1924  0.1611
 1297ntf    fn410267   4.670   2.234   4.124 -0.2148 -0.7299  0.3226
 1297ntf    fn410268   4.749   2.055   4.206 -0.2262  0.0823 -0.7842
 1297ntf    on510269   4.900   2.327   4.214  0.2528  0.4198 -0.3014
 1297ntf    on510270   4.739   2.380   4.389  0.2612 -0.2015 -0.2305
 1297ntf    on510271   5.026   1.985   4.492  0.0267  0.1986  0.7973
 1297ntf    on510272   5.094   2.100   4.288 -0.0321 -0.0607  0.2875
 1297ntf    fn410273   5.100   2.353   4.466  0.2772  0.5366 -0.1026
 1297ntf    fn410274   5.252   2.220   4.486 -0.4387 -0.4595  0.5673
 1297ntf    fn410275   5.102   2.227   4.637  0.2164 -0.0550  0.0048
 1298ntf    cn110276   0.310   3.895   4.093 -0.0674  0.0543 -0.2626
 1298ntf    sn210277   0.366   3.765   4.207  0.0929  0.3414 -0.0117
 1298ntf    nn310278   0.237   3.739   4.293  0.6981 -0.3428  0.7040
 1298ntf    sn210279   0.127   3.630   4.268  0.3484  0.1543  0.0476
 1298ntf    cn110280   0.202   3.485   4.349 -0.0267 -0.0128  0.0981
 1298ntf    fn410281   0.192   3.870   4.039  0.1286 -0.2140 -0.5749
 1298ntf    fn410282   0.302   4.011   4.155  0.5179  0.1504 -0.3569
 1298ntf    fn410283   0.392   3.910   3.990  0.1101 -0.2649 -0.1707
 1298ntf    on510284   0.406   3.655   4.122  0.3868  0.5361 -0.1271
 1298ntf    on510285   0.468   3.819   4.293  0.2413 -0.6115  0.4350
 1298ntf    on510286   0.003   3.661   4.334  0.5678  0.5324  0.2821
 1298ntf    on510287   0.107   3.582   4.133 -0.3024  0.3967  0.0567
 1298ntf    fn410288   0.177   3.492   4.478 -0.5250 -0.1910  0.0129
 1298ntf    fn410289   0.333   3.476   4.330 -0.0159 -0.0767  0.2066
 1298ntf    fn410290   0.142   3.373   4.313  0.4729  0.0139 -0.8621
 1299ntf    cn110291   5.085   1.106   2.209 -0.2027  0.3793 -0.0305
 1299ntf    sn210292   5.065   1.075   2.031 -0.2680  0.1210  0.0209
 1299ntf    nn310293   5.031   0.922   2.044  0.4141 -0.0693 -0.3981
 1299ntf    sn210294   4.896   0.847   2.019  0.1463  0.3505 -0.2137
 1299ntf    cn110295   4.923   0.776   1.854  0.3501 -0.2247  0.0673
 1299ntf    fn410296   5.066   1.234   2.233  0.3812  0.5456 -0.4151
 1299ntf    fn410297   4.985   1.044   2.270  0.1479  0.7129  0.9021
 1299ntf    fn410298   5.201   1.070   2.262 -0.5602 -0.0986  0.4336
 1299ntf    on510299   4.965   1.173   1.996 -0.4749 -0.2314 -0.3867
 1299ntf    on510300   5.199   1.097   1.982 -0.2994 -0.1209 -0.1736
 1299ntf    on510301   4.883   0.726   2.096 -0.8459  0.5264 -0.0838
 1299ntf    on510302   4.774   0.922   1.998 -0.0810  0.0813  0.1350
 1299ntf    fn410303   4.834   0.684   1.819  0.3314 -0.1051 -0.1996
 1299ntf    fn410304   5.037   0.709   1.852  0.2895 -0.3163 -0.3419
 1299ntf    fn410305   4.925   0.873   1.764  0.5991  0.1440  0.4677
 1300ntf    cn110306   2.561   0.506   3.577 -0.3057 -0.6059 -0.1523
 1300ntf    sn210307   2.519   0.655   3.672 -0.1829 -0.5076 -0.2524
 1300ntf    nn310308   2.420   0.729   3.574 -0.1340 -0.1315 -0.0224
 1300ntf    sn210309   2.330   0.852   3.611  0.1153  0.0302  0.0483
 1300ntf    cn110310   2.431   0.981   3.532 -0.2304  0.0900 -0.3007
 1300ntf    fn410311   2.613   0.417   3.660 -0.6774 -0.2756  0.4448
 1300ntf    fn410312   2.446   0.450   3.542 -0.1227 -0.9381 -0.2252
 1300ntf    fn410313   2.636   0.529   3.471 -0.3188 -0.2034 -0.0758
 1300ntf    on510314   2.461   0.603   3.794 -0.1543  0.1439  0.0427
 1300ntf    on510315   2.643   0.729   3.679 -0.1909 -0.5426  0.3150
 1300ntf    on510316   2.211   0.840   3.531  0.0283 -0.2725  0.2251
 1300ntf    on510317   2.323   0.892   3.749 -0.2315 -0.5946  0.2162
 1300ntf    fn410318   2.536   1.009   3.608 -0.3483 -0.3279  0.0213
 1300ntf    fn410319   2.360   1.089   3.502 -0.4709 -0.1525 -0.6056
 1300ntf    fn410320   2.492   0.944   3.420  0.0802  0.2918 -0.2008
 1301ntf    cn110321   4.015   0.816   6.200 -0.0806  0.0169 -0.1415
 1301ntf    sn210322   3.976   0.652   6.269 -0.0216 -0.0580 -0.2842
 1301ntf    nn310323   3.999   0.564   6.141 -0.1175 -0.3782 -0.0829
 1301ntf    sn210324   4.127   0.490   6.089  0.1870 -0.0030  0.1249
 1301ntf    cn110325   4.147   0.573   5.929  0.3034  0.0317  0.1569
 1301ntf    fn410326   4.135   0.826   6.144  0.2525 -0.2734  0.5071
 1301ntf    fn410327   3.926   0.855   6.110  0.1817  0.2006 -0.3248
 1301ntf    fn410328   4.017   0.909   6.294 -0.6511 -0.2195  0.1114
 1301ntf    on510329   4.073   0.637   6.374 -0.1942  0.1403 -0.0953
 1301ntf    on510330   3.835   0.652   6.301  0.0677  0.3186  0.1316
 1301ntf    on510331   4.258   0.510   6.147  0.2108  0.2740 -0.0246
 1301ntf    on510332   4.104   0.351   6.058  0.2226  0.0816 -0.2841
 1301ntf    fn410333   4.169   0.703   5.936  0.0929  0.0891 -0.1940
 1301ntf    fn410334   4.045   0.562   5.845  0.3306  0.0524  0.1204
 1301ntf    fn410335   4.257   0.543   5.861  0.0710 -0.0728 -0.1750
 1302ntf    cn110336   1.617   5.171   1.279  0.1271  0.1168  0.1182
 1302ntf    sn210337   1.445   5.219   1.244 -0.0852 -0.4646  0.3530
 1302ntf    nn310338   1.453   5.283   1.101 -0.7339  0.0017  0.5222
 1302ntf    sn210339   1.335   5.349   1.021 -0.0947  0.1580 -0.3088
 1302ntf    cn110340   1.368   5.528   1.026 -0.0240  0.1369 -0.0064
 1302ntf    fn410341   1.624   5.081   1.376 -0.2159 -0.1331 -0.0880
 1302ntf    fn410342   1.659   5.108   1.171 -0.0942  0.7024 -0.3139
 1302ntf    fn410343   1.712   5.262   1.298 -0.1851  0.4424  0.1290
 1302ntf    on510344   1.370   5.096   1.250  0.2263 -0.6745  0.0101
 1302ntf    on510345   1.424   5.316   1.348  0.2438  0.7886 -0.7245
 1302ntf    on510346   1.347   5.317   0.881 -0.0101 -0.1345 -0.2350
 1302ntf    on510347   1.203   5.334   1.077  0.2953 -0.2294  0.5211
 1302ntf    fn410348   1.491   5.553   0.985 -0.2383  0.1881 -0.6367
 1302ntf    fn410349   1.348   5.579   1.147  0.1226  0.5536 -0.1552
 1302ntf    fn410350   1.289   5.602   0.949 -0.0001 -0.4176 -0.5711
 1303ntf    cn110351   4.465   3.886   2.956  0.0720 -0.1528  0.2133
 1303ntf    sn210352   4.309   3.808   3.008 -0.1931  0.3919  0.2425
 1303ntf    nn310353   4.247   3.915   3.104 -0.4465 -0.0714  0.5976
 1303ntf    sn210354   4.131   4.012   3.063  0.0338  0.2504 -0.0142
 1303ntf    cn110355   3.990   3.912   3.121  0.0438  0.2787  0.0602
 1303ntf    fn410356   4.441   4.006   2.906 -0.5171 -0.1796  0.4251
 1303ntf    fn410357   4.551   3.892   3.056  0.3867 -0.1916 -0.0524
 1303ntf    fn410358   4.516   3.818   2.854  0.6302 -0.2568  0.5632
 1303ntf    on510359   4.232   3.782   2.888  0.6705  0.3241 -0.3031
 1303ntf    on510360   4.357   3.693   3.080 -0.6339 -0.1735 -0.3514
 1303ntf    on510361   4.123   4.114   3.165 -0.4329  0.0340  0.1708
 1303ntf    on510362   4.112   4.046   2.925  0.5787  0.9111  0.0670
 1303ntf    fn410363   4.000   3.893   3.251  0.4888  0.5709  0.0712
 1303ntf    fn410364   3.981   3.792   3.066  0.0374  0.3770 -0.1582
 1303ntf    fn410365   3.873   3.970   3.101 -0.0219  0.1528  0.0829
 1304ntf    cn110366   1.742   0.967   2.885 -0.1121  0.0548  0.1675
 1304ntf    sn210367   1.716   0.787   2.891 -0.0495  0.0386 -0.0520
 1304ntf    nn310368   1.819   0.739   2.999 -0.2377  0.1955  0.1977
 1304ntf    sn210369   1.790   0.678   3.141  0.2511  0.1006  0.2571
 1304ntf    cn110370   1.755   0.501   3.112  0.1066  0.1462  0.1508
 1304ntf    fn410371   1.716   1.024   3.002  0.0855 -0.1472  0.3109
 1304ntf    fn410372   1.868   0.992   2.856 -0.0025 -0.1255  0.4846
 1304ntf    fn410373   1.681   1.022   2.781 -0.2073 -0.1790  0.0990
 1304ntf    on510374   1.577   0.775   2.927 -0.0108  0.5005  0.2644
 1304ntf    on510375   1.751   0.752   2.755 -0.7288  0.1090 -0.2475
 1304ntf    on510376   1.914   0.662   3.213  0.2695  0.7190  0.3640
 1304ntf    on510377   1.677   0.725   3.216  0.0932  0.4916 -0.2206
 1304ntf    fn410378   1.747   0.441   3.230 -0.2362  0.7043  0.4148
 1304ntf    fn410379   1.836   0.446   3.023 -0.0998  0.7723 -0.4297
 1304ntf    fn410380   1.640   0.496   3.047  0.0820 -0.2992  0.2300
 1305ntf    cn110381   3.411   2.470   0.775  0.5114  0.3671  0.2108
 1305ntf    sn210382   3.369   2.578   0.635  0.3081  0.0228  0.0059
 1305ntf    nn310383   3.212   2.578   0.629  0.2947  0.5810  0.2995
 1305ntf    sn210384   3.118   2.646   0.734 -0.2260  0.1731  0.1044
 1305ntf    cn110385   3.056   2.805   0.670 -0.2465  0.2390  0.2852
 1305ntf    fn410386   3.377   2.514   0.895  1.1337  0.6485  0.2878
 1305ntf    fn410387   3.351   2.355   0.749 -0.1775  0.6674  0.4201
 1305ntf    fn410388   3.541   2.447   0.783  0.3631 -0.5461  0.1424
 1305ntf    on510389   3.422   2.706   0.672 -0.1565  0.2475 -0.0913
 1305ntf    on510390   3.431   2.520   0.519 -0.7167 -0.3161 -0.3889
 1305ntf    on510391   2.998   2.567   0.746 -0.1918  0.1034 -0.0066
 1305ntf    on510392   3.183   2.686   0.856  0.0322  0.1833 -0.0363
 1305ntf    fn410393   3.155   2.892   0.661  0.0375 -0.0908  0.1689
 1305ntf    fn410394   2.957   2.857   0.739 -0.3060 -0.4899  0.7632
 1305ntf    fn410395   3.007   2.792   0.548  0.2067  0.3312  0.0894
 1306ntf    cn110396   5.951   0.403   6.330 -0.0146 -0.2014 -0.7106
 1306ntf    sn210397   6.115   0.336   6.287  0.5014  0.5381  0.0792
 1306ntf    nn310398   6.201   0.391   6.407 -0.1298  0.7679  0.4311
 1306ntf    sn210399   6.356   0.412   6.397 -0.0298 -0.1769 -0.1767
 1306ntf    cn110400   6.374   0.588   6.353  0.3705 -0.1171  0.2075
 1306ntf    fn410401   5.953   0.531   6.361  0.3526 -0.4432  0.2946
 1306ntf    fn410402   5.864   0.389   6.232 -0.7412 -0.8477  0.0135
 1306ntf    fn410403   5.895   0.344   6.434  0.2647 -0.3039 -0.6175
 1306ntf    on510404   6.099   0.193   6.304  0.3805  0.5660  0.2036
 1306ntf    on510405   6.141   0.395   6.158 -0.6412  0.2854 -0.2778
 1306ntf    on510406   6.413   0.410   6.530  0.2185  0.1985 -0.2772
 1306ntf    on510407   6.423   0.332   6.298  0.3883 -0.6330  0.4661
 1306ntf    fn410408   6.299   0.668   6.426  0.1596 -0.0004 -0.1335
 1306ntf    fn410409   6.332   0.614   6.230  0.0886 -0.1270  0.3020
 1306ntf    fn410410   6.497   0.633   6.369  0.1575  0.2213  0.8910
 1307ntf    cn110411   5.875   0.257   0.065 -0.2671 -0.0580 -0.2625
 1307ntf    sn210412   5.742   0.358   0.135  0.0660  0.3190 -0.1733
 1307ntf    nn310413   5.619   0.288   0.066 -0.2951  0.1476  0.6317
 1307ntf    sn210414   5.531   0.182   0.141 -0.3042  0.0737  0.5145
 1307ntf    cn110415   5.367   0.215   0.070  0.0630  0.1683 -0.3049
 1307ntf    fn410416   5.867   0.136   0.118  0.4492  0.1877  0.4196
 1307ntf    fn410417   5.873   0.238  -0.066 -0.4478 -0.1208 -0.2515
 1307ntf    fn410418   5.999   0.298   0.087 -0.3386 -0.0729  0.1752
 1307ntf    on510419   5.759   0.343   0.278  0.4875 -0.0924 -0.2638
 1307ntf    on510420   5.754   0.489   0.075  0.1511  0.6693  0.5968
 1307ntf    on510421   5.550   0.048   0.091 -0.6427  0.2351 -0.0613
 1307ntf    on510422   5.506   0.203   0.281 -0.3060 -0.6870  0.6349
 1307ntf    fn410423   5.325   0.336   0.104 -0.0909  0.0287  0.0000
 1307ntf    fn410424   5.270   0.131   0.103  0.6844 -0.4584 -0.0668
 1307ntf    fn410425   5.374   0.207  -0.062  0.4191 -0.7148 -0.2363
 1308ntf    cn110426   5.608   4.870   1.179 -0.1601 -0.5955  0.1219
 1308ntf    sn210427   5.625   4.892   0.999 -0.1064  0.2359  0.2263
 1308ntf    nn310428   5.662   4.745   0.957  0.0912  0.3458  0.0189
 1308ntf    sn210429   5.802   4.692   0.910 -0.1110 -0.2668  0.1088
 1308ntf    cn110430   5.807   4.725   0.731  0.3434  0.4161  0.2441
 1308ntf    fn410431   5.512   4.783   1.207 -0.3808 -0.2502  0.4378
 1308ntf    fn410432   5.720   4.818   1.227  0.5934  0.4433 -0.4853
 1308ntf    fn410433   5.592   4.986   1.240  0.2928 -0.4258 -0.0758
 1308ntf    on510434   5.493   4.925   0.951 -0.1553 -0.4588 -0.1291
 1308ntf    on510435   5.727   4.992   0.976 -0.2353  0.5508  0.9894
 1308ntf    on510436   5.908   4.780   0.953 -0.4908 -0.0290  0.5561
 1308ntf    on510437   5.821   4.549   0.916 -0.2007 -0.2486  0.9473
 1308ntf    fn410438   5.701   4.664   0.681  0.3408  0.3520  0.3276
 1308ntf    fn410439   5.918   4.677   0.677 -0.0165  0.0327 -0.1555
 1308ntf    fn410440   5.782   4.850   0.698  0.4845  0.1853 -0.7761
 1309ntf    cn110441   4.850   2.436   4.893  0.2175  0.0836 -0.0691
 1309ntf    sn210442   4.875   2.474   5.069  0.0081 -0.3887  0.0669
 1309ntf    nn310443   5.031   2.491   5.083 -0.1177  0.4606  0.4967
 1309ntf    sn210444   5.119   2.620   5.075  0.1977  0.2264  0.1768
 1309ntf    cn110445   5.281   2.538   5.077 -0.0473 -0.2534  0.8278
 1309ntf    fn410446   4.928   2.495   4.804  0.4792 -0.7026 -0.3764
 1309ntf    fn410447   4.865   2.307   4.868 -0.8015  0.0148 -0.3783
 1309ntf    fn410448   4.728   2.469   4.854  0.2181 -0.0054 -0.1464
 1309ntf    on510449   4.800   2.595   5.091  0.5128 -0.0346 -0.1144
 1309ntf    on510450   4.837   2.353   5.137 -0.1531  0.0490  0.7657
 1309ntf    on510451   5.120   2.689   4.949  0.3837 -0.4058 -0.1701
 1309ntf    on510452   5.122   2.698   5.197 -0.1705  0.3782  0.0906
 1309ntf    fn410453   5.382   2.610   5.029 -0.6499 -0.2336 -0.4556
 1309ntf    fn410454   5.288   2.427   5.005  0.1711 -0.2206  0.7978
 1309ntf    fn410455   5.314   2.502   5.200  0.2708 -0.0711  0.7986
 1310ntf    cn110456   5.449   5.382   1.253 -0.5061 -0.4051  0.0241
 1310ntf    sn210457   5.327   5.474   1.351 -0.0549 -0.0160  0.2247
 1310ntf    nn310458   5.209   5.479   1.248 -0.1246  0.0894  0.3102
 1310ntf    sn210459   5.054   5.471   1.275 -0.2621 -0.0978 -0.4925
 1310ntf    cn110460   5.003   5.629   1.203  0.4827  0.3864  0.0218
 1310ntf    fn410461   5.412   5.262   1.211 -0.7576 -0.4906  0.4833
 1310ntf    fn410462   5.471   5.454   1.144 -0.3874 -0.0378  0.2874
 1310ntf    fn410463   5.571   5.368   1.303 -0.2377  0.0961 -0.4739
 1310ntf    on510464   5.301   5.393   1.467 -0.0517 -0.4785 -0.0947
 1310ntf    on510465   5.389   5.602   1.376 -0.1277  0.1193 -0.2610
 1310ntf    on510466   4.984   5.366   1.206  0.0757 -0.3740 -0.4165
 1310ntf    on510467   5.004   5.492   1.409  0.0078  0.1503 -0.4310
 1310ntf    fn410468   4.873   5.631   1.177  0.4366 -0.0521  0.2144
 1310ntf    fn410469   5.060   5.646   1.085 -0.3607 -0.4476 -0.5181
 1310ntf    fn410470   5.027   5.733   1.281  0.2015  0.1953  0.3698
 1311ntf    cn110471   1.419   3.941   5.928 -0.1290  0.0349 -0.1568
 1311ntf    sn210472   1.425   3.759   5.916 -0.5160  0.0243 -0.2075
 1311ntf    nn310473   1.318   3.725   6.025 -0.5890  0.2139 -0.2203
 1311ntf    sn210474   1.318   3.598   6.117  0.1549  0.1371 -0.3237
 1311ntf    cn110475   1.165   3.518   6.060  0.0819  0.3735 -0.4615
 1311ntf    fn410476   1.310   3.993   5.875 -0.3343 -0.1384  0.0932
 1311ntf    fn410477   1.429   3.984   6.052 -0.2153  0.1988 -0.2056
 1311ntf    fn410478   1.524   3.992   5.865  0.1389  0.3284  0.5193
 1311ntf    on510479   1.391   3.736   5.778  0.5487  0.4780 -0.5614
 1311ntf    on510480   1.559   3.722   5.957 -0.4579  0.1349 -0.2953
 1311ntf    on510481   1.425   3.503   6.095  0.0290 -0.0357 -0.1898
 1311ntf    on510482   1.286   3.635   6.252 -0.1367  0.4027 -0.4646
 1311ntf    fn410483   1.053   3.585   6.039 -0.3057  0.0354  0.4540
 1311ntf    fn410484   1.123   3.438   6.157 -0.0689 -0.4204 -1.1659
 1311ntf    fn410485   1.192   3.433   5.962  0.6132  0.0081 -0.0086
 1312ntf    cn110486   3.566   5.817   3.955  0.1292 -0.2035 -0.2027
 1312ntf    sn210487   3.689   5.931   4.025 -0.2670  0.0706  0.0488
 1312ntf    nn310488   3.594   6.039   4.088 -0.5580 -0.1233 -0.0557
 1312ntf    sn210489   3.570   6.186   4.038  0.2575  0.1055  0.2027
 1312ntf    cn110490   3.639   6.280   4.177  0.3206 -0.0003  0.2425
 1312ntf    fn410491   3.613   5.693   3.946 -0.0028 -0.2197 -0.7448
 1312ntf    fn410492   3.463   5.815   4.037  0.1811 -0.2889 -0.1389
 1312ntf    fn410493   3.514   5.852   3.838  0.7026 -0.4880 -0.5522
 1312ntf    on510494   3.753   5.847   4.123  0.5893 -0.2606 -0.7749
 1312ntf    on510495   3.775   5.977   3.919 -0.2556 -0.4469 -0.1729
 1312ntf    on510496   3.650   6.241   3.931 -0.0019 -0.0907 -0.0945
 1312ntf    on510497   3.429   6.218   4.039  0.1617 -0.3056  0.3162
 1312ntf    fn410498   3.764   6.320   4.161  0.1595  0.1936 -0.5615
 1312ntf    fn410499   3.638   6.224   4.297  0.7509 -0.0144  0.2401
 1312ntf    fn410500   3.579   6.397   4.186  0.5546  0.1566 -0.1970
 1313ntf    cn110501   3.890   2.670   6.634  0.3169  0.2324 -0.0202
 1313ntf    sn210502   3.936   2.516   6.549 -0.1069  0.1251 -0.0598
 1313ntf    nn310503   3.887   2.411   6.655  0.0091  0.3098  0.1797
 1313ntf    sn210504   3.751   2.332   6.671 -0.1524  0.4983 -0.2433
 1313ntf    cn110505   3.746   2.284   6.846  0.4762 -0.3299 -0.4498
 1313ntf    fn410506   3.917   2.666   6.764  0.1334  0.4177  0.0242
 1313ntf    fn410507   3.957   2.776   6.593  0.7314 -0.3045 -0.7479
 1313ntf    fn410508   3.761   2.700   6.627  0.2331  0.1192  0.9377
 1313ntf    on510509   3.867   2.516   6.423  0.0731 -0.2293 -0.1591
 1313ntf    on510510   4.079   2.505   6.540 -0.1540 -0.3463 -0.2353
 1313ntf    on510511   3.628   2.405   6.655 -0.3509  0.2110 -0.0169
 1313ntf    on510512   3.758   2.202   6.611 -0.2914  0.1682  0.4518
 1313ntf    fn410513   3.834   2.188   6.872  0.1473 -0.4984  0.0434
 1313ntf    fn410514   3.627   2.254   6.895  0.7208 -0.0451  0.3254
 1313ntf    fn410515   3.781   2.387   6.921  0.2927 -0.2454 -0.4821
 1314ntf    cn110516   0.194   2.909   3.585  0.1317  0.1014  0.4605
 1314ntf    sn210517   0.178   2.840   3.752  0.1254 -0.2110  0.3300
 1314ntf    nn310518   0.292   2.732   3.750  0.4927  0.1858 -0.6768
 1314ntf    sn210519   0.443   2.737   3.795  0.1800 -0.1786  0.4308
 1314ntf    cn110520   0.432   2.720   3.976 -0.0725 -0.3094  0.4041
 1314ntf    fn410521   0.137   2.823   3.503  0.2713  0.0489  0.4169
 1314ntf    fn410522   0.135   3.027   3.570 -0.3051 -0.2093 -0.3372
 1314ntf    fn410523   0.321   2.929   3.552 -0.0310  0.5851  0.0999
 1314ntf    on510524   0.205   2.954   3.835  0.3777 -0.3542  0.4463
 1314ntf    on510525   0.041   2.793   3.759 -0.2703  0.7545 -0.6781
 1314ntf    on510526   0.522   2.623   3.754  0.1312  0.0629 -0.3431
 1314ntf    on510527   0.497   2.868   3.772  0.0227 -0.3136 -0.7759
 1314ntf    fn410528   0.555   2.711   4.023  0.2218 -0.0941 -0.3162
 1314ntf    fn410529   0.360   2.617   4.018 -0.0104 -0.3845  0.3255
 1314ntf    fn410530   0.369   2.823   4.031 -0.1601 -0.1956  0.0945
 1315ntf    cn110531   1.853   1.023   0.371 -0.2678  0.0606  1.0286
 1315ntf    sn210532   1.722   0.898   0.349 -0.0099 -0.0732  0.2396
 1315ntf    nn310533   1.797   0.763   0.374  0.1523 -0.0185  0.0509
 1315ntf    sn210534   1.785   0.672   0.501  0.2879  0.0317  0.1000
 1315ntf    cn110535   1.947   0.591   0.499  0.1589 -0.2224 -0.1834
 1315ntf    fn410536   1.819   1.139   0.317 -0.2083 -0.3181  0.1568
 1315ntf    fn410537   1.889   1.031   0.498  0.3880  0.3356  0.8253
 1315ntf    fn410538   1.959   0.986   0.301 -0.8126  0.1732  0.1240
 1315ntf    on510539   1.607   0.932   0.428 -0.4330 -0.6001 -0.1468
 1315ntf    on510540   1.687   0.901   0.209  0.1360  0.4744  0.2115
 1315ntf    on510541   1.784   0.739   0.629  0.2822  0.3037 -0.0432
 1315ntf    on510542   1.692   0.564   0.478 -0.3607  0.6095 -0.0219
 1315ntf    fn410543   1.956   0.510   0.395 -0.1788 -0.6932  0.1502
 1315ntf    fn410544   1.958   0.512   0.605  0.0212  0.2679  0.1987
 1315ntf    fn410545   2.050   0.675   0.509 -0.1237  0.1349 -0.2584
 1316ntf    cn110546   6.540   3.077   2.406 -0.0783  0.3099  0.1370
 1316ntf    sn210547   6.606   3.108   2.239  0.0891 -0.2019  0.1080
 1316ntf    nn310548   6.530   2.989   2.170 -0.1051 -0.0948  0.1349
 1316ntf    sn210549   6.578   2.883   2.065 -0.2396 -0.3399  0.3183
 1316ntf    cn110550   6.468   2.924   1.925  0.3373 -0.4882 -0.1832
 1316ntf    fn410551   6.555   2.954   2.451  0.2649  0.2385 -0.1633
 1316ntf    fn410552   6.587   3.157   2.500  0.2416  0.0003  0.2439
 1316ntf    fn410553   6.409   3.094   2.414 -0.1773 -0.4493  0.1488
 1316ntf    on510554   6.565   3.241   2.205  0.0877 -0.2423 -0.0465
 1316ntf    on510555   6.746   3.084   2.260  0.0729 -0.1977  0.2236
 1316ntf    on510556   6.711   2.887   2.010 -0.1092 -0.4627  0.6252
 1316ntf    on510557   6.535   2.748   2.094 -0.6961 -0.3174 -0.2249
 1316ntf    fn410558   6.342   2.886   1.922  0.0889  0.2805  0.1731
 1316ntf    fn410559   6.523   2.882   1.813  0.1790 -0.6229 -0.2088
 1316ntf    fn410560   6.454   3.052   1.895  0.2154 -0.5305 -0.3019
 1317ntf    cn110561   1.406   1.263   2.531  0.4785 -0.1929 -0.4603
 1317ntf    sn210562   1.386   1.273   2.350  0.4760 -0.4678 -0.4769
 1317ntf    nn310563   1.230   1.259   2.332  0.3871 -0.2336  0.0617
 1317ntf    sn210564   1.130   1.140   2.356  0.0328  0.1309  0.3948
 1317ntf    cn110565   1.026   1.212   2.486 -0.0020  0.0408  0.4167
 1317ntf    fn410566   1.367   1.145   2.576 -0.2706  0.4287  0.5630
 1317ntf    fn410567   1.529   1.287   2.571  0.0378  0.6447  0.4178
 1317ntf    fn410568   1.328   1.350   2.593  0.3521 -0.7557  0.1780
 1317ntf    on510569   1.417   1.410   2.316  0.3102 -0.2068  0.3884
 1317ntf    on510570   1.462   1.167   2.292  0.3763 -0.3239 -0.8725
 1317ntf    on510571   1.039   1.124   2.246  0.1085  0.8409  0.2238
 1317ntf    on510572   1.183   1.024   2.423  0.3870  0.0860  0.0423
 1317ntf    fn410573   0.906   1.163   2.513 -0.2215  0.4939  0.2708
 1317ntf    fn410574   0.995   1.337   2.455  0.5284  0.1329  0.2483
 1317ntf    fn410575   1.094   1.218   2.600  0.3279 -0.6459  0.2575
 1318ntf    cn110576   0.783   1.445   1.753  0.3082  0.1316  0.1574
 1318ntf    sn210577   0.610   1.494   1.777  0.0218 -0.5788 -0.4015
 1318ntf    nn310578   0.524   1.374   1.726 -0.3628 -0.5159  0.0857
 1318ntf    sn210579   0.404   1.367   1.624 -0.1768 -0.0132 -0.1689
 1318ntf    cn110580   0.300   1.246   1.710 -0.0074 -0.3437 -0.4300
 1318ntf    fn410581   0.825   1.373   1.856 -0.7302 -0.7738 -0.0353
 1318ntf    fn410582   0.809   1.377   1.643  0.0927  0.1073  0.1223
 1318ntf    fn410583   0.865   1.548   1.741  0.0265  0.2638 -0.6792
 1318ntf    on510584   0.593   1.507   1.920  0.2814  0.1138 -0.4289
 1318ntf    on510585   0.611   1.620   1.707  0.0646  0.1630  0.8930
 1318ntf    on510586   0.317   1.483   1.624 -0.2561 -0.0719  0.1562
 1318ntf    on510587   0.441   1.304   1.500 -0.2184 -0.1793 -0.0962
 1318ntf    fn410588   0.197   1.214   1.633 -0.7734 -0.1077  0.4803
 1318ntf    fn410589   0.259   1.298   1.825  0.5000  0.1511 -0.4703
 1318ntf    fn410590   0.363   1.133   1.737  1.0697  0.5516  0.8996
 1319ntf    cn110591   1.596   4.411   1.581 -0.6239  0.0082  0.0353
 1319ntf    sn210592   1.565   4.256   1.670  0.2985 -0.0588  0.2529
 1319ntf    nn310593   1.414   4.278   1.709  0.0642 -0.4935 -0.3933
 1319ntf    sn210594   1.314   4.190   1.792  0.2373 -0.0544  0.2822
 1319ntf    cn110595   1.256   4.085   1.656  0.1576  0.1386  0.1672
 1319ntf    fn410596   1.507   4.436   1.486 -0.5441  0.0168 -0.0370
 1319ntf    fn410597   1.598   4.520   1.655  0.4491 -0.0235  0.0635
 1319ntf    fn410598   1.719   4.409   1.532 -0.5455 -0.2682  0.2459
 1319ntf    on510599   1.574   4.143   1.580  0.1575 -0.2696  0.5015
 1319ntf    on510600   1.654   4.259   1.783  0.1247  0.3667  0.3820
 1319ntf    on510601   1.367   4.088   1.880 -0.2981  0.2146  0.9301
 1319ntf    on510602   1.195   4.260   1.834  0.1082  0.2667 -0.6038
 1319ntf    fn410603   1.327   3.974   1.646 -0.3534 -0.1911  0.1991
 1319ntf    fn410604   1.254   4.148   1.539  0.0059 -0.3870 -0.1148
 1319ntf    fn410605   1.135   4.044   1.691  0.1203  0.3061  0.2386
 1320ntf    cn110606   3.842   3.327   1.607 -0.2562  0.5656 -0.5135
 1320ntf    sn210607   3.767   3.278   1.765  0.2246  0.1614 -0.4102
 1320ntf    nn310608   3.619   3.245   1.724  0.3381 -0.2450 -0.4995
 1320ntf    sn210609   3.487   3.325   1.752  0.2923 -0.4567 -0.1058
 1320ntf    cn110610   3.370   3.257   1.631  0.0597  0.3363 -0.3324
 1320ntf    fn410611   3.939   3.415   1.627  0.5367 -0.2333 -0.7880
 1320ntf    fn410612   3.899   3.219   1.556 -1.1424 -0.5539  0.7755
 1320ntf    fn410613   3.752   3.375   1.522 -0.5430 -0.5838 -0.8868
 1320ntf    on510614   3.831   3.153   1.801  0.1920  0.0919 -0.5929
 1320ntf    on510615   3.792   3.387   1.856  0.1363  0.0094 -0.2027
 1320ntf    on510616   3.417   3.288   1.872  0.2799  0.3532  0.1411
 1320ntf    on510617   3.486   3.460   1.701  0.5681 -0.4935 -0.2087
 1320ntf    fn410618   3.248   3.306   1.647  0.1557  0.2062  0.8841
 1320ntf    fn410619   3.367   3.125   1.640  0.8552  0.3491  0.1388
 1320ntf    fn410620   3.408   3.285   1.507  0.4951  0.1857 -0.2346
 1321ntf    cn110621   4.527   4.751   4.402 -0.3554 -0.3262 -0.7291
 1321ntf    sn210622   4.418   4.661   4.516  0.1030  0.0149 -0.0115
 1321ntf    nn310623   4.310   4.597   4.421 -0.1371  0.1366  0.1767
 1321ntf    sn210624   4.311   4.459   4.345 -0.3680  0.2482 -0.0274
 1321ntf    cn110625   4.243   4.348   4.472 -0.3405 -0.0753 -0.2953
 1321ntf    fn410626   4.593   4.665   4.326 -0.1676 -0.5380 -0.3296
 1321ntf    fn410627   4.468   4.834   4.317 -0.3822 -0.0003 -0.3945
 1321ntf    fn410628   4.619   4.824   4.464 -0.7240 -0.1563 -0.3814
 1321ntf    on510629   4.508   4.570   4.581  0.4029 -0.1231 -0.6142
 1321ntf    on510630   4.361   4.756   4.608 -0.1661 -0.0138 -0.1458
 1321ntf    on510631   4.204   4.451   4.249  0.0718  0.1459 -0.5111
 1321ntf    on510632   4.443   4.413   4.312 -0.3098  0.1747  0.3039
 1321ntf    fn410633   4.307   4.349   4.588  0.1059  0.4487 -0.5433
 1321ntf    fn410634   4.240   4.223   4.427  0.8260 -0.1233 -0.2849
 1321ntf    fn410635   4.119   4.382   4.500 -0.1452  0.1659  0.2966
 1322ntf    cn110636   5.368   3.845   0.805  0.2204  0.1636 -0.1921
 1322ntf    sn210637   5.522   3.895   0.723  0.2540  0.1577 -0.1332
 1322ntf    nn310638   5.522   4.048   0.760  0.3331  0.2311 -0.4306
 1322ntf    sn210639   5.591   4.119   0.881  0.1975 -0.0144 -0.2078
 1322ntf    cn110640   5.457   4.236   0.918  0.0125 -0.1061 -0.5925
 1322ntf    fn410641   5.362   3.716   0.834 -0.1288  0.1708 -0.2245
 1322ntf    fn410642   5.364   3.921   0.914 -0.1040 -0.2622  0.0949
 1322ntf    fn410643   5.257   3.869   0.736 -0.0291  0.2130  0.2203
 1322ntf    on510644   5.635   3.815   0.763  0.3644  0.2778 -0.2027
 1322ntf    on510645   5.491   3.883   0.582 -0.0791  0.1597 -0.0606
 1322ntf    on510646   5.595   4.037   1.000 -0.3920 -0.4751 -0.5026
 1322ntf    on510647   5.702   4.209   0.860 -0.0238  0.1885 -0.5040
 1322ntf    fn410648   5.344   4.176   0.955 -0.2533  0.4564 -0.4907
 1322ntf    fn410649   5.427   4.306   0.810  0.3442  0.0276 -0.5964
 1322ntf    fn410650   5.495   4.318   1.014 -0.0446 -0.0503 -0.6176
 1323ntf    cn110651   6.691   5.187   4.206 -0.0424 -0.0327  0.1351
 1323ntf    sn210652   6.841   5.167   4.307  0.0729  0.4969  0.0734
 1323ntf    nn310653   6.821   5.026   4.374 -0.1959  0.2600 -0.4879
 1323ntf    sn210654   6.879   4.886   4.336  0.2896  0.2037  0.4216
 1323ntf    cn110655   6.979   4.859   4.485  0.4425 -0.2348  0.2420
 1323ntf    fn410656   6.585   5.229   4.272 -0.4016 -0.1633 -0.3553
 1323ntf    fn410657   6.700   5.270   4.103 -0.6778 -0.1432 -0.0146
 1323ntf    fn410658   6.652   5.080   4.139 -0.6581  0.1458  0.2072
 1323ntf    on510659   6.943   5.192   4.208 -0.3903  0.3350 -0.4515
 1323ntf    on510660   6.826   5.269   4.407  0.0598  0.5407  0.0263
 1323ntf    on510661   6.780   4.782   4.339  0.3997  0.0641 -0.3928
 1323ntf    on510662   6.972   4.876   4.225 -0.3485 -0.1561 -0.0839
 1323ntf    fn410663   7.074   4.767   4.481  0.5590 -0.1084  0.1014
 1323ntf    fn410664   6.916   4.827   4.597  0.0993 -0.4004  0.0044
 1323ntf    fn410665   7.041   4.974   4.504  0.2128  0.1138 -1.0164
 1324ntf    cn110666   0.057   0.397   2.469 -0.2988  0.2136  0.1126
 1324ntf    sn210667  -0.018   0.358   2.308 -0.2084 -0.1151  0.1488
 1324ntf    nn310668  -0.172   0.366   2.336 -0.1537  0.2622  0.3505
 1324ntf    sn210669  -0.281   0.405   2.230  0.1209 -0.1436 -0.0814
 1324ntf    cn110670  -0.422   0.299   2.271  0.0375 -0.0927 -0.2325
 1324ntf    fn410671   0.020   0.312   2.564  0.0269 -0.3941 -0.2944
 1324ntf    fn410672   0.189   0.386   2.462 -0.3507 -0.3074 -0.1508
 1324ntf    fn410673   0.026   0.510   2.530  0.1724  0.1330  0.5108
 1324ntf    on510674   0.025   0.461   2.217 -0.2684 -0.5575 -0.3826
 1324ntf    on510675   0.023   0.226   2.267  0.8963  0.3191 -0.1857
 1324ntf    on510676  -0.327   0.538   2.264 -0.0941 -0.4329  0.7780
 1324ntf    on510677  -0.246   0.387   2.091 -0.2790 -0.4440 -0.1430
 1324ntf    fn410678  -0.530   0.327   2.199 -0.0995  0.1518  0.0683
 1324ntf    fn410679  -0.465   0.305   2.396 -0.0558 -0.0969 -0.2644
 1324ntf    fn410680  -0.394   0.170   2.254  0.3412 -0.0965  0.2888
 1325ntf    cn110681   4.605   5.247   5.161  0.4869 -0.0459  0.2094
 1325ntf    sn210682   4.479   5.192   5.042  0.1736  0.2463  0.4028
 1325ntf    nn310683   4.539   5.209   4.898  0.1082 -0.6531  0.2638
 1325ntf    sn210684   4.553   5.112   4.775  0.4695 -0.0639 -0.1593
 1325ntf    cn110685   4.713   5.031   4.806  0.3980 -0.1213  0.0606
 1325ntf    fn410686   4.560   5.229   5.284 -0.5176 -0.1450 -0.1647
 1325ntf    fn410687   4.716   5.175   5.165  0.6046  0.0693 -0.7025
 1325ntf    fn410688   4.644   5.372   5.144 -0.1132  0.1179  0.0080
 1325ntf    on510689   4.466   5.056   5.089 -0.1594  0.1237 -0.0456
 1325ntf    on510690   4.366   5.281   5.054  0.1869  0.3507 -0.2454
 1325ntf    on510691   4.458   5.006   4.760 -0.0548  0.2572  0.8218
 1325ntf    on510692   4.585   5.187   4.656  0.8265 -0.3286 -0.2331
 1325ntf    fn410693   4.784   5.022   4.694  0.1843  0.6072 -0.1366
 1325ntf    fn410694   4.691   4.905   4.841 -0.0706 -0.2099 -0.5387
 1325ntf    fn410695   4.781   5.091   4.902 -0.1554 -0.1524  0.4749
 1326ntf    cn110696   2.340   0.639   2.774 -0.3854 -0.3694  0.0483
 1326ntf    sn210697   2.316   0.461   2.803 -0.0035 -0.4427 -0.0788
 1326ntf    nn310698   2.455   0.405   2.847  0.2553  0.0182 -0.3101
 1326ntf    sn210699   2.512   0.260   2.859 -0.1133 -0.0973  0.0660
 1326ntf    cn110700   2.455   0.240   3.030 -0.3053 -0.1906 -0.0089
 1326ntf    fn410701   2.417   0.661   2.670  0.0846  0.3209  0.5355
 1326ntf    fn410702   2.233   0.716   2.762 -0.5245 -0.5559  0.0864
 1326ntf    fn410703   2.405   0.680   2.882 -0.3139 -0.0436 -0.1200
 1326ntf    on510704   2.221   0.477   2.910  0.2103  0.1761  0.0207
 1326ntf    on510705   2.269   0.417   2.674 -0.4140  0.4186 -0.2326
 1326ntf    on510706   2.435   0.161   2.787 -0.0048  0.5374 -0.9291
 1326ntf    on510707   2.656   0.253   2.855 -0.0851  0.3437  0.3223
 1326ntf    fn410708   2.508   0.334   3.107  0.1260 -0.0259 -0.5077
 1326ntf    fn410709   2.488   0.127   3.092 -0.2225 -0.1501  0.0205
 1326ntf    fn410710   2.324   0.256   3.045 -0.3153 -0.0296 -0.2676
 1327ntf    cn110711   4.291   1.612   6.596  0.1136 -0.1259 -0.1789
 1327ntf    sn210712   4.377   1.770   6.577  0.1142 -0.0836  0.1761
 1327ntf    nn310713   4.475   1.721   6.465 -0.5754  0.5373 -0.7112
 1327ntf    sn210714   4.623   1.761   6.433 -0.2751  0.1660  0.1960
 1327ntf    cn110715   4.626   1.699   6.263  0.1225  0.4335  0.1017
 1327ntf    fn410716   4.226   1.583   6.484 -0.0283 -0.0084 -0.1277
 1327ntf    fn410717   4.371   1.511   6.626 -0.6721 -0.7552 -0.1447
 1327ntf    fn410718   4.190   1.628   6.680  0.5572 -0.3253  0.3981
 1327ntf    on510719   4.279   1.871   6.545 -0.5846 -0.6075  0.6314
 1327ntf    on510720   4.444   1.798   6.702  0.6931  0.2890 -0.2099
 1327ntf    on510721   4.637   1.903   6.410 -0.1255  0.1189  0.0037
 1327ntf    on510722   4.725   1.685   6.500 -0.4498 -0.0409  0.2282
 1327ntf    fn410723   4.597   1.569   6.262 -0.1644  0.4941 -0.5830
 1327ntf    fn410724   4.738   1.717   6.196  0.2816  0.0065  0.2483
 1327ntf    fn410725   4.531   1.754   6.189  0.2351  0.0587 -0.3281
 1328ntf    cn110726   6.175   3.839   1.292 -0.1028 -0.2634 -0.3086
 1328ntf    sn210727   6.068   3.891   1.429  0.2518 -0.3621  0.0086
 1328ntf    nn310728   6.154   3.859   1.556  0.2981 -0.1962  0.0202
 1328ntf    sn210729   6.171   3.724   1.635 -0.1534  0.0560  0.5565
 1328ntf    cn110730   6.011   3.714   1.720 -0.5046 -0.3282 -0.1343
 1328ntf    fn410731   6.304   3.857   1.317 -0.3189 -0.1301  0.7763
 1328ntf    fn410732   6.151   3.709   1.278 -0.4946 -0.2357  0.0684
 1328ntf    fn410733   6.140   3.901   1.181  0.9063  0.4221 -0.2541
 1328ntf    on510734   6.058   4.032   1.400  0.4503 -0.3998 -0.2474
 1328ntf    on510735   5.941   3.823   1.424  0.0279  0.0290  0.2969
 1328ntf    on510736   6.183   3.606   1.552 -0.6888  0.5935 -0.3047
 1328ntf    on510737   6.277   3.736   1.731  0.0734 -0.3153  0.3556
 1328ntf    fn410738   5.934   3.822   1.726 -0.1942 -0.1364  0.5909
 1328ntf    fn410739   6.028   3.673   1.845 -0.5455 -0.0881 -0.0485
 1328ntf    fn410740   5.925   3.627   1.670 -0.3435 -0.7999  0.4060
 1329ntf    cn110741   2.466   1.426   6.168  0.2043  0.0297 -0.0078
 1329ntf    sn210742   2.583   1.553   6.226  0.2668 -0.0144 -0.0382
 1329ntf    nn310743   2.712   1.508   6.149  0.1298  0.2595 -0.4296
 1329ntf    sn210744   2.803   1.383   6.176 -0.2440  0.1165  0.2007
 1329ntf    cn110745   2.786   1.279   6.028  0.0325  0.1620  0.1347
 1329ntf    fn410746   2.354   1.421   6.239  0.1589 -0.3484 -0.1056
 1329ntf    fn410747   2.428   1.434   6.041  0.5958  0.1497 -0.1170
 1329ntf    fn410748   2.513   1.303   6.176 -0.4166 -0.2032  0.1294
 1329ntf    on510749   2.535   1.680   6.178 -0.1464 -0.0902  0.1683
 1329ntf    on510750   2.576   1.546   6.370  0.1242 -0.2132 -0.0530
 1329ntf    on510751   2.944   1.410   6.193 -0.3017  0.0708  0.7432
 1329ntf    on510752   2.743   1.301   6.277 -0.2791 -0.1368 -0.0241
 1329ntf    fn410753   2.896   1.244   5.963 -0.3422  0.0411 -0.4401
 1329ntf    fn410754   2.713   1.339   5.935  0.0232 -0.2093 -0.1023
 1329ntf    fn410755   2.719   1.169   6.058 -0.1759  0.1312 -0.4198
 1330ntf    cn110756   5.941   1.658   2.636 -0.0960  0.1501 -0.1325
 1330ntf    sn210757   6.070   1.608   2.753  0.0559  0.1523 -0.2987
 1330ntf    nn310758   6.087   1.745   2.829  0.3150 -0.0466  0.0050
 1330ntf    sn210759   6.192   1.858   2.798  0.1915  0.0844  0.0658
 1330ntf    cn110760   6.105   2.005   2.859  0.0292  0.1036 -0.2101
 1330ntf    fn410761   5.914   1.561   2.550 -0.5418 -0.0864  0.2677
 1330ntf    fn410762   5.823   1.685   2.691  0.3299  0.6641  0.5433
 1330ntf    fn410763   5.976   1.762   2.563 -0.1127  0.4477  0.2784
 1330ntf    on510764   6.006   1.502   2.826  0.1221  0.2769 -0.0586
 1330ntf    on510765   6.181   1.574   2.667 -0.0811 -0.5974 -0.1873
 1330ntf    on510766   6.308   1.852   2.883  0.0138  0.2388  0.3211
 1330ntf    on510767   6.200   1.892   2.658 -0.1443 -0.1771 -0.0178
 1330ntf    fn410768   6.025   2.064   2.771 -0.4779 -0.3684 -0.0714
 1330ntf    fn410769   6.198   2.093   2.893 -0.0148  0.1644 -0.2445
 1330ntf    fn410770   6.036   1.982   2.969  0.0552 -0.3500 -0.2892
 1331ntf    cn110771   3.807   0.358   3.426  0.2901  0.0326 -0.4080
 1331ntf    sn210772   3.863   0.505   3.335  0.3839  0.0385 -0.3412
 1331ntf    nn310773   3.758   0.488   3.219 -0.1909 -0.6625  0.2775
 1331ntf    sn210774   3.780   0.470   3.065 -0.2776  0.2250  0.1567
 1331ntf    cn110775   3.753   0.641   3.010  0.0924  0.0618 -0.5401
 1331ntf    fn410776   3.679   0.367   3.457  0.4406 -0.1369  0.2701
 1331ntf    fn410777   3.827   0.243   3.365  0.1497 -0.0458 -0.3079
 1331ntf    fn410778   3.860   0.358   3.547  0.4224  0.0605 -0.4655
 1331ntf    on510779   3.839   0.616   3.424  0.0212 -0.0644 -0.3100
 1331ntf    on510780   4.001   0.484   3.296  0.3287 -0.2518 -0.3847
 1331ntf    on510781   3.913   0.436   3.021 -0.2540  0.4714  0.0386
 1331ntf    on510782   3.673   0.391   3.010  0.4961 -0.4347 -0.4248
 1331ntf    fn410783   3.661   0.712   3.073  0.4734 -0.0289  0.1265
 1331ntf    fn410784   3.716   0.661   2.884 -1.1825 -0.4254 -0.2550
 1331ntf    fn410785   3.865   0.712   3.019 -0.1519  0.4418 -0.4947
 1332ntf    cn110786   5.198   3.107   6.802  0.0423 -0.0543  0.3937
 1332ntf    sn210787   5.143   3.029   6.647 -0.0717 -0.0404  0.4265
 1332ntf    nn310788   5.012   3.108   6.614  0.1243  0.2623  0.3676
 1332ntf    sn210789   4.984   3.225   6.513  0.3871  0.0947  0.0993
 1332ntf    cn110790   4.827   3.284   6.583  0.4246 -0.0870  0.3370
 1332ntf    fn410791   5.307   3.043   6.842  0.3789  0.4408  0.2677
 1332ntf    fn410792   5.221   3.236   6.787  0.2286 -0.0890  0.3827
 1332ntf    fn410793   5.118   3.083   6.905 -0.0575 -0.0993  0.3058
 1332ntf    on510794   5.248   3.061   6.553 -0.9579  0.1378 -0.5157
 1332ntf    on510795   5.121   2.888   6.668  0.3999 -0.1434  0.2545
 1332ntf    on510796   5.063   3.345   6.515  0.2204  0.1981  0.9083
 1332ntf    on510797   4.944   3.167   6.387  0.1078  0.0294  0.2175
 1332ntf    fn410798   4.747   3.184   6.615  0.0022  0.2355  0.3033
 1332ntf    fn410799   4.755   3.350   6.494 -0.4076 -0.7354  0.5190
 1332ntf    fn410800   4.845   3.355   6.694  0.3666  0.0504  0.2585
 1333ntf    cn110801   5.775   4.407   1.755 -0.2222  0.2899 -0.1663
 1333ntf    sn210802   5.857   4.501   1.887 -0.2605 -0.0165  0.0762
 1333ntf    nn310803   5.940   4.599   1.797  0.0027  0.2334  0.5858
 1333ntf    sn210804   6.096   4.600   1.801  0.0065 -0.2316  0.5305
 1333ntf    cn110805   6.113   4.738   1.918  0.2599  0.0591  0.1557
 1333ntf    fn410806   5.712   4.486   1.669 -0.5316  0.5890  0.3290
 1333ntf    fn410807   5.865   4.341   1.684 -0.2177  0.0000  0.1069
 1333ntf    fn410808   5.683   4.322   1.797  0.3005 -0.2599 -0.1253
 1333ntf    on510809   5.749   4.575   1.948  0.3521  0.0793  1.0708
 1333ntf    on510810   5.928   4.401   1.963  0.0734  0.2016  0.0527
 1333ntf    on510811   6.180   4.494   1.852  0.5604 -0.2410 -0.3701
 1333ntf    on510812   6.161   4.659   1.687 -0.2900 -0.5276  0.2086
 1333ntf    fn410813   6.053   4.711   2.033 -0.0812 -0.1705 -0.0764
 1333ntf    fn410814   6.056   4.846   1.869 -0.3934 -0.2979  0.1217
 1333ntf    fn410815   6.237   4.770   1.952  0.3200  0.1506 -0.1499
 1334ntf    cn110816   4.605   5.388   0.429 -0.2478  0.2235  0.1223
 1334ntf    sn210817   4.616   5.546   0.341  0.1208  0.0426 -0.1590
 1334ntf    nn310818   4.770   5.547   0.311  0.1832 -0.0476  0.1562
 1334ntf    sn210819   4.891   5.617   0.381  0.1259  0.0806  0.1264
 1334ntf    cn110820   4.914   5.758   0.268 -0.0069 -0.0633 -0.0801
 1334ntf    fn410821   4.485   5.369   0.483 -0.2905  0.1758  0.0112
 1334ntf    fn410822   4.614   5.284   0.348 -0.2011  0.1120  0.2692
 1334ntf    fn410823   4.692   5.373   0.528  0.1651  0.1207 -0.2531
 1334ntf    on510824   4.540   5.519   0.222 -0.1280  0.5708 -0.1245
 1334ntf    on510825   4.556   5.649   0.423 -0.6294 -0.0879 -0.5363
 1334ntf    on510826   4.860   5.669   0.512 -0.0831  0.3534 -0.0322
 1334ntf    on510827   5.012   5.542   0.358 -0.0222  0.0292 -0.4956
 1334ntf    fn410828   4.860   5.875   0.300  0.1822  0.1663 -0.6098
 1334ntf    fn410829   4.853   5.747   0.151 -0.0082  0.3437 -0.1196
 1334ntf    fn410830   5.040   5.783   0.239  0.1490 -0.4392  0.2655
 1335ntf    cn110831   4.895   2.195   3.631 -0.2054 -0.2291  0.0916
 1335ntf    sn210832   4.788   2.062   3.569  0.0600 -0.3636 -0.0749
 1335ntf    nn310833   4.867   2.017   3.440  0.5499  0.3190 -0.0179
 1335ntf    sn210834   4.899   1.877   3.378 -0.0160  0.2894 -0.2489
 1335ntf    cn110835   4.881   1.936   3.207  0.6572  0.0301 -0.4120
 1335ntf    fn410836   4.917   2.299   3.553  0.0873  0.2751  0.8326
 1335ntf    fn410837   4.840   2.246   3.740 -0.2985 -0.2047  0.0337
 1335ntf    fn410838   5.017   2.150   3.657 -0.2534 -0.4195 -0.0144
 1335ntf    on510839   4.778   1.967   3.677  0.0839  0.0533  0.2944
 1335ntf    on510840   4.668   2.136   3.541 -0.0454 -0.5753 -0.1870
 1335ntf    on510841   5.036   1.832   3.387 -0.2186 -0.3595 -0.3809
 1335ntf    on510842   4.801   1.772   3.391  0.8058 -0.4048  0.4276
 1335ntf    fn410843   4.950   2.043   3.171 -0.2148  0.5673 -0.5031
 1335ntf    fn410844   4.754   1.957   3.176  0.3116 -0.5930  0.5516
 1335ntf    fn410845   4.924   1.843   3.122 -0.3698 -0.7046 -0.1469
 1336ntf    cn110846   3.491   3.726   2.778 -0.4874 -0.1026  0.0879
 1336ntf    sn210847   3.358   3.804   2.875 -0.3051 -0.1017  0.3389
 1336ntf    nn310848   3.427   3.857   3.006 -0.5419  0.3866  0.2684
 1336ntf    sn210849   3.435   3.816   3.157 -0.0926  0.2483  0.2102
 1336ntf    cn110850   3.608   3.762   3.152 -0.0038  0.4697  0.7931
 1336ntf    fn410851   3.594   3.809   2.781 -0.6750  0.1259  0.2836
 1336ntf    fn410852   3.538   3.614   2.832  0.0828  0.0647 -0.0514
 1336ntf    fn410853   3.462   3.712   2.650 -0.0753  0.2655 -0.0478
 1336ntf    on510854   3.326   3.910   2.783  0.0833 -0.1366  0.1588
 1336ntf    on510855   3.264   3.696   2.894  0.2183 -0.6612 -0.1979
 1336ntf    on510856   3.430   3.936   3.236  0.2623  0.5841 -0.2737
 1336ntf    on510857   3.361   3.696   3.191 -0.4014  0.3462 -0.1102
 1336ntf    fn410858   3.682   3.871   3.135 -0.3319  0.5536 -0.1824
 1336ntf    fn410859   3.635   3.674   3.056  0.3049  1.0101  0.3753
 1336ntf    fn410860   3.643   3.704   3.265 -0.0039 -0.3532  0.3798
 1337ntf    cn110861   1.762   0.273   4.270 -0.0423 -0.0745  0.1897
 1337ntf    sn210862   1.797   0.430   4.186 -0.1992 -0.0677  0.1368
 1337ntf    nn310863   1.665   0.496   4.238 -0.4695 -0.5875  0.1119
 1337ntf    sn210864   1.645   0.646   4.280 -0.3348 -0.4936 -0.1562
 1337ntf    cn110865   1.654   0.644   4.462 -0.0050 -0.0752 -0.1678
 1337ntf    fn410866   1.634   0.241   4.255  0.0159 -0.1745 -0.1000
 1337ntf    fn410867   1.823   0.164   4.224 -0.0205  0.0494 -0.0762
 1337ntf    fn410868   1.786   0.274   4.400 -0.5209 -0.0808  0.2806
 1337ntf    on510869   1.923   0.473   4.241 -0.0874  0.1509 -0.2804
 1337ntf    on510870   1.803   0.405   4.044 -0.7926 -0.3304  0.1537
 1337ntf    on510871   1.745   0.740   4.236 -0.8109  0.3540  0.5436
 1337ntf    on510872   1.508   0.682   4.253 -0.1332  0.2664 -0.1900
 1337ntf    fn410873   1.674   0.758   4.526 -0.0895 -0.2071  0.0979
 1337ntf    fn410874   1.750   0.564   4.506  0.1268  0.0571 -0.2131
 1337ntf    fn410875   1.550   0.588   4.521  0.4266 -0.2622  0.4244
 1338ntf    cn110876   5.345   5.874   2.107 -0.0975  0.0310  0.1852
 1338ntf    sn210877   5.327   6.018   1.998  0.0830 -0.0982 -0.0167
 1338ntf    nn310878   5.187   6.062   2.055 -0.2173 -0.6277 -0.3398
 1338ntf    sn210879   5.042   6.025   2.007 -0.3471 -0.4948 -0.0533
 1338ntf    cn110880   4.956   6.062   2.163  0.2153  0.1776  0.1008
 1338ntf    fn410881   5.443   5.801   2.056  0.3294  0.3587  0.5277
 1338ntf    fn410882   5.366   5.900   2.235 -0.0384  0.4908  0.0844
 1338ntf    fn410883   5.231   5.807   2.107 -0.3330  0.4243  0.2972
 1338ntf    on510884   5.426   6.113   2.043 -0.1086  0.0914  0.0085
 1338ntf    on510885   5.335   5.975   1.861  0.5884 -0.2931  0.0710
 1338ntf    on510886   4.988   6.129   1.924 -0.2683 -0.4629 -0.0632
 1338ntf    on510887   5.012   5.887   1.978 -0.2464 -0.5065 -0.1037
 1338ntf    fn410888   4.826   6.064   2.138  0.2155 -0.0894  0.0776
 1338ntf    fn410889   4.977   6.182   2.215 -0.2401 -0.0900  0.9234
 1338ntf    fn410890   4.979   5.974   2.259 -0.3003  0.2887  0.3298
 1339ntf    cn110891   2.825   4.100   1.569 -0.0803  0.2928  0.7473
 1339ntf    sn210892   2.893   3.956   1.658  0.1358 -0.0291  0.0690
 1339ntf    nn310893   2.774   3.853   1.661  0.1956 -0.1040 -0.1134
 1339ntf    sn210894   2.718   3.760   1.774  0.2008 -0.0943 -0.1025
 1339ntf    cn110895   2.725   3.598   1.691  0.6622  0.0907 -0.4318
 1339ntf    fn410896   2.918   4.190   1.540  0.0822 -0.0212  0.2785
 1339ntf    fn410897   2.778   4.070   1.449  0.0898 -0.1314  0.7851
 1339ntf    fn410898   2.724   4.158   1.631 -0.3093  0.8670 -0.1557
 1339ntf    on510899   2.996   3.910   1.568  0.3880 -0.2771  0.4841
 1339ntf    on510900   2.937   4.024   1.777 -0.2459  0.0260  0.1792
 1339ntf    on510901   2.806   3.741   1.887  0.1891  0.6083  0.0300
 1339ntf    on510902   2.578   3.780   1.801  0.1634 -0.0127 -0.3575
 1339ntf    fn410903   2.669   3.500   1.760  1.1576  0.4223  0.4687
 1339ntf    fn410904   2.846   3.563   1.652  0.6751 -0.4904  0.1133
 1339ntf    fn410905   2.653   3.603   1.580  0.0099  0.2897 -0.0117
 1340ntf    cn110906   0.646   6.503   5.327 -0.1588 -0.1747  0.2110
 1340ntf    sn210907   0.770   6.479   5.458 -0.2252  0.1501  0.3347
 1340ntf    nn310908   0.773   6.323   5.472 -0.1765  0.1254  0.0553
 1340ntf    sn210909   0.894   6.223   5.462 -0.3095 -0.0289 -0.0340
 1340ntf    cn110910   0.923   6.175   5.635 -0.0143 -0.2071 -0.1334
 1340ntf    fn410911   0.523   6.461   5.353 -0.3066  0.1822  0.1003
 1340ntf    fn410912   0.641   6.627   5.280 -0.3803 -0.3950 -0.3532
 1340ntf    fn410913   0.685   6.427   5.227  0.2835 -0.0696  0.2989
 1340ntf    on510914   0.892   6.541   5.411 -0.4853 -0.1292 -0.7348
 1340ntf    on510915   0.709   6.542   5.573 -0.5990 -0.2117  0.3349
 1340ntf    on510916   0.855   6.099   5.400  0.4667 -0.1576 -0.2659
 1340ntf    on510917   1.026   6.270   5.429 -0.1130 -0.3513  0.2891
 1340ntf    fn410918   0.924   6.280   5.715  0.2560 -0.1331 -0.2325
 1340ntf    fn410919   1.030   6.099   5.647 -0.1009 -0.1918  0.7915
 1340ntf    fn410920   0.821   6.101   5.675  0.0243 -0.3571 -0.3120
 1341ntf    cn110921   4.765   4.460   5.104 -0.3415  0.0216  0.0910
 1341ntf    sn210922   4.840   4.295   5.100 -0.0165  0.1728 -0.1408
 1341ntf    nn310923   4.991   4.322   5.065  0.0864  0.5592  0.5821
 1341ntf    sn210924   5.062   4.432   4.978 -0.0805  0.1034 -0.1387
 1341ntf    cn110925   5.131   4.327   4.847 -0.0193 -0.0639  0.0271
 1341ntf    fn410926   4.839   4.560   5.149 -0.0705  0.0178 -0.3345
 1341ntf    fn410927   4.734   4.489   4.979 -0.0998  0.3296  0.0986
 1341ntf    fn410928   4.662   4.457   5.186 -0.1163  0.1619  0.3807
 1341ntf    on510929   4.822   4.238   5.232 -0.0982  0.2063 -0.1381
 1341ntf    on510930   4.772   4.221   4.997  0.2932 -0.0043 -0.2190
 1341ntf    on510931   4.986   4.532   4.908 -0.1852 -0.2357 -0.5160
 1341ntf    on510932   5.180   4.477   5.048 -0.0407 -0.0492 -0.1060
 1341ntf    fn410933   5.177   4.401   4.747 -0.2200  0.2389  0.1592
 1341ntf    fn410934   5.046   4.239   4.795 -0.4912  0.4389 -0.0590
 1341ntf    fn410935   5.229   4.245   4.882  0.0159  0.1502  0.4302
 1342ntf    cn110936   5.974   5.420   6.018 -0.1296 -0.5222 -0.1642
 1342ntf    sn210937   6.079   5.476   5.881 -0.1034 -0.0543  0.0422
 1342ntf    nn310938   5.995   5.606   5.855  0.5334  0.2622 -0.4643
 1342ntf    sn210939   5.897   5.649   5.740 -0.2880  0.1557  0.1908
 1342ntf    cn110940   5.896   5.824   5.789  0.0572  0.0680  0.5149
 1342ntf    fn410941   5.958   5.498   6.124  0.5085  0.5346 -0.8210
 1342ntf    fn410942   5.855   5.375   5.979 -0.3749 -0.6825  0.7473
 1342ntf    fn410943   6.030   5.313   6.069  0.2761 -0.1399  0.1989
 1342ntf    on510944   6.206   5.513   5.937  0.0162  0.1889 -0.3859
 1342ntf    on510945   6.070   5.372   5.781  0.1039 -0.3900  0.3718
 1342ntf    on510946   5.972   5.650   5.617 -0.0328  0.3095  0.3478
 1342ntf    on510947   5.759   5.606   5.750 -0.0965 -0.4013  0.5043
 1342ntf    fn410948   5.838   5.835   5.908 -0.0688  0.2790  0.4341
 1342ntf    fn410949   5.828   5.899   5.704  0.2722 -0.0248  0.2618
 1342ntf    fn410950   6.015   5.877   5.811 -0.0296  0.3136  0.3824
 1343ntf    cn110951   1.178   0.263   5.726 -0.0833  0.1631  0.5281
 1343ntf    sn210952   1.143   0.090   5.680  0.5128  0.2491 -0.2576
 1343ntf    nn310953   1.198   0.094   5.533 -0.6023  0.1882 -0.6811
 1343ntf    sn210954   1.269  -0.028   5.464 -0.2601 -0.0834  0.1312
 1343ntf    cn110955   1.407  -0.055   5.579  0.0203  0.0925 -0.1619
 1343ntf    fn410956   1.148   0.302   5.849 -0.7753  0.2886  0.3248
 1343ntf    fn410957   1.306   0.290   5.711 -0.1967  0.3080 -0.1721
 1343ntf    fn410958   1.120   0.343   5.638 -0.1635  0.3445  0.7428
 1343ntf    on510959   1.221   0.018   5.778 -0.0502  0.4455  0.3448
 1343ntf    on510960   1.000   0.087   5.696  0.5598 -0.0247  0.1170
 1343ntf    on510961   1.187  -0.146   5.463 -0.3077 -0.0511  0.2229
 1343ntf    on510962   1.340   0.001   5.342  0.0738 -0.1182  0.3167
 1343ntf    fn410963   1.519  -0.089   5.518 -0.1432  0.0862 -0.4603
 1343ntf    fn410964   1.380  -0.148   5.669  0.0853  0.4879  0.2702
 1343ntf    fn410965   1.429   0.055   5.649 -0.5410  0.1120 -0.0082
 1344ntf    cn110966   0.970   1.020   4.481  0.2788  0.1724  0.2387
 1344ntf    sn210967   1.120   1.076   4.395  0.0956  0.2735 -0.0150
 1344ntf    nn310968   1.220   1.055   4.514  0.1672  0.0545 -0.1135
 1344ntf    sn210969   1.355   0.975   4.524  0.1002 -0.0445 -0.0076
 1344ntf    cn110970   1.467   1.115   4.555 -0.1468  0.1117  0.1912
 1344ntf    fn410971   0.871   0.992   4.399  0.3483 -0.6751  0.4363
 1344ntf    fn410972   0.999   0.908   4.546  0.4224 -0.3034 -0.6208
 1344ntf    fn410973   0.930   1.113   4.566  0.0353  0.4447 -0.1699
 1344ntf    on510974   1.132   0.985   4.284 -0.2718 -0.1436  0.2862
 1344ntf    on510975   1.084   1.212   4.364  0.1281  0.2905  0.0215
 1344ntf    on510976   1.368   0.892   4.641 -0.2102  0.9633  0.7566
 1344ntf    on510977   1.398   0.926   4.396  0.5172  0.3299 -0.0142
 1344ntf    fn410978   1.432   1.189   4.658 -0.1075  0.0869  0.2231
 1344ntf    fn410979   1.491   1.201   4.458  0.2320 -0.5098 -0.2790
 1344ntf    fn410980   1.589   1.076   4.589 -0.1224 -0.0964 -0.1285
 1345ntf    cn110981   2.091   1.594   1.508  0.5375 -0.1969 -0.2040
 1345ntf    sn210982   2.128   1.549   1.335  0.1246 -0.0067 -0.3412
 1345ntf    nn310983   1.983   1.537   1.274 -0.0753  0.6043 -0.0039
 1345ntf    sn210984   1.927   1.560   1.130  0.0029 -0.1606 -0.1641
 1345ntf    cn110985   1.865   1.392   1.097  0.0079 -0.1300 -0.3333
 1345ntf    fn410986   2.021   1.706   1.507 -0.0149 -0.5367 -0.2093
 1345ntf    fn410987   2.005   1.504   1.553  0.3222 -0.0883 -0.3943
 1345ntf    fn410988   2.198   1.591   1.586 -0.0051 -0.7724  0.5251
 1345ntf    on510989   2.197   1.669   1.295  0.0502 -0.2038 -1.0734
 1345ntf    on510990   2.211   1.432   1.341  0.1608  0.0182 -0.3596
 1345ntf    on510991   1.805   1.638   1.135  0.1530  0.0523  0.1670
 1345ntf    on510992   2.014   1.590   1.019  0.5037 -0.3743  0.1682
 1345ntf    fn410993   1.963   1.313   1.057 -0.1537 -0.4470 -0.1025
 1345ntf    fn410994   1.772   1.382   1.004 -0.2522  0.8314 -0.1872
 1345ntf    fn410995   1.831   1.334   1.211  0.0083  0.1695 -0.1802
 1346ntf    cn110996   4.435   3.138   0.129  0.0371 -0.1203  0.3166
 1346ntf    sn210997   4.368   3.176  -0.036  0.1702 -0.0016  0.2902
 1346ntf    nn310998   4.222   3.119  -0.027  0.0945  0.0629 -0.4863
 1346ntf    sn210999   4.086   3.188   0.012  0.0826 -0.2205 -0.0143
 1346ntf    cn111000   3.977   3.043   0.013 -0.1830 -0.0202  0.3110
 1346ntf    fn411001   4.405   3.014   0.165 -0.0353 -0.0693  0.4332
 1346ntf    fn411002   4.566   3.153   0.132  0.0212 -0.0399  0.6302
 1346ntf    fn411003   4.379   3.222   0.215 -0.1091 -0.2723  0.3713
 1346ntf    on511004   4.377   3.320  -0.033 -0.7960  0.0610  0.5384
 1346ntf    on511005   4.450   3.101  -0.128  0.0144 -0.3174  0.4064
 1346ntf    on511006   4.093   3.222   0.152 -0.3206  0.2437 -0.1038
 1346ntf    on511007   4.025   3.272  -0.088 -0.3136 -0.4284  0.0528
 1346ntf    fn411008   4.028   2.959   0.101  0.0481 -0.0044  0.1936
 1346ntf    fn411009   3.978   2.981  -0.104  0.1638  0.4039  0.0851
 1346ntf    fn411010   3.853   3.063   0.053 -0.2450 -0.1638  0.1944
 1347ntf    cn111011   5.010   6.473   1.824  0.2693 -0.3341 -0.0558
 1347ntf    sn211012   4.974   6.632   1.744 -0.0609 -0.3237  0.1090
 1347ntf    nn311013   4.870   6.707   1.834  0.3518 -0.2798  0.5526
 1347ntf    sn211014   4.840   6.861   1.831  0.4918 -0.2618 -0.1069
 1347ntf    cn111015   4.960   6.913   1.957  0.3684  0.2181 -0.1852
 1347ntf    fn411016   5.060   6.496   1.944 -0.0865  0.0615  0.0212
 1347ntf    fn411017   4.896   6.405   1.826  0.0353  0.0452 -0.2768
 1347ntf    fn411018   5.093   6.394   1.758  0.3086 -0.0364 -0.3584
 1347ntf    on511019   5.107   6.686   1.750 -0.2358  0.1640 -0.3018
 1347ntf    on511020   4.922   6.592   1.615 -0.3037 -0.2109  0.1719
 1347ntf    on511021   4.875   6.936   1.712 -0.3698 -0.4349 -0.4738
 1347ntf    on511022   4.715   6.887   1.898  0.4776  0.3158 -0.3516
 1347ntf    fn411023   4.932   6.857   2.074 -0.1155  0.2612 -0.2774
 1347ntf    fn411024   4.961   7.041   1.992  0.6812 -0.0363  0.7629
 1347ntf    fn411025   5.081   6.874   1.920  0.5449  0.0808  0.5279
 1348ntf    cn111026   6.021   0.122   2.944  0.0727  0.0954  0.5523
 1348ntf    sn211027   5.863   0.053   3.001 -0.2045  0.2859  0.0180
 1348ntf    nn311028   5.839   0.131   3.136  0.0451  0.2037  0.1099
 1348ntf    sn211029   5.852   0.080   3.283 -0.1134  0.1086  0.0908
 1348ntf    cn111030   5.700  -0.016   3.312  0.0066 -0.1602 -0.1623
 1348ntf    fn411031   6.116   0.068   3.019  0.1788 -0.6352 -0.0984
 1348ntf    fn411032   6.053   0.086   2.821  0.3175  0.5222  0.4898
 1348ntf    fn411033   6.043   0.252   2.948 -0.2800  0.1672  0.1276
 1348ntf    on511034   5.778   0.096   2.893 -0.1315 -0.3544 -0.2994
 1348ntf    on511035   5.888  -0.089   3.004 -0.1825  0.2895  0.0138
 1348ntf    on511036   5.953  -0.020   3.307  0.1840  0.2674 -0.5042
 1348ntf    on511037   5.838   0.193   3.372 -0.9206  0.0871  0.0006
 1348ntf    fn411038   5.693  -0.053   3.439  0.6314  0.3605  0.0323
 1348ntf    fn411039   5.698  -0.120   3.231  0.6385  0.0228 -0.4149
 1348ntf    fn411040   5.598   0.060   3.276 -0.0580 -0.4084 -0.4945
 1349ntf    cn111041   2.313   2.573   2.777  0.1327  0.0497  0.6278
 1349ntf    sn211042   2.266   2.462   2.913 -0.3487 -0.6381 -0.0970
 1349ntf    nn311043   2.389   2.484   3.008 -0.5499  0.5837 -0.1070
 1349ntf    sn211044   2.401   2.526   3.159  0.1864  0.0807 -0.0185
 1349ntf    cn111045   2.471   2.372   3.226  0.3990  0.1525 -0.0760
 1349ntf    fn411046   2.362   2.684   2.830 -0.0103  0.4828 -0.1448
 1349ntf    fn411047   2.404   2.515   2.701 -0.1231  1.0091 -0.4318
 1349ntf    fn411048   2.212   2.588   2.694  0.2614  0.3715  0.5261
 1349ntf    on511049   2.138   2.519   2.945 -0.4213 -0.7254 -0.2302
 1349ntf    on511050   2.277   2.333   2.849  0.3306 -0.5012 -0.2657
 1349ntf    on511051   2.504   2.626   3.169  0.1841  0.0976 -0.1578
 1349ntf    on511052   2.280   2.544   3.236  0.3031 -0.4329  0.2912
 1349ntf    fn411053   2.475   2.379   3.358  0.1215 -0.5057 -0.0315
 1349ntf    fn411054   2.596   2.350   3.189  0.2932 -0.0322 -0.3205
 1349ntf    fn411055   2.405   2.263   3.193  0.4077  0.2369 -0.3768
 1350ntf    cn111056   0.753   0.659   4.311  0.1729  0.1139  0.3652
 1350ntf    sn211057   0.829   0.494   4.299 -0.3195 -0.0651 -0.3609
 1350ntf    nn311058   0.979   0.529   4.266 -0.2585  0.4111  0.3779
 1350ntf    sn211059   1.095   0.561   4.366  0.0805  0.3177  0.0189
 1350ntf    cn111060   1.166   0.398   4.403  0.0338  0.3049  0.0529
 1350ntf    fn411061   0.794   0.738   4.213 -0.1407 -0.1526  0.0193
 1350ntf    fn411062   0.621   0.653   4.302  0.1956  0.1342  0.0108
 1350ntf    fn411063   0.787   0.720   4.424  0.7467 -0.0966  0.3080
 1350ntf    on511064   0.805   0.430   4.426  0.1337  0.3554 -0.0581
 1350ntf    on511065   0.757   0.431   4.192 -0.2864 -0.0321 -0.4024
 1350ntf    on511066   1.208   0.621   4.300  0.2116 -0.1156 -0.1562
 1350ntf    on511067   1.056   0.614   4.494 -0.1497  0.2942 -0.0415
 1350ntf    fn411068   1.269   0.407   4.486 -0.1384  0.1507  0.2827
 1350ntf    fn411069   1.203   0.333   4.294 -0.4442  0.1517 -0.0188
 1350ntf    fn411070   1.079   0.315   4.458 -0.5257  0.6243 -0.3398
 1351ntf    cn111071   2.547   6.624   5.579  0.3305  0.3255  0.0680
 1351ntf    sn211072   2.662   6.591   5.717 -0.0628 -0.1725  0.2798
 1351ntf    nn311073   2.562   6.616   5.835 -0.0633 -0.8439  0.4256
 1351ntf    sn211074   2.542   6.743   5.926 -0.0778 -0.1022 -0.5932
 1351ntf    cn111075   2.655   6.697   6.061 -0.5859 -0.1516 -0.1787
 1351ntf    fn411076   2.615   6.620   5.466  0.0064 -0.7762 -0.0920
 1351ntf    fn411077   2.446   6.540   5.573  0.3826  0.2473  0.2669
 1351ntf    fn411078   2.489   6.743   5.588 -0.0944  0.1681 -0.6044
 1351ntf    on511079   2.700   6.454   5.698  0.0236 -0.0414 -0.5477
 1351ntf    on511080   2.768   6.685   5.692 -0.0712 -0.3258 -0.3462
 1351ntf    on511081   2.588   6.870   5.876  0.1601  0.1599  0.2859
 1351ntf    on511082   2.410   6.727   5.982 -0.0591  0.5611 -0.3521
 1351ntf    fn411083   2.603   6.596   6.127  0.0429 -0.0260  0.5153
 1351ntf    fn411084   2.667   6.803   6.139  0.0785 -0.2676 -0.1114
 1351ntf    fn411085   2.778   6.663   6.026 -0.1474  0.2212  0.9778
 1352ntf    cn111086   4.758   5.032   2.326  0.2757 -0.2573  0.2231
 1352ntf    sn211087   4.641   4.898   2.286  0.0298  0.0632 -0.1389
 1352ntf    nn311088   4.589   4.872   2.432 -0.2830  0.1801 -0.2303
 1352ntf    sn211089   4.450   4.910   2.495 -0.1648 -0.1609  0.2379
 1352ntf    cn111090   4.347   4.786   2.411 -0.2514 -0.0240  0.1427
 1352ntf    fn411091   4.699   5.139   2.374 -0.3291 -0.5378  0.1143
 1352ntf    fn411092   4.841   4.992   2.421  0.6391 -0.3479 -0.1293
 1352ntf    fn411093   4.838   5.060   2.224  0.1242  0.0070  0.1764
 1352ntf    on511094   4.545   4.947   2.190  0.0290 -0.5831 -0.4711
 1352ntf    on511095   4.727   4.793   2.238 -0.0109 -0.0577  0.0527
 1352ntf    on511096   4.441   4.871   2.634  0.0616 -0.4951  0.1593
 1352ntf    on511097   4.397   5.041   2.464  0.7679  0.0141 -0.6814
 1352ntf    fn411098   4.356   4.781   2.280 -0.5792  0.0074  0.1175
 1352ntf    fn411099   4.219   4.806   2.438 -0.2310  0.0854  0.1611
 1352ntf    fn411100   4.366   4.662   2.451 -0.1641  0.1428  0.6269
 1353ntf    cn111101   5.645   5.182   3.906 -0.2895 -0.1118 -0.1406
 1353ntf    sn211102   5.774   5.065   3.852 -0.0590  0.1409 -0.1391
 1353ntf    nn311103   5.891   5.166   3.829 -0.0528  0.1345 -0.1352
 1353ntf    sn211104   6.018   5.191   3.919 -0.1105 -0.2448  0.0525
 1353ntf    cn111105   6.147   5.089   3.840 -0.0447  0.0193 -0.1836
 1353ntf    fn411106   5.690   5.264   3.999  0.1328 -0.2682 -0.2015
 1353ntf    fn411107   5.607   5.250   3.799 -0.1836  0.6105  0.2756
 1353ntf    fn411108   5.539   5.114   3.947  0.2152 -0.6470  0.3124
 1353ntf    on511109   5.780   4.972   3.962 -0.5079 -0.1229 -0.3338
 1353ntf    on511110   5.721   5.015   3.727  0.3636 -0.3815 -0.1150
 1353ntf    on511111   6.063   5.327   3.903  0.4561 -0.4562 -0.1608
 1353ntf    on511112   6.016   5.142   4.055 -0.3217 -0.6600 -0.0985
 1353ntf    fn411113   6.134   4.959   3.858 -0.0554  0.0718  0.2145
 1353ntf    fn411114   6.266   5.127   3.884 -0.0256 -0.2532  0.0002
 1353ntf    fn411115   6.147   5.122   3.712  0.3379  0.0304 -0.1801
 1354ntf    cn111116   6.590   6.127   4.067 -0.2274  0.0967  0.2732
 1354ntf    sn211117   6.530   5.960   4.108  0.1334 -0.0519  0.1926
 1354ntf    nn311118   6.465   5.983   4.249 -0.3772  0.1181 -0.0700
 1354ntf    sn211119   6.534   5.970   4.389 -0.1818 -0.2587 -0.1996
 1354ntf    cn111120   6.532   5.789   4.407  0.1676 -0.1544  0.9719
 1354ntf    fn411121   6.517   6.195   3.980 -0.0974  0.2117  0.2539
 1354ntf    fn411122   6.597   6.205   4.174 -0.1887  0.8642 -0.2802
 1354ntf    fn411123   6.714   6.127   4.022 -0.3862 -0.0713 -0.1748
 1354ntf    on511124   6.427   5.938   4.010  0.4507 -0.7815  0.0152
 1354ntf    on511125   6.648   5.877   4.103  0.0430 -0.1599 -0.1844
 1354ntf    on511126   6.668   6.020   4.411 -0.2383 -0.2793  0.1917
 1354ntf    on511127   6.448   6.007   4.498  0.2353 -0.0837  0.0740
 1354ntf    fn411128   6.412   5.734   4.402  0.1142  0.0134  0.2949
 1354ntf    fn411129   6.587   5.755   4.522 -0.0250 -0.3334  1.0111
 1354ntf    fn411130   6.597   5.731   4.307 -0.1278  0.2914  0.5158
 1355ntf    cn111131   2.842   0.470   0.936 -0.2400  0.3069 -0.0047
 1355ntf    sn211132   2.832   0.290   0.957 -0.0782  0.2979 -0.0025
 1355ntf    nn311133   2.773   0.273   1.101 -0.2736  0.0561 -0.1099
 1355ntf    sn211134   2.820   0.170   1.210  0.1469  0.1925 -0.1585
 1355ntf    cn111135   2.922   0.263   1.328  0.1236 -0.0083  0.0228
 1355ntf    fn411136   2.900   0.501   0.821 -0.1145  0.0519 -0.0111
 1355ntf    fn411137   2.718   0.516   0.933 -0.0220  0.8980 -0.2744
 1355ntf    fn411138   2.910   0.521   1.038 -0.2701 -0.2003  0.2690
 1355ntf    on511139   2.745   0.243   0.852 -0.1885 -0.2634  0.3366
 1355ntf    on511140   2.972   0.260   0.939 -0.2157 -0.0344 -0.5660
 1355ntf    on511141   2.717   0.123   1.300  0.2903 -0.1023 -0.1475
 1355ntf    on511142   2.920   0.081   1.158 -0.2783 -0.2885 -0.1651
 1355ntf    fn411143   2.954   0.199   1.439  0.0309 -0.4688 -0.2130
 1355ntf    fn411144   2.853   0.371   1.360 -0.1864 -0.1916 -0.0309
 1355ntf    fn411145   3.040   0.300   1.280  0.0161  0.0388 -0.2092
 1356ntf    cn111146   5.649   4.913   6.499 -0.3396  0.2127 -0.0139
 1356ntf    sn211147   5.729   4.983   6.351  0.0501  0.0471  0.1185
 1356ntf    nn311148   5.879   4.939   6.366  0.2576  0.6082 -0.2855
 1356ntf    sn211149   5.969   4.833   6.293  0.1534  0.5012 -0.2585
 1356ntf    cn111150   6.123   4.930   6.291  0.5731 -0.1442  0.2202
 1356ntf    fn411151   5.656   4.781   6.508 -0.1895  0.2479  0.3790
 1356ntf    fn411152   5.684   4.969   6.614 -0.9530  0.0801  0.2387
 1356ntf    fn411153   5.521   4.944   6.505 -0.3600  0.1035  0.1058
 1356ntf    on511154   5.668   4.912   6.241  0.6235 -0.1820 -0.0598
 1356ntf    on511155   5.704   5.125   6.355 -0.7658 -0.0929  0.0400
 1356ntf    on511156   6.014   4.722   6.373  0.1616  0.7227  0.0442
 1356ntf    on511157   5.941   4.819   6.152 -0.8831 -0.3755  0.0171
 1356ntf    fn411158   6.233   4.861   6.266  0.4246 -0.3387  0.0986
 1356ntf    fn411159   6.147   4.989   6.407 -0.3200  0.1765  0.2552
 1356ntf    fn411160   6.124   5.022   6.196 -0.4289 -0.4879 -0.1370
 1357ntf    cn111161   2.737   0.820   5.513  0.2714 -0.3919  0.4498
 1357ntf    sn211162   2.886   0.760   5.428 -0.0834 -0.5528 -0.0644
 1357ntf    nn311163   2.988   0.730   5.544 -0.1085 -0.1898  0.0532
 1357ntf    sn211164   2.977   0.624   5.659  0.1045  0.0536  0.2990
 1357ntf    cn111165   3.156   0.608   5.686  0.0147  0.0752  0.9313
 1357ntf    fn411166   2.753   0.917   5.602 -0.3277  0.5137 -0.4041
 1357ntf    fn411167   2.647   0.869   5.429  0.0129 -0.2136  0.8254
 1357ntf    fn411168   2.677   0.714   5.565  0.3808 -0.2283  0.9132
 1357ntf    on511169   2.844   0.650   5.344  0.3423 -0.7252 -0.0510
 1357ntf    on511170   2.920   0.876   5.349 -0.3615 -0.5589 -0.1930
 1357ntf    on511171   2.936   0.678   5.786  0.1589 -0.1061  0.3849
 1357ntf    on511172   2.926   0.495   5.619  0.1282 -0.0168  0.4936
 1357ntf    fn411173   3.178   0.507   5.768 -0.3912 -0.5813  0.2485
 1357ntf    fn411174   3.213   0.717   5.734  0.6640 -0.2065  0.8100
 1357ntf    fn411175   3.228   0.574   5.580 -0.3293 -0.7848  0.9657
 1358ntf    cn111176   3.024   5.938   6.181 -0.2439 -0.1278  0.6856
 1358ntf    sn211177   3.116   5.784   6.156 -0.0451  0.0208  0.5016
 1358ntf    nn311178   3.004   5.696   6.090  0.3275  0.1125 -0.2684
 1358ntf    sn211179   3.007   5.550   6.032  0.2648  0.0688 -0.1618
 1358ntf    cn111180   2.881   5.459   6.127  0.2213  0.3882  0.0883
 1358ntf    fn411181   2.982   5.970   6.060  0.6115 -0.3358  0.3325
 1358ntf    fn411182   2.920   5.924   6.262 -0.5501  0.4163  0.3951
 1358ntf    fn411183   3.086   6.050   6.215 -0.0996  0.2015 -0.5907
 1358ntf    on511184   3.226   5.828   6.073 -0.2443  0.1128  0.2849
 1358ntf    on511185   3.139   5.748   6.293  0.2552  0.0829  0.4688
 1358ntf    on511186   2.963   5.550   5.895 -0.5005 -0.2400  0.0734
 1358ntf    on511187   3.123   5.471   6.064 -0.2776 -0.6404  0.1007
 1358ntf    fn411188   2.763   5.520   6.128  0.3395  0.6377 -0.5858
 1358ntf    fn411189   2.909   5.438   6.255  0.3164  0.1558  0.0292
 1358ntf    fn411190   2.860   5.337   6.080  0.3839  0.4964 -0.2642
 1359ntf    cn111191   1.989   4.851   2.811  0.2221  0.1549  0.4009
 1359ntf    sn211192   1.996   5.021   2.747 -0.0576  0.0958  0.2114
 1359ntf    nn311193   1.926   5.111   2.855  0.4314  0.5780  0.1288
 1359ntf    sn211194   1.803   5.208   2.849  0.1213  0.1686 -0.2392
 1359ntf    cn111195   1.817   5.301   3.005  0.1090  0.9066 -0.6720
 1359ntf    fn411196   2.066   4.846   2.919 -0.1971  0.2775  0.7093
 1359ntf    fn411197   1.866   4.826   2.852 -0.0159  0.3864 -0.1756
 1359ntf    fn411198   2.028   4.752   2.732 -0.6003  0.1070  0.0467
 1359ntf    on511199   2.139   5.038   2.749 -0.1201  0.6051  0.6144
 1359ntf    on511200   1.926   5.023   2.621  0.2374  0.4912  0.0547
 1359ntf    on511201   1.818   5.308   2.746  0.1381 -0.0509 -0.4500
 1359ntf    on511202   1.675   5.145   2.869  0.2545 -0.0387 -0.0290
 1359ntf    fn411203   1.945   5.327   3.030  0.0325  0.5535  0.1310
 1359ntf    fn411204   1.772   5.227   3.105  1.2389  0.1101 -0.7328
 1359ntf    fn411205   1.760   5.420   3.013  0.5794  1.1148 -0.3732
 1360ntf    cn111206   1.943   1.324   0.064 -0.1974 -0.0248 -0.1096
 1360ntf    sn211207   2.003   1.259  -0.095  0.0376 -0.2502  0.0692
 1360ntf    nn311208   1.856   1.235  -0.147  0.0188 -0.0233  0.0181
 1360ntf    sn211209   1.781   1.109  -0.202  0.3328 -0.2902  0.1985
 1360ntf    cn111210   1.633   1.172  -0.285  0.5736  0.3057  0.2190
 1360ntf    fn411211   1.863   1.246   0.134 -0.3011  0.3407  0.1799
 1360ntf    fn411212   2.042   1.342   0.150 -0.1325 -0.1093 -0.1654
 1360ntf    fn411213   1.884   1.442   0.055  0.0106  0.1063  0.2099
 1360ntf    on511214   2.057   1.374  -0.163 -0.1030 -0.1309  0.1563
 1360ntf    on511215   2.090   1.148  -0.067  0.1868 -0.0723  0.3131
 1360ntf    on511216   1.862   1.049  -0.305 -0.0744 -0.4155 -0.0524
 1360ntf    on511217   1.733   1.029  -0.092 -0.1643 -0.6788 -0.2947
 1360ntf    fn411218   1.663   1.258  -0.382  0.8216  0.1714  0.1778
 1360ntf    fn411219   1.546   1.216  -0.195 -0.6409 -0.5396 -0.5079
 1360ntf    fn411220   1.561   1.075  -0.340 -0.2321  0.7325  0.5014
 1361ntf    cn111221   4.101   2.275   0.271  0.1208  0.3798 -0.6735
 1361ntf    sn211222   4.222   2.337   0.391 -0.3805  0.2420 -0.0895
 1361ntf    nn311223   4.145   2.460   0.451 -0.4144  0.5227 -0.6931
 1361ntf    sn211224   4.216   2.584   0.517  0.0844  0.0905 -0.4094
 1361ntf    cn111225   4.212   2.698   0.376  0.0020  0.2985 -0.2392
 1361ntf    fn411226   3.987   2.241   0.330  0.2506  0.3738 -0.4251
 1361ntf    fn411227   4.068   2.365   0.180  0.8329  0.9785 -0.3472
 1361ntf    fn411228   4.124   2.160   0.208  0.0159  0.1867 -0.3639
 1361ntf    on511229   4.242   2.230   0.485 -0.2475  0.4055  0.0696
 1361ntf    on511230   4.329   2.368   0.299  0.4645 -0.2050  0.7304
 1361ntf    on511231   4.133   2.650   0.615 -0.0944 -0.5691 -0.1120
 1361ntf    on511232   4.353   2.561   0.557 -0.2168  0.2698  0.7680
 1361ntf    fn411233   4.292   2.666   0.276  0.4391  0.1487  0.1561
 1361ntf    fn411234   4.248   2.821   0.408 -0.2785  0.2377  0.3279
 1361ntf    fn411235   4.092   2.704   0.320 -0.0718  0.3356 -0.0766
 1362ntf    cn111236   3.869   1.807   2.385 -0.3398  0.2027 -0.4232
 1362ntf    sn211237   4.023   1.832   2.291  0.2176  0.0996  0.4414
 1362ntf    nn311238   4.009   1.710   2.193  0.3057  0.4042  0.0484
 1362ntf    sn211239   4.018   1.700   2.036  0.4063 -0.0504  0.0810
 1362ntf    cn111240   4.177   1.612   2.034  0.3815 -0.0946  0.0786
 1362ntf    fn411241   3.760   1.823   2.313 -0.1401  1.1705 -0.5282
 1362ntf    fn411242   3.873   1.688   2.442 -0.5556  0.3998  0.0180
 1362ntf    fn411243   3.854   1.900   2.478  0.0657 -0.0714 -0.0793
 1362ntf    on511244   3.994   1.962   2.236 -0.0426 -0.3862 -0.5977
 1362ntf    on511245   4.120   1.819   2.396  0.4250  0.0447  0.2446
 1362ntf    on511246   3.924   1.607   1.979  0.0038 -0.0634  0.7505
 1362ntf    on511247   4.043   1.821   1.962 -0.3845 -0.3086 -0.6119
 1362ntf    fn411248   4.269   1.690   2.088  0.3485 -0.0378  0.0519
 1362ntf    fn411249   4.214   1.586   1.909 -0.6105 -0.3061 -0.1810
 1362ntf    fn411250   4.172   1.492   2.089  0.4195 -0.2782 -0.3163
 1363ntf    cn111251   6.602   1.111   5.931 -0.5997 -0.2544 -0.2361
 1363ntf    sn211252   6.729   0.987   5.966 -0.4666 -0.0969 -0.1595
 1363ntf    nn311253   6.853   1.036   5.882 -0.4408 -0.2539 -0.2139
 1363ntf    sn211254   6.902   1.006   5.736  0.0631 -0.0448 -0.0881
 1363ntf    cn111255   6.999   0.853   5.756 -0.5150 -0.4263 -0.1894
 1363ntf    fn411256   6.481   1.073   5.970 -0.3636 -0.1796  0.5818
 1363ntf    fn411257   6.625   1.226   5.992 -0.4069 -0.1871 -0.4320
 1363ntf    fn411258   6.586   1.142   5.803 -0.0827 -0.0914 -0.2617
 1363ntf    on511259   6.741   1.010   6.107 -0.0101 -0.0147 -0.2085
 1363ntf    on511260   6.683   0.857   5.922  0.2380 -0.5014  0.2713
 1363ntf    on511261   6.803   0.970   5.637  0.5432 -0.5750 -0.3846
 1363ntf    on511262   6.994   1.110   5.699 -0.3782  0.2203 -0.4533
 1363ntf    fn411263   7.114   0.883   5.813 -0.8193 -0.4838  0.4728
 1363ntf    fn411264   7.022   0.781   5.648  0.0900 -0.1882 -0.2186
 1363ntf    fn411265   6.926   0.777   5.837 -0.7969  0.2140  0.1693
 1364ntf    cn111266   2.152   4.433   0.481 -0.3084 -0.0959  0.1762
 1364ntf    sn211267   2.320   4.498   0.454 -0.0834 -0.7463 -0.0320
 1364ntf    nn311268   2.360   4.415   0.328 -0.0456 -0.3543 -0.2785
 1364ntf    sn211269   2.500   4.359   0.285  0.1836 -0.0419  0.0526
 1364ntf    cn111270   2.558   4.502   0.189  0.2204 -0.1310 -0.0588
 1364ntf    fn411271   2.156   4.301   0.493 -0.3798 -0.1268 -0.1215
 1364ntf    fn411272   2.090   4.475   0.589 -0.4975 -0.1576  0.0925
 1364ntf    fn411273   2.071   4.453   0.378  0.2956  0.0433 -0.2831
 1364ntf    on511274   2.292   4.635   0.417 -0.1960 -0.8998 -0.5127
 1364ntf    on511275   2.390   4.479   0.579 -0.1771  0.5592  0.2340
 1364ntf    on511276   2.603   4.351   0.385  0.4208 -0.0429 -0.1886
 1364ntf    on511277   2.491   4.252   0.188  0.5340 -0.0841  0.0662
 1364ntf    fn411278   2.557   4.616   0.255 -0.4146 -0.0801 -0.1589
 1364ntf    fn411279   2.484   4.515   0.080 -0.0168  0.0324  0.1243
 1364ntf    fn411280   2.673   4.480   0.127 -0.0533 -0.8275 -0.3316
 1365ntf    cn111281   5.193   4.216   2.325  0.2198 -0.1678 -0.1679
 1365ntf    sn211282   5.063   4.331   2.271  0.0413 -0.4049 -0.2488
 1365ntf    nn311283   4.965   4.342   2.393  0.4677 -0.0504  0.0676
 1365ntf    sn211284   4.809   4.360   2.383  0.5466  0.3572 -0.4987
 1365ntf    cn111285   4.756   4.186   2.378  0.4533  0.3741 -0.0910
 1365ntf    fn411286   5.267   4.262   2.424  0.5601 -0.3968 -0.3149
 1365ntf    fn411287   5.142   4.100   2.364  0.3113 -0.0134  0.4153
 1365ntf    fn411288   5.276   4.172   2.231  0.0558 -0.4802 -0.1691
 1365ntf    on511289   5.142   4.450   2.249  0.4110 -0.6748 -0.3969
 1365ntf    on511290   5.010   4.264   2.154 -0.1306 -0.4547 -0.1427
 1365ntf    on511291   4.744   4.402   2.504  0.8978 -0.3125 -0.0716
 1365ntf    on511292   4.751   4.416   2.263 -0.5098 -0.3566 -0.3364
 1365ntf    fn411293   4.790   4.129   2.263 -0.1089  0.1266 -0.1418
 1365ntf    fn411294   4.624   4.193   2.371  0.4423  0.2219 -0.0449
 1365ntf    fn411295   4.795   4.104   2.474  0.2383  0.0200 -0.3022
 1366ntf    cn111296   1.934   2.228   6.036  0.5351 -0.0915 -0.2470
 1366ntf    sn211297   2.000   2.349   6.156 -0.0398 -0.2332  0.2168
 1366ntf    nn311298   1.890   2.318   6.263  0.0464 -0.6360  0.1912
 1366ntf    sn211299   1.896   2.262   6.410 -0.3291 -0.3275  0.3272
 1366ntf    cn111300   1.833   2.093   6.382  0.1326 -0.3723 -0.4732
 1366ntf    fn411301   1.820   2.265   5.980  0.5090  0.0810 -0.0810
 1366ntf    fn411302   2.014   2.201   5.934  0.2367  0.9263 -0.7718
 1366ntf    fn411303   1.916   2.112   6.096  0.3814  0.0159 -0.0816
 1366ntf    on511304   2.135   2.312   6.190  0.3134  0.2483 -0.6072
 1366ntf    on511305   1.978   2.475   6.089 -0.0451 -0.2112  0.2603
 1366ntf    on511306   2.033   2.237   6.446 -0.0557  0.2522 -0.2805
 1366ntf    on511307   1.796   2.309   6.503 -0.5322 -0.3525  0.1239
 1366ntf    fn411308   1.902   2.030   6.288  0.6232  0.5813 -0.7667
 1366ntf    fn411309   1.709   2.099   6.336  0.1117  0.5436 -0.3194
 1366ntf    fn411310   1.841   2.020   6.491  1.0874  0.6285  0.1445
 1367ntf    cn111311   6.226   5.622   2.942  0.3799  0.1224 -0.5270
 1367ntf    sn211312   6.099   5.504   2.996  0.5302  0.2326  0.0753
 1367ntf    nn311313   6.202   5.387   3.017  0.2668  0.0170  0.1773
 1367ntf    sn211314   6.224   5.304   3.148  0.1130 -0.1686  0.0869
 1367ntf    cn111315   6.226   5.422   3.286  0.2311 -0.0324 -0.0305
 1367ntf    fn411316   6.173   5.717   2.866 -0.9051 -0.3461 -0.2468
 1367ntf    fn411317   6.300   5.673   3.039 -0.2666  0.2943 -0.1178
 1367ntf    fn411318   6.310   5.562   2.860  0.3079 -0.3086 -0.2874
 1367ntf    on511319   6.048   5.556   3.121  0.0161  0.7691 -0.3530
 1367ntf    on511320   6.011   5.492   2.882 -0.0024 -0.0058  0.5066
 1367ntf    on511321   6.130   5.201   3.185  0.1102 -0.3673 -0.4636
 1367ntf    on511322   6.361   5.260   3.156  0.1998  0.0339 -0.2777
 1367ntf    fn411323   6.106   5.432   3.341 -0.0273 -0.5253 -0.5047
 1367ntf    fn411324   6.270   5.535   3.233  0.0242  0.0084 -0.1152
 1367ntf    fn411325   6.310   5.381   3.380  0.4891  0.0952 -0.2031
 1368ntf    cn111326   6.026   2.795   0.861  0.1720  0.2142  0.1337
 1368ntf    sn211327   6.171   2.710   0.931 -0.0112 -0.1305  0.0890
 1368ntf    nn311328   6.260   2.835   0.960 -0.2754  0.0602  0.0850
 1368ntf    sn211329   6.339   2.893   1.083 -0.0811  0.2098 -0.1104
 1368ntf    cn111330   6.211   2.990   1.168 -0.0132 -0.0647  0.3036
 1368ntf    fn411331   5.953   2.870   0.942  0.4442  0.9076 -0.2485
 1368ntf    fn411332   6.053   2.877   0.760 -0.3351  0.2693  0.0437
 1368ntf    fn411333   5.944   2.709   0.804 -0.2333  0.5299  0.2380
 1368ntf    on511334   6.122   2.647   1.052 -0.5032  0.0538 -0.0092
 1368ntf    on511335   6.216   2.635   0.816  0.3481  0.7664 -0.3560
 1368ntf    on511336   6.386   2.808   1.189 -0.0170  0.5054  0.1013
 1368ntf    on511337   6.429   3.000   1.045 -0.3234  0.3986 -0.1555
 1368ntf    fn411338   6.123   2.908   1.225 -0.0411 -0.3271 -0.1151
 1368ntf    fn411339   6.156   3.077   1.085  0.5200  0.3477  0.3772
 1368ntf    fn411340   6.261   3.057   1.271  0.1308 -0.5219  0.5389
 1369ntf    cn111341   2.420   0.907   6.055  0.0739  0.8485  0.1493
 1369ntf    sn211342   2.316   0.789   6.146  0.3633  0.3599 -0.1491
 1369ntf    nn311343   2.294   0.684   6.031  0.0275 -0.0212  0.2615
 1369ntf    sn211344   2.153   0.644   5.973  0.0214  0.6882 -0.2274
 1369ntf    cn111345   2.194   0.586   5.806 -0.0249  0.0858 -0.0303
 1369ntf    fn411346   2.441   1.017   6.127  0.4077  0.8199  0.1008
 1369ntf    fn411347   2.545   0.867   6.035 -0.2909 -0.1851 -0.0784
 1369ntf    fn411348   2.373   0.947   5.938  0.3471  0.1300 -0.2111
 1369ntf    on511349   2.402   0.745   6.253 -0.4610 -0.2719  0.2584
 1369ntf    on511350   2.203   0.872   6.179  0.0308 -0.1284 -0.0517
 1369ntf    on511351   2.099   0.524   6.032  1.0090  0.4747  0.2640
 1369ntf    on511352   2.068   0.757   5.945 -0.0644  0.6047 -0.3004
 1369ntf    fn411353   2.246   0.464   5.797 -0.2945 -0.0323 -0.0041
 1369ntf    fn411354   2.288   0.663   5.754  0.0469  0.0941  0.1126
 1369ntf    fn411355   2.096   0.589   5.716  0.1454  0.6486 -0.1955
 1370ntf    cn111356   3.987   4.945   2.137  0.3628 -0.1444 -0.2030
 1370ntf    sn211357   4.159   4.927   2.081  0.3449 -0.0705 -0.2816
 1370ntf    nn311358   4.141   4.973   1.932 -0.3564  0.1125 -0.1397
 1370ntf    sn211359   4.095   4.891   1.806  0.3121 -0.1790 -0.1968
 1370ntf    cn111360   4.261   4.824   1.776  0.5928  0.4263  0.0050
 1370ntf    fn411361   3.966   4.930   2.267  0.0013  0.6640 -0.1627
 1370ntf    fn411362   3.936   5.062   2.103  0.0176 -0.3033 -0.2275
 1370ntf    fn411363   3.906   4.859   2.078  0.1069 -0.2237  0.2637
 1370ntf    on511364   4.245   5.003   2.167 -0.2264  0.1606  0.0887
 1370ntf    on511365   4.170   4.783   2.093 -0.1035 -0.0864 -0.0445
 1370ntf    on511366   4.003   4.783   1.834 -0.5542  0.4776 -0.4538
 1370ntf    on511367   4.066   4.968   1.688  0.3800  0.3737  0.1448
 1370ntf    fn411368   4.270   4.749   1.668 -0.0806  0.4877 -0.0971
 1370ntf    fn411369   4.314   4.759   1.879 -0.1303  0.0018  0.1078
 1370ntf    fn411370   4.341   4.927   1.752  0.9569  0.1965  0.2127
 1371ntf    cn111371   2.218   4.086   6.227  0.1973 -0.3209  0.2203
 1371ntf    sn211372   2.272   3.949   6.120  0.0202 -0.0830 -0.1779
 1371ntf    nn311373   2.278   3.833   6.225 -0.4383  0.1255  0.0832
 1371ntf    sn211374   2.400   3.794   6.316 -0.0412  0.0387 -0.4809
 1371ntf    cn111375   2.509   3.703   6.203  0.4241 -0.1393  0.1071
 1371ntf    fn411376   2.086   4.091   6.233  0.2237  0.5190  0.3012
 1371ntf    fn411377   2.248   4.064   6.354 -0.1947  0.3180  0.4294
 1371ntf    fn411378   2.258   4.207   6.192  1.1133 -0.5581  0.4223
 1371ntf    on511379   2.167   3.936   6.022 -0.1808 -0.4904  0.0885
 1371ntf    on511380   2.399   3.999   6.073 -0.0548  0.0158 -0.2771
 1371ntf    on511381   2.476   3.910   6.355 -0.0131 -0.0834 -0.1619
 1371ntf    on511382   2.363   3.694   6.414 -0.2971  0.1928 -0.4189
 1371ntf    fn411383   2.483   3.574   6.187 -0.5610  0.1612 -0.7865
 1371ntf    fn411384   2.639   3.715   6.225  0.3732 -0.2633  0.4949
 1371ntf    fn411385   2.500   3.752   6.081  1.1372 -0.3326 -0.0308
 1372ntf    cn111386   6.025   2.116   3.430 -0.5486 -0.0739 -0.1634
 1372ntf    sn211387   6.207   2.126   3.442 -0.5384  0.0068 -0.3712
 1372ntf    nn311388   6.222   2.280   3.463 -0.2917 -0.1509  0.6426
 1372ntf    sn211389   6.347   2.359   3.517  0.1081 -0.0107 -0.4581
 1372ntf    cn111390   6.286   2.379   3.688  0.0676 -0.2152 -0.4487
 1372ntf    fn411391   5.958   2.125   3.544 -0.0898  0.2389  0.0890
 1372ntf    fn411392   5.974   2.208   3.349 -0.3780  0.5781  0.4518
 1372ntf    fn411393   5.990   2.004   3.369 -0.2313 -0.2738  0.0197
 1372ntf    on511394   6.232   2.043   3.557 -0.5374  0.3196 -0.1468
 1372ntf    on511395   6.241   2.087   3.308 -0.5482 -0.1577 -0.3266
 1372ntf    on511396   6.473   2.291   3.534 -0.2373 -0.5673 -0.0637
 1372ntf    on511397   6.354   2.491   3.460 -0.4189  0.1307 -0.2014
 1372ntf    fn411398   6.165   2.430   3.691  0.2992  0.3183 -0.1667
 1372ntf    fn411399   6.358   2.457   3.766 -0.6670 -0.5148  0.5474
 1372ntf    fn411400   6.277   2.264   3.754 -0.5307 -0.0949 -0.3163
 1373ntf    cn111401   0.167   4.291   1.960 -0.1306  0.0139  0.0770
 1373ntf    sn211402   0.040   4.406   2.020 -0.3718 -0.0758 -0.2584
 1373ntf    nn311403  -0.069   4.307   2.075  0.0549 -0.2396  0.3028
 1373ntf    sn211404  -0.225   4.303   2.055  0.1108 -0.0516 -0.1668
 1373ntf    cn111405  -0.283   4.272   2.224  0.1243  0.1811 -0.1189
 1373ntf    fn411406   0.122   4.195   1.881  0.0589  0.0933 -0.1302
 1373ntf    fn411407   0.267   4.346   1.893  0.1607 -0.0705  0.4367
 1373ntf    fn411408   0.223   4.229   2.063  0.5740  0.3415 -0.1043
 1373ntf    on511409   0.103   4.480   2.126 -0.4573  0.4184 -0.5504
 1373ntf    on511410   0.019   4.474   1.895 -0.7361 -0.0157 -0.1658
 1373ntf    on511411  -0.285   4.427   2.012 -0.0462  0.1618  0.6628
 1373ntf    on511412  -0.261   4.180   1.989 -0.1663  0.2023 -0.4935
 1373ntf    fn411413  -0.280   4.379   2.301  0.1591 -0.0792  0.2417
 1373ntf    fn411414  -0.218   4.175   2.286 -0.5672 -0.3085 -0.1453
 1373ntf    fn411415  -0.410   4.235   2.227  0.2752 -0.3629 -0.3422
 1374ntf    cn111416   1.242   5.863   0.585  0.1902 -0.2465 -0.2826
 1374ntf    sn211417   1.350   5.752   0.490  0.0761 -0.2978 -0.3519
 1374ntf    nn311418   1.325   5.809   0.346  0.2188  0.5719 -0.0364
 1374ntf    sn211419   1.218   5.759   0.243  0.3515 -0.0763  0.1370
 1374ntf    cn111420   1.222   5.905   0.135  0.0422  0.0703  0.3253
 1374ntf    fn411421   1.117   5.846   0.546  0.0370 -0.8661  0.4535
 1374ntf    fn411422   1.238   5.830   0.713  0.1405  0.2584 -0.1505
 1374ntf    fn411423   1.277   5.990   0.576 -0.5135 -0.0262  0.0421
 1374ntf    on511424   1.479   5.787   0.544 -0.5165  0.1935  0.7849
 1374ntf    on511425   1.287   5.625   0.520 -0.2286 -0.0264  0.1809
 1374ntf    on511426   1.251   5.649   0.155  0.1425 -0.4722  0.5521
 1374ntf    on511427   1.085   5.765   0.296  0.3284  0.7687 -0.0088
 1374ntf    fn411428   1.137   5.898   0.035  0.7249  0.9060 -0.3388
 1374ntf    fn411429   1.340   5.936   0.083 -0.2497  0.8334  0.0959
 1374ntf    fn411430   1.182   6.011   0.204 -0.2498  0.2089 -0.0572
 1375ntf    cn111431   5.054   3.812   1.646  0.3618  0.2374  0.4419
 1375ntf    sn211432   5.226   3.809   1.588  0.1476 -0.0905 -0.1919
 1375ntf    nn311433   5.296   3.754   1.717  0.3307 -0.1733 -0.3257
 1375ntf    sn211434   5.307   3.605   1.767  0.2623 -0.0847 -0.0440
 1375ntf    cn111435   5.476   3.576   1.708  0.2522  0.0010 -0.1168
 1375ntf    fn411436   5.028   3.690   1.690  0.3258 -0.1143 -0.5284
 1375ntf    fn411437   5.040   3.904   1.740  0.7247  0.1659  0.5686
 1375ntf    fn411438   4.970   3.853   1.552 -0.0204 -0.4293  0.4861
 1375ntf    on511439   5.233   3.721   1.474 -0.4301 -0.1656 -0.1715
 1375ntf    on511440   5.260   3.946   1.557  0.0968 -0.2226 -0.8453
 1375ntf    on511441   5.316   3.609   1.911  0.0508 -0.2162 -0.0274
 1375ntf    on511442   5.226   3.504   1.704  0.1031 -0.1802  0.3100
 1375ntf    fn411443   5.553   3.681   1.734 -0.2023  0.3783 -0.2762
 1375ntf    fn411444   5.488   3.547   1.580 -0.1729 -0.1737 -0.1171
 1375ntf    fn411445   5.533   3.477   1.775  0.6589  0.1453 -0.2456
 1376ntf    cn111446   0.688   0.668   5.432 -0.1160 -0.0773 -0.4540
 1376ntf    sn211447   0.709   0.530   5.316  0.2521  0.1386 -0.6430
 1376ntf    nn311448   0.565   0.553   5.258  0.0310  0.1315 -0.0965
 1376ntf    sn211449   0.495   0.459   5.154 -0.0726 -0.0299  0.1173
 1376ntf    cn111450   0.515   0.557   5.002  0.2332 -0.1634  0.0694
 1376ntf    fn411451   0.647   0.782   5.378  0.5427  0.6362  0.5119
 1376ntf    fn411452   0.608   0.643   5.535  0.1909  0.3019 -0.1176
 1376ntf    fn411453   0.806   0.698   5.483 -0.3150 -0.1888  0.0796
 1376ntf    on511454   0.817   0.570   5.228  0.2589  0.5986 -0.4286
 1376ntf    on511455   0.731   0.420   5.406  0.4514  0.4185 -0.3505
 1376ntf    on511456   0.565   0.336   5.124 -0.6067 -0.3123  0.0202
 1376ntf    on511457   0.352   0.452   5.164 -0.0857  0.1921  0.0896
 1376ntf    fn411458   0.645   0.579   4.987  0.0808  0.6237 -0.1652
 1376ntf    fn411459   0.467   0.680   4.994  0.7670 -0.0026 -0.8259
 1376ntf    fn411460   0.465   0.498   4.895  0.1497 -0.4971  0.2912
 1377ntf    cn111461   6.803   6.611   3.527  0.1047  0.2875 -0.1216
 1377ntf    sn211462   6.689   6.677   3.401 -0.1862  0.0374  0.0111
 1377ntf    nn311463   6.682   6.550   3.308  0.0985  0.2150 -0.2551
 1377ntf    sn211464   6.602   6.418   3.338  0.0649  0.3150  0.1001
 1377ntf    cn111465   6.507   6.392   3.186  0.1169 -0.2252  0.1606
 1377ntf    fn411466   6.864   6.710   3.590 -0.5039  0.6076 -0.0266
 1377ntf    fn411467   6.753   6.536   3.623 -0.0431 -0.5703 -0.8589
 1377ntf    fn411468   6.903   6.545   3.471 -0.1456 -0.1655 -0.0316
 1377ntf    on511469   6.578   6.712   3.486  0.5088  0.1102  0.9042
 1377ntf    on511470   6.766   6.783   3.341  0.0566 -0.0293  0.2002
 1377ntf    on511471   6.694   6.307   3.337 -0.1466  0.1410 -0.0792
 1377ntf    on511472   6.503   6.422   3.444 -0.0062  0.1526  0.0398
 1377ntf    fn411473   6.445   6.275   3.192  0.2358 -0.2803  0.3360
 1377ntf    fn411474   6.587   6.391   3.080 -0.2420  0.4916 -0.1248
 1377ntf    fn411475   6.421   6.487   3.153 -0.0438 -0.6585 -0.7187
 1378ntf    cn111476   1.395   5.847   6.295  0.0111  0.0066  0.3459
 1378ntf    sn211477   1.492   5.701   6.343  0.0175 -0.2078 -0.3040
 1378ntf    nn311478   1.571   5.666   6.212  0.1302  0.2545 -0.3635
 1378ntf    sn211479   1.554   5.567   6.091  0.3416  0.2075 -0.3570
 1378ntf    cn111480   1.580   5.675   5.948 -0.1341  0.2865 -0.3876
 1378ntf    fn411481   1.318   5.884   6.395  0.1337  0.7248  0.1820
 1378ntf    fn411482   1.468   5.953   6.265  0.6102 -0.2779  0.7704
 1378ntf    fn411483   1.319   5.825   6.189  0.3797  0.2401  0.0258
 1378ntf    on511484   1.572   5.769   6.442 -0.0056  1.0142 -1.0973
 1378ntf    on511485   1.393   5.607   6.389 -0.1932  0.2148  0.1157
 1378ntf    on511486   1.650   5.459   6.095  0.1722  0.0520 -0.4378
 1378ntf    on511487   1.416   5.527   6.071  0.6373 -0.8169 -0.4222
 1378ntf    fn411488   1.697   5.738   5.957  0.0470 -0.1442  0.3427
 1378ntf    fn411489   1.490   5.771   5.937  0.2122  0.6684  0.0813
 1378ntf    fn411490   1.578   5.605   5.836 -0.4514 -0.3608  0.0164
 1379ntf    cn111491   1.092   2.593   6.560 -0.2193 -0.0654  0.6353
 1379ntf    sn211492   1.205   2.646   6.693  0.2513  0.1335  0.1615
 1379ntf    nn311493   1.290   2.758   6.624 -0.1341  0.2872 -0.0673
 1379ntf    sn211494   1.359   2.887   6.681 -0.3877  0.2732  0.2823
 1379ntf    cn111495   1.523   2.822   6.726 -0.4332  0.1628  0.2896
 1379ntf    fn411496   1.042   2.696   6.494 -0.1991 -0.2072  0.3946
 1379ntf    fn411497   1.157   2.513   6.476 -0.5655  0.3863 -0.0724
 1379ntf    fn411498   0.993   2.520   6.609 -0.3656 -0.6763 -0.5382
 1379ntf    on511499   1.112   2.691   6.793 -0.2970  0.3219 -0.4228
 1379ntf    on511500   1.277   2.522   6.712  0.1109  0.0203 -0.0286
 1379ntf    on511501   1.391   2.970   6.566  0.3047 -0.1604  0.1579
 1379ntf    on511502   1.318   2.955   6.800  0.7594  0.2977  0.6815
 1379ntf    fn411503   1.516   2.734   6.824  0.2180  0.0002  0.1967
 1379ntf    fn411504   1.592   2.920   6.783  0.2042  0.0843 -0.3357
 1379ntf    fn411505   1.593   2.771   6.626 -0.5249  0.5387  0.0287
 1380ntf    cn111506   1.360   0.393   6.575  0.3360  0.3648  0.4154
 1380ntf    sn211507   1.423   0.224   6.559  0.0674  0.3313 -0.3256
 1380ntf    nn311508   1.578   0.250   6.552  0.1511 -0.0099  0.2239
 1380ntf    sn211509   1.669   0.300   6.435  0.0220  0.1646  0.1971
 1380ntf    cn111510   1.822   0.206   6.466  0.0949  0.2211  0.0130
 1380ntf    fn411511   1.228   0.396   6.576  0.3336  0.2729  0.3393
 1380ntf    fn411512   1.388   0.447   6.693  0.4058 -0.2165  0.6675
 1380ntf    fn411513   1.393   0.473   6.475  0.4017 -0.4585 -0.2261
 1380ntf    on511514   1.376   0.144   6.669  0.2905  0.1291 -0.3761
 1380ntf    on511515   1.364   0.185   6.433  0.2341  0.1934 -0.3626
 1380ntf    on511516   1.625   0.260   6.304  0.2955  0.1754  0.0998
 1380ntf    on511517   1.708   0.437   6.458 -0.4434  0.4114 -0.4533
 1380ntf    fn411518   1.910   0.247   6.377  0.2904 -0.0402  0.0831
 1380ntf    fn411519   1.792   0.079   6.444 -0.1751  0.3355 -0.2899
 1380ntf    fn411520   1.868   0.214   6.590 -0.7657  0.4222  0.3241
 1381ntf    cn111521   5.606   4.680   4.610  0.1533  0.1373 -0.5802
 1381ntf    sn211522   5.773   4.699   4.541  0.2957 -0.2862 -0.3556
 1381ntf    nn311523   5.842   4.567   4.590 -0.6582 -0.4563  0.5627
 1381ntf    sn211524   5.869   4.426   4.527  0.0390 -0.1565  0.1783
 1381ntf    cn111525   6.046   4.432   4.488  0.0208 -0.0982  0.1048
 1381ntf    fn411526   5.527   4.780   4.572 -0.1874  0.5019  1.0023
 1381ntf    fn411527   5.546   4.566   4.581 -0.1427  0.1099  0.1318
 1381ntf    fn411528   5.615   4.677   4.742  0.3743  0.4689 -0.5877
 1381ntf    on511529   5.743   4.718   4.401 -0.4049 -0.2884 -0.2102
 1381ntf    on511530   5.830   4.807   4.618 -0.5545  0.1058 -0.2688
 1381ntf    on511531   5.853   4.316   4.619  0.0785 -0.5222 -0.2503
 1381ntf    on511532   5.800   4.403   4.402 -0.1920 -0.1105  0.2952
 1381ntf    fn411533   6.069   4.488   4.371  0.1220  0.1749  0.2527
 1381ntf    fn411534   6.103   4.313   4.497 -0.3057 -0.2726 -0.1522
 1381ntf    fn411535   6.115   4.497   4.581  0.0665 -0.3644  0.2586
 1382ntf    cn111536   1.276   0.533   2.818 -0.0278 -0.2697 -0.2588
 1382ntf    sn211537   1.115   0.580   2.748  0.0895  0.2732 -0.1741
 1382ntf    nn311538   1.063   0.679   2.858  0.1532  0.2361 -0.1099
 1382ntf    sn211539   0.978   0.655   2.988  0.1755  0.2454 -0.0940
 1382ntf    cn111540   0.815   0.672   2.909  0.0928  0.2357  0.0739
 1382ntf    fn411541   1.343   0.644   2.845 -0.5092  0.0136 -0.2168
 1382ntf    fn411542   1.261   0.470   2.934 -0.0364  0.1956 -0.0037
 1382ntf    fn411543   1.349   0.453   2.742  0.0581 -0.3596 -0.0844
 1382ntf    on511544   1.142   0.659   2.631  0.5310 -0.0602 -0.2977
 1382ntf    on511545   1.047   0.453   2.734  0.2840  0.0066  1.1630
 1382ntf    on511546   0.988   0.523   3.046  0.1236  0.2961  0.0304
 1382ntf    on511547   0.992   0.778   3.061  0.5431 -0.0549  0.3494
 1382ntf    fn411548   0.797   0.794   2.863 -0.0951  0.2945  0.3004
 1382ntf    fn411549   0.716   0.643   2.992 -0.1202 -0.3325 -0.3690
 1382ntf    fn411550   0.806   0.599   2.799  0.1383  0.1072  0.1550
 1383ntf    cn111551   2.738   4.550   4.507 -0.3744 -0.1162  0.0589
 1383ntf    sn211552   2.617   4.429   4.569  0.0589 -0.4807  0.2025
 1383ntf    nn311553   2.546   4.392   4.435 -0.2501  0.2172  0.1642
 1383ntf    sn211554   2.444   4.480   4.353 -0.1084  0.3092  0.0866
 1383ntf    cn111555   2.278   4.425   4.401 -0.1261 -0.1284 -0.4625
 1383ntf    fn411556   2.690   4.657   4.446 -0.1925  0.0753  0.2535
 1383ntf    fn411557   2.811   4.590   4.609  0.2421 -0.1069 -0.3819
 1383ntf    fn411558   2.818   4.492   4.419 -0.3135 -0.0162  0.0490
 1383ntf    on511559   2.699   4.323   4.621  0.2802  0.1318  1.1325
 1383ntf    on511560   2.540   4.503   4.667  0.2559 -0.5732  0.4294
 1383ntf    on511561   2.440   4.621   4.381  0.2281  0.2224  0.5906
 1383ntf    on511562   2.441   4.434   4.217  0.0115  0.1297  0.1434
 1383ntf    fn411563   2.263   4.293   4.405 -0.2264 -0.1057  0.0856
 1383ntf    fn411564   2.183   4.470   4.320  0.1210  0.6206 -0.3423
 1383ntf    fn411565   2.238   4.461   4.522  0.0045 -0.0913 -0.4302
 1384ntf    cn111566   1.719   2.159   3.049  0.4910  0.0716  0.1110
 1384ntf    sn211567   1.669   1.995   2.990  0.1670  0.2171 -0.0243
 1384ntf    nn311568   1.754   1.894   3.076 -0.2753  0.0247  0.1906
 1384ntf    sn211569   1.819   1.753   3.052 -0.0322  0.1994 -0.1869
 1384ntf    cn111570   1.788   1.677   3.214 -0.2457  0.2748 -0.1910
 1384ntf    fn411571   1.845   2.194   3.032  0.4544  0.0721 -0.1555
 1384ntf    fn411572   1.639   2.252   3.000 -0.4312 -0.2061  1.0424
 1384ntf    fn411573   1.707   2.175   3.180  0.2685 -0.1940  0.1237
 1384ntf    on511574   1.528   1.990   3.022  0.1923  0.2486  0.0905
 1384ntf    on511575   1.708   2.019   2.853 -0.1514  0.2253 -0.1152
 1384ntf    on511576   1.746   1.658   2.972  0.9566 -0.7121 -0.0244
 1384ntf    on511577   1.962   1.744   3.035 -0.0075  0.4731 -0.1273
 1384ntf    fn411578   1.829   1.757   3.311 -0.0713  0.2557 -0.2490
 1384ntf    fn411579   1.849   1.560   3.218 -0.0145  0.3888 -0.3660
 1384ntf    fn411580   1.657   1.660   3.221 -0.1465 -0.5051 -0.1720
 1385ntf    cn111581   2.659   0.295   2.441 -0.4659 -0.0935  0.1034
 1385ntf    sn211582   2.758   0.215   2.312 -0.1365  0.2146  0.1667
 1385ntf    nn311583   2.695   0.295   2.192  0.2390 -0.2502 -0.3476
 1385ntf    sn211584   2.587   0.240   2.092  0.0026 -0.0462 -0.2066
 1385ntf    cn111585   2.513   0.393   2.026  0.2623  0.1551 -0.0344
 1385ntf    fn411586   2.669   0.427   2.438  0.8743 -0.1921 -0.0056
 1385ntf    fn411587   2.532   0.256   2.433 -0.5396  0.1327  0.1696
 1385ntf    fn411588   2.699   0.261   2.563  0.2101  0.2613 -0.0161
 1385ntf    on511589   2.894   0.248   2.349  0.0012  0.1740 -0.2863
 1385ntf    on511590   2.718   0.078   2.330 -0.0405  0.2084  0.3359
 1385ntf    on511591   2.644   0.178   1.975  0.2656  0.3679 -0.3012
 1385ntf    on511592   2.473   0.181   2.157 -0.0767  0.9150  0.5524
 1385ntf    fn411593   2.451   0.389   1.909 -0.4382  0.5306  0.3203
 1385ntf    fn411594   2.603   0.489   2.011  0.2666  0.1004 -0.3737
 1385ntf    fn411595   2.427   0.445   2.111  0.2540 -0.5251  0.3815
 1386ntf    cn111596   1.306   3.374   3.149  0.2311 -0.1157 -0.0851
 1386ntf    sn211597   1.218   3.531   3.177  0.2332 -0.1581  0.1616
 1386ntf    nn311598   1.272   3.609   3.052  0.0281 -0.0207  0.1584
 1386ntf    sn211599   1.298   3.762   3.024  0.0394 -0.0116  0.2197
 1386ntf    cn111600   1.477   3.769   3.055 -0.0174  0.4570  0.4468
 1386ntf    fn411601   1.291   3.291   3.250 -0.3008 -0.3661 -0.3666
 1386ntf    fn411602   1.267   3.300   3.047  0.3232 -0.5234  0.1745
 1386ntf    fn411603   1.437   3.387   3.132  0.2397  0.0336  0.0916
 1386ntf    on511604   1.079   3.494   3.166  0.0797  0.3653  0.3273
 1386ntf    on511605   1.274   3.582   3.299  0.1234  0.3357  0.0072
 1386ntf    on511606   1.297   3.795   2.884  0.5645  0.3523  0.3004
 1386ntf    on511607   1.228   3.848   3.117  0.8898  0.1525  0.7189
 1386ntf    fn411608   1.513   3.741   3.179 -0.1986 -0.0677  0.3836
 1386ntf    fn411609   1.520   3.890   3.022 -0.0949  0.3432 -0.0818
 1386ntf    fn411610   1.534   3.677   2.979 -0.3646  0.3531  0.3088
 1387ntf    cn111611   6.001   3.687   4.192 -0.0072 -0.0302 -0.3463
 1387ntf    sn211612   5.906   3.589   4.073  0.2322 -0.0851 -0.4903
 1387ntf    nn311613   5.760   3.606   4.127  0.3491 -0.1859 -0.1389
 1387ntf    sn211614   5.651   3.697   4.061  0.0142 -0.2292  0.3497
 1387ntf    cn111615   5.599   3.584   3.928  0.1601  0.1490 -0.0327
 1387ntf    fn411616   5.976   3.817   4.187 -0.0461  0.0110  0.5848
 1387ntf    fn411617   5.962   3.660   4.316 -0.2992  0.4281 -0.3352
 1387ntf    fn411618   6.131   3.665   4.183  0.0874  0.5258 -0.3957
 1387ntf    on511619   5.934   3.653   3.947 -0.0727 -0.1552 -0.5951
 1387ntf    on511620   5.955   3.455   4.096 -0.1211 -0.0628  0.4181
 1387ntf    on511621   5.531   3.711   4.140  0.1818  0.1096  0.5460
 1387ntf    on511622   5.695   3.818   3.996 -0.4734 -0.3176 -0.1582
 1387ntf    fn411623   5.585   3.458   3.966  0.1142  0.1480 -0.0528
 1387ntf    fn411624   5.678   3.589   3.822 -0.3873 -0.3851 -0.4699
 1387ntf    fn411625   5.485   3.621   3.874  0.1831  0.4702  0.1356
 1388ntf    cn111626   1.996   0.056   3.460  0.3084 -0.2705 -0.3991
 1388ntf    sn211627   2.133  -0.025   3.548  0.0982 -0.2638 -0.0597
 1388ntf    nn311628   2.061  -0.105   3.662 -0.9618  0.5007 -0.1821
 1388ntf    sn211629   2.050  -0.261   3.672  0.1055  0.4120 -0.2556
 1388ntf    cn111630   2.215  -0.311   3.729 -0.0291  0.1905 -0.0589
 1388ntf    fn411631   1.891   0.060   3.542  0.3735  0.0437 -0.3295
 1388ntf    fn411632   2.026   0.179   3.423 -0.1967  0.0157  0.1112
 1388ntf    fn411633   1.948  -0.008   3.354 -0.3287 -0.4779  0.0060
 1388ntf    on511634   2.187  -0.107   3.441 -0.8145 -0.4650 -0.3745
 1388ntf    on511635   2.217   0.085   3.586  0.1939 -0.2355 -0.3467
 1388ntf    on511636   1.961  -0.303   3.778  0.1710  0.2980 -0.2449
 1388ntf    on511637   2.036  -0.343   3.554 -0.2083 -0.3959  0.3351
 1388ntf    fn411638   2.298  -0.208   3.730  0.4289 -0.1704 -0.3650
 1388ntf    fn411639   2.271  -0.400   3.649  0.1206  1.0025 -0.8667
 1388ntf    fn411640   2.208  -0.364   3.850 -0.4456  0.0093 -0.1588
 1389ntf    cn111641   3.281   1.211   1.698  0.6441 -0.5524  0.0743
 1389ntf    sn211642   3.414   1.141   1.801  0.7132 -0.0061  0.3613
 1389ntf    nn311643   3.324   1.084   1.916  0.6582 -0.5323  0.0636
 1389ntf    sn211644   3.339   1.105   2.071  0.0031  0.0326  0.0563
 1389ntf    cn111645   3.217   1.239   2.091 -0.0672 -0.0136 -0.0618
 1389ntf    fn411646   3.184   1.123   1.680  0.1963  0.0173 -0.2965
 1389ntf    fn411647   3.228   1.321   1.749 -0.4085 -1.0508  0.0843
 1389ntf    fn411648   3.323   1.256   1.581  0.1359 -0.5069 -0.0901
 1389ntf    on511649   3.467   1.036   1.718  0.3054 -0.1621  0.2974
 1389ntf    on511650   3.498   1.258   1.813  0.8292 -0.0914  0.3814
 1389ntf    on511651   3.285   0.998   2.150  0.3423 -0.6177 -0.5843
 1389ntf    on511652   3.465   1.158   2.117 -0.2956 -0.3053  1.2941
 1389ntf    fn411653   3.260   1.358   2.053  0.1078 -0.0993 -0.1310
 1389ntf    fn411654   3.200   1.254   2.222  0.4240  0.1197 -0.0108
 1389ntf    fn411655   3.101   1.226   2.030 -0.1977  0.5586  0.0575
 1390ntf    cn111656   0.087   4.467   4.855 -0.2231 -0.1473  0.2050
 1390ntf    sn211657   0.245   4.424   4.934 -0.1015 -0.2322 -0.0831
 1390ntf    nn311658   0.323   4.373   4.808 -0.4159 -0.8805 -0.0166
 1390ntf    sn211659   0.429   4.256   4.805  0.1613 -0.3525 -0.3673
 1390ntf    cn111660   0.308   4.126   4.765  0.1797 -0.3264 -0.5122
 1390ntf    fn411661   0.105   4.557   4.761 -0.3116 -0.6777 -0.3249
 1390ntf    fn411662   0.031   4.362   4.797  0.1295 -0.6095  0.6865
 1390ntf    fn411663  -0.005   4.514   4.938 -0.5654  0.2941 -0.4207
 1390ntf    on511664   0.285   4.556   4.976 -0.2580 -0.3780  0.5429
 1390ntf    on511665   0.211   4.328   5.036 -0.0751 -0.2579 -0.0983
 1390ntf    on511666   0.506   4.253   4.683 -0.0303  0.0260 -0.5004
 1390ntf    on511667   0.487   4.200   4.924 -0.5397 -0.0320  0.1376
 1390ntf    fn411668   0.220   4.106   4.862  0.1997 -0.4597 -0.5211
 1390ntf    fn411669   0.364   4.010   4.734  0.0849 -0.4171 -0.3399
 1390ntf    fn411670   0.232   4.164   4.664  0.1167 -0.0319 -0.3534
 1391ntf    cn111671   0.333   5.134   0.635  0.2363  0.4472  0.9684
 1391ntf    sn211672   0.399   4.998   0.736 -0.2415 -0.2111  0.3985
 1391ntf    nn311673   0.493   5.072   0.838  0.2340 -0.2429 -0.0137
 1391ntf    sn211674   0.643   5.039   0.871  0.3073 -0.3960 -0.4865
 1391ntf    cn111675   0.610   4.971   1.036 -0.0544 -0.0523 -0.4149
 1391ntf    fn411676   0.425   5.185   0.554 -0.7422  0.4408 -0.1629
 1391ntf    fn411677   0.224   5.102   0.567  0.3444  0.5287  0.7563
 1391ntf    fn411678   0.288   5.230   0.715  0.3037  0.9582  0.4000
 1391ntf    on511679   0.278   4.937   0.786 -0.4040 -0.0305  0.2242
 1391ntf    on511680   0.469   4.920   0.637 -0.2357 -0.3348  0.4993
 1391ntf    on511681   0.697   4.927   0.798  0.2836 -0.4560 -0.4102
 1391ntf    on511682   0.721   5.154   0.911 -0.0896 -0.2326 -0.1679
 1391ntf    fn411683   0.554   4.852   1.042  0.3753 -0.2371 -0.0230
 1391ntf    fn411684   0.535   5.052   1.109  0.2144  0.0162 -0.2119
 1391ntf    fn411685   0.726   4.960   1.100 -0.0476  0.3665 -0.3499
 1392ntf    cn111686   3.366   2.795   4.958 -0.2565  0.5350  0.0486
 1392ntf    sn211687   3.395   2.949   5.051  0.1161  0.2475  0.4156
 1392ntf    nn311688   3.353   2.901   5.194 -0.0596 -0.1785  0.2234
 1392ntf    sn211689   3.316   2.971   5.330  0.1760 -0.1660  0.2810
 1392ntf    cn111690   3.135   2.969   5.314  0.1425 -0.5096  0.7008
 1392ntf    fn411691   3.245   2.750   4.984 -0.2329 -0.1495 -0.9645
 1392ntf    fn411692   3.375   2.807   4.827 -0.0354 -0.2452 -0.0156
 1392ntf    fn411693   3.457   2.701   4.980  0.3210  1.0925  0.0636
 1392ntf    on511694   3.537   2.971   5.036  0.0342  0.2008 -0.5392
 1392ntf    on511695   3.302   3.040   4.989 -0.3530  0.0347  0.8033
 1392ntf    on511696   3.326   2.887   5.447 -0.8357  0.2761  0.6997
 1392ntf    on511697   3.358   3.108   5.346  0.4002 -0.2067  0.0536
 1392ntf    fn411698   3.098   3.014   5.196 -0.2252 -0.0411  0.9913
 1392ntf    fn411699   3.077   3.047   5.404  0.1719  0.0990  0.1996
 1392ntf    fn411700   3.084   2.847   5.321  0.0229 -0.4746  0.4509
 1393ntf    cn111701   0.499   5.637   3.871 -0.1332 -0.0756  0.2884
 1393ntf    sn211702   0.604   5.679   4.013  0.0909 -0.2590  0.1786
 1393ntf    nn311703   0.723   5.756   3.946 -0.1036 -0.1644 -0.0640
 1393ntf    sn211704   0.878   5.728   3.939 -0.0604  0.1189 -0.2630
 1393ntf    cn111705   0.946   5.826   4.076 -0.2111  0.0339 -0.1270
 1393ntf    fn411706   0.536   5.519   3.823 -0.3199  0.1045 -0.3172
 1393ntf    fn411707   0.367   5.628   3.884 -0.2152  0.7378  0.1126
 1393ntf    fn411708   0.519   5.728   3.776 -0.3149 -0.4427 -0.1032
 1393ntf    on511709   0.518   5.775   4.079  0.0989 -0.5743  0.6492
 1393ntf    on511710   0.630   5.558   4.087  0.3277 -0.3393 -0.0352
 1393ntf    on511711   0.914   5.592   3.970 -0.4733  0.0397 -0.1234
 1393ntf    on511712   0.933   5.784   3.818  0.2352  0.3834 -0.0078
 1393ntf    fn411713   1.078   5.821   4.082 -0.2353 -0.5903 -0.0396
 1393ntf    fn411714   0.916   5.780   4.197 -0.1954  0.0032 -0.1342
 1393ntf    fn411715   0.912   5.953   4.067 -0.4789 -0.0579 -0.4139
 1394ntf    cn111716   2.497   2.607   0.510  0.1758 -0.4043  0.5000
 1394ntf    sn211717   2.367   2.728   0.471  0.5090 -0.2231 -0.0650
 1394ntf    nn311718   2.258   2.638   0.401 -0.5382  0.5292  0.5749
 1394ntf    sn211719   2.166   2.658   0.276 -0.2627 -0.0345  0.2808
 1394ntf    cn111720   2.266   2.563   0.158 -0.3771 -0.0600  0.2036
 1394ntf    fn411721   2.453   2.532   0.609  0.0495 -0.2635  0.5505
 1394ntf    fn411722   2.542   2.543   0.404 -0.3082 -0.1854  0.1610
 1394ntf    fn411723   2.598   2.680   0.556 -0.1605  0.5880 -0.3028
 1394ntf    on511724   2.320   2.752   0.605  0.5337 -0.6226  0.0174
 1394ntf    on511725   2.431   2.828   0.390  1.1307 -0.3597  0.2470
 1394ntf    on511726   2.049   2.573   0.282 -0.4422  0.2028  0.1473
 1394ntf    on511727   2.151   2.789   0.219 -0.6882 -0.0893  0.2655
 1394ntf    fn411728   2.217   2.543   0.037 -0.1898 -0.1199  0.1364
 1394ntf    fn411729   2.303   2.445   0.205  0.0013  0.0133  0.0934
 1394ntf    fn411730   2.383   2.625   0.154 -0.3795 -0.0562  0.1959
 1395ntf    cn111731   1.971   1.057   5.304  0.0479  0.0474  0.3465
 1395ntf    sn211732   2.067   0.944   5.197 -0.0182  0.0304  0.3039
 1395ntf    nn311733   1.964   0.830   5.165  0.3486 -0.2209  0.0208
 1395ntf    sn211734   1.963   0.677   5.201  0.2881 -0.1917  0.1430
 1395ntf    cn111735   2.026   0.593   5.053  0.0070  0.1275 -0.1601
 1395ntf    fn411736   1.867   1.113   5.245  0.2411  0.4377  0.3729
 1395ntf    fn411737   1.927   0.981   5.403 -0.7025 -0.0401 -0.0431
 1395ntf    fn411738   2.042   1.155   5.357 -0.0363  0.0171  0.5130
 1395ntf    on511739   2.104   1.032   5.090  0.4301  0.1224  0.5328
 1395ntf    on511740   2.186   0.914   5.272 -0.3796  0.3044  1.0043
 1395ntf    on511741   2.060   0.640   5.300  0.5274 -0.1381 -0.0723
 1395ntf    on511742   1.825   0.635   5.211  0.2387  0.1173  0.8813
 1395ntf    fn411743   1.957   0.620   4.944 -0.3268  0.1959  0.0664
 1395ntf    fn411744   2.018   0.462   5.069 -0.2325  0.1438 -0.1468
 1395ntf    fn411745   2.150   0.626   5.020  0.1188 -0.2235 -0.0935
 1396ntf    cn111746   6.430   1.505   0.520 -0.1833  0.7102 -0.2114
 1396ntf    sn211747   6.363   1.642   0.422 -0.4834  0.6506 -0.0919
 1396ntf    nn311748   6.432   1.761   0.500 -0.0108  0.0094  0.4783
 1396ntf    sn211749   6.413   1.916   0.494  0.2423  0.0277  0.0655
 1396ntf    cn111750   6.296   1.923   0.633 -0.3790  0.0944 -0.4611
 1396ntf    fn411751   6.397   1.383   0.482  0.1222  0.4747  0.2629
 1396ntf    fn411752   6.562   1.508   0.530 -0.1750  0.8781 -0.3751
 1396ntf    fn411753   6.388   1.512   0.646  0.2474 -0.6993  0.0282
 1396ntf    on511754   6.405   1.629   0.285  0.3518 -0.2750  0.2428
 1396ntf    on511755   6.222   1.630   0.448 -0.3297  0.2793  0.6010
 1396ntf    on511756   6.527   1.987   0.547  0.2696 -0.1109  0.1933
 1396ntf    on511757   6.344   1.986   0.389 -0.0742  0.0862  0.3102
 1396ntf    fn411758   6.237   1.809   0.663  0.4001 -0.3249 -0.5159
 1396ntf    fn411759   6.196   2.009   0.615 -0.2274  0.4017  0.1448
 1396ntf    fn411760   6.348   1.974   0.743 -0.4237 -0.3476 -0.2348
 1397ntf    cn111761   6.653   2.274   4.270 -0.0239  0.2343  0.1056
 1397ntf    sn211762   6.481   2.314   4.314 -0.1316 -0.1609  0.0455
 1397ntf    nn311763   6.411   2.206   4.224  0.7595 -0.7155  0.0052
 1397ntf    sn211764   6.308   2.096   4.268  0.1360 -0.1158  0.0685
 1397ntf    cn111765   6.393   1.946   4.210 -0.6883 -0.5555 -0.0174
 1397ntf    fn411766   6.681   2.151   4.310 -0.4224  0.4677  1.1275
 1397ntf    fn411767   6.690   2.292   4.144  0.0449 -0.0000  0.0911
 1397ntf    fn411768   6.735   2.350   4.341 -0.3263  0.0594  0.6490
 1397ntf    on511769   6.472   2.297   4.457  0.7256  0.4616  0.1843
 1397ntf    on511770   6.465   2.452   4.273  0.9774 -0.1090 -0.2566
 1397ntf    on511771   6.294   2.081   4.410 -0.1679 -0.3645  0.0125
 1397ntf    on511772   6.197   2.115   4.178  0.0116 -0.3698  0.1676
 1397ntf    fn411773   6.329   1.837   4.247 -0.5260 -0.4454  0.6019
 1397ntf    fn411774   6.518   1.931   4.250 -0.7286  0.3081  0.4565
 1397ntf    fn411775   6.401   1.939   4.078 -0.3351  0.4563 -0.0646
 1398ntf    cn111776   6.361   2.379   6.499 -0.2784  0.1456 -0.5972
 1398ntf    sn211777   6.418   2.213   6.543  0.0927  0.3632 -0.2532
 1398ntf    nn311778   6.464   2.158   6.403  0.7169 -0.4032  0.2399
 1398ntf    sn211779   6.609   2.144   6.343  0.5583 -0.1903 -0.2019
 1398ntf    cn111780   6.603   2.242   6.190 -0.0960 -0.1975 -0.1847
 1398ntf    fn411781   6.437   2.439   6.408  0.0860 -0.1915 -0.5157
 1398ntf    fn411782   6.236   2.377   6.454 -0.7055  0.2790  0.5345
 1398ntf    fn411783   6.349   2.461   6.602  0.1891 -0.3984 -0.1057
 1398ntf    on511784   6.528   2.227   6.635  0.1851  0.0940 -0.3203
 1398ntf    on511785   6.298   2.146   6.586  0.1428  0.0903 -0.5270
 1398ntf    on511786   6.707   2.221   6.416  0.2465 -0.0904  0.1169
 1398ntf    on511787   6.652   2.015   6.294  0.2698 -0.3216 -0.1141
 1398ntf    fn411788   6.715   2.251   6.121 -0.2744 -0.5820 -0.5257
 1398ntf    fn411789   6.580   2.369   6.218  0.3858 -0.1559  0.0288
 1398ntf    fn411790   6.509   2.204   6.105  0.1400 -0.7495 -0.2032
 1399ntf    cn111791   3.756   6.140   1.155 -0.4555  0.0172  0.6233
 1399ntf    sn211792   3.586   6.124   1.093 -0.3703 -0.2286  0.4517
 1399ntf    nn311793   3.492   6.097   1.215  0.0134 -0.1733  0.7628
 1399ntf    sn211794   3.407   6.210   1.284  0.1555  0.1519  0.4086
 1399ntf    cn111795   3.241   6.191   1.210  0.2297 -0.2099  0.3311
 1399ntf    fn411796   3.797   6.022   1.198  0.2227 -0.2232 -0.6459
 1399ntf    fn411797   3.837   6.178   1.058 -0.3464 -0.3013  0.5884
 1399ntf    fn411798   3.762   6.233   1.250  0.7442  0.5666  0.0348
 1399ntf    on511799   3.556   6.242   1.015 -0.3053 -0.2450  0.4012
 1399ntf    on511800   3.590   6.013   1.001 -0.0308 -0.2681  0.5107
 1399ntf    on511801   3.390   6.188   1.425  1.0039  0.7679  0.6079
 1399ntf    on511802   3.429   6.347   1.246 -0.1592  0.1190  0.0931
 1399ntf    fn411803   3.248   6.136   1.090  0.1417 -0.2084  0.3254
 1399ntf    fn411804   3.171   6.304   1.215 -0.3991 -0.5869  0.1105
 1399ntf    fn411805   3.168   6.108   1.282 -0.0116  0.0124  0.3421
 1400ntf    cn111806   6.771   1.251   1.324 -0.4138 -0.4415 -0.2139
 1400ntf    sn211807   6.647   1.327   1.215 -0.0657  0.3373 -0.0785
 1400ntf    nn311808   6.736   1.440   1.153  0.0991  0.2033 -0.0886
 1400ntf    sn211809   6.727   1.595   1.181  0.3515  0.1977  0.0222
 1400ntf    cn111810   6.614   1.642   1.047  0.1853 -0.0533  0.0734
 1400ntf    fn411811   6.890   1.242   1.267  0.0508  0.6691  0.5366
 1400ntf    fn411812   6.791   1.319   1.436  0.4011 -0.3582 -0.4049
 1400ntf    fn411813   6.734   1.128   1.356  0.3950 -0.6265  0.0197
 1400ntf    on511814   6.609   1.223   1.122 -0.7380  0.5777 -0.0743
 1400ntf    on511815   6.541   1.378   1.297  0.4795  0.7370  0.3820
 1400ntf    on511816   6.654   1.647   1.293 -0.5193 -0.4837 -0.2162
 1400ntf    on511817   6.854   1.655   1.147  0.5529 -0.3904 -0.2876
 1400ntf    fn411818   6.488   1.619   1.083  0.1851 -0.4994 -0.2032
 1400ntf    fn411819   6.631   1.593   0.925 -0.3044  0.3847 -0.1781
 1400ntf    fn411820   6.626   1.771   1.020 -0.3104 -0.1354 -0.5748
 1401ntf    cn111821   3.199   4.156   3.833 -0.0859 -0.1005 -0.2972
 1401ntf    sn211822   3.077   4.275   3.770 -0.0420  0.1620  0.1110
 1401ntf    nn311823   3.151   4.411   3.742  0.0620  0.0008 -0.3994
 1401ntf    sn211824   3.130   4.518   3.629 -0.0987  0.3902 -0.0011
 1401ntf    cn111825   3.152   4.672   3.724  0.3941  0.1447  0.2857
 1401ntf    fn411826   3.161   4.029   3.831 -0.2938 -0.0485  0.2202
 1401ntf    fn411827   3.316   4.167   3.774  0.1003  0.0735  0.1023
 1401ntf    fn411828   3.220   4.186   3.960  0.1086  0.3978 -0.4478
 1401ntf    on511829   3.028   4.206   3.653  0.1837  0.4727 -0.1695
 1401ntf    on511830   2.987   4.286   3.882 -0.1252 -0.1599  0.0767
 1401ntf    on511831   3.237   4.516   3.533  0.0278 -0.1909  0.1496
 1401ntf    on511832   2.992   4.525   3.589 -0.0659 -0.4171 -0.2785
 1401ntf    fn411833   3.271   4.683   3.782  0.3042 -0.1034  0.5226
 1401ntf    fn411834   3.068   4.686   3.825  0.4806 -0.3999  0.4374
 1401ntf    fn411835   3.140   4.777   3.645 -0.1892 -0.0808  0.0685
 1402ntf    cn111836   4.945   3.169   3.972 -0.1632 -0.4697 -0.2602
 1402ntf    sn211837   5.091   3.196   3.866  0.0350  0.4170  0.2304
 1402ntf    nn311838   5.034   3.124   3.738 -0.2466 -0.4994  0.8607
 1402ntf    sn211839   5.089   3.003   3.654  0.1002  0.3815 -0.2084
 1402ntf    cn111840   4.978   2.875   3.719  0.2223  0.4993  0.2428
 1402ntf    fn411841   4.961   3.238   4.083 -0.1632 -0.1627 -0.4511
 1402ntf    fn411842   4.838   3.212   3.909  0.1551 -0.3331 -0.7172
 1402ntf    fn411843   4.924   3.044   4.011  0.0151 -0.2118  0.6795
 1402ntf    on511844   5.098   3.340   3.857  0.3158  0.3491 -0.7570
 1402ntf    on511845   5.196   3.121   3.928 -0.0163 -0.0628 -0.2523
 1402ntf    on511846   5.053   3.011   3.515 -0.5209  0.2266 -0.0599
 1402ntf    on511847   5.223   2.958   3.683 -0.1117  0.1261  0.3953
 1402ntf    fn411848   4.852   2.903   3.690  0.2427  0.1721 -0.1751
 1402ntf    fn411849   4.989   2.842   3.847  0.1645 -0.2073  0.0717
 1402ntf    fn411850   5.002   2.766   3.648 -0.6217  0.7948 -0.5140
 1403ntf    cn111851   4.369   6.114   1.080 -0.1397 -0.0429  0.0155
 1403ntf    sn211852   4.393   5.978   1.198  0.3330 -0.1730 -0.2303
 1403ntf    nn311853   4.544   5.944   1.170  0.2440 -0.1294 -0.7647
 1403ntf    sn211854   4.672   6.003   1.238 -0.0781 -0.1647 -0.1171
 1403ntf    cn111855   4.713   5.875   1.361 -0.3846  0.0502  0.2092
 1403ntf    fn411856   4.258   6.176   1.118  0.1701  0.4402  0.1536
 1403ntf    fn411857   4.462   6.207   1.065 -0.1919  0.0345  0.1615
 1403ntf    fn411858   4.341   6.073   0.958  0.0612  0.0545 -0.0628
 1403ntf    on511859   4.352   6.030   1.327  0.2922  0.1040 -0.3542
 1403ntf    on511860   4.301   5.885   1.140 -0.0620 -0.1193  0.2991
 1403ntf    on511861   4.785   6.005   1.148 -0.2420 -0.0498 -0.3196
 1403ntf    on511862   4.651   6.117   1.324  0.5451 -0.0997 -0.0458
 1403ntf    fn411863   4.829   5.900   1.418 -0.4633 -0.3700  0.5605
 1403ntf    fn411864   4.734   5.761   1.298  0.3589 -0.1327  0.7771
 1403ntf    fn411865   4.622   5.856   1.456  0.0322 -0.0715  0.5854
 1404ntf    cn111866   5.878   2.967   2.923 -0.2646 -0.3582 -0.2684
 1404ntf    sn211867   6.027   3.004   2.826 -0.0069  0.2661  0.3595
 1404ntf    nn311868   6.087   2.859   2.819  0.2257  0.3669  0.2699
 1404ntf    sn211869   6.182   2.793   2.712 -0.2285 -0.1746  0.2012
 1404ntf    cn111870   6.336   2.798   2.808 -0.4553  0.3086  0.5480
 1404ntf    fn411871   5.802   3.070   2.955  0.2112  0.0263 -0.3738
 1404ntf    fn411872   5.797   2.883   2.859 -0.0220 -0.5573 -0.3156
 1404ntf    fn411873   5.913   2.899   3.031  0.3254  0.0836 -0.1784
 1404ntf    on511874   5.972   3.072   2.711  0.4864 -0.1820 -0.1478
 1404ntf    on511875   6.106   3.084   2.916 -0.6556  0.7410  0.5165
 1404ntf    on511876   6.158   2.652   2.693 -0.2442 -0.1380 -0.0435
 1404ntf    on511877   6.217   2.870   2.596 -0.3895  0.8254  0.8100
 1404ntf    fn411878   6.368   2.923   2.834  0.1691  0.0977  0.8343
 1404ntf    fn411879   6.439   2.747   2.742 -0.3684  0.6433  0.4268
 1404ntf    fn411880   6.336   2.730   2.922 -0.8032 -0.8598 -0.1315
 1405ntf    cn111881   5.235   0.250   2.318 -0.0669  0.2645  0.1085
 1405ntf    sn211882   5.399   0.250   2.396 -0.0673 -0.0031  0.1099
 1405ntf    nn311883   5.485   0.213   2.270  0.0363 -0.2675  0.2565
 1405ntf    sn211884   5.505   0.066   2.220 -0.2871 -0.0522 -0.5219
 1405ntf    cn111885   5.490   0.092   2.041  0.0112  0.2868 -0.4994
 1405ntf    fn411886   5.138   0.264   2.407 -0.1954  0.1015 -0.0050
 1405ntf    fn411887   5.216   0.342   2.224 -0.2655  0.0589 -0.0543
 1405ntf    fn411888   5.202   0.135   2.261 -0.8717  0.2795  0.5268
 1405ntf    on511889   5.410   0.390   2.429 -0.5578 -0.0023  0.2854
 1405ntf    on511890   5.392   0.149   2.499  1.1294  0.5160  0.7207
 1405ntf    on511891   5.641   0.024   2.245 -0.1439  0.6676 -0.0486
 1405ntf    on511892   5.398  -0.028   2.244 -0.4015  0.2281  0.0770
 1405ntf    fn411893   5.394   0.182   2.023 -0.0868  0.3603  0.3546
 1405ntf    fn411894   5.457  -0.025   1.988 -0.5153 -0.0603  0.5605
 1405ntf    fn411895   5.597   0.138   1.978  0.5314 -0.7147 -0.3767
 1406ntf    cn111896   6.659   6.506   6.550 -0.0392 -0.6469 -0.4143
 1406ntf    sn211897   6.543   6.371   6.585 -0.7190  0.0675  0.1282
 1406ntf    nn311898   6.418   6.461   6.612 -0.3559  0.5273  0.2739
 1406ntf    sn211899   6.273   6.443   6.555 -0.1150  0.8444 -0.4504
 1406ntf    cn111900   6.293   6.563   6.420  0.5349  0.7580 -0.4342
 1406ntf    fn411901   6.673   6.594   6.648 -0.3467 -0.6519 -0.3650
 1406ntf    fn411902   6.785   6.465   6.538  0.0256 -0.2791 -1.0010
 1406ntf    fn411903   6.626   6.574   6.442 -0.7202 -0.0149  0.1790
 1406ntf    on511904   6.543   6.296   6.461 -0.6932 -0.0841  0.2200
 1406ntf    on511905   6.602   6.311   6.702  0.0442  0.1059 -0.2279
 1406ntf    on511906   6.243   6.314   6.499  0.0067  0.6343 -0.0351
 1406ntf    on511907   6.168   6.501   6.636  0.2151  0.2556  0.4168
 1406ntf    fn411908   6.215   6.539   6.315 -0.5076 -0.4232  0.5854
 1406ntf    fn411909   6.413   6.557   6.364  0.3836 -0.0158 -0.6863
 1406ntf    fn411910   6.269   6.687   6.459 -0.2817  0.4101  0.1976
 1407ntf    cn111911   1.388   0.443   3.655  0.2685 -0.0683 -0.4774
 1407ntf    sn211912   1.285   0.513   3.787  0.4435 -0.0964 -0.3248
 1407ntf    nn311913   1.368   0.624   3.861 -0.5390  0.0032  0.6512
 1407ntf    sn211914   1.348   0.776   3.895  0.0214  0.1816  0.2002
 1407ntf    cn111915   1.513   0.830   3.841  0.0680 -0.1365  0.0234
 1407ntf    fn411916   1.438   0.535   3.574  1.0538 -0.1251 -0.0688
 1407ntf    fn411917   1.492   0.390   3.716 -0.1586  0.0872  0.3952
 1407ntf    fn411918   1.339   0.347   3.578  0.2871 -0.1378 -0.4023
 1407ntf    on511919   1.170   0.561   3.714  0.2447 -0.0517  0.0145
 1407ntf    on511920   1.267   0.399   3.873 -0.5781  0.3763  0.1088
 1407ntf    on511921   1.254   0.850   3.813 -0.2360 -0.1226  0.2176
 1407ntf    on511922   1.347   0.793   4.038 -0.6565 -0.7494  0.3134
 1407ntf    fn411923   1.553   0.769   3.731  0.3072  0.2739 -0.1179
 1407ntf    fn411924   1.606   0.809   3.933 -0.0277 -0.3457  0.0723
 1407ntf    fn411925   1.518   0.960   3.818 -0.2580 -0.0479  0.4280
 1408ntf    cn111926   3.714   3.783   2.150  0.6379 -0.0430 -0.2678
 1408ntf    sn211927   3.613   3.923   2.093  0.0372 -0.3403  0.0609
 1408ntf    nn311928   3.656   4.022   2.207 -0.3702  0.2029 -0.2522
 1408ntf    sn211929   3.657   4.178   2.220  0.0822  0.1951 -0.1808
 1408ntf    cn111930   3.586   4.185   2.387  0.0454 -0.1664 -0.1805
 1408ntf    fn411931   3.692   3.750   2.276  0.0530  0.4793 -0.2303
 1408ntf    fn411932   3.691   3.673   2.080 -0.0250  0.2594 -0.5372
 1408ntf    fn411933   3.842   3.818   2.148  0.5506  0.2583 -0.5967
 1408ntf    on511934   3.656   3.960   1.960 -0.0649 -0.7109 -0.0773
 1408ntf    on511935   3.477   3.878   2.112 -0.2066  0.2792 -0.1663
 1408ntf    on511936   3.788   4.236   2.239  0.0785 -0.0647  0.6687
 1408ntf    on511937   3.557   4.244   2.139 -0.1949 -0.0033 -0.0004
 1408ntf    fn411938   3.545   4.309   2.411  0.5563 -0.0036 -0.1326
 1408ntf    fn411939   3.683   4.167   2.476  0.0725  0.2341 -0.1227
 1408ntf    fn411940   3.490   4.099   2.414  0.0549 -0.0598  0.2007
 1409ntf    cn111941   2.467   2.391   6.518 -0.2598  0.1730 -0.0100
 1409ntf    sn211942   2.619   2.446   6.436 -0.3490  0.1084 -0.2211
 1409ntf    nn311943   2.707   2.475   6.563 -0.2675 -0.0216 -0.2477
 1409ntf    sn211944   2.858   2.518   6.567 -0.3921  0.4181 -0.1993
 1409ntf    cn111945   2.913   2.386   6.678 -0.1328  0.6683 -0.0288
 1409ntf    fn411946   2.405   2.487   6.585  0.3161  0.4056  0.1959
 1409ntf    fn411947   2.377   2.351   6.429 -0.2290  0.5491 -0.2094
 1409ntf    fn411948   2.484   2.293   6.606  0.7396 -0.4091 -0.8339
 1409ntf    on511949   2.650   2.331   6.355 -0.1151  0.1796 -0.2334
 1409ntf    on511950   2.587   2.565   6.360  0.0900 -0.0702 -0.6896
 1409ntf    on511951   2.933   2.496   6.446 -0.7418  0.9466 -0.5172
 1409ntf    on511952   2.886   2.637   6.643  0.3235  0.1841 -0.0892
 1409ntf    fn411953   2.901   2.265   6.626 -0.3912  0.5420  0.3182
 1409ntf    fn411954   2.842   2.361   6.787 -0.2068  0.0636 -0.2084
 1409ntf    fn411955   3.040   2.393   6.717 -0.0546  0.0290 -0.1575
 1410ntf    cn111956   5.425   5.593   0.240 -0.5555  0.2184 -0.1446
 1410ntf    sn211957   5.468   5.560   0.067  0.3075 -0.5175  0.2054
 1410ntf    nn311958   5.542   5.693   0.031  0.5562 -0.6904  0.0713
 1410ntf    sn211959   5.513   5.783  -0.095  0.4023 -0.2033  0.4490
 1410ntf    cn111960   5.538   5.944  -0.016 -0.3857  0.0359  0.2200
 1410ntf    fn411961   5.352   5.499   0.298 -0.5273  0.0637 -0.3592
 1410ntf    fn411962   5.527   5.624   0.319 -0.3470 -0.1371 -0.2757
 1410ntf    fn411963   5.347   5.700   0.235 -0.3276  0.4134  0.4554
 1410ntf    on511964   5.571   5.461   0.088  0.3394 -0.3354  0.9086
 1410ntf    on511965   5.355   5.527  -0.017 -0.1200  0.1055  0.5390
 1410ntf    on511966   5.617   5.784  -0.195  0.3422 -0.0428  0.3891
 1410ntf    on511967   5.379   5.776  -0.148  0.8386 -0.4689 -0.6454
 1410ntf    fn411968   5.663   5.988  -0.018 -0.1284 -0.6949 -0.0172
 1410ntf    fn411969   5.493   5.944   0.108 -0.0665  0.0642  0.3371
 1410ntf    fn411970   5.477   6.041  -0.083  0.3291  0.5826  0.3417
 1411ntf    cn111971   5.235   6.076   5.505 -0.1102 -0.3847 -0.1061
 1411ntf    sn211972   5.379   6.160   5.433 -0.0831 -0.2790  0.0699
 1411ntf    nn311973   5.375   6.089   5.293  0.9822 -0.7386  0.2703
 1411ntf    sn211974   5.371   6.148   5.147 -0.1105  0.1275  0.6386
 1411ntf    cn111975   5.190   6.153   5.131 -0.0278 -0.1529 -0.4498
 1411ntf    fn411976   5.219   6.108   5.633 -0.6099  0.3499 -0.3463
 1411ntf    fn411977   5.122   6.121   5.454 -0.0749 -0.1663  0.0060
 1411ntf    fn411978   5.223   5.944   5.506  0.1388 -0.4118 -0.4579
 1411ntf    on511979   5.335   6.298   5.435 -0.0443 -0.2712  0.3251
 1411ntf    on511980   5.493   6.121   5.512  0.0590 -0.5451 -0.2659
 1411ntf    on511981   5.418   6.283   5.127  0.7585 -0.2021  0.4036
 1411ntf    on511982   5.401   6.041   5.055  0.0630  0.1192  0.7029
 1411ntf    fn411983   5.132   6.246   5.206 -0.3190 -0.4393 -0.3207
 1411ntf    fn411984   5.138   6.040   5.175  0.3640 -0.2440 -0.2175
 1411ntf    fn411985   5.133   6.177   5.014 -0.3649 -0.0991 -0.2765
 1412ntf    cn111986   1.196   2.754   6.147  0.2501 -0.2728  0.2659
 1412ntf    sn211987   1.281   2.773   5.987  0.0407  0.0834  0.1941
 1412ntf    nn311988   1.276   2.928   5.963  0.0096 -0.0084 -0.3998
 1412ntf    sn211989   1.372   3.033   5.897  0.1271 -0.1004 -0.3762
 1412ntf    cn111990   1.437   3.104   6.052  0.2103 -0.3885 -0.2806
 1412ntf    fn411991   1.076   2.811   6.150  0.2678 -0.2346  0.2510
 1412ntf    fn411992   1.174   2.628   6.181  0.4810 -0.2118  0.6433
 1412ntf    fn411993   1.274   2.810   6.237  0.0096  0.1853  0.1942
 1412ntf    on511994   1.413   2.721   6.011 -0.2226 -0.5483  0.2956
 1412ntf    on511995   1.200   2.705   5.889  0.1614  0.4520 -0.1645
 1412ntf    on511996   1.486   2.965   5.842  0.4677 -0.1775  0.4161
 1412ntf    on511997   1.310   3.144   5.828 -0.4869  0.1379  0.5364
 1412ntf    fn411998   1.488   3.019   6.139 -0.3995 -0.0746  0.3903
 1412ntf    fn411999   1.334   3.155   6.116  0.4912  0.2190 -0.3075
 1412ntf    fn412000   1.522   3.203   6.034 -0.0286 -0.1391 -0.0286
 1413ntf    cn112001   1.160   4.472   5.782 -0.5172 -0.4339  0.0806
 1413ntf    sn212002   0.993   4.535   5.816 -0.1952  0.4534  0.0478
 1413ntf    nn312003   0.918   4.503   5.681 -0.0668 -0.0642  0.0980
 1413ntf    sn212004   0.772   4.539   5.637 -0.0879 -0.1549  0.0930
 1413ntf    cn112005   0.671   4.389   5.659  0.1217 -0.2276  0.5705
 1413ntf    fn412006   1.248   4.508   5.874 -0.4956 -0.1572 -0.0472
 1413ntf    fn412007   1.171   4.340   5.781 -0.2052 -0.4092  0.0778
 1413ntf    fn412008   1.205   4.505   5.662 -0.2642  0.1015  0.3180
 1413ntf    on512009   0.957   4.462   5.935  0.2293  0.2503  0.0522
 1413ntf    on512010   1.019   4.675   5.838  0.8228  0.3029 -0.1627
 1413ntf    on512011   0.713   4.641   5.721  0.4411  0.4446 -0.2539
 1413ntf    on512012   0.758   4.569   5.497  0.0158 -0.5044  0.0075
 1413ntf    fn412013   0.731   4.286   5.603 -0.1121  0.1215 -0.3436
 1413ntf    fn412014   0.556   4.385   5.595  0.3267  0.4578  0.1533
 1413ntf    fn412015   0.638   4.361   5.784 -0.0917  0.4109  0.6616
 1414ntf    cn112016   1.724   5.003   6.066  0.1530  0.2889 -0.2668
 1414ntf    sn212017   1.688   4.829   6.103 -0.0131  0.4095  0.1554
 1414ntf    nn312018   1.535   4.836   6.135 -0.1758 -0.0367 -0.4874
 1414ntf    sn212019   1.451   4.805   6.265  0.0596  0.4818 -0.2072
 1414ntf    cn112020   1.343   4.674   6.201  0.3170  0.4435 -0.5659
 1414ntf    fn412021   1.748   5.083   6.169 -0.8129 -0.6086  0.6815
 1414ntf    fn412022   1.814   5.026   5.972  0.4516 -0.0688 -0.0689
 1414ntf    fn412023   1.616   5.064   6.019 -0.2316  0.0137  0.2400
 1414ntf    on512024   1.723   4.743   5.992 -0.9606 -0.7836  0.7550
 1414ntf    on512025   1.769   4.814   6.222  0.3168 -0.3710 -0.1587
 1414ntf    on512026   1.525   4.744   6.373 -0.6170  0.5405  0.2945
 1414ntf    on512027   1.353   4.907   6.293 -0.8163 -0.1703 -0.8198
 1414ntf    fn412028   1.248   4.641   6.286  0.5298 -0.1498 -0.5463
 1414ntf    fn412029   1.421   4.568   6.185 -0.5178 -0.2940  0.1106
 1414ntf    fn412030   1.292   4.717   6.087 -0.5022  0.2152 -0.2865
 1415ntf    cn112031   2.925   3.405   6.076 -0.0912 -0.2265 -0.3438
 1415ntf    sn212032   3.094   3.412   6.144 -0.3262  0.3048  0.1908
 1415ntf    nn312033   3.119   3.269   6.204  0.0523  0.1878 -0.2453
 1415ntf    sn212034   3.259   3.223   6.258 -0.1017  0.1802  0.1526
 1415ntf    cn112035   3.272   3.070   6.161 -0.0639 -0.0507  0.5208
 1415ntf    fn412036   2.884   3.523   6.034  0.2516  0.0089 -0.0268
 1415ntf    fn412037   2.914   3.323   5.973 -0.0742  0.2378 -0.7180
 1415ntf    fn412038   2.835   3.365   6.165 -0.1306 -0.1703 -0.3585
 1415ntf    on512039   3.161   3.432   6.018  0.1322 -0.0434  0.3775
 1415ntf    on512040   3.086   3.516   6.244  0.0797  0.0693  0.4680
 1415ntf    on512041   3.379   3.294   6.222 -0.1464  0.1663 -0.0273
 1415ntf    on512042   3.254   3.187   6.397 -0.0808 -0.4060  0.0043
 1415ntf    fn412043   3.372   3.087   6.075 -0.2029  0.3897  0.4405
 1415ntf    fn412044   3.168   3.052   6.081 -0.1725  0.0205  0.6445
 1415ntf    fn412045   3.292   2.954   6.222 -0.3660 -0.5264 -0.2713
 1416ntf    cn112046   6.177   1.053   4.746 -0.2836  0.2284 -0.2474
 1416ntf    sn212047   6.311   1.165   4.696 -0.2969  0.2476 -0.2399
 1416ntf    nn312048   6.315   1.262   4.819 -0.4343  0.6190 -0.5279
 1416ntf    sn212049   6.391   1.397   4.845 -0.0431  0.2692  0.1899
 1416ntf    cn112050   6.257   1.515   4.805 -0.2389 -0.2111 -0.6037
 1416ntf    fn412051   6.125   0.983   4.646 -0.4853  0.3200 -0.2089
 1416ntf    fn412052   6.218   0.971   4.841  0.5889  1.0347  0.0794
 1416ntf    fn412053   6.074   1.120   4.797 -0.3977  0.0088 -0.1852
 1416ntf    on512054   6.421   1.075   4.670 -0.2956  0.3481 -0.5899
 1416ntf    on512055   6.247   1.229   4.584 -0.2452  0.3853 -0.1896
 1416ntf    on512056   6.405   1.420   4.986  0.0629  0.2678  0.1798
 1416ntf    on512057   6.493   1.433   4.750 -0.0861 -0.1388 -0.0100
 1416ntf    fn412058   6.142   1.474   4.856 -0.0687 -0.4686 -0.4207
 1416ntf    fn412059   6.250   1.532   4.674  0.2141  0.7867 -0.5051
 1416ntf    fn412060   6.273   1.639   4.846  0.2328 -0.1744 -0.8898
 1417ntf    cn112061   3.243   6.095   5.651 -0.1073  0.0585  0.3956
 1417ntf    sn212062   3.091   6.066   5.555  0.1239 -0.4222  0.1716
 1417ntf    nn312063   3.150   6.076   5.410 -0.1189  0.1258  0.1113
 1417ntf    sn212064   3.180   5.962   5.306 -0.4628  0.0576  0.0847
 1417ntf    cn112065   3.354   5.996   5.267 -0.3803 -0.2718  0.1575
 1417ntf    fn412066   3.335   6.000   5.654  0.3572  0.4858 -0.1149
 1417ntf    fn412067   3.298   6.201   5.594 -0.4247 -0.0170 -0.0613
 1417ntf    fn412068   3.224   6.128   5.777 -0.4023  0.1315  0.3319
 1417ntf    on512069   3.038   5.938   5.595  0.1533 -0.3558  0.4285
 1417ntf    on512070   3.002   6.175   5.586  0.0821 -0.4996  0.3273
 1417ntf    on512071   3.191   5.824   5.345 -0.1669  0.0641  0.0281
 1417ntf    on512072   3.118   5.987   5.179  0.7695 -0.1303 -0.5691
 1417ntf    fn412073   3.404   5.915   5.175 -0.4717 -0.1295 -0.0200
 1417ntf    fn412074   3.439   5.995   5.369  0.1274  0.6270 -0.2402
 1417ntf    fn412075   3.368   6.116   5.211  0.7617 -0.4301  0.0734
 1418ntf    cn112076   4.831   1.490   4.379  0.0477  0.0591 -0.2751
 1418ntf    sn212077   4.942   1.361   4.316  0.0203 -0.2717  0.3415
 1418ntf    nn312078   4.959   1.403   4.165 -0.8511 -0.1479  0.2717
 1418ntf    sn212079   4.931   1.325   4.032  0.0220  0.3011 -0.1831
 1418ntf    cn112080   4.761   1.380   3.996 -0.0585 -0.0873 -0.4027
 1418ntf    fn412081   4.819   1.497   4.511  0.1934 -0.2043 -0.2465
 1418ntf    fn412082   4.864   1.607   4.329 -0.1236  0.2206 -0.0150
 1418ntf    fn412083   4.706   1.462   4.346  0.0439 -0.3832  0.0982
 1418ntf    on512084   5.063   1.397   4.386  0.4064 -0.0265 -0.4389
 1418ntf    on512085   4.884   1.235   4.358  0.5965 -0.3088  1.0515
 1418ntf    on512086   5.010   1.373   3.921  0.1123  0.0888 -0.2119
 1418ntf    on512087   4.912   1.182   4.031  0.8649  0.1827 -0.4356
 1418ntf    fn412088   4.685   1.348   4.099 -0.8241  0.2023 -0.8714
 1418ntf    fn412089   4.708   1.313   3.895 -0.3601 -0.1008 -0.2359
 1418ntf    fn412090   4.750   1.509   3.969 -0.3496  0.0989  0.5792
 1419ntf    cn112091   1.172   2.001   0.030  0.0704 -0.0406  0.2884
 1419ntf    sn212092   1.216   1.858  -0.073 -0.3041 -0.0944  0.1988
 1419ntf    nn312093   1.194   1.911  -0.219  0.1326 -0.0006  0.1650
 1419ntf    sn212094   1.139   1.830  -0.342  0.2413  0.5335 -0.2417
 1419ntf    cn112095   1.262   1.842  -0.475  0.1066 -0.0586 -0.4196
 1419ntf    fn412096   1.240   2.112   0.009  0.0072  0.0153  0.3788
 1419ntf    fn412097   1.043   2.032   0.026  0.0180 -0.3387 -0.4751
 1419ntf    fn412098   1.192   1.970   0.157  0.1022 -0.4854  0.1751
 1419ntf    on512099   1.356   1.834  -0.047 -0.3060 -0.2801  0.0351
 1419ntf    on512100   1.118   1.762  -0.029  0.0105 -0.5656 -0.1193
 1419ntf    on512101   1.117   1.688  -0.332  0.2237  0.5376 -0.2227
 1419ntf    on512102   1.030   1.902  -0.404  0.3558  0.1525 -0.8831
 1419ntf    fn412103   1.382   1.804  -0.434  0.1124  0.5588  0.1430
 1419ntf    fn412104   1.280   1.968  -0.509  0.2106 -0.0290 -0.2595
 1419ntf    fn412105   1.227   1.783  -0.588  0.4394  0.1727 -0.6461
 1420ntf    cn112106   2.497   0.759   0.080 -0.1127 -0.3576 -0.0504
 1420ntf    sn212107   2.644   0.837   0.153 -0.3834  0.1584 -0.0565
 1420ntf    nn312108   2.744   0.785   0.044 -0.2834 -0.1302  0.1736
 1420ntf    sn212109   2.847   0.668   0.067 -0.2352 -0.1003  0.1094
 1420ntf    cn112110   3.005   0.751   0.098 -0.3153  0.1710 -0.1960
 1420ntf    fn412111   2.527   0.635   0.043 -0.0480 -0.4269  0.2320
 1420ntf    fn412112   2.397   0.747   0.165 -0.0476  0.7716  0.2037
 1420ntf    fn412113   2.455   0.806  -0.036  0.1573  0.3997  0.1510
 1420ntf    on512114   2.630   0.980   0.136 -0.3963  0.2120  0.3981
 1420ntf    on512115   2.651   0.790   0.289 -0.2133  0.5610  0.0774
 1420ntf    on512116   2.832   0.596   0.191 -0.5517 -1.0241 -0.4492
 1420ntf    on512117   2.877   0.585  -0.048  0.3566  0.5532 -0.2142
 1420ntf    fn412118   3.015   0.856   0.018 -0.2200  0.5720  0.3367
 1420ntf    fn412119   3.108   0.670   0.079  0.0838  0.5801  0.1900
 1420ntf    fn412120   3.018   0.803   0.219 -0.0947  0.2138 -0.2370
 1421ntf    cn112121   6.130   0.197   3.915 -0.1769  0.0049 -0.0854
 1421ntf    sn212122   6.220   0.085   4.026  0.0759  0.0315 -0.2641
 1421ntf    nn312123   6.178   0.149   4.163 -0.4186  0.0726 -0.4332
 1421ntf    sn212124   6.087   0.081   4.272  0.0716 -0.1948 -0.1912
 1421ntf    cn112125   5.923   0.117   4.204 -0.0094 -0.1007  0.0516
 1421ntf    fn412126   6.168   0.181   3.790 -0.0259 -0.3924  0.0109
 1421ntf    fn412127   5.999   0.177   3.920 -0.1755 -0.0245 -0.1671
 1421ntf    fn412128   6.148   0.324   3.949 -0.0727 -0.0022 -0.1158
 1421ntf    on512129   6.166  -0.047   4.003 -0.0932 -0.0689  0.6609
 1421ntf    on512130   6.360   0.108   4.004  0.2499 -0.6281  0.1114
 1421ntf    on512131   6.087  -0.063   4.285 -0.8123 -0.1873 -0.0474
 1421ntf    on512132   6.098   0.150   4.398 -0.1915 -0.0604 -0.2423
 1421ntf    fn412133   5.831   0.067   4.285 -0.2743  0.1391 -0.1001
 1421ntf    fn412134   5.900   0.064   4.085  0.6378  0.5491 -0.3672
 1421ntf    fn412135   5.900   0.247   4.200 -0.3990 -0.1832 -0.5445
 1422ntf    cn112136   4.038   0.550   3.928  0.2249 -0.0065  0.3018
 1422ntf    sn212137   3.862   0.569   3.971  0.1517 -0.2626  0.1231
 1422ntf    nn312138   3.840   0.725   3.971 -0.4386 -0.3418  0.7329
 1422ntf    sn212139   3.786   0.819   3.858  0.0987 -0.6426  0.2201
 1422ntf    cn112140   3.714   0.950   3.962  0.0363  0.0200 -0.6411
 1422ntf    fn412141   4.120   0.614   4.010  0.0160  0.6668 -0.0069
 1422ntf    fn412142   4.069   0.422   3.932  0.5282  0.0215 -0.7427
 1422ntf    fn412143   4.061   0.593   3.804  0.1586 -0.1272  0.2478
 1422ntf    on512144   3.794   0.490   3.873 -0.6495  0.0799  0.3947
 1422ntf    on512145   3.870   0.511   4.103 -0.4459 -0.3113  0.1395
 1422ntf    on512146   3.891   0.891   3.789  0.1384 -0.9371 -0.0265
 1422ntf    on512147   3.675   0.774   3.778 -0.0483 -0.0325  0.0732
 1422ntf    fn412148   3.674   1.052   3.888 -0.6693  0.0975 -0.1693
 1422ntf    fn412149   3.810   0.988   4.044  0.3788 -0.5254 -0.7793
 1422ntf    fn412150   3.604   0.924   4.031  0.3401  0.1740 -0.0935
 1423ntf    cn112151   5.172   5.132   2.712 -0.0077 -0.1664  0.1764
 1423ntf    sn212152   5.302   5.099   2.589 -0.1598  0.0677 -0.0477
 1423ntf    nn312153   5.378   5.233   2.621 -0.4845  0.2753 -0.1401
 1423ntf    sn212154   5.513   5.262   2.696 -0.4171 -0.1736 -0.0860
 1423ntf    cn112155   5.630   5.204   2.570 -0.4014 -0.6459  0.1411
 1423ntf    fn412156   5.208   5.163   2.836 -0.1700 -0.4938  0.3059
 1423ntf    fn412157   5.117   5.245   2.671  0.3852 -0.1278 -0.2560
 1423ntf    fn412158   5.074   5.044   2.719 -0.3877  0.3050  0.8775
 1423ntf    on512159   5.366   4.980   2.639 -0.6637 -0.3381 -0.3684
 1423ntf    on512160   5.238   5.090   2.461  0.0354 -0.3452 -0.1163
 1423ntf    on512161   5.548   5.401   2.710 -0.3367 -0.2357  0.3596
 1423ntf    on512162   5.539   5.176   2.809 -0.6562  1.1206  0.9806
 1423ntf    fn412163   5.749   5.173   2.619 -0.1317  0.2031  0.0479
 1423ntf    fn412164   5.653   5.295   2.476 -0.5143 -0.0002  0.7231
 1423ntf    fn412165   5.585   5.102   2.500 -0.2395 -0.1798 -0.6522
 1424ntf    cn112166   2.935   6.597   1.556  0.1902  0.1724  0.1707
 1424ntf    sn212167   2.757   6.560   1.558  0.1990  0.1366  0.2773
 1424ntf    nn312168   2.759   6.412   1.505 -0.1417  0.0620  0.4733
 1424ntf    sn212169   2.645   6.326   1.439 -0.2365  0.3270  0.2923
 1424ntf    cn112170   2.706   6.344   1.269  0.0141  0.0818  0.3556
 1424ntf    fn412171   3.007   6.511   1.627 -0.3630 -0.1004  0.4072
 1424ntf    fn412172   2.988   6.605   1.435 -0.4034  0.3810 -0.0801
 1424ntf    fn412173   2.953   6.715   1.614  0.1166 -0.0803  0.7152
 1424ntf    on512174   2.725   6.554   1.699  0.1809  0.1652  0.2742
 1424ntf    on512175   2.704   6.657   1.466  0.4384 -0.0559 -0.0684
 1424ntf    on512176   2.660   6.185   1.464 -0.1692  0.3285  0.2617
 1424ntf    on512177   2.521   6.399   1.425 -0.2276  0.4533  0.8393
 1424ntf    fn412178   2.809   6.265   1.244  0.0042  0.2607 -0.2920
 1424ntf    fn412179   2.754   6.465   1.249 -0.3023  0.2056  0.3347
 1424ntf    fn412180   2.623   6.309   1.171  0.2753  0.0894  0.1293
 1425ntf    cn112181   1.566   3.025   3.271  0.2299  0.4129  0.4132
 1425ntf    sn212182   1.670   2.981   3.128 -0.2922  0.1734  0.1060
 1425ntf    nn312183   1.600   3.066   3.016 -0.2269 -0.0648 -0.1174
 1425ntf    sn212184   1.553   3.017   2.875  0.0577 -0.0988 -0.2002
 1425ntf    cn112185   1.710   2.997   2.785  0.1569 -0.2168 -0.0003
 1425ntf    fn412186   1.630   3.116   3.343  0.3070  0.6341  0.0693
 1425ntf    fn412187   1.448   3.071   3.232  0.2316 -0.0207 -0.1231
 1425ntf    fn412188   1.534   2.923   3.348 -0.7096  0.0998 -0.3716
 1425ntf    on512189   1.808   3.013   3.156 -0.0587 -0.3958 -0.3818
 1425ntf    on512190   1.642   2.841   3.110  0.3565  0.0866 -0.2624
 1425ntf    on512191   1.505   2.882   2.861 -0.0431 -0.0119 -0.7439
 1425ntf    on512192   1.489   3.122   2.798  0.0419  0.0524  0.0198
 1425ntf    fn412193   1.764   3.117   2.770  0.1874 -0.2006  0.2317
 1425ntf    fn412194   1.691   2.946   2.664  0.0237  0.0533 -0.0951
 1425ntf    fn412195   1.805   2.920   2.834 -0.1048 -0.2947  0.3885
 1426ntf    cn112196   1.875   6.700   6.214  0.7450  0.5784  0.1496
 1426ntf    sn212197   1.915   6.600   6.068  0.0181  0.4843  0.0101
 1426ntf    nn312198   1.909   6.463   6.145 -0.5272  0.4863 -0.0241
 1426ntf    sn212199   1.857   6.327   6.086 -0.0745  0.3346 -0.0748
 1426ntf    cn112200   1.681   6.350   6.124  0.0188  0.2092  0.4465
 1426ntf    fn412201   1.875   6.830   6.189 -0.2345  0.5127 -0.2213
 1426ntf    fn412202   1.760   6.675   6.275  0.2081  0.4934 -0.8880
 1426ntf    fn412203   1.971   6.687   6.305  0.8083 -0.4488 -0.0530
 1426ntf    on512204   1.807   6.621   5.976  0.1039  0.9041  0.0043
 1426ntf    on512205   2.053   6.637   6.048  0.1952  0.1570  0.5793
 1426ntf    on512206   1.869   6.310   5.943  0.1486  0.2836 -0.0511
 1426ntf    on512207   1.900   6.218   6.170 -1.1403 -0.3545 -0.4005
 1426ntf    fn412208   1.624   6.433   6.039  0.4015  0.1201  0.0978
 1426ntf    fn412209   1.662   6.404   6.243 -0.4180  0.3693  0.3058
 1426ntf    fn412210   1.605   6.242   6.113 -0.0117  0.2893 -0.1682
 1427ntf    cn112211   3.839   6.743   6.119 -0.2115  0.2498  0.1406
 1427ntf    sn212212   3.962   6.628   6.188 -0.0808  0.2915 -0.0244
 1427ntf    nn312213   3.896   6.491   6.152  0.1974  0.0953  0.2098
 1427ntf    sn212214   3.842   6.386   6.256 -0.1214 -0.1596 -0.2074
 1427ntf    cn112215   3.998   6.299   6.291 -0.3402 -0.4943 -0.0639
 1427ntf    fn412216   3.824   6.745   5.988  0.2908  0.0259  0.0764
 1427ntf    fn412217   3.723   6.731   6.182 -0.3197 -0.4638 -0.1835
 1427ntf    fn412218   3.876   6.867   6.148 -0.2002  0.2051  0.3177
 1427ntf    on512219   4.073   6.659   6.101 -0.1519  0.2353 -0.1363
 1427ntf    on512220   3.973   6.662   6.327  0.4838  0.2664 -0.0580
 1427ntf    on512221   3.795   6.438   6.382  0.7556  0.1750 -0.0127
 1427ntf    on512222   3.755   6.289   6.195  0.1665 -0.1294 -0.6716
 1427ntf    fn412223   4.104   6.378   6.284 -0.4108 -0.3580  0.3845
 1427ntf    fn412224   4.011   6.212   6.192 -0.4810 -0.0729 -0.4568
 1427ntf    fn412225   3.988   6.225   6.401 -0.1130 -0.0860  0.2318
 1428ntf    cn112226   3.012   1.935   5.985 -0.1014 -0.1523 -0.5570
 1428ntf    sn212227   3.192   1.954   6.003 -0.1616  0.3032 -0.4016
 1428ntf    nn312228   3.213   1.863   6.129  0.6137  0.3200 -0.5131
 1428ntf    sn212229   3.347   1.865   6.211  0.2447 -0.0249  0.1007
 1428ntf    cn112230   3.408   1.699   6.168 -0.0997 -0.2590  0.5057
 1428ntf    fn412231   2.956   1.959   6.102  1.3605 -0.3589  0.2140
 1428ntf    fn412232   2.966   2.026   5.901  0.4244  0.2271 -0.4433
 1428ntf    fn412233   2.980   1.812   5.949 -0.0187 -0.2606 -0.2655
 1428ntf    on512234   3.235   1.899   5.876 -0.2633 -0.0623 -0.2782
 1428ntf    on512235   3.209   2.096   6.018  0.4618  0.2210 -0.2796
 1428ntf    on512236   3.447   1.963   6.179 -0.1581  0.4923  0.4067
 1428ntf    on512237   3.311   1.866   6.351  0.1646 -0.1902  0.0819
 1428ntf    fn412238   3.310   1.611   6.170 -0.0227 -0.3554 -0.0275
 1428ntf    fn412239   3.503   1.665   6.254  0.5647  0.1546 -0.0560
 1428ntf    fn412240   3.457   1.699   6.045 -0.0804  0.3656  0.5078
 1429ntf    cn112241   0.841   5.553   3.022  0.5536 -0.0500 -0.0120
 1429ntf    sn212242   0.818   5.373   3.020 -0.3175  0.0580 -0.2082
 1429ntf    nn312243   0.923   5.343   3.133 -0.2866 -0.0198 -0.2573
 1429ntf    sn212244   0.999   5.210   3.165 -0.0332  0.1040 -0.3491
 1429ntf    cn112245   1.058   5.225   3.337 -0.2705  0.0159 -0.2605
 1429ntf    fn412246   0.756   5.608   2.937  0.4349  0.6624  0.5618
 1429ntf    fn412247   0.826   5.598   3.146 -0.1506 -0.3257  0.0082
 1429ntf    fn412248   0.967   5.587   3.002  0.6109 -0.0564  0.3284
 1429ntf    on512249   0.680   5.354   3.060 -0.2770 -0.2696 -0.2186
 1429ntf    on512250   0.861   5.331   2.889  0.3580 -0.3693  0.1432
 1429ntf    on512251   0.906   5.102   3.188 -0.4960  0.5923  0.1022
 1429ntf    on512252   1.111   5.179   3.079  0.5874 -0.1885  0.5362
 1429ntf    fn412253   1.111   5.110   3.376 -0.3675 -0.0873 -0.4264
 1429ntf    fn412254   0.966   5.261   3.425  0.3221  0.2856  0.2511
 1429ntf    fn412255   1.152   5.317   3.345  0.0804 -0.3028 -0.6539
 1430ntf    cn112256   2.373   5.193   3.505 -0.2138 -0.0233 -0.2402
 1430ntf    sn212257   2.430   5.020   3.503 -0.0143  0.0365  0.1833
 1430ntf    nn312258   2.325   4.949   3.596 -0.0111 -0.8150 -0.4547
 1430ntf    sn212259   2.345   4.889   3.740 -0.0990 -0.0038 -0.1017
 1430ntf    cn112260   2.358   4.712   3.704 -0.2640 -0.1064  0.3346
 1430ntf    fn412261   2.243   5.196   3.478 -0.3094 -0.2329  0.1905
 1430ntf    fn412262   2.388   5.241   3.627 -0.0376  0.4223 -0.4358
 1430ntf    fn412263   2.442   5.275   3.427 -0.4244 -0.2961 -0.7195
 1430ntf    on512264   2.390   4.995   3.367  0.3988  0.1086  0.0491
 1430ntf    on512265   2.572   5.024   3.528  0.0961  0.7027 -0.5066
 1430ntf    on512266   2.468   4.909   3.812  0.0033  0.2440 -0.3449
 1430ntf    on512267   2.225   4.897   3.820  0.5671  0.3304  0.8808
 1430ntf    fn412268   2.252   4.669   3.636 -0.4535  0.0931  0.5028
 1430ntf    fn412269   2.358   4.632   3.809 -0.4783 -0.4285  0.0927
 1430ntf    fn412270   2.471   4.680   3.643 -0.0847  0.5377  0.3247
 1431ntf    cn112271   3.280   0.244   6.542 -0.2913 -0.1246  0.6380
 1431ntf    sn212272   3.240   0.141   6.398  0.3341  0.2367  0.2051
 1431ntf    nn312273   3.113   0.222   6.355  0.1819 -0.0627  0.0880
 1431ntf    sn212274   2.965   0.196   6.399  0.1003  0.0199 -0.1327
 1431ntf    cn112275   2.863   0.270   6.268 -0.1569 -0.1351 -0.0220
 1431ntf    fn412276   3.390   0.207   6.604 -0.1947 -0.2837  0.3740
 1431ntf    fn412277   3.305   0.369   6.508  0.5030 -0.4135  0.1432
 1431ntf    fn412278   3.183   0.243   6.633 -1.2516  0.7260 -0.3483
 1431ntf    on512279   3.350   0.171   6.309 -0.1479 -0.2210 -0.5583
 1431ntf    on512280   3.218   0.006   6.444  0.1534 -0.1376 -0.9405
 1431ntf    on512281   2.932   0.055   6.398 -0.0933  0.0631 -0.0112
 1431ntf    on512282   2.916   0.266   6.515 -0.0704 -0.3291  0.0097
 1431ntf    fn412283   2.740   0.290   6.311 -0.5575 -0.8121 -0.8198
 1431ntf    fn412284   2.843   0.187   6.167 -0.3486 -0.3643  0.2024
 1431ntf    fn412285   2.911   0.387   6.229 -0.9074  0.2686  0.2505
 1432ntf    cn112286   0.545   2.742   0.319 -0.3592  0.1549  0.3180
 1432ntf    sn212287   0.710   2.746   0.243 -0.4059 -0.2866  0.1918
 1432ntf    nn312288   0.777   2.860   0.327 -0.2964 -0.1726 -0.0473
 1432ntf    sn212289   0.763   3.014   0.301  0.0784 -0.1130  0.0996
 1432ntf    cn112290   0.915   3.081   0.375 -0.1770  0.5147  0.0566
 1432ntf    fn412291   0.482   2.858   0.320 -0.0554  0.3205  0.1867
 1432ntf    fn412292   0.464   2.660   0.252 -0.0408 -0.1737  0.3314
 1432ntf    fn412293   0.544   2.693   0.442  0.4162 -0.0970  0.2258
 1432ntf    on512294   0.760   2.617   0.285 -0.4182 -0.3373  0.0516
 1432ntf    on512295   0.702   2.765   0.100 -0.8480 -0.7947  0.1430
 1432ntf    on512296   0.773   3.060   0.165  0.2543 -0.4117  0.0094
 1432ntf    on512297   0.656   3.073   0.378  0.2062 -0.0844  0.2552
 1432ntf    fn412298   0.958   3.190   0.313  0.0948  0.3028 -0.1295
 1432ntf    fn412299   1.015   2.997   0.357 -0.3135  0.3356  0.1336
 1432ntf    fn412300   0.906   3.106   0.504 -0.1172  0.4731  0.0689
 1433ntf    cn112301   4.872   0.970   6.586 -0.1338 -0.6570  0.0544
 1433ntf    sn212302   4.754   0.950   6.722 -0.1637 -0.0972  0.1157
 1433ntf    nn312303   4.709   0.802   6.694 -0.3713 -0.1223  0.5729
 1433ntf    sn212304   4.564   0.751   6.662 -0.2791 -0.2036  0.2909
 1433ntf    cn112305   4.559   0.781   6.482 -0.3703 -0.2207  0.2907
 1433ntf    fn412306   4.829   0.898   6.484 -0.2662 -0.1327 -0.2681
 1433ntf    fn412307   4.892   1.094   6.542 -0.7708 -0.5923 -0.0589
 1433ntf    fn412308   4.996   0.934   6.615  0.1024 -0.1026 -0.2303
 1433ntf    on512309   4.833   0.970   6.841  0.2376  0.3573 -0.2261
 1433ntf    on512310   4.657   1.053   6.693  0.1306  0.2085  0.2132
 1433ntf    on512311   4.548   0.608   6.666  0.0586 -0.2499  0.0579
 1433ntf    on512312   4.457   0.830   6.716 -0.0991 -0.0011  0.3517
 1433ntf    fn412313   4.656   0.718   6.419 -0.2061  0.6497 -0.3363
 1433ntf    fn412314   4.570   0.909   6.453 -0.0580 -0.3646 -0.2364
 1433ntf    fn412315   4.448   0.732   6.429 -0.2697 -0.2193  0.0778
 1434ntf    cn112316   6.555   6.261   1.056 -0.3483 -0.4816 -0.3745
 1434ntf    sn212317   6.530   6.186   1.220 -0.2322  0.2514 -0.0211
 1434ntf    nn312318   6.492   6.310   1.309 -0.3589  0.1494  0.0670
 1434ntf    sn212319   6.440   6.303   1.457 -0.0859 -0.0643  0.1548
 1434ntf    cn112320   6.272   6.367   1.428  0.1286  0.4765  0.0864
 1434ntf    fn412321   6.622   6.375   1.056 -0.1654 -0.5761  0.6801
 1434ntf    fn412322   6.609   6.176   0.970  0.5568 -0.0241 -0.2675
 1434ntf    fn412323   6.433   6.286   1.011 -0.4819 -0.1746  0.1486
 1434ntf    on512324   6.428   6.087   1.195  0.1307 -0.0633 -0.2637
 1434ntf    on512325   6.663   6.137   1.248 -0.4547 -0.0532  0.5111
 1434ntf    on512326   6.420   6.168   1.504  0.5063 -0.1858  0.0609
 1434ntf    on512327   6.510   6.399   1.539  0.3198 -0.1031 -0.1447
 1434ntf    fn412328   6.207   6.379   1.543 -0.3521  0.0883 -0.1403
 1434ntf    fn412329   6.209   6.284   1.346  0.1735  0.5998 -0.0730
 1434ntf    fn412330   6.266   6.487   1.373 -0.5325  0.3384 -0.1477
 1435ntf    cn112331   5.899   0.491   3.639 -0.1274  0.2230 -0.0705
 1435ntf    sn212332   5.858   0.649   3.558  0.1316  0.2363 -0.1756
 1435ntf    nn312333   5.701   0.643   3.566  0.1660  0.0040  0.3650
 1435ntf    sn212334   5.595   0.722   3.482  0.1928 -0.2034  0.1360
 1435ntf    cn112335   5.494   0.789   3.618  0.4936  0.2873  0.1171
 1435ntf    fn412336   5.862   0.485   3.766 -0.6846 -0.9309 -0.2772
 1435ntf    fn412337   5.843   0.390   3.575 -0.4301  0.0099  0.5211
 1435ntf    fn412338   6.029   0.466   3.635 -0.2058 -0.1418 -0.3018
 1435ntf    on512339   5.914   0.749   3.644  0.4352  0.2932 -0.4372
 1435ntf    on512340   5.916   0.634   3.426  0.0077  0.5881 -0.2693
 1435ntf    on512341   5.646   0.841   3.419  0.4836  0.1238  0.9862
 1435ntf    on512342   5.502   0.642   3.406  0.7060 -0.0885 -0.6289
 1435ntf    fn412343   5.568   0.819   3.723  0.5844  0.4485  0.0088
 1435ntf    fn412344   5.397   0.707   3.653  0.3777  0.5395  0.3836
 1435ntf    fn412345   5.431   0.901   3.586 -0.4452 -0.3227 -0.1989
 1436ntf    cn112346   6.657   3.145   0.014  0.1277 -0.3747  0.1045
 1436ntf    sn212347   6.768   3.226   0.133 -0.1017  0.2025 -0.0694
 1436ntf    nn312348   6.777   3.117   0.246  0.0152  0.7686  0.4735
 1436ntf    sn212349   6.674   3.021   0.314  0.2290  0.0974 -0.1352
 1436ntf    cn112350   6.748   3.024   0.481  0.0466 -0.4035 -0.0441
 1436ntf    fn412351   6.683   3.016   0.003  0.2949 -0.3283 -0.0575
 1436ntf    fn412352   6.530   3.142   0.049  0.0432  0.0673 -0.1665
 1436ntf    fn412353   6.666   3.201  -0.106  0.3931 -0.6108  0.0126
 1436ntf    on512354   6.895   3.238   0.066 -0.0799  0.0530 -0.0548
 1436ntf    on512355   6.698   3.345   0.175  0.2136  0.4407 -0.2195
 1436ntf    on512356   6.545   3.081   0.341  0.3114 -0.0355  0.5979
 1436ntf    on512357   6.678   2.879   0.290  0.6134  0.0688  0.0866
 1436ntf    fn412358   6.761   3.139   0.543 -0.0241 -0.2118 -0.3792
 1436ntf    fn412359   6.864   2.961   0.483  0.4465  0.3270  0.0390
 1436ntf    fn412360   6.664   2.958   0.559 -0.0329 -0.0344  0.1827
 1437ntf    cn112361   1.383   0.533   1.121 -0.0944  0.2606  0.4941
 1437ntf    sn212362   1.277   0.386   1.136  0.1182  0.0577  0.0480
 1437ntf    nn312363   1.136   0.427   1.193 -0.1996 -0.3438 -0.4421
 1437ntf    sn212364   1.038   0.362   1.297  0.0847 -0.1209 -0.0313
 1437ntf    cn112365   1.115   0.438   1.443  0.1673  0.0274 -0.1527
 1437ntf    fn412366   1.478   0.507   1.033 -0.4113 -0.3743  0.3288
 1437ntf    fn412367   1.323   0.641   1.075 -0.4912 -0.0237  0.3365
 1437ntf    fn412368   1.436   0.564   1.238  0.2449 -0.2130  0.4725
 1437ntf    on512369   1.261   0.350   0.998  0.2688 -0.2125  0.1018
 1437ntf    on512370   1.355   0.302   1.223 -0.2335  0.5682  0.8790
 1437ntf    on512371   0.909   0.425   1.299 -0.0583 -0.4114 -0.0257
 1437ntf    on512372   1.048   0.219   1.316  0.3734 -0.1040 -0.0584
 1437ntf    fn412373   1.049   0.421   1.556  0.2559  0.0022 -0.1045
 1437ntf    fn412374   1.120   0.569   1.426 -0.8593  0.1430  0.3859
 1437ntf    fn412375   1.238   0.395   1.466 -0.0165 -0.2858  0.2563
 1438ntf    cn112376   5.870   3.632   5.682  0.0396 -0.1675  0.3566
 1438ntf    sn212377   5.737   3.529   5.749 -0.0128 -0.4176 -0.1260
 1438ntf    nn312378   5.786   3.521   5.898 -0.2616  0.6324  0.0214
 1438ntf    sn212379   5.707   3.450   6.014 -0.0394 -0.4400 -0.4707
 1438ntf    cn112380   5.727   3.571   6.148  0.5814 -0.2659 -0.7175
 1438ntf    fn412381   5.880   3.745   5.750 -0.2184  0.2376 -0.2596
 1438ntf    fn412382   5.988   3.572   5.688  0.1148 -0.0035  0.5466
 1438ntf    fn412383   5.852   3.659   5.554 -0.4329 -0.1493  0.4277
 1438ntf    on512384   5.617   3.609   5.734 -0.0512 -0.4712 -0.1073
 1438ntf    on512385   5.746   3.407   5.674 -0.1198 -0.3168 -0.3038
 1438ntf    on512386   5.564   3.434   6.019 -0.0254 -0.4869 -0.2180
 1438ntf    on512387   5.777   3.331   6.055  0.2066 -0.3583 -0.6536
 1438ntf    fn412388   5.846   3.575   6.206  0.4029 -0.2936 -0.3450
 1438ntf    fn412389   5.627   3.550   6.232  0.0796 -0.0876 -1.2651
 1438ntf    fn412390   5.712   3.691   6.096  0.2193 -0.1420 -0.3264
 1439ntf    cn112391   2.921   5.494   6.591  0.0413 -0.4275 -0.2901
 1439ntf    sn212392   2.815   5.444   6.731 -0.4251  0.0382 -0.4730
 1439ntf    nn312393   2.695   5.391   6.644 -0.5280 -0.4005 -0.0692
 1439ntf    sn212394   2.669   5.244   6.597 -0.1404 -0.4498 -0.1365
 1439ntf    cn112395   2.523   5.265   6.491 -0.0405  0.0338 -0.1764
 1439ntf    fn412396   2.951   5.396   6.508 -0.0691 -0.7281  0.0216
 1439ntf    fn412397   2.870   5.602   6.534  0.8077  0.2680  0.3197
 1439ntf    fn412398   3.030   5.545   6.647 -0.2530 -0.0458 -0.0560
 1439ntf    on512399   2.886   5.345   6.808 -0.0959  0.3912 -0.3223
 1439ntf    on512400   2.786   5.570   6.795 -0.3310  0.0523 -0.4579
 1439ntf    on512401   2.762   5.188   6.502 -0.3548 -0.0342 -0.5923
 1439ntf    on512402   2.630   5.156   6.705 -0.7369 -0.0797 -0.0469
 1439ntf    fn412403   2.483   5.149   6.444 -0.6748  0.3944 -0.5409
 1439ntf    fn412404   2.552   5.344   6.389  0.0438  0.1123 -0.0923
 1439ntf    fn412405   2.425   5.328   6.553  0.1682  0.0889  0.1011
 1440ntf    cn112406   0.967   0.952   6.703 -0.1337  0.6289 -0.1855
 1440ntf    sn212407   0.899   1.001   6.865  0.0201 -0.1736  0.1268
 1440ntf    nn312408   1.002   0.940   6.967  0.4555 -0.0755 -0.2497
 1440ntf    sn212409   0.999   0.805   7.047 -0.1142  0.0215 -0.1047
 1440ntf    cn112410   1.044   0.873   7.209 -0.1591 -0.6824  0.2075
 1440ntf    fn412411   1.013   0.828   6.710 -0.2533  0.5867 -0.1383
 1440ntf    fn412412   0.885   0.951   6.600 -0.2872  0.0642 -0.0596
 1440ntf    fn412413   1.069   1.024   6.659  0.6638 -0.5810 -0.3695
 1440ntf    on512414   0.900   1.144   6.847 -0.7913 -0.2096 -0.2475
 1440ntf    on512415   0.770   0.938   6.871 -0.3228  0.5448  0.3098
 1440ntf    on512416   0.869   0.743   7.059  0.1290 -0.4546  0.0770
 1440ntf    on512417   1.111   0.720   7.015 -0.5303 -0.6694  0.2529
 1440ntf    fn412418   1.045   0.777   7.300  0.0593 -0.2615  0.6584
 1440ntf    fn412419   0.950   0.959   7.246  0.7396  0.6032 -0.3986
 1440ntf    fn412420   1.164   0.930   7.211 -0.3389 -0.2991  0.0798
 1441ntf    cn112421   3.626   1.263   1.116  0.0783  0.0421  0.3520
 1441ntf    sn212422   3.741   1.158   1.209  0.5088  0.0576 -0.1624
 1441ntf    nn312423   3.640   1.062   1.280  0.1520  0.3895 -0.2222
 1441ntf    sn212424   3.537   0.967   1.210 -0.1947  0.4276  0.2269
 1441ntf    cn112425   3.526   0.830   1.329 -0.1141  0.1783 -0.0524
 1441ntf    fn412426   3.560   1.198   1.021 -0.0312  0.1189  0.3745
 1441ntf    fn412427   3.526   1.314   1.187 -0.1869  0.2328 -0.1552
 1441ntf    fn412428   3.701   1.357   1.061  0.3644 -0.1816  0.3579
 1441ntf    on512429   3.826   1.096   1.110  0.4169  0.2532 -0.3644
 1441ntf    on512430   3.801   1.254   1.298  0.0160  0.4987 -0.3009
 1441ntf    on512431   3.403   1.021   1.207 -0.4803 -0.2835 -0.1585
 1441ntf    on512432   3.588   0.899   1.093 -0.4512 -0.0629  0.3967
 1441ntf    fn412433   3.645   0.778   1.355 -0.3166 -0.1463  0.2333
 1441ntf    fn412434   3.449   0.728   1.294  0.3118 -0.2462  0.2317
 1441ntf    fn412435   3.479   0.870   1.446 -0.2276 -0.6821  0.2027
 1442ntf    cn112436   6.621   0.230   1.506  0.0687 -0.1358 -0.3230
 1442ntf    sn212437   6.648   0.145   1.347 -0.0917  0.0401 -0.4444
 1442ntf    nn312438   6.535   0.220   1.268 -0.0893 -0.2130 -0.6900
 1442ntf    sn212439   6.547   0.362   1.202 -0.4796  0.1892  0.0873
 1442ntf    cn112440   6.371   0.392   1.164 -0.4734 -0.2246 -0.2788
 1442ntf    fn412441   6.490   0.227   1.527  0.0547  0.2419 -0.3595
 1442ntf    fn412442   6.683   0.160   1.600  0.0850  0.7105  0.3005
 1442ntf    fn412443   6.670   0.352   1.506 -0.1311 -0.0530  0.6254
 1442ntf    on512444   6.784   0.176   1.308 -0.1809  0.2172 -0.6163
 1442ntf    on512445   6.608   0.008   1.368 -0.5398  0.1665 -0.4734
 1442ntf    on512446   6.577   0.469   1.294  0.0348  0.3616 -0.2778
 1442ntf    on512447   6.616   0.356   1.075 -0.2440 -0.6866  0.2514
 1442ntf    fn412448   6.302   0.390   1.277  0.3065  0.3963  0.2232
 1442ntf    fn412449   6.321   0.306   1.077  0.3734 -0.7192 -0.2982
 1442ntf    fn412450   6.345   0.505   1.102  0.1265  0.1331  0.1124
 1443ntf    cn112451   0.712   3.122   2.139 -0.0148  0.2638  0.1531
 1443ntf    sn212452   0.612   3.114   1.988  0.4288 -0.1115 -0.1226
 1443ntf    nn312453   0.507   3.228   2.015 -0.4405 -0.7118 -0.8885
 1443ntf    sn212454   0.361   3.214   2.070 -0.0901 -0.0007  0.2442
 1443ntf    cn112455   0.265   3.305   1.946  0.3074  0.2695  0.1337
 1443ntf    fn412456   0.646   3.096   2.251 -0.0435  0.3223  0.1501
 1443ntf    fn412457   0.810   3.033   2.138 -0.1637  0.1025 -0.2213
 1443ntf    fn412458   0.772   3.240   2.150  0.3861  0.1237 -0.5090
 1443ntf    on512459   0.699   3.160   1.882  0.4058  0.5261  0.1274
 1443ntf    on512460   0.557   2.981   1.987 -0.8977  0.4206  0.2726
 1443ntf    on512461   0.307   3.081   2.063 -0.1017 -0.0109  0.5073
 1443ntf    on512462   0.340   3.283   2.195  0.1575  0.3299  0.1044
 1443ntf    fn412463   0.322   3.422   1.921  0.4287  0.0756 -0.5263
 1443ntf    fn412464   0.141   3.327   1.987 -0.0206 -0.3372 -0.5082
 1443ntf    fn412465   0.247   3.239   1.833  0.7863  0.0501  0.1838
 1444ntf    cn112466   2.510   5.058   2.186 -0.3978  0.0280 -0.1804
 1444ntf    sn212467   2.565   5.218   2.120 -0.0859  0.0168  0.0510
 1444ntf    nn312468   2.461   5.307   2.196 -0.0981  0.0008  0.0524
 1444ntf    sn212469   2.333   5.381   2.142  0.0428  0.2430  0.0531
 1444ntf    cn112470   2.398   5.548   2.107  0.0036  0.2488  0.0095
 1444ntf    fn412471   2.511   5.048   2.318 -0.4577 -0.5218 -0.2224
 1444ntf    fn412472   2.383   5.033   2.158 -0.4718  0.1359  0.0547
 1444ntf    fn412473   2.581   4.960   2.134 -0.4246  0.0511 -0.2611
 1444ntf    on512474   2.704   5.228   2.159 -0.0690 -0.5452  0.1394
 1444ntf    on512475   2.541   5.209   1.978 -0.1895  0.5201  0.0346
 1444ntf    on512476   2.289   5.332   2.014  0.1398  0.0521  0.0929
 1444ntf    on512477   2.226   5.404   2.235  0.1098 -0.6984  0.3670
 1444ntf    fn412478   2.469   5.544   1.995 -0.0141 -0.1522  0.0092
 1444ntf    fn412479   2.479   5.581   2.205  0.0770  0.0041  0.0312
 1444ntf    fn412480   2.297   5.633   2.102 -0.0959  0.1228 -0.1665
 1445ntf    cn112481   5.263   6.231   0.667 -0.1942  0.0736 -0.2396
 1445ntf    sn212482   5.180   6.393   0.674 -0.1474  0.0775  0.2895
 1445ntf    nn312483   5.277   6.457   0.779  0.0071  0.4132 -0.0539
 1445ntf    sn212484   5.324   6.607   0.784  0.4664  0.2638  0.1852
 1445ntf    cn112485   5.356   6.632   0.962  0.1920 -0.0740  0.2832
 1445ntf    fn412486   5.255   6.143   0.765 -0.1152  0.5050  0.1575
 1445ntf    fn412487   5.217   6.167   0.561  0.0465  0.1936 -0.4172
 1445ntf    fn412488   5.392   6.251   0.647 -0.1622  0.3775  0.2283
 1445ntf    on512489   5.172   6.435   0.536 -0.4053  0.3020  0.3720
 1445ntf    on512490   5.053   6.357   0.732 -0.0141  0.0504  0.5669
 1445ntf    on512491   5.453   6.630   0.724  0.4365 -0.2904 -0.0999
 1445ntf    on512492   5.221   6.704   0.759  0.1076 -0.2445 -0.3345
 1445ntf    fn412493   5.444   6.544   1.007  0.0755 -0.1585  0.3479
 1445ntf    fn412494   5.254   6.597   1.038 -0.0033  0.3628  0.2195
 1445ntf    fn412495   5.397   6.754   0.993 -0.1256  0.0666  0.1564
 1446ntf    cn112496   1.301   1.550   3.853 -0.0272  0.0739 -0.2801
 1446ntf    sn212497   1.392   1.562   3.696  0.1616 -0.2363 -0.1960
 1446ntf    nn312498   1.476   1.429   3.705 -0.2392 -0.4791  0.0083
 1446ntf    sn212499   1.620   1.391   3.655 -0.1464  0.1945 -0.2488
 1446ntf    cn112500   1.589   1.247   3.549 -0.0209 -0.2922  0.3691
 1446ntf    fn412501   1.228   1.441   3.869  0.4122 -0.3046 -0.7967
 1446ntf    fn412502   1.387   1.540   3.954  0.4323 -0.6848 -0.7301
 1446ntf    fn412503   1.227   1.656   3.876  0.0305  0.1974 -0.6693
 1446ntf    on512504   1.288   1.567   3.597  0.3026  0.0299 -0.3310
 1446ntf    on512505   1.455   1.686   3.736 -0.1239 -0.2144  0.1953
 1446ntf    on512506   1.673   1.488   3.562  0.1355  0.0824 -0.2069
 1446ntf    on512507   1.696   1.341   3.767 -0.0240 -0.1119 -0.4686
 1446ntf    fn412508   1.520   1.164   3.624 -0.0522 -0.0012  0.6653
 1446ntf    fn412509   1.695   1.184   3.499 -0.0515  0.2746 -0.4309
 1446ntf    fn412510   1.511   1.281   3.448  0.3371 -0.8727 -0.1117
 1447ntf    cn112511   4.671   3.234   1.919 -0.4034 -0.3025  0.1743
 1447ntf    sn212512   4.550   3.134   1.828 -0.2678 -0.0130 -0.3266
 1447ntf    nn312513   4.503   3.220   1.705  0.0628  0.0267 -0.4272
 1447ntf    sn212514   4.476   3.179   1.556 -0.3619  0.6220 -0.5204
 1447ntf    cn112515   4.315   3.095   1.556  0.0387 -0.1613 -0.5327
 1447ntf    fn412516   4.785   3.236   1.853 -0.4908  0.5564  0.0262
 1447ntf    fn412517   4.628   3.359   1.922 -0.5187 -0.3490  0.5863
 1447ntf    fn412518   4.703   3.197   2.042 -0.7525 -0.6991  0.1474
 1447ntf    on512519   4.620   3.011   1.795 -0.4339 -0.2219  0.0958
 1447ntf    on512520   4.451   3.127   1.932  0.5254  0.7568  0.4907
 1447ntf    on512521   4.449   3.292   1.471  0.6783  0.5552 -0.9601
 1447ntf    on512522   4.571   3.085   1.501 -0.8010 -0.3908  0.4032
 1447ntf    fn412523   4.312   3.006   1.654  0.0359  0.6057  0.1734
 1447ntf    fn412524   4.298   3.031   1.442  0.1657 -0.2969 -0.4756
 1447ntf    fn412525   4.219   3.179   1.591  0.2592 -0.1471  0.0362
 1448ntf    cn112526   3.283   1.291   5.239  0.1714  0.0213  0.5567
 1448ntf    sn212527   3.212   1.258   5.403  0.3505 -0.0432  0.6223
 1448ntf    nn312528   3.345   1.236   5.483  0.5977  0.0521  0.2388
 1448ntf    sn212529   3.357   1.211   5.637  0.2754 -0.3847  0.1961
 1448ntf    cn112530   3.349   1.030   5.640 -0.1514 -0.3687  0.0326
 1448ntf    fn412531   3.183   1.299   5.153  0.4836 -0.3973  0.1459
 1448ntf    fn412532   3.354   1.402   5.234 -0.0099  0.1078 -0.1635
 1448ntf    fn412533   3.365   1.197   5.193 -0.2780 -0.3183  0.4419
 1448ntf    on512534   3.144   1.384   5.423  0.1955  0.1073 -0.7367
 1448ntf    on512535   3.133   1.143   5.367  0.5056  0.1617 -0.4045
 1448ntf    on512536   3.488   1.249   5.684  0.5529  0.1179 -0.9554
 1448ntf    on512537   3.238   1.248   5.710  0.1029  0.0651 -0.3091
 1448ntf    fn412538   3.456   0.983   5.578  0.3815  0.0217  0.6325
 1448ntf    fn412539   3.240   0.976   5.589 -0.2371  0.1466 -0.3277
 1448ntf    fn412540   3.351   0.976   5.761  0.3750 -1.0223 -0.2581
 1449ntf    cn112541   1.411   5.504   4.342  0.1911  0.1118 -0.1117
 1449ntf    sn212542   1.536   5.610   4.263 -0.1612  0.4396 -0.2302
 1449ntf    nn312543   1.560   5.715   4.377 -0.3139  0.1959  0.0268
 1449ntf    sn212544   1.691   5.736   4.461 -0.2223  0.4047 -0.1664
 1449ntf    cn112545   1.790   5.853   4.365 -0.0949  0.5621  0.1549
 1449ntf    fn412546   1.456   5.437   4.448  0.0374 -0.1241 -0.1948
 1449ntf    fn412547   1.312   5.577   4.391 -0.0679 -0.4404  0.2008
 1449ntf    fn412548   1.358   5.409   4.267 -0.2746  0.2521  0.0373
 1449ntf    on512549   1.649   5.529   4.225 -0.3097 -0.1762  0.6041
 1449ntf    on512550   1.458   5.664   4.155 -0.3644  0.1615 -0.2254
 1449ntf    on512551   1.664   5.804   4.586 -0.2809 -0.2935  0.2124
 1449ntf    on512552   1.782   5.625   4.473  0.0667  0.6260 -0.3198
 1449ntf    fn412553   1.735   5.960   4.311  0.5026  0.5749 -0.4415
 1449ntf    fn412554   1.836   5.790   4.258  0.0762  0.8821  0.0375
 1449ntf    fn412555   1.896   5.903   4.427  0.5525 -0.5638 -0.0064
 1450ntf    cn112556   2.437   5.946   3.515 -0.6439 -0.1117 -0.0623
 1450ntf    sn212557   2.389   5.779   3.461 -0.0590 -0.4174  0.3571
 1450ntf    nn312558   2.417   5.707   3.598 -0.1122  0.0174  0.5967
 1450ntf    sn212559   2.325   5.709   3.726 -0.3932  0.1888  0.3924
 1450ntf    cn112560   2.236   5.551   3.716  0.1265 -0.0823 -0.0377
 1450ntf    fn412561   2.422   6.019   3.405 -0.2235  0.2156  0.0912
 1450ntf    fn412562   2.355   6.002   3.601 -0.2425  0.0616  0.2118
 1450ntf    fn412563   2.563   5.956   3.554 -0.5846 -0.3811 -0.1847
 1450ntf    on512564   2.252   5.784   3.419  0.2042 -0.2611 -0.5083
 1450ntf    on512565   2.489   5.741   3.364 -0.3581 -0.0783 -0.0841
 1450ntf    on512566   2.405   5.701   3.845  0.0144 -0.2717  0.0872
 1450ntf    on512567   2.220   5.809   3.727 -0.1068  0.4919  0.3892
 1450ntf    fn412568   2.303   5.445   3.759  0.1536 -0.1024 -0.1322
 1450ntf    fn412569   2.202   5.531   3.590  0.2723  0.3827 -0.1520
 1450ntf    fn412570   2.122   5.549   3.785 -0.0426 -0.2475 -0.3209
 1451ntf    cn112571   0.748   3.629   1.711  0.4044 -0.2366 -0.1005
 1451ntf    sn212572   0.762   3.810   1.701 -0.1468 -0.1812  0.0842
 1451ntf    nn312573   0.657   3.840   1.589  0.0722  0.9112  0.1570
 1451ntf    sn212574   0.705   3.839   1.439  0.0629 -0.3477  0.1466
 1451ntf    cn112575   0.763   4.011   1.425  0.4418 -0.4900 -0.0616
 1451ntf    fn412576   0.804   3.573   1.604 -0.0103 -0.1548 -0.3648
 1451ntf    fn412577   0.805   3.586   1.822 -0.0188 -0.2524  0.1103
 1451ntf    fn412578   0.620   3.598   1.722  0.4321 -0.1823  0.3854
 1451ntf    on512579   0.716   3.857   1.829 -0.3770 -0.5038  0.1193
 1451ntf    on512580   0.899   3.844   1.669 -0.3289 -0.0690 -0.5794
 1451ntf    on512581   0.812   3.750   1.403  0.5603  0.2341  0.1578
 1451ntf    on512582   0.592   3.847   1.350  0.0290 -0.0505  0.2130
 1451ntf    fn412583   0.893   4.022   1.447  0.2481  0.0969  0.8586
 1451ntf    fn412584   0.691   4.084   1.509  0.3558 -0.4397 -0.1775
 1451ntf    fn412585   0.738   4.063   1.305 -0.2012  0.0843  0.3158
 1452ntf    cn112586   2.693   3.091   1.175 -0.0520 -0.2100  0.6722
 1452ntf    sn212587   2.532   3.047   1.103  0.1908 -0.1498  0.0873
 1452ntf    nn312588   2.439   3.026   1.228 -0.0879  0.3549 -0.0367
 1452ntf    sn212589   2.365   3.129   1.321 -0.2627  0.2138 -0.0199
 1452ntf    cn112590   2.199   3.125   1.248 -0.1273 -0.5500 -0.2947
 1452ntf    fn412591   2.745   2.994   1.249  0.2225 -0.2262  0.4622
 1452ntf    fn412592   2.784   3.119   1.083 -0.1022 -0.2445  0.6121
 1452ntf    fn412593   2.684   3.203   1.245  0.5644 -0.0182  0.4518
 1452ntf    on512594   2.498   3.161   1.022 -0.1591 -0.0331  0.4003
 1452ntf    on512595   2.540   2.922   1.031 -0.5588  0.0962 -0.4305
 1452ntf    on512596   2.326   3.073   1.448 -0.0727  0.0393 -0.0369
 1452ntf    on512597   2.403   3.268   1.308  0.5966 -0.0165 -0.0625
 1452ntf    fn412598   2.104   3.139   1.339 -0.5144 -0.3317 -0.7296
 1452ntf    fn412599   2.170   3.009   1.191  0.3142 -0.4687 -0.6868
 1452ntf    fn412600   2.183   3.226   1.164  0.3069  0.0334  0.3201
 1453ntf    cn112601   2.667   3.373   0.280  0.2138  0.2200 -0.3886
 1453ntf    sn212602   2.584   3.493   0.172 -0.1761  0.2581 -0.0494
 1453ntf    nn312603   2.552   3.402   0.049  0.5017  0.3098 -0.2685
 1453ntf    sn212604   2.494   3.430  -0.094  0.1014 -0.4936 -0.2701
 1453ntf    cn112605   2.644   3.419  -0.196  0.1724 -0.3111 -0.1829
 1453ntf    fn412606   2.729   3.436   0.378 -0.3145  0.4726 -0.2099
 1453ntf    fn412607   2.585   3.281   0.329  0.4096  0.4552  0.3938
 1453ntf    fn412608   2.758   3.308   0.210 -0.0198 -0.1978 -0.3070
 1453ntf    on512609   2.462   3.524   0.243 -0.1786 -0.2188  0.1525
 1453ntf    on512610   2.685   3.595   0.152  0.1492 -0.0046  0.2419
 1453ntf    on512611   2.405   3.327  -0.142  0.1913 -0.6948 -0.0063
 1453ntf    on512612   2.439   3.561  -0.118  0.5424 -0.1870  0.3904
 1453ntf    fn412613   2.714   3.532  -0.195  0.2529 -0.3608  0.2853
 1453ntf    fn412614   2.626   3.385  -0.322  0.8537 -0.4879 -0.2385
 1453ntf    fn412615   2.727   3.326  -0.152  0.0946 -0.2282  0.1418
 1454ntf    cn112616   0.107   2.161   3.416 -0.0998  0.3568  0.5136
 1454ntf    sn212617   0.118   2.088   3.582  0.0683 -0.0317  0.3322
 1454ntf    nn312618   0.270   2.057   3.602  0.0474 -0.3444  0.0294
 1454ntf    sn212619   0.371   2.115   3.707 -0.2113 -0.1093  0.1482
 1454ntf    cn112620   0.458   2.224   3.590  0.0282 -0.3278  0.1218
 1454ntf    fn412621   0.133   2.072   3.321 -0.1101  0.3542  0.5128
 1454ntf    fn412622  -0.012   2.205   3.378 -0.3160 -0.7248 -0.0883
 1454ntf    fn412623   0.193   2.260   3.400 -0.1545  0.3999  0.4861
 1454ntf    on512624   0.046   2.187   3.658  0.3364 -0.0539  0.6144
 1454ntf    on512625   0.038   1.968   3.571 -0.2860  0.2505 -0.2557
 1454ntf    on512626   0.329   2.209   3.808  0.1671 -0.1306  0.3277
 1454ntf    on512627   0.474   2.019   3.738  0.3478  0.3436 -0.2726
 1454ntf    fn412628   0.392   2.259   3.480  0.3638  0.5306  0.1860
 1454ntf    fn412629   0.563   2.161   3.540 -0.0153 -0.2120 -0.1170
 1454ntf    fn412630   0.506   2.337   3.638 -0.0626 -0.2214 -0.0373
 1455ntf    cn112631   5.210   0.453   3.034  0.4637 -0.0980  0.0969
 1455ntf    sn212632   5.132   0.562   2.911  0.1511 -0.2169  0.1897
 1455ntf    nn312633   4.980   0.545   2.945  0.1782 -0.6060  0.1205
 1455ntf    sn212634   4.851   0.532   2.856  0.1839  0.2140 -0.0163
 1455ntf    cn112635   4.754   0.677   2.906  0.0095  0.1173 -0.0732
 1455ntf    fn412636   5.186   0.476   3.162  0.3279 -0.3321  0.1130
 1455ntf    fn412637   5.183   0.325   3.017 -0.0440  0.0892 -0.5290
 1455ntf    fn412638   5.340   0.470   3.017  0.4098 -0.1213 -0.3642
 1455ntf    on512639   5.177   0.695   2.944 -0.8860  0.1068  0.3409
 1455ntf    on512640   5.170   0.504   2.784  0.3644  0.1864  0.0662
 1455ntf    on512641   4.866   0.557   2.714  0.2330  0.6034  0.0563
 1455ntf    on512642   4.763   0.422   2.889  0.2160  0.1390 -0.1765
 1455ntf    fn412643   4.726   0.672   3.035  0.2715  0.2106 -0.0135
 1455ntf    fn412644   4.641   0.692   2.838 -0.2721 -0.3021  0.2949
 1455ntf    fn412645   4.832   0.783   2.895 -0.0134  0.1206 -0.2113
 1456ntf    cn112646   1.653   1.709   4.824 -0.1078  0.0492 -0.0600
 1456ntf    sn212647   1.529   1.600   4.901 -0.0788  0.0230 -0.0509
 1456ntf    nn312648   1.414   1.701   4.938 -0.0051 -0.0216  0.3036
 1456ntf    sn212649   1.308   1.686   5.052 -0.1421 -0.0476  0.1728
 1456ntf    cn112650   1.190   1.816   5.003 -0.1960 -0.2864 -0.3319
 1456ntf    fn412651   1.615   1.759   4.708  0.0666 -0.1570 -0.2064
 1456ntf    fn412652   1.677   1.817   4.897 -0.0614 -0.1024  0.1500
 1456ntf    fn412653   1.767   1.648   4.801 -0.2060 -0.0326 -0.3365
 1456ntf    on512654   1.497   1.513   4.790 -0.1992  0.9253 -0.7344
 1456ntf    on512655   1.611   1.546   5.007 -0.2266  0.0066  0.0550
 1456ntf    on512656   1.235   1.564   5.026 -0.2666  0.0939 -0.1475
 1456ntf    on512657   1.329   1.722   5.190 -0.0843  0.5255  0.0155
 1456ntf    fn412658   1.233   1.940   4.989  0.3796 -0.4980 -0.4933
 1456ntf    fn412659   1.088   1.820   5.086  0.2739  0.0256  0.2372
 1456ntf    fn412660   1.143   1.784   4.884 -0.2987 -0.3392 -0.2771
 1457ntf    cn112661   6.546   0.704   4.272 -0.0790  0.4835  0.2384
 1457ntf    sn212662   6.608   0.733   4.104 -0.1632 -0.1389  0.0952
 1457ntf    nn312663   6.745   0.656   4.113 -0.3512 -0.5331 -0.3684
 1457ntf    sn212664   6.786   0.512   4.068  0.1941 -0.5530  0.1710
 1457ntf    cn112665   6.834   0.521   3.893 -0.1659 -0.0357  0.0972
 1457ntf    fn412666   6.415   0.705   4.283 -0.0649 -0.0677  0.5216
 1457ntf    fn412667   6.597   0.588   4.310  0.2160  0.3740 -0.4880
 1457ntf    fn412668   6.585   0.787   4.368 -0.4946  0.4810  0.4088
 1457ntf    on512669   6.506   0.679   4.018 -0.0287 -0.8231  0.3641
 1457ntf    on512670   6.654   0.870   4.095  0.0428 -0.2240 -0.1776
 1457ntf    on512671   6.909   0.467   4.128  0.2259  0.1486  0.6438
 1457ntf    on512672   6.682   0.412   4.062 -0.1798 -0.1485 -0.1701
 1457ntf    fn412673   6.935   0.604   3.869 -0.1277 -0.3332 -0.8162
 1457ntf    fn412674   6.736   0.567   3.817  0.1042  0.6674  0.1640
 1457ntf    fn412675   6.862   0.403   3.840 -0.7243 -0.0764 -0.1174
 1458ntf    cn112676   2.160   3.388   6.175  0.0298  0.0832  0.0030
 1458ntf    sn212677   2.252   3.304   6.308  0.2919  0.0122 -0.2209
 1458ntf    nn312678   2.153   3.188   6.345  0.4312  0.0900  0.4133
 1458ntf    sn212679   2.149   3.043   6.285 -0.4114  0.2672  0.0170
 1458ntf    cn112680   2.072   2.957   6.426  0.3020 -0.4168 -0.0016
 1458ntf    fn412681   2.129   3.307   6.075 -0.3443  0.0078  0.1767
 1458ntf    fn412682   2.050   3.447   6.218  0.1369  0.3479 -0.0825
 1458ntf    fn412683   2.233   3.485   6.123  0.3226 -0.3177 -0.3382
 1458ntf    on512684   2.374   3.267   6.242  0.4439 -0.4816  0.3276
 1458ntf    on512685   2.262   3.406   6.410  0.2710 -0.1582 -0.0475
 1458ntf    on512686   2.069   3.029   6.166 -0.1973  0.7412 -0.1839
 1458ntf    on512687   2.275   2.972   6.282 -0.6778 -0.2130  0.0359
 1458ntf    fn412688   1.955   3.004   6.466  0.3732  0.2522 -0.5551
 1458ntf    fn412689   2.150   2.965   6.532  0.1454 -0.2569  0.1012
 1458ntf    fn412690   2.046   2.829   6.407  0.2710 -0.3175 -0.6755
 1459ntf    cn112691   4.194   2.687   4.061 -0.0692 -0.4025 -0.0099
 1459ntf    sn212692   4.105   2.776   4.192 -0.0221 -0.0684 -0.2026
 1459ntf    nn312693   4.215   2.882   4.228  0.4311 -0.6708  0.2121
 1459ntf    sn212694   4.327   2.864   4.337  0.5820  0.1810  0.2002
 1459ntf    cn112695   4.251   2.962   4.470  0.1524 -0.0206  0.1078
 1459ntf    fn412696   4.116   2.594   4.006 -0.4370  0.1731 -0.4735
 1459ntf    fn412697   4.245   2.766   3.968 -0.2414  0.0102  0.2451
 1459ntf    fn412698   4.288   2.609   4.111  0.0706 -0.3561 -0.2002
 1459ntf    on512699   3.993   2.838   4.126 -0.0515 -0.1535 -0.2330
 1459ntf    on512700   4.077   2.681   4.297 -0.0945 -0.2022 -0.3418
 1459ntf    on512701   4.343   2.734   4.396  0.3290  0.0786  0.0467
 1459ntf    on512702   4.443   2.935   4.290  0.1820  0.5887 -0.1918
 1459ntf    fn412703   4.244   3.089   4.433  0.2573  0.0912  0.4643
 1459ntf    fn412704   4.312   2.959   4.588  0.1907 -0.2662  0.0820
 1459ntf    fn412705   4.126   2.928   4.493  0.0892  0.2034  0.0990
 1460ntf    cn112706   1.324   5.051   3.711 -0.1222 -0.5553  0.5873
 1460ntf    sn212707   1.476   4.953   3.695  0.2255  0.1148 -0.3130
 1460ntf    nn312708   1.583   5.067   3.699 -0.0784  0.3831  0.5833
 1460ntf    sn212709   1.691   5.115   3.595 -0.4469  0.2960  0.1558
 1460ntf    cn112710   1.608   5.261   3.526 -0.4339  0.1725 -0.1191
 1460ntf    fn412711   1.220   4.985   3.664  0.0033 -0.2451 -0.1391
 1460ntf    fn412712   1.300   5.101   3.832 -0.1928  0.2456  0.2520
 1460ntf    fn412713   1.326   5.160   3.636 -0.5154 -0.6817  0.3928
 1460ntf    on512714   1.482   4.869   3.813 -0.5632  0.4431 -0.0322
 1460ntf    on512715   1.459   4.894   3.565 -0.2089 -0.4437 -0.0066
 1460ntf    on512716   1.810   5.170   3.655 -0.6010  0.4489  0.3259
 1460ntf    on512717   1.719   5.030   3.482  0.0863  0.0937  0.4370
 1460ntf    fn412718   1.565   5.340   3.623 -0.2807  0.3697 -0.2103
 1460ntf    fn412719   1.495   5.235   3.463 -0.3387 -0.1015 -0.1763
 1460ntf    fn412720   1.681   5.341   3.449  0.1807 -0.1922  0.0761
 1461ntf    cn112721   4.126   2.230   2.456  0.0360 -0.0775  0.2853
 1461ntf    sn212722   4.101   2.345   2.318  0.1669 -0.0642  0.2729
 1461ntf    nn312723   4.026   2.463   2.389  0.3672  0.1713  0.0954
 1461ntf    sn212724   3.898   2.541   2.343  0.2327 -0.0826  0.0393
 1461ntf    cn112725   3.957   2.608   2.185  0.0119 -0.1358 -0.0667
 1461ntf    fn412726   4.201   2.278   2.554  0.3943 -0.2152  0.0786
 1461ntf    fn412727   4.015   2.174   2.502  0.3244 -0.6633  0.2817
 1461ntf    fn412728   4.196   2.128   2.409  0.3351  0.1310  0.2814
 1461ntf    on512729   4.233   2.381   2.272  0.1786  0.0797  0.4188
 1461ntf    on512730   4.027   2.270   2.219 -0.6108  0.8298  0.1626
 1461ntf    on512731   3.781   2.463   2.310  0.4650 -0.5103  0.2079
 1461ntf    on512732   3.873   2.654   2.429  0.0476  0.4060 -0.6527
 1461ntf    fn412733   3.995   2.512   2.102 -0.2527 -0.0798 -0.2532
 1461ntf    fn412734   4.058   2.691   2.207  0.2780 -0.4377 -0.1356
 1461ntf    fn412735   3.864   2.676   2.120 -0.2054 -0.0741  0.3065
 1462ntf    cn112736   5.403   1.892   3.915 -0.1244  0.2246  0.4349
 1462ntf    sn212737   5.574   1.830   3.921 -0.2765 -0.2155  0.2609
 1462ntf    nn312738   5.553   1.725   4.035 -0.4609  0.0715  0.4940
 1462ntf    sn212739   5.593   1.573   4.045  0.1132  0.1670 -0.2484
 1462ntf    cn112740   5.755   1.575   4.129 -0.0445  0.0231  0.0591
 1462ntf    fn412741   5.400   2.001   3.840 -0.0199 -0.2176 -0.2218
 1462ntf    fn412742   5.310   1.820   3.854  0.4296 -0.0007 -0.1533
 1462ntf    fn412743   5.356   1.920   4.036 -0.9433  0.9161 -0.0280
 1462ntf    on512744   5.597   1.794   3.783  0.4417  0.0805  0.3003
 1462ntf    on512745   5.648   1.946   3.965  0.4222 -0.3897 -0.4234
 1462ntf    on512746   5.500   1.503   4.130  0.1748 -0.1369 -0.4310
 1462ntf    on512747   5.635   1.507   3.924 -0.3803 -0.7892  0.0954
 1462ntf    fn412748   5.757   1.639   4.245  0.0544  0.7097 -0.3183
 1462ntf    fn412749   5.849   1.639   4.062  0.0021 -0.5915 -0.4781
 1462ntf    fn412750   5.801   1.455   4.161  0.2678  0.2035  0.2854
 1463ntf    cn112751   3.136   2.779   2.805 -0.3725  0.2826 -0.3379
 1463ntf    sn212752   3.110   2.759   2.984  0.2881  0.0932 -0.2584
 1463ntf    nn312753   3.210   2.864   3.043 -0.1748 -0.0809  0.8668
 1463ntf    sn212754   3.362   2.850   3.080 -0.0353  0.6585  0.6039
 1463ntf    cn112755   3.355   2.763   3.239 -0.0599  0.1622  0.3366
 1463ntf    fn412756   3.262   2.760   2.768 -0.2963  0.2201 -0.0472
 1463ntf    fn412757   3.064   2.700   2.727 -0.4416  0.0976 -0.0883
 1463ntf    fn412758   3.107   2.901   2.764 -0.1065  0.4998  0.1119
 1463ntf    on512759   2.974   2.803   3.002  0.2038  0.0222 -0.6968
 1463ntf    on512760   3.135   2.621   3.017  0.0320  0.1539  0.2011
 1463ntf    on512761   3.441   2.763   2.997 -0.0736  0.3341  0.9056
 1463ntf    on512762   3.422   2.972   3.127  0.2631  0.5465  0.5164
 1463ntf    fn412763   3.473   2.721   3.281  0.0409 -0.0183 -0.1270
 1463ntf    fn412764   3.278   2.656   3.241  0.0299  0.0978  0.2880
 1463ntf    fn412765   3.310   2.836   3.340  0.2838  0.8017  0.0333
 1464ntf    cn112766   3.701   5.311   5.785 -0.5863 -0.2984 -0.3902
 1464ntf    sn212767   3.744   5.411   5.639 -0.2932  0.1305 -0.0121
 1464ntf    nn312768   3.681   5.552   5.667 -0.4805  0.0852 -0.2129
 1464ntf    sn212769   3.752   5.691   5.680  0.0254 -0.2037  0.1051
 1464ntf    cn112770   3.624   5.776   5.776 -0.0653 -0.2442  0.0201
 1464ntf    fn412771   3.768   5.367   5.884  0.1257 -0.1511 -0.9485
 1464ntf    fn412772   3.574   5.321   5.820 -0.5816  0.2974 -0.5211
 1464ntf    fn412773   3.733   5.183   5.780 -0.1246 -0.1918 -0.1933
 1464ntf    on512774   3.888   5.415   5.628 -0.3052  0.2279 -0.1253
 1464ntf    on512775   3.676   5.327   5.544  0.2211 -0.3050 -0.0018
 1464ntf    on512776   3.868   5.691   5.766 -0.3328  0.0282  0.5903
 1464ntf    on512777   3.762   5.756   5.552  0.3547 -0.6285 -0.0896
 1464ntf    fn412778   3.614   5.730   5.900  0.6722 -0.3629  0.0407
 1464ntf    fn412779   3.503   5.750   5.729 -0.3326  0.1432  0.4776
 1464ntf    fn412780   3.639   5.908   5.777 -0.7737 -0.1559 -0.3872
 1465ntf    cn112781   2.074   6.134   2.023  0.1887 -0.2396  0.2034
 1465ntf    sn212782   2.242   6.196   2.051  0.1210  0.0131  0.0597
 1465ntf    nn312783   2.285   6.109   2.175 -0.1034 -0.1698  0.0095
 1465ntf    sn212784   2.334   6.153   2.317 -0.0512  0.2523 -0.1388
 1465ntf    cn112785   2.515   6.144   2.305 -0.0448  0.3279 -0.1081
 1465ntf    fn412786   2.050   6.004   2.037  0.1929 -0.2776 -0.1140
 1465ntf    fn412787   1.978   6.187   2.097  0.2628  0.4933 -0.2123
 1465ntf    fn412788   2.050   6.156   1.894 -0.0697 -0.6380  0.1815
 1465ntf    on512789   2.307   6.163   1.927  0.4629  0.1777  0.1943
 1465ntf    on512790   2.227   6.338   2.070  0.1634  0.0774 -0.3863
 1465ntf    on512791   2.291   6.284   2.360  0.4820  0.3176  0.2063
 1465ntf    on512792   2.326   6.052   2.420 -0.6139 -0.3943 -0.8087
 1465ntf    fn412793   2.586   6.152   2.416 -0.1362 -0.1347 -0.0168
 1465ntf    fn412794   2.570   6.233   2.223  0.2913 -0.2552 -0.5282
 1465ntf    fn412795   2.569   6.037   2.248  0.5348  0.4845  0.1329
 1466ntf    cn112796   3.217   5.870   1.908  0.1953 -0.1900  0.1729
 1466ntf    sn212797   3.072   5.913   2.009  0.2276  0.3799 -0.0136
 1466ntf    nn312798   3.087   6.069   2.015  0.3420  0.4036 -0.8285
 1466ntf    sn212799   3.198   6.164   2.073  0.2656 -0.0385  0.0678
 1466ntf    cn112800   3.091   6.294   2.140 -0.2813 -0.6968  0.4893
 1466ntf    fn412801   3.239   5.926   1.790 -0.5542 -0.4466 -0.0946
 1466ntf    fn412802   3.326   5.902   1.975  0.4714 -0.5872 -0.0874
 1466ntf    fn412803   3.229   5.742   1.877  0.2164 -0.2671  0.4960
 1466ntf    on512804   2.960   5.862   1.933  0.0477  0.5177  0.1554
 1466ntf    on512805   3.103   5.848   2.135 -0.2105  0.4218  0.1181
 1466ntf    on512806   3.259   6.117   2.195 -0.2567  0.1668  0.4134
 1466ntf    on512807   3.286   6.230   1.979  0.5386  0.2101  0.4964
 1466ntf    fn412808   3.033   6.374   2.052  0.4736 -0.6759  0.0001
 1466ntf    fn412809   3.162   6.374   2.218 -0.8951  0.3481 -0.0009
 1466ntf    fn412810   2.990   6.251   2.214 -0.4720 -0.3385  0.4384
 1467ntf    cn112811   3.749   4.275   0.484  0.3588  0.0504  0.1703
 1467ntf    sn212812   3.845   4.125   0.521 -0.3369 -0.3178  0.4986
 1467ntf    nn312813   3.833   4.051   0.383  0.8694  0.0899  0.1591
 1467ntf    sn212814   3.863   3.903   0.341  0.0962 -0.1139  0.3028
 1467ntf    cn112815   3.725   3.843   0.240  0.5978  0.0893 -0.5142
 1467ntf    fn412816   3.793   4.322   0.368  0.4078  0.1716  0.2378
 1467ntf    fn412817   3.619   4.253   0.479  0.4643 -0.4773 -0.3320
 1467ntf    fn412818   3.761   4.368   0.577  0.3576 -0.0545  0.2753
 1467ntf    on512819   3.975   4.185   0.541 -0.1356 -0.6216  0.1204
 1467ntf    on512820   3.780   4.057   0.630 -0.0721 -0.4906  0.5487
 1467ntf    on512821   3.978   3.892   0.254 -0.7015  0.0980 -0.8037
 1467ntf    on512822   3.867   3.813   0.454  0.0789 -0.2411  0.2022
 1467ntf    fn412823   3.604   3.873   0.284  0.9141  1.2226 -0.3895
 1467ntf    fn412824   3.728   3.711   0.240 -0.2184  0.0592  0.2719
 1467ntf    fn412825   3.735   3.898   0.120  0.5163  0.0836 -0.5239
 1468ntf    cn112826   4.971   1.071   5.508 -0.1926 -0.0739 -0.1524
 1468ntf    sn212827   4.886   0.918   5.560 -0.2066 -0.0850 -0.2091
 1468ntf    nn312828   4.752   0.983   5.608  0.0585  0.1426  0.2282
 1468ntf    sn212829   4.726   1.024   5.758 -0.0670 -0.0214  0.2508
 1468ntf    cn112830   4.547   1.046   5.733 -0.0378  0.2522  0.2801
 1468ntf    fn412831   5.088   1.045   5.452  0.0759  0.3084  0.2222
 1468ntf    fn412832   4.898   1.130   5.416 -0.4786 -0.3850 -0.1260
 1468ntf    fn412833   4.976   1.155   5.610  0.1634 -0.4273  0.1295
 1468ntf    on512834   4.875   0.841   5.438  0.1728 -0.2424 -0.1456
 1468ntf    on512835   4.968   0.861   5.663 -0.1711  0.0719 -0.1495
 1468ntf    on512836   4.729   0.910   5.847  0.1095 -0.1691  0.0578
 1468ntf    on512837   4.768   1.156   5.797 -0.3430  0.1455 -0.0149
 1468ntf    fn412838   4.479   0.939   5.694  0.3649 -0.0644  0.4353
 1468ntf    fn412839   4.523   1.137   5.640  0.2266  0.3125  0.2687
 1468ntf    fn412840   4.480   1.086   5.840 -0.1456 -0.0980  0.3464
 1469ntf    cn112841   6.750   5.250   2.027  0.0587 -0.6202  0.2812
 1469ntf    sn212842   6.571   5.276   2.038  0.1222 -0.1253  0.1351
 1469ntf    nn312843   6.566   5.411   1.956 -0.0047 -0.3168 -0.1746
 1469ntf    sn212844   6.448   5.512   1.935  0.1932 -0.0803 -0.1577
 1469ntf    cn112845   6.435   5.477   1.757 -0.2728 -0.1056 -0.1207
 1469ntf    fn412846   6.784   5.214   1.904  0.1638  0.2998  0.0330
 1469ntf    fn412847   6.812   5.363   2.054 -0.4406 -0.3105  0.1293
 1469ntf    fn412848   6.800   5.169   2.120  0.2566 -0.6741  0.1293
 1469ntf    on512849   6.520   5.157   1.975  0.4325 -0.0072 -0.3473
 1469ntf    on512850   6.542   5.297   2.177 -0.6874  0.7442 -0.1487
 1469ntf    on512851   6.321   5.473   1.991  0.0563  0.1617 -0.3015
 1469ntf    on512852   6.483   5.651   1.927 -0.0983 -0.0171 -0.3404
 1469ntf    fn412853   6.395   5.352   1.737 -0.2699 -0.0305 -0.6041
 1469ntf    fn412854   6.542   5.496   1.682  0.0499 -0.3986  0.2573
 1469ntf    fn412855   6.341   5.561   1.718  0.0659  0.5913  0.5329
 1470ntf    cn112856   2.933   6.567   4.497 -0.0123  0.3379  0.1387
 1470ntf    sn212857   2.919   6.707   4.613 -0.2466  0.1685  0.3134
 1470ntf    nn312858   3.013   6.655   4.728  0.3964 -0.5646 -0.5352
 1470ntf    sn212859   2.975   6.567   4.852 -0.0865  0.4664  0.0595
 1470ntf    cn112860   2.919   6.702   4.960 -0.1138  0.4279  0.0924
 1470ntf    fn412861   2.891   6.451   4.545 -0.2410  0.6163  0.6222
 1470ntf    fn412862   2.860   6.583   4.388  0.2524  0.0472 -0.0826
 1470ntf    fn412863   3.059   6.548   4.460 -0.1532 -0.5282  0.0827
 1470ntf    on512864   2.970   6.821   4.541  0.1885 -0.2248 -0.0043
 1470ntf    on512865   2.781   6.706   4.654 -0.2943 -0.9121  0.1718
 1470ntf    on512866   2.864   6.475   4.839  0.0725  0.3263 -0.3509
 1470ntf    on512867   3.091   6.511   4.916 -0.3004 -0.2176 -0.1418
 1470ntf    fn412868   3.007   6.799   4.977 -0.2331  0.4923  0.3511
 1470ntf    fn412869   2.879   6.655   5.077 -0.5002  0.6789  0.0632
 1470ntf    fn412870   2.809   6.758   4.912 -0.1794  0.1912 -0.0382
 1471ntf    cn112871   3.773   4.592   2.763 -0.0060 -0.3475 -0.1079
 1471ntf    sn212872   3.645   4.685   2.673  0.1250  0.0574  0.1199
 1471ntf    nn312873   3.512   4.623   2.727  0.1592  0.0103  0.1504
 1471ntf    sn212874   3.468   4.626   2.877  0.0942  0.1262  0.1294
 1471ntf    cn112875   3.345   4.760   2.883 -0.0736 -0.0297  0.1820
 1471ntf    fn412876   3.858   4.531   2.683  0.1271 -0.2624 -0.0328
 1471ntf    fn412877   3.846   4.658   2.853 -0.2422 -0.0439 -0.1356
 1471ntf    fn412878   3.720   4.487   2.825  0.1716 -0.3006  0.1283
 1471ntf    on512879   3.663   4.822   2.714  0.5195 -0.0129  0.1943
 1471ntf    on512880   3.665   4.656   2.533  0.3639  0.7251  0.0125
 1471ntf    on512881   3.398   4.504   2.910 -0.0594  0.1723 -0.0223
 1471ntf    on512882   3.566   4.667   2.975 -0.4763  0.0468  0.7479
 1471ntf    fn412883   3.382   4.873   2.825 -0.7605  0.0063 -0.1896
 1471ntf    fn412884   3.312   4.785   3.009 -0.0022 -0.0109  0.1970
 1471ntf    fn412885   3.231   4.729   2.824  0.1531  0.4691 -0.5326
 1472ntf    cn112886   0.291   2.010   6.757  0.3204 -0.1226 -0.0200
 1472ntf    sn212887   0.139   1.945   6.681  0.0066  0.6518 -0.0648
 1472ntf    nn312888   0.206   1.848   6.579 -1.2013 -0.0130 -0.2478
 1472ntf    sn212889   0.192   1.692   6.560  0.4116 -0.1684 -0.3136
 1472ntf    cn112890   0.356   1.622   6.597  0.4492 -0.1289 -0.4040
 1472ntf    fn412891   0.274   2.051   6.882 -0.2209  0.3497 -0.2437
 1472ntf    fn412892   0.388   1.921   6.762  0.2816 -0.1372  0.5918
 1472ntf    fn412893   0.347   2.112   6.693 -0.0941 -0.1429 -0.4184
 1472ntf    on512894   0.085   1.886   6.801 -0.5334 -0.5194 -0.8647
 1472ntf    on512895   0.075   2.066   6.636 -0.7021  0.1512 -0.4276
 1472ntf    on512896   0.119   1.624   6.663  0.2475  0.2546 -0.1458
 1472ntf    on512897   0.157   1.655   6.425 -0.3170  0.4942 -0.3169
 1472ntf    fn412898   0.436   1.684   6.512  0.5811 -0.1912 -0.3236
 1472ntf    fn412899   0.370   1.491   6.586 -0.3865 -0.2250 -0.4319
 1472ntf    fn412900   0.402   1.658   6.716  0.2291 -0.8027 -0.1104
 1473ntf    cn112901   0.962   1.524   3.388  0.1941 -0.6207  0.1671
 1473ntf    sn212902   0.985   1.587   3.219  0.0398 -0.2744  0.2746
 1473ntf    nn312903   1.055   1.726   3.243  0.0855 -0.3573  0.6259
 1473ntf    sn212904   1.004   1.874   3.246 -0.0809 -0.3965 -0.0148
 1473ntf    cn112905   1.022   1.935   3.076 -0.1284  0.0306  0.1311
 1473ntf    fn412906   1.028   1.414   3.418 -0.2853 -0.9201  0.1377
 1473ntf    fn412907   1.014   1.609   3.475  0.2030 -0.2821 -0.1659
 1473ntf    fn412908   0.832   1.514   3.412  0.1414 -0.1959  0.0701
 1473ntf    on512909   1.071   1.496   3.148  0.0969  0.4886 -0.6564
 1473ntf    on512910   0.851   1.598   3.168  0.3453 -0.2081 -0.5304
 1473ntf    on512911   0.862   1.894   3.264  0.0067 -0.0007  0.2703
 1473ntf    on512912   1.094   1.963   3.317 -0.6899 -0.2931  0.6439
 1473ntf    fn412913   0.932   1.892   2.990  0.2274 -0.1393 -0.1601
 1473ntf    fn412914   1.136   1.903   3.018 -0.1843 -0.0247  0.0515
 1473ntf    fn412915   1.011   2.067   3.071 -0.0850  0.0385  0.2409
 1474ntf    cn112916   2.476   4.034   1.192  0.2465  0.3375  0.5084
 1474ntf    sn212917   2.392   3.938   1.062  0.4466  0.0804  0.5669
 1474ntf    nn312918   2.268   3.890   1.145  0.4430 -0.0035  0.5130
 1474ntf    sn212919   2.129   3.958   1.166  0.2064 -0.1758 -0.4383
 1474ntf    cn112920   2.021   3.859   1.059 -0.0096 -0.0657 -0.3236
 1474ntf    fn412921   2.583   4.102   1.156  0.4378  0.0048  0.4386
 1474ntf    fn412922   2.386   4.124   1.226 -0.1130  0.0094  0.4386
 1474ntf    fn412923   2.505   3.962   1.299 -0.3266 -0.0907  0.3802
 1474ntf    on512924   2.366   4.037   0.960  0.2780 -0.0964  0.4386
 1474ntf    on512925   2.499   3.847   1.030  0.1387 -0.0334 -0.1784
 1474ntf    on512926   2.077   3.939   1.299  0.3879 -0.5479 -0.4202
 1474ntf    on512927   2.114   4.091   1.112  0.4209  0.2236  0.4606
 1474ntf    fn412928   1.993   3.737   1.102  0.0481  0.1340  0.2936
 1474ntf    fn412929   2.076   3.836   0.941  0.7115  0.7662 -0.1624
 1474ntf    fn412930   1.908   3.917   1.019 -0.1653 -0.1936 -0.0729
 1475ntf    cn112931   1.933   4.144   4.632 -0.0127  0.0406 -0.0533
 1475ntf    sn212932   1.843   4.034   4.519 -0.0177  0.0612 -0.0688
 1475ntf    nn312933   1.827   3.902   4.601  0.2048  0.3694  0.4749
 1475ntf    sn212934   1.927   3.781   4.603  0.2547  0.3988 -0.1789
 1475ntf    cn112935   1.882   3.676   4.461 -0.0339 -0.4482  0.5303
 1475ntf    fn412936   2.026   4.080   4.701 -0.0225  0.2126  0.1215
 1475ntf    fn412937   1.987   4.244   4.565  0.1979 -0.2718 -0.3523
 1475ntf    fn412938   1.861   4.209   4.722  0.3691 -0.2482  0.4636
 1475ntf    on512939   1.719   4.107   4.507 -0.1641 -0.2232 -0.3060
 1475ntf    on512940   1.925   4.019   4.401 -0.0688 -0.4275 -0.0454
 1475ntf    on512941   2.067   3.815   4.589  0.4705 -0.4964 -0.2513
 1475ntf    on512942   1.898   3.687   4.709  0.0474  0.2072 -0.4037
 1475ntf    fn412943   1.975   3.593   4.417  0.7055  0.3433  0.5699
 1475ntf    fn412944   1.839   3.747   4.358  0.0626 -0.4701  0.4741
 1475ntf    fn412945   1.770   3.607   4.474 -0.3840  0.0776  0.3588
 1476ntf    cn112946   4.374   2.281   4.989 -0.0534  0.6382 -0.6610
 1476ntf    sn212947   4.194   2.258   4.978 -0.0430 -0.0068  0.4027
 1476ntf    nn312948   4.188   2.248   4.822  0.6337 -0.2712  0.3897
 1476ntf    sn212949   4.182   2.113   4.741 -0.2768 -0.0083  0.0129
 1476ntf    cn112950   4.017   2.045   4.773 -0.4125  0.0492 -0.5463
 1476ntf    fn412951   4.399   2.396   4.930  0.2973  0.3384 -1.1067
 1476ntf    fn412952   4.414   2.288   5.115 -0.2075 -0.3610 -0.5447
 1476ntf    fn412953   4.444   2.183   4.933 -0.1487 -0.1142  0.4973
 1476ntf    on512954   4.161   2.144   5.060  0.0177 -0.8807 -0.7579
 1476ntf    on512955   4.147   2.385   5.028 -0.3115  0.1889 -0.3412
 1476ntf    on512956   4.165   2.136   4.599  1.4985 -0.2807 -0.2628
 1476ntf    on512957   4.280   2.013   4.775 -0.3283  0.0661  0.3866
 1476ntf    fn412958   3.914   2.101   4.711 -0.0188  0.3345 -0.9423
 1476ntf    fn412959   3.982   2.038   4.901  0.5949  0.1683 -0.2574
 1476ntf    fn412960   4.016   1.918   4.737 -0.2616  0.1738 -0.9915
 1477ntf    cn112961   0.445   0.968   2.730  0.4966  0.2496  0.1390
 1477ntf    sn212962   0.380   1.052   2.583 -0.1820 -0.0413  0.2672
 1477ntf    nn312963   0.227   1.034   2.613 -0.4389 -0.2146 -1.0679
 1477ntf    sn212964   0.112   1.130   2.567 -0.4667  0.2145 -0.1389
 1477ntf    cn112965   0.122   1.265   2.688 -0.2736  0.0422  0.0368
 1477ntf    fn412966   0.428   0.839   2.703 -0.1843  0.2905  0.3413
 1477ntf    fn412967   0.575   0.991   2.740  0.5176  0.0523  0.3466
 1477ntf    fn412968   0.386   1.001   2.844  0.5650 -0.0203  0.2554
 1477ntf    on512969   0.429   1.187   2.596 -0.2848  0.0377 -0.1566
 1477ntf    on512970   0.434   0.969   2.478  0.0915  0.0659  0.3217
 1477ntf    on512971   0.125   1.194   2.438 -0.0327  0.3664 -0.0205
 1477ntf    on512972  -0.019   1.077   2.596 -0.3097 -0.1688 -0.1313
 1477ntf    fn412973   0.098   1.227   2.813 -0.1186  0.4503  0.1937
 1477ntf    fn412974   0.028   1.353   2.658  0.0940  0.2851 -0.4230
 1477ntf    fn412975   0.241   1.322   2.698 -0.2490  0.0552 -0.3097
 1478ntf    cn112976   4.972   3.185   1.061 -0.1101  0.2134  0.3289
 1478ntf    sn212977   5.095   3.160   0.930 -0.1622 -0.0888  0.3372
 1478ntf    nn312978   4.993   3.136   0.813 -0.1083 -0.0021  0.2723
 1478ntf    sn212979   5.011   3.052   0.682  0.2772  0.1455  0.2288
 1478ntf    cn112980   4.990   3.171   0.546  0.3262 -0.2586 -0.1377
 1478ntf    fn412981   5.024   3.189   1.183  0.4497  0.8062  0.0754
 1478ntf    fn412982   4.898   3.295   1.055  0.2458  0.5052  1.0846
 1478ntf    fn412983   4.890   3.082   1.069 -0.0340  0.1474  0.2565
 1478ntf    on512984   5.170   3.282   0.916 -0.5393  0.1172  0.1184
 1478ntf    on512985   5.163   3.038   0.968  0.1926  0.2157  0.6917
 1478ntf    on512986   5.139   2.994   0.649 -0.1371 -0.3392 -0.5816
 1478ntf    on512987   4.896   2.967   0.665  0.3557  0.1592 -0.4033
 1478ntf    fn412988   4.973   3.102   0.435 -0.5344  0.5306 -0.5099
 1478ntf    fn412989   5.100   3.244   0.532 -0.1104  0.3818 -0.2815
 1478ntf    fn412990   4.881   3.245   0.558  0.3098 -0.2347 -0.4483
 1479ntf    cn112991   2.725   3.884   4.699 -0.2092  0.0472  0.5014
 1479ntf    sn212992   2.635   3.764   4.802 -0.1998 -0.2810  0.1322
 1479ntf    nn312993   2.682   3.817   4.943 -0.1509 -0.2477  0.1032
 1479ntf    sn212994   2.727   3.726   5.062  0.0831 -0.2994 -0.0253
 1479ntf    cn112995   2.622   3.805   5.188  0.3101 -0.3098  0.1704
 1479ntf    fn412996   2.658   3.984   4.644  0.3001  0.3677  0.4586
 1479ntf    fn412997   2.818   3.938   4.776  0.2934 -0.0211 -0.0454
 1479ntf    fn412998   2.784   3.816   4.602 -0.3957 -0.2897  0.6226
 1479ntf    on512999   2.497   3.792   4.772 -0.2068  0.1090  0.5137
 1479ntf    on513000   2.688   3.638   4.757  0.4013  0.0561 -0.1137
 1479ntf    on513001   2.699   3.585   5.057 -0.6915 -0.1328 -0.7143
 1479ntf    on513002   2.861   3.758   5.105  0.1805 -0.4483 -0.2165
 1479ntf    fn413003   2.493   3.796   5.162  0.3802 -0.5096 -0.1115
 1479ntf    fn413004   2.646   3.935   5.198 -0.5001 -0.1545  0.1086
 1479ntf    fn413005   2.643   3.760   5.311 -0.2778 -0.1183  0.3401
 1480ntf    cn113006   5.613   5.512   1.755  0.2490 -0.5401 -0.1615
 1480ntf    sn213007   5.740   5.396   1.813  0.0280 -0.7261 -0.0484
 1480ntf    nn313008   5.844   5.427   1.700 -0.2784  0.4719 -0.0069
 1480ntf    sn213009   5.997   5.463   1.696 -0.1470 -0.0914 -0.1104
 1480ntf    cn113010   6.058   5.353   1.566 -0.2430 -0.0352 -0.2035
 1480ntf    fn413011   5.648   5.635   1.786  0.2332 -0.5988  0.0899
 1480ntf    fn413012   5.601   5.509   1.623 -0.5690 -0.3225 -0.0957
 1480ntf    fn413013   5.490   5.492   1.800  0.1143 -0.1465 -0.3533
 1480ntf    on513014   5.767   5.442   1.948 -0.0011 -0.3037 -0.1853
 1480ntf    on513015   5.669   5.272   1.789 -0.7244 -0.2822 -0.1405
 1480ntf    on513016   6.023   5.598   1.653 -0.5924  0.3334  0.9083
 1480ntf    on513017   6.064   5.419   1.816  0.2914  0.5815 -0.1056
 1480ntf    fn413018   6.190   5.364   1.557 -0.3092  0.3872 -0.6654
 1480ntf    fn413019   6.017   5.382   1.443 -0.0760  0.0498 -0.2390
 1480ntf    fn413020   6.026   5.225   1.583 -0.2653 -0.0121 -0.0693
 1481ntf    cn113021   3.699   5.808   0.621  0.0613  0.6249  0.3388
 1481ntf    sn213022   3.789   5.650   0.629 -0.3223  0.3815 -0.1269
 1481ntf    nn313023   3.810   5.628   0.475 -0.0687 -0.0037 -0.0353
 1481ntf    sn213024   3.833   5.490   0.403  0.0906 -0.0915  0.1823
 1481ntf    cn113025   3.753   5.522   0.243 -0.2165 -0.1120  0.3294
 1481ntf    fn413026   3.597   5.802   0.537  0.2251  0.1331  0.1715
 1481ntf    fn413027   3.655   5.855   0.736 -0.6735  0.5769  0.0826
 1481ntf    fn413028   3.784   5.898   0.576  0.3486 -0.0223 -0.4320
 1481ntf    on513029   3.909   5.693   0.695 -0.3975  0.2684  0.0817
 1481ntf    on513030   3.700   5.568   0.707  0.2403 -0.5290 -0.4398
 1481ntf    on513031   3.967   5.445   0.375 -0.1003 -0.3755 -0.2934
 1481ntf    on513032   3.740   5.387   0.444 -0.0905 -0.1972 -0.4862
 1481ntf    fn413033   3.754   5.421   0.158  0.3180  0.1165  0.0590
 1481ntf    fn413034   3.821   5.624   0.193 -0.6379  0.1457  0.2790
 1481ntf    fn413035   3.627   5.554   0.266 -0.2929  0.0917 -0.3423
 1482ntf    cn113036   1.202   6.737   4.903  0.1565  0.3284 -0.3516
 1482ntf    sn213037   1.040   6.736   4.821 -0.1907 -0.0443  0.3281
 1482ntf    nn313038   1.005   6.583   4.822 -0.0954 -0.0714 -0.1484
 1482ntf    sn213039   0.893   6.511   4.905 -0.3913  0.2176 -0.2979
 1482ntf    cn113040   0.767   6.477   4.778  0.1325  0.0516 -0.7754
 1482ntf    fn413041   1.212   6.686   5.025  0.4965 -0.5148 -0.7248
 1482ntf    fn413042   1.292   6.672   4.831 -0.4989 -0.0426 -0.8451
 1482ntf    fn413043   1.242   6.863   4.916  0.0578  0.3085  0.1662
 1482ntf    on513044   0.963   6.820   4.910 -0.5687  0.1567 -0.1797
 1482ntf    on513045   1.072   6.778   4.687 -0.1484 -0.0954  0.3222
 1482ntf    on513046   0.934   6.381   4.950 -0.2517  0.4455  0.2399
 1482ntf    on513047   0.817   6.585   5.003 -0.8994 -0.5405 -0.1110
 1482ntf    fn413048   0.679   6.575   4.763 -0.0561  0.0546  0.2510
 1482ntf    fn413049   0.691   6.371   4.797  0.0971  0.2214  0.0640
 1482ntf    fn413050   0.827   6.465   4.661  0.7552  0.1291 -0.4699
 1483ntf    cn113051   2.831   6.058   0.865 -0.2234  0.2746  0.0726
 1483ntf    sn213052   2.861   6.042   0.686 -0.2008  0.0722  0.0939
 1483ntf    nn313053   2.724   6.098   0.635  0.1235 -0.2749 -1.1997
 1483ntf    sn213054   2.597   6.012   0.600 -0.5464  0.2279 -0.0729
 1483ntf    cn113055   2.536   6.089   0.447 -0.0583  0.3728 -0.1954
 1483ntf    fn413056   2.931   6.000   0.929 -0.2226  0.1449 -0.0448
 1483ntf    fn413057   2.836   6.183   0.909  0.4475  0.4357 -0.4408
 1483ntf    fn413058   2.714   6.006   0.897 -0.2083  0.1289 -0.1070
 1483ntf    on513059   2.963   6.142   0.660 -0.2688  0.1553  0.1424
 1483ntf    on513060   2.886   5.902   0.667  0.7625  0.2167  0.2496
 1483ntf    on513061   2.624   5.876   0.562 -0.0619  0.2230  0.2773
 1483ntf    on513062   2.486   6.042   0.688 -0.6473  0.5638 -0.3096
 1483ntf    fn413063   2.491   6.212   0.469 -0.6898  0.1112 -0.0222
 1483ntf    fn413064   2.435   6.017   0.402  0.3973 -0.3543 -0.0674
 1483ntf    fn413065   2.633   6.083   0.356 -0.0533 -0.1070 -0.1587
 1484ntf    cn113066   0.638   4.911   1.441  0.0365  0.2210 -0.2727
 1484ntf    sn213067   0.691   4.805   1.578  0.0847  0.2329 -0.2826
 1484ntf    nn313068   0.630   4.669   1.529  0.8672 -0.1899 -0.1147
 1484ntf    sn213069   0.567   4.547   1.606 -0.0934  0.2884 -0.1192
 1484ntf    cn113070   0.711   4.435   1.604 -0.0724  0.3088  0.2111
 1484ntf    fn413071   0.696   4.874   1.328 -0.1244  0.1281 -0.3257
 1484ntf    fn413072   0.508   4.898   1.417 -0.1361  0.5516  0.4346
 1484ntf    fn413073   0.663   5.040   1.456  0.6014  0.1140 -0.2920
 1484ntf    on513074   0.835   4.807   1.569  0.1290 -0.2368  0.1982
 1484ntf    on513075   0.631   4.856   1.699 -0.1470 -0.2842 -0.1738
 1484ntf    on513076   0.543   4.568   1.747  0.1422  0.6354 -0.1285
 1484ntf    on513077   0.463   4.476   1.537 -0.2886  0.4741 -0.0173
 1484ntf    fn413078   0.780   4.431   1.492  0.3996 -0.1710  0.5154
 1484ntf    fn413079   0.658   4.317   1.630  0.1499 -0.0131 -0.7659
 1484ntf    fn413080   0.798   4.478   1.695  0.1956 -0.3292  0.2616
 1485ntf    cn113081   4.392   3.173   3.675  0.1053 -0.1903  0.1431
 1485ntf    sn213082   4.398   3.330   3.583 -0.0204 -0.2491  0.0343
 1485ntf    nn313083   4.243   3.349   3.574  0.0450  0.1303 -0.3194
 1485ntf    sn213084   4.153   3.317   3.449 -0.1182 -0.2370 -0.1078
 1485ntf    cn113085   4.193   3.453   3.336  0.1317 -0.4010 -0.2172
 1485ntf    fn413086   4.318   3.176   3.785 -0.0912 -0.3949  0.0184
 1485ntf    fn413087   4.336   3.078   3.602 -0.3022  0.0532  0.1309
 1485ntf    fn413088   4.513   3.128   3.704 -0.1711 -0.4972  0.8594
 1485ntf    on513089   4.468   3.404   3.686  0.1565  0.0498 -0.2997
 1485ntf    on513090   4.467   3.299   3.460 -0.0873  0.4702 -0.1892
 1485ntf    on513091   4.173   3.191   3.382 -0.3845 -0.2730 -0.1227
 1485ntf    on513092   4.016   3.349   3.484  0.0282  0.5657 -0.2601
 1485ntf    fn413093   4.102   3.480   3.243 -0.2109  0.3772  0.3273
 1485ntf    fn413094   4.309   3.434   3.277  0.1131  0.2423 -0.4699
 1485ntf    fn413095   4.193   3.567   3.403 -0.1956 -0.3027 -0.3790
 1486ntf    cn113096   0.487   6.144   2.984  0.1381 -0.0207  0.0433
 1486ntf    sn213097   0.549   6.299   3.057  0.0073  0.2265 -0.3709
 1486ntf    nn313098   0.569   6.284   3.212 -0.2598  0.1993 -0.3384
 1486ntf    sn213099   0.692   6.231   3.293 -0.2436  0.3331 -0.2756
 1486ntf    cn113100   0.608   6.156   3.436  0.5918 -0.0564  0.0173
 1486ntf    fn413101   0.447   6.160   2.859  0.7792  0.0670 -0.1556
 1486ntf    fn413102   0.573   6.043   2.981  0.5408  0.3186  0.1006
 1486ntf    fn413103   0.383   6.105   3.055  0.0852  0.5790  0.3029
 1486ntf    on513104   0.667   6.320   2.976 -0.0515  0.0493 -0.5028
 1486ntf    on513105   0.440   6.388   3.025 -0.7868 -0.5138  0.2400
 1486ntf    on513106   0.743   6.108   3.239 -0.4691  0.1232 -0.0126
 1486ntf    on513107   0.783   6.331   3.344  0.1555 -0.3311  0.3249
 1486ntf    fn413108   0.680   6.083   3.520 -0.0224 -0.4000  0.2504
 1486ntf    fn413109   0.516   6.070   3.397  0.0478  0.2671  0.5777
 1486ntf    fn413110   0.548   6.246   3.513  0.6267 -0.2033  0.2169
 1487ntf    cn113111   4.063   1.137   4.832  0.0247 -0.4197  0.1321
 1487ntf    sn213112   3.982   1.281   4.908  0.2060 -0.0816 -0.3170
 1487ntf    nn313113   3.994   1.384   4.790  0.5636 -0.0409 -0.2458
 1487ntf    sn213114   3.884   1.399   4.679  0.4070  0.1294 -0.0679
 1487ntf    cn113115   3.772   1.513   4.766  0.1376 -0.3204  0.1790
 1487ntf    fn413116   4.192   1.160   4.815  0.0737 -0.1790  0.7920
 1487ntf    fn413117   4.053   1.036   4.918  0.2319 -0.3442  0.2447
 1487ntf    fn413118   4.011   1.080   4.724 -0.2351  0.3917 -0.1729
 1487ntf    on513119   3.848   1.247   4.950  0.0739  0.5493 -0.2161
 1487ntf    on513120   4.073   1.311   5.016  0.6182 -0.2747 -0.6086
 1487ntf    on513121   3.929   1.473   4.564 -0.2979  0.2317 -0.2792
 1487ntf    on513122   3.808   1.278   4.657  0.5839 -0.1366  0.7510
 1487ntf    fn413123   3.838   1.616   4.816  0.1668 -0.4862  0.4868
 1487ntf    fn413124   3.707   1.452   4.864  0.0055 -0.1195  0.2157
 1487ntf    fn413125   3.677   1.562   4.689  0.2828 -0.3467 -0.0172
 1488ntf    cn113126   6.606   4.840   6.068  0.6401  0.0556  0.1523
 1488ntf    sn213127   6.787   4.835   6.063  0.6193 -0.2015 -0.3863
 1488ntf    nn313128   6.821   4.813   6.215  0.2221 -0.0691 -0.2777
 1488ntf    sn213129   6.962   4.827   6.282 -0.0868 -0.0989  0.3824
 1488ntf    cn113130   6.963   5.003   6.327  0.3137 -0.0743  0.2840
 1488ntf    fn413131   6.558   4.926   6.157  0.5981  0.5890 -0.3827
 1488ntf    fn413132   6.547   4.854   5.950  0.2720  0.6123  0.3987
 1488ntf    fn413133   6.569   4.720   6.112  0.2482  0.0626 -0.1522
 1488ntf    on513134   6.832   4.720   5.988 -0.1842 -0.0059 -1.1923
 1488ntf    on513135   6.828   4.963   6.011 -0.2826  0.0600 -0.4736
 1488ntf    on513136   6.977   4.773   6.415 -0.5765 -0.2054  0.3952
 1488ntf    on513137   7.078   4.816   6.198 -0.3226 -0.2881  0.0772
 1488ntf    fn413138   6.935   5.094   6.236 -0.2575 -0.2572  0.2733
 1488ntf    fn413139   7.070   5.040   6.396  0.3020  0.1149  0.2020
 1488ntf    fn413140   6.867   5.012   6.419  0.1058  0.7683 -0.0069
 1489ntf    cn113141   1.822   3.939   2.901  0.2230  0.0669  0.0193
 1489ntf    sn213142   1.757   4.108   2.922  0.3678  0.1562 -0.2516
 1489ntf    nn313143   1.642   4.087   2.818 -0.0717 -0.3686  0.3395
 1489ntf    sn213144   1.502   4.154   2.790  0.0841 -0.0803  0.2484
 1489ntf    cn113145   1.540   4.244   2.637 -0.1222  0.0227  0.2589
 1489ntf    fn413146   1.837   3.908   2.773 -0.3842  0.0249 -0.0468
 1489ntf    fn413147   1.945   3.930   2.948  0.2978  0.4628 -0.0926
 1489ntf    fn413148   1.746   3.844   2.952 -0.5803  0.5199 -0.2952
 1489ntf    on513149   1.724   4.097   3.061  0.4273 -0.3048 -0.2743
 1489ntf    on513150   1.859   4.199   2.876 -0.7771  1.1380 -0.9026
 1489ntf    on513151   1.396   4.063   2.752 -0.0184  0.2628 -0.2925
 1489ntf    on513152   1.469   4.257   2.884 -0.4055 -0.1912  0.1972
 1489ntf    fn413153   1.427   4.269   2.573 -0.2264  0.3133  0.5509
 1489ntf    fn413154   1.611   4.180   2.546  0.1009  0.1290  0.3577
 1489ntf    fn413155   1.594   4.365   2.649 -0.4634  0.2404 -0.3410
 1490ntf    cn113156   4.458   4.178   1.810 -0.3361 -0.1204 -0.2012
 1490ntf    sn213157   4.577   4.124   1.936 -0.3384 -0.1228 -0.2005
 1490ntf    nn313158   4.486   4.036   2.028 -0.4177  0.1087 -0.0553
 1490ntf    sn213159   4.478   3.880   2.043 -0.3653  0.0942 -0.1812
 1490ntf    cn113160   4.599   3.843   2.175 -0.6362  0.4465  0.1689
 1490ntf    fn413161   4.509   4.269   1.729  0.2563 -0.2843 -0.0176
 1490ntf    fn413162   4.419   4.078   1.733 -0.3825  0.4356 -0.9121
 1490ntf    fn413163   4.349   4.236   1.860 -0.3322 -0.2393 -0.0504
 1490ntf    on513164   4.675   4.056   1.855 -0.2186 -0.1416 -0.0401
 1490ntf    on513165   4.608   4.251   1.997 -0.3707 -0.0006 -0.4368
 1490ntf    on513166   4.349   3.848   2.097 -0.3740 -0.0397 -0.2813
 1490ntf    on513167   4.536   3.808   1.932  0.0527  0.5830 -0.2867
 1490ntf    fn413168   4.728   3.846   2.145 -0.7204 -0.0075 -0.2571
 1490ntf    fn413169   4.563   3.724   2.220  0.5944  0.0174  0.0543
 1490ntf    fn413170   4.586   3.926   2.277  0.4555 -0.0429  0.7159
 1491ntf    cn113171   4.075   1.649   4.031 -0.1218 -0.4704  0.1778
 1491ntf    sn213172   4.067   1.802   3.933  0.2210 -0.4022  0.2586
 1491ntf    nn313173   3.929   1.785   3.861  0.3409 -0.0389 -0.0619
 1491ntf    sn213174   3.888   1.706   3.732  0.0712 -0.0768  0.0453
 1491ntf    cn113175   3.873   1.834   3.604 -0.3399 -0.1736 -0.0048
 1491ntf    fn413176   4.151   1.655   4.138 -0.1803  0.4393  0.1763
 1491ntf    fn413177   3.953   1.614   4.069 -0.0178 -1.0735 -0.0302
 1491ntf    fn413178   4.137   1.553   3.964 -0.4019 -0.1678 -0.5316
 1491ntf    on513179   4.064   1.888   4.048 -0.4843 -0.0504 -0.0167
 1491ntf    on513180   4.190   1.799   3.857 -0.0824 -0.2046 -0.2453
 1491ntf    on513181   3.988   1.607   3.697 -0.1031 -0.0836 -0.4388
 1491ntf    on513182   3.750   1.664   3.738  0.1907 -0.4408  0.3067
 1491ntf    fn413183   3.984   1.905   3.593 -0.2999 -0.1340  0.6259
 1491ntf    fn413184   3.776   1.922   3.621  0.1052  0.4391 -0.5858
 1491ntf    fn413185   3.855   1.793   3.479 -0.2265  0.2576 -0.1635
 1492ntf    cn113186   0.623   3.718   0.615 -0.3627  0.4658  0.2658
 1492ntf    sn213187   0.460   3.774   0.560 -0.3931  0.0862 -0.0320
 1492ntf    nn313188   0.375   3.724   0.683  0.1683 -0.4005  0.1612
 1492ntf    sn213189   0.220   3.728   0.702  0.1389 -0.4979 -0.0561
 1492ntf    cn113190   0.183   3.558   0.647 -0.3934 -0.3853 -0.0554
 1492ntf    fn413191   0.617   3.601   0.677  0.2249  0.4473  0.2948
 1492ntf    fn413192   0.710   3.703   0.517 -0.8213  0.2340 -0.1084
 1492ntf    fn413193   0.668   3.808   0.702  0.3393  0.0409  0.3585
 1492ntf    on513194   0.475   3.917   0.562 -0.5466  0.0980  0.5798
 1492ntf    on513195   0.439   3.697   0.440 -0.6101  0.3992 -0.1967
 1492ntf    on513196   0.177   3.730   0.840 -0.3193 -1.0064 -0.1869
 1492ntf    on513197   0.159   3.810   0.600  0.2558  0.0727  0.3271
 1492ntf    fn413198   0.250   3.467   0.716 -0.2763  0.1330  0.5286
 1492ntf    fn413199   0.214   3.536   0.520 -0.6047  0.4975 -0.2702
 1492ntf    fn413200   0.054   3.535   0.660 -0.4568 -0.1529 -0.2480
 1493ntf    cn113201   2.136   0.300   1.385 -0.2508  0.0966 -0.2062
 1493ntf    sn213202   2.111   0.161   1.271  0.1234 -0.2179  0.0922
 1493ntf    nn313203   2.254   0.095   1.264  0.2765  0.1336 -0.1418
 1493ntf    sn213204   2.294  -0.054   1.293 -0.0328  0.0956  0.1007
 1493ntf    cn113205   2.259  -0.124   1.129  0.3141 -0.1063  0.1121
 1493ntf    fn413206   2.234   0.385   1.360 -0.3955  0.3102 -0.0500
 1493ntf    fn413207   2.027   0.375   1.392 -0.2936 -0.0309  0.6428
 1493ntf    fn413208   2.153   0.264   1.511  0.3889  0.5299 -0.1653
 1493ntf    on513209   2.008   0.084   1.335  0.0139 -0.0118  0.1659
 1493ntf    on513210   2.082   0.221   1.143  0.2061 -0.4767 -0.0475
 1493ntf    on513211   2.437  -0.058   1.312 -0.0699  0.3040  0.4261
 1493ntf    on513212   2.220  -0.126   1.393 -0.1762  0.1322  0.0215
 1493ntf    fn413213   2.296  -0.250   1.112  0.1547 -0.0845 -0.4165
 1493ntf    fn413214   2.310  -0.053   1.030  0.2088 -0.2268 -0.0291
 1493ntf    fn413215   2.132  -0.121   1.094  0.3222 -0.2216  0.0727
 1494ntf    cn113216   1.970   1.947   0.507  0.4781 -0.6002 -0.1840
 1494ntf    sn213217   2.151   1.965   0.505  0.4420 -0.2183 -0.0871
 1494ntf    nn313218   2.182   1.824   0.443  0.0778 -0.3172 -0.0503
 1494ntf    sn213219   2.225   1.811   0.293 -0.0015  0.3440 -0.1334
 1494ntf    cn113220   2.199   1.631   0.279 -0.1034  0.3443  0.0475
 1494ntf    fn413221   1.912   2.029   0.592  1.0512 -0.3273 -0.0535
 1494ntf    fn413222   1.923   1.980   0.387 -0.5250 -0.8402  0.1345
 1494ntf    fn413223   1.920   1.827   0.533  0.1588 -0.5000 -0.3283
 1494ntf    on513224   2.175   2.084   0.427  0.5002 -0.1258  0.0718
 1494ntf    on513225   2.189   1.962   0.644 -0.5732 -0.9925  0.1899
 1494ntf    on513226   2.134   1.868   0.196  0.4322  0.2222 -0.6160
 1494ntf    on513227   2.367   1.823   0.270  0.0754 -0.3344 -0.0238
 1494ntf    fn413228   2.274   1.568   0.367  0.5717  0.1788 -0.6346
 1494ntf    fn413229   2.239   1.585   0.162 -0.0051 -0.0650  0.2393
 1494ntf    fn413230   2.078   1.582   0.299 -0.0344  0.1016 -0.1289
 1495ntf    cn113231   5.650   2.047   0.560 -0.1198  0.2085 -0.3049
 1495ntf    sn213232   5.576   1.979   0.711  0.0294 -0.0826 -0.3620
 1495ntf    nn313233   5.626   2.078   0.823 -0.2488 -0.1988 -0.1343
 1495ntf    sn213234   5.765   2.086   0.895 -0.2657 -0.2252 -0.0997
 1495ntf    cn113235   5.820   2.250   0.837 -0.0638 -0.0295  0.6344
 1495ntf    fn413236   5.644   2.179   0.558 -0.1117  0.2210  0.4668
 1495ntf    fn413237   5.779   2.020   0.558 -0.0276  0.5948  0.3069
 1495ntf    fn413238   5.589   1.992   0.455  0.1453  0.2451 -0.4789
 1495ntf    on513239   5.435   1.995   0.688 -0.1049 -0.4697  0.1634
 1495ntf    on513240   5.618   1.842   0.728  0.3172  0.0238 -0.1988
 1495ntf    on513241   5.756   2.099   1.038 -0.0895  0.2601 -0.1317
 1495ntf    on513242   5.861   2.002   0.828 -0.4115 -0.0657 -0.5129
 1495ntf    fn413243   5.768   2.282   0.720  0.0660 -0.4568  0.4574
 1495ntf    fn413244   5.950   2.272   0.833 -0.1571  0.3664 -0.3411
 1495ntf    fn413245   5.770   2.345   0.915  0.1782  0.2834  0.4052
 1496ntf    cn113246   4.551   1.078   0.629 -0.0344 -0.2345 -0.0078
 1496ntf    sn213247   4.382   1.133   0.593  0.0442  0.0661  0.0851
 1496ntf    nn313248   4.341   1.008   0.507 -0.2311  0.0086  0.2989
 1496ntf    sn213249   4.268   0.874   0.544 -0.3437 -0.0230 -0.0309
 1496ntf    cn113250   4.102   0.937   0.507 -0.4120 -0.1360  0.0814
 1496ntf    fn413251   4.626   1.172   0.682 -0.1275 -0.1797  0.0276
 1496ntf    fn413252   4.563   0.980   0.718 -0.2681  0.4919  0.8413
 1496ntf    fn413253   4.611   1.045   0.516  0.2880  0.0800  0.0705
 1496ntf    on513254   4.311   1.140   0.719  0.0957 -0.0331  0.1191
 1496ntf    on513255   4.403   1.248   0.508 -0.1943  0.2315  0.2462
 1496ntf    on513256   4.293   0.771   0.447 -0.2325  0.1790 -0.2174
 1496ntf    on513257   4.262   0.841   0.685  0.9708 -0.1293  0.0180
 1496ntf    fn413258   4.010   0.844   0.528 -0.0508 -0.5078  0.0176
 1496ntf    fn413259   4.088   0.975   0.382  0.4049 -0.2260 -0.0431
 1496ntf    fn413260   4.066   1.038   0.585  0.2618  0.1678  0.0055
 1497ntf    cn113261   5.619   1.254   5.788 -0.1975  0.3085  0.0072
 1497ntf    sn213262   5.705   1.366   5.903  0.2359  0.2497 -0.2595
 1497ntf    nn313263   5.667   1.503   5.835  0.1034  0.4729  0.2640
 1497ntf    sn213264   5.551   1.600   5.877 -0.2540  0.2094 -0.1057
 1497ntf    cn113265   5.497   1.646   5.710 -0.1406  0.0066 -0.1980
 1497ntf    fn413266   5.590   1.133   5.834  0.8777  0.0097 -0.0889
 1497ntf    fn413267   5.510   1.311   5.739  0.0368  0.2874 -0.5437
 1497ntf    fn413268   5.695   1.221   5.685 -0.1993 -0.6565  0.3129
 1497ntf    on513269   5.641   1.345   6.030 -0.4384 -0.2262 -0.6700
 1497ntf    on513270   5.844   1.334   5.888  0.1367 -0.3012 -0.0131
 1497ntf    on513271   5.434   1.543   5.939  0.2786 -1.1267 -0.3007
 1497ntf    on513272   5.605   1.723   5.930 -0.5765  0.7096 -0.9269
 1497ntf    fn413273   5.442   1.544   5.647 -0.1509 -0.0581 -0.0853
 1497ntf    fn413274   5.597   1.682   5.631 -0.3084 -0.0971 -0.4604
 1497ntf    fn413275   5.409   1.745   5.712 -0.2886 -0.1300  0.3597
 1498ntf    cn113276   3.668   1.134   2.678  0.1191  0.2664  0.0744
 1498ntf    sn213277   3.731   1.012   2.558 -0.1382 -0.0198  0.2291
 1498ntf    nn313278   3.884   1.020   2.588 -0.0125 -0.1352 -0.3707
 1498ntf    sn213279   3.994   1.102   2.511  0.1652 -0.2563 -0.2475
 1498ntf    cn113280   4.076   0.965   2.423  0.5846 -0.0629 -0.1578
 1498ntf    fn413281   3.733   1.119   2.792  0.7028 -0.2481 -0.3174
 1498ntf    fn413282   3.695   1.259   2.644  0.3099  0.2697  0.2436
 1498ntf    fn413283   3.538   1.132   2.701  0.1447 -0.0392  0.2067
 1498ntf    on513284   3.681   0.880   2.590  0.0478 -0.1649 -0.0763
 1498ntf    on513285   3.691   1.071   2.433 -0.1877 -0.3906  0.0672
 1498ntf    on513286   3.959   1.194   2.406  1.0499 -0.1141 -0.4268
 1498ntf    on513287   4.099   1.157   2.593  0.2124  0.2273 -0.6235
 1498ntf    fn413288   4.003   0.902   2.334  0.3673  0.0397 -0.0524
 1498ntf    fn413289   4.128   0.878   2.508  0.0992 -0.3286 -0.1328
 1498ntf    fn413290   4.180   1.018   2.360  0.1270  0.3067 -0.6074
 1499ntf    cn113291   3.114   2.202   2.673  0.2587 -0.0432 -0.0474
 1499ntf    sn213292   3.211   2.129   2.538  0.1199 -0.2384 -0.0427
 1499ntf    nn313293   3.346   2.094   2.609  0.2401 -0.4344 -0.3629
 1499ntf    sn213294   3.384   1.961   2.684  0.5977 -0.0897  0.0774
 1499ntf    cn113295   3.466   1.878   2.545  0.2608 -0.0774 -0.1303
 1499ntf    fn413296   3.115   2.124   2.779 -0.2926 -0.5678 -0.4225
 1499ntf    fn413297   3.164   2.320   2.705 -0.1415  0.2218 -0.3810
 1499ntf    fn413298   2.990   2.223   2.632  0.1970 -0.2465  0.0354
 1499ntf    on513299   3.120   2.027   2.492 -0.4593  0.5496 -0.6821
 1499ntf    on513300   3.222   2.246   2.453 -0.1647  0.0863  0.3607
 1499ntf    on513301   3.490   1.989   2.778  0.3832  0.1965  0.2351
 1499ntf    on513302   3.279   1.868   2.716  0.3997  0.2278  0.3572
 1499ntf    fn413303   3.559   1.952   2.486  0.2200  0.0246 -0.0666
 1499ntf    fn413304   3.378   1.833   2.457  0.1611 -0.2008  0.0332
 1499ntf    fn413305   3.525   1.767   2.587  0.2171  0.0452  0.2543
 1500ntf    cn113306   0.791   3.291   3.516  0.1805  0.0285 -0.3242
 1500ntf    sn213307   0.780   3.222   3.684  0.0642 -0.0009 -0.3432
 1500ntf    nn313308   0.931   3.211   3.725  0.0307  0.2215 -0.1554
 1500ntf    sn213309   1.004   3.237   3.861  0.2471 -0.2886 -0.1704
 1500ntf    cn113310   0.939   3.109   3.973  0.2762 -0.2174 -0.0709
 1500ntf    fn413311   0.831   3.201   3.427  0.2786 -0.1653 -0.0843
 1500ntf    fn413312   0.679   3.345   3.471 -0.1647 -0.0785  0.4039
 1500ntf    fn413313   0.865   3.400   3.510 -0.0166  0.1954  0.2628
 1500ntf    on513314   0.719   3.331   3.756 -0.4565 -0.4045 -0.1667
 1500ntf    on513315   0.706   3.099   3.673 -0.9622  0.5775 -0.0497
 1500ntf    on513316   1.147   3.214   3.861  0.2418 -0.3212 -0.2414
 1500ntf    on513317   0.965   3.360   3.927 -0.3571 -0.6367  0.1251
 1500ntf    fn413318   0.989   2.991   3.941 -0.2907 -0.5332  0.1983
 1500ntf    fn413319   0.808   3.095   3.964  0.2675 -0.1177 -0.0969
 1500ntf    fn413320   0.963   3.133   4.100  0.5823 -0.1248 -0.1439
 1501ntf    cn113321   4.981   3.025   4.720  0.2445  0.4520  0.0805
 1501ntf    sn213322   5.108   3.055   4.594  0.1667 -0.1042 -0.1299
 1501ntf    nn313323   5.109   3.211   4.578  0.0671 -0.0937 -0.0295
 1501ntf    sn213324   5.193   3.320   4.654 -0.1058 -0.0788  0.1408
 1501ntf    cn113325   5.074   3.442   4.717  0.1172  0.2070  0.0167
 1501ntf    fn413326   5.012   3.081   4.836  0.1017  0.5288  0.0825
 1501ntf    fn413327   4.871   3.085   4.676 -0.0935 -0.0949  0.1677
 1501ntf    fn413328   4.944   2.899   4.734 -0.2007  0.5935  0.1777
 1501ntf    on513329   5.226   2.990   4.646 -0.0292  0.0264  0.4829
 1501ntf    on513330   5.061   2.988   4.475 -0.2817  0.1191 -0.0788
 1501ntf    on513331   5.264   3.271   4.770  0.2675  0.1342  0.0036
 1501ntf    on513332   5.267   3.409   4.568  0.0577 -0.1081  0.2530
 1501ntf    fn413333   5.018   3.505   4.615 -0.0927  0.0980  0.0619
 1501ntf    fn413334   5.137   3.533   4.789 -0.3872  0.2823  0.3700
 1501ntf    fn413335   4.977   3.374   4.778 -0.0178  0.4331  0.0521
 1502ntf    cn113336   0.376   1.697   2.466  0.0853 -0.1930  0.2902
 1502ntf    sn213337   0.388   1.876   2.434 -0.2229 -0.1969  0.1527
 1502ntf    nn313338   0.543   1.869   2.409 -0.2509 -0.0521 -0.0684
 1502ntf    sn213339   0.668   1.902   2.498 -0.3535  0.0155  0.0511
 1502ntf    cn113340   0.720   2.068   2.444  0.2552 -0.1056  0.2614
 1502ntf    fn413341   0.251   1.656   2.459  0.2152 -0.4599 -0.5973
 1502ntf    fn413342   0.445   1.621   2.383 -0.2337 -0.0599 -0.0977
 1502ntf    fn413343   0.420   1.660   2.585  0.1686 -0.2587  0.2386
 1502ntf    on513344   0.308   1.897   2.315 -0.0023 -1.0290 -0.1541
 1502ntf    on513345   0.342   1.936   2.556 -0.1157 -0.0045  0.0986
 1502ntf    on513346   0.636   1.912   2.638  0.9124 -0.3179  0.3735
 1502ntf    on513347   0.779   1.815   2.471 -0.6469 -0.4136  0.2200
 1502ntf    fn413348   0.722   2.067   2.312 -0.3838  0.5974  0.2382
 1502ntf    fn413349   0.835   2.107   2.497  0.6074 -0.5114 -0.1941
 1502ntf    fn413350   0.634   2.160   2.482  0.4937  0.4606 -0.5481
 1503ntf    cn113351   0.400   6.793   3.571 -0.1574 -0.0209 -0.1271
 1503ntf    sn213352   0.320   6.938   3.495 -0.6069 -0.1609  0.0756
 1503ntf    nn313353   0.448   6.970   3.410 -0.6042  0.2204  0.2163
 1503ntf    sn213354   0.545   7.093   3.419 -0.3516  0.0193  0.2525
 1503ntf    cn113355   0.594   7.124   3.246  0.5825  0.1005  0.5249
 1503ntf    fn413356   0.436   6.703   3.481  0.2061 -0.1224  0.1191
 1503ntf    fn413357   0.514   6.825   3.630  0.0420 -0.0794 -0.4758
 1503ntf    fn413358   0.327   6.722   3.655 -0.2262 -0.1980 -0.3358
 1503ntf    on513359   0.211   6.891   3.414 -0.5161  0.3075 -0.3272
 1503ntf    on513360   0.297   7.027   3.607 -0.4269  0.4060 -0.3345
 1503ntf    on513361   0.488   7.219   3.457 -0.0756  0.3415 -0.3828
 1503ntf    on513362   0.667   7.054   3.485 -0.0794  0.4942  0.0334
 1503ntf    fn413363   0.511   7.204   3.182  0.1562 -0.7589 -0.0188
 1503ntf    fn413364   0.600   7.016   3.170  0.3455 -0.0491  0.7157
 1503ntf    fn413365   0.716   7.173   3.250  0.5441  0.2397  0.0251
 1504ntf    cn113366   2.269   3.132   2.958  0.0556  0.1108 -0.2791
 1504ntf    sn213367   2.290   3.305   2.905  0.2673  0.2004  0.0934
 1504ntf    nn313368   2.145   3.361   2.927  0.2880  0.1192  0.4476
 1504ntf    sn213369   2.103   3.506   2.970 -0.2240  0.0724  0.1203
 1504ntf    cn113370   1.947   3.523   2.879 -0.1998  0.0370  0.0717
 1504ntf    fn413371   2.235   3.124   3.086  0.3325  0.5490 -0.1769
 1504ntf    fn413372   2.176   3.058   2.901 -0.5920  0.4572  0.3104
 1504ntf    fn413373   2.380   3.061   2.960 -0.2197 -0.3138  0.0409
 1504ntf    on513374   2.389   3.361   2.993 -0.1549  0.1928  0.5792
 1504ntf    on513375   2.334   3.293   2.769 -0.5276  0.5771 -0.2059
 1504ntf    on513376   2.074   3.515   3.110  0.1431 -0.8602  0.2617
 1504ntf    on513377   2.177   3.614   2.908 -0.2336  0.4886  0.8266
 1504ntf    fn413378   1.962   3.549   2.750 -0.4216  0.4086  0.1191
 1504ntf    fn413379   1.868   3.621   2.920 -0.1157  0.0174  0.2777
 1504ntf    fn413380   1.876   3.411   2.889 -0.1113 -0.0795 -0.5559
 1505ntf    cn113381   6.495   3.616   3.109 -0.0302 -0.0676 -0.0065
 1505ntf    sn213382   6.445   3.506   3.245  0.2618  0.0049  0.1591
 1505ntf    nn313383   6.587   3.456   3.288  0.2601 -0.2150 -0.0906
 1505ntf    sn213384   6.652   3.473   3.430  0.0453 -0.6089  0.0566
 1505ntf    cn113385   6.585   3.333   3.524 -0.5522 -0.2986  0.0930
 1505ntf    fn413386   6.411   3.716   3.089  0.3374  0.1635 -0.4289
 1505ntf    fn413387   6.617   3.661   3.130  0.0463 -0.3049  0.0566
 1505ntf    fn413388   6.499   3.557   2.990  0.2571  0.0924 -0.0777
 1505ntf    on513389   6.383   3.594   3.342 -0.5785 -0.2971 -0.0946
 1505ntf    on513390   6.367   3.401   3.185 -0.1641  0.2652  0.2485
 1505ntf    on513391   6.792   3.440   3.413  0.2594  0.5718 -0.5737
 1505ntf    on513392   6.629   3.595   3.504 -0.2667 -0.2968 -0.5484
 1505ntf    fn413393   6.453   3.338   3.533 -0.5144  0.2196  0.3943
 1505ntf    fn413394   6.637   3.313   3.644  0.2357 -0.0808 -0.2072
 1505ntf    fn413395   6.594   3.215   3.465 -0.1210 -0.4010  0.3610
 1506ntf    cn113396   5.935   6.068   3.907 -0.3431  0.2118  0.3182
 1506ntf    sn213397   5.838   6.108   3.759  0.0194  0.1516  0.0618
 1506ntf    nn313398   5.949   6.094   3.649  0.0879  0.0213  0.1473
 1506ntf    sn213399   5.974   6.179   3.519  0.1006 -0.0141  0.1267
 1506ntf    cn113400   6.064   6.320   3.589  0.1731 -0.2765  0.5669
 1506ntf    fn413401   6.024   5.971   3.894 -0.3007  0.2294  0.4802
 1506ntf    fn413402   5.998   6.175   3.953  0.3512 -0.1263  0.1736
 1506ntf    fn413403   5.858   6.028   4.006 -0.3876 -0.7031 -0.0799
 1506ntf    on513404   5.742   6.000   3.762  0.0553  0.1247  0.2303
 1506ntf    on513405   5.785   6.242   3.775 -0.3831 -0.0694  0.6006
 1506ntf    on513406   6.068   6.118   3.427  0.2516  0.3031  0.0699
 1506ntf    on513407   5.860   6.235   3.452  0.0625 -0.7939 -0.4827
 1506ntf    fn413408   6.078   6.423   3.506 -0.2815 -0.3695  0.3737
 1506ntf    fn413409   6.190   6.292   3.621  0.2728 -0.2103  0.2332
 1506ntf    fn413410   6.002   6.372   3.694 -0.1012 -0.1740  0.3544
 1507ntf    cn113411   0.335   3.212   2.853 -0.0574  0.2114  0.2351
 1507ntf    sn213412   0.479   3.242   2.961 -0.1113  0.1768  0.3171
 1507ntf    nn313413   0.555   3.105   2.969 -0.0316  0.2045  0.0650
 1507ntf    sn213414   0.692   3.074   2.899  0.0776  0.0573  0.3413
 1507ntf    cn113415   0.652   2.993   2.741 -0.0787 -0.6574  0.7435
 1507ntf    fn413416   0.268   3.324   2.832  0.0417  0.2421  0.0793
 1507ntf    fn413417   0.377   3.172   2.735  0.1977  0.1732  0.3381
 1507ntf    fn413418   0.250   3.118   2.891  0.1821 -0.1936 -0.2191
 1507ntf    on513419   0.541   3.347   2.884 -0.2976  0.1563  0.1378
 1507ntf    on513420   0.406   3.280   3.079 -0.2062  0.8717  0.0413
 1507ntf    on513421   0.773   3.190   2.871  0.3294 -0.0985  0.4158
 1507ntf    on513422   0.760   2.968   2.970  0.2846 -0.3674 -0.4769
 1507ntf    fn413423   0.565   3.061   2.667  0.3303 -0.3290  0.5637
 1507ntf    fn413424   0.591   2.875   2.746 -0.6964 -0.3549  0.4450
 1507ntf    fn413425   0.762   2.980   2.670 -0.1994  0.4824  0.3282
 1508ntf    cn113426   1.282   1.713   0.829  0.2373  0.0635  0.4269
 1508ntf    sn213427   1.349   1.642   0.676 -0.1610  0.2095  0.1837
 1508ntf    nn313428   1.315   1.488   0.677 -0.3957  0.2592  0.0376
 1508ntf    sn213429   1.188   1.417   0.619  0.0754 -0.4858 -0.1001
 1508ntf    cn113430   1.234   1.353   0.455 -0.0409  0.1428 -0.3799
 1508ntf    fn413431   1.284   1.846   0.829 -0.5586  0.0814 -0.2215
 1508ntf    fn413432   1.154   1.685   0.839  0.2135 -0.1977 -0.5090
 1508ntf    fn413433   1.346   1.671   0.937  0.0073 -0.2687  0.4339
 1508ntf    on513434   1.283   1.715   0.571  0.0688  0.2500  0.0673
 1508ntf    on513435   1.491   1.665   0.687 -0.0734 -0.4530  0.4851
 1508ntf    on513436   1.163   1.297   0.695 -0.0267 -0.0833  0.5139
 1508ntf    on513437   1.073   1.498   0.589  0.4121 -0.0180 -0.1410
 1508ntf    fn413438   1.313   1.247   0.456 -0.2072  0.0188 -0.3886
 1508ntf    fn413439   1.320   1.433   0.394  0.8306 -0.1092  0.4780
 1508ntf    fn413440   1.137   1.329   0.369 -0.4993  0.4160  0.0547
 1509ntf    cn113441   0.234   6.457   5.001  0.0922  0.3304 -0.4756
 1509ntf    sn213442   0.060   6.490   5.041  0.0848 -0.0253 -0.2035
 1509ntf    nn313443   0.021   6.351   5.103  0.5021 -0.2009 -0.3314
 1509ntf    sn213444  -0.064   6.224   5.069 -0.4954  0.2405  0.4672
 1509ntf    cn113445   0.071   6.106   5.100 -0.3788  0.2690  0.0740
 1509ntf    fn413446   0.314   6.560   4.978  0.5505 -0.0697 -0.6965
 1509ntf    fn413447   0.300   6.397   5.099 -0.1148  0.4592 -0.2578
 1509ntf    fn413448   0.249   6.378   4.896 -0.0499  0.1905 -0.3912
 1509ntf    on513449   0.063   6.594   5.141 -0.3562 -0.0544 -0.1574
 1509ntf    on513450  -0.004   6.518   4.914 -0.1239  0.2855 -0.0309
 1509ntf    on513451  -0.169   6.202   5.165 -0.6423  0.2468  0.3089
 1509ntf    on513452  -0.102   6.209   4.931  0.5271 -0.1425  0.2188
 1509ntf    fn413453   0.178   6.138   5.030 -0.4585  0.2864 -0.0409
 1509ntf    fn413454   0.041   5.980   5.071 -0.1543 -0.0076  1.0095
 1509ntf    fn413455   0.101   6.099   5.229 -0.2336  0.3621  0.0454
 1510ntf    cn113456   6.751   6.755   2.684 -0.4524  0.1240  0.0320
 1510ntf    sn213457   6.909   6.836   2.723 -0.4040 -0.1260  0.3642
 1510ntf    nn313458   6.862   6.955   2.815 -0.2597  0.3017 -0.1072
 1510ntf    sn213459   6.936   7.009   2.943 -0.0114  0.0931 -0.1613
 1510ntf    cn113460   6.874   7.180   2.944  0.0986  0.1337 -0.2246
 1510ntf    fn413461   6.687   6.728   2.797  0.1138  0.1255  0.3571
 1510ntf    fn413462   6.663   6.828   2.618 -0.1102  1.3058  0.8369
 1510ntf    fn413463   6.778   6.636   2.634  0.6098  0.2445  0.2863
 1510ntf    on513464   6.980   6.726   2.783  0.6843  0.3196 -0.0783
 1510ntf    on513465   6.946   6.877   2.590  0.0470  0.5821  0.6981
 1510ntf    on513466   6.885   6.958   3.067 -1.1114 -0.2862 -0.7578
 1510ntf    on513467   7.078   7.026   2.926 -0.0352  0.2166 -0.2380
 1510ntf    fn413468   6.874   7.224   2.820  0.0692 -0.3532 -0.4013
 1510ntf    fn413469   6.952   7.266   3.007  0.5988 -0.0097 -0.6444
 1510ntf    fn413470   6.752   7.178   2.995 -0.0774  0.0802 -0.6483
 1511ntf    cn113471   5.824   2.680   6.285 -0.2894  0.0109 -0.2215
 1511ntf    sn213472   5.752   2.524   6.225 -0.3857  0.0152 -0.1188
 1511ntf    nn313473   5.868   2.448   6.152 -0.5360 -0.3008 -0.0295
 1511ntf    sn213474   5.860   2.333   6.045 -0.1000 -0.3743  0.0142
 1511ntf    cn113475   5.878   2.179   6.140 -0.0682 -0.3141  0.1063
 1511ntf    fn413476   5.742   2.751   6.361  0.0398 -0.2104  0.3514
 1511ntf    fn413477   5.924   2.646   6.365 -0.5121  0.0601  0.0784
 1511ntf    fn413478   5.879   2.767   6.203  0.0623 -0.1542 -0.1626
 1511ntf    on513479   5.701   2.458   6.342  0.3331 -0.3139  0.0132
 1511ntf    on513480   5.659   2.581   6.130  0.0814 -0.4276 -0.8490
 1511ntf    on513481   5.737   2.321   5.971 -0.3779  0.2788  0.3615
 1511ntf    on513482   5.976   2.331   5.959  0.1870  0.1343  0.3880
 1511ntf    fn413483   5.876   2.078   6.055  0.2140  0.1140 -0.4142
 1511ntf    fn413484   5.780   2.146   6.223 -0.2955 -0.2603 -0.1408
 1511ntf    fn413485   5.992   2.171   6.205 -0.1914 -0.0342  0.3592
 1512ntf    cn113486   5.817   6.324   1.459  0.0876 -0.0755  0.4121
 1512ntf    sn213487   5.720   6.446   1.367  0.4065 -0.0767  0.0744
 1512ntf    nn313488   5.640   6.354   1.268 -0.0499  0.0132  0.3578
 1512ntf    sn213489   5.515   6.262   1.292 -0.5769  0.6028 -0.1033
 1512ntf    cn113490   5.395   6.331   1.174 -0.4388  0.1710 -0.4982
 1512ntf    fn413491   5.885   6.381   1.557  0.0999 -0.4076  0.6016
 1512ntf    fn413492   5.733   6.236   1.512  0.0026 -0.2282  0.0232
 1512ntf    fn413493   5.906   6.251   1.393 -0.4643 -0.5105  0.1379
 1512ntf    on513494   5.645   6.511   1.472  0.5054  0.1469  0.0083
 1512ntf    on513495   5.822   6.523   1.300  0.4999 -0.6518 -0.4490
 1512ntf    on513496   5.536   6.127   1.248 -0.9448  0.5255 -0.0509
 1512ntf    on513497   5.463   6.281   1.426  0.4717 -0.1409  0.4212
 1512ntf    fn413498   5.374   6.461   1.193  0.2543  0.1420  0.5203
 1512ntf    fn413499   5.278   6.268   1.177 -0.0747 -0.4950  0.5097
 1512ntf    fn413500   5.426   6.317   1.047 -0.1950 -0.6323 -0.3570
 1513ntf    cn113501   2.014   5.663   0.237  0.0035 -0.1464 -0.0414
 1513ntf    sn213502   2.111   5.697   0.087 -0.2207  0.0220 -0.1495
 1513ntf    nn313503   2.015   5.743  -0.029 -0.1488  0.3937 -0.0628
 1513ntf    sn213504   1.917   5.662  -0.120  0.1057 -0.1273  0.1168
 1513ntf    cn113505   2.017   5.608  -0.262  0.4010  0.2461  0.1840
 1513ntf    fn413506   1.956   5.544   0.230  0.0331 -0.1507 -0.2436
 1513ntf    fn413507   2.076   5.663   0.353 -0.0925  1.0268  0.0157
 1513ntf    fn413508   1.913   5.748   0.246  0.3915  0.2744  0.3257
 1513ntf    on513509   2.195   5.804   0.136 -0.0339 -0.3126  0.2644
 1513ntf    on513510   2.172   5.568   0.065 -0.2726 -0.0865  0.3337
 1513ntf    on513511   1.864   5.538  -0.070  0.0363 -0.2708 -0.3107
 1513ntf    on513512   1.825   5.752  -0.187  0.2545 -0.3574 -0.4062
 1513ntf    fn413513   2.079   5.698  -0.338  0.4591 -0.3627 -0.4981
 1513ntf    fn413514   1.942   5.545  -0.351 -0.0037  0.6261  0.2522
 1513ntf    fn413515   2.119   5.537  -0.216 -0.4010 -0.8657  0.2622
 1514ntf    cn113516   2.865   3.413   3.356 -0.1631 -0.5319 -0.4277
 1514ntf    sn213517   2.928   3.243   3.369  0.7483 -0.1720 -0.0534
 1514ntf    nn313518   3.077   3.275   3.409  0.7376  0.1567 -0.2744
 1514ntf    sn213519   3.136   3.288   3.554 -0.1761 -0.0542  0.1225
 1514ntf    cn113520   3.171   3.117   3.605  0.1984  0.0187  0.1079
 1514ntf    fn413521   2.954   3.478   3.283 -0.1559 -0.2024 -0.1270
 1514ntf    fn413522   2.742   3.422   3.309 -0.4440 -0.2434  0.3522
 1514ntf    fn413523   2.859   3.480   3.470  0.3244 -1.2722  0.0477
 1514ntf    on513524   2.844   3.184   3.469  0.3621  0.1610 -0.1783
 1514ntf    on513525   2.915   3.194   3.233  0.4051 -0.5377  0.1088
 1514ntf    on513526   3.265   3.351   3.554 -0.1178 -0.1708 -0.2385
 1514ntf    on513527   3.045   3.337   3.655  0.2224  0.1863  0.3641
 1514ntf    fn413528   3.068   3.052   3.657 -0.0804  0.3416 -0.0348
 1514ntf    fn413529   3.263   3.106   3.699 -0.1006 -0.1081  0.3880
 1514ntf    fn413530   3.213   3.045   3.503 -0.2465  0.0904 -0.1291
 1515ntf    cn113531   5.264   1.402   1.151  0.0374  0.4300 -0.6875
 1515ntf    sn213532   5.110   1.376   1.057 -0.0927  0.1101 -0.3868
 1515ntf    nn313533   5.078   1.223   1.068  0.3543  0.0605  0.2911
 1515ntf    sn213534   5.001   1.156   1.188  0.2374  0.0043  0.1850
 1515ntf    cn113535   4.831   1.190   1.132  0.4587  0.1700 -0.3885
 1515ntf    fn413536   5.294   1.530   1.159 -0.2550  0.4479  0.2118
 1515ntf    fn413537   5.272   1.348   1.271 -0.0532  1.2439 -0.3152
 1515ntf    fn413538   5.368   1.349   1.088 -0.2044 -0.1568 -0.6067
 1515ntf    on513539   5.011   1.471   1.100 -0.5267 -0.1191 -0.8721
 1515ntf    on513540   5.154   1.410   0.924  0.2590  0.6245 -0.1425
 1515ntf    on513541   5.013   1.013   1.192  0.1995  0.0092  0.5310
 1515ntf    on513542   5.032   1.221   1.313  0.5408  0.9493 -0.3702
 1515ntf    fn413543   4.797   1.160   1.008  0.1037 -0.3405 -0.1657
 1515ntf    fn413544   4.807   1.320   1.144  1.0023  0.3362 -0.9993
 1515ntf    fn413545   4.738   1.133   1.205  0.9862  0.4837  0.5477
 1516ntf    cn113546   0.320   1.439   5.118  0.3288 -0.4941  0.0994
 1516ntf    sn213547   0.411   1.282   5.122  0.3528 -0.4789  0.1521
 1516ntf    nn313548   0.511   1.309   5.005  0.4284  0.0306  0.3303
 1516ntf    sn213549   0.654   1.373   5.017  0.5275 -0.1361  0.0699
 1516ntf    cn113550   0.636   1.501   4.890  0.4956  0.1829  0.3939
 1516ntf    fn413551   0.307   1.507   5.006 -0.1895  0.4169  0.7024
 1516ntf    fn413552   0.200   1.414   5.169  0.1053 -0.1225 -0.2389
 1516ntf    fn413553   0.372   1.522   5.206 -0.1365 -0.2500  0.1499
 1516ntf    on513554   0.471   1.283   5.253  0.2659 -0.9618  0.1971
 1516ntf    on513555   0.307   1.186   5.095 -0.1520 -0.0286  0.4747
 1516ntf    on513556   0.675   1.453   5.136  0.1162  0.0978 -0.0138
 1516ntf    on513557   0.757   1.299   4.948 -0.2727 -0.4607 -0.7847
 1516ntf    fn413558   0.594   1.443   4.778  0.2841  0.6443  0.2325
 1516ntf    fn413559   0.748   1.561   4.854  0.1020  0.4962 -0.3425
 1516ntf    fn413560   0.539   1.588   4.910  0.4372  0.2659 -0.2267
 1517ntf    cn113561   5.581   3.360   3.205 -0.1909  0.5976  0.1610
 1517ntf    sn213562   5.560   3.496   3.087  0.3596  0.4442 -0.1165
 1517ntf    nn313563   5.464   3.596   3.162 -0.0417 -0.0988  0.0986
 1517ntf    sn213564   5.505   3.709   3.263 -0.1171 -0.0546  0.0794
 1517ntf    cn113565   5.473   3.861   3.169  0.1833 -0.0395  0.0011
 1517ntf    fn413566   5.466   3.299   3.229  0.2570 -0.4195 -0.2390
 1517ntf    fn413567   5.656   3.265   3.151 -0.5236  0.1373  0.4952
 1517ntf    fn413568   5.636   3.393   3.320 -0.0881 -0.4120  0.4138
 1517ntf    on513569   5.693   3.535   3.048  0.4786  0.0470 -0.1118
 1517ntf    on513570   5.488   3.427   2.982 -0.0660  0.2137  0.3249
 1517ntf    on513571   5.419   3.720   3.378  0.7000  0.3135  0.6662
 1517ntf    on513572   5.645   3.725   3.294 -0.2065  0.3541  0.2683
 1517ntf    fn413573   5.580   3.898   3.099  0.8229 -0.5312  0.7042
 1517ntf    fn413574   5.430   3.967   3.236  0.3343 -0.3892  0.6604
 1517ntf    fn413575   5.375   3.841   3.082  0.0409  0.2714  0.0912
 1518ntf    cn113576   2.862   0.107   3.753  0.0918  0.0633 -0.0405
 1518ntf    sn213577   2.926   0.094   3.583  0.3712  0.1075  0.0608
 1518ntf    nn313578   3.080   0.101   3.613  0.4558  0.0377 -0.3597
 1518ntf    sn213579   3.189  -0.009   3.641 -0.1580 -0.4594  0.1061
 1518ntf    cn113580   3.294   0.026   3.497 -0.1984  0.2783  0.2511
 1518ntf    fn413581   2.887   0.226   3.803  0.1914 -0.1151  0.3357
 1518ntf    fn413582   2.731   0.088   3.758  0.0227  0.3478 -0.6787
 1518ntf    fn413583   2.911   0.007   3.824 -0.0942 -0.1381 -0.1913
 1518ntf    on513584   2.882  -0.035   3.537 -0.1675  0.2633  0.1297
 1518ntf    on513585   2.891   0.211   3.506 -0.3748  0.2153  0.5475
 1518ntf    on513586   3.284   0.014   3.747 -0.1982  0.0816  0.0252
 1518ntf    on513587   3.157  -0.146   3.607  0.8378 -0.4997 -0.7334
 1518ntf    fn413588   3.220  -0.003   3.392  0.2532  0.3604 -0.0953
 1518ntf    fn413589   3.401  -0.053   3.495 -0.1234  0.3892 -0.2957
 1518ntf    fn413590   3.331   0.152   3.484 -0.3164  0.2406 -0.5120
 1519ntf    cn113591   6.710   5.676   3.490  0.1406 -0.0731  0.1131
 1519ntf    sn213592   6.855   5.784   3.512 -0.0953  0.2692  0.0019
 1519ntf    nn313593   6.958   5.693   3.437  0.1518  0.1918  0.4320
 1519ntf    sn213594   7.080   5.610   3.491  0.4102  0.1561 -0.1929
 1519ntf    cn113595   7.206   5.742   3.493  0.2572  0.3003  0.1181
 1519ntf    fn413596   6.594   5.734   3.520  0.0003 -0.0367 -0.4920
 1519ntf    fn413597   6.703   5.620   3.371  0.2422  0.3781 -0.1050
 1519ntf    fn413598   6.722   5.577   3.577 -0.2852  0.0333  0.2983
 1519ntf    on513599   6.816   5.900   3.436 -0.0533 -0.0228 -0.4715
 1519ntf    on513600   6.869   5.802   3.655 -0.2235  0.0568  0.0421
 1519ntf    on513601   7.073   5.571   3.630 -0.3456  0.1762 -0.2200
 1519ntf    on513602   7.130   5.520   3.390  0.0957  0.0535 -0.2587
 1519ntf    fn413603   7.215   5.805   3.377 -0.0978  0.1323 -0.0017
 1519ntf    fn413604   7.329   5.697   3.514  0.1854 -0.2923 -0.6467
 1519ntf    fn413605   7.187   5.833   3.587 -0.2372 -0.1244  0.4348
 1520ntf    cn113606   4.956   0.140   5.831  0.2732 -0.3369 -0.0171
 1520ntf    sn213607   4.832   0.044   5.923 -0.0030 -0.0872 -0.1239
 1520ntf    nn313608   4.918   0.007   6.049 -0.4755  0.1393  0.2693
 1520ntf    sn213609   4.939   0.080   6.187  0.5096  0.0692  0.1677
 1520ntf    cn113610   4.822  -0.031   6.272  0.4551 -0.0002  0.0028
 1520ntf    fn413611   4.978   0.263   5.875 -0.1380 -0.3126  0.1363
 1520ntf    fn413612   5.076   0.085   5.827  0.1709 -0.6111  0.5787
 1520ntf    fn413613   4.920   0.148   5.704 -0.1814  0.4909  0.1534
 1520ntf    on513614   4.716   0.128   5.934  0.3310  0.3675 -0.0432
 1520ntf    on513615   4.815  -0.072   5.839 -0.1426 -0.1127 -0.0620
 1520ntf    on513616   5.067   0.051   6.246  0.8132  0.1672 -0.4375
 1520ntf    on513617   4.903   0.219   6.181 -0.2118 -0.1232 -0.0537
 1520ntf    fn413618   4.813  -0.016   6.403  0.0027  0.8012 -0.1212
 1520ntf    fn413619   4.854  -0.158   6.250 -0.1876 -0.1331 -0.1849
 1520ntf    fn413620   4.704  -0.040   6.214  0.2548  0.1492  0.3876
 1521ntf    cn113621   6.250   0.512   5.410 -0.2496  0.0336 -0.2322
 1521ntf    sn213622   6.325   0.375   5.317  0.2220 -0.0229  0.2286
 1521ntf    nn313623   6.250   0.392   5.180  0.4220 -0.3527  0.0780
 1521ntf    sn213624   6.113   0.330   5.135  0.2552  0.2846 -0.2971
 1521ntf    cn113625   6.159   0.168   5.068  0.4598  0.0805  0.3297
 1521ntf    fn413626   6.301   0.527   5.531  0.0530 -0.3838 -0.3070
 1521ntf    fn413627   6.283   0.621   5.341  0.2272 -0.4622 -0.8034
 1521ntf    fn413628   6.119   0.498   5.413 -0.2098 -0.1923  0.5432
 1521ntf    on513629   6.462   0.420   5.309  0.0965  0.3200 -0.0174
 1521ntf    on513630   6.288   0.269   5.407  0.2487  0.0696  0.3496
 1521ntf    on513631   6.025   0.299   5.244 -0.0229 -0.3008 -0.6858
 1521ntf    on513632   6.055   0.405   5.026  0.0362  0.7639  0.1456
 1521ntf    fn413633   6.057   0.103   5.014 -0.1188  1.0198  0.2845
 1521ntf    fn413634   6.213   0.093   5.162  0.6762 -0.2145 -0.0227
 1521ntf    fn413635   6.256   0.174   4.977  0.4473 -0.3225  0.2881
 1522ntf    cn113636   0.820   1.548   1.373 -0.3529  0.0557 -0.2120
 1522ntf    sn213637   0.911   1.656   1.259 -0.1287  0.0055 -0.0824
 1522ntf    nn313638   0.836   1.794   1.269  0.1566  0.1588 -0.0403
 1522ntf    sn213639   0.727   1.853   1.173  0.1700  0.4186  0.1038
 1522ntf    cn113640   0.812   1.900   1.019  0.4011  0.2368  0.1762
 1522ntf    fn413641   0.853   1.422   1.350  0.3160  0.2320 -0.2492
 1522ntf    fn413642   0.846   1.573   1.501 -0.1907 -0.1609 -0.2028
 1522ntf    fn413643   0.688   1.556   1.370 -0.3467  0.4575  0.3976
 1522ntf    on513644   1.041   1.667   1.320 -0.1675 -0.6355  0.1231
 1522ntf    on513645   0.898   1.588   1.132  0.0900  0.0995 -0.1567
 1522ntf    on513646   0.625   1.755   1.146  0.4307  0.1752 -0.0071
 1522ntf    on513647   0.681   1.981   1.222  0.3506  0.7416 -0.5481
 1522ntf    fn413648   0.735   1.962   0.932  0.0485 -0.4364 -0.0039
 1522ntf    fn413649   0.856   1.791   0.957  0.2998  0.1095  0.3273
 1522ntf    fn413650   0.913   1.982   1.042  0.3046  0.4477 -0.1524
 1523ntf    cn113651   1.604   4.913   5.156 -0.2950  0.1764  0.0562
 1523ntf    sn213652   1.461   4.892   5.266  0.0448  0.1942  0.5059
 1523ntf    nn313653   1.535   4.935   5.397  0.1594 -0.2203  0.5776
 1523ntf    sn213654   1.569   5.083   5.438 -0.1980  0.0725 -0.1716
 1523ntf    cn113655   1.751   5.084   5.438 -0.1984  0.2018 -0.0611
 1523ntf    fn413656   1.710   4.848   5.203 -0.2144  0.4721  0.2838
 1523ntf    fn413657   1.585   4.865   5.034  0.1770 -0.0102  0.0522
 1523ntf    fn413658   1.632   5.041   5.136 -0.1116  0.1586  0.1954
 1523ntf    on513659   1.359   4.980   5.213  0.2939  0.3407  0.2648
 1523ntf    on513660   1.430   4.751   5.267  0.4265  0.1127  0.6420
 1523ntf    on513661   1.539   5.190   5.346 -0.2857  0.1499 -0.0527
 1523ntf    on513662   1.527   5.115   5.572 -0.2117 -0.4117 -0.0580
 1523ntf    fn413663   1.796   5.051   5.318 -0.6021  0.1276 -0.1969
 1523ntf    fn413664   1.792   4.994   5.525 -0.0540  0.0390 -0.2959
 1523ntf    fn413665   1.802   5.201   5.472  0.1920  0.0285 -0.0454
 1524ntf    cn113666   4.685   5.098   0.809  0.1319  0.0449 -0.1480
 1524ntf    sn213667   4.613   5.123   0.974 -0.2430 -0.6121 -0.2062
 1524ntf    nn313668   4.539   4.992   1.016  0.0240 -0.7350 -0.1151
 1524ntf    sn213669   4.389   4.977   1.061 -0.1178  0.1702 -0.2786
 1524ntf    cn113670   4.315   4.999   0.897  0.1413 -0.1721 -0.4428
 1524ntf    fn413671   4.759   5.202   0.775  0.2986  0.1006  0.3701
 1524ntf    fn413672   4.766   4.995   0.786 -0.1043 -0.1739 -0.0090
 1524ntf    fn413673   4.587   5.083   0.722 -0.1668 -0.2044  0.2252
 1524ntf    on513674   4.730   5.138   1.058 -0.2922  0.2932 -0.2826
 1524ntf    on513675   4.536   5.244   0.953  0.0430 -0.3861  0.0361
 1524ntf    on513676   4.358   4.841   1.099 -0.0109  0.0130 -0.7523
 1524ntf    on513677   4.340   5.080   1.150  0.0469  0.2245 -0.2500
 1524ntf    fn413678   4.183   4.995   0.903  0.1403 -0.6480 -0.7268
 1524ntf    fn413679   4.345   4.904   0.811  0.4697 -0.3823 -0.0968
 1524ntf    fn413680   4.343   5.118   0.846 -0.1649  0.0787 -0.0354
 1525ntf    cn113681   4.330   3.202   5.827 -0.2155 -0.4595  0.1049
 1525ntf    sn213682   4.228   3.309   5.933  0.0973  0.0125 -0.0706
 1525ntf    nn313683   4.205   3.442   5.852  0.2568  0.2803  0.3167
 1525ntf    sn213684   4.091   3.489   5.754  0.2549  0.1431  0.2527
 1525ntf    cn113685   3.970   3.548   5.876  0.3829 -0.2553  0.5743
 1525ntf    fn413686   4.363   3.086   5.882 -0.0165 -0.1082  0.7389
 1525ntf    fn413687   4.261   3.169   5.720  0.1647  0.7221 -0.5240
 1525ntf    fn413688   4.440   3.258   5.778 -0.1376 -0.1328  0.6389
 1525ntf    on513689   4.112   3.227   5.953  0.1109  0.0467  0.1534
 1525ntf    on513690   4.305   3.345   6.049  0.5346  0.0943 -0.3815
 1525ntf    on513691   4.123   3.605   5.675 -0.2480  0.1697  0.0865
 1525ntf    on513692   4.030   3.378   5.686 -0.4459  0.6654  0.0184
 1525ntf    fn413693   3.847   3.546   5.827  0.6170 -0.3081 -0.0231
 1525ntf    fn413694   3.998   3.673   5.911 -0.1257 -0.1454  0.5905
 1525ntf    fn413695   3.962   3.477   5.987 -0.4801 -0.8033  0.1675
 1526ntf    cn113696   0.185   5.887   2.025  0.1394  0.1122 -0.1560
 1526ntf    sn213697   0.331   5.971   2.093  0.2797 -0.1458 -0.1389
 1526ntf    nn313698   0.268   6.076   2.190 -0.2518 -0.2539 -0.3659
 1526ntf    sn213699   0.229   6.228   2.180 -0.2931 -0.2502 -0.1626
 1526ntf    cn113700   0.391   6.290   2.236 -0.5160  0.0647  0.1338
 1526ntf    fn413701   0.115   5.821   2.116  0.2684  0.5535  0.2708
 1526ntf    fn413702   0.102   5.970   1.964 -0.2827 -0.2771 -0.1150
 1526ntf    fn413703   0.209   5.797   1.931 -0.5065  0.6546 -0.8598
 1526ntf    on513704   0.396   5.864   2.165  0.4179  0.0827  0.0799
 1526ntf    on513705   0.406   6.027   1.983 -0.1739 -0.2994 -0.5322
 1526ntf    on513706   0.202   6.273   2.046  0.0368 -0.0565 -0.1654
 1526ntf    on513707   0.135   6.282   2.275 -0.0390  0.4732 -0.3175
 1526ntf    fn413708   0.414   6.256   2.362 -0.2269 -0.2066  0.0070
 1526ntf    fn413709   0.409   6.421   2.224 -0.0952  0.0049  0.1005
 1526ntf    fn413710   0.487   6.223   2.176 -0.4224  0.1969  0.1353
 1527ntf    cn113711   2.212   2.320   1.755 -0.1341 -0.3897 -0.1188
 1527ntf    sn213712   2.388   2.281   1.775 -0.0411  0.0312 -0.1111
 1527ntf    nn313713   2.400   2.292   1.931 -0.0291 -0.3440 -0.0861
 1527ntf    sn213714   2.516   2.249   2.027  0.0262 -0.1516 -0.0673
 1527ntf    cn113715   2.476   2.073   2.051 -0.7749 -0.0089 -0.3134
 1527ntf    fn413716   2.186   2.344   1.627 -0.3178 -0.1126 -0.0308
 1527ntf    fn413717   2.127   2.225   1.791  0.1532 -0.6153 -0.0413
 1527ntf    fn413718   2.173   2.429   1.818  0.2067 -0.2900 -0.0787
 1527ntf    on513719   2.385   2.147   1.721  0.2492  0.0287 -0.1224
 1527ntf    on513720   2.467   2.380   1.704  0.0635  0.0081 -0.0270
 1527ntf    on513721   2.652   2.242   1.981  0.2559  0.3061  0.5276
 1527ntf    on513722   2.490   2.306   2.157  0.3391 -0.3534  0.0846
 1527ntf    fn413723   2.545   1.994   1.970 -0.2456 -0.4843  0.5880
 1527ntf    fn413724   2.347   2.049   2.037 -0.6726 -0.4264 -0.5409
 1527ntf    fn413725   2.521   2.041   2.171 -0.4134 -0.1876 -0.4941
 1528ntf    cn113726   6.805   2.723   2.676  0.0471 -0.2713 -0.3347
 1528ntf    sn213727   6.788   2.623   2.826  0.1290 -0.0974 -0.2089
 1528ntf    nn313728   6.747   2.748   2.913 -0.4814 -0.6181  0.2641
 1528ntf    sn213729   6.824   2.816   3.031 -0.3694 -0.4397  0.0895
 1528ntf    cn113730   6.693   2.877   3.141 -0.0125  0.0364  0.2557
 1528ntf    fn413731   6.687   2.766   2.634 -0.1431 -0.2253  0.2413
 1528ntf    fn413732   6.884   2.828   2.693  0.1629 -0.4562  0.2692
 1528ntf    fn413733   6.856   2.659   2.572  0.3188 -0.0245 -0.3564
 1528ntf    on513734   6.680   2.535   2.790  0.3927 -0.4147 -0.2291
 1528ntf    on513735   6.918   2.564   2.846  0.1258 -0.0153  0.0655
 1528ntf    on513736   6.903   2.731   3.117  0.2185 -0.1473 -0.1596
 1528ntf    on513737   6.883   2.941   2.991 -0.5162 -0.0726  1.0041
 1528ntf    fn413738   6.756   2.930   3.244  0.1344  0.0621  0.1526
 1528ntf    fn413739   6.616   2.779   3.187  0.2680 -0.2203  0.1778
 1528ntf    fn413740   6.613   2.970   3.092 -0.0524 -0.3274 -0.3857
 1529ntf    cn113741   2.594   6.241   2.736  0.1821  0.3591  0.0714
 1529ntf    sn213742   2.713   6.219   2.872  0.1542  0.1825  0.0671
 1529ntf    nn313743   2.609   6.156   2.971 -0.3034  0.1593 -0.4218
 1529ntf    sn213744   2.540   6.226   3.093 -0.1669 -0.1818 -0.1460
 1529ntf    cn113745   2.649   6.176   3.229 -0.4256  0.2147  0.2091
 1529ntf    fn413746   2.486   6.313   2.761  0.0467 -0.0496  0.6960
 1529ntf    fn413747   2.665   6.286   2.634  0.3109  0.0960  0.0440
 1529ntf    fn413748   2.552   6.121   2.700  0.0759  0.3493  0.2251
 1529ntf    on513749   2.807   6.123   2.818  0.0765  0.4896 -0.6216
 1529ntf    on513750   2.764   6.352   2.895  0.4368  0.0927 -0.0250
 1529ntf    on513751   2.543   6.370   3.103 -0.4139 -0.1473 -0.5331
 1529ntf    on513752   2.411   6.166   3.121 -0.5037  0.7333  0.2983
 1529ntf    fn413753   2.618   6.059   3.282  0.2727 -0.2240 -0.3381
 1529ntf    fn413754   2.650   6.256   3.335 -0.3293 -0.2105  0.5323
 1529ntf    fn413755   2.772   6.156   3.184 -0.4840  0.0469  0.1233
 1530ntf    cn113756   1.239   4.509   2.643  0.2588 -0.0639 -0.0907
 1530ntf    sn213757   1.281   4.595   2.488  0.2977  0.2351  0.0839
 1530ntf    nn313758   1.142   4.652   2.443  0.2084  0.0374  0.1067
 1530ntf    sn213759   1.099   4.798   2.407 -0.7073 -0.2794 -0.1167
 1530ntf    cn113760   0.955   4.819   2.516 -0.1832 -0.1471  0.5614
 1530ntf    fn413761   1.151   4.412   2.625  0.6263 -0.3397 -0.4328
 1530ntf    fn413762   1.340   4.445   2.699 -0.0731 -0.5692 -0.0586
 1530ntf    fn413763   1.190   4.590   2.735 -0.5447 -0.2364 -0.3577
 1530ntf    on513764   1.372   4.697   2.532  0.2876  0.0634  0.5064
 1530ntf    on513765   1.324   4.482   2.409 -0.4924 -0.1014  0.1244
 1530ntf    on513766   1.187   4.909   2.437 -0.8406 -0.0580 -0.5252
 1530ntf    on513767   1.032   4.800   2.280 -0.4148  0.0517 -0.2705
 1530ntf    fn413768   1.010   4.817   2.636  0.0492  0.2600  0.4631
 1530ntf    fn413769   0.868   4.719   2.509 -0.2700 -0.0611  0.4059
 1530ntf    fn413770   0.886   4.930   2.496 -0.4485 -0.3410  0.3771
 1531ntf    cn113771   6.248   3.984   0.164 -0.5134  0.3344  0.2378
 1531ntf    sn213772   6.256   4.124   0.279  0.4242  0.2915  0.2296
 1531ntf    nn313773   6.372   4.070   0.371  0.4189  0.1654  0.1611
 1531ntf    sn213774   6.400   4.083   0.524 -0.2293 -0.2110  0.3160
 1531ntf    cn113775   6.362   3.923   0.601  0.3691 -0.4508  0.1161
 1531ntf    fn413776   6.130   3.984   0.104  0.0660  0.0151 -0.9376
 1531ntf    fn413777   6.337   3.986   0.066 -0.4439 -0.2396  0.2891
 1531ntf    fn413778   6.252   3.866   0.224  0.4592  0.0812 -0.3050
 1531ntf    on513779   6.300   4.234   0.196  0.9346  0.0238  0.1382
 1531ntf    on513780   6.120   4.115   0.325  0.4427 -0.2020  0.1900
 1531ntf    on513781   6.543   4.097   0.540 -0.2580  0.0313  0.3627
 1531ntf    on513782   6.324   4.179   0.600  0.0444  0.0873  0.2173
 1531ntf    fn413783   6.362   3.937   0.733  0.4799  0.2203  0.0454
 1531ntf    fn413784   6.448   3.828   0.567  0.0894 -0.6790  0.0395
 1531ntf    fn413785   6.244   3.872   0.570  0.1995 -0.0120  0.0403
 1532ntf    cn113786   4.104   5.389   6.364 -0.4359  0.2801  0.1241
 1532ntf    sn213787   4.205   5.521   6.291  0.0654 -0.0663  0.1848
 1532ntf    nn313788   4.100   5.637   6.283  0.0004 -0.1093  0.4161
 1532ntf    sn213789   4.090   5.759   6.382 -0.1828  0.2555 -0.0492
 1532ntf    cn113790   4.202   5.864   6.285  0.1642 -0.2243 -0.1731
 1532ntf    fn413791   4.061   5.434   6.481 -0.5385 -0.2634  0.2981
 1532ntf    fn413792   4.005   5.355   6.284 -0.0209  0.0084 -0.2824
 1532ntf    fn413793   4.187   5.287   6.385 -0.2030  0.4637  0.1044
 1532ntf    on513794   4.312   5.534   6.388  0.1769  1.0744 -0.0765
 1532ntf    on513795   4.248   5.460   6.167  0.2974  0.1962  0.1345
 1532ntf    on513796   3.959   5.817   6.368 -0.2033  0.4066  0.6987
 1532ntf    on513797   4.138   5.737   6.516  0.3792 -0.1530 -0.3148
 1532ntf    fn413798   4.198   5.991   6.322  0.7615 -0.2347 -0.0592
 1532ntf    fn413799   4.169   5.876   6.158 -0.4394 -0.1107 -0.0076
 1532ntf    fn413800   4.330   5.830   6.283  0.2751  0.1731  0.0333
 1533ntf    cn113801   0.016   6.528   5.846  0.2210  0.2358 -0.0783
 1533ntf    sn213802   0.162   6.630   5.886  0.1130  0.2602  0.2497
 1533ntf    nn313803   0.110   6.776   5.865 -0.5141  0.0292  0.1561
 1533ntf    sn213804   0.126   6.870   5.740 -0.1217 -0.2875 -0.0357
 1533ntf    cn113805  -0.012   6.983   5.775  0.1669 -0.0325  0.2901
 1533ntf    fn413806  -0.030   6.545   5.723 -0.1206  0.1630  0.0402
 1533ntf    fn413807   0.047   6.400   5.852  0.1765  0.2306  0.0295
 1533ntf    fn413808  -0.089   6.545   5.924  0.0207 -0.4195 -0.2025
 1533ntf    on513809   0.181   6.602   6.026 -0.0776 -0.0221  0.2215
 1533ntf    on513810   0.265   6.591   5.794 -0.1075  0.3167 -0.0225
 1533ntf    on513811   0.244   6.953   5.741 -0.0260 -0.4242 -0.0932
 1533ntf    on513812   0.089   6.824   5.609  0.1496 -0.2104 -0.1398
 1533ntf    fn413813  -0.019   7.091   5.698  0.4414  0.2600  0.6701
 1533ntf    fn413814  -0.020   7.031   5.898  0.3400 -0.7723  0.5941
 1533ntf    fn413815  -0.125   6.922   5.746  0.4113 -0.2265 -0.2517
 1534ntf    cn113816   3.475   4.795   6.195 -0.4734 -0.1799  0.3652
 1534ntf    sn213817   3.624   4.834   6.292 -0.0777 -0.2625 -0.2093
 1534ntf    nn313818   3.625   4.986   6.328  0.8345 -0.4163  0.4368
 1534ntf    sn213819   3.546   5.040   6.453 -0.1308 -0.3021 -0.2173
 1534ntf    cn113820   3.649   4.982   6.591  0.0349 -0.1090 -0.2590
 1534ntf    fn413821   3.482   4.678   6.134 -0.0835  0.2420 -0.4033
 1534ntf    fn413822   3.364   4.796   6.268 -0.6060 -0.1945  0.1631
 1534ntf    fn413823   3.460   4.880   6.095  0.2704 -0.2283  0.2050
 1534ntf    on513824   3.619   4.752   6.411 -0.6135  0.0992  0.0185
 1534ntf    on513825   3.727   4.810   6.193 -0.2468 -0.4341 -0.3444
 1534ntf    on513826   3.552   5.184   6.456 -0.3285 -0.2938 -0.2029
 1534ntf    on513827   3.419   4.973   6.471 -0.2155 -0.1388 -0.2032
 1534ntf    fn413828   3.619   5.047   6.702  0.3375  0.5364 -0.5497
 1534ntf    fn413829   3.779   5.003   6.574  0.0702  0.1117  0.2857
 1534ntf    fn413830   3.629   4.855   6.624 -0.3332  0.0724  0.2168
 1535ntf    cn113831   4.773   0.395   0.493 -0.2066 -0.0413  0.1029
 1535ntf    sn213832   4.704   0.291   0.625 -0.3237  0.0653  0.1265
 1535ntf    nn313833   4.768   0.361   0.750  0.0024 -0.3361  0.1872
 1535ntf    sn213834   4.907   0.324   0.813  0.0130 -0.1670  0.2631
 1535ntf    cn113835   4.931   0.467   0.923  0.5217 -0.2413  0.2512
 1535ntf    fn413836   4.899   0.370   0.461 -0.1112  0.1296  0.3390
 1535ntf    fn413837   4.694   0.387   0.387  0.6802 -1.1163 -0.4977
 1535ntf    fn413838   4.763   0.520   0.535  0.6069 -0.1469  0.6357
 1535ntf    on513839   4.562   0.317   0.622 -0.3378 -0.0784 -0.6216
 1535ntf    on513840   4.750   0.156   0.600 -0.2689  0.0702  0.2010
 1535ntf    on513841   4.900   0.209   0.900  0.2799 -0.3226  0.0791
 1535ntf    on513842   5.020   0.333   0.725 -0.3714  0.8295 -0.1412
 1535ntf    fn413843   4.961   0.576   0.853 -0.5156  0.0419  0.2194
 1535ntf    fn413844   5.031   0.439   1.004  0.6622 -0.2604  0.0736
 1535ntf    fn413845   4.829   0.506   0.997  0.2222 -0.1300 -0.2130
 1536ntf    cn113846   4.280   1.881   1.116 -0.3423 -0.0775 -0.6943
 1536ntf    sn213847   4.222   1.732   1.203 -0.0725  0.0784 -0.2442
 1536ntf    nn313848   4.259   1.760   1.353  0.0525 -0.5454 -0.1590
 1536ntf    sn213849   4.385   1.719   1.438  0.0531 -0.1055  0.0509
 1536ntf    cn113850   4.311   1.643   1.586  0.1167 -0.1956  0.0362
 1536ntf    fn413851   4.407   1.906   1.142 -0.5046  0.6033 -0.5479
 1536ntf    fn413852   4.271   1.865   0.985 -0.4152  0.0849 -0.7093
 1536ntf    fn413853   4.218   1.993   1.148 -0.3818 -0.2137 -0.2958
 1536ntf    on513854   4.080   1.746   1.179 -0.1252  0.6650  0.3919
 1536ntf    on513855   4.285   1.623   1.133 -0.7570 -0.5130  0.0491
 1536ntf    on513856   4.467   1.619   1.375  0.3951  0.1526  0.0830
 1536ntf    on513857   4.460   1.824   1.503  0.3353 -0.2129 -0.1000
 1536ntf    fn413858   4.396   1.577   1.662  0.0796  0.2140  0.4358
 1536ntf    fn413859   4.224   1.545   1.569 -0.3467  0.3166 -0.5901
 1536ntf    fn413860   4.241   1.730   1.656  0.0520 -0.2544  0.0450
 1537ntf    cn113861   4.607   3.838   4.296 -0.1172  0.2137  0.0868
 1537ntf    sn213862   4.450   3.849   4.387 -0.0911  0.0847  0.1489
 1537ntf    nn313863   4.356   3.880   4.265  0.3996 -0.1257 -0.2858
 1537ntf    sn213864   4.274   3.774   4.182  0.1241 -0.1176 -0.0240
 1537ntf    cn113865   4.107   3.781   4.255  0.1217 -0.4803  0.0060
 1537ntf    fn413866   4.589   3.790   4.175  0.1089 -0.2262  0.2275
 1537ntf    fn413867   4.670   3.954   4.280  0.0396  0.1767  0.4137
 1537ntf    fn413868   4.693   3.756   4.353 -0.0697  0.4418  0.3483
 1537ntf    on513869   4.431   3.726   4.459  0.6315  0.4968  1.0578
 1537ntf    on513870   4.466   3.967   4.468 -0.8252 -0.0932  0.5683
 1537ntf    on513871   4.252   3.827   4.049  0.0672 -0.7208 -0.2564
 1537ntf    on513872   4.310   3.635   4.193 -0.1910 -0.2137 -0.1952
 1537ntf    fn413873   4.041   3.892   4.225 -0.0772 -0.7026 -0.3949
 1537ntf    fn413874   4.099   3.774   4.387 -0.5553  0.8968  0.0595
 1537ntf    fn413875   4.031   3.685   4.206 -1.1281  0.1727  0.6196
 1538ntf    cn113876   6.121   4.204   6.383 -0.0441  0.2531 -0.3405
 1538ntf    sn213877   6.122   4.247   6.206 -0.0019  0.3913 -0.3068
 1538ntf    nn313878   6.008   4.157   6.146  0.0998  0.3348 -0.4120
 1538ntf    sn213879   6.017   4.040   6.041  0.4218  0.2682 -0.3135
 1538ntf    cn113880   5.844   3.983   6.041  0.4091  0.3081 -0.2352
 1538ntf    fn413881   6.184   4.285   6.465 -0.2853  0.2700 -0.1720
 1538ntf    fn413882   5.997   4.201   6.429  0.0747 -0.6968 -0.0635
 1538ntf    fn413883   6.168   4.083   6.406 -0.5910  0.1005  0.0002
 1538ntf    on513884   6.091   4.388   6.205  0.0734  0.4078 -0.2354
 1538ntf    on513885   6.255   4.211   6.166  0.1941  0.8223 -0.0496
 1538ntf    on513886   6.030   4.091   5.907  0.7733  0.0042 -0.3816
 1538ntf    on513887   6.104   3.933   6.082 -0.5869 -0.3606  0.2379
 1538ntf    fn413888   5.755   4.079   6.022  0.0503 -0.0482 -0.3636
 1538ntf    fn413889   5.800   3.929   6.153  0.2352  0.3269 -0.2948
 1538ntf    fn413890   5.818   3.893   5.948  0.2926  0.0174  0.0790
 1539ntf    cn113891   4.242   4.784   5.805  0.1283  0.1697 -0.0093
 1539ntf    sn213892   4.298   4.612   5.790  0.0908  0.0876  0.7317
 1539ntf    nn313893   4.368   4.580   5.927 -0.0406 -0.6781  0.6250
 1539ntf    sn213894   4.480   4.662   6.000 -0.1598  0.0426  0.0112
 1539ntf    cn113895   4.621   4.547   5.985 -0.2085  0.0163 -0.2471
 1539ntf    fn413896   4.339   4.875   5.802 -0.4228  0.7903  0.5856
 1539ntf    fn413897   4.179   4.827   5.698 -0.5341  0.0324  0.3217
 1539ntf    fn413898   4.168   4.819   5.909  0.0688 -0.0025  0.0052
 1539ntf    on513899   4.173   4.542   5.771  0.2929 -0.0459 -0.1657
 1539ntf    on513900   4.378   4.617   5.670  0.4546  0.0316  0.9685
 1539ntf    on513901   4.542   4.771   5.928 -0.1182  0.1667  0.2336
 1539ntf    on513902   4.445   4.676   6.139 -0.4053  0.2770 -0.0743
 1539ntf    fn413903   4.623   4.497   5.863 -0.2480  0.4324 -0.4206
 1539ntf    fn413904   4.604   4.444   6.066  0.7230  0.1071  0.0763
 1539ntf    fn413905   4.738   4.607   6.002 -0.4917  0.4939  0.0694
 1540ntf    cn113906   6.458   2.031   2.405  0.5557 -0.3892 -0.3335
 1540ntf    sn213907   6.624   1.979   2.354  0.5509 -0.5991 -0.1360
 1540ntf    nn313908   6.603   1.865   2.248 -0.2494 -0.3518 -0.2450
 1540ntf    sn213909   6.683   1.836   2.116  0.0220  0.2486 -0.2158
 1540ntf    cn113910   6.605   1.955   2.003 -0.3311  0.1300 -0.0978
 1540ntf    fn413911   6.386   2.077   2.304 -0.5545 -0.1243  0.5559
 1540ntf    fn413912   6.393   1.929   2.458  0.4504 -0.1190  0.0638
 1540ntf    fn413913   6.453   2.124   2.499  0.0583 -0.3082 -0.4337
 1540ntf    on513914   6.686   2.102   2.310 -0.0747  0.0114  0.6515
 1540ntf    on513915   6.676   1.912   2.471  0.2717 -0.1877  0.2299
 1540ntf    on513916   6.822   1.874   2.126  0.0539  0.1140 -0.1506
 1540ntf    on513917   6.656   1.705   2.062 -0.0145  0.0409  0.3004
 1540ntf    fn413918   6.484   1.905   1.981  0.0370 -0.6939 -0.2812
 1540ntf    fn413919   6.662   1.958   1.884 -0.2973  0.1655 -0.0803
 1540ntf    fn413920   6.590   2.078   2.049 -0.1858  0.0738  0.1002
 1541ntf    cn113921   2.534   3.484   4.195  0.0707  0.0672 -0.1434
 1541ntf    sn213922   2.616   3.462   4.034  0.2383 -0.1460 -0.0309
 1541ntf    nn313923   2.500   3.528   3.950 -0.1497 -0.3017  0.3750
 1541ntf    sn213924   2.481   3.672   3.891 -0.0207 -0.3701  0.1630
 1541ntf    cn113925   2.312   3.664   3.825 -0.1156  0.0067  0.3587
 1541ntf    fn413926   2.492   3.609   4.204  0.3299  0.1052  0.5639
 1541ntf    fn413927   2.423   3.413   4.211  0.2803 -0.2235  0.0243
 1541ntf    fn413928   2.614   3.458   4.297 -0.1702 -0.3943 -0.0654
 1541ntf    on513929   2.739   3.537   4.046  0.2168 -0.2098  0.6363
 1541ntf    on513930   2.630   3.320   4.016 -0.3256 -0.2043 -0.0418
 1541ntf    on513931   2.478   3.785   3.981  0.2748 -0.0637 -0.2106
 1541ntf    on513932   2.566   3.692   3.777  0.3358  0.5964  0.5841
 1541ntf    fn413933   2.269   3.783   3.785  0.5235  0.2429  0.3696
 1541ntf    fn413934   2.234   3.617   3.921  0.3912 -0.2959  0.6271
 1541ntf    fn413935   2.296   3.579   3.725 -0.3296  0.0947  0.3160
 1542ntf    cn113936   4.452   0.425   3.835  0.2116  0.2900 -0.0396
 1542ntf    sn213937   4.579   0.300   3.868 -0.1211  0.0023  0.1642
 1542ntf    nn313938   4.628   0.286   3.719 -0.1707 -0.5920  0.2002
 1542ntf    sn213939   4.604   0.172   3.614 -0.0858 -0.3072 -0.1318
 1542ntf    cn113940   4.754   0.070   3.637 -0.1255 -0.2825  0.2500
 1542ntf    fn413941   4.343   0.416   3.909  0.5194 -0.1638  0.3632
 1542ntf    fn413942   4.507   0.544   3.854  0.1636  0.4204 -0.6818
 1542ntf    fn413943   4.423   0.434   3.706  0.7693  0.3868 -0.1601
 1542ntf    on513944   4.679   0.376   3.939  0.1792 -0.4011  0.1814
 1542ntf    on513945   4.507   0.191   3.930 -0.4215  0.2406  0.2335
 1542ntf    on513946   4.492   0.082   3.628 -0.4575  0.1610 -0.0989
 1542ntf    on513947   4.626   0.226   3.482  0.0388 -0.1731 -0.0557
 1542ntf    fn413948   4.745   0.005   3.751  0.6799  0.0042  0.4769
 1542ntf    fn413949   4.868   0.137   3.634 -0.3509  0.0829 -0.3988
 1542ntf    fn413950   4.753  -0.021   3.541 -0.1183  0.0673 -0.0881
 1543ntf    cn113951   5.283   2.220   3.195  0.0440  0.3508 -0.3697
 1543ntf    sn213952   5.361   2.370   3.262  0.1043  0.1138  0.0893
 1543ntf    nn313953   5.361   2.449   3.126 -0.7949  0.1073  0.0810
 1543ntf    sn213954   5.358   2.602   3.090 -0.3026  0.1546  0.2336
 1543ntf    cn113955   5.483   2.602   2.959 -0.3436 -0.2250  0.1915
 1543ntf    fn413956   5.360   2.168   3.101  0.2614  0.0070 -0.0010
 1543ntf    fn413957   5.260   2.121   3.279 -0.1730  0.5233 -0.2257
 1543ntf    fn413958   5.172   2.250   3.129 -0.0048  1.0725  0.0305
 1543ntf    on513959   5.285   2.429   3.369 -0.1490  0.0030 -0.0277
 1543ntf    on513960   5.488   2.315   3.303 -0.1325 -0.3055  0.2752
 1543ntf    on513961   5.231   2.635   3.031  0.0014  0.1102 -0.4503
 1543ntf    on513962   5.415   2.689   3.190  0.6116 -0.2287  0.0581
 1543ntf    fn413963   5.595   2.543   2.999 -0.1312  0.1308  0.1316
 1543ntf    fn413964   5.518   2.726   2.926 -0.5604 -0.2143 -0.0011
 1543ntf    fn413965   5.453   2.554   2.840  0.2435 -0.0183 -0.0482
 1544ntf    cn113966   0.850   5.280   2.521  0.0464 -0.1747  0.2921
 1544ntf    sn213967   0.719   5.266   2.396  0.0405 -0.2825  0.3098
 1544ntf    nn313968   0.672   5.416   2.385 -0.6122 -0.5196 -0.2326
 1544ntf    sn213969   0.538   5.493   2.414 -0.3153 -0.0357 -0.1322
 1544ntf    cn113970   0.566   5.573   2.574  0.0121 -0.1987 -0.1061
 1544ntf    fn413971   0.901   5.167   2.568 -0.5608 -0.2444  0.8052
 1544ntf    fn413972   0.946   5.359   2.476 -0.1116 -0.0762  0.1267
 1544ntf    fn413973   0.802   5.344   2.626  0.0562  0.5025 -0.1119
 1544ntf    on513974   0.784   5.214   2.278  0.1217 -0.0701  0.2602
 1544ntf    on513975   0.627   5.177   2.463  0.6351 -0.7125  0.5555
 1544ntf    on513976   0.520   5.606   2.326 -0.7902  0.0944  0.1293
 1544ntf    on513977   0.419   5.416   2.439  0.1160 -0.6042  0.1894
 1544ntf    fn413978   0.468   5.659   2.601  0.5089  0.1395  0.6380
 1544ntf    fn413979   0.684   5.630   2.593 -0.2322  0.2191  0.1853
 1544ntf    fn413980   0.561   5.490   2.676 -0.1430 -0.3149 -0.2073
 1545ntf    cn113981   5.791   2.970   1.935  0.4468 -0.1625  0.4872
 1545ntf    sn213982   5.796   2.995   1.755  0.0596  0.4707  0.5582
 1545ntf    nn313983   5.715   2.865   1.719 -0.1940  0.8472 -0.2406
 1545ntf    sn213984   5.729   2.757   1.606 -0.2256  0.2801  0.2955
 1545ntf    cn113985   5.785   2.612   1.701  0.2888  0.4570  0.2644
 1545ntf    fn413986   5.814   2.845   1.972 -0.1570 -0.4174  0.0309
 1545ntf    fn413987   5.875   3.043   2.006  0.4699  0.1693  0.1234
 1545ntf    fn413988   5.668   3.001   1.974  0.3851 -0.3774  0.4632
 1545ntf    on513989   5.722   3.116   1.728 -0.0153  0.2064 -0.4734
 1545ntf    on513990   5.932   2.983   1.709 -0.1761 -0.3715  0.0581
 1545ntf    on513991   5.605   2.711   1.549 -0.1842  0.0360  0.3983
 1545ntf    on513992   5.825   2.790   1.503  0.4934  0.2316  0.9427
 1545ntf    fn413993   5.890   2.633   1.780  0.1243  0.4389  0.4891
 1545ntf    fn413994   5.829   2.521   1.616  0.4123 -0.1950  1.0173
 1545ntf    fn413995   5.684   2.565   1.773  0.3239  0.1534  0.1143
 1546ntf    cn113996   1.225   6.188   5.121  0.0223 -0.1227  0.0400
 1546ntf    sn213997   1.314   6.321   5.207  0.0240 -0.3022  0.3163
 1546ntf    nn313998   1.354   6.240   5.336 -0.7699 -1.1568  0.0342
 1546ntf    sn213999   1.491   6.177   5.379 -0.1806  0.0882  0.0285
 1546ntf    cn114000   1.437   6.016   5.444  0.1916  0.0104  0.1486
 1546ntf    fn414001   1.159   6.238   5.018  0.0744  0.1776  0.1508
 1546ntf    fn414002   1.305   6.098   5.065 -0.3273 -0.2915 -0.1912
 1546ntf    fn414003   1.149   6.121   5.206 -0.4113 -0.0480 -0.2893
 1546ntf    on514004   1.418   6.359   5.115 -0.2900  0.3467  0.2278
 1546ntf    on514005   1.216   6.420   5.243 -0.9258 -0.9221 -0.5198
 1546ntf    on514006   1.581   6.143   5.272 -0.2662  0.9471 -0.3239
 1546ntf    on514007   1.550   6.231   5.499  0.0035  0.0674 -0.0530
 1546ntf    fn414008   1.369   5.944   5.357 -0.1348  0.4187  0.0606
 1546ntf    fn414009   1.357   6.034   5.548 -0.0485  0.4523 -0.1128
 1546ntf    fn414010   1.536   5.935   5.476 -0.1017 -0.5131 -0.2415
 1547ntf    cn114011   4.383   6.234   5.321  0.0414  0.0232  0.0525
 1547ntf    sn214012   4.360   6.054   5.336  0.6265 -0.0481  0.1193
 1547ntf    nn314013   4.232   6.054   5.427  0.2694  0.5585 -0.3753
 1547ntf    sn214014   4.217   6.093   5.579  0.0814 -0.0488 -0.2368
 1547ntf    cn114015   4.203   5.928   5.654 -0.3938  0.1133  0.0375
 1547ntf    fn414016   4.265   6.293   5.313  0.1232  0.1389 -0.3321
 1547ntf    fn414017   4.456   6.287   5.418  0.0227 -0.4513  0.3325
 1547ntf    fn414018   4.436   6.252   5.201 -0.1417 -0.2667 -0.0735
 1547ntf    on514019   4.319   6.011   5.205  0.4638  0.2432  0.0745
 1547ntf    on514020   4.488   6.007   5.384  0.5707 -0.2103  0.1089
 1547ntf    on514021   4.331   6.148   5.647  0.1784 -0.0831 -0.3706
 1547ntf    on514022   4.085   6.143   5.609  0.1799  0.0596  0.0155
 1547ntf    fn414023   4.294   5.836   5.623 -0.6549  0.0257 -0.4856
 1547ntf    fn414024   4.083   5.880   5.626 -0.2540  0.1249 -0.5998
 1547ntf    fn414025   4.200   5.941   5.785  0.9529 -0.2291  0.1189
 1548ntf    cn114026   4.302   6.300   0.206  0.0514 -0.0825  0.1245
 1548ntf    sn214027   4.292   6.218   0.368  0.1377 -0.1216  0.1099
 1548ntf    nn314028   4.410   6.294   0.439  0.1629 -0.5891  0.5734
 1548ntf    sn214029   4.408   6.422   0.531 -0.1284  0.0871 -0.3564
 1548ntf    cn114030   4.392   6.349   0.697  0.1874  0.2414 -0.2561
 1548ntf    fn414031   4.260   6.425   0.208  0.3356  0.0035  0.6506
 1548ntf    fn414032   4.427   6.304   0.163 -0.2086 -0.0964 -0.6559
 1548ntf    fn414033   4.226   6.231   0.122  0.0834  0.1133 -0.0665
 1548ntf    on514034   4.160   6.246   0.418  0.2469  0.3645  0.1320
 1548ntf    on514035   4.322   6.081   0.338  0.4191 -0.1855  0.6744
 1548ntf    on514036   4.536   6.489   0.532 -0.1202  0.0708 -0.2716
 1548ntf    on514037   4.291   6.506   0.524  0.0610  0.3446 -0.4293
 1548ntf    fn414038   4.403   6.440   0.791  0.1903  0.1957 -0.2123
 1548ntf    fn414039   4.489   6.263   0.722  0.1797  0.2332 -0.2547
 1548ntf    fn414040   4.278   6.281   0.704 -0.1313  0.8222  0.2752
 1549ntf    cn114041   1.407   3.378   1.543  0.0927 -0.2804  0.4102
 1549ntf    sn214042   1.516   3.485   1.445 -0.5047 -0.0099  0.0402
 1549ntf    nn314043   1.631   3.388   1.399 -0.2413 -0.0645  0.7995
 1549ntf    sn214044   1.759   3.341   1.476  0.1528 -0.3453 -0.0132
 1549ntf    cn114045   1.876   3.453   1.393  0.0638 -0.0810  0.2135
 1549ntf    fn414046   1.411   3.248   1.517 -0.2095 -0.2413  0.1670
 1549ntf    fn414047   1.423   3.396   1.673  0.0721  0.3490  0.3274
 1549ntf    fn414048   1.280   3.404   1.521  0.1224 -0.5064 -0.0298
 1549ntf    on514049   1.443   3.525   1.327 -0.5211  0.2871  0.1511
 1549ntf    on514050   1.555   3.592   1.532  0.2665 -0.0055 -0.3043
 1549ntf    on514051   1.757   3.374   1.617 -0.2303 -0.1971 -0.0529
 1549ntf    on514052   1.797   3.210   1.430 -0.1801 -0.3478 -0.2848
 1549ntf    fn414053   1.825   3.574   1.381  0.0483 -0.1530 -0.4983
 1549ntf    fn414054   1.894   3.411   1.269 -0.0522  0.3791  0.0414
 1549ntf    fn414055   1.995   3.459   1.452  0.0482 -0.2273  0.2602
 1550ntf    cn114056   4.122   3.043   4.867 -0.7413 -0.1590  0.1994
 1550ntf    sn214057   4.149   3.145   5.015  0.1963 -0.0478 -0.0373
 1550ntf    nn314058   4.108   3.288   4.965  0.5244 -0.3424 -1.1801
 1550ntf    sn214059   3.959   3.333   4.941  0.3681 -0.1620  0.0762
 1550ntf    cn114060   3.972   3.396   4.771 -0.5200 -0.1269  0.0134
 1550ntf    fn414061   4.203   2.938   4.869 -0.5293 -0.0046 -0.1893
 1550ntf    fn414062   4.001   2.990   4.861 -0.4794 -0.7800  0.3208
 1550ntf    fn414063   4.144   3.108   4.754  0.3403 -0.0595  0.4562
 1550ntf    on514064   4.048   3.089   5.101 -0.2342  0.6533 -0.0746
 1550ntf    on514065   4.286   3.133   5.057 -0.0691 -0.1980  0.7945
 1550ntf    on514066   3.864   3.225   4.926 -0.2243  0.3835 -0.1114
 1550ntf    on514067   3.916   3.452   5.010 -0.1974 -0.3248  0.0108
 1550ntf    fn414068   4.047   3.505   4.765 -0.1950 -0.3542 -0.1237
 1550ntf    fn414069   3.859   3.427   4.710  0.3233  0.3948 -1.3272
 1550ntf    fn414070   4.018   3.299   4.693 -0.4275 -0.1569  0.1039
 1551ntf    cn114071   1.822   3.444   2.261 -0.5449  0.1229  0.1363
 1551ntf    sn214072   1.924   3.595   2.271 -0.2339 -0.0793  0.0474
 1551ntf    nn314073   2.069   3.539   2.247 -0.2778 -0.0072 -0.3942
 1551ntf    sn214074   2.177   3.618   2.166 -0.0907 -0.0371 -0.1740
 1551ntf    cn114075   2.138   3.566   1.996  0.2538  0.2880 -0.3548
 1551ntf    fn414076   1.694   3.470   2.278 -0.6148  0.0792 -0.3173
 1551ntf    fn414077   1.821   3.388   2.141 -0.5388 -0.2400  0.3045
 1551ntf    fn414078   1.856   3.353   2.351  0.6115 -0.2283 -0.6271
 1551ntf    on514079   1.880   3.681   2.164 -0.0904 -0.2813 -0.1746
 1551ntf    on514080   1.908   3.630   2.410  0.1695  0.5042 -0.0511
 1551ntf    on514081   2.163   3.762   2.165  0.0565 -0.0225 -0.0252
 1551ntf    on514082   2.312   3.575   2.195 -0.1906 -0.1436  0.1283
 1551ntf    fn414083   2.014   3.596   1.962  0.2208  0.4184 -0.1235
 1551ntf    fn414084   2.145   3.436   1.975  0.1260  0.2111  0.0690
 1551ntf    fn414085   2.215   3.619   1.902  0.3412  0.1410 -0.3658
 1552ntf    cn114086   3.236   5.540   4.357  0.1317  0.0508 -0.4429
 1552ntf    sn214087   3.186   5.691   4.446  0.1051 -0.1790 -0.0691
 1552ntf    nn314088   3.257   5.675   4.586 -0.0011 -0.4026 -0.0406
 1552ntf    sn214089   3.203   5.733   4.721  0.3573 -0.1265 -0.0178
 1552ntf    cn114090   3.347   5.832   4.773  0.4055 -0.3062  0.1941
 1552ntf    fn414091   3.161   5.440   4.399  0.2535 -0.1936 -0.8013
 1552ntf    fn414092   3.223   5.555   4.226 -0.2467  0.4267 -0.3653
 1552ntf    fn414093   3.363   5.519   4.390  0.0320  0.3924  0.1688
 1552ntf    on514094   3.251   5.798   4.375  0.4850 -0.1693  0.2879
 1552ntf    on514095   3.043   5.684   4.435  0.0653  0.2979  0.1311
 1552ntf    on514096   3.102   5.834   4.703  0.2288 -0.2232  0.1602
 1552ntf    on514097   3.188   5.636   4.827  0.4545  0.0435  0.1521
 1552ntf    fn414098   3.315   5.897   4.884  0.3477 -0.3372  0.1956
 1552ntf    fn414099   3.363   5.925   4.681 -0.1281  0.2261  0.6315
 1552ntf    fn414100   3.458   5.763   4.791  0.0580 -0.6260  1.1850
 1553ntf    cn114101   3.062   1.781   3.282  0.3730 -0.1363 -0.1900
 1553ntf    sn214102   2.968   1.929   3.330  0.4248 -0.1551 -0.0294
 1553ntf    nn314103   3.083   2.031   3.362  0.4155 -0.2474  0.2988
 1553ntf    sn214104   3.109   2.106   3.498  0.4861 -0.3436  0.3377
 1553ntf    cn114105   2.984   2.236   3.475  0.5339 -0.3780 -0.1298
 1553ntf    fn414106   3.142   1.807   3.179  0.2000  0.0641 -0.2766
 1553ntf    fn414107   3.147   1.742   3.376 -0.0723 -0.1721  0.2002
 1553ntf    fn414108   2.984   1.678   3.255 -0.5531  0.2409  0.9534
 1553ntf    on514109   2.900   1.956   3.206  0.1017  0.4568  0.2782
 1553ntf    on514110   2.891   1.882   3.442 -0.0950 -0.6212 -0.5755
 1553ntf    on514111   3.073   2.021   3.609  0.3663  0.2959  0.7895
 1553ntf    on514112   3.236   2.174   3.501  0.0160  0.5247  0.9338
 1553ntf    fn414113   2.863   2.189   3.449  0.4310 -0.1332 -0.0950
 1553ntf    fn414114   3.013   2.326   3.383 -0.6766  0.5247  0.3528
 1553ntf    fn414115   2.972   2.307   3.586  0.3883 -0.3031 -0.1934
 1554ntf    cn114116   0.927   4.844   4.403  0.5858 -0.1532  0.0154
 1554ntf    sn214117   0.873   5.011   4.449 -0.0134 -0.2744 -0.2339
 1554ntf    nn314118   0.787   4.984   4.576  0.1356  0.0879 -0.0520
 1554ntf    sn214119   0.853   4.968   4.718 -0.1275  0.1474  0.0795
 1554ntf    cn114120   0.808   5.124   4.798 -0.2639  0.2376 -0.1719
 1554ntf    fn414121   0.833   4.764   4.354  0.1891 -0.1755  0.7905
 1554ntf    fn414122   1.017   4.853   4.306  0.0822  0.6408 -0.3901
 1554ntf    fn414123   0.989   4.774   4.497  0.5978 -0.1379  0.0188
 1554ntf    on514124   1.001   5.078   4.459  0.0046 -0.4013  0.3949
 1554ntf    on514125   0.787   5.052   4.341  0.3407 -0.3630 -0.5514
 1554ntf    on514126   0.787   4.871   4.802  0.1937 -0.0266  0.1342
 1554ntf    on514127   0.998   4.968   4.715 -0.1354 -0.0361 -0.3911
 1554ntf    fn414128   0.807   5.232   4.722  0.0497 -0.0927 -0.6474
 1554ntf    fn414129   0.895   5.151   4.894 -0.6498 -0.3807  0.3607
 1554ntf    fn414130   0.691   5.118   4.859  0.0255  0.4130  0.4145
 1555ntf    cn114131   3.851   5.867   4.863 -0.1905 -0.3892 -0.4130
 1555ntf    sn214132   4.019   5.895   4.798 -0.0561 -0.0304  0.0811
 1555ntf    nn314133   4.036   5.763   4.714 -0.2233  0.0563 -0.0914
 1555ntf    sn214134   4.114   5.737   4.581 -0.0747  0.2360 -0.0392
 1555ntf    cn114135   4.121   5.555   4.579  0.3330  0.2491  0.0947
 1555ntf    fn414136   3.845   5.809   4.981 -0.2350  0.1096 -0.1689
 1555ntf    fn414137   3.782   5.978   4.878  0.0862 -0.2310 -0.2939
 1555ntf    fn414138   3.782   5.796   4.775 -0.2712 -0.2264 -0.4814
 1555ntf    on514139   4.001   6.009   4.711  0.4709 -0.0964 -0.1176
 1555ntf    on514140   4.093   5.912   4.920  0.3686 -0.0289 -0.1756
 1555ntf    on514141   4.038   5.773   4.464  1.1754  0.0419 -0.9417
 1555ntf    on514142   4.255   5.768   4.590  0.0543 -0.4670  0.4732
 1555ntf    fn414143   4.145   5.500   4.461  0.3575 -0.2325  0.3242
 1555ntf    fn414144   4.004   5.510   4.620  0.5019 -0.5625 -0.3063
 1555ntf    fn414145   4.214   5.504   4.658  0.1511 -0.2875 -0.0396
 1556ntf    cn114146   1.379   5.909   2.295 -0.5268  0.1376  0.4224
 1556ntf    sn214147   1.253   5.819   2.390 -0.2739 -0.4218  0.2331
 1556ntf    nn314148   1.326   5.807   2.528 -0.0446 -0.3194  0.1216
 1556ntf    sn214149   1.259   5.804   2.671  0.2645  0.1176  0.2751
 1556ntf    cn114150   1.097   5.734   2.630  0.2045  0.1663  0.4319
 1556ntf    fn414151   1.498   5.853   2.310 -0.3780  0.3092 -0.0793
 1556ntf    fn414152   1.357   5.913   2.165  0.1619  0.4878  0.3152
 1556ntf    fn414153   1.388   6.036   2.330 -0.3112  0.2982 -0.2108
 1556ntf    on514154   1.144   5.912   2.374  0.4605  0.3928 -0.0609
 1556ntf    on514155   1.242   5.697   2.314 -0.5056 -0.0516 -0.3373
 1556ntf    on514156   1.311   5.708   2.764 -0.1022 -0.3811 -0.0297
 1556ntf    on514157   1.231   5.939   2.713 -0.1936  0.3738 -0.8141
 1556ntf    fn414158   1.015   5.825   2.579  0.1694 -0.1232 -0.0401
 1556ntf    fn414159   1.037   5.678   2.734 -0.7211 -0.0454 -0.2015
 1556ntf    fn414160   1.097   5.644   2.533  0.8293  0.4360  0.1729
 1557ntf    cn114161   4.873   1.582   4.954 -0.5873  0.0547 -0.0137
 1557ntf    sn214162   4.711   1.521   5.011 -0.5464 -0.1747 -0.1433
 1557ntf    nn314163   4.710   1.587   5.154 -0.2382  0.0946 -0.2640
 1557ntf    sn214164   4.631   1.544   5.282 -0.1070  0.0106 -0.2106
 1557ntf    cn114165   4.743   1.433   5.371  0.3462  0.7360  0.1381
 1557ntf    fn414166   4.972   1.560   5.039 -0.2040 -0.0628 -0.4943
 1557ntf    fn414167   4.904   1.519   4.842  0.4670 -0.0205  0.3088
 1557ntf    fn414168   4.866   1.712   4.930 -0.0788  0.1049  0.0940
 1557ntf    on514169   4.613   1.581   4.924 -0.5214 -0.0599 -0.0931
 1557ntf    on514170   4.727   1.378   5.014 -0.3692 -0.1474  0.3951
 1557ntf    on514171   4.631   1.655   5.375 -0.2429 -0.0472 -0.1408
 1557ntf    on514172   4.511   1.464   5.272 -0.2141  0.1782 -0.2691
 1557ntf    fn414173   4.682   1.372   5.471 -0.5392  0.2117 -0.7033
 1557ntf    fn414174   4.856   1.485   5.417  0.8139  0.3842 -0.5946
 1557ntf    fn414175   4.786   1.341   5.285 -0.4485  0.3226  0.1723
 1558ntf    cn114176   0.412   2.501   0.922  0.0904  0.0680  0.2864
 1558ntf    sn214177   0.243   2.452   0.876  0.2297  0.0810 -0.2464
 1558ntf    nn314178   0.192   2.377   1.004 -0.5785 -0.0907 -0.6565
 1558ntf    sn214179   0.092   2.407   1.121  0.0156  0.3148 -0.2409
 1558ntf    cn114180   0.214   2.440   1.251 -0.0556  0.5964 -0.2453
 1558ntf    fn414181   0.498   2.400   0.915  0.3231  0.2438  0.6173
 1558ntf    fn414182   0.456   2.593   0.837 -0.8157  0.0807 -0.1821
 1558ntf    fn414183   0.419   2.562   1.039 -0.1446  0.8820 -0.1191
 1558ntf    on514184   0.170   2.572   0.841 -0.2399 -0.3533 -0.7818
 1558ntf    on514185   0.260   2.346   0.779  0.1151 -0.3085  0.1542
 1558ntf    on514186   0.024   2.534   1.114  0.0718  0.3570 -0.0104
 1558ntf    on514187   0.023   2.288   1.163  0.0120  0.2921 -0.3096
 1558ntf    fn414188   0.281   2.551   1.221  0.2388  0.3177 -0.6243
 1558ntf    fn414189   0.300   2.344   1.280  0.2385  0.6972 -0.7583
 1558ntf    fn414190   0.164   2.477   1.368  0.1596  1.0033 -0.2777
 1559ntf    cn114191   1.726   2.196   2.488  0.1674 -0.0647 -0.4064
 1559ntf    sn214192   1.616   2.220   2.345 -0.2422  0.0360 -0.0767
 1559ntf    nn314193   1.468   2.208   2.396 -0.5227 -0.0647 -0.8965
 1559ntf    sn214194   1.393   2.070   2.402 -0.1002 -0.2556  0.0639
 1559ntf    cn114195   1.329   2.059   2.233  0.1535 -0.1648 -0.0394
 1559ntf    fn414196   1.711   2.075   2.539  0.0398  0.1260  0.0083
 1559ntf    fn414197   1.854   2.213   2.460  0.2309  0.3603  0.1464
 1559ntf    fn414198   1.699   2.285   2.581 -0.4752 -0.3827 -0.2767
 1559ntf    on514199   1.639   2.355   2.298 -0.1215 -0.0363 -0.2264
 1559ntf    on514200   1.659   2.116   2.255  0.1343  0.2483 -0.1477
 1559ntf    on514201   1.470   1.949   2.413  0.1919 -0.0263  0.6204
 1559ntf    on514202   1.273   2.079   2.481  0.0743  0.0152  0.3061
 1559ntf    fn414203   1.436   2.062   2.155  0.3152  0.6058  0.1986
 1559ntf    fn414204   1.257   2.161   2.187 -0.6637 -0.7135  0.0026
 1559ntf    fn414205   1.270   1.945   2.200  0.0001 -0.1470  0.1722
 1560ntf    cn114206   2.736   2.641   5.611  0.2141  0.0157  0.0716
 1560ntf    sn214207   2.587   2.739   5.646  0.2820 -0.0026  0.4194
 1560ntf    nn314208   2.661   2.872   5.688  0.6042 -0.1883  0.4417
 1560ntf    sn214209   2.677   3.001   5.601  0.1069 -0.3686  0.0721
 1560ntf    cn114210   2.779   2.939   5.464  0.3694  0.0378  0.0795
 1560ntf    fn414211   2.712   2.511   5.599  0.2139 -0.1017  1.2251
 1560ntf    fn414212   2.787   2.665   5.492 -0.1413  0.4937  0.0126
 1560ntf    fn414213   2.834   2.654   5.699  0.0704  0.3718  0.1837
 1560ntf    on514214   2.523   2.752   5.518  0.4144  0.5820  0.4068
 1560ntf    on514215   2.525   2.663   5.752  0.1059 -0.0083  0.3113
 1560ntf    on514216   2.557   3.055   5.542 -0.0076 -0.3336  0.3369
 1560ntf    on514217   2.766   3.099   5.659 -0.0349 -0.3269  0.2191
 1560ntf    fn414218   2.866   2.843   5.491  0.0338 -0.1795  0.3923
 1560ntf    fn414219   2.828   3.026   5.377  0.1976  0.3677  0.3083
 1560ntf    fn414220   2.693   2.877   5.383  0.4503  0.4385 -0.3167
 1561ntf    cn114221   3.371   2.358   5.705 -0.0982  0.0499  0.2577
 1561ntf    sn214222   3.341   2.420   5.873 -0.1515  0.1864  0.1975
 1561ntf    nn314223   3.422   2.554   5.867 -0.2265  0.2101 -0.3720
 1561ntf    sn214224   3.422   2.686   5.952  0.3117  0.1344 -0.2493
 1561ntf    cn114225   3.580   2.671   6.040  0.2773 -0.3539 -0.2691
 1561ntf    fn414226   3.502   2.341   5.690 -0.1066  0.6651 -0.5303
 1561ntf    fn414227   3.313   2.243   5.676 -0.3924  0.2962 -0.1289
 1561ntf    fn414228   3.328   2.442   5.613  0.2409 -0.1100 -0.0498
 1561ntf    on514229   3.197   2.435   5.882 -0.1121  0.6582  0.0781
 1561ntf    on514230   3.400   2.324   5.963  0.1837  0.6229  0.4426
 1561ntf    on514231   3.441   2.799   5.864 -0.4557  0.7946  0.4194
 1561ntf    on514232   3.325   2.691   6.059  1.2771 -0.8693  0.6973
 1561ntf    fn414233   3.594   2.555   6.101  0.9068  0.3165  0.9033
 1561ntf    fn414234   3.590   2.772   6.125 -0.3686 -0.5675  0.0633
 1561ntf    fn414235   3.683   2.674   5.956  0.5942  0.7696  0.1372
 1562ntf    cn114236   4.615   6.744   2.926 -0.5140  0.5337 -0.4779
 1562ntf    sn214237   4.509   6.624   2.840  0.1471 -0.2479 -0.2147
 1562ntf    nn314238   4.604   6.572   2.726  0.5729 -0.0318  0.0400
 1562ntf    sn214239   4.578   6.586   2.572 -0.6619  0.1997  0.2624
 1562ntf    cn114240   4.602   6.410   2.531  0.0151  0.4307 -0.3461
 1562ntf    fn414241   4.580   6.771   3.051  0.3074  0.1296 -0.1477
 1562ntf    fn414242   4.739   6.699   2.937 -0.6610  0.2586  0.1170
 1562ntf    fn414243   4.625   6.855   2.855 -0.5522  0.8169 -0.0442
 1562ntf    on514244   4.482   6.519   2.935 -0.0447 -0.6607 -0.7185
 1562ntf    on514245   4.389   6.695   2.805  0.3993  0.6153  0.6164
 1562ntf    on514246   4.442   6.623   2.540 -0.8722  0.0171  0.9281
 1562ntf    on514247   4.683   6.645   2.494 -0.1050 -1.0668  0.0260
 1562ntf    fn414248   4.537   6.378   2.420 -0.1916 -0.7281  0.1061
 1562ntf    fn414249   4.555   6.335   2.629  0.8879 -0.4156 -0.5573
 1562ntf    fn414250   4.731   6.381   2.531 -0.2119 -0.6064 -0.3769
 1563ntf    cn114251   3.288   0.212   0.684  0.3395  0.0571  0.1563
 1563ntf    sn214252   3.156   0.090   0.656 -0.0118  0.4543  0.0709
 1563ntf    nn314253   3.231  -0.008   0.559 -0.9918  0.3010 -0.5439
 1563ntf    sn214254   3.204  -0.069   0.417 -0.0384 -0.1818 -0.5259
 1563ntf    cn114255   3.312   0.038   0.318  0.0935  0.1812  0.0018
 1563ntf    fn414256   3.259   0.308   0.770 -0.1157  0.6209 -0.6054
 1563ntf    fn414257   3.393   0.143   0.724  0.3795 -0.0048 -0.0546
 1563ntf    fn414258   3.324   0.270   0.571 -0.0227  0.3092  0.1697
 1563ntf    on514259   3.128   0.038   0.788  0.1136  0.6970  0.1946
 1563ntf    on514260   3.054   0.169   0.593 -0.8354 -0.2862  0.4464
 1563ntf    on514261   3.261  -0.199   0.393  0.1184 -0.1616 -0.2654
 1563ntf    on514262   3.074  -0.042   0.360  0.1013  0.7936 -0.3854
 1563ntf    fn414263   3.249   0.154   0.312  0.3401  0.2992 -0.3570
 1563ntf    fn414264   3.306  -0.017   0.197  0.6527 -0.2214  0.1560
 1563ntf    fn414265   3.437   0.056   0.356  0.2132 -0.0910 -0.2575
 1564ntf    cn114266   0.713   0.817   0.559  0.1380  0.2173  0.1317
 1564ntf    sn214267   0.637   0.769   0.718 -0.2679  0.0703 -0.1043
 1564ntf    nn314268   0.486   0.795   0.685 -0.3219 -0.0283  0.0638
 1564ntf    sn214269   0.363   0.727   0.754 -0.1933 -0.1781  0.1462
 1564ntf    cn114270   0.281   0.656   0.608  0.0543 -0.0007 -0.0806
 1564ntf    fn414271   0.844   0.805   0.574  0.2108  0.9289  0.0623
 1564ntf    fn414272   0.673   0.741   0.459 -0.8866  0.4678  0.3376
 1564ntf    fn414273   0.688   0.944   0.531 -0.9157  0.0050  0.0469
 1564ntf    on514274   0.679   0.633   0.740  0.0286  0.1834  0.0412
 1564ntf    on514275   0.696   0.870   0.802  0.4685 -0.1125 -0.3853
 1564ntf    on514276   0.398   0.611   0.832 -0.1881  0.0316  0.4575
 1564ntf    on514277   0.271   0.822   0.813  0.4449  0.4432  0.1493
 1564ntf    fn414278   0.370   0.599   0.528  0.2852  0.2324  0.0091
 1564ntf    fn414279   0.220   0.750   0.539  0.1717 -0.1173 -0.3443
 1564ntf    fn414280   0.185   0.567   0.628  0.1502  0.0486  0.6301
 1565ntf    cn114281   3.493   4.975   0.970  0.3179  0.4410 -0.0133
 1565ntf    sn214282   3.618   4.845   0.948  0.0382  0.2531 -0.4912
 1565ntf    nn314283   3.661   4.820   1.096  0.0938  0.0396 -0.5425
 1565ntf    sn214284   3.803   4.776   1.148 -0.0616 -0.1089 -0.2416
 1565ntf    cn114285   3.897   4.929   1.174  0.1020 -0.2104 -0.2383
 1565ntf    fn414286   3.545   5.095   0.987  0.5964  0.3080  0.0909
 1565ntf    fn414287   3.423   4.992   0.859  0.3778  0.1973 -0.0888
 1565ntf    fn414288   3.410   4.955   1.072  0.2841  0.9896  0.0701
 1565ntf    on514289   3.536   4.737   0.897  0.2761 -0.0695 -0.1940
 1565ntf    on514290   3.721   4.911   0.871  0.2374  0.2783 -0.2007
 1565ntf    on514291   3.800   4.715   1.279 -0.3149 -0.2342 -0.3052
 1565ntf    on514292   3.876   4.699   1.050  0.3893 -0.0406  0.0384
 1565ntf    fn414293   3.829   5.006   1.258  0.6720  0.0679 -0.0185
 1565ntf    fn414294   3.908   5.006   1.067  0.2892  0.1163  0.0131
 1565ntf    fn414295   4.018   4.911   1.225 -0.0706  0.3090  0.3654
 1566ntf    cn114296   2.769   1.181   0.563 -0.0864 -0.3983 -0.1151
 1566ntf    sn214297   2.647   1.285   0.649  0.1408 -0.2045 -0.0256
 1566ntf    nn314298   2.685   1.245   0.796 -0.5085  0.3819  0.3065
 1566ntf    sn214299   2.634   1.129   0.890  0.1470 -0.4077 -0.2995
 1566ntf    cn114300   2.792   1.038   0.887  0.3134 -0.1150 -0.5567
 1566ntf    fn414301   2.746   1.051   0.571  0.3523 -0.4814 -0.1708
 1566ntf    fn414302   2.782   1.205   0.434  0.1739 -0.0801 -0.0301
 1566ntf    fn414303   2.889   1.196   0.615 -0.1213  0.6690 -0.3202
 1566ntf    on514304   2.684   1.419   0.614 -0.7554 -0.0943 -0.5908
 1566ntf    on514305   2.518   1.237   0.605  0.0621  0.0863 -0.1137
 1566ntf    on514306   2.630   1.158   1.031  0.3916 -0.3638 -0.3003
 1566ntf    on514307   2.535   1.042   0.833  0.0863 -0.3195 -0.3290
 1566ntf    fn414308   2.847   1.035   0.767  0.0910 -0.2734 -0.6569
 1566ntf    fn414309   2.778   0.912   0.925 -0.3435 -0.1192 -0.7967
 1566ntf    fn414310   2.871   1.103   0.971  0.0889 -0.2752 -0.2186
 1567ntf    cn114311   5.270   6.534   6.758  0.0083  0.1790  0.0431
 1567ntf    sn214312   5.118   6.559   6.853 -0.1395  0.0059 -0.1477
 1567ntf    nn314313   5.075   6.705   6.813  0.3052  0.2645  0.3067
 1567ntf    sn214314   4.939   6.776   6.781  0.5012  0.6116  0.2367
 1567ntf    cn114315   4.986   6.849   6.621  0.0663  0.2193 -0.0735
 1567ntf    fn414316   5.329   6.419   6.789 -0.1218 -0.0483 -0.5528
 1567ntf    fn414317   5.246   6.535   6.628 -0.4864 -0.9593  0.1145
 1567ntf    fn414318   5.361   6.628   6.780 -0.0557  0.3381 -0.3731
 1567ntf    on514319   5.033   6.456   6.798 -0.2203  0.2376 -0.4597
 1567ntf    on514320   5.167   6.546   6.988  0.2833  0.5403 -0.2496
 1567ntf    on514321   4.826   6.690   6.756  0.3549  0.6458  0.7734
 1567ntf    on514322   4.917   6.893   6.862 -0.6716  0.2970  0.3860
 1567ntf    fn414323   5.017   6.751   6.538  0.2685  0.1801  0.0456
 1567ntf    fn414324   5.096   6.923   6.620  0.4621 -0.3644 -0.3931
 1567ntf    fn414325   4.904   6.933   6.561  0.1966  0.2580 -0.1992
 1568ntf    cn114326   0.809   4.358   2.506 -0.0919 -0.0687  0.0889
 1568ntf    sn214327   0.801   4.176   2.506 -0.0870 -0.0704 -0.3279
 1568ntf    nn314328   0.908   4.144   2.616 -0.7425  0.5211  0.4927
 1568ntf    sn214329   0.931   4.014   2.700  0.0306  0.1834 -0.2313
 1568ntf    cn114330   0.831   4.070   2.841  0.7583 -0.0678  0.3981
 1568ntf    fn414331   0.740   4.418   2.601  0.0460 -0.4245  0.4175
 1568ntf    fn414332   0.935   4.396   2.512 -0.3149  0.6839  0.0745
 1568ntf    fn414333   0.770   4.405   2.388 -0.5286  0.4272  0.4313
 1568ntf    on514334   0.663   4.162   2.546  0.0913 -0.3179  0.1960
 1568ntf    on514335   0.846   4.127   2.377 -0.3913  0.2747 -0.5664
 1568ntf    on514336   0.862   3.900   2.645  0.9368 -0.3180 -0.3690
 1568ntf    on514337   1.070   3.998   2.736  0.0629  0.2230 -0.3403
 1568ntf    fn414338   0.809   3.971   2.925  0.2903 -0.3360 -0.0356
 1568ntf    fn414339   0.708   4.106   2.809  0.8609 -0.3585 -0.3440
 1568ntf    fn414340   0.892   4.168   2.905  0.3707  0.5358 -0.1397
 1569ntf    cn114341   6.240   2.312   1.750 -0.0169  0.3435  0.3931
 1569ntf    sn214342   6.268   2.183   1.625  0.1291  0.0621  0.7149
 1569ntf    nn314343   6.158   2.078   1.664 -0.3996  0.2074 -0.3345
 1569ntf    sn214344   6.017   2.051   1.602 -0.2670  0.0426 -0.5676
 1569ntf    cn114345   5.970   1.889   1.671  0.2106  0.2561  0.2777
 1569ntf    fn414346   6.281   2.280   1.871  0.4947 -0.6161 -0.0200
 1569ntf    fn414347   6.308   2.422   1.724  0.6527 -0.2327 -0.3543
 1569ntf    fn414348   6.110   2.335   1.748 -0.1030 -0.1504  0.0479
 1569ntf    on514349   6.244   2.249   1.499 -0.1519 -0.6267  0.4043
 1569ntf    on514350   6.405   2.136   1.627 -0.1330 -0.7292  0.4043
 1569ntf    on514351   5.925   2.142   1.666 -0.1698  0.1640 -0.6006
 1569ntf    on514352   6.003   2.033   1.460  0.3087 -0.6814 -0.5329
 1569ntf    fn414353   6.059   1.796   1.642  0.0950  0.1309  0.3210
 1569ntf    fn414354   5.858   1.843   1.618  0.3400  0.5264 -0.2390
 1569ntf    fn414355   5.954   1.893   1.802 -0.0681 -0.1670  0.2582
 1570ntf    cn114356   3.365   3.654   0.854  0.3635 -0.1828  0.3298
 1570ntf    sn214357   3.207   3.738   0.822  0.2380 -0.3364  0.5422
 1570ntf    nn314358   3.117   3.630   0.893 -0.2069 -0.0588  0.4053
 1570ntf    sn214359   2.972   3.581   0.859 -0.1152 -0.0414 -0.0158
 1570ntf    cn114360   3.011   3.405   0.834  0.1506  0.1398 -0.9240
 1570ntf    fn414361   3.367   3.540   0.788 -0.1224 -0.1359  0.2292
 1570ntf    fn414362   3.468   3.722   0.806  0.1825 -0.3262 -0.2654
 1570ntf    fn414363   3.380   3.628   0.983 -0.2108 -0.0211  0.4318
 1570ntf    on514364   3.207   3.860   0.898 -0.1393  0.3940 -0.6064
 1570ntf    on514365   3.206   3.742   0.678 -0.4367  0.6242  0.5671
 1570ntf    on514366   2.888   3.589   0.976  0.5057 -0.0638  0.4375
 1570ntf    on514367   2.915   3.624   0.734 -0.4039 -0.3566  0.0054
 1570ntf    fn414368   2.903   3.328   0.842  0.4092 -0.0911  0.7280
 1570ntf    fn414369   3.089   3.350   0.926  0.0033  0.4692 -0.6002
 1570ntf    fn414370   3.071   3.388   0.718 -0.2685  0.3314 -1.1729
 1571ntf    cn114371   5.536   0.967   2.266 -0.2367 -0.4506 -0.5049
 1571ntf    sn214372   5.674   1.086   2.266 -0.4781 -0.1697 -0.4460
 1571ntf    nn314373   5.681   1.138   2.118  0.0048 -0.0710 -0.3896
 1571ntf    sn214374   5.797   1.229   2.065 -0.3095  0.5503 -0.0194
 1571ntf    cn114375   5.864   1.119   1.937  0.0256  0.4505  0.2411
 1571ntf    fn414376   5.552   0.866   2.182  0.1664 -0.5957 -0.2612
 1571ntf    fn414377   5.518   0.907   2.383  0.2861  0.7409  0.2017
 1571ntf    fn414378   5.417   1.018   2.239 -0.0778  0.1513 -0.0898
 1571ntf    on514379   5.626   1.187   2.357  0.1779  0.0553 -0.3464
 1571ntf    on514380   5.790   1.015   2.316 -0.3164  0.2586 -0.2128
 1571ntf    on514381   5.741   1.342   1.995 -0.4719  1.0121  0.8434
 1571ntf    on514382   5.910   1.245   2.153 -0.2674 -0.6126  0.1579
 1571ntf    fn414383   5.787   1.101   1.831 -0.2989  0.5389  0.4606
 1571ntf    fn414384   5.883   0.999   1.992 -0.1085 -0.0908 -0.8693
 1571ntf    fn414385   5.982   1.159   1.892 -0.1001  0.2862 -0.2385
 1572ntf    cn114386   1.589   2.410   0.598  0.1169 -0.1562 -0.4091
 1572ntf    sn214387   1.412   2.452   0.601  0.1506 -0.0460  0.0906
 1572ntf    nn314388   1.341   2.322   0.653  0.1297 -0.0712 -0.0018
 1572ntf    sn214389   1.239   2.310   0.772  0.0040  0.0370 -0.0991
 1572ntf    cn114390   1.149   2.164   0.713  0.0291  0.0430 -0.1532
 1572ntf    fn414391   1.609   2.305   0.520  0.3080 -0.3231 -0.1360
 1572ntf    fn414392   1.663   2.515   0.566  0.1826 -0.0461  0.0942
 1572ntf    fn414393   1.618   2.366   0.719 -0.6505  0.4180 -0.0060
 1572ntf    on514394   1.397   2.566   0.688  0.2333 -0.0477  0.1074
 1572ntf    on514395   1.392   2.469   0.459 -0.0637  0.1858  0.1478
 1572ntf    on514396   1.295   2.264   0.896 -0.2906 -0.8498 -0.2870
 1572ntf    on514397   1.130   2.404   0.763 -0.2595 -0.2457  0.1518
 1572ntf    fn414398   1.080   2.182   0.602  0.1680  0.4196 -0.1788
 1572ntf    fn414399   1.057   2.121   0.798 -0.1830  0.2345 -0.2848
 1572ntf    fn414400   1.236   2.066   0.697 -0.4015 -0.5036  0.7357
 1573ntf    cn114401   1.617   2.313   3.570  0.3727  0.0215 -0.3178
 1573ntf    sn214402   1.673   2.360   3.736  0.1018 -0.1302 -0.1843
 1573ntf    nn314403   1.554   2.455   3.775  0.5165  0.4829 -0.4010
 1573ntf    sn214404   1.567   2.547   3.902  0.3402 -0.2643  0.1654
 1573ntf    cn114405   1.397   2.531   3.964  0.1578 -0.0773 -0.2830
 1573ntf    fn414406   1.515   2.229   3.572  0.3711  0.0145 -0.5740
 1573ntf    fn414407   1.581   2.417   3.495 -0.2412  0.1287  0.1192
 1573ntf    fn414408   1.712   2.250   3.503  0.9466  0.5220  0.0153
 1573ntf    on514409   1.670   2.231   3.801 -0.3475  0.0345  0.1281
 1573ntf    on514410   1.805   2.414   3.715  0.1822 -0.0135  0.5935
 1573ntf    on514411   1.645   2.494   4.011  0.4636 -0.4750 -0.0243
 1573ntf    on514412   1.593   2.682   3.861  0.6632 -0.2542  0.3983
 1573ntf    fn414413   1.355   2.405   3.960  0.2781 -0.1424  0.4046
 1573ntf    fn414414   1.316   2.592   3.880  0.3250 -0.0575 -0.4298
 1573ntf    fn414415   1.377   2.569   4.089 -0.5595 -0.3003 -0.3249
 1574ntf    cn114416   4.663   4.190   0.350  0.3559 -0.0387  0.7185
 1574ntf    sn214417   4.752   4.349   0.339  0.0768  0.0588 -0.2578
 1574ntf    nn314418   4.794   4.386   0.486 -0.3373 -0.3007 -0.0462
 1574ntf    sn214419   4.845   4.525   0.537 -0.3887 -0.1815 -0.3172
 1574ntf    cn114420   4.708   4.587   0.640  0.1758  0.2157  0.2079
 1574ntf    fn414421   4.698   4.115   0.247 -0.4783  0.1808  0.2704
 1574ntf    fn414422   4.684   4.128   0.464  0.2992 -0.4289  0.5169
 1574ntf    fn414423   4.532   4.204   0.346  0.3300 -0.4930 -0.3508
 1574ntf    on514424   4.869   4.322   0.260 -0.0327  0.1810 -0.4614
 1574ntf    on514425   4.652   4.435   0.280 -0.2813 -0.2472 -0.1058
 1574ntf    on514426   4.956   4.521   0.629 -0.8134  0.0298  0.2168
 1574ntf    on514427   4.865   4.618   0.429  0.1820 -0.4219 -0.4204
 1574ntf    fn414428   4.598   4.616   0.571 -0.1529  0.2286  0.7321
 1574ntf    fn414429   4.741   4.702   0.696  0.7412  0.2034 -0.0922
 1574ntf    fn414430   4.666   4.498   0.728 -0.3278  0.3357  0.0955
 1575ntf    cn114431   2.187   3.716   5.549 -0.4399 -0.1871  0.2200
 1575ntf    sn214432   2.094   3.612   5.432 -0.6364  0.3587 -0.1143
 1575ntf    nn314433   2.166   3.478   5.473 -0.4248  0.6044  0.3238
 1575ntf    sn214434   2.122   3.353   5.558 -0.1656  0.1208 -0.2441
 1575ntf    cn114435   2.054   3.254   5.422  0.1801 -0.2516 -0.1445
 1575ntf    fn414436   2.197   3.659   5.668  0.7717 -0.6058 -0.0677
 1575ntf    fn414437   2.310   3.732   5.504 -0.4083  0.2279  0.4544
 1575ntf    fn414438   2.130   3.833   5.571  0.4559  0.3104 -0.0921
 1575ntf    on514439   1.954   3.618   5.465 -0.5233  0.3455  0.3725
 1575ntf    on514440   2.128   3.651   5.297 -0.8945  0.0729 -0.2639
 1575ntf    on514441   2.226   3.264   5.603 -0.2024  0.1063 -0.1874
 1575ntf    on514442   2.012   3.384   5.647 -0.0211  0.4737 -0.1862
 1575ntf    fn414443   2.160   3.227   5.346 -0.1742 -0.1900 -0.6674
 1575ntf    fn414444   1.968   3.317   5.344  0.1330 -0.0823  0.0432
 1575ntf    fn414445   2.006   3.134   5.448  0.1402 -0.1382  0.2987
 1576ntf    cn114446   3.292   3.593   4.248  0.2205 -0.4977 -0.3542
 1576ntf    sn214447   3.449   3.551   4.165  0.3266 -0.2078 -0.3000
 1576ntf    nn314448   3.545   3.566   4.289 -0.1433  0.3209  0.0072
 1576ntf    sn214449   3.649   3.464   4.346 -0.3859 -0.0092 -0.1325
 1576ntf    cn114450   3.746   3.585   4.441 -0.3018 -0.1388 -0.0516
 1576ntf    fn414451   3.178   3.571   4.185  0.3147 -0.2822 -0.6024
 1576ntf    fn414452   3.287   3.526   4.362  0.2961  0.0327 -0.0353
 1576ntf    fn414453   3.294   3.722   4.275 -0.3823 -0.5981  0.1891
 1576ntf    on514454   3.436   3.415   4.119  0.2881 -0.1218 -0.5426
 1576ntf    on514455   3.470   3.655   4.068  0.2704  0.1281  0.0449
 1576ntf    on514456   3.601   3.383   4.456  0.0267 -0.1829 -0.0751
 1576ntf    on514457   3.747   3.410   4.255 -0.2800 -0.1249  0.0481
 1576ntf    fn414458   3.681   3.660   4.529 -0.0622  0.2319 -0.1891
 1576ntf    fn414459   3.805   3.670   4.359 -0.1416 -0.1147  0.0874
 1576ntf    fn414460   3.837   3.525   4.516  0.4780  0.2560 -0.6666
 1577ntf    cn114461   0.984   3.744   0.632  0.0160 -0.1193 -0.1948
 1577ntf    sn214462   1.132   3.804   0.545  0.2107 -0.2204  0.0661
 1577ntf    nn314463   1.118   3.708   0.421 -0.4634 -0.1842  0.1092
 1577ntf    sn214464   1.231   3.681   0.316 -0.2644  0.3142  0.1901
 1577ntf    cn114465   1.195   3.809   0.192 -0.9503  0.1645  0.2305
 1577ntf    fn414466   0.968   3.613   0.635 -0.9889 -0.0050 -0.1009
 1577ntf    fn414467   0.982   3.781   0.759  0.0015  0.5841 -0.3943
 1577ntf    fn414468   0.876   3.792   0.572 -0.1822 -0.1267  0.1530
 1577ntf    on514469   1.104   3.941   0.509  0.1612 -0.2425  0.0195
 1577ntf    on514470   1.240   3.774   0.635  0.3660 -0.2038 -0.1152
 1577ntf    on514471   1.366   3.716   0.350 -0.0312 -0.6793  0.3241
 1577ntf    on514472   1.204   3.562   0.239  0.4413 -0.0889  0.5593
 1577ntf    fn414473   1.270   3.915   0.216  0.0443 -0.4045 -0.2927
 1577ntf    fn414474   1.068   3.846   0.184 -0.9346  0.0764 -0.5451
 1577ntf    fn414475   1.227   3.762   0.072 -0.1798 -0.2791  0.6072
 1578ntf    cn114476   5.073   4.855   6.525  0.0784  0.0141  0.1590
 1578ntf    sn214477   4.931   4.968   6.537  0.1020  0.0655 -0.0280
 1578ntf    nn314478   4.996   5.107   6.505  0.5397 -0.1713 -0.1758
 1578ntf    sn214479   5.019   5.174   6.365  0.1993 -0.0909 -0.1948
 1578ntf    cn114480   4.868   5.274   6.366  0.1903 -0.1065  0.0133
 1578ntf    fn414481   5.032   4.735   6.562  0.2352 -0.1125 -0.0755
 1578ntf    fn414482   5.113   4.846   6.399 -0.2208  0.4847  0.0268
 1578ntf    fn414483   5.174   4.892   6.602 -0.1170 -0.3448  0.5936
 1578ntf    on514484   4.835   4.915   6.444  0.6445 -0.4508 -0.3016
 1578ntf    on514485   4.894   4.971   6.677 -0.5838  0.0653 -0.2100
 1578ntf    on514486   5.132   5.264   6.375  0.0187  0.0232  0.9554
 1578ntf    on514487   5.008   5.090   6.248  0.2792 -0.3135 -0.0432
 1578ntf    fn414488   4.835   5.319   6.246 -0.6664  0.4146  0.4310
 1578ntf    fn414489   4.872   5.378   6.448  0.1899 -0.3429  0.3135
 1578ntf    fn414490   4.760   5.204   6.398  0.3059 -0.5188 -0.4954
 1579ntf    cn114491   4.025   1.647   3.269 -0.4303  0.0706 -0.5511
 1579ntf    sn214492   3.915   1.542   3.169 -0.0547 -0.2830 -0.5938
 1579ntf    nn314493   3.771   1.595   3.200  0.2198  0.0645  0.1139
 1579ntf    sn214494   3.639   1.544   3.269  0.0082  0.1677 -0.2113
 1579ntf    cn114495   3.550   1.551   3.111 -0.1020  0.0050 -0.1566
 1579ntf    fn414496   3.995   1.627   3.396  0.5730 -0.2194 -0.3510
 1579ntf    fn414497   4.155   1.624   3.258 -0.2270  0.8255  0.1810
 1579ntf    fn414498   4.018   1.778   3.254 -0.3152  0.1363 -0.0353
 1579ntf    on514499   3.965   1.572   3.037  0.1466  0.1987 -0.4097
 1579ntf    on514500   3.946   1.408   3.213 -0.4670 -0.1358  0.1489
 1579ntf    on514501   3.628   1.404   3.301  0.3062  0.2062  0.0668
 1579ntf    on514502   3.563   1.645   3.338  0.2479  0.3833 -0.2625
 1579ntf    fn414503   3.555   1.669   3.051  0.5832 -0.3321 -0.7773
 1579ntf    fn414504   3.420   1.537   3.132 -0.0625  0.2526  0.2649
 1579ntf    fn414505   3.593   1.458   3.028  0.1927  0.2547 -0.2835
 1580ntf    cn114506   6.525   1.516   5.555 -0.3907  0.2743  0.5267
 1580ntf    sn214507   6.352   1.554   5.595 -0.5448  0.2355 -0.1003
 1580ntf    nn314508   6.367   1.696   5.660 -0.9719  0.2393 -0.0092
 1580ntf    sn214509   6.364   1.735   5.812 -0.0154  0.2304  0.0136
 1580ntf    cn114510   6.427   1.905   5.797  0.2839  0.2129  0.9670
 1580ntf    fn414511   6.571   1.400   5.599  0.8831  0.6338  0.1912
 1580ntf    fn414512   6.538   1.516   5.423 -0.5262 -0.1443  0.5115
 1580ntf    fn414513   6.616   1.601   5.601 -0.0511  0.1657  0.0701
 1580ntf    on514514   6.273   1.568   5.475  0.3276  0.0083 -0.7137
 1580ntf    on514515   6.314   1.451   5.688 -0.4470  0.0392 -0.2756
 1580ntf    on514516   6.234   1.754   5.871 -0.1844  0.5734 -0.4637
 1580ntf    on514517   6.461   1.678   5.902 -0.4627  0.1064  0.4206
 1580ntf    fn414518   6.430   1.965   5.914 -0.6131  0.5789  0.8069
 1580ntf    fn414519   6.355   1.976   5.711  0.0164 -0.3803  0.6888
 1580ntf    fn414520   6.550   1.909   5.746 -0.1337 -0.2246 -0.1200
 1581ntf    cn114521   1.645   6.505   2.886  0.3887  0.0164  0.2498
 1581ntf    sn214522   1.736   6.580   2.746 -0.4798  0.2447 -0.1977
 1581ntf    nn314523   1.644   6.701   2.707 -0.8807  0.2914  0.8371
 1581ntf    sn214524   1.561   6.728   2.576 -0.0213 -0.4153  0.1314
 1581ntf    cn114525   1.559   6.910   2.574 -0.2799 -0.4224 -0.3560
 1581ntf    fn414526   1.709   6.408   2.948  0.3976 -0.4163 -0.4235
 1581ntf    fn414527   1.609   6.591   2.980 -0.7524  0.0905 -0.2450
 1581ntf    fn414528   1.538   6.447   2.835  0.0639  0.7716  0.0585
 1581ntf    on514529   1.859   6.628   2.804 -0.3617  0.6219 -0.7572
 1581ntf    on514530   1.742   6.470   2.653 -0.2253  0.2607 -0.2004
 1581ntf    on514531   1.628   6.707   2.450 -0.1377  0.6971 -0.1223
 1581ntf    on514532   1.420   6.698   2.586 -0.1551  0.0513 -0.3108
 1581ntf    fn414533   1.680   6.963   2.585 -0.4104 -0.0874 -0.5163
 1581ntf    fn414534   1.481   6.969   2.662 -0.0202 -0.1509 -0.3040
 1581ntf    fn414535   1.517   6.945   2.453  0.0994 -0.3756 -0.4756
 1582ntf    cn114536   1.221   2.488   4.815 -0.0003 -0.2763  0.0226
 1582ntf    sn214537   1.263   2.451   4.643 -0.2027  0.3700 -0.1700
 1582ntf    nn314538   1.284   2.597   4.588  0.5411  0.3445  0.0385
 1582ntf    sn214539   1.191   2.706   4.524 -0.2253 -0.1189  0.3503
 1582ntf    cn114540   1.287   2.776   4.387  0.1901 -0.5050  0.4416
 1582ntf    fn414541   1.098   2.537   4.821 -0.1059 -0.6036  0.6290
 1582ntf    fn414542   1.222   2.379   4.890 -0.0887  0.3006  0.8797
 1582ntf    fn414543   1.304   2.578   4.867 -0.2028  0.0986 -0.2984
 1582ntf    on514544   1.390   2.387   4.663 -0.2510  0.2515 -0.2368
 1582ntf    on514545   1.147   2.380   4.594  0.2548 -0.1955 -0.4528
 1582ntf    on514546   1.074   2.654   4.456  0.1117 -0.0689 -0.2734
 1582ntf    on514547   1.163   2.822   4.605  0.5090  0.2708  0.0515
 1582ntf    fn414548   1.238   2.888   4.336  0.1605 -0.4408  0.6119
 1582ntf    fn414549   1.311   2.690   4.289 -0.0125  0.3423 -0.3630
 1582ntf    fn414550   1.405   2.805   4.440  0.4203 -0.3174 -0.1644
 1583ntf    cn114551   1.812   3.311   0.806  0.4966 -0.3677 -0.0308
 1583ntf    sn214552   1.819   3.288   0.626  0.0349 -0.0489 -0.0922
 1583ntf    nn314553   1.740   3.414   0.575 -0.3062 -0.1351  0.2108
 1583ntf    sn214554   1.613   3.418   0.483 -0.1592  0.0123  0.0112
 1583ntf    cn114555   1.479   3.449   0.602 -0.3654 -0.1980 -0.1652
 1583ntf    fn414556   1.865   3.423   0.852 -0.0264 -0.0581 -0.1714
 1583ntf    fn414557   1.692   3.328   0.859  0.3860 -0.1024 -0.3651
 1583ntf    fn414558   1.871   3.216   0.876  0.1499 -0.2440  0.4369
 1583ntf    on514559   1.960   3.302   0.602  0.1503 -0.1969  0.4809
 1583ntf    on514560   1.760   3.158   0.603  0.8371 -0.3854 -0.2659
 1583ntf    on514561   1.603   3.546   0.416 -0.0348  0.0422  0.0493
 1583ntf    on514562   1.567   3.306   0.406 -0.4953 -0.0088  0.2382
 1583ntf    fn414563   1.362   3.455   0.541 -0.4204 -0.0116 -0.0446
 1583ntf    fn414564   1.504   3.563   0.664  0.3485 -0.4580  0.0286
 1583ntf    fn414565   1.459   3.355   0.693 -0.9490 -0.4906 -0.5894
 1584ntf    cn114566   1.306   4.156   5.039  0.2570  0.4982  0.2422
 1584ntf    sn214567   1.198   4.272   4.950 -0.1013  0.0021  0.0242
 1584ntf    nn314568   1.146   4.183   4.832 -0.6434  0.0573  0.2196
 1584ntf    sn214569   1.096   4.235   4.692 -0.3132 -0.3295 -0.0443
 1584ntf    cn114570   1.251   4.235   4.597 -0.2943 -0.1642 -0.0138
 1584ntf    fn414571   1.407   4.111   4.966  0.0680  0.0662  0.2427
 1584ntf    fn414572   1.350   4.211   5.151  0.1353 -0.2744  0.6764
 1584ntf    fn414573   1.249   4.049   5.090  0.5515  0.2226 -0.0043
 1584ntf    on514574   1.096   4.311   5.044 -0.1467  0.6277 -0.2817
 1584ntf    on514575   1.290   4.375   4.908 -0.2011  0.0323 -0.1187
 1584ntf    on514576   1.018   4.150   4.607 -0.5676 -0.5436  0.4013
 1584ntf    on514577   1.059   4.375   4.690  0.3992 -0.1322  0.0119
 1584ntf    fn414578   1.342   4.304   4.665  0.0348 -0.1363 -0.4786
 1584ntf    fn414579   1.244   4.290   4.477 -0.2518  0.5058  0.2844
 1584ntf    fn414580   1.305   4.117   4.575 -0.0910  0.0441 -0.6502
 1585ntf    cn114581   5.271   1.936   5.827 -0.2073 -0.3400 -0.2650
 1585ntf    sn214582   5.159   2.071   5.872  0.1377 -0.0345 -0.3230
 1585ntf    nn314583   5.192   2.186   5.769 -0.0969 -0.0752 -0.4468
 1585ntf    sn214584   5.136   2.204   5.624 -0.3500 -0.1999 -0.3647
 1585ntf    cn114585   5.266   2.301   5.542  0.2595 -0.5778  0.1451
 1585ntf    fn414586   5.250   1.833   5.908 -0.1485 -0.1428 -0.0020
 1585ntf    fn414587   5.243   1.875   5.713  0.2570 -0.5837 -0.2519
 1585ntf    fn414588   5.401   1.957   5.837 -0.1960 -0.3100 -0.4582
 1585ntf    on514589   5.028   2.017   5.848 -0.0360  0.4769 -0.5581
 1585ntf    on514590   5.191   2.104   6.008  0.4968  0.0229 -0.4203
 1585ntf    on514591   5.132   2.081   5.548  0.1085 -0.0593 -0.6230
 1585ntf    on514592   5.025   2.294   5.608  0.0891  0.3310 -0.4690
 1585ntf    fn414593   5.273   2.424   5.591 -0.4134 -0.4121 -0.1611
 1585ntf    fn414594   5.254   2.327   5.413 -0.1184  0.1034  0.3113
 1585ntf    fn414595   5.388   2.252   5.560  0.3603 -0.2758  0.2964
 1586ntf    cn114596   1.390   6.776   3.035 -0.2622 -0.1998 -0.4840
 1586ntf    sn214597   1.361   6.642   3.155  0.2206  0.3370  0.2386
 1586ntf    nn314598   1.206   6.651   3.182  0.2331 -0.6698  0.6734
 1586ntf    sn214599   1.126   6.740   3.283  0.1532 -0.2887  0.2765
 1586ntf    cn114600   0.997   6.812   3.176  0.3915  0.1974  0.3111
 1586ntf    fn414601   1.512   6.826   3.042 -0.2018 -0.4278  0.1720
 1586ntf    fn414602   1.377   6.728   2.912 -0.7699 -0.7660 -0.2162
 1586ntf    fn414603   1.307   6.878   3.048  0.6048  0.4139  0.3498
 1586ntf    on514604   1.395   6.528   3.074 -0.6853 -0.0820  0.4322
 1586ntf    on514605   1.445   6.677   3.266  0.4614 -0.1411  0.2083
 1586ntf    on514606   1.050   6.662   3.378  0.1226 -0.1112  0.3991
 1586ntf    on514607   1.197   6.856   3.332 -0.8045  0.3982  0.0731
 1586ntf    fn414608   1.052   6.869   3.071 -0.1174 -0.7717 -0.4959
 1586ntf    fn414609   0.934   6.912   3.235  0.2345  0.2834 -0.0058
 1586ntf    fn414610   0.911   6.720   3.135  0.5938  0.0406  0.2342
 1587ntf    cn114611   1.732   4.539   0.470 -0.0624  0.2250 -0.2026
 1587ntf    sn214612   1.635   4.393   0.422 -0.2254  0.2397  0.0804
 1587ntf    nn314613   1.699   4.374   0.280 -0.2754  0.0352  0.0855
 1587ntf    sn214614   1.643   4.402   0.136  0.0275 -0.1807 -0.0746
 1587ntf    cn114615   1.794   4.483   0.074 -0.0496  0.0191 -0.0003
 1587ntf    fn414616   1.696   4.601   0.581 -0.2977 -0.5302  0.1485
 1587ntf    fn414617   1.860   4.508   0.482 -0.1782  0.0142  0.5330
 1587ntf    fn414618   1.730   4.638   0.381  0.2861  0.1021 -0.3501
 1587ntf    on514619   1.670   4.288   0.514  0.1186 -0.0870 -0.4208
 1587ntf    on514620   1.498   4.439   0.418 -0.1686  0.3661 -0.4865
 1587ntf    on514621   1.616   4.285   0.056 -1.1344 -0.0992  0.1839
 1587ntf    on514622   1.549   4.511   0.130  0.6187  0.3357 -0.0878
 1587ntf    fn414623   1.841   4.594   0.129 -0.4757  0.0019  0.4081
 1587ntf    fn414624   1.794   4.502  -0.057 -0.0199  0.2916  0.0373
 1587ntf    fn414625   1.894   4.397   0.081  0.2093  0.3488  0.4302
 1588ntf    cn114626   6.057   5.761   0.651 -0.0959 -0.4996 -0.1812
 1588ntf    sn214627   6.086   5.694   0.817  0.2245 -0.2365 -0.1306
 1588ntf    nn314628   6.211   5.603   0.790  0.5386  0.2163 -0.2041
 1588ntf    sn214629   6.235   5.451   0.819 -0.3011  0.1724  0.2773
 1588ntf    cn114630   6.202   5.397   0.649 -0.2960 -0.1168  0.3671
 1588ntf    fn414631   6.139   5.858   0.614 -0.5285 -0.1348 -0.1900
 1588ntf    fn414632   6.073   5.653   0.576  0.6664  0.1238 -0.9297
 1588ntf    fn414633   5.932   5.802   0.634 -0.1252 -0.7196 -0.5070
 1588ntf    on514634   6.105   5.808   0.904  0.1941 -0.5697  0.3182
 1588ntf    on514635   5.958   5.629   0.834 -0.0936  0.3636 -0.2015
 1588ntf    on514636   6.375   5.421   0.836 -0.2094  0.5090  0.1212
 1588ntf    on514637   6.142   5.383   0.907 -0.5542  0.2562  0.0761
 1588ntf    fn414638   6.076   5.409   0.611 -0.1489  0.3513  0.0166
 1588ntf    fn414639   6.245   5.276   0.615  0.7888  0.2620  0.3488
 1588ntf    fn414640   6.269   5.475   0.565 -0.4717 -0.4941 -0.1339
 1589ntf    cn114641   5.198   0.196   4.466 -0.1280  0.0982  0.2512
 1589ntf    sn214642   5.125   0.214   4.631 -0.4064 -0.2648  0.1682
 1589ntf    nn314643   5.210   0.325   4.701  0.1664 -0.5772 -0.0299
 1589ntf    sn214644   5.325   0.304   4.807  0.2838  0.2270  0.0156
 1589ntf    cn114645   5.227   0.319   4.959 -0.0210  0.1477 -0.1702
 1589ntf    fn414646   5.102   0.187   4.376  0.0148  0.2912  0.0793
 1589ntf    fn414647   5.277   0.290   4.416 -0.2136  0.3214  0.5365
 1589ntf    fn414648   5.271   0.085   4.458 -0.2227  0.0426  0.1542
 1589ntf    on514649   4.993   0.264   4.600 -0.1997  0.2016  0.0383
 1589ntf    on514650   5.135   0.078   4.678 -0.7565 -0.0688  0.8249
 1589ntf    on514651   5.380   0.170   4.806 -0.9597 -0.2980 -0.1015
 1589ntf    on514652   5.420   0.412   4.814  0.4423  0.0800  0.1226
 1589ntf    fn414653   5.287   0.290   5.074 -0.3479 -0.1004 -0.0604
 1589ntf    fn414654   5.119   0.242   4.963 -0.1580  0.3703  0.8150
 1589ntf    fn414655   5.182   0.442   4.979  0.1572  0.0881  0.6378
 1590ntf    cn114656   1.834   0.078   1.742  0.6123 -0.4719  0.1363
 1590ntf    sn214657   1.776  -0.049   1.626  0.0137 -0.0430 -0.0369
 1590ntf    nn314658   1.673  -0.128   1.715 -0.0959 -0.2099 -0.3110
 1590ntf    sn214659   1.684  -0.283   1.738 -0.0688 -0.1486  0.0819
 1590ntf    cn114660   1.596  -0.309   1.895 -0.3566  0.3050 -0.0005
 1590ntf    fn414661   1.749   0.177   1.763 -0.0781 -0.9710 -0.2966
 1590ntf    fn414662   1.860   0.030   1.863  0.0211 -0.5565  0.2309
 1590ntf    fn414663   1.947   0.125   1.692  0.2572 -0.1039 -0.3246
 1590ntf    on514664   1.711   0.025   1.521 -0.4770 -0.3107  0.0738
 1590ntf    on514665   1.903  -0.113   1.601 -0.2806 -0.8458  0.4919
 1590ntf    on514666   1.604  -0.346   1.636  0.0465  0.6358 -0.5045
 1590ntf    on514667   1.816  -0.332   1.770  0.3595  0.8901 -0.0599
 1590ntf    fn414668   1.657  -0.252   1.998  0.7105  0.4234 -0.6745
 1590ntf    fn414669   1.579  -0.435   1.933 -0.5139  0.0822 -0.7985
 1590ntf    fn414670   1.477  -0.251   1.893 -0.3229  0.3893  0.3729
 1591ntf    cn114671   1.332   1.597   5.976 -0.2340 -0.0171 -0.1202
 1591ntf    sn214672   1.336   1.724   5.846  0.0512  0.3270  0.2204
 1591ntf    nn314673   1.488   1.744   5.815  0.1091  0.2882  0.4765
 1591ntf    sn214674   1.583   1.672   5.712 -0.1969  0.2155  0.2429
 1591ntf    cn114675   1.741   1.651   5.800  0.0348 -0.1433 -0.2550
 1591ntf    fn414676   1.370   1.476   5.939  0.3756  0.2054 -0.2239
 1591ntf    fn414677   1.417   1.638   6.069 -0.3909  0.1326 -0.0415
 1591ntf    fn414678   1.211   1.585   6.029 -0.0178  0.2809  0.4606
 1591ntf    on514679   1.251   1.666   5.745  0.2330  0.1606  0.1632
 1591ntf    on514680   1.287   1.845   5.908 -0.1125  0.3237  0.0997
 1591ntf    on514681   1.539   1.541   5.670 -0.2381  0.3169 -0.0293
 1591ntf    on514682   1.619   1.768   5.611  0.4659  0.3112  0.5633
 1591ntf    fn414683   1.834   1.614   5.713  0.3244  0.2541 -0.1163
 1591ntf    fn414684   1.736   1.557   5.894  0.0226  0.0596 -0.0516
 1591ntf    fn414685   1.773   1.757   5.871 -0.6228 -0.0940 -0.0263
 1592ntf    cn114686   1.040   6.155   6.023  0.6932  0.1998  0.2922
 1592ntf    sn214687   0.882   6.166   6.113  0.3989  0.2237 -0.2208
 1592ntf    nn314688   0.920   6.287   6.207 -0.1340  0.0355  0.2417
 1592ntf    sn214689   0.935   6.295   6.363  0.1604 -0.2350  0.2265
 1592ntf    cn114690   1.088   6.201   6.395  0.3019 -0.0727  0.0323
 1592ntf    fn414691   1.136   6.091   6.088  0.2389 -0.3270  0.4465
 1592ntf    fn414692   1.024   6.078   5.917 -0.4089  0.3447  0.3376
 1592ntf    fn414693   1.085   6.275   5.988 -0.2581  0.3844 -0.3399
 1592ntf    on514694   0.778   6.200   6.020  0.3674  0.4531 -0.1033
 1592ntf    on514695   0.860   6.045   6.187 -0.1432  0.3622 -0.1527
 1592ntf    on514696   0.975   6.428   6.401  0.3539 -0.2382  0.0415
 1592ntf    on514697   0.831   6.225   6.434  0.0303 -0.2927 -0.0203
 1592ntf    fn414698   1.100   6.181   6.526 -0.0580 -0.1279  0.0596
 1592ntf    fn414699   1.193   6.272   6.358  0.0550  0.4994  0.4103
 1592ntf    fn414700   1.103   6.083   6.338 -0.1871 -0.1604  0.0752
 1593ntf    cn114701   6.358   4.183   3.763 -0.1722 -0.2478  0.2055
 1593ntf    sn214702   6.387   4.265   3.922  0.1262 -0.0656  0.0578
 1593ntf    nn314703   6.539   4.243   3.956  0.0584  0.1913  0.5307
 1593ntf    sn214704   6.654   4.344   3.923 -0.0189  0.1015 -0.0148
 1593ntf    cn114705   6.761   4.233   3.827  0.1302  0.0897  0.1657
 1593ntf    fn414706   6.349   4.051   3.768 -0.1236 -0.3068 -0.8819
 1593ntf    fn414707   6.249   4.222   3.698  0.3926 -0.0982 -0.6777
 1593ntf    fn414708   6.460   4.201   3.680 -0.2282 -0.0893  0.1705
 1593ntf    on514709   6.362   4.404   3.894  0.2661 -0.0703 -0.0920
 1593ntf    on514710   6.297   4.195   4.010 -0.1872  0.0093 -0.2007
 1593ntf    on514711   6.628   4.451   3.829  0.7777  0.4745  0.1806
 1593ntf    on514712   6.729   4.369   4.043  0.0467  0.2932 -0.0948
 1593ntf    fn414713   6.707   4.201   3.711  1.0449 -0.8577 -0.0130
 1593ntf    fn414714   6.802   4.124   3.890 -0.4512  0.0945  0.5647
 1593ntf    fn414715   6.868   4.303   3.794 -0.3275  0.7179 -0.0182
 1594ntf    cn114716   3.328   5.922   6.649 -0.2095 -0.4884  0.3184
 1594ntf    sn214717   3.480   6.013   6.687 -0.3466 -0.0505 -0.1695
 1594ntf    nn314718   3.472   6.036   6.842  0.5263  0.1178 -0.1394
 1594ntf    sn214719   3.564   5.983   6.957  0.0463 -0.3284  0.0408
 1594ntf    cn114720   3.510   5.809   6.962  0.0698 -0.3544 -0.6044
 1594ntf    fn414721   3.296   5.916   6.521  0.5005 -0.2585  0.1270
 1594ntf    fn414722   3.331   5.797   6.691 -0.5839 -0.6251 -0.0525
 1594ntf    fn414723   3.221   5.980   6.700  0.1620 -0.1628  0.7293
 1594ntf    on514724   3.576   5.918   6.636  0.2739  0.5867 -0.2104
 1594ntf    on514725   3.470   6.134   6.608  0.3869  0.2736  0.2232
 1594ntf    on514726   3.704   5.973   6.926  0.0423 -0.5243  0.0809
 1594ntf    on514727   3.523   6.046   7.080  1.1204 -0.0767  0.2722
 1594ntf    fn414728   3.379   5.789   6.955 -0.0458 -0.0342  0.5425
 1594ntf    fn414729   3.542   5.754   7.077 -0.5526 -0.0709 -0.2912
 1594ntf    fn414730   3.561   5.742   6.859  0.2058 -0.3655 -0.5292
 1595ntf    cn114731   0.284   2.589   4.689  0.1359  0.0775  0.3778
 1595ntf    sn214732   0.291   2.771   4.681 -0.2088  0.0678 -0.1528
 1595ntf    nn314733   0.292   2.806   4.834 -0.2019  0.2277 -0.1892
 1595ntf    sn214734   0.214   2.735   4.950  0.0155 -0.1135 -0.2483
 1595ntf    cn114735   0.202   2.864   5.078 -0.1590 -0.0724 -0.3063
 1595ntf    fn414736   0.294   2.541   4.566 -0.1932  0.0715  0.3529
 1595ntf    fn414737   0.381   2.524   4.751  0.2060  0.0955  0.2872
 1595ntf    fn414738   0.172   2.546   4.744  0.0162  0.3039  0.3123
 1595ntf    on514739   0.422   2.795   4.625 -0.3145  0.3778 -0.2694
 1595ntf    on514740   0.174   2.813   4.609  0.2211  0.7345 -0.4656
 1595ntf    on514741   0.075   2.708   4.922 -0.1323 -0.0290  0.3727
 1595ntf    on514742   0.292   2.632   5.015 -0.1703 -0.1957 -0.1552
 1595ntf    fn414743   0.318   2.889   5.136 -0.1496  0.1770 -0.4298
 1595ntf    fn414744   0.112   2.834   5.170  0.2165 -0.3984 -0.0448
 1595ntf    fn414745   0.155   2.978   5.029  0.0316 -0.0955 -0.5445
 1596ntf    cn114746   3.186   1.629   0.171  0.3894  0.0025  0.4876
 1596ntf    sn214747   3.042   1.673   0.070  0.6506  0.1140  0.1634
 1596ntf    nn314748   2.960   1.760   0.171  0.3539  0.1331 -0.0941
 1596ntf    sn214749   3.008   1.891   0.243  0.0852  0.1570  0.0457
 1596ntf    cn114750   2.950   2.022   0.131 -0.0680 -0.0363 -0.1010
 1596ntf    fn414751   3.167   1.618   0.302 -0.2000  0.0797  0.4100
 1596ntf    fn414752   3.210   1.502   0.145 -0.8222 -0.0114 -0.6309
 1596ntf    fn414753   3.292   1.703   0.142  0.5468 -0.2019  0.5372
 1596ntf    on514754   3.100   1.742  -0.043 -0.6158  0.0831 -0.5182
 1596ntf    on514755   2.967   1.555   0.036  0.2964  0.6112 -0.8377
 1596ntf    on514756   2.933   1.916   0.363 -0.2376  0.1525 -0.1540
 1596ntf    on514757   3.150   1.918   0.232  0.1254 -0.1867 -0.2774
 1596ntf    fn414758   2.819   2.036   0.134 -0.0951 -0.1368 -0.6941
 1596ntf    fn414759   2.984   1.987   0.007 -0.1600 -0.2367 -0.0696
 1596ntf    fn414760   3.008   2.138   0.155 -0.4368 -0.0470  0.8721
 1597ntf    cn114761   5.246   5.671   4.381 -0.0168 -0.3659 -0.1138
 1597ntf    sn214762   5.087   5.692   4.466  0.2727  0.1132  0.3149
 1597ntf    nn314763   5.127   5.709   4.617  0.4172  0.2093  0.2657
 1597ntf    sn214764   5.038   5.688   4.745  0.0971  0.1630  0.0382
 1597ntf    cn114765   5.026   5.858   4.807  0.0099  0.2880 -0.3141
 1597ntf    fn414766   5.309   5.562   4.421  0.6866  0.0941  0.0554
 1597ntf    fn414767   5.234   5.658   4.250  0.2914  0.2676 -0.2089
 1597ntf    fn414768   5.325   5.775   4.403 -0.3370 -0.1675  0.1012
 1597ntf    on514769   5.029   5.809   4.403 -0.6386 -0.5779 -0.1674
 1597ntf    on514770   5.023   5.567   4.437  0.5999  0.0370 -0.0838
 1597ntf    on514771   4.903   5.655   4.709  0.2012 -0.0389 -0.1716
 1597ntf    on514772   5.094   5.611   4.853  0.1571  0.0782 -0.0527
 1597ntf    fn414773   5.144   5.902   4.846  0.3106 -0.4687 -0.3745
 1597ntf    fn414774   4.942   5.867   4.909  0.2714 -1.1658  0.0480
 1597ntf    fn414775   4.990   5.941   4.710 -0.5138 -0.0611 -0.4236
 1598ntf    cn114776   2.938   0.930   2.858 -0.1714 -0.0619  0.1986
 1598ntf    sn214777   3.034   0.903   2.706 -0.1325 -0.1003  0.2298
 1598ntf    nn314778   2.951   0.787   2.640 -0.1531 -0.0073  0.0920
 1598ntf    sn214779   2.872   0.781   2.505 -0.0217  0.2861  0.0007
 1598ntf    cn114780   3.001   0.736   2.385 -0.0874 -0.1367  0.0873
 1598ntf    fn414781   2.935   0.824   2.937 -0.7022 -0.1078  0.1197
 1598ntf    fn414782   2.977   1.040   2.921 -0.1872 -0.0430  0.1753
 1598ntf    fn414783   2.813   0.956   2.826 -0.1859  0.0128  0.3143
 1598ntf    on514784   3.049   1.034   2.650 -0.2889 -0.3188 -0.3294
 1598ntf    on514785   3.154   0.846   2.761  0.0423  0.2740  0.2383
 1598ntf    on514786   2.782   0.669   2.487  0.1991  0.1177 -0.0605
 1598ntf    on514787   2.811   0.904   2.460  0.6384  0.2715 -0.9566
 1598ntf    fn414788   3.067   0.626   2.421  0.1468 -0.0149  0.0326
 1598ntf    fn414789   3.090   0.834   2.377 -0.1090 -0.0813  0.4787
 1598ntf    fn414790   2.949   0.707   2.267  0.1829  0.1574 -0.1029
 1599ntf    cn114791   4.606   1.592   0.395 -0.4893  0.2224 -0.3035
 1599ntf    sn214792   4.635   1.749   0.484 -0.1679  0.0236 -0.0544
 1599ntf    nn314793   4.762   1.794   0.405 -0.0541 -0.2702 -0.0403
 1599ntf    sn214794   4.882   1.880   0.458 -0.0901 -0.4365  0.3159
 1599ntf    cn114795   5.007   1.755   0.498  0.4960 -0.0335 -0.2240
 1599ntf    fn414796   4.713   1.514   0.393 -0.0357  0.8345 -0.2327
 1599ntf    fn414797   4.513   1.527   0.463 -0.4424  0.0098 -0.4421
 1599ntf    fn414798   4.568   1.617   0.271 -0.0332  0.1318 -0.4645
 1599ntf    on514799   4.518   1.823   0.443 -0.6000 -0.3297  0.5215
 1599ntf    on514800   4.653   1.703   0.619  0.4611  0.8139  0.1312
 1599ntf    on514801   4.942   1.958   0.352  0.4919 -0.2073  0.8088
 1599ntf    on514802   4.861   1.959   0.577 -0.0218  0.2752 -0.1346
 1599ntf    fn414803   5.110   1.792   0.573  0.3926 -0.2102  0.0077
 1599ntf    fn414804   5.062   1.707   0.388  0.7125 -0.1309 -0.0744
 1599ntf    fn414805   4.955   1.646   0.553  0.2563  0.1205 -0.1414
 1600ntf    cn114806   2.115   1.246   4.195  0.3347  0.2317  0.3574
 1600ntf    sn214807   2.137   1.167   4.358  0.1506  0.0495  0.2944
 1600ntf    nn314808   2.031   1.251   4.438 -0.0293  0.2789 -0.1743
 1600ntf    sn214809   2.065   1.360   4.546 -0.2647 -0.2714  0.4595
 1600ntf    cn114810   1.917   1.464   4.543  0.3680  0.6243 -0.1824
 1600ntf    fn414811   2.205   1.208   4.106 -0.1837  0.4486 -0.2646
 1600ntf    fn414812   1.995   1.224   4.143  0.5531  0.1829 -0.1351
 1600ntf    fn414813   2.133   1.374   4.221  0.2779  0.2221  0.4471
 1600ntf    on514814   2.096   1.031   4.335  0.6710 -0.0607  0.0183
 1600ntf    on514815   2.278   1.186   4.379  0.1508  0.1515  0.2094
 1600ntf    on514816   2.052   1.306   4.680 -0.5395 -0.7379  0.2451
 1600ntf    on514817   2.179   1.441   4.514 -0.6135 -0.0953 -0.3461
 1600ntf    fn414818   1.938   1.593   4.564  1.2570  0.4300  0.1344
 1600ntf    fn414819   1.827   1.420   4.631  0.5186 -0.1767 -0.4278
 1600ntf    fn414820   1.849   1.455   4.430  0.0403  0.0977  0.0521
 1601ntf    cn114821   0.612   4.150   3.259  0.0605 -0.3026  0.2960
 1601ntf    sn214822   0.521   4.007   3.323 -0.1143 -0.3902 -0.1467
 1601ntf    nn314823   0.372   4.043   3.286 -0.1404 -0.6014 -0.2488
 1601ntf    sn214824   0.246   4.021   3.376 -0.0055  0.2315  0.1507
 1601ntf    cn114825   0.245   4.185   3.455 -0.3973  0.3855 -0.1668
 1601ntf    fn414826   0.602   4.167   3.128 -0.0574 -0.3640  0.2967
 1601ntf    fn414827   0.573   4.267   3.306  0.5728  0.0247 -0.0870
 1601ntf    fn414828   0.744   4.145   3.270  0.1402  1.3404  0.3054
 1601ntf    on514829   0.564   3.901   3.235  0.0566 -0.3972 -0.0547
 1601ntf    on514830   0.555   3.999   3.463  0.2879 -0.3144 -0.2410
 1601ntf    on514831   0.127   4.015   3.294 -0.0832 -0.5772  0.3132
 1601ntf    on514832   0.257   3.922   3.480  0.3812 -0.0191 -0.1253
 1601ntf    fn414833   0.253   4.288   3.373  0.6881  0.2610 -0.2365
 1601ntf    fn414834   0.343   4.208   3.540  0.0769 -0.2803 -0.5237
 1601ntf    fn414835   0.132   4.188   3.523 -0.0233 -0.2486  0.4987
 1602ntf    cn114836   3.737   4.185   6.291  0.1693  0.3031 -0.0538
 1602ntf    sn214837   3.709   4.032   6.197  0.1972  0.2542  0.0182
 1602ntf    nn314838   3.800   3.933   6.278  0.0442  0.0165 -0.0964
 1602ntf    sn214839   3.950   3.890   6.265  0.1084  0.1715  0.1110
 1602ntf    cn114840   3.909   3.725   6.202 -0.2771  0.1989  0.2910
 1602ntf    fn414841   3.702   4.167   6.417  0.0157 -0.1438 -0.1554
 1602ntf    fn414842   3.863   4.224   6.301  0.1613  0.3189 -0.0138
 1602ntf    fn414843   3.670   4.290   6.249  0.5990  0.4733 -0.3207
 1602ntf    on514844   3.571   4.002   6.225  0.3014  0.0719  0.3412
 1602ntf    on514845   3.736   4.066   6.059  0.0253  0.0650 -0.0630
 1602ntf    on514846   4.021   3.961   6.161  0.0641 -0.2672 -0.2215
 1602ntf    on514847   4.017   3.854   6.387 -0.9058 -0.3612  0.5163
 1602ntf    fn414848   4.016   3.648   6.192 -0.2371  0.3377 -0.3766
 1602ntf    fn414849   3.849   3.733   6.084  0.3703  0.0455 -0.0530
 1602ntf    fn414850   3.824   3.660   6.281 -0.9024 -0.1064 -0.6134
 1603ntf    cn114851   3.517   2.123   1.633 -0.0515  0.2979 -0.1432
 1603ntf    sn214852   3.623   1.988   1.691 -0.0925  0.4643  0.3168
 1603ntf    nn314853   3.739   2.076   1.751  0.4685  0.0718 -0.1852
 1603ntf    sn214854   3.743   2.129   1.898 -0.3924 -0.1730 -0.0669
 1603ntf    cn114855   3.734   2.307   1.867  0.0135 -0.1576 -0.1087
 1603ntf    fn414856   3.584   2.215   1.566  0.3038  0.0285 -0.1592
 1603ntf    fn414857   3.417   2.083   1.555  0.0414  0.4992 -0.3671
 1603ntf    fn414858   3.452   2.186   1.729  0.6595  0.2159  0.3945
 1603ntf    on514859   3.546   1.910   1.785  0.1347 -0.1123  0.0305
 1603ntf    on514860   3.655   1.919   1.569 -0.2002  0.5840  0.2207
 1603ntf    on514861   3.631   2.104   1.985 -0.4772 -0.9666 -0.3976
 1603ntf    on514862   3.874   2.115   1.958 -0.3607 -0.1527 -0.1312
 1603ntf    fn414863   3.722   2.375   1.981  0.3134 -0.1070 -0.1062
 1603ntf    fn414864   3.636   2.343   1.785 -0.3037 -0.0542  0.3107
 1603ntf    fn414865   3.846   2.349   1.811 -0.1476 -0.2000 -0.4661
 1604ntf    cn114866   4.253   0.266   5.314  0.7407 -0.0729  0.5470
 1604ntf    sn214867   4.430   0.242   5.280  0.6346 -0.0998  0.0025
 1604ntf    nn314868   4.433   0.095   5.334 -0.4480 -0.1167  0.0235
 1604ntf    sn214869   4.436  -0.031   5.241  0.3037 -0.1012  0.0262
 1604ntf    cn114870   4.311  -0.133   5.325 -0.0289  0.0003 -0.3439
 1604ntf    fn414871   4.209   0.387   5.282 -0.0745 -0.6603 -0.6308
 1604ntf    fn414872   4.183   0.181   5.242 -0.4384  0.8841  0.5378
 1604ntf    fn414873   4.224   0.240   5.440 -0.0806 -0.2852  0.3173
 1604ntf    on514874   4.449   0.265   5.138  0.0410 -0.1973 -0.0931
 1604ntf    on514875   4.507   0.328   5.367  0.2093  0.2259  0.0630
 1604ntf    on514876   4.378  -0.014   5.110 -0.2355  0.1301  0.2939
 1604ntf    on514877   4.560  -0.104   5.254  0.4756  0.1966  0.0793
 1604ntf    fn414878   4.347  -0.182   5.443 -0.6933 -0.9487 -0.5280
 1604ntf    fn414879   4.253  -0.228   5.254 -0.3247 -0.0659 -0.0175
 1604ntf    fn414880   4.207  -0.060   5.363  0.0651 -0.3145  0.5385
 1605ntf    cn114881   6.665   3.499   4.981 -0.2223 -0.0300 -0.5158
 1605ntf    sn214882   6.674   3.599   5.133  0.1565  0.0037 -0.5596
 1605ntf    nn314883   6.601   3.732   5.093 -0.2267 -0.0220  0.0480
 1605ntf    sn214884   6.447   3.733   5.059 -0.3159 -0.1792  0.4343
 1605ntf    cn114885   6.426   3.914   5.059 -0.5505 -0.2061  0.4146
 1605ntf    fn414886   6.539   3.466   4.956 -0.5603  0.4699  0.4494
 1605ntf    fn414887   6.711   3.559   4.873  0.6507  0.3934  0.0779
 1605ntf    fn414888   6.734   3.386   4.985  0.0234  0.1261 -0.2982
 1605ntf    on514889   6.604   3.520   5.231  0.5060 -0.0659 -0.3656
 1605ntf    on514890   6.817   3.614   5.143  0.2017 -0.4947 -0.4148
 1605ntf    on514891   6.410   3.703   4.923 -0.4196  0.4965  0.3070
 1605ntf    on514892   6.360   3.694   5.166 -0.2952 -0.4124  0.3662
 1605ntf    fn414893   6.316   3.952   4.996  0.0622  0.5672 -0.2215
 1605ntf    fn414894   6.525   3.986   5.007 -0.6506 -0.1414  0.3143
 1605ntf    fn414895   6.424   3.964   5.181  0.1897  0.4637  0.1653
 1606ntf    cn114896   1.538   2.805   1.927  0.3560 -0.6457 -0.0481
 1606ntf    sn214897   1.612   2.893   2.068  0.0071 -0.2918 -0.0816
 1606ntf    nn314898   1.744   2.816   2.105  0.0226 -0.1629  0.1312
 1606ntf    sn214899   1.875   2.795   2.021  0.0435  0.2457  0.0585
 1606ntf    cn114900   1.871   2.622   1.963 -0.4161  0.2774 -0.0044
 1606ntf    fn414901   1.593   2.826   1.808 -0.0867 -0.3985 -0.2118
 1606ntf    fn414902   1.534   2.674   1.946 -0.0680 -0.6217  0.0448
 1606ntf    fn414903   1.410   2.831   1.904  0.4246 -0.5272 -0.3021
 1606ntf    on514904   1.639   3.026   2.018 -0.3053  0.0081  0.5412
 1606ntf    on514905   1.520   2.874   2.177 -0.0891 -0.1827 -0.1434
 1606ntf    on514906   1.887   2.865   1.895  0.4224  0.6542  0.3204
 1606ntf    on514907   1.994   2.790   2.101  0.1517 -0.6017 -0.1439
 1606ntf    fn414908   1.958   2.599   1.867 -0.0893 -0.2170  0.4088
 1606ntf    fn414909   1.751   2.585   1.921 -0.2292 -0.1325 -0.1769
 1606ntf    fn414910   1.901   2.534   2.057 -0.5911  0.4312  0.1974
 1607ntf    cn114911   1.028   6.214   4.088  0.3931  0.1148  0.0990
 1607ntf    sn214912   1.108   6.343   4.189  0.4507  0.2354 -0.0984
 1607ntf    nn314913   1.251   6.358   4.127  0.7507 -0.4590  0.4075
 1607ntf    sn214914   1.312   6.486   4.058  0.0730 -0.5595 -0.3905
 1607ntf    cn114915   1.445   6.412   3.959  0.3483 -0.7439  0.1133
 1607ntf    fn414916   0.910   6.190   4.141  0.2138 -0.0881 -0.3880
 1607ntf    fn414917   1.010   6.249   3.961  0.1233 -0.4486 -0.0167
 1607ntf    fn414918   1.087   6.096   4.088 -0.1761 -0.1761  1.1249
 1607ntf    on514919   1.019   6.456   4.184  0.2189  0.0420 -0.3832
 1607ntf    on514920   1.116   6.279   4.318 -0.7412  0.0579 -0.0977
 1607ntf    on514921   1.228   6.552   3.961  0.3072  0.5599  0.1490
 1607ntf    on514922   1.376   6.576   4.151 -0.5531 -0.0279 -0.4665
 1607ntf    fn414923   1.548   6.373   4.033  0.1505 -0.2723  0.6361
 1607ntf    fn414924   1.515   6.485   3.872 -0.0370 -0.6862 -0.1498
 1607ntf    fn414925   1.408   6.306   3.889  0.2983 -0.3899 -0.4010
 1608ntf    cn114926   3.392   0.769   0.196 -0.3846 -0.1097  0.2077
 1608ntf    sn214927   3.407   0.833   0.365  0.0692  0.1495  0.0714
 1608ntf    nn314928   3.504   0.727   0.429  0.0597  0.2397  0.2350
 1608ntf    sn214929   3.503   0.667   0.574 -0.1457  0.0300  0.1483
 1608ntf    cn114930   3.527   0.490   0.543  0.2236  0.1034  0.0037
 1608ntf    fn414931   3.508   0.761   0.133 -0.3259 -0.2358  0.3337
 1608ntf    fn414932   3.331   0.653   0.182  0.2539 -0.3329 -0.8852
 1608ntf    fn414933   3.322   0.844   0.111  0.1302 -0.1771 -0.2835
 1608ntf    on514934   3.471   0.958   0.335  0.1749  0.1551  0.3148
 1608ntf    on514935   3.270   0.829   0.411 -0.1203 -0.4015 -0.5271
 1608ntf    on514936   3.624   0.696   0.648 -0.3843  0.4933  0.3610
 1608ntf    on514937   3.386   0.679   0.658 -0.2972  0.1351 -0.0777
 1608ntf    fn414938   3.654   0.463   0.518  0.1010 -0.3215 -0.1854
 1608ntf    fn414939   3.441   0.456   0.448 -0.3908  0.3441  0.4624
 1608ntf    fn414940   3.502   0.424   0.655 -0.8338  0.2176 -0.1560
 1609ntf    cn114941   1.477   1.087   5.261  0.0422 -0.3709 -0.3628
 1609ntf    sn214942   1.458   0.908   5.236  0.0169 -0.4396  0.1473
 1609ntf    nn314943   1.337   0.878   5.332 -0.0169  0.3978  0.3790
 1609ntf    sn214944   1.184   0.872   5.296  0.0599  0.6506  0.0116
 1609ntf    cn114945   1.172   0.696   5.341  0.3192  0.5266 -0.3933
 1609ntf    fn414946   1.560   1.149   5.178  0.5430 -0.0969  0.3285
 1609ntf    fn414947   1.359   1.147   5.262 -0.0068 -0.4688  0.2200
 1609ntf    fn414948   1.510   1.115   5.386  0.0309 -0.0489 -0.4294
 1609ntf    on514949   1.444   0.898   5.093 -0.2074 -0.5418  0.1762
 1609ntf    on514950   1.571   0.841   5.293  0.3793 -0.4316 -0.5598
 1609ntf    on514951   1.107   0.940   5.397 -0.5472  0.0163 -0.0183
 1609ntf    on514952   1.132   0.882   5.162  0.3659  0.5327 -0.1176
 1609ntf    fn414953   1.048   0.657   5.365  0.4936 -0.3678 -0.8786
 1609ntf    fn414954   1.239   0.680   5.453 -0.3275  0.1754 -0.0506
 1609ntf    fn414955   1.238   0.623   5.252  0.0660  0.2051 -0.3205
 1610ntf    cn114956   5.458   0.951   6.476 -0.2661  0.0757  0.2100
 1610ntf    sn214957   5.326   0.830   6.442  0.1076 -0.2369 -0.1491
 1610ntf    nn314958   5.413   0.719   6.374  0.5331  0.0509 -0.0805
 1610ntf    sn214959   5.404   0.675   6.224  0.0432 -0.1414  0.0024
 1610ntf    cn114960   5.527   0.541   6.226  0.3034  0.0990  0.0762
 1610ntf    fn414961   5.412   1.058   6.539 -0.3880 -0.1160  0.4488
 1610ntf    fn414962   5.560   0.905   6.546  0.1668  0.1543 -0.3613
 1610ntf    fn414963   5.509   0.998   6.364 -0.2253  0.1711  0.2692
 1610ntf    on514964   5.284   0.787   6.573  0.3566  0.0271  0.0176
 1610ntf    on514965   5.234   0.911   6.365  0.0920  0.2387  0.3579
 1610ntf    on514966   5.275   0.617   6.192 -0.1539  0.4203 -0.2387
 1610ntf    on514967   5.465   0.772   6.137  0.1903 -0.2006  0.0400
 1610ntf    fn414968   5.535   0.476   6.111 -0.5901  0.1564 -0.0226
 1610ntf    fn414969   5.497   0.453   6.320  0.0214  0.0125 -0.0938
 1610ntf    fn414970   5.648   0.586   6.257  0.2747  0.4854 -0.3606
 1611ntf    cn114971   3.757   5.968   2.543  0.1216  0.1777  0.0359
 1611ntf    sn214972   3.622   5.895   2.640  0.1406  0.0946  0.0003
 1611ntf    nn314973   3.593   5.773   2.547  0.2619 -0.3504  0.5398
 1611ntf    sn214974   3.665   5.633   2.550  0.4344 -0.2725  0.1362
 1611ntf    cn114975   3.576   5.551   2.685 -0.3239  0.3157  0.0017
 1611ntf    fn414976   3.742   5.953   2.412  0.4545 -0.4714  0.0667
 1611ntf    fn414977   3.774   6.098   2.562  0.4999  0.1942 -0.3980
 1611ntf    fn414978   3.878   5.917   2.562  0.2478  0.4331 -0.0750
 1611ntf    on514979   3.679   5.865   2.769 -0.3622 -0.1234  0.1733
 1611ntf    on514980   3.523   6.000   2.630  0.4590  0.3428 -0.5795
 1611ntf    on514981   3.637   5.559   2.430  0.4883 -0.2872  0.1325
 1611ntf    on514982   3.801   5.637   2.599  0.7425 -0.1548 -0.7187
 1611ntf    fn414983   3.444   5.554   2.671 -0.2813 -0.1119 -0.5139
 1611ntf    fn414984   3.602   5.611   2.800  0.0045 -0.9270  0.6040
 1611ntf    fn414985   3.612   5.425   2.707 -0.2891  0.2386 -0.4970
 1612ntf    cn114986   1.939   4.718   4.400 -0.2446  0.1133 -0.4696
 1612ntf    sn214987   1.827   4.857   4.366 -0.2942  0.2074  0.0755
 1612ntf    nn314988   1.825   4.916   4.512 -0.2355  0.4799 -0.0323
 1612ntf    sn214989   1.717   4.908   4.625 -0.4009 -0.0098 -0.2206
 1612ntf    cn114990   1.821   4.930   4.772 -0.2265  0.1741 -0.3721
 1612ntf    fn414991   1.913   4.662   4.517  0.8513  0.2974 -0.1212
 1612ntf    fn414992   1.967   4.632   4.303 -0.2340  0.3406 -0.6675
 1612ntf    fn414993   2.062   4.763   4.421 -0.6082  0.5395  0.8284
 1612ntf    on514994   1.906   4.936   4.275 -0.3689  0.0327 -0.1410
 1612ntf    on514995   1.710   4.784   4.323  0.0363 -0.3370  0.0912
 1612ntf    on514996   1.627   5.020   4.640  0.0084  0.2700  0.1398
 1612ntf    on514997   1.657   4.778   4.642  0.8161 -0.4747  0.6571
 1612ntf    fn414998   1.756   4.902   4.884  0.2695  0.4449 -0.0094
 1612ntf    fn414999   1.877   5.049   4.784 -0.5568  0.3148 -0.2111
 1612ntf    fn415000   1.927   4.851   4.780 -0.0245  0.4101 -0.7309
 1613ntf    cn115001   0.315   2.368   0.072  0.1910 -0.0531 -0.0829
 1613ntf    sn215002   0.141   2.398   0.113  0.1513 -0.1717 -0.1622
 1613ntf    nn315003   0.113   2.527   0.028 -0.0386 -0.1501 -0.0675
 1613ntf    sn215004   0.037   2.538  -0.109  0.3527 -0.0262 -0.2735
 1613ntf    cn115005  -0.126   2.588  -0.048  0.4723  0.0413 -0.0087
 1613ntf    fn415006   0.389   2.473   0.103 -0.0264 -0.1396  0.7520
 1613ntf    fn415007   0.375   2.261   0.122  0.3869  0.1032  0.0161
 1613ntf    fn415008   0.330   2.360  -0.059 -0.2659 -0.2401 -0.1250
 1613ntf    on515009   0.080   2.273   0.075 -0.2220  0.2559 -0.9988
 1613ntf    on515010   0.148   2.425   0.255 -0.0565  0.6260 -0.2996
 1613ntf    on515011   0.078   2.648  -0.194  0.0184  0.4006  0.1150
 1613ntf    on515012   0.004   2.416  -0.177 -0.1608 -0.3893  0.6202
 1613ntf    fn415013  -0.109   2.680   0.045 -0.0874  0.4979 -0.3545
 1613ntf    fn415014  -0.200   2.491   0.005  0.2146  0.3360  0.1774
 1613ntf    fn415015  -0.200   2.644  -0.142 -0.2100  0.1385  0.5749
 1614ntf    cn115016   5.382   6.237   6.023  0.0767 -0.2342 -0.2721
 1614ntf    sn215017   5.479   6.222   6.176 -0.1012 -0.2277 -0.1580
 1614ntf    nn315018   5.512   6.375   6.192  0.0060 -0.2268 -0.3787
 1614ntf    sn215019   5.591   6.435   6.314 -0.0242  0.0481 -0.4944
 1614ntf    cn115020   5.460   6.449   6.440  0.5301  0.1886  0.0702
 1614ntf    fn415021   5.430   6.313   5.926 -0.6015  0.1732 -0.2988
 1614ntf    fn415022   5.368   6.120   5.963 -0.0918 -0.3747  0.0395
 1614ntf    fn415023   5.260   6.278   6.054  0.2625 -0.2210  0.4596
 1614ntf    on515024   5.394   6.165   6.278 -0.0646  0.3496  0.2037
 1614ntf    on515025   5.589   6.137   6.137  0.3833  0.2844  0.0656
 1614ntf    on515026   5.694   6.352   6.370 -0.5053 -0.5756 -0.5242
 1614ntf    on515027   5.629   6.574   6.298  0.0693  0.0893  0.0650
 1614ntf    fn415028   5.488   6.526   6.544 -0.0532  0.3136  0.1403
 1614ntf    fn415029   5.432   6.332   6.493  0.5889  0.0019 -0.3039
 1614ntf    fn415030   5.343   6.486   6.389  0.3502 -0.3697  0.0724
 1615ntf    cn115031   4.453   0.666   4.533 -0.3131 -0.1036  0.1614
 1615ntf    sn215032   4.562   0.745   4.655  0.0232 -0.3428  0.0178
 1615ntf    nn315033   4.595   0.621   4.744  0.0318 -0.4693 -0.1602
 1615ntf    sn215034   4.621   0.622   4.899  0.2595 -0.0194 -0.1994
 1615ntf    cn115035   4.802   0.623   4.905  0.2468 -0.2086  0.3212
 1615ntf    fn415036   4.338   0.615   4.577  0.0016 -0.4521  0.5857
 1615ntf    fn415037   4.419   0.751   4.438  1.3179 -0.0592 -0.4136
 1615ntf    fn415038   4.517   0.565   4.476  0.1672 -0.0281  0.5595
 1615ntf    on515039   4.665   0.802   4.572 -0.0437 -0.1677  0.0548
 1615ntf    on515040   4.467   0.837   4.714 -0.1043  0.2532 -1.0859
 1615ntf    on515041   4.599   0.737   4.983  0.5725 -0.0861 -0.0275
 1615ntf    on515042   4.589   0.498   4.965 -0.0621  0.0462 -0.2297
 1615ntf    fn415043   4.860   0.506   4.887  0.1480 -0.2000 -0.0605
 1615ntf    fn415044   4.851   0.673   5.017 -0.0140  0.1594  0.2715
 1615ntf    fn415045   4.838   0.708   4.810  0.1159  0.0354  0.4891
 1616ntf    cn115046   5.524   6.402   4.281 -0.0183  0.3614 -0.7742
 1616ntf    sn215047   5.343   6.422   4.269 -0.1510 -0.4745 -0.2504
 1616ntf    nn315048   5.320   6.447   4.116 -0.4912  0.9085  0.0165
 1616ntf    sn215049   5.211   6.382   4.023  0.1969  0.2590 -0.3441
 1616ntf    cn115050   5.159   6.526   3.926  0.1388  0.4063 -0.0947
 1616ntf    fn415051   5.578   6.449   4.393  0.2758 -0.4253 -0.5798
 1616ntf    fn415052   5.563   6.276   4.269  0.5392  0.4370  0.1071
 1616ntf    fn415053   5.586   6.463   4.182  1.0416 -0.4915 -0.6497
 1616ntf    on515054   5.296   6.299   4.327 -0.7154 -0.4380 -0.6209
 1616ntf    on515055   5.317   6.538   4.350  0.1153 -0.3306 -0.3713
 1616ntf    on515056   5.265   6.280   3.935 -0.0171 -0.4244  0.3084
 1616ntf    on515057   5.088   6.350   4.091  0.2902 -0.6668 -0.5978
 1616ntf    fn415058   5.079   6.598   4.002 -0.2818  0.1924 -0.3325
 1616ntf    fn415059   5.090   6.480   3.823 -0.5707  0.5399  0.3104
 1616ntf    fn415060   5.259   6.599   3.878  0.4229 -0.4052 -0.7614
 1617ntf    cn115061   0.197   1.490   0.214 -0.3265  0.0746 -0.1593
 1617ntf    sn215062   0.295   1.448   0.362  0.0207  0.1661 -0.3612
 1617ntf    nn315063   0.233   1.308   0.395 -0.7310  0.3531 -0.9448
 1617ntf    sn215064   0.128   1.266   0.504  0.0899  0.1596 -0.2163
 1617ntf    cn115065   0.232   1.166   0.614 -0.4470  0.0051  0.1542
 1617ntf    fn415066   0.202   1.386   0.133  0.5467  0.1462 -0.2100
 1617ntf    fn415067   0.073   1.532   0.236 -0.3549 -0.1055  0.0306
 1617ntf    fn415068   0.254   1.589   0.147 -0.1996  0.0323 -0.1154
 1617ntf    on515069   0.432   1.444   0.318  0.1914 -0.6951  0.2436
 1617ntf    on515070   0.263   1.555   0.454 -0.2998 -0.4241  0.2168
 1617ntf    on515071   0.081   1.364   0.598 -0.9861 -1.2536  0.7565
 1617ntf    on515072   0.029   1.176   0.448 -0.3258 -0.0262  0.8044
 1617ntf    fn415073   0.153   1.116   0.708 -0.0920  0.2202  0.5717
 1617ntf    fn415074   0.324   1.240   0.674 -0.6196  0.2060  0.1749
 1617ntf    fn415075   0.292   1.067   0.551 -0.3226  0.1558  0.0335
 1618ntf    cn115076   2.610   4.783   1.382  0.2304  0.2858 -0.2070
 1618ntf    sn215077   2.488   4.904   1.441 -0.0514 -0.2846  0.3940
 1618ntf    nn315078   2.375   4.807   1.491  0.1077 -0.6207  0.1123
 1618ntf    sn215079   2.256   4.745   1.409  0.1104 -0.1764 -0.2305
 1618ntf    cn115080   2.255   4.574   1.470 -0.1883 -0.0911  0.0047
 1618ntf    fn415081   2.654   4.706   1.480 -0.2469  0.5099  0.1840
 1618ntf    fn415082   2.561   4.695   1.296  0.4132 -0.2560  0.2343
 1618ntf    fn415083   2.717   4.844   1.332  0.4896 -0.3051 -0.3843
 1618ntf    on515084   2.561   4.966   1.549  0.3439 -0.2780  0.1265
 1618ntf    on515085   2.450   4.995   1.335  0.2489 -0.0791  0.4608
 1618ntf    on515086   2.131   4.799   1.456  0.0157 -0.3664 -0.2655
 1618ntf    on515087   2.276   4.727   1.267  0.3675  0.3328 -0.2655
 1618ntf    fn415088   2.132   4.527   1.483 -0.1316 -0.3208 -0.2806
 1618ntf    fn415089   2.304   4.557   1.592 -0.2894 -0.3039  0.0155
 1618ntf    fn415090   2.310   4.488   1.386  0.4110  0.0036  0.2947
 1619ntf    cn115091   5.581   1.680   6.569  0.3649  0.1950  0.0977
 1619ntf    sn215092   5.489   1.722   6.720  0.0041  0.2650 -0.1416
 1619ntf    nn315093   5.358   1.635   6.708 -0.1600  0.5049 -0.0979
 1619ntf    sn215094   5.306   1.515   6.795 -0.3602  0.4127 -0.3420
 1619ntf    cn115095   5.144   1.508   6.713 -0.2814 -0.0574 -0.4564
 1619ntf    fn415096   5.629   1.557   6.568 -0.0863  0.0136  0.3526
 1619ntf    fn415097   5.517   1.694   6.455 -0.1256  0.5519  0.4123
 1619ntf    fn415098   5.691   1.755   6.565 -0.0328  0.7669 -0.2138
 1619ntf    on515099   5.571   1.677   6.829 -0.7197 -0.3846  0.1504
 1619ntf    on515100   5.461   1.862   6.706  0.0556  0.2964  0.0623
 1619ntf    on515101   5.379   1.397   6.756 -0.0029  0.3033  0.6342
 1619ntf    on515102   5.283   1.550   6.933 -0.3887 -0.0234 -0.2357
 1619ntf    fn415103   5.061   1.415   6.757 -0.1365 -0.1638 -0.4063
 1619ntf    fn415104   5.170   1.468   6.589  0.7264  0.2044 -0.3395
 1619ntf    fn415105   5.079   1.622   6.701  0.0381  0.2172  0.3492
 1620ntf    cn115106   2.781   5.017   5.344 -0.4738 -0.0150  0.2535
 1620ntf    sn215107   2.922   5.019   5.230 -0.2863  0.0022  0.4859
 1620ntf    nn315108   2.862   5.115   5.122 -0.1649  0.1634  0.5615
 1620ntf    sn215109   2.886   5.270   5.110 -0.1324  0.1304  0.1764
 1620ntf    cn115110   2.770   5.278   4.970 -0.0455  0.1052  0.1027
 1620ntf    fn415111   2.698   4.917   5.317  0.0127 -0.4581  0.3788
 1620ntf    fn415112   2.820   5.002   5.469 -0.0384  0.2253  0.1463
 1620ntf    fn415113   2.703   5.124   5.350  0.0921  0.4154  0.0385
 1620ntf    on515114   3.025   5.071   5.317  0.1000 -0.1852  0.1457
 1620ntf    on515115   2.924   4.878   5.199  0.6049  0.1415 -0.1321
 1620ntf    on515116   2.825   5.354   5.211 -0.3366 -0.1742  0.3096
 1620ntf    on515117   3.012   5.304   5.049 -0.2472  0.5126  0.1521
 1620ntf    fn415118   2.796   5.193   4.872  0.1293  0.3489 -0.0634
 1620ntf    fn415119   2.773   5.400   4.919 -0.3843 -0.1135 -0.4564
 1620ntf    fn415120   2.645   5.248   5.001 -0.0213 -0.0384  0.0649
   6.80537   6.80537   6.80537
