Converted from moscito
 1944
    1SOL     ow    1   1.722   2.196   5.205 -0.5292  0.0975 -0.1396
    1SOL     hw    2   1.796   2.160   5.255 -0.6897  0.2616  0.2199
    1SOL     hw    3   1.664   2.121   5.193 -0.2546 -0.0567 -0.5163
    1SOL     vw    4   1.724   2.181   5.210 -0.0865 -0.0917  0.0212
    2SOL     ow    5   2.113   1.349   2.558 -0.3530  0.1559 -0.1018
    2SOL     hw    6   2.203   1.354   2.591  0.0074 -0.3188 -0.9765
    2SOL     hw    7   2.100   1.256   2.536 -0.8177  0.3351 -0.6148
    2SOL     vw    8   2.123   1.337   2.559  0.0060 -0.0311  0.0041
    3SOL     ow    9   1.032   2.132   6.197  0.2219 -0.0619 -0.0955
    3SOL     hw   10   1.037   2.128   6.293 -2.2937 -0.0549  0.0881
    3SOL     hw   11   1.093   2.202   6.173  1.4170 -0.5207  1.4026
    3SOL     vw   12   1.041   2.140   6.206  0.0377 -0.0079 -0.0079
    4SOL     ow   13   0.115   0.980   0.630  0.2853 -0.2162 -0.2949
    4SOL     hw   14   0.193   1.027   0.601  1.4043 -1.7094  0.1824
    4SOL     hw   15   0.097   1.014   0.717  0.8547 -0.4005 -0.1060
    4SOL     vw   16   0.123   0.991   0.637 -0.0003 -0.0268 -0.0487
    5SOL     ow   17   2.050   0.641   4.196  0.2140 -0.0054  0.5460
    5SOL     hw   18   2.121   0.680   4.247  1.1689  0.7896 -1.3106
    5SOL     hw   19   2.092   0.572   4.145 -0.8135 -1.1124  1.1428
    5SOL     vw   20   2.065   0.637   4.196  0.0955 -0.0293 -0.0150
    6SOL     ow   21   0.710   2.011   0.504  0.0567  0.3790 -0.5131
    6SOL     hw   22   0.639   1.953   0.533  2.5921 -1.7863  1.9299
    6SOL     hw   23   0.715   2.078   0.572  0.2341  0.6499 -0.7924
    6SOL     vw   24   0.701   2.012   0.517 -0.1482  0.0880 -0.0172
    7SOL     ow   25   0.682   1.970   2.515 -0.9624 -0.2269  0.5254
    7SOL     hw   26   0.703   1.884   2.551 -1.1347 -0.6797 -0.4140
    7SOL     hw   27   0.731   1.974   2.433 -1.6456  0.2124  0.1285
    7SOL     vw   28   0.692   1.960   2.509  0.0190  0.0157  0.0266
    8SOL     ow   29   0.517   0.785   4.191  0.2119  0.4553 -0.0987
    8SOL     hw   30   0.482   0.855   4.136 -0.5838  0.0421 -0.1328
    8SOL     hw   31   0.547   0.830   4.270 -1.5620  0.6952  0.4739
    8SOL     vw   32   0.517   0.800   4.194  0.0045  0.0123 -0.0191
    9SOL     ow   33  -0.006   2.211   3.441 -0.0591 -0.0692  1.0539
    9SOL     hw   34   0.082   2.245   3.424 -0.6455  1.3097  0.6565
    9SOL     hw   35  -0.029   2.163   3.362 -0.0866  0.4992  0.7107
    9SOL     vw   36   0.003   2.209   3.429 -0.0015  0.0340 -0.0590
   10SOL     ow   37   0.163   0.153   0.646  0.1565 -0.0584 -0.0535
   10SOL     hw   38   0.153   0.113   0.560  0.7300 -2.9665  1.0978
   10SOL     hw   39   0.240   0.209   0.637 -0.3088  0.3650 -1.6382
   10SOL     vw   40   0.172   0.155   0.634 -0.0148 -0.0245 -0.0100
   11SOL     ow   41   0.597   1.435   5.530  0.3698  0.6763  0.1646
   11SOL     hw   42   0.582   1.414   5.623  0.4361  1.6482  0.4025
   11SOL     hw   43   0.673   1.382   5.506 -0.3808 -0.4982  0.3235
   11SOL     vw   44   0.605   1.425   5.539  0.0129 -0.0670 -0.0470
   12SOL     ow   45   0.760   0.971   0.450  0.1787  1.3797 -0.0836
   12SOL     hw   46   0.794   0.982   0.361  0.5886  0.7631 -0.0136
   12SOL     hw   47   0.722   1.056   0.473  0.5807  1.7115 -0.6340
   12SOL     vw   48   0.760   0.984   0.441  0.0246  0.0089  0.0907
   13SOL     ow   49   1.563   1.338   1.394 -0.6844 -0.0555 -0.3235
   13SOL     hw   50   1.483   1.391   1.389 -0.4546  0.7640  2.6111
   13SOL     hw   51   1.539   1.264   1.451  0.5297  0.0156  0.3131
   13SOL     vw   52   1.549   1.335   1.401 -0.0173  0.0479  0.1128
   14SOL     ow   53   1.889   1.417   0.365  0.3112 -0.4784 -0.3979
   14SOL     hw   54   1.831   1.360   0.415  1.2345 -0.2788  0.9496
   14SOL     hw   55   1.930   1.360   0.300  1.1061 -1.3546  0.8245
   14SOL     vw   56   1.887   1.402   0.363  0.0781  0.0089  0.0706
   15SOL     ow   57   1.312   0.560   3.500  0.0777  0.1136 -0.7600
   15SOL     hw   58   1.338   0.642   3.541 -1.9965  2.5086 -3.8777
   15SOL     hw   59   1.383   0.499   3.523  1.0495  2.2546  2.7751
   15SOL     vw   60   1.325   0.562   3.509  0.0498 -0.0075 -0.0415
   16SOL     ow   61   1.026   2.002   5.889  0.0315  0.2197  0.3851
   16SOL     hw   62   1.073   1.919   5.887  0.7112  0.6194 -0.9471
   16SOL     hw   63   1.080   2.062   5.838 -1.1590  1.1089  0.1292
   16SOL     vw   64   1.039   1.999   5.882 -0.0427  0.0596 -0.0792
   17SOL     ow   65   1.214   0.377   3.288 -0.4672  0.0952 -0.3005
   17SOL     hw   66   1.177   0.317   3.224 -0.5753  0.2152 -0.3504
   17SOL     hw   67   1.299   0.401   3.251 -1.0396  1.1089 -0.9936
   17SOL     vw   68   1.221   0.372   3.275 -0.0108 -0.0489 -0.0010
   18SOL     ow   69   2.145   1.719   4.572  0.2228  0.1159 -0.1998
   18SOL     hw   70   2.154   1.659   4.646  1.9692  0.0758 -0.4170
   18SOL     hw   71   2.211   1.787   4.587 -0.1183  0.6859 -1.1797
   18SOL     vw   72   2.155   1.720   4.584 -0.0380  0.0528  0.0727
   19SOL     ow   73   1.780   1.690   0.381  0.1559  0.5010 -0.4331
   19SOL     hw   74   1.837   1.613   0.391 -0.8669 -0.5199 -1.9387
   19SOL     hw   75   1.706   1.673   0.439  1.1460  1.6360  1.2182
   19SOL     vw   76   1.778   1.677   0.390 -0.0805 -0.0557 -0.0388
   20SOL     ow   77   0.589   0.245   3.129  0.1637 -0.2077  0.0447
   20SOL     hw   78   0.654   0.184   3.165 -1.0661 -1.0207  0.9471
   20SOL     hw   79   0.516   0.189   3.102  0.3567  0.5427 -2.2666
   20SOL     vw   80   0.588   0.229   3.130 -0.0083  0.0601  0.0286
   21SOL     ow   81   1.655   1.965   0.819  0.0949  0.2022  0.6318
   21SOL     hw   82   1.673   2.047   0.865  0.6092  0.0221  0.7481
   21SOL     hw   83   1.559   1.964   0.810 -0.0850 -0.0830  2.2819
   21SOL     vw   84   1.645   1.976   0.824  0.0276  0.0137  0.0405
   22SOL     ow   85   1.792   0.209   0.910  0.7327  0.6534 -0.3206
   22SOL     hw   86   1.790   0.155   0.831 -0.9597  1.3773 -0.8070
   22SOL     hw   87   1.717   0.178   0.962  0.0779  2.1311 -0.3445
   22SOL     vw   88   1.782   0.198   0.907  0.0837 -0.0413  0.0276
   23SOL     ow   89   2.199   0.576   3.579  0.0595  0.4051  0.2258
   23SOL     hw   90   2.229   0.663   3.608  0.8338 -0.3490  1.8020
   23SOL     hw   91   2.120   0.561   3.630 -0.3951  0.4023 -0.4671
   23SOL     vw   92   2.193   0.586   3.590 -0.0303 -0.0099 -0.0509
   24SOL     ow   93   2.216   0.936   5.059  0.2707 -0.0574  0.2146
   24SOL     hw   94   2.178   0.933   4.971 -1.0124 -0.8827  0.7626
   24SOL     hw   95   2.303   0.973   5.046 -0.4220  1.1909 -1.2124
   24SOL     vw   96   2.222   0.940   5.045 -0.0287  0.0829  0.0072
   25SOL     ow   97   1.571   0.335   1.534 -0.5809 -0.2644 -0.3407
   25SOL     hw   98   1.486   0.345   1.491 -0.6204 -0.4596 -0.3117
   25SOL     hw   99   1.592   0.422   1.567  0.2333  0.2910 -2.1953
   25SOL     vw  100   1.562   0.348   1.532  0.0024  0.0016  0.0666
   26SOL     ow  101   0.080   1.403   2.299  0.0051 -0.0835 -0.0238
   26SOL     hw  102   0.013   1.335   2.289  1.3313 -1.5742  0.7864
   26SOL     hw  103   0.034   1.476   2.342 -1.1508 -0.9666  0.2954
   26SOL     vw  104   0.065   1.404   2.303  0.0174  0.0139  0.1090
   27SOL     ow  105   0.929   1.019   6.268  0.4041  0.0054  0.5898
   27SOL     hw  106   0.890   0.981   6.347  0.0854 -0.3997  0.2400
   27SOL     hw  107   1.012   0.971   6.258  0.3076 -0.1484  0.5162
   27SOL     vw  108   0.935   1.007   6.277  0.0750  0.0303  0.0365
   28SOL     ow  109   0.757   0.497   1.716  0.2396 -0.1709  0.2395
   28SOL     hw  110   0.708   0.579   1.722  1.2214  0.3978  0.8208
   28SOL     hw  111   0.726   0.457   1.635 -1.7802 -0.2621  1.0049
   28SOL     vw  112   0.747   0.503   1.706 -0.0733  0.0609  0.0369
   29SOL     ow  113   2.311   0.386   0.650 -0.0133 -0.2800  0.5236
   29SOL     hw  114   2.351   0.432   0.724  0.2109  1.7371 -0.7765
   29SOL     hw  115   2.296   0.454   0.585  0.5848 -2.0945 -1.6516
   29SOL     vw  116   2.314   0.401   0.651  0.1280 -0.0098 -0.0287
   30SOL     ow  117   1.042   0.607   3.337 -0.1631 -0.3941  0.2432
   30SOL     hw  118   1.077   0.654   3.261  0.1154  1.1257  1.2561
   30SOL     hw  119   0.973   0.664   3.370 -0.4453 -1.1511  0.9884
   30SOL     vw  120   1.038   0.621   3.331  0.1002 -0.0437 -0.0325
   31SOL     ow  121   2.199   2.173   4.259  0.2635 -0.2483 -0.3444
   31SOL     hw  122   2.151   2.124   4.193  0.9416 -0.5335 -0.6317
   31SOL     hw  123   2.248   2.239   4.210  1.4036 -0.9781 -0.2199
   31SOL     vw  124   2.199   2.175   4.244 -0.0395  0.0162  0.0086
   32SOL     ow  125   1.818   0.696   4.423  0.1148 -0.5167  0.4306
   32SOL     hw  126   1.888   0.724   4.482 -0.4673  0.6528  0.5862
   32SOL     hw  127   1.760   0.643   4.477 -0.1224  0.0933  0.7799
   32SOL     vw  128   1.820   0.693   4.438 -0.0549  0.1054  0.0088
   33SOL     ow  129   1.640   0.728   5.990 -0.0409 -0.4061 -0.2876
   33SOL     hw  130   1.565   0.679   6.023  0.6752 -1.8815 -0.7782
   33SOL     hw  131   1.713   0.701   6.046  0.7908 -1.4971 -1.8514
   33SOL     vw  132   1.640   0.718   6.002  0.0206 -0.0021 -0.0846
   34SOL     ow  133   0.832   0.428   3.015  0.0154  0.1089 -0.1875
   34SOL     hw  134   0.867   0.514   2.991  1.8352  0.2513  2.5845
   34SOL     hw  135   0.904   0.383   3.058 -1.4934 -2.0609  0.2600
   34SOL     vw  136   0.846   0.433   3.017 -0.0386 -0.0181 -0.0041
   35SOL     ow  137   1.383   0.929   3.993 -0.2097  0.2649 -0.3959
   35SOL     hw  138   1.347   0.851   3.950  3.1955 -4.2133  3.7113
   35SOL     hw  139   1.358   0.919   4.085  2.0532  2.9351  0.6518
   35SOL     vw  140   1.375   0.917   3.999  0.0870  0.1622 -0.0169
   36SOL     ow  141   0.099   2.185   5.026 -0.6453  0.2938 -0.7282
   36SOL     hw  142   0.080   2.117   4.962  1.8779 -0.9579 -0.2954
   36SOL     hw  143   0.070   2.266   4.985 -0.9180 -0.6960 -2.5939
   36SOL     vw  144   0.093   2.187   5.012  0.0743 -0.0086 -0.0336
   37SOL     ow  145   1.920   0.070   2.503  0.0780 -0.2163 -0.0390
   37SOL     hw  146   1.901  -0.001   2.564 -1.7057  1.4066  1.4075
   37SOL     hw  147   1.944   0.144   2.559  2.1982  0.3079 -1.5157
   37SOL     vw  148   1.920   0.071   2.518  0.0203 -0.0006 -0.0525
   38SOL     ow  149   2.223   2.194   1.919  0.2748  0.7096  0.0701
   38SOL     hw  150   2.254   2.281   1.944 -0.0947  0.9099 -0.1592
   38SOL     hw  151   2.198   2.203   1.827  1.9759 -0.1226 -0.5107
   38SOL     vw  152   2.224   2.207   1.910 -0.0291 -0.0120  0.0302
   39SOL     ow  153   0.436   1.224   4.733  0.7379 -0.1253  0.0501
   39SOL     hw  154   0.465   1.142   4.693  1.5341  1.6880 -3.4711
   39SOL     hw  155   0.377   1.263   4.668 -1.4380  1.1664  2.5675
   39SOL     vw  156   0.432   1.218   4.719 -0.0053 -0.0439  0.0148
   40SOL     ow  157   2.022   2.056   5.859  1.2310  0.5141  0.3308
   40SOL     hw  158   1.928   2.040   5.866  1.4478 -1.3566 -0.5813
   40SOL     hw  159   2.029   2.150   5.840 -0.5379  0.3960 -1.1912
   40SOL     vw  160   2.011   2.066   5.858  0.0088 -0.0108 -0.0510
   41SOL     ow  161   0.714   2.053   4.103  0.1135 -0.7117 -0.2768
   41SOL     hw  162   0.672   1.967   4.098 -0.0332 -0.8287  2.0859
   41SOL     hw  163   0.782   2.050   4.035 -1.0494 -2.0013 -1.4399
   41SOL     vw  164   0.718   2.041   4.093  0.0331 -0.0052 -0.0863
   42SOL     ow  165   1.550   1.532   5.562  1.0079 -0.1828  0.2814
   42SOL     hw  166   1.461   1.502   5.544  0.2734  1.7407  0.4440
   42SOL     hw  167   1.601   1.452   5.571  0.1661 -1.3828 -3.7215
   42SOL     vw  168   1.545   1.518   5.561  0.0117 -0.0095 -0.0267
   43SOL     ow  169   0.667   1.114   6.157 -0.4602  0.3573 -0.2578
   43SOL     hw  170   0.604   1.113   6.085 -1.2700  1.0134  0.4122
   43SOL     hw  171   0.619   1.154   6.230 -0.0741 -1.3507  1.0070
   43SOL     vw  172   0.652   1.119   6.157  0.0412 -0.0095 -0.0174
   44SOL     ow  173   1.859   0.460   1.084  1.0005 -0.1523  0.0290
   44SOL     hw  174   1.893   0.440   1.171 -1.7051 -0.4349  1.0927
   44SOL     hw  175   1.811   0.541   1.094  1.1215  0.1177 -1.3611
   44SOL     vw  176   1.857   0.468   1.097  0.0939 -0.0079  0.0079
   45SOL     ow  177   0.206   0.565   6.105 -0.3769  0.6350 -0.8085
   45SOL     hw  178   0.173   0.585   6.018 -2.0504  0.7577 -0.1915
   45SOL     hw  179   0.270   0.495   6.092  0.6355  1.7953 -2.2814
   45SOL     vw  180   0.210   0.558   6.092 -0.0659  0.0040 -0.0196
   46SOL     ow  181   2.028   0.078   4.302 -0.0805  0.2315  0.0496
   46SOL     hw  182   2.026   0.139   4.228  2.1221  0.4401  0.0687
   46SOL     hw  183   2.050   0.133   4.378  0.7590 -0.3905  0.2774
   46SOL     vw  184   2.031   0.093   4.302  0.0036 -0.0006  0.0002
   47SOL     ow  185   1.641   1.347   4.845 -0.0763  0.4223 -0.6891
   47SOL     hw  186   1.654   1.441   4.855  0.4940  0.0904  4.3260
   47SOL     hw  187   1.727   1.313   4.820  1.4434  0.9157  3.1922
   47SOL     vw  188   1.654   1.355   4.843  0.0205  0.0183  0.0799
   48SOL     ow  189   1.186   2.249   5.097 -0.6914 -0.4010 -0.5484
   48SOL     hw  190   1.166   2.198   5.018 -0.4340 -1.2447 -0.0880
   48SOL     hw  191   1.253   2.197   5.142  0.1117  0.7118 -0.4180
   48SOL     vw  192   1.192   2.235   5.093 -0.0152  0.0139  0.0453
   49SOL     ow  193   1.187   1.769   3.253  0.7746 -0.1258  0.7132
   49SOL     hw  194   1.113   1.783   3.194  0.4674  1.6951  1.4774
   49SOL     hw  195   1.236   1.698   3.212 -2.6993 -3.3227  1.4986
   49SOL     vw  196   1.184   1.762   3.239 -0.0302  0.0522  0.0145
   50SOL     ow  197   2.231   1.954   1.171 -0.0754 -0.7581  0.2176
   50SOL     hw  198   2.174   1.962   1.247 -0.7597 -0.9403 -0.2724
   50SOL     hw  199   2.185   2.000   1.101  0.3977 -0.8703 -0.1736
   50SOL     vw  200   2.218   1.961   1.172 -0.0018 -0.0725 -0.0387
   51SOL     ow  201   0.900   2.187   4.350 -0.2620  0.0596 -0.0785
   51SOL     hw  202   0.933   2.264   4.302 -2.4219  1.7500  0.9555
   51SOL     hw  203   0.934   2.197   4.438 -1.5822  0.5938  0.4008
   51SOL     vw  204   0.909   2.199   4.355  0.0668  0.0521  0.0334
   52SOL     ow  205   1.222   1.641   3.568  0.0086  0.7260 -0.2028
   52SOL     hw  206   1.311   1.611   3.585 -0.2016  0.0072 -0.3233
   52SOL     hw  207   1.186   1.661   3.654 -1.1126 -3.0572  0.3939
   52SOL     vw  208   1.229   1.640   3.582  0.0422 -0.0362 -0.0104
   53SOL     ow  209   0.866   0.901   2.286 -0.2186  0.4985  0.0986
   53SOL     hw  210   0.940   0.895   2.226 -1.3451  3.9679 -1.9311
   53SOL     hw  211   0.818   0.979   2.258 -2.4671  0.7144  3.8025
   53SOL     vw  212   0.869   0.910   2.275  0.0232  0.0194  0.0401
   54SOL     ow  213   0.032   0.971   0.342  0.1738 -0.1916 -0.4582
   54SOL     hw  214   0.059   0.887   0.304 -0.4902  0.6403 -2.9606
   54SOL     hw  215   0.082   1.036   0.293  0.9427  0.9034  1.6935
   54SOL     vw  216   0.042   0.968   0.330  0.0256  0.0181 -0.0209
   55SOL     ow  217   1.812   1.407   5.562 -1.0035 -0.1660  0.7818
   55SOL     hw  218   1.875   1.340   5.588 -0.0449  1.1943  2.1279
   55SOL     hw  219   1.811   1.469   5.635 -1.9344  1.2381 -0.3616
   55SOL     vw  220   1.820   1.406   5.575  0.0054  0.0317  0.0122
   56SOL     ow  221   1.078   0.376   3.570 -0.7658  0.1671 -0.0584
   56SOL     hw  222   1.025   0.296   3.562  2.7156 -2.3568 -0.2265
   56SOL     hw  223   1.081   0.393   3.664 -2.0370  0.5573 -0.0640
   56SOL     vw  224   1.072   0.368   3.581  0.0806 -0.0346 -0.0644
   57SOL     ow  225   1.570   1.153   3.803 -0.6549 -0.8869 -0.4376
   57SOL     hw  226   1.651   1.103   3.794 -0.3728 -0.2561 -1.5563
   57SOL     hw  227   1.594   1.243   3.780 -1.8722 -0.8735 -1.7986
   57SOL     vw  228   1.584   1.159   3.799  0.0418 -0.0372 -0.0015
   58SOL     ow  229   0.006   2.258   0.049 -0.9983 -0.0779  0.2459
   58SOL     hw  230  -0.030   2.346   0.042  0.6855  0.8372  2.1597
   58SOL     hw  231   0.038   2.252   0.138  1.1361 -1.7567 -0.5439
   58SOL     vw  232   0.005   2.268   0.060  0.0610  0.0025 -0.0752
   59SOL     ow  233   1.272   0.189   4.964 -0.8618 -0.1541  0.1388
   59SOL     hw  234   1.263   0.150   4.877 -1.8700  0.2435  0.0394
   59SOL     hw  235   1.360   0.227   4.965 -0.2361 -1.5677 -0.1015
   59SOL     vw  236   1.282   0.189   4.953 -0.0204  0.0034  0.0446
   60SOL     ow  237   0.308   2.134   3.683 -1.1385 -0.3260  0.3420
   60SOL     hw  238   0.302   2.174   3.770 -0.8879 -1.9403  1.1350
   60SOL     hw  239   0.299   2.208   3.623 -0.5639  0.9354  1.7266
   60SOL     vw  240   0.306   2.149   3.687 -0.0158 -0.0309 -0.0335
   61SOL     ow  241   2.130   1.863   6.036 -0.1276  0.5749  0.3074
   61SOL     hw  242   2.218   1.887   6.068  0.2460  1.7259 -1.4470
   61SOL     hw  243   2.071   1.916   6.089  0.4027  1.5432 -0.0330
   61SOL     vw  244   2.134   1.873   6.047 -0.0017  0.0187 -0.0412
   62SOL     ow  245   1.615   2.330   3.277  0.2688 -0.5892  0.1547
   62SOL     hw  246   1.626   2.420   3.307 -1.5108 -0.6586  1.2104
   62SOL     hw  247   1.703   2.293   3.276  0.8889  0.8140  0.8628
   62SOL     vw  248   1.628   2.337   3.281 -0.0417 -0.0094  0.0480
   63SOL     ow  249   1.800   0.992   3.768 -0.0688  0.7114  0.8262
   63SOL     hw  250   1.863   1.057   3.799 -2.3638  5.0623 -2.4498
   63SOL     hw  251   1.838   0.959   3.687  1.4345 -3.0237  2.8317
   63SOL     vw  252   1.814   0.996   3.761 -0.0351  0.0321 -0.0182
   64SOL     ow  253   0.525   1.504   4.806 -0.2058  0.1940  0.0591
   64SOL     hw  254   0.433   1.530   4.815 -0.0434  0.5740  0.6475
   64SOL     hw  255   0.573   1.586   4.799  0.6367  0.3736  4.7707
   64SOL     vw  256   0.519   1.518   4.806 -0.0348 -0.0098  0.0498
   65SOL     ow  257   1.889   2.249   2.231 -0.4933 -0.4975 -0.1226
   65SOL     hw  258   1.899   2.173   2.173  0.9703  1.3171 -2.3878
   65SOL     hw  259   1.795   2.269   2.228 -0.7874 -1.7652 -0.0413
   65SOL     vw  260   1.878   2.241   2.223 -0.0551 -0.0077  0.0263
   66SOL     ow  261   0.787   0.874   2.572 -0.1067 -0.3779  0.2137
   66SOL     hw  262   0.800   0.969   2.576  1.4970 -0.4876 -1.2334
   66SOL     hw  263   0.696   0.864   2.545 -0.7142  0.6935  1.7301
   66SOL     vw  264   0.777   0.886   2.569 -0.0181  0.0420  0.0610
   67SOL     ow  265   0.175   1.076   1.680 -0.5873  0.3205  0.0888
   67SOL     hw  266   0.087   1.106   1.657 -1.2070 -1.1107  0.4900
   67SOL     hw  267   0.161   1.010   1.748  0.6885 -0.9043 -0.7730
   67SOL     vw  268   0.162   1.071   1.686  0.0350 -0.0710 -0.0656
   68SOL     ow  269   1.946   0.205   2.203 -0.6104 -0.0960 -0.1866
   68SOL     hw  270   1.989   0.275   2.154 -1.2361  1.3120  1.1895
   68SOL     hw  271   1.853   0.229   2.202 -1.1164 -1.9379 -1.2872
   68SOL     vw  272   1.940   0.218   2.197  0.0212 -0.0499  0.0345
   69SOL     ow  273   2.080   0.674   2.699  0.3967  0.7626 -0.2816
   69SOL     hw  274   2.108   0.648   2.787  0.1036 -1.4172 -0.7899
   69SOL     hw  275   2.121   0.760   2.686  2.4365  0.0626  1.0427
   69SOL     vw  276   2.089   0.682   2.709  0.0393 -0.0185 -0.0234
   70SOL     ow  277   0.467   0.693   5.978  0.7731 -0.4730  0.6168
   70SOL     hw  278   0.535   0.625   5.982  1.7227  0.4619  0.5866
   70SOL     hw  279   0.487   0.743   5.899  0.3796  0.1485  0.9033
   70SOL     vw  280   0.479   0.690   5.968 -0.0884  0.0800  0.0296
   71SOL     ow  281   1.873   1.502   2.682  0.0947  0.2536 -0.6498
   71SOL     hw  282   1.888   1.569   2.748 -1.9719  0.3122 -0.1956
   71SOL     hw  283   1.823   1.434   2.727  1.0951 -1.0655 -1.4270
   71SOL     vw  284   1.868   1.502   2.696 -0.0826  0.0370 -0.0168
   72SOL     ow  285   1.332   1.142   0.186  0.2387 -0.4240  0.2429
   72SOL     hw  286   1.336   1.071   0.122 -0.6022  0.4898 -0.8520
   72SOL     hw  287   1.392   1.115   0.255 -0.5430 -2.5006  0.1713
   72SOL     vw  288   1.341   1.129   0.186 -0.0166  0.0665  0.0487
   73SOL     ow  289   2.175   1.516   4.306 -0.2239  0.1626 -0.4856
   73SOL     hw  290   2.160   1.425   4.332  0.7091  0.5503  1.6524
   73SOL     hw  291   2.231   1.511   4.229  1.3612 -1.0982  0.6836
   73SOL     vw  292   2.180   1.504   4.300  0.0082  0.0921  0.0024
   74SOL     ow  293   1.775   0.125   1.506 -0.4258 -0.1732  0.2707
   74SOL     hw  294   1.760   0.037   1.470  2.4686  0.5777 -3.2979
   74SOL     hw  295   1.864   0.147   1.479 -1.3532  4.2624  0.2063
   74SOL     vw  296   1.785   0.116   1.498 -0.0094  0.0295  0.0725
   75SOL     ow  297   0.694   1.726   5.435  0.4202 -0.0181 -0.3675
   75SOL     hw  298   0.718   1.780   5.360  0.1690  2.0850  0.9759
   75SOL     hw  299   0.777   1.709   5.481  0.6124 -1.5287 -1.1967
   75SOL     vw  300   0.708   1.731   5.432  0.0515  0.0626  0.0587
   76SOL     ow  301   2.054   1.919   1.881  0.1590 -0.1138 -1.0093
   76SOL     hw  302   2.015   1.834   1.902 -0.5610 -0.3793 -3.1795
   76SOL     hw  303   2.032   1.934   1.789  0.7096  2.2091 -0.8296
   76SOL     vw  304   2.046   1.909   1.871  0.0292  0.0421  0.0440
   77SOL     ow  305   0.585   2.300   5.052 -0.5227  0.3089  0.0084
   77SOL     hw  306   0.629   2.216   5.042 -1.4347 -0.4700  1.9396
   77SOL     hw  307   0.551   2.320   4.965 -0.0031 -1.1541 -0.5598
   77SOL     vw  308   0.586   2.291   5.039  0.0789  0.0471 -0.0236
   78SOL     ow  309   0.182   1.795   1.153 -0.2621  0.5688 -0.0148
   78SOL     hw  310   0.205   1.738   1.227  1.3054  0.2209 -0.7088
   78SOL     hw  311   0.150   1.735   1.086  2.5536  0.2167 -1.2058
   78SOL     vw  312   0.181   1.779   1.154 -0.0137  0.0117  0.0101
   79SOL     ow  313   1.418   1.161   4.725  0.5346 -0.2232  0.1309
   79SOL     hw  314   1.460   1.083   4.689  0.6691 -0.0904 -0.0030
   79SOL     hw  315   1.399   1.215   4.648  0.2595 -0.2139  0.2054
   79SOL     vw  316   1.421   1.158   4.710  0.0041 -0.0732 -0.0629
   80SOL     ow  317   0.945   0.529   0.083 -0.0298 -0.2979 -0.5134
   80SOL     hw  318   0.907   0.586   0.149  2.9196 -1.1067  2.1185
   80SOL     hw  319   0.982   0.588   0.018  1.6272  0.8732  1.3671
   80SOL     vw  320   0.945   0.544   0.083  0.0547 -0.0677 -0.0435
   81SOL     ow  321   2.162   2.308   2.366 -0.2930  0.1139 -0.5843
   81SOL     hw  322   2.235   2.336   2.311  0.3683 -1.0907 -0.3558
   81SOL     hw  323   2.187   2.338   2.454  1.0768 -2.2145 -0.0880
   81SOL     vw  324   2.175   2.316   2.371  0.0900 -0.1410  0.0252
   82SOL     ow  325   1.814   1.974   0.577 -0.3674  0.2706  1.0837
   82SOL     hw  326   1.761   1.957   0.655 -0.2678  1.0959  1.3342
   82SOL     hw  327   1.814   2.069   0.567 -1.7474  0.1309 -0.8673
   82SOL     vw  328   1.807   1.984   0.586  0.0091  0.0035 -0.0241
   83SOL     ow  329   2.164   1.261   4.320  0.1857 -0.1641  0.8592
   83SOL     hw  330   2.238   1.200   4.331  0.7349 -0.2935 -2.5028
   83SOL     hw  331   2.131   1.242   4.232 -2.0443  1.8826  1.1686
   83SOL     vw  332   2.169   1.250   4.310 -0.0266 -0.0768  0.0534
   84SOL     ow  333   1.099   1.359   1.799 -0.3429  0.0540 -0.0688
   84SOL     hw  334   1.094   1.264   1.810  1.8448 -0.6323 -3.4104
   84SOL     hw  335   1.152   1.390   1.872 -1.4604 -1.1655  1.3122
   84SOL     vw  336   1.106   1.351   1.810 -0.0067  0.1340  0.0098
   85SOL     ow  337   0.199   1.187   1.363 -0.2407 -0.2573 -0.2797
   85SOL     hw  338   0.168   1.266   1.407 -0.3826 -0.2158 -0.4495
   85SOL     hw  339   0.134   1.172   1.294  0.1057 -0.1836 -0.6241
   85SOL     vw  340   0.187   1.196   1.359 -0.0557  0.0432 -0.0638
   86SOL     ow  341   0.029   2.249   6.249  0.0607  0.0637  0.4352
   86SOL     hw  342   0.059   2.239   6.159  0.2219 -1.3140  0.6188
   86SOL     hw  343  -0.060   2.283   6.241 -0.6428 -1.8562 -0.3260
   86SOL     vw  344   0.021   2.252   6.236  0.0951  0.0415  0.0529
   87SOL     ow  345   0.287   0.011   5.142  0.0097 -0.2078 -0.2657
   87SOL     hw  346   0.236  -0.061   5.107  1.0662 -0.3245 -1.6548
   87SOL     hw  347   0.222   0.070   5.181 -1.0421 -0.9453 -0.8509
   87SOL     vw  348   0.272   0.009   5.143  0.0393 -0.0380 -0.0184
   88SOL     ow  349   0.570   1.797   1.287  0.0670  0.1462  0.1354
   88SOL     hw  350   0.522   1.736   1.343 -2.3662  1.6354 -0.2078
   88SOL     hw  351   0.613   1.856   1.348  2.2109 -1.6131  0.4637
   88SOL     vw  352   0.570   1.796   1.303  0.0342  0.0779 -0.0017
   89SOL     ow  353   1.788   2.040   2.081  0.5181 -0.0539 -0.1903
   89SOL     hw  354   1.782   2.000   1.994 -0.2315 -1.9584  0.6986
   89SOL     hw  355   1.732   1.986   2.137  1.8759  0.4521  1.7546
   89SOL     vw  356   1.780   2.028   2.077  0.0287 -0.0089  0.0046
   90SOL     ow  357   0.769   1.157   4.174 -0.5332 -0.9258  0.1700
   90SOL     hw  358   0.851   1.180   4.218 -0.1792 -0.2010 -0.8351
   90SOL     hw  359   0.737   1.081   4.222  0.8975 -1.4403  0.3711
   90SOL     vw  360   0.776   1.150   4.186 -0.0022 -0.0106 -0.0324
   91SOL     ow  361   0.117   1.975   3.513  0.0010 -0.1682  0.8641
   91SOL     hw  362   0.083   2.063   3.501  0.4900  0.1785  1.9887
   91SOL     hw  363   0.063   1.921   3.454 -1.0990  0.6839  1.0579
   91SOL     vw  364   0.106   1.979   3.503 -0.0045 -0.0387 -0.0006
   92SOL     ow  365   0.526   0.102   2.043 -0.4717 -1.1186 -0.2978
   92SOL     hw  366   0.556   0.185   2.080 -1.5404 -0.2294 -1.3495
   92SOL     hw  367   0.606   0.051   2.032  0.7429  1.0725 -2.8031
   92SOL     vw  368   0.540   0.106   2.047 -0.0067  0.0348 -0.0176
   93SOL     ow  369   0.280   1.204   2.251 -0.6156 -0.0173 -0.8706
   93SOL     hw  370   0.238   1.133   2.204 -1.4431 -0.1332  0.0189
   93SOL     hw  371   0.273   1.180   2.343  1.9295 -0.3419 -0.6792
   93SOL     vw  372   0.274   1.191   2.257  0.0269 -0.0203  0.0006
   94SOL     ow  373   1.411   1.570   1.459 -0.3368  0.4485 -0.0812
   94SOL     hw  374   1.419   1.596   1.550  1.5391  3.1748 -0.8972
   94SOL     hw  375   1.393   1.651   1.412 -1.4659 -0.8998 -2.1503
   94SOL     vw  376   1.410   1.584   1.464  0.0801  0.0342 -0.0506
   95SOL     ow  377   1.419   1.798   5.643  0.9404 -0.7355  0.1555
   95SOL     hw  378   1.354   1.836   5.583  1.7946  0.2814 -0.1645
   95SOL     hw  379   1.389   1.823   5.730  1.4997  0.7658 -0.0488
   95SOL     vw  380   1.407   1.807   5.646  0.0265 -0.0306 -0.0274
   96SOL     ow  381   0.834   0.829   0.787  0.4214  0.2886 -0.7293
   96SOL     hw  382   0.838   0.739   0.821  0.1764 -0.1951 -1.9433
   96SOL     hw  383   0.846   0.884   0.865  2.2290 -0.7892 -0.1735
   96SOL     vw  384   0.836   0.824   0.802 -0.0186  0.0358 -0.0090
   97SOL     ow  385   1.469   2.071   3.451  0.1329 -0.2229 -0.2392
   97SOL     hw  386   1.386   2.109   3.483 -0.1233  0.3507 -1.5435
   97SOL     hw  387   1.491   2.004   3.516 -1.4528 -0.5071  0.0467
   97SOL     vw  388   1.461   2.067   3.464  0.0101  0.0862 -0.0409
   98SOL     ow  389   2.258   1.149   6.203 -0.6486  0.5457 -0.2537
   98SOL     hw  390   2.331   1.165   6.263 -1.0405  0.3067  0.2963
   98SOL     hw  391   2.200   1.089   6.251 -1.5500  1.2774 -0.3889
   98SOL     vw  392   2.260   1.143   6.217 -0.0387 -0.0042  0.0172
   99SOL     ow  393   1.690   1.430   3.782 -0.3436  0.3135  0.0585
   99SOL     hw  394   1.624   1.498   3.767 -0.5509  0.7182  2.3624
   99SOL     hw  395   1.772   1.478   3.795 -0.4286  0.1434  1.3651
   99SOL     vw  396   1.692   1.446   3.782 -0.0380 -0.0226  0.0418
  100SOL     ow  397   1.171   0.595   5.166  0.0562 -0.3157 -0.1565
  100SOL     hw  398   1.211   0.621   5.249 -1.1908  0.1751  0.3270
  100SOL     hw  399   1.244   0.588   5.105  1.0631 -1.0976  1.0723
  100SOL     vw  400   1.186   0.598   5.169  0.0088 -0.0937  0.0787
  101SOL     ow  401   2.080   2.012   2.172 -0.1202  0.2187  0.6101
  101SOL     hw  402   2.125   2.011   2.257  0.5229 -1.1080  0.2891
  101SOL     hw  403   1.991   1.982   2.193 -0.3170  1.0434  0.9808
  101SOL     vw  404   2.074   2.008   2.186 -0.0838  0.0165  0.1429
  102SOL     ow  405   1.999   2.254   5.085 -0.1648 -0.4320 -0.1338
  102SOL     hw  406   2.072   2.309   5.112 -0.3874 -0.8502  1.4737
  102SOL     hw  407   2.021   2.167   5.119 -1.4644 -0.5272  0.5387
  102SOL     vw  408   2.011   2.250   5.093  0.0401 -0.0193 -0.0186
  103SOL     ow  409   0.052   0.509   3.337  0.2981  0.1829 -1.1391
  103SOL     hw  410   0.052   0.541   3.246  1.7476  0.6861 -0.9926
  103SOL     hw  411   0.139   0.532   3.370 -1.0525  2.4807  1.2513
  103SOL     vw  412   0.063   0.516   3.329  0.0341 -0.0856  0.0331
  104SOL     ow  413   1.083   0.367   3.830 -0.4589 -0.3500 -0.2310
  104SOL     hw  414   1.030   0.288   3.820 -0.2409 -0.7111  1.2052
  104SOL     hw  415   1.077   0.388   3.923 -0.3973  1.2576 -0.5581
  104SOL     vw  416   1.075   0.359   3.841  0.0195 -0.0436  0.0448
  105SOL     ow  417   0.883   1.729   1.205 -0.2803 -0.5911 -0.3034
  105SOL     hw  418   0.938   1.676   1.147 -0.2075 -0.8610  0.0132
  105SOL     hw  419   0.935   1.808   1.221  0.7815 -1.5663  1.3704
  105SOL     vw  420   0.897   1.732   1.199 -0.0182 -0.0184  0.0109
  106SOL     ow  421   0.576   1.152   3.945  0.5775 -0.3184 -0.2693
  106SOL     hw  422   0.528   1.142   3.863  1.4083 -1.2971 -0.6496
  106SOL     hw  423   0.518   1.117   4.012 -1.1372  2.6625 -0.0346
  106SOL     vw  424   0.562   1.146   3.943 -0.0442  0.0505 -0.0924
  107SOL     ow  425   1.188   1.441   1.525  0.4460  0.6710  0.0013
  107SOL     hw  426   1.260   1.484   1.477  1.0583 -1.3724 -1.0153
  107SOL     hw  427   1.183   1.354   1.487 -2.1949  0.5355  0.5138
  107SOL     vw  428   1.197   1.435   1.513  0.0476  0.0205  0.1078
  108SOL     ow  429   1.646   1.333   1.104 -0.1297  0.1457 -0.2195
  108SOL     hw  430   1.681   1.291   1.025  0.8607  1.7603 -0.6799
  108SOL     hw  431   1.592   1.405   1.071  0.4568  0.9603  0.5619
  108SOL     vw  432   1.644   1.337   1.089 -0.0827 -0.0246 -0.0566
  109poe    c31  433   1.353   1.524   1.995  0.5338 -0.1800 -0.0136
  109poe     o2  434   1.230   1.554   1.932  0.1870 -0.3939  0.5610
  109poe    c23  435   1.252   1.677   1.868  0.0315 -0.3585  0.5747
  109poe    c23  436   1.114   1.736   1.834  0.4576 -0.0065 -0.6033
  109poe     o2  437   1.060   1.658   1.730 -0.1954 -0.4076  0.0247
  109poe    c23  438   0.933   1.718   1.713 -0.1477 -0.1825  0.4595
  109poe    c23  439   0.849   1.625   1.625 -0.1642  0.2233  0.0449
  109poe     o2  440   0.918   1.502   1.615  0.1272  0.4046 -0.2027
  109poe    c23  441   0.836   1.437   1.520  0.2356 -0.1202  0.0576
  109poe    c23  442   0.865   1.288   1.493 -0.1736 -0.1551 -0.1981
  109poe     o2  443   0.797   1.193   1.572 -0.3027 -0.1357 -0.2857
  109poe    c31  444   0.847   1.160   1.699 -0.6135  0.2710 -0.0553
  110poe    c31  445   1.892   1.032   1.788 -0.1108 -0.0432  0.0577
  110poe     o2  446   1.830   0.965   1.680 -0.5711  0.1510  0.1980
  110poe    c23  447   1.776   1.055   1.587 -0.3868  0.2002  0.1381
  110poe    c23  448   1.690   0.986   1.480  0.0203 -0.2391  0.0918
  110poe     o2  449   1.647   1.060   1.367 -0.2748 -0.2446  0.1978
  110poe    c23  450   1.725   1.046   1.250 -0.2371 -0.0059  0.1941
  110poe    c23  451   1.865   1.108   1.236 -0.3870  0.2462 -0.2365
  110poe     o2  452   1.852   1.246   1.257  0.0455  0.2511  0.0201
  110poe    c23  453   1.981   1.304   1.260 -0.1505  0.6583  0.8012
  110poe    c23  454   1.958   1.446   1.205  0.7807  0.6545  0.3887
  110poe     o2  455   1.828   1.491   1.236  0.3117 -0.1030 -0.4522
  110poe    c31  456   1.836   1.631   1.237 -0.0350 -0.0833 -0.2518
  111poe    c31  457   2.107   1.965   0.840  0.0545  0.1219 -0.1912
  111poe     o2  458   2.080   2.021   0.966 -0.3732  0.1419 -0.2913
  111poe    c23  459   1.956   2.082   0.938 -0.4729  0.0149 -0.1290
  111poe    c23  460   1.883   2.122   1.068 -0.2904  0.5799 -0.1962
  111poe     o2  461   1.768   2.191   1.026  0.0252  0.9645 -0.4382
  111poe    c23  462   1.697   2.226   1.143  0.3027  0.0992 -0.0009
  111poe    c23  463   1.580   2.326   1.143  0.5022  0.3333  0.1388
  111poe     o2  464   1.622   2.452   1.094  0.1017  0.5433  0.3295
  111poe    c23  465   1.510   2.536   1.081 -0.2515 -0.0070 -0.2644
  111poe    c23  466   1.545   2.685   1.069  0.2220 -0.0662  0.3322
  111poe     o2  467   1.585   2.722   0.938  0.1377 -0.7720  0.1064
  111poe    c31  468   1.484   2.717   0.839  0.3554 -0.4757 -0.1286
  112poe    c31  469   2.073   2.110   3.931  0.6257  0.0144 -0.1175
  112poe     o2  470   1.979   2.094   4.035  0.1525  0.6282 -0.4403
  112poe    c23  471   1.898   2.209   4.031  0.3611  0.7951  0.0569
  112poe    c23  472   1.778   2.195   4.127  0.4025  0.3941  0.0523
  112poe     o2  473   1.835   2.196   4.256  0.3041 -0.4230  0.1097
  112poe    c23  474   1.747   2.138   4.349  0.0571 -0.0278  0.1264
  112poe    c23  475   1.790   2.195   4.486  0.3409 -0.0431  0.0457
  112poe     o2  476   1.929   2.178   4.502  0.4605  0.3209 -0.5822
  112poe    c23  477   1.945   2.234   4.631  0.6384 -0.4699 -0.2564
  112poe    c23  478   2.094   2.245   4.667  0.5635 -0.0398 -0.0694
  112poe     o2  479   2.163   2.281   4.549  0.0046  0.5589 -0.2185
  112poe    c31  480   2.299   2.259   4.576 -0.0555  0.5508  0.0888
  113poe    c31  481   1.343   2.280   6.129  0.0403 -0.5222 -0.7543
  113poe     o2  482   1.204   2.304   6.118  0.1180  0.2148 -0.1917
  113poe    c23  483   1.187   2.372   5.996  0.1425 -0.1071 -0.3757
  113poe    c23  484   1.039   2.405   5.965  0.0767  0.0906  0.1369
  113poe     o2  485   0.955   2.294   5.943  0.3055  0.0838 -0.7331
  113poe    c23  486   0.824   2.344   5.928  0.0831 -0.1586  0.3386
  113poe    c23  487   0.733   2.221   5.910 -0.3195  0.2566 -0.4652
  113poe     o2  488   0.783   2.145   6.017 -0.2451  0.2164 -0.5287
  113poe    c23  489   0.692   2.055   6.077  0.3438 -0.1182 -0.1250
  113poe    c23  490   0.739   1.910   6.094  0.1919 -0.1340  0.1871
  113poe     o2  491   0.862   1.915   6.164  0.4557  0.8587 -0.3217
  113poe    c31  492   0.906   1.783   6.187 -0.2851  0.5798 -0.4462
  114poe    c31  493   1.573   1.658   1.021  0.1020  0.1494 -0.5493
  114poe     o2  494   1.507   1.534   1.008  0.4460 -0.1025  0.0740
  114poe    c23  495   1.367   1.534   1.024  0.3078  0.1767 -1.0443
  114poe    c23  496   1.307   1.393   1.038  0.7282  0.1259  0.3369
  114poe     o2  497   1.342   1.314   1.150  0.4504  0.1354  0.4308
  114poe    c23  498   1.275   1.192   1.170  0.5649  0.0337  0.1922
  114poe    c23  499   1.179   1.196   1.290  0.0868 -0.1936 -0.1773
  114poe     o2  500   1.228   1.209   1.422 -0.2352 -0.0163 -0.0754
  114poe    c23  501   1.313   1.106   1.465  0.0411  0.1479 -0.2242
  114poe    c23  502   1.350   1.112   1.614 -0.5498  0.2346 -0.0769
  114poe     o2  503   1.450   1.209   1.639 -0.1816 -0.2280  0.2849
  114poe    c31  504   1.468   1.247   1.773 -0.2706 -0.6847  0.4279
  115poe    c31  505   1.231   1.719   5.301 -0.6015 -0.5539  1.0261
  115poe     o2  506   1.365   1.734   5.342 -0.4022  0.1671  0.1340
  115poe    c23  507   1.455   1.770   5.239 -0.4640 -0.3852 -0.1140
  115poe    c23  508   1.593   1.730   5.296 -0.1619  0.6210 -0.1322
  115poe     o2  509   1.636   1.795   5.414 -0.1242 -0.0767  0.2406
  115poe    c23  510   1.776   1.791   5.433 -0.0953  0.0539  0.0658
  115poe    c23  511   1.802   1.855   5.571  0.5781  0.0538 -0.0587
  115poe     o2  512   1.701   1.807   5.657  0.1853  0.3627 -0.3413
  115poe    c23  513   1.718   1.831   5.795 -0.2483 -0.1696 -0.1897
  115poe    c23  514   1.668   1.967   5.848  0.2279 -0.0075 -0.1487
  115poe     o2  515   1.761   2.060   5.796  0.5143  0.0951  0.5409
  115poe    c31  516   1.698   2.184   5.774 -0.2346 -0.3981 -0.1714
  116poe    c31  517   1.441   1.036   5.870  0.6724  1.0149 -0.2168
  116poe     o2  518   1.552   0.980   5.803 -0.2243 -0.4758 -0.5069
  116poe    c23  519   1.595   1.071   5.705  0.6416  0.6059  0.8438
  116poe    c23  520   1.748   1.061   5.687  0.4806  0.5162 -0.6559
  116poe     o2  521   1.792   0.932   5.723 -0.0008  0.4780 -0.1901
  116poe    c23  522   1.933   0.928   5.714 -0.0416  0.3953 -0.7889
  116poe    c23  523   1.996   0.789   5.734  0.2847  0.6861  0.2380
  116poe     o2  524   1.965   0.746   5.865 -0.2630  0.3522  0.0004
  116poe    c23  525   2.016   0.617   5.895 -0.4476  0.3333  0.2306
  116poe    c23  526   2.010   0.568   6.040  0.3426 -0.1963  0.0901
  116poe     o2  527   1.885   0.559   6.106  0.4368  0.1606  0.3224
  116poe    c31  528   1.895   0.541   6.245  0.6013 -0.1829  0.2670
  117poe    c31  529   0.675   0.553   3.342 -0.1012 -0.0666 -0.2861
  117poe     o2  530   0.592   0.523   3.232 -0.0501 -0.5194 -0.2029
  117poe    c23  531   0.522   0.643   3.213 -0.6370 -0.7861  0.2688
  117poe    c23  532   0.467   0.623   3.070 -0.1999 -0.0793 -0.0020
  117poe     o2  533   0.575   0.571   2.995  0.0065 -0.2373  0.4012
  117poe    c23  534   0.613   0.653   2.887  0.5311 -0.8367  0.1226
  117poe    c23  535   0.737   0.741   2.914 -0.1532  0.1384  0.1447
  117poe     o2  536   0.865   0.691   2.945  0.1361  0.5952 -0.2882
  117poe    c23  537   0.952   0.797   2.977 -0.2371  0.7650  0.1791
  117poe    c23  538   1.103   0.782   3.006 -0.3522 -0.1225  0.3573
  117poe     o2  539   1.155   0.699   3.107 -0.2057 -0.0345  0.3545
  117poe    c31  540   1.295   0.695   3.121 -0.1397  0.4930 -0.0968
  118poe    c31  541  -0.051   0.902   3.556 -0.6298  0.1336  0.2884
  118poe     o2  542  -0.084   0.833   3.674 -0.1902  0.2602  0.4898
  118poe    c23  543  -0.118   0.910   3.787 -0.0016  0.2779  0.5351
  118poe    c23  544  -0.122   0.810   3.904 -0.2211 -0.3740 -0.0209
  118poe     o2  545   0.002   0.787   3.968 -0.5580 -0.4286  0.6205
  118poe    c23  546   0.092   0.689   3.922  0.1559  0.6669 -0.3833
  118poe    c23  547   0.227   0.708   3.994  0.2710 -0.5064 -0.2645
  118poe     o2  548   0.314   0.814   3.962  0.1967 -0.3955 -0.0966
  118poe    c23  549   0.258   0.943   3.980  0.0143 -0.4929  0.0404
  118poe    c23  550   0.297   1.011   4.113  0.4201 -0.1452 -0.2529
  118poe     o2  551   0.430   1.057   4.113  0.2411  0.3830 -0.2938
  118poe    c31  552   0.455   1.140   4.223 -0.3180  0.5266 -0.2705
  119poe    c31  553   0.503   2.117   4.344 -0.1406 -0.3568  0.1772
  119poe     o2  554   0.619   2.039   4.359 -0.1509 -0.4792 -0.3802
  119poe    c23  555   0.611   1.916   4.428  0.2774  0.1116  0.7329
  119poe    c23  556   0.729   1.838   4.367  0.3024  0.2056  0.6605
  119poe     o2  557   0.842   1.920   4.355  0.3540  0.0479  0.0537
  119poe    c23  558   0.955   1.840   4.327 -0.0297 -0.3760 -0.2932
  119poe    c23  559   1.077   1.903   4.258 -0.1442 -0.1044 -0.2464
  119poe     o2  560   1.014   1.996   4.172 -0.4435 -0.5731 -0.5395
  119poe    c23  561   1.114   2.061   4.097 -0.1417 -0.4026  0.0011
  119poe    c23  562   1.059   2.159   3.992  0.4419  0.0740  0.1315
  119poe     o2  563   0.949   2.096   3.929  0.2594  0.3457  0.1782
  119poe    c31  564   0.904   2.191   3.835  0.4349  0.1658 -0.0860
  120poe    c31  565   1.447   0.044   4.713 -0.6836  0.2177 -0.2365
  120poe     o2  566   1.311   0.072   4.738 -0.6807  0.4170 -0.4324
  120poe    c23  567   1.237  -0.037   4.688  0.4903 -0.5356 -0.1625
  120poe    c23  568   1.089  -0.031   4.733  0.6067 -0.1649  0.1768
  120poe     o2  569   1.059  -0.011   4.869 -0.0173  0.5613 -0.0630
  120poe    c23  570   0.932   0.051   4.874 -0.3980 -0.2058 -0.1139
  120poe    c23  571   0.887   0.079   5.019 -0.1333 -0.1557 -0.0409
  120poe     o2  572   0.981   0.150   5.096 -0.0363  0.0344 -0.3326
  120poe    c23  573   0.949   0.155   5.234 -0.4128  0.3116 -0.4295
  120poe    c23  574   1.060   0.244   5.292  0.0722 -0.6157  0.0932
  120poe     o2  575   1.181   0.206   5.232  0.3651  0.1181  0.2146
  120poe    c31  576   1.295   0.252   5.302  0.2390  0.1679  0.3861
  121poe    c31  577   2.202   1.230   1.640 -0.1726  0.0138 -0.1939
  121poe     o2  578   2.250   1.103   1.602  0.4894  0.1708  0.1152
  121poe    c23  579   2.195   1.048   1.485  0.6055  0.2098  0.0421
  121poe    c23  580   2.253   0.908   1.458 -0.3816 -0.1559 -0.2155
  121poe     o2  581   2.388   0.934   1.428 -0.2462 -0.1539  0.3877
  121poe    c23  582   2.446   0.817   1.374 -0.1309  0.2125 -0.2971
  121poe    c23  583   2.584   0.847   1.313 -0.0936  0.6480 -0.0048
  121poe     o2  584   2.667   0.926   1.396  0.2650 -0.2178  0.4691
  121poe    c23  585   2.777   0.981   1.327  0.7870 -0.4280  1.1278
  121poe    c23  586   2.837   1.085   1.424  0.9651  0.5653 -0.0229
  121poe     o2  587   2.745   1.149   1.509  0.5897 -0.1417  0.1150
  121poe    c31  588   2.827   1.200   1.613 -0.1711  0.3630  0.4810
  122poe    c31  589   1.933   1.362   3.487  0.0013 -0.9557 -0.5328
  122poe     o2  590   2.061   1.389   3.435  0.2755 -0.6800  0.2603
  122poe    c23  591   2.156   1.357   3.533  0.0635 -0.5875  0.4957
  122poe    c23  592   2.283   1.308   3.461 -0.2355 -0.4863 -0.0995
  122poe     o2  593   2.293   1.392   3.348  0.0596  0.3661  0.5515
  122poe    c23  594   2.414   1.355   3.287 -0.3466 -0.2415  0.1050
  122poe    c23  595   2.382   1.393   3.141  0.1721  0.3521  0.1398
  122poe     o2  596   2.245   1.360   3.128  0.2464  0.0707  0.0693
  122poe    c23  597   2.205   1.409   3.002 -0.1046  0.1550  0.2122
  122poe    c23  598   2.054   1.387   3.020 -0.2088  0.5431 -0.1851
  122poe     o2  599   2.017   1.431   3.149  0.1689 -0.3187  0.2248
  122poe    c31  600   1.887   1.486   3.150  0.3375  0.1042 -0.4533
  123poe    c31  601   0.282   0.040   3.346 -0.0761 -0.0791 -0.0205
  123poe     o2  602   0.271  -0.094   3.386 -0.0035 -0.0996 -0.0699
  123poe    c23  603   0.364  -0.165   3.306  0.2024  0.1788 -0.0778
  123poe    c23  604   0.367  -0.318   3.320  0.2789  0.2049  0.1991
  123poe     o2  605   0.412  -0.360   3.447 -0.3556  0.1374  0.4018
  123poe    c23  606   0.455  -0.494   3.453 -0.0297  0.2087 -0.2199
  123poe    c23  607   0.465  -0.550   3.597  0.2131  0.2116 -0.2361
  123poe     o2  608   0.342  -0.543   3.665  0.1780 -0.1892 -0.2576
  123poe    c23  609   0.336  -0.588   3.798  0.0018 -0.7465 -0.4508
  123poe    c23  610   0.205  -0.550   3.868  0.2011 -0.0667 -0.4472
  123poe     o2  611   0.176  -0.425   3.809 -0.4376 -0.2155 -0.4525
  123poe    c31  612   0.050  -0.399   3.868 -0.5702 -0.0528 -0.8078
  124poe    c31  613   2.133   0.772   0.564 -0.3459  0.1497 -0.2290
  124poe     o2  614   2.150   0.907   0.527  0.2396  0.1437  0.0022
  124poe    c23  615   2.041   0.976   0.584  0.0401  0.5558 -0.8655
  124poe    c23  616   2.057   1.129   0.569  0.2912  0.6442  0.1916
  124poe     o2  617   2.186   1.165   0.612  0.5620 -0.7506  0.5938
  124poe    c23  618   2.206   1.304   0.598  0.0280 -0.7085  0.2377
  124poe    c23  619   2.351   1.348   0.625  0.1366 -1.1498  0.3874
  124poe     o2  620   2.439   1.301   0.525 -0.4460  0.6177 -1.0117
  124poe    c23  621   2.569   1.354   0.511  0.0579 -0.2277  0.3231
  124poe    c23  622   2.650   1.227   0.475  0.3108  0.0820 -0.2082
  124poe     o2  623   2.656   1.126   0.572 -0.3025  0.6312  0.4143
  124poe    c31  624   2.758   1.036   0.535 -0.3611  0.7837 -0.1132
  125poe    c31  625   0.371   1.636   2.302  0.4182  0.1388 -0.2699
  125poe     o2  626   0.357   1.524   2.217  0.0394 -0.2947  0.3579
  125poe    c23  627   0.438   1.539   2.102 -0.0474 -0.2284  0.3056
  125poe    c23  628   0.434   1.401   2.033 -0.4684 -0.1265  0.1244
  125poe     o2  629   0.295   1.382   2.023 -0.5085  0.0832  0.2775
  125poe    c23  630   0.257   1.297   1.917 -0.0028 -0.1429  0.2756
  125poe    c23  631   0.105   1.271   1.915 -0.0863  0.3649 -0.1147
  125poe     o2  632   0.072   1.237   2.048  0.1204  0.1296 -0.1221
  125poe    c23  633  -0.068   1.234   2.065  0.0623 -0.2453 -0.6312
  125poe    c23  634  -0.114   1.150   2.186  0.2531  0.2371 -0.2205
  125poe     o2  635  -0.073   1.200   2.311 -0.4592 -0.4725  0.3056
  125poe    c31  636  -0.056   1.095   2.404 -0.2903 -0.1661  0.6243
  126poe    c31  637   0.700   0.405   2.039  0.7647  0.4035  0.4232
  126poe     o2  638   0.592   0.351   2.112  0.4601  0.3010 -0.0994
  126poe    c23  639   0.467   0.415   2.102  0.1926 -0.3213 -0.8650
  126poe    c23  640   0.407   0.430   1.961 -0.5665 -0.2555 -0.5384
  126poe     o2  641   0.369   0.307   1.904 -0.3909 -0.5136 -0.0958
  126poe    c23  642   0.354   0.333   1.766  0.3377 -0.6337 -0.2005
  126poe    c23  643   0.243   0.239   1.718  0.1237 -0.0890 -0.7777
  126poe     o2  644   0.295   0.112   1.751 -0.2285  0.0330  0.2674
  126poe    c23  645   0.209   0.005   1.722 -0.1390  0.0425 -0.0381
  126poe    c23  646   0.287  -0.118   1.772  0.1441  0.0761 -0.3953
  126poe     o2  647   0.340  -0.093   1.901  0.0232 -0.1424 -0.3030
  126poe    c31  648   0.387  -0.210   1.964 -0.1193 -0.0322  0.0118
  127poe    c31  649   2.116   1.950   5.106  0.3100  0.2197 -0.1628
  127poe     o2  650   2.038   2.023   5.198  0.6423  0.4260 -0.0432
  127poe    c23  651   2.111   2.052   5.315  0.8771 -0.3650  0.0171
  127poe    c23  652   2.010   2.102   5.420  0.0135 -0.3409 -0.8015
  127poe     o2  653   1.943   2.221   5.386  0.3761  0.1673  0.2157
  127poe    c23  654   1.987   2.338   5.452  0.1966  0.4289 -0.1262
  127poe    c23  655   1.898   2.457   5.412 -0.3364 -0.0733 -0.4395
  127poe     o2  656   1.885   2.465   5.272 -0.2471 -0.4158 -0.4683
  127poe    c23  657   1.787   2.560   5.235 -0.4210 -0.6107 -0.5148
  127poe    c23  658   1.799   2.574   5.082 -0.1684  0.3477 -0.4144
  127poe     o2  659   1.782   2.439   5.044 -0.0176  0.2108 -0.0080
  127poe    c31  660   1.747   2.421   4.908 -0.3437  0.3104  0.0594
  128poe    c31  661   0.448   0.020   4.739 -0.3494 -0.3691  0.5831
  128poe     o2  662   0.502   0.099   4.843  0.5399 -0.2398  0.0346
  128poe    c23  663   0.495   0.239   4.831  0.3173 -0.2319  0.2345
  128poe    c23  664   0.448   0.321   4.952 -0.2744 -0.3748  0.1051
  128poe     o2  665   0.515   0.288   5.072 -0.5122 -0.1006  0.3161
  128poe    c23  666   0.454   0.328   5.192 -0.5470 -0.2080  0.3344
  128poe    c23  667   0.534   0.258   5.303 -0.1289 -0.3322 -0.0433
  128poe     o2  668   0.505   0.122   5.326 -0.0406 -0.4255 -0.4780
  128poe    c23  669   0.604   0.049   5.396 -0.0099  0.4048  0.3555
  128poe    c23  670   0.545  -0.086   5.441  0.7612 -0.0570 -0.0005
  128poe     o2  671   0.468  -0.127   5.330 -0.0453 -0.4104  0.6779
  128poe    c31  672   0.386  -0.235   5.367 -0.4293 -0.4740 -0.3292
  129poe    c31  673   0.255   1.274   5.296  0.2144 -0.2340  0.3625
  129poe     o2  674   0.164   1.305   5.192  0.3719 -0.0351  0.2841
  129poe    c23  675   0.216   1.301   5.061 -0.1786 -0.2779  0.0696
  129poe    c23  676   0.139   1.207   4.966  0.2062 -0.3226 -0.2043
  129poe     o2  677   0.118   1.073   5.003 -0.7083 -0.1845 -0.1843
  129poe    c23  678   0.230   0.990   4.979 -0.2994  0.1590  0.4788
  129poe    c23  679   0.227   0.848   5.039  0.3607  0.1263  0.4342
  129poe     o2  680   0.253   0.855   5.177 -0.3085  0.5083  0.5417
  129poe    c23  681   0.386   0.822   5.208 -0.3757  0.2317  0.5357
  129poe    c23  682   0.382   0.784   5.357 -0.9660  0.2551  0.5265
  129poe     o2  683   0.400   0.646   5.379 -0.3999  0.2240 -0.1239
  129poe    c31  684   0.423   0.618   5.515  0.1737 -0.5779 -0.3760
  130poe    c31  685   0.483   1.035   2.433 -0.2992 -0.3866 -0.0637
  130poe     o2  686   0.534   0.917   2.492  0.1994 -0.2256 -0.1643
  130poe    c23  687   0.489   0.799   2.429 -0.1373  0.1751 -0.6833
  130poe    c23  688   0.529   0.672   2.506 -0.1359  0.7913  0.3511
  130poe     o2  689   0.651   0.634   2.447 -0.7513 -0.2577 -0.2774
  130poe    c23  690   0.711   0.513   2.489 -0.4451 -0.2406 -0.6620
  130poe    c23  691   0.847   0.505   2.417  0.0295 -0.1559  0.2039
  130poe     o2  692   0.928   0.616   2.447  0.2113 -0.2880  0.2035
  130poe    c23  693   1.066   0.588   2.439  0.2354  0.0292 -0.6629
  130poe    c23  694   1.145   0.712   2.486  0.6121 -0.4532 -0.0073
  130poe     o2  695   1.065   0.823   2.452  0.2111 -0.6151  0.4006
  130poe    c31  696   1.128   0.938   2.502  0.2584 -0.2299 -0.5253
  131poe    c31  697   1.907   0.757   5.188 -0.4826  0.2318 -0.6919
  131poe     o2  698   2.045   0.780   5.211 -0.3909 -0.5364 -0.4192
  131poe    c23  699   2.102   0.674   5.283  0.2955  0.0452 -0.0925
  131poe    c23  700   2.246   0.722   5.311  0.0782  0.5640  0.1558
  131poe     o2  701   2.226   0.837   5.389  0.2682  0.6895  0.0202
  131poe    c23  702   2.345   0.894   5.440  0.2755  0.1222  0.6601
  131poe    c23  703   2.325   1.047   5.432  0.7118  0.1264 -0.6310
  131poe     o2  704   2.276   1.073   5.302 -0.5565 -0.3596 -0.2666
  131poe    c23  705   2.223   1.203   5.307  0.5415  0.0979 -0.1245
  131poe    c23  706   2.069   1.196   5.309  0.5712 -0.5550 -0.0232
  131poe     o2  707   2.034   1.061   5.289  0.2715 -0.5437  0.4287
  131poe    c31  708   1.894   1.051   5.309  0.1522 -0.5721 -0.3915
  132poe    c31  709   1.167   1.484   0.288 -0.0326  0.1052  0.0138
  132poe     o2  710   1.292   1.465   0.225  0.1080  0.0050  0.3199
  132poe    c23  711   1.388   1.433   0.323  0.4109  0.5582  0.2042
  132poe    c23  712   1.534   1.445   0.277  0.2668  0.0823 -0.3904
  132poe     o2  713   1.543   1.351   0.172 -0.0482 -0.4972  0.0996
  132poe    c23  714   1.658   1.378   0.095 -0.2114 -0.0432  0.0138
  132poe    c23  715   1.616   1.299  -0.031  0.7631  1.2173 -1.1314
  132poe     o2  716   1.489   1.352  -0.060 -0.1461 -0.6217 -0.6566
  132poe    c23  717   1.442   1.260  -0.155  0.1124 -0.6144 -0.7914
  132poe    c23  718   1.292   1.294  -0.159  0.1956 -0.1216  0.0996
  132poe     o2  719   1.231   1.286  -0.032  0.0825 -0.2906  0.0353
  132poe    c31  720   1.090   1.293  -0.037  0.0975  1.2005  0.9734
  133poe    c31  721   1.597   0.696   1.695 -0.1141  0.2592  0.3146
  133poe     o2  722   1.662   0.574   1.669  0.1378  0.6464 -0.9362
  133poe    c23  723   1.764   0.552   1.765 -0.3341  0.0679 -0.5593
  133poe    c23  724   1.849   0.424   1.748 -0.0208  0.2327 -0.2432
  133poe     o2  725   1.789   0.297   1.757  0.4660  0.0290  0.1815
  133poe    c23  726   1.781   0.255   1.891  0.2886  0.2279  0.2342
  133poe    c23  727   1.732   0.109   1.889  0.7925  0.0604 -1.0848
  133poe     o2  728   1.634   0.096   1.788 -0.3097  0.5423 -0.1091
  133poe    c23  729   1.549  -0.013   1.813  0.2246  0.2529  0.4847
  133poe    c23  730   1.480  -0.052   1.680  0.1432  0.7738  0.3710
  133poe     o2  731   1.441   0.072   1.626 -0.1669  0.5048 -0.0222
  133poe    c31  732   1.362   0.061   1.509 -0.0145 -0.4262 -0.0484
  134poe    c31  733   2.063   0.619   3.204 -1.0066 -0.5894  0.0213
  134poe     o2  734   2.095   0.514   3.293  0.0629  0.1795  0.5578
  134poe    c23  735   2.032   0.400   3.241  0.1726  0.0745  0.6554
  134poe    c23  736   2.035   0.298   3.357 -0.3497 -0.5628  0.1160
  134poe     o2  737   2.162   0.277   3.413 -0.2441  0.0212  0.0985
  134poe    c23  738   2.169   0.193   3.526 -0.1807 -0.6544 -0.3999
  134poe    c23  739   2.320   0.183   3.558 -0.2976  0.1161  0.4458
  134poe     o2  740   2.378   0.311   3.562 -0.3931  0.1694  0.1651
  134poe    c23  741   2.517   0.299   3.577 -0.3923  0.0021  0.0144
  134poe    c23  742   2.605   0.422   3.608  0.2188 -0.3904 -0.1273
  134poe     o2  743   2.598   0.510   3.499  0.2848 -0.0144  0.1721
  134poe    c31  744   2.648   0.639   3.526 -0.3229  0.3533 -0.4242
  135poe    c31  745   0.442   0.631   6.382 -0.1196 -0.3398  0.0862
  135poe     o2  746   0.367   0.719   6.302  0.3611 -0.0926 -0.0949
  135poe    c23  747   0.348   0.849   6.355  0.3643 -0.1209 -0.0234
  135poe    c23  748   0.261   0.929   6.256  0.0347 -0.2269  0.1782
  135poe     o2  749   0.247   0.869   6.129  0.1749  0.0448  0.0334
  135poe    c23  750   0.138   0.932   6.065  0.1548  0.0487  0.0724
  135poe    c23  751   0.138   0.907   5.913 -0.5973 -0.2524  0.1166
  135poe     o2  752   0.121   0.768   5.897 -0.5151 -0.2434 -0.0535
  135poe    c23  753   0.143   0.727   5.765 -0.1672 -0.1239 -0.0339
  135poe    c23  754   0.109   0.579   5.735  0.6520 -0.2632 -0.3019
  135poe     o2  755   0.148   0.491   5.837 -0.6201 -0.4504  0.0401
  135poe    c31  756   0.160   0.363   5.779  0.6028 -0.0929 -0.5358
  136poe    c31  757   1.603   1.628   0.680  0.2408  0.4784  0.0338
  136poe     o2  758   1.549   1.683   0.562 -0.1254  0.1199  0.0337
  136poe    c23  759   1.505   1.813   0.590  0.0768  0.1408  0.2640
  136poe    c23  760   1.483   1.893   0.459 -0.1301  0.3842  0.4452
  136poe     o2  761   1.604   1.920   0.393 -0.1099 -0.1321  0.2650
  136poe    c23  762   1.606   2.046   0.329 -0.3561 -0.2430  0.0393
  136poe    c23  763   1.704   2.043   0.210 -0.2511 -0.1439  0.1235
  136poe     o2  764   1.822   1.982   0.254 -0.3523 -0.4808 -0.0669
  136poe    c23  765   1.927   1.953   0.164  0.5506  0.6413  0.5877
  136poe    c23  766   2.049   1.900   0.242  0.4383  0.2266  0.4872
  136poe     o2  767   1.991   1.839   0.354 -0.1868 -0.0444  0.0201
  136poe    c31  768   2.102   1.785   0.421  0.1773  0.0112 -0.5368
  137poe    c31  769   0.055   1.921   6.442 -0.4433 -0.1555 -0.4507
  137poe     o2  770   0.143   2.024   6.403  0.1816 -0.7605 -0.6608
  137poe    c23  771   0.276   1.988   6.434  0.2484  0.0640  0.0475
  137poe    c23  772   0.376   2.092   6.380  0.0247  0.1528 -0.1959
  137poe     o2  773   0.317   2.214   6.418 -0.6224 -0.3292  0.3535
  137poe    c23  774   0.396   2.320   6.370 -0.0066 -0.6519  0.6560
  137poe    c23  775   0.351   2.460   6.413 -0.1572 -0.4286 -0.2093
  137poe     o2  776   0.213   2.487   6.403  0.0511  0.8597  0.0994
  137poe    c23  777   0.159   2.581   6.493 -0.6604  0.0223  0.5628
  137poe    c23  778   0.013   2.613   6.459 -0.5830 -0.2265 -0.0088
  137poe     o2  779  -0.070   2.514   6.517 -0.9616  0.0244 -0.1191
  137poe    c31  780  -0.205   2.544   6.490 -0.9041  0.4271  0.0344
  138poe    c31  781   1.731   1.176   2.435 -0.5921 -0.2157  0.2862
  138poe     o2  782   1.837   1.257   2.388 -0.5151 -0.0681  0.7067
  138poe    c23  783   1.785   1.346   2.293  0.4461 -0.4674 -0.2106
  138poe    c23  784   1.876   1.465   2.255 -0.1892  0.2149  0.3729
  138poe     o2  785   1.917   1.542   2.366 -0.6209  0.3413  0.4482
  138poe    c23  786   1.969   1.664   2.318  0.4563 -0.3093 -0.0811
  138poe    c23  787   2.025   1.725   2.448 -0.1983  0.2429 -0.0533
  138poe     o2  788   2.081   1.634   2.541  0.4057  0.4292 -0.2276
  138poe    c23  789   2.137   1.679   2.663 -0.1755  0.1887  0.1341
  138poe    c23  790   2.047   1.771   2.748 -0.4917 -0.4479  0.4887
  138poe     o2  791   1.943   1.713   2.824 -0.8783 -0.6705 -0.2027
  138poe    c31  792   1.864   1.805   2.897 -0.2553 -0.0494 -0.2968
  139poe    c31  793   0.791   1.630   0.437  0.2773 -0.1796 -0.4017
  139poe     o2  794   0.860   1.749   0.467 -0.3237  0.1529 -0.3240
  139poe    c23  795   0.990   1.721   0.513 -0.4641  0.5153  0.2970
  139poe    c23  796   1.045   1.846   0.584  0.3833  0.2327  0.1519
  139poe     o2  797   1.000   1.969   0.531  0.1452  0.2636  0.4200
  139poe    c23  798   1.022   2.080   0.615 -0.1179  0.2135  0.5559
  139poe    c23  799   1.026   2.211   0.534 -0.1497 -0.3901 -0.4435
  139poe     o2  800   0.899   2.272   0.531 -0.1699 -0.4022  0.1146
  139poe    c23  801   0.847   2.345   0.641  0.0177 -0.5984  0.3347
  139poe    c23  802   0.695   2.329   0.660 -0.0698  0.5358  0.6141
  139poe     o2  803   0.651   2.197   0.681 -0.2202  0.4946  0.0493
  139poe    c31  804   0.516   2.202   0.723 -0.0090  0.7103  0.7147
  140poe    c31  805   1.110   1.013   0.606  0.6510 -0.0210 -1.0037
  140poe     o2  806   1.015   0.912   0.583  0.0458  0.3085  0.0009
  140poe    c23  807   1.077   0.794   0.538 -0.4706 -0.1974  0.5886
  140poe    c23  808   0.965   0.709   0.474 -0.0353 -0.2667 -0.1018
  140poe     o2  809   0.847   0.701   0.552 -0.2836 -0.6913 -0.5173
  140poe    c23  810   0.745   0.624   0.493 -0.0266 -0.5907 -1.1039
  140poe    c23  811   0.607   0.637   0.559  0.6840  0.5239  0.2134
  140poe     o2  812   0.612   0.622   0.699  0.9289 -0.2229  0.1295
  140poe    c23  813   0.655   0.501   0.757 -0.0793 -0.5873  0.1333
  140poe    c23  814   0.698   0.519   0.904 -0.0943  0.6095  0.0034
  140poe     o2  815   0.822   0.586   0.901 -0.1857  0.8194  0.7626
  140poe    c31  816   0.887   0.595   1.026  0.7532  0.2367  0.3321
  141poe    c31  817   2.290   0.177   0.332  0.1322  0.3534 -0.0916
  141poe     o2  818   2.268   0.145   0.468  0.7212 -0.9166 -0.2769
  141poe    c23  819   2.148   0.071   0.476  0.5897 -0.6903 -0.1167
  141poe    c23  820   2.138  -0.012   0.606 -0.0663 -0.3296  0.0654
  141poe     o2  821   2.157   0.089   0.703  0.5127 -0.6418  0.2850
  141poe    c23  822   2.179   0.022   0.825 -0.2192 -0.4657  0.5212
  141poe    c23  823   2.228   0.109   0.942  0.3858 -0.3656  0.1983
  141poe     o2  824   2.332   0.186   0.886  0.6370 -0.7901  0.0777
  141poe    c23  825   2.394   0.273   0.978  0.4815 -0.5021 -0.0894
  141poe    c23  826   2.511   0.365   0.937  0.1955  0.1462  0.5218
  141poe     o2  827   2.484   0.468   0.845  0.0390 -0.2259  0.1478
  141poe    c31  828   2.606   0.519   0.795 -0.1411  0.0496 -0.0115
  142poe    c31  829   1.889   0.460   0.673 -0.7756 -0.0084 -0.5923
  142poe     o2  830   1.846   0.495   0.802 -0.0731  0.0358 -0.3651
  142poe    c23  831   1.798   0.627   0.787 -0.0494  0.1171  0.2531
  142poe    c23  832   1.776   0.716   0.911 -0.4049 -0.1536  0.3842
  142poe     o2  833   1.681   0.646   0.989 -0.6225 -0.2778  0.0122
  142poe    c23  834   1.619   0.728   1.085  0.6578  0.4823  0.2225
  142poe    c23  835   1.649   0.675   1.227  0.0981 -0.2334  0.0828
  142poe     o2  836   1.784   0.647   1.253  0.0686 -0.6622 -0.2175
  142poe    c23  837   1.796   0.622   1.391 -0.3964 -0.0474 -0.0595
  142poe    c23  838   1.945   0.602   1.425 -0.5037  0.1178  0.5225
  142poe     o2  839   2.009   0.490   1.368 -1.1800 -0.1770  0.3303
  142poe    c31  840   2.143   0.485   1.414 -0.8184 -0.2142 -0.6897
  143poe    c31  841   2.135   1.027   2.812 -0.2553  0.3344  0.0544
  143poe     o2  842   2.172   0.926   2.720 -0.5950  0.8953 -0.7066
  143poe    c23  843   2.306   0.886   2.738 -0.9022  0.0987 -0.1406
  143poe    c23  844   2.370   0.840   2.606  0.3519  0.1876  0.4303
  143poe     o2  845   2.316   0.725   2.547  0.1036  0.4487  0.1472
  143poe    c23  846   2.249   0.747   2.425 -0.0290  0.2705  0.1876
  143poe    c23  847   2.168   0.623   2.380  0.4702  0.1126 -0.2902
  143poe     o2  848   2.036   0.620   2.430  0.7352 -0.2184  0.3919
  143poe    c23  849   1.988   0.494   2.390  0.2573  0.1932 -0.3488
  143poe    c23  850   1.839   0.464   2.420  0.4438 -0.1448  0.2681
  143poe     o2  851   1.822   0.453   2.559  0.5070  0.6973  0.3494
  143poe    c31  852   1.696   0.394   2.581  0.8775 -0.3209 -0.1620
  144poe    c31  853   0.634   1.258   5.049  0.1141 -0.7414  0.0830
  144poe     o2  854   0.686   1.276   4.919  0.2676  0.3502  0.2884
  144poe    c23  855   0.794   1.365   4.907  0.3130  0.2710  0.0999
  144poe    c23  856   0.855   1.347   4.768 -0.3551 -0.2584 -0.1279
  144poe     o2  857   0.739   1.359   4.689 -0.1028  0.6978 -0.3598
  144poe    c23  858   0.762   1.355   4.550  0.5344 -0.0599 -0.2382
  144poe    c23  859   0.661   1.435   4.466  0.2722 -0.1179  0.0196
  144poe     o2  860   0.532   1.384   4.493 -0.0956  0.3904 -0.7210
  144poe    c23  861   0.417   1.445   4.439 -0.7007 -0.1170 -0.0261
  144poe    c23  862   0.285   1.418   4.513 -0.2224 -0.2349  0.8034
  144poe     o2  863   0.257   1.282   4.538 -0.6000 -0.1480  0.8718
  144poe    c31  864   0.120   1.262   4.562 -0.6457 -0.7604  0.1385
  145poe    c31  865   0.760   1.992   1.506  0.0127  0.2043 -0.3434
  145poe     o2  866   0.739   1.996   1.367 -0.5252 -0.1610 -0.2764
  145poe    c23  867   0.801   2.094   1.286  0.0771 -0.0068  0.3642
  145poe    c23  868   0.751   2.095   1.140  0.0666 -0.9392  0.3537
  145poe     o2  869   0.794   1.986   1.062  0.1015 -0.3193 -0.4997
  145poe    c23  870   0.743   1.983   0.930  0.1267  0.1108 -0.5199
  145poe    c23  871   0.756   1.836   0.887 -0.5094  0.1161 -0.7371
  145poe     o2  872   0.688   1.753   0.979  0.2614  0.2869  0.0007
  145poe    c23  873   0.603   1.675   0.898  0.1773  0.1515  0.2164
  145poe    c23  874   0.563   1.554   0.984  0.3276  0.2999  0.4936
  145poe     o2  875   0.592   1.585   1.119 -0.2803  0.2369  0.6426
  145poe    c31  876   0.566   1.469   1.194 -0.3987 -0.1913 -0.0513
  146poe    c31  877   2.335   1.523   1.029  0.8704  0.0241 -0.8127
  146poe     o2  878   2.407   1.638   0.989  0.5721  0.1290 -1.0447
  146poe    c23  879   2.393   1.679   0.855 -0.0960 -0.4460 -1.1584
  146poe    c23  880   2.492   1.789   0.813 -0.1530 -0.2202 -0.7038
  146poe     o2  881   2.461   1.904   0.888  0.1294 -0.4869 -0.1791
  146poe    c23  882   2.532   2.020   0.851 -0.7654  0.1010 -0.0898
  146poe    c23  883   2.505   2.140   0.943 -0.4048  0.2126 -0.1277
  146poe     o2  884   2.508   2.095   1.077  0.7676 -0.3340 -0.3219
  146poe    c23  885   2.554   2.182   1.177  0.1914 -0.5064  0.1003
  146poe    c23  886   2.558   2.115   1.316 -0.0506 -0.2787  0.2180
  146poe     o2  887   2.438   2.042   1.331 -0.7284  0.6801 -0.3916
  146poe    c31  888   2.420   2.019   1.469  0.0755 -0.3290 -0.4354
  147poe    c31  889   1.867   2.205   3.454 -0.3894 -0.5778  0.6621
  147poe     o2  890   1.800   2.186   3.332  0.0190  0.5384  0.2580
  147poe    c23  891   1.814   2.050   3.301 -0.0096  0.5437  0.2203
  147poe    c23  892   1.741   2.017   3.169  0.3935  0.2117  0.0758
  147poe     o2  893   1.602   2.039   3.181  0.4111  0.3063  0.1020
  147poe    c23  894   1.532   2.011   3.062 -0.0618  0.3764  0.3626
  147poe    c23  895   1.384   2.053   3.074 -0.0609  0.3852  0.3448
  147poe     o2  896   1.377   2.163   3.161 -0.3069 -0.0113  0.8313
  147poe    c23  897   1.246   2.207   3.190 -0.4829 -0.1084  0.1850
  147poe    c23  898   1.267   2.337   3.270  0.7054 -0.0598 -0.1868
  147poe     o2  899   1.341   2.306   3.386  0.6043 -0.1473 -0.1456
  147poe    c31  900   1.364   2.419   3.467 -0.0889 -0.1036 -0.0080
  148poe    c31  901   1.985   1.295   4.875  0.1109 -0.5456  0.1179
  148poe     o2  902   1.884   1.314   4.778  0.2593 -0.3276  0.0029
  148poe    c23  903   1.945   1.272   4.658 -0.4078 -0.9215 -0.1400
  148poe    c23  904   1.854   1.303   4.538 -0.3533 -0.8312 -0.1587
  148poe     o2  905   1.846   1.440   4.506  0.0528 -0.7692 -0.0024
  148poe    c23  906   1.777   1.472   4.387  0.7306  0.2000 -0.1444
  148poe    c23  907   1.787   1.623   4.360  0.3999  0.2689  0.1212
  148poe     o2  908   1.917   1.667   4.327  0.4580 -0.0279 -0.0493
  148poe    c23  909   1.909   1.797   4.273  0.3792 -0.1315 -0.2870
  148poe    c23  910   2.043   1.824   4.203  0.4888 -0.2088 -0.1079
  148poe     o2  911   2.144   1.793   4.297  0.3136 -0.0344  0.1386
  148poe    c31  912   2.261   1.859   4.254  0.0353  0.5748  0.3032
  149poe    c31  913   1.292   0.363   0.194 -0.3267  1.2358  0.1916
  149poe     o2  914   1.188   0.308   0.115  0.5431 -0.1691 -0.0135
  149poe    c23  915   1.247   0.275  -0.009 -0.3774 -0.7639 -0.3033
  149poe    c23  916   1.137   0.205  -0.090 -0.4612 -0.5669 -0.3607
  149poe     o2  917   1.040   0.302  -0.120 -0.0399  0.2641  0.8904
  149poe    c23  918   0.907   0.273  -0.157  0.1961  0.2454  0.0600
  149poe    c23  919   0.831   0.188  -0.054 -0.2605 -0.0219 -0.4877
  149poe     o2  920   0.859   0.242   0.074  0.1744 -0.1740 -0.5160
  149poe    c23  921   0.821   0.153   0.177  0.3183  0.4704  0.0954
  149poe    c23  922   0.829   0.234   0.308  0.7461 -0.1714  0.4686
  149poe     o2  923   0.946   0.311   0.291  0.4604  0.0430 -0.5674
  149poe    c31  924   1.004   0.356   0.411  0.0421  0.7341 -0.6231
  150poe    c31  925   0.523   0.397   4.014  0.0212  0.0162  0.3121
  150poe     o2  926   0.622   0.493   4.043  0.1021 -0.0098  0.1267
  150poe    c23  927   0.720   0.486   3.943 -0.4554  0.4222 -0.4569
  150poe    c23  928   0.843   0.557   4.003 -0.4062  0.0921 -0.1623
  150poe     o2  929   0.793   0.659   4.086 -0.2316 -0.0287  0.0939
  150poe    c23  930   0.875   0.690   4.196 -0.4811 -0.2445  0.3398
  150poe    c23  931   0.824   0.604   4.313  0.2197  0.3931  1.1296
  150poe     o2  932   0.683   0.611   4.315  0.1516 -0.3941  0.1152
  150poe    c23  933   0.628   0.520   4.408  0.1139 -0.4078  0.0799
  150poe    c23  934   0.474   0.521   4.398  0.0992 -0.1101  0.3174
  150poe     o2  935   0.414   0.495   4.273  0.2479 -1.0473  0.4343
  150poe    c31  936   0.273   0.502   4.283  0.2221 -0.0128 -0.4684
  151poe    c31  937   2.192   0.970   6.489 -0.0021  0.0036  0.7358
  151poe     o2  938   2.135   0.953   6.361  0.4107  0.1371  0.5310
  151poe    c23  939   1.999   0.915   6.356  0.2599  0.6867  0.4281
  151poe    c23  940   1.958   0.945   6.211  0.3897  0.1172  0.2734
  151poe     o2  941   1.947   1.079   6.170 -0.4315 -0.1534 -0.4396
  151poe    c23  942   1.857   1.159   6.244  0.1932  0.5215 -0.3844
  151poe    c23  943   1.847   1.309   6.211 -0.1019  0.3206 -1.2556
  151poe     o2  944   1.977   1.363   6.214 -0.0885  0.2562 -0.0353
  151poe    c23  945   1.971   1.502   6.240  0.1982  0.1921  0.3877
  151poe    c23  946   2.113   1.558   6.219  0.0508  0.5127  0.2448
  151poe     o2  947   2.216   1.462   6.215 -0.1873  0.2376  0.5861
  151poe    c31  948   2.346   1.517   6.212 -0.0119 -0.1973 -0.0962
  152poe    c31  949   0.989   1.803   5.608 -0.1917  0.2965 -0.3520
  152poe     o2  950   0.878   1.723   5.644  0.1543 -0.0868 -0.1249
  152poe    c23  951   0.840   1.723   5.779  0.3220  0.3459 -0.0753
  152poe    c23  952   0.743   1.608   5.812  0.4732  0.3742  0.4847
  152poe     o2  953   0.619   1.602   5.745  0.0765  0.1230  1.2285
  152poe    c23  954   0.523   1.701   5.775 -0.0639  0.3299  0.1194
  152poe    c23  955   0.393   1.672   5.696  0.0082 -0.2352  0.2071
  152poe     o2  956   0.434   1.687   5.562 -0.2097 -0.2832  0.1353
  152poe    c23  957   0.325   1.732   5.484 -0.1510  0.2272  0.3386
  152poe    c23  958   0.381   1.719   5.341 -0.1082  0.0978  0.3664
  152poe     o2  959   0.439   1.593   5.318 -0.0622  0.1201  0.3591
  152poe    c31  960   0.502   1.576   5.193 -0.7191 -0.2327  0.0673
  153poe    c31  961   1.536   1.246   4.175 -0.3225 -0.6897  0.3266
  153poe     o2  962   1.454   1.221   4.063 -0.1471 -0.8029  0.2242
  153poe    c23  963   1.401   1.344   4.020  0.2153 -0.6058  0.3415
  153poe    c23  964   1.268   1.329   3.945  0.2270  0.3003  0.1239
  153poe     o2  965   1.294   1.238   3.840  0.0732 -0.2462  0.5595
  153poe    c23  966   1.176   1.202   3.772  0.3831 -0.4881  0.1430
  153poe    c23  967   1.195   1.084   3.676  0.1326 -0.2107 -0.2492
  153poe     o2  968   1.226   0.971   3.754  0.1670  0.3419  0.5413
  153poe    c23  969   1.206   0.853   3.679 -0.4633  0.8550 -0.1197
  153poe    c23  970   1.194   0.731   3.772  0.1629  1.1045  0.2983
  153poe     o2  971   1.298   0.732   3.867 -0.4373  0.2171  0.9858
  153poe    c31  972   1.323   0.596   3.893  0.4898  0.2093  0.1370
  154poe    c31  973   0.770   1.632   2.557  0.5887  0.2268  0.7055
  154poe     o2  974   0.696   1.724   2.634  0.4944  0.0649  0.8092
  154poe    c23  975   0.560   1.697   2.608  0.5174  0.7082 -0.0353
  154poe    c23  976   0.461   1.778   2.692  0.8084 -0.0908  1.0978
  154poe     o2  977   0.478   1.918   2.702  0.1204  0.0380  0.5409
  154poe    c23  978   0.351   1.966   2.741  0.0820  0.0733  0.3693
  154poe    c23  979   0.339   2.116   2.710 -0.1608 -0.0647 -0.2191
  154poe     o2  980   0.470   2.158   2.681 -0.1304  0.0069  0.0265
  154poe    c23  981   0.460   2.292   2.637  0.6410 -0.1050 -0.5081
  154poe    c23  982   0.596   2.359   2.610  0.1989  0.9134 -0.2193
  154poe     o2  983   0.667   2.272   2.525 -0.4264  0.4492 -0.2664
  154poe    c31  984   0.804   2.285   2.496 -0.3493 -0.2994 -0.2678
  155poe    c31  985   0.888   0.844   5.335 -0.8263  1.1337 -0.0458
  155poe     o2  986   0.989   0.825   5.238 -0.5639  0.1324  0.4216
  155poe    c23  987   1.062   0.945   5.233  0.1445 -0.2963  0.3151
  155poe    c23  988   1.166   0.932   5.121  0.0031  0.8136  0.0421
  155poe     o2  989   1.107   0.864   5.012  0.0531  0.7906  0.0285
  155poe    c23  990   1.189   0.841   4.899 -0.3033  0.1415 -0.1012
  155poe    c23  991   1.091   0.753   4.819 -0.4977  0.3954 -0.1433
  155poe     o2  992   1.037   0.662   4.912  0.1170  0.0576 -0.1161
  155poe    c23  993   0.929   0.590   4.857  0.0059  0.0967  0.0527
  155poe    c23  994   0.871   0.502   4.970  0.6351 -0.0593  0.2553
  155poe     o2  995   0.873   0.589   5.082  0.2594 -0.1953  0.3674
  155poe    c31  996   0.754   0.556   5.150 -0.0345  0.3888  0.1444
  156poe    c31  997   1.574   0.893   4.496 -0.1350  0.3011 -0.1214
  156poe     o2  998   1.569   0.964   4.618  0.0776  0.4744 -0.2121
  156poe    c23  999   1.694   0.948   4.681  0.0784  0.1976 -0.2824
  156poe    c23 1000   1.656   0.926   4.828 -0.2622  0.0804 -0.3861
  156poe     o2 1001   1.617   1.044   4.894  0.2627  0.3365 -0.5282
  156poe    c23 1002   1.555   1.020   5.018  0.4090  0.3064 -0.4599
  156poe    c23 1003   1.529   1.150   5.097  0.2750  0.1844 -0.3027
  156poe     o2 1004   1.443   1.227   5.016 -0.2717 -0.2438 -0.1375
  156poe    c23 1005   1.362   1.317   5.088 -0.4118  0.1217 -0.7424
  156poe    c23 1006   1.269   1.387   4.988 -0.1066  0.0008 -1.1105
  156poe     o2 1007   1.356   1.402   4.877  0.2391 -0.1350 -0.8584
  156poe    c31 1008   1.338   1.520   4.803 -0.2110  0.3285 -0.0225
  157poe    c31 1009   1.083   1.778   2.630  0.8582  0.2359  0.7079
  157poe     o2 1010   1.135   1.905   2.599 -0.1100  0.3949 -0.3584
  157poe    c23 1011   1.158   1.994   2.706  0.1375 -0.1843  0.0758
  157poe    c23 1012   1.177   2.136   2.651  0.0538 -0.2682 -0.1698
  157poe     o2 1013   1.279   2.129   2.553  0.0640 -0.1906 -0.1654
  157poe    c23 1014   1.278   2.238   2.464 -0.2305 -0.0352  0.0226
  157poe    c23 1015   1.345   2.193   2.332 -0.5086 -0.0407 -0.1179
  157poe     o2 1016   1.300   2.059   2.331 -0.0363 -0.2013 -0.3693
  157poe    c23 1017   1.342   1.991   2.216 -0.3393  0.7566 -1.0631
  157poe    c23 1018   1.265   1.858   2.223  0.5622  0.2705 -0.0347
  157poe     o2 1019   1.261   1.809   2.355 -0.2154 -0.0178 -0.1580
  157poe    c31 1020   1.293   1.672   2.346  0.0885 -0.0478  1.1465
  158poe    c31 1021   2.221   2.232   2.699 -0.5384 -0.4180 -0.8048
  158poe     o2 1022   2.209   2.342   2.612 -0.1939  0.3244  0.0713
  158poe    c23 1023   2.257   2.452   2.686 -0.0829  0.3688 -0.0649
  158poe    c23 1024   2.194   2.589   2.660  0.1021  0.6071  0.6991
  158poe     o2 1025   2.060   2.608   2.701 -0.3241  0.2293 -0.4691
  158poe    c23 1026   2.058   2.662   2.831 -0.3816  0.0629 -0.4010
  158poe    c23 1027   1.934   2.740   2.878 -0.0283  0.4691 -0.1338
  158poe     o2 1028   1.907   2.868   2.823 -0.1302  0.3899 -0.2695
  158poe    c23 1029   1.786   2.920   2.873 -0.3178  0.0424 -0.3575
  158poe    c23 1030   1.751   3.056   2.809 -0.2032  0.2294 -0.0266
  158poe     o2 1031   1.756   3.029   2.670  0.9931  0.4476 -0.0370
  158poe    c31 1032   1.713   3.145   2.602  0.5531  0.1741 -0.2307
  159poe    c31 1033   0.977   0.712   1.900 -0.6329 -0.2499 -0.4211
  159poe     o2 1034   1.022   0.584   1.863  0.0715 -0.2442  0.3780
  159poe    c23 1035   1.109   0.520   1.954  0.2079  0.1084  0.4957
  159poe    c23 1036   1.176   0.423   1.855 -0.4887 -0.0904  0.2167
  159poe     o2 1037   1.065   0.378   1.781 -0.1915  0.3266 -0.4875
  159poe    c23 1038   1.115   0.270   1.705 -0.0314 -0.2868  0.4814
  159poe    c23 1039   0.996   0.216   1.623  0.3046 -0.0967 -0.1372
  159poe     o2 1040   0.926   0.329   1.577 -0.1639 -0.3818 -0.1235
  159poe    c23 1041   0.837   0.279   1.479 -0.8440  0.0470  0.2609
  159poe    c23 1042   0.766   0.369   1.377 -0.4083 -0.0480 -0.1318
  159poe     o2 1043   0.719   0.475   1.457  0.5006  0.0830  0.2397
  159poe    c31 1044   0.618   0.542   1.384  0.3546  0.0100  0.3732
  160poe    c31 1045   1.922   0.967   4.232  0.2521  0.4799 -0.4073
  160poe     o2 1046   1.881   0.847   4.170  0.8591  0.1665 -0.2057
  160poe    c23 1047   1.762   0.849   4.094  0.4018  0.0599  0.5031
  160poe    c23 1048   1.727   0.713   4.030  0.2510  0.4817 -0.3181
  160poe     o2 1049   1.720   0.610   4.126 -0.2865  0.6336 -0.1904
  160poe    c23 1050   1.694   0.482   4.073 -0.1498  0.3148  0.4980
  160poe    c23 1051   1.706   0.384   4.191  0.1627 -0.2778 -0.0191
  160poe     o2 1052   1.826   0.381   4.264  0.0766  0.0213  0.1372
  160poe    c23 1053   1.823   0.361   4.404 -0.4922 -0.6265  0.0353
  160poe    c23 1054   1.960   0.385   4.470 -0.3972  0.2620 -0.4736
  160poe     o2 1055   2.054   0.280   4.476  0.0314  0.6588 -0.1916
  160poe    c31 1056   2.173   0.348   4.444  0.1818  0.7097  0.4558
  161poe    c31 1057   0.444   1.667   6.291 -0.3378  0.2607 -0.6339
  161poe     o2 1058   0.567   1.607   6.255 -0.4409 -0.3092 -0.0430
  161poe    c23 1059   0.595   1.503   6.347 -0.3088 -0.2748 -0.0440
  161poe    c23 1060   0.740   1.459   6.324  0.0387  0.9516 -0.2704
  161poe     o2 1061   0.770   1.378   6.212 -0.4771  0.9763 -0.4298
  161poe    c23 1062   0.891   1.431   6.163 -0.1227  0.1733 -0.4519
  161poe    c23 1063   0.939   1.364   6.033 -0.1329 -0.4308 -0.1458
  161poe     o2 1064   0.952   1.224   6.044 -0.2009 -0.3725  0.8009
  161poe    c23 1065   0.997   1.179   5.918 -0.0320  0.3602  0.5942
  161poe    c23 1066   1.001   1.025   5.914  0.5344  0.3814  0.1509
  161poe     o2 1067   0.888   0.978   5.984  0.2373  0.2575 -0.4128
  161poe    c31 1068   0.897   0.837   5.982  0.1437  0.2336  0.4165
  162poe    c31 1069   1.126   1.977   3.648  0.5444 -0.3900  0.1335
  162poe     o2 1070   1.082   1.869   3.570  0.1755 -0.2115  0.0905
  162poe    c23 1071   0.942   1.867   3.555  0.2752 -0.4476 -0.8740
  162poe    c23 1072   0.888   1.728   3.515  0.1595 -0.5569 -0.3427
  162poe     o2 1073   0.940   1.671   3.397 -0.0995 -0.0170 -0.7212
  162poe    c23 1074   0.906   1.534   3.402 -0.4863  0.1026  0.3377
  162poe    c23 1075   0.993   1.477   3.288 -0.3400  0.2673  0.3655
  162poe     o2 1076   1.126   1.494   3.332 -0.2572 -0.5626  0.4543
  162poe    c23 1077   1.205   1.378   3.317 -0.2469 -0.5849  0.6865
  162poe    c23 1078   1.354   1.393   3.353 -0.2194  0.3385  0.1935
  162poe     o2 1079   1.385   1.435   3.484 -0.2997 -0.0282  0.3287
  162poe    c31 1080   1.501   1.370   3.531 -0.0323  0.6107  0.5597
  163lim     li 1081   0.653   0.422   3.099 -0.2629 -1.2822 -1.2719
  164lim     li 1082   0.848   0.864   0.599  1.7574  0.2594 -0.5774
  165lim     li 1083   0.131   2.213   6.410 -0.6907  0.6936  0.3079
  166lim     li 1084   1.279   1.942   2.484 -0.0156 -1.4635  0.2750
  167lim     li 1085   1.769   0.393   0.932  0.2231 -1.2820  1.4011
  168lim     li 1086   1.078   1.499   1.675 -0.1107 -1.6058 -0.1891
  169lim     li 1087   2.228   0.453   3.423  0.8301  0.7071 -0.2098
  170lim     li 1088   0.996   0.345   0.110 -1.0473  0.0527  0.3833
  171lim     li 1089   1.984   1.477   2.530  0.2122 -0.8656  0.0219
  172lim     li 1090   2.057   2.242   4.385  1.4362  1.3892  0.0859
  173lim     li 1091   0.857   1.106   6.124  0.2563  0.2645  0.0379
  174lim     li 1092   0.583   1.320   4.780 -0.7249 -1.7790  0.1059
  175lim     li 1093   1.998   0.042   2.311 -1.4777  0.4956  0.0030
  176lim     li 1094   0.854   1.939   0.424  0.4089  1.1696  0.0496
  177lim     li 1095   1.431   1.111   3.921 -0.0336  1.3461  0.5554
  178lim     li 1096   2.308   0.203   0.670 -1.1718  0.0849  0.0891
  179lim     li 1097   2.141   0.934   5.236  0.4667 -1.0383  0.6798
  180lim     li 1098   1.658   0.840   5.829  0.6003  0.6120 -0.4058
  181lim     li 1099   0.941   0.475   1.717  1.7359 -0.1692  0.2153
  182lim     li 1100   0.886   0.788   2.437 -0.1216 -1.3508 -0.2413
  183lim     li 1101   1.848   2.325   5.162  0.0068  1.5059 -1.5405
  184lim     li 1102   1.564   1.713   5.554 -1.4066 -1.4654  1.0749
  185lim     li 1103   0.375   0.119   1.934 -0.2378 -0.8965 -0.5181
  186lim     li 1104   1.924   0.575   2.656 -0.1595  0.1255  1.1326
  187lim     li 1105   2.133   1.900   5.849  0.3374 -1.2226  1.6888
  188lim     li 1106   1.478   1.266   4.857 -0.7131  0.5934 -0.3925
  189lim     li 1107   0.322   0.711   6.135 -1.5355  0.1731  0.3897
  190lim     li 1108   2.150   1.434   3.259 -0.1426 -1.1893  0.9047
  191lim     li 1109   0.218   1.371   2.183 -1.3596 -0.6076  0.7983
  192lim     li 1110   1.148   0.103   5.095 -0.3450  0.1475  0.1562
  193lim     li 1111   2.299   0.983   0.517  0.2187 -0.2430  0.0247
  194lim     li 1112   0.590   2.043   2.665 -0.5076  0.4159 -1.3480
  195lim     li 1113   0.253   1.072   1.500 -1.0613  0.4421 -0.5653
  196lim     li 1114   0.755   1.177   3.979  0.5866 -0.5045 -0.3516
  197lim     li 1115   0.092   1.950   1.179 -0.7308  0.6994 -0.9253
  198lim     li 1116   1.508   2.172   3.279 -1.1210  1.1208  0.3830
  199lim     li 1117   2.087   1.656   4.410 -1.1171 -0.2263 -0.4735
  200lim     li 1118   2.145   1.307   6.196  0.2429 -0.0840  0.5607
  201lim     li 1119   0.468   0.022   5.183 -0.3045 -0.4208  1.0714
  202lim     li 1120   0.560   1.602   5.466 -0.2110  0.6335  0.7824
  203lim     li 1121   1.032   0.702   5.096 -0.6124 -0.2711 -0.5591
  204lim     li 1122   1.154   0.488   3.432  0.0091  0.0353 -0.0768
  205lim     li 1123   0.698   1.740   1.160  0.8837 -0.5304  0.0791
  206lim     li 1124   1.342   1.318   0.093  0.0986 -0.1294  0.5559
  207lim     li 1125   1.807   1.879   0.401  0.0600 -0.2721 -0.8440
  208lim     li 1126   0.951   2.115   6.021 -1.1609  0.1481  0.4289
  209lim     li 1127   1.667   0.197   1.648 -0.7336 -0.3486 -1.2744
  210lim     li 1128   1.134   1.681   3.409 -0.1247  0.4456 -1.1177
  211lim     li 1129   1.876   0.674   4.243 -0.5040 -0.2818  1.5505
  212lim     li 1130   0.268   1.951   3.624 -0.1919 -1.3859  1.2833
  213lim     li 1131   2.158   2.030   2.013 -0.5255 -0.7700  0.3247
  214lim     li 1132   0.777   2.077   4.274 -1.2882  0.2642  0.0030
  215lim     li 1133   1.704   1.345   1.279  0.3224  0.3486 -0.6586
  216lim     li 1134   0.610   0.626   4.158  0.0235  0.3922  0.1859
  217ntf    cn1 1135  -0.003   1.613   4.957  0.2541  0.3361 -0.1253
  217ntf    sn2 1136   0.149   1.691   4.895  0.7353 -0.4571  0.0347
  217ntf    nn3 1137   0.107   1.750   4.755 -0.7877  0.2435  0.7593
  217ntf    sn2 1138   0.098   1.899   4.707  0.3303 -0.0171 -0.3070
  217ntf    cn1 1139   0.247   1.925   4.606  0.4618 -0.0085 -0.1112
  217ntf    fn4 1140  -0.024   1.507   4.881 -0.2220  0.4930 -0.2154
  217ntf    fn4 1141  -0.004   1.578   5.085 -0.5639  0.3561 -0.1208
  217ntf    fn4 1142  -0.116   1.679   4.943 -0.2190 -0.2394  0.8456
  217ntf    on5 1143   0.182   1.789   4.996  0.1954  0.4192 -0.6273
  217ntf    on5 1144   0.244   1.585   4.872  0.5265 -0.6536  0.0805
  217ntf    on5 1145   0.109   2.003   4.806  0.4814 -0.3973  0.0773
  217ntf    on5 1146  -0.011   1.920   4.614  0.0811  0.5930  0.1228
  217ntf    fn4 1147   0.252   1.834   4.510 -0.4378  0.3869 -0.5535
  217ntf    fn4 1148   0.244   2.045   4.550  0.1453  0.1957  0.3318
  217ntf    fn4 1149   0.359   1.910   4.675  0.0492  0.5357  0.7021
  218ntf    cn1 1150   0.237   2.029   2.312  0.4245 -0.5779 -0.2497
  218ntf    sn2 1151   0.105   1.912   2.358 -0.0278 -0.0672 -0.2409
  218ntf    nn3 1152   0.117   1.815   2.235  0.1392 -0.3984  0.0377
  218ntf    sn2 1153   0.029   1.802   2.106  0.4259 -0.1216 -0.1856
  218ntf    cn1 1154   0.158   1.750   1.989  0.4387 -0.5063 -0.0019
  218ntf    fn4 1155   0.197   2.106   2.212  0.4348 -0.4024 -0.1200
  218ntf    fn4 1156   0.278   2.099   2.416 -0.0727 -0.0330 -0.4133
  218ntf    fn4 1157   0.344   1.966   2.267  0.6670  0.0222 -0.5278
  218ntf    on5 1158   0.161   1.856   2.478  0.1497  0.2346 -0.1806
  218ntf    on5 1159  -0.018   1.988   2.359  0.2046  0.3144 -0.3180
  218ntf    on5 1160  -0.012   1.929   2.050 -0.2679 -0.1668  0.2114
  218ntf    on5 1161  -0.066   1.694   2.111  0.1289  0.1442 -0.0719
  218ntf    fn4 1162   0.160   1.620   1.965  0.0038 -0.4446 -0.3801
  218ntf    fn4 1163   0.145   1.792   1.864 -0.4032  0.0152  0.2512
  218ntf    fn4 1164   0.280   1.790   2.022  0.2866 -0.4557  0.5022
  219ntf    cn1 1165   1.282   0.685   6.149 -0.0269  0.0047 -0.1563
  219ntf    sn2 1166   1.254   0.759   6.312 -0.0561  0.2451 -0.2711
  219ntf    nn3 1167   1.401   0.761   6.368 -0.0937  0.6377 -0.1833
  219ntf    sn2 1168   1.472   0.859   6.467  0.4005 -0.0915  0.1897
  219ntf    cn1 1169   1.532   0.752   6.601  0.3486  0.0295  0.3100
  219ntf    fn4 1170   1.330   0.562   6.159 -0.1616  0.0013  0.4742
  219ntf    fn4 1171   1.177   0.690   6.069 -0.0610  0.2291 -0.0973
  219ntf    fn4 1172   1.367   0.764   6.085  0.3037  0.0571  0.3355
  219ntf    on5 1173   1.212   0.891   6.272  0.0365  0.1982 -0.5186
  219ntf    on5 1174   1.156   0.669   6.367  0.0596  0.1956 -0.1450
  219ntf    on5 1175   1.381   0.949   6.534  0.1214 -0.2638  0.0390
  219ntf    on5 1176   1.593   0.917   6.413  0.0690  0.3799 -0.0541
  219ntf    fn4 1177   1.433   0.690   6.665  0.1203 -0.5961 -0.6175
  219ntf    fn4 1178   1.612   0.656   6.557  0.1281  0.2175 -0.5116
  219ntf    fn4 1179   1.607   0.821   6.685  1.1088  0.0093 -0.3422
  220ntf    cn1 1180   0.160   0.274   2.279  0.1012 -0.5765  0.0738
  220ntf    sn2 1181   0.095   0.187   2.133 -0.1746 -0.2054 -0.0269
  220ntf    nn3 1182   0.019   0.308   2.068  0.4505 -0.1760 -0.7255
  220ntf    sn2 1183  -0.118   0.311   1.991  0.0982  0.1213 -0.1022
  220ntf    cn1 1184  -0.088   0.424   1.852  0.0936  0.2755  0.0218
  220ntf    fn4 1185   0.227   0.381   2.242 -0.7453  0.0462  0.3212
  220ntf    fn4 1186   0.065   0.316   2.362 -0.6041  0.0351 -1.0196
  220ntf    fn4 1187   0.249   0.199   2.342  0.1650 -0.5545  0.0091
  220ntf    on5 1188   0.213   0.156   2.055  0.3955  0.4459  0.5621
  220ntf    on5 1189   0.017   0.079   2.189 -0.4187 -0.2535 -0.4579
  220ntf    on5 1190  -0.223   0.375   2.066 -0.3506 -0.1703 -0.4751
  220ntf    on5 1191  -0.145   0.185   1.926  0.3329 -0.0464  0.1215
  220ntf    fn4 1192   0.007   0.378   1.772 -0.6848 -0.5440 -0.4534
  220ntf    fn4 1193  -0.195   0.434   1.775  0.3093 -0.1829 -0.3432
  220ntf    fn4 1194  -0.061   0.545   1.896 -0.2087  0.5215 -0.4559
  221ntf    cn1 1195   0.169   0.209   4.032 -0.0204  0.0621 -0.0406
  221ntf    sn2 1196   0.058   0.085   3.957 -0.5734  0.3455  0.3018
  221ntf    nn3 1197  -0.045   0.179   3.885 -0.3734  0.3427  0.0091
  221ntf    sn2 1198  -0.192   0.217   3.928 -0.4377  0.0608  0.0390
  221ntf    cn1 1199  -0.185   0.396   3.896 -0.0300  0.0569  0.0937
  221ntf    fn4 1200   0.248   0.172   4.132 -0.2455 -0.2113  0.0396
  221ntf    fn4 1201   0.255   0.258   3.944 -0.2245  0.7235  0.1240
  221ntf    fn4 1202   0.101   0.304   4.094  0.2450  0.3629 -0.2084
  221ntf    on5 1203   0.144   0.027   3.857 -0.5060  0.3523  0.3551
  221ntf    on5 1204   0.022   0.003   4.070 -0.3090  0.2864  0.3452
  221ntf    on5 1205  -0.216   0.217   4.070  0.8090 -0.1834  0.2623
  221ntf    on5 1206  -0.295   0.169   3.840 -0.0881  0.2269 -0.4644
  221ntf    fn4 1207  -0.291   0.434   3.827  0.1423  0.5165  0.0842
  221ntf    fn4 1208  -0.191   0.469   4.006 -0.1084 -0.3838  0.3877
  221ntf    fn4 1209  -0.078   0.429   3.825  0.3563 -0.3109  0.4947
  222ntf    cn1 1210   1.531   1.744   2.749 -0.1771  0.0831 -0.0422
  222ntf    sn2 1211   1.573   1.783   2.576  0.1142  0.3538  0.0888
  222ntf    nn3 1212   1.710   1.858   2.593  0.2396  0.1307  0.0649
  222ntf    sn2 1213   1.761   1.978   2.505 -0.0322  0.2034  0.0074
  222ntf    cn1 1214   1.668   2.116   2.579  0.0055  0.2422 -0.0180
  222ntf    fn4 1215   1.406   1.704   2.763 -0.0363 -0.3044  0.1085
  222ntf    fn4 1216   1.605   1.649   2.803 -0.1494  0.2587  0.2327
  222ntf    fn4 1217   1.551   1.855   2.818  0.9237 -0.3082  0.2950
  222ntf    on5 1218   1.558   1.659   2.504 -0.6013  0.1894  0.5087
  222ntf    on5 1219   1.469   1.878   2.546 -0.4937 -0.1062  0.7000
  222ntf    on5 1220   1.747   1.984   2.362  0.3103 -0.0665 -0.0375
  222ntf    on5 1221   1.894   2.014   2.544 -0.0760  0.0363  0.3185
  222ntf    fn4 1222   1.545   2.120   2.531 -0.0738 -0.4604  0.1176
  222ntf    fn4 1223   1.649   2.096   2.708 -0.2190  0.2655 -0.0470
  222ntf    fn4 1224   1.724   2.235   2.566  0.0040  0.2314 -0.1212
  223ntf    cn1 1225   0.725   0.338   5.732  0.1614 -0.1119  0.2532
  223ntf    sn2 1226   0.728   0.402   5.902  0.5227 -0.1514  0.2633
  223ntf    nn3 1227   0.635   0.293   5.965  0.0714  0.0051 -0.1269
  223ntf    sn2 1228   0.517   0.310   6.068  0.0738 -0.0948 -0.1075
  223ntf    cn1 1229   0.414   0.164   6.035  0.2272 -0.1080 -0.5338
  223ntf    fn4 1230   0.837   0.378   5.675 -0.1693  0.1698 -0.2014
  223ntf    fn4 1231   0.725   0.206   5.740 -0.3206 -0.1022  0.4189
  223ntf    fn4 1232   0.629   0.385   5.655 -0.1386  0.6511  1.0737
  223ntf    on5 1233   0.861   0.387   5.955  0.4418  0.1388  0.5512
  223ntf    on5 1234   0.671   0.534   5.888  0.5170 -0.2254 -0.4163
  223ntf    on5 1235   0.424   0.418   6.043  0.2809  0.0904 -0.0757
  223ntf    on5 1236   0.556   0.285   6.204  0.0914 -0.3964 -0.1666
  223ntf    fn4 1237   0.309   0.166   6.116  0.0900  0.3677 -0.7221
  223ntf    fn4 1238   0.378   0.159   5.907 -0.3489  0.5113 -0.4018
  223ntf    fn4 1239   0.482   0.054   6.063 -0.2918 -0.3739 -0.2916
  224ntf    cn1 1240   0.307   1.938   6.030 -0.1778 -0.3307 -0.3461
  224ntf    sn2 1241   0.161   2.036   5.985  0.0402  0.1496 -0.0238
  224ntf    nn3 1242   0.187   2.040   5.830  0.0792  0.5988 -0.0068
  224ntf    sn2 1243   0.082   2.052   5.714  0.0518 -0.1070 -0.0620
  224ntf    cn1 1244   0.063   2.233   5.721  0.1370 -0.1115  0.2761
  224ntf    fn4 1245   0.322   1.929   6.162  0.1265  0.5669 -0.3116
  224ntf    fn4 1246   0.296   1.819   5.972  0.6414 -0.2527 -0.6704
  224ntf    fn4 1247   0.418   1.991   5.981 -0.1255  0.1043  0.2336
  224ntf    on5 1248   0.054   1.958   6.041  0.4947  0.0713  0.7467
  224ntf    on5 1249   0.206   2.158   6.046  0.1763  0.0226  0.1313
  224ntf    on5 1250  -0.046   1.991   5.743 -0.2258  0.4730 -0.0327
  224ntf    on5 1251   0.136   2.029   5.583  0.5920 -0.8450  0.2867
  224ntf    fn4 1252   0.176   2.295   5.691 -0.0703 -0.2597 -0.8249
  224ntf    fn4 1253  -0.028   2.281   5.638  0.4175  0.7956  0.4812
  224ntf    fn4 1254   0.019   2.270   5.840 -0.1022 -1.1639  0.5244
  225ntf    cn1 1255   0.729   1.684   3.063 -0.0519  0.1597  0.4046
  225ntf    sn2 1256   0.881   1.784   3.051  0.2053 -0.2748 -0.0012
  225ntf    nn3 1257   0.833   1.892   2.948  0.1748 -0.1553  0.1378
  225ntf    sn2 1258   0.731   2.010   2.972  0.0895 -0.1300 -0.3421
  225ntf    cn1 1259   0.854   2.138   3.009 -0.0417 -0.0422 -0.2104
  225ntf    fn4 1260   0.637   1.712   2.972  0.2522  0.0205  0.0498
  225ntf    fn4 1261   0.758   1.556   3.052  0.0212  0.1663  0.5175
  225ntf    fn4 1262   0.676   1.700   3.183  0.1883 -0.8477  0.6506
  225ntf    on5 1263   0.916   1.840   3.179  0.4064 -0.4195  0.0059
  225ntf    on5 1264   0.974   1.693   2.990  0.0592  0.2108 -0.9695
  225ntf    on5 1265   0.634   2.008   3.079 -0.2591  0.2421 -0.6468
  225ntf    on5 1266   0.689   2.065   2.845  0.2465  0.7330 -0.0213
  225ntf    fn4 1267   0.923   2.157   2.897  0.4876  0.2840  0.1669
  225ntf    fn4 1268   0.810   2.258   3.042  0.0443  0.0437 -0.4066
  225ntf    fn4 1269   0.951   2.112   3.095 -0.0274  0.4513 -0.0780
  226ntf    cn1 1270   1.790   0.168   0.402  0.4157 -0.3479 -0.5165
  226ntf    sn2 1271   1.743   0.051   0.532 -0.3925  0.3393 -0.1782
  226ntf    nn3 1272   1.588   0.067   0.522 -0.3842  0.5343  0.0008
  226ntf    sn2 1273   1.481   0.020   0.627  0.3978 -0.4876  0.3458
  226ntf    cn1 1274   1.338   0.121   0.579  0.0904 -1.0853 -0.0097
  226ntf    fn4 1275   1.754   0.293   0.428 -0.8371 -0.8081  0.0084
  226ntf    fn4 1276   1.916   0.172   0.360  0.4082 -0.0050 -0.5137
  226ntf    fn4 1277   1.725   0.131   0.292 -0.0506 -0.3016 -0.2578
  226ntf    on5 1278   1.799  -0.067   0.470  0.2932  0.5099  0.1017
  226ntf    on5 1279   1.792   0.090   0.662  0.1613 -0.4976 -0.1288
  226ntf    on5 1280   1.506   0.052   0.765 -0.7628  0.5597  0.3259
  226ntf    on5 1281   1.430  -0.110   0.591 -0.5128  0.0962 -0.5295
  226ntf    fn4 1282   1.359   0.251   0.590  0.4770 -1.1541  0.0540
  226ntf    fn4 1283   1.292   0.104   0.456 -0.2938  0.1661 -0.0472
  226ntf    fn4 1284   1.234   0.099   0.658  0.2836 -0.2954  0.4760
  227ntf    cn1 1285   0.927   1.066   3.370  0.0225  0.0846  0.2989
  227ntf    sn2 1286   0.833   0.932   3.450 -0.1567  0.0577  0.0443
  227ntf    nn3 1287   0.863   0.979   3.597  0.2752 -0.0436 -0.0088
  227ntf    sn2 1288   0.758   1.029   3.702  0.0731 -0.1474 -0.1601
  227ntf    cn1 1289   0.724   0.884   3.806 -0.3595  0.2009  0.1890
  227ntf    fn4 1290   0.928   1.050   3.239 -1.0339  0.0544  0.2817
  227ntf    fn4 1291   0.874   1.186   3.388 -0.2327  0.0228 -0.0251
  227ntf    fn4 1292   1.048   1.070   3.423  0.1285 -0.5086  0.1117
  227ntf    on5 1293   0.700   0.941   3.395  0.0031  0.1211 -0.3391
  227ntf    on5 1294   0.905   0.813   3.410 -0.2464  0.1080 -0.2753
  227ntf    on5 1295   0.627   1.067   3.654  0.0378 -0.4125 -0.2781
  227ntf    on5 1296   0.817   1.111   3.804 -0.6194 -0.2516  0.3340
  227ntf    fn4 1297   0.826   0.802   3.824 -0.2957  0.3635  0.5864
  227ntf    fn4 1298   0.685   0.921   3.927  0.0154 -0.6773  0.5914
  227ntf    fn4 1299   0.622   0.811   3.765 -0.4865  0.0183  0.8146
  228ntf    cn1 1300   0.242   1.372   0.049  0.1247  0.1493  0.0563
  228ntf    sn2 1301   0.120   1.239   0.036  0.2613  0.0050  0.2484
  228ntf    nn3 1302   0.005   1.295   0.127 -0.1678 -0.7431  0.1809
  228ntf    sn2 1303  -0.142   1.331   0.085  0.2574  0.2361 -0.5266
  228ntf    cn1 1304  -0.130   1.512   0.087  0.0192  0.2484  0.0968
  228ntf    fn4 1305   0.190   1.481  -0.005 -0.3154 -0.1338 -0.0884
  228ntf    fn4 1306   0.276   1.401   0.174  0.5454  0.5271 -0.1418
  228ntf    fn4 1307   0.354   1.347  -0.018 -0.0433  0.3865 -0.3160
  228ntf    on5 1308   0.086   1.216  -0.102 -0.1105  0.0453  0.3315
  228ntf    on5 1309   0.188   1.128   0.099 -0.2905 -0.7630 -0.4829
  228ntf    on5 1310  -0.235   1.314   0.194  0.1657 -0.0173 -0.6421
  228ntf    on5 1311  -0.181   1.300  -0.051 -0.5141  0.3736 -0.3407
  228ntf    fn4 1312  -0.011   1.546   0.038  0.1287  0.4783  0.5205
  228ntf    fn4 1313  -0.226   1.571   0.018 -0.0589  0.7754  0.6492
  228ntf    fn4 1314  -0.141   1.558   0.210 -0.6072  0.4915 -0.0449
  229ntf    cn1 1315   1.736   0.684   3.467  0.3067  0.3872 -0.2751
  229ntf    sn2 1316   1.788   0.570   3.599 -0.1326  0.0965 -0.3498
  229ntf    nn3 1317   1.802   0.441   3.510 -0.2618 -0.1640  0.0083
  229ntf    sn2 1318   1.693   0.328   3.500 -0.3726 -0.0703  0.1536
  229ntf    cn1 1319   1.727   0.220   3.642 -0.5256 -0.4149 -0.0692
  229ntf    fn4 1320   1.706   0.807   3.506  0.7151  0.3379  0.2033
  229ntf    fn4 1321   1.819   0.700   3.366  0.3822  0.2444 -0.2356
  229ntf    fn4 1322   1.625   0.629   3.418  0.6201  0.0828 -0.6498
  229ntf    on5 1323   1.913   0.624   3.645  0.1522 -0.6126 -0.2733
  229ntf    on5 1324   1.681   0.573   3.695  0.1867 -0.4980  0.0282
  229ntf    on5 1325   1.732   0.243   3.391 -0.2012  0.1959  0.0070
  229ntf    on5 1326   1.553   0.362   3.511 -0.3788  0.0614 -0.3298
  229ntf    fn4 1327   1.731   0.285   3.758  0.2576 -0.2416 -0.1871
  229ntf    fn4 1328   1.631   0.132   3.665 -0.3930 -0.5317  0.0442
  229ntf    fn4 1329   1.844   0.159   3.632 -0.3820 -0.1718  0.1121
  230ntf    cn1 1330   2.156   1.559   5.573  0.6881 -0.1496  0.2193
  230ntf    sn2 1331   2.108   1.598   5.744 -0.1483 -0.2840  0.0203
  230ntf    nn3 1332   2.161   1.470   5.818  0.2542 -0.2282 -0.1732
  230ntf    sn2 1333   2.106   1.329   5.859 -0.2248 -0.0170 -0.0939
  230ntf    cn1 1334   2.246   1.236   5.791 -0.4020 -0.5130  0.2150
  230ntf    fn4 1335   2.279   1.513   5.555  0.5726 -0.3533 -0.0703
  230ntf    fn4 1336   2.084   1.456   5.531  0.2624  0.1320  0.2449
  230ntf    fn4 1337   2.135   1.655   5.484 -0.7348 -0.5416  0.0978
  230ntf    on5 1338   2.183   1.718   5.769  0.6443 -0.7115 -0.2744
  230ntf    on5 1339   1.964   1.609   5.751 -0.1535 -0.0365 -0.4717
  230ntf    on5 1340   1.993   1.291   5.777 -0.5704 -0.2615  0.4825
  230ntf    on5 1341   2.108   1.291   5.998  0.3093 -0.1070 -0.1276
  230ntf    fn4 1342   2.299   1.297   5.687  0.1263 -0.0322  0.7592
  230ntf    fn4 1343   2.345   1.225   5.879 -0.1272 -0.4683 -0.0885
  230ntf    fn4 1344   2.219   1.111   5.757 -0.1764 -0.3638 -0.5203
  231ntf    cn1 1345   0.487   0.042   1.419  0.1168 -0.0884  0.3759
  231ntf    sn2 1346   0.425   0.187   1.329 -0.1269 -0.4486 -0.0364
  231ntf    nn3 1347   0.536   0.212   1.221 -0.0420 -0.0093  0.1503
  231ntf    sn2 1348   0.563   0.140   1.084  0.3217  0.1524  0.1374
  231ntf    cn1 1349   0.744   0.126   1.076  0.2762  0.0410 -0.7346
  231ntf    fn4 1350   0.612   0.059   1.459  0.0835  0.0717  0.4147
  231ntf    fn4 1351   0.421   0.018   1.532  0.4108 -0.0839  0.5507
  231ntf    fn4 1352   0.476  -0.071   1.352  1.1867  0.1389 -0.2063
  231ntf    on5 1353   0.292   0.159   1.280  0.0102 -0.2008 -0.5626
  231ntf    on5 1354   0.436   0.277   1.441  0.5811 -0.2197 -0.2867
  231ntf    on5 1355   0.529   0.214   0.965  0.4478 -0.5527 -0.3386
  231ntf    on5 1356   0.511   0.006   1.092 -0.4091  0.4351  0.1556
  231ntf    fn4 1357   0.788   0.027   1.000 -0.1019 -0.4375 -0.3293
  231ntf    fn4 1358   0.798   0.238   1.030  0.1911  0.3244 -0.1491
  231ntf    fn4 1359   0.799   0.109   1.195 -0.4187  0.0469 -0.4100
  232ntf    cn1 1360   2.337   0.592   0.195 -0.1113  0.2031  0.0203
  232ntf    sn2 1361   2.461   0.568   0.326  0.0737 -0.5560 -0.2937
  232ntf    nn3 1362   2.520   0.430   0.278 -0.0267 -0.6894 -0.0368
  232ntf    sn2 1363   2.627   0.346   0.355  0.3419 -0.1086  0.0881
  232ntf    cn1 1364   2.777   0.398   0.266  0.1911 -0.0653 -0.1381
  232ntf    fn4 1365   2.381   0.569   0.073  0.3352  0.1692  0.1875
  232ntf    fn4 1366   2.247   0.496   0.205 -0.1697  0.2143 -0.3836
  232ntf    fn4 1367   2.271   0.707   0.198 -0.1237  0.1926  0.1601
  232ntf    on5 1368   2.545   0.684   0.305  0.1532 -0.6670 -0.6018
  232ntf    on5 1369   2.385   0.560   0.448  0.5403  0.6562  0.0925
  232ntf    on5 1370   2.625   0.204   0.331  0.1877 -0.2281  0.7881
  232ntf    on5 1371   2.641   0.369   0.497 -0.1630 -0.5929  0.2175
  232ntf    fn4 1372   2.751   0.400   0.136  0.1880 -0.1248 -0.1385
  232ntf    fn4 1373   2.813   0.522   0.293 -0.6148 -0.0811  1.1059
  232ntf    fn4 1374   2.883   0.321   0.281 -0.2158 -0.5389  0.3313
  233ntf    cn1 1375   1.867   1.454   1.835  0.4153  0.0254 -0.1177
  233ntf    sn2 1376   1.788   1.609   1.889  0.3852 -0.0245 -0.0196
  233ntf    nn3 1377   1.697   1.638   1.764 -0.7008 -0.3233  0.6872
  233ntf    sn2 1378   1.665   1.784   1.718  0.0803 -0.2493  0.3595
  233ntf    cn1 1379   1.758   1.807   1.563  0.3162  0.6873  0.6306
  233ntf    fn4 1380   1.959   1.404   1.915  0.4892  0.0789 -0.1692
  233ntf    fn4 1381   1.774   1.360   1.837  0.3141  0.1202 -0.2966
  233ntf    fn4 1382   1.907   1.466   1.709 -0.0994 -0.0669 -0.2956
  233ntf    on5 1383   1.706   1.578   2.004  0.6990 -0.0635  0.1971
  233ntf    on5 1384   1.901   1.691   1.924 -0.2944  0.8953  0.0464
  233ntf    on5 1385   1.713   1.899   1.791  0.1226  0.0103 -0.0738
  233ntf    on5 1386   1.526   1.793   1.682  0.0773 -0.4754  0.3152
  233ntf    fn4 1387   1.888   1.811   1.588  0.5376  0.5312 -0.4610
  233ntf    fn4 1388   1.747   1.708   1.477 -0.4688  0.7527  0.6518
  233ntf    fn4 1389   1.739   1.924   1.504 -0.3268  0.2809  0.0243
  234ntf    cn1 1390   0.035   1.932   2.988  0.1063 -0.1072 -0.1473
  234ntf    sn2 1391  -0.109   1.988   3.085  0.0976 -0.2263 -0.0911
  234ntf    nn3 1392  -0.153   1.844   3.128  0.2327 -0.4153 -0.5722
  234ntf    sn2 1393  -0.124   1.778   3.268 -0.1274  0.0354 -0.2816
  234ntf    cn1 1394  -0.236   1.858   3.386 -0.0826 -0.1979 -0.0794
  234ntf    fn4 1395   0.102   2.037   2.944 -0.1000 -0.0865 -0.4145
  234ntf    fn4 1396   0.125   1.869   3.062  0.1059  0.1326  0.0596
  234ntf    fn4 1397   0.000   1.856   2.886 -0.0217  0.2247 -0.3510
  234ntf    on5 1398  -0.055   2.077   3.185 -0.9588  0.0485  0.2408
  234ntf    on5 1399  -0.183   2.049   2.977  0.2777 -0.5048 -0.3759
  234ntf    on5 1400   0.009   1.802   3.319 -0.3895  0.5760  0.1442
  234ntf    on5 1401  -0.171   1.641   3.268 -0.7839  0.2590  0.3875
  234ntf    fn4 1402  -0.243   1.990   3.396 -0.3254 -0.2562  0.5613
  234ntf    fn4 1403  -0.362   1.831   3.355 -0.0580 -0.0641 -0.2990
  234ntf    fn4 1404  -0.221   1.803   3.505 -0.3576 -0.2379 -0.0623
  235ntf    cn1 1405   1.081   0.292   4.393  0.2051 -0.0859 -0.6832
  235ntf    sn2 1406   1.107   0.218   4.229  0.2813 -0.2246 -0.6088
  235ntf    nn3 1407   1.262   0.200   4.246  0.1298 -0.3008  0.7635
  235ntf    sn2 1408   1.344   0.066   4.240  0.4035 -0.1026  0.0659
  235ntf    cn1 1409   1.406   0.050   4.070 -0.1918 -0.6501 -0.1023
  235ntf    fn4 1410   1.142   0.234   4.495 -0.0576 -0.2129 -0.5988
  235ntf    fn4 1411   1.122   0.418   4.392  0.0865 -0.0264  0.4806
  235ntf    fn4 1412   0.951   0.301   4.419  0.3697  0.4229  0.0060
  235ntf    on5 1413   1.020   0.103   4.224 -0.2272  0.1093  0.3943
  235ntf    on5 1414   1.068   0.323   4.137 -0.0974  0.0607 -0.1293
  235ntf    on5 1415   1.278  -0.054   4.284 -0.2276  0.1534 -0.1664
  235ntf    on5 1416   1.472   0.087   4.303  0.2318 -0.2276  0.4542
  235ntf    fn4 1417   1.317   0.013   3.979 -0.5334 -0.4807  0.1619
  235ntf    fn4 1418   1.461   0.161   4.024  0.0236 -0.4793  0.5619
  235ntf    fn4 1419   1.497  -0.045   4.054  0.1520 -0.2146 -0.7991
  236ntf    cn1 1420   0.581   0.103   3.730  0.0992 -0.4489 -0.9142
  236ntf    sn2 1421   0.707   0.209   3.654  0.2648 -0.1224 -0.1887
  236ntf    nn3 1422   0.708   0.142   3.512 -0.4153 -0.6158  0.0341
  236ntf    sn2 1423   0.831   0.110   3.420 -0.1499  0.0223  0.1621
  236ntf    cn1 1424   0.826  -0.072   3.413 -0.0030  0.0426 -0.5491
  236ntf    fn4 1425   0.567   0.128   3.859  0.1084 -0.1078 -0.9796
  236ntf    fn4 1426   0.462   0.115   3.673 -0.0308  0.0161 -0.5483
  236ntf    fn4 1427   0.609  -0.026   3.714  0.2407 -0.4561 -0.6103
  236ntf    on5 1428   0.646   0.339   3.645 -0.2376 -0.3285  0.2308
  236ntf    on5 1429   0.823   0.190   3.739  0.0226 -0.4562  0.0739
  236ntf    on5 1430   0.961   0.139   3.476  0.0594 -0.4179 -0.0910
  236ntf    on5 1431   0.798   0.157   3.288  0.0888 -0.2890 -0.0094
  236ntf    fn4 1432   0.751  -0.125   3.508  0.5742  0.0870 -0.0585
  236ntf    fn4 1433   0.767  -0.116   3.303  0.3469 -0.2586 -0.6182
  236ntf    fn4 1434   0.944  -0.133   3.415 -0.3687 -0.6519  0.1485
  237ntf    cn1 1435   2.059   2.105   1.613 -0.1882 -0.2465  0.1166
  237ntf    sn2 1436   2.024   2.124   1.436  0.1720 -0.5837  0.0074
  237ntf    nn3 1437   2.143   2.217   1.395 -0.3630  0.0166 -0.2021
  237ntf    sn2 1438   2.160   2.373   1.387  0.1078 -0.0163  0.0797
  237ntf    cn1 1439   2.298   2.390   1.504  0.2688 -0.2156 -0.0796
  237ntf    fn4 1440   2.189   2.110   1.635 -0.0979 -0.1189 -0.4508
  237ntf    fn4 1441   2.002   2.184   1.703  0.4280  0.3491 -0.0104
  237ntf    fn4 1442   2.026   1.985   1.659 -0.3683  0.0016  0.6413
  237ntf    on5 1443   2.047   1.990   1.387 -0.2430 -0.6886  0.0922
  237ntf    on5 1444   1.895   2.187   1.424  0.4630 -0.0982 -0.6648
  237ntf    on5 1445   2.053   2.443   1.454  0.1406  0.4680 -0.3598
  237ntf    on5 1446   2.218   2.418   1.262  0.6288 -0.7814  0.0391
  237ntf    fn4 1447   2.297   2.512   1.556 -0.2582 -0.3986  0.3529
  237ntf    fn4 1448   2.292   2.305   1.605  1.0290  0.3661  0.4695
  237ntf    fn4 1449   2.414   2.357   1.450  0.1108 -0.4762 -0.2602
  238ntf    cn1 1450   1.301   2.106   0.900  0.4501  0.3133  0.3671
  238ntf    sn2 1451   1.250   1.945   0.968  0.1930  0.2866  0.1123
  238ntf    nn3 1452   1.317   1.957   1.109  0.2258  0.6601  0.0665
  238ntf    sn2 1453   1.272   1.915   1.253 -0.4222 -0.0697 -0.3416
  238ntf    cn1 1454   1.297   2.071   1.344  0.1664 -0.1626 -0.3411
  238ntf    fn4 1455   1.431   2.108   0.876  0.4425 -0.0835  0.2869
  238ntf    fn4 1456   1.238   2.124   0.785  0.2474  0.1770  0.4568
  238ntf    fn4 1457   1.261   2.199   0.986 -0.2439  0.1140  0.2655
  238ntf    on5 1458   1.106   1.949   0.972  0.1843 -0.0403  0.1001
  238ntf    on5 1459   1.307   1.844   0.882 -0.9432 -0.1967 -0.0823
  238ntf    on5 1460   1.362   1.817   1.309 -0.3429  0.0565 -0.2444
  238ntf    on5 1461   1.129   1.902   1.265 -0.3865  0.0560  0.2562
  238ntf    fn4 1462   1.418   2.122   1.328 -0.0632  0.4561 -0.1329
  238ntf    fn4 1463   1.214   2.169   1.313  0.1798 -0.1762 -0.4203
  238ntf    fn4 1464   1.291   2.039   1.472 -0.4821  0.0134 -0.3226
  239ntf    cn1 1465   0.027   0.360   4.828 -0.2669 -0.0697 -0.1077
  239ntf    sn2 1466  -0.051   0.225   4.922  0.0966 -0.1359  0.1024
  239ntf    nn3 1467  -0.011   0.274   5.065 -0.2038  0.1390  0.0965
  239ntf    sn2 1468  -0.016   0.199   5.203 -0.0342  0.2445  0.1614
  239ntf    cn1 1469  -0.067   0.340   5.306 -0.1172  0.1930  0.1915
  239ntf    fn4 1470   0.156   0.333   4.836 -0.2484  0.0846  0.1303
  239ntf    fn4 1471  -0.005   0.359   4.700 -0.4286  0.4548 -0.0749
  239ntf    fn4 1472   0.001   0.476   4.888 -0.1153 -0.2834  0.3758
  239ntf    on5 1473  -0.190   0.247   4.888  0.3340  0.5156 -0.4806
  239ntf    on5 1474   0.018   0.105   4.883  0.5667  0.3854 -0.7118
  239ntf    on5 1475   0.115   0.169   5.256  0.1637  0.2053 -0.3432
  239ntf    on5 1476  -0.120   0.099   5.217 -0.1318  0.2429 -0.5498
  239ntf    fn4 1477  -0.066   0.316   5.436  0.7319 -0.7620  0.0234
  239ntf    fn4 1478   0.021   0.438   5.302 -0.2654  0.3126 -0.1929
  239ntf    fn4 1479  -0.184   0.392   5.274  0.0114  0.0868 -0.4646
  240ntf    cn1 1480   1.309   1.127   2.134 -0.1998  0.5706 -0.5391
  240ntf    sn2 1481   1.141   1.103   2.067 -0.2852 -0.3905  0.0019
  240ntf    nn3 1482   1.063   1.212   2.149 -0.0494 -0.3231  0.1397
  240ntf    sn2 1483   0.913   1.259   2.145  0.0750  0.0597 -0.1120
  240ntf    cn1 1484   0.912   1.396   2.264 -0.1969 -0.2469  0.2399
  240ntf    fn4 1485   1.392   1.038   2.081 -0.4983 -0.3663  0.5409
  240ntf    fn4 1486   1.366   1.241   2.098  0.3031  0.5351  0.1309
  240ntf    fn4 1487   1.308   1.126   2.266  0.2019  0.2125 -0.5362
  240ntf    on5 1488   1.157   1.132   1.927 -0.2238  0.0101  0.0883
  240ntf    on5 1489   1.107   0.968   2.103  0.1211 -0.5108 -0.0513
  240ntf    on5 1490   0.832   1.161   2.214 -0.0917  0.4462  0.2409
  240ntf    on5 1491   0.872   1.297   2.012 -0.3057 -0.1401 -0.0527
  240ntf    fn4 1492   0.927   1.350   2.388 -0.2112 -0.1528  0.2764
  240ntf    fn4 1493   1.015   1.473   2.233 -0.4065 -0.0190  0.1089
  240ntf    fn4 1494   0.802   1.469   2.256  0.2880  0.4034 -0.5615
  241ntf    cn1 1495   1.904   1.785   4.793  0.0293 -0.2681  0.0629
  241ntf    sn2 1496   1.767   1.753   4.908  0.2614 -0.3069  0.3287
  241ntf    nn3 1497   1.651   1.833   4.839  0.4392  0.0276  0.4152
  241ntf    sn2 1498   1.593   1.977   4.860  0.0331 -0.0130 -0.3611
  241ntf    cn1 1499   1.418   1.928   4.857 -0.1368  0.5345  0.3181
  241ntf    fn4 1500   1.908   1.916   4.778  0.3343 -0.2799  0.0461
  241ntf    fn4 1501   2.025   1.749   4.832  0.3365  0.3525 -0.3040
  241ntf    fn4 1502   1.878   1.728   4.676  0.2960 -0.0278 -0.1154
  241ntf    on5 1503   1.736   1.613   4.887 -0.0518 -0.1853 -0.0350
  241ntf    on5 1504   1.813   1.794   5.038 -0.5536 -0.4348  0.6626
  241ntf    on5 1505   1.613   2.056   4.742  0.2150  0.0919 -0.2601
  241ntf    on5 1506   1.601   2.038   4.991  0.0468  0.0469 -0.3895
  241ntf    fn4 1507   1.334   2.030   4.868 -0.7097  0.1154 -0.0887
  241ntf    fn4 1508   1.374   1.863   4.750  0.4300  0.4919  0.1067
  241ntf    fn4 1509   1.386   1.857   4.964 -0.8586  0.1450 -0.1472
  242ntf    cn1 1510   1.669   0.547   4.992 -0.2682  0.1881 -0.2774
  242ntf    sn2 1511   1.497   0.503   4.955 -0.2193 -0.1919 -0.0584
  242ntf    nn3 1512   1.507   0.555   4.808  0.0695  0.0624  0.0507
  242ntf    sn2 1513   1.560   0.485   4.677  0.1637 -0.0698  0.1600
  242ntf    cn1 1514   1.421   0.471   4.561  0.1598 -0.4045  0.2064
  242ntf    fn4 1515   1.705   0.671   4.961 -0.0009  0.2333  0.2103
  242ntf    fn4 1516   1.679   0.534   5.123  0.8672  0.5396 -0.3138
  242ntf    fn4 1517   1.764   0.469   4.942 -0.4423 -0.2426  0.0584
  242ntf    on5 1518   1.491   0.360   4.967 -0.5764 -0.2845 -1.2149
  242ntf    on5 1519   1.423   0.584   5.049 -0.0173  0.3059 -0.3263
  242ntf    on5 1520   1.618   0.357   4.706  0.5183  0.2509  0.9037
  242ntf    on5 1521   1.645   0.581   4.610  0.5483 -0.2398  0.4016
  242ntf    fn4 1522   1.387   0.594   4.527  0.5012 -0.2979  0.2455
  242ntf    fn4 1523   1.457   0.415   4.447  0.1755  0.0047  0.0088
  242ntf    fn4 1524   1.311   0.414   4.610 -0.2099 -0.0177 -0.1731
  243ntf    cn1 1525   0.104   0.826   4.533 -0.1624 -0.1935 -0.3682
  243ntf    sn2 1526  -0.052   0.893   4.468 -0.2444 -0.1804 -0.1578
  243ntf    nn3 1527  -0.115   0.929   4.607 -0.2550 -0.2553 -0.1436
  243ntf    sn2 1528  -0.238   0.868   4.684 -0.6107  0.1596 -0.3819
  243ntf    cn1 1529  -0.163   0.712   4.740 -0.0318  0.3110 -0.7204
  243ntf    fn4 1530   0.190   0.805   4.435 -0.2810  0.6601 -0.6652
  243ntf    fn4 1531   0.169   0.902   4.620 -0.2274 -0.5847  0.0243
  243ntf    fn4 1532   0.092   0.708   4.593  0.1200 -0.0131  0.0516
  243ntf    on5 1533  -0.010   1.005   4.388 -0.3905 -0.0643 -0.0727
  243ntf    on5 1534  -0.116   0.780   4.405 -0.1788 -0.2978 -0.0168
  243ntf    on5 1535  -0.352   0.826   4.607 -0.1858 -0.0160 -0.9228
  243ntf    on5 1536  -0.257   0.944   4.805  0.0930 -0.0936 -0.1074
  243ntf    fn4 1537  -0.062   0.729   4.823 -0.6010 -0.3276  0.1217
  243ntf    fn4 1538  -0.252   0.632   4.797  0.0669  0.2696 -0.6262
  243ntf    fn4 1539  -0.114   0.636   4.643  0.9871 -0.1738  0.1547
  244ntf    cn1 1540   2.339   1.613   1.588  0.4454  0.3578 -0.2987
  244ntf    sn2 1541   2.488   1.566   1.495  0.2514 -0.1193 -0.3700
  244ntf    nn3 1542   2.588   1.581   1.615 -0.4681  0.1502  0.1980
  244ntf    sn2 1543   2.731   1.646   1.606 -0.1767 -0.4847  0.1919
  244ntf    cn1 1544   2.703   1.825   1.617  0.3131 -0.3752 -0.3013
  244ntf    fn4 1545   2.239   1.646   1.508  0.1322  0.5626  0.1767
  244ntf    fn4 1546   2.288   1.523   1.670  0.1740  0.4371 -0.3815
  244ntf    fn4 1547   2.360   1.722   1.660  0.2287 -0.1528  0.5496
  244ntf    on5 1548   2.462   1.425   1.473 -0.3987 -0.1048  0.2746
  244ntf    on5 1549   2.485   1.660   1.386 -0.6612  0.0941 -0.1652
  244ntf    on5 1550   2.807   1.635   1.484  0.2373  0.2555  0.3781
  244ntf    on5 1551   2.806   1.633   1.728 -0.0215  0.9700  0.2677
  244ntf    fn4 1552   2.821   1.883   1.609  0.1280  0.0157 -0.2102
  244ntf    fn4 1553   2.649   1.884   1.511  0.3434  0.1943 -0.0042
  244ntf    fn4 1554   2.653   1.875   1.729 -0.1478  0.3033 -0.8037
  245ntf    cn1 1555   0.632   0.831   0.123 -0.2395 -0.0686 -0.2107
  245ntf    sn2 1556   0.789   0.922   0.107 -0.2543  0.0028  0.0409
  245ntf    nn3 1557   0.767   1.053   0.190 -0.5084  0.0958 -0.1694
  245ntf    sn2 1558   0.740   1.204   0.156 -0.3175  0.1643 -0.0245
  245ntf    cn1 1559   0.602   1.253   0.264 -0.2108 -0.0043  0.1893
  245ntf    fn4 1560   0.604   0.821   0.252  0.7772 -0.3977  0.0008
  245ntf    fn4 1561   0.526   0.896   0.078 -0.3484 -0.2174 -0.1701
  245ntf    fn4 1562   0.634   0.711   0.066 -0.0175 -0.2470  0.1651
  245ntf    on5 1563   0.879   0.825   0.164  0.3362  0.1960 -0.5542
  245ntf    on5 1564   0.806   0.946  -0.034  0.2842 -0.1807  0.0710
  245ntf    on5 1565   0.681   1.222   0.025 -0.2769  0.4022 -0.0090
  245ntf    on5 1566   0.841   1.299   0.194  0.0610 -0.1915 -0.1333
  245ntf    fn4 1567   0.565   1.379   0.258  0.0132  0.0431 -0.2394
  245ntf    fn4 1568   0.490   1.189   0.234 -0.3121  0.1456  0.2502
  245ntf    fn4 1569   0.634   1.231   0.390 -0.1504  0.0525  0.1840
  246ntf    cn1 1570   1.599   0.450   5.676  0.3603  0.0964  0.1402
  246ntf    sn2 1571   1.651   0.585   5.566  0.1466  0.1187  0.0666
  246ntf    nn3 1572   1.527   0.599   5.470  0.0323 -0.3007  0.1519
  246ntf    sn2 1573   1.404   0.694   5.491  0.0511 -0.2561  0.0563
  246ntf    cn1 1574   1.445   0.855   5.417 -0.7162  0.1815  0.5732
  246ntf    fn4 1575   1.700   0.372   5.710  0.0292 -0.5926 -0.4294
  246ntf    fn4 1576   1.528   0.478   5.784  0.2015 -0.1571  0.1034
  246ntf    fn4 1577   1.514   0.372   5.611 -0.2543  0.2547  0.7455
  246ntf    on5 1578   1.675   0.689   5.662 -0.7023  0.2472  0.1466
  246ntf    on5 1579   1.768   0.535   5.498  0.3823  0.1819  0.4259
  246ntf    on5 1580   1.368   0.719   5.628  0.4395  0.3725  0.0492
  246ntf    on5 1581   1.292   0.662   5.406  0.0046  0.0254  0.0097
  246ntf    fn4 1582   1.461   0.846   5.286  0.2064 -0.1005  0.7006
  246ntf    fn4 1583   1.351   0.946   5.442 -0.6812  0.3056  0.2599
  246ntf    fn4 1584   1.558   0.902   5.467 -0.2583 -0.3145  0.0217
  247ntf    cn1 1585   1.463   1.899   4.112 -0.1319 -0.2788  0.1782
  247ntf    sn2 1586   1.487   1.745   4.019 -0.1048  0.0044 -0.2856
  247ntf    nn3 1587   1.574   1.812   3.907 -0.1125 -0.2025 -0.4155
  247ntf    sn2 1588   1.564   1.818   3.751 -0.1596 -0.1724 -0.4109
  247ntf    cn1 1589   1.738   1.852   3.712 -0.1122  0.0483 -0.0131
  247ntf    fn4 1590   1.420   1.995   4.032  0.7625  0.1068  0.1552
  247ntf    fn4 1591   1.382   1.890   4.217 -0.4603  0.2272 -0.0247
  247ntf    fn4 1592   1.578   1.942   4.162  0.2123 -1.2236  0.2127
  247ntf    on5 1593   1.560   1.668   4.116 -0.4015 -0.0276 -0.0850
  247ntf    on5 1594   1.349   1.710   3.994 -0.0883 -0.0897 -0.2461
  247ntf    on5 1595   1.483   1.925   3.698  0.3267  0.3367 -0.1344
  247ntf    on5 1596   1.531   1.686   3.702  0.4990 -0.2283 -0.7198
  247ntf    fn4 1597   1.771   1.964   3.774 -0.2183 -0.0240  0.1732
  247ntf    fn4 1598   1.811   1.753   3.760 -0.6955  0.1668  1.1382
  247ntf    fn4 1599   1.767   1.862   3.583  0.8016  0.6791  0.2271
  248ntf    cn1 1600   1.151   0.338   1.216 -0.6642  0.1137  0.1480
  248ntf    sn2 1601   1.233   0.466   1.317 -0.0545 -0.0733 -0.1032
  248ntf    nn3 1602   1.099   0.540   1.351 -0.1371 -0.3178  0.1039
  248ntf    sn2 1603   1.074   0.660   1.448  0.0902 -0.0458 -0.1721
  248ntf    cn1 1604   0.972   0.775   1.351 -0.1293  0.2153  0.3646
  248ntf    fn4 1605   1.240   0.250   1.174 -0.5011  0.4073 -0.1279
  248ntf    fn4 1606   1.051   0.275   1.275 -0.8986 -0.3573 -0.7393
  248ntf    fn4 1607   1.100   0.386   1.104 -0.1828  0.2093 -0.0343
  248ntf    on5 1608   1.297   0.397   1.426  0.4264  0.0207 -0.3262
  248ntf    on5 1609   1.318   0.537   1.225  0.6524 -0.6415  0.0972
  248ntf    on5 1610   1.195   0.734   1.475  0.2578  0.1547 -1.4267
  248ntf    on5 1611   0.997   0.628   1.566  0.4057  0.1010  0.0771
  248ntf    fn4 1612   1.031   0.795   1.235  0.5917 -0.5531  0.5879
  248ntf    fn4 1613   0.855   0.724   1.316  0.2797 -0.4479 -0.0554
  248ntf    fn4 1614   0.952   0.898   1.396  0.5331  0.4533  0.0236
  249ntf    cn1 1615   1.606   0.692   2.171  0.0533 -0.2746  0.1618
  249ntf    sn2 1616   1.465   0.606   2.248 -0.1285 -0.0489  0.0818
  249ntf    nn3 1617   1.535   0.467   2.266 -0.2193 -0.0552  0.3906
  249ntf    sn2 1618   1.548   0.350   2.161 -0.3550  0.2738  0.0060
  249ntf    cn1 1619   1.437   0.224   2.231  0.0061 -0.1848 -0.2467
  249ntf    fn4 1620   1.643   0.629   2.061  0.0209 -0.5156  0.2885
  249ntf    fn4 1621   1.589   0.818   2.135 -0.3262 -0.2812  0.3119
  249ntf    fn4 1622   1.716   0.689   2.245 -0.0322  0.1544  0.3095
  249ntf    on5 1623   1.438   0.679   2.369 -0.0097  0.0805  0.0298
  249ntf    on5 1624   1.359   0.620   2.151  0.2950 -0.1515 -0.4044
  249ntf    on5 1625   1.673   0.281   2.180 -0.2420  0.5423  0.2502
  249ntf    on5 1626   1.504   0.379   2.027 -0.0397  0.1786 -0.1179
  249ntf    fn4 1627   1.476   0.182   2.350 -0.7474 -0.2900 -0.0362
  249ntf    fn4 1628   1.314   0.270   2.239 -0.0444 -0.4396  0.5058
  249ntf    fn4 1629   1.428   0.112   2.161  0.8318 -0.2615 -0.2504
  250ntf    cn1 1630   0.103   1.109   0.944 -0.1099  0.3912  0.2062
  250ntf    sn2 1631  -0.053   1.102   1.037 -0.1646 -0.2336  0.0691
  250ntf    nn3 1632  -0.060   0.946   1.019  0.1511 -0.2480  0.0622
  250ntf    sn2 1633  -0.191   0.860   1.004  0.1635 -0.2190 -0.2231
  250ntf    cn1 1634  -0.121   0.692   1.012 -0.6479 -0.5597 -0.2287
  250ntf    fn4 1635   0.177   1.000   0.954 -0.1262  0.2982 -0.5954
  250ntf    fn4 1636   0.087   1.105   0.813  0.1121 -0.0685  0.1916
  250ntf    fn4 1637   0.188   1.202   0.984 -0.2141  0.1520  1.0115
  250ntf    on5 1638  -0.014   1.132   1.173 -0.3511 -0.6682  0.2210
  250ntf    on5 1639  -0.147   1.185   0.967  0.5646  0.8101  0.3157
  250ntf    on5 1640  -0.258   0.863   0.876 -0.1567 -0.2934 -0.0578
  250ntf    on5 1641  -0.284   0.876   1.113 -0.0563 -0.3948 -0.3834
  250ntf    fn4 1642  -0.056   0.674   0.899  0.0677 -0.6566  0.1955
  250ntf    fn4 1643  -0.037   0.667   1.111  0.1015  0.0291 -0.7090
  250ntf    fn4 1644  -0.207   0.592   1.026 -0.9268 -0.4090 -0.8451
  251ntf    cn1 1645   1.208   2.018   0.096  0.2283  0.4048  0.2701
  251ntf    sn2 1646   1.069   2.132   0.066 -0.0523  0.0208  0.0966
  251ntf    nn3 1647   0.971   2.017   0.025  0.4295 -0.1853 -0.5036
  251ntf    sn2 1648   0.854   1.942   0.098  0.1281  0.3741 -0.4057
  251ntf    cn1 1649   0.705   1.993   0.007 -0.3886  0.0930  0.2742
  251ntf    fn4 1650   1.182   1.936   0.196 -0.0355 -0.2239 -0.3086
  251ntf    fn4 1651   1.242   1.944  -0.008  0.1539  0.7684 -0.0159
  251ntf    fn4 1652   1.312   2.095   0.123  0.6510  0.2703 -0.9121
  251ntf    on5 1653   1.039   2.202   0.188 -0.1037 -0.1275  0.1686
  251ntf    on5 1654   1.107   2.215  -0.046  0.1837 -0.6050 -0.2939
  251ntf    on5 1655   0.844   1.981   0.236 -0.2456  0.2834 -0.4053
  251ntf    on5 1656   0.853   1.798   0.090 -0.1873  0.3519  0.0075
  251ntf    fn4 1657   0.709   2.122  -0.021 -0.5667  0.0647  0.1129
  251ntf    fn4 1658   0.692   1.929  -0.109  0.1602  0.0661  0.2260
  251ntf    fn4 1659   0.598   1.958   0.077 -0.2359 -0.1350  0.3945
  252ntf    cn1 1660   0.071   1.268   3.881 -0.0428 -0.1833  0.6132
  252ntf    sn2 1661  -0.030   1.418   3.902  0.6828  0.3680  0.2094
  252ntf    nn3 1662  -0.175   1.367   3.869  0.7202  0.1217  0.4213
  252ntf    sn2 1663  -0.285   1.289   3.949  0.0056  0.4853 -0.1901
  252ntf    cn1 1664  -0.386   1.418   4.027  0.0154  0.2641  0.1924
  252ntf    fn4 1665   0.018   1.166   3.946  0.1811 -0.0638  0.9848
  252ntf    fn4 1666   0.081   1.228   3.755 -0.5169  0.0391  0.4994
  252ntf    fn4 1667   0.196   1.278   3.922  0.0483  0.2526  0.2306
  252ntf    on5 1668  -0.010   1.458   4.039  0.8140 -0.5109  0.4499
  252ntf    on5 1669   0.027   1.502   3.799  0.4871 -0.2142 -0.3844
  252ntf    on5 1670  -0.244   1.207   4.061  0.0130  0.7229 -0.0193
  252ntf    on5 1671  -0.378   1.224   3.859  0.0437  0.0167  0.1042
  252ntf    fn4 1672  -0.453   1.374   4.132  0.0604  0.4741  0.3106
  252ntf    fn4 1673  -0.305   1.512   4.074 -0.1583  0.2060  0.6132
  252ntf    fn4 1674  -0.483   1.471   3.954 -0.1462  0.3265  0.4517
  253ntf    cn1 1675   1.183   0.975   4.371 -0.0432  0.5024  0.3263
  253ntf    sn2 1676   1.140   1.125   4.278  0.2909  0.1619 -0.3871
  253ntf    nn3 1677   1.247   1.229   4.326  0.3491 -0.2198  0.3285
  253ntf    sn2 1678   1.246   1.336   4.440  0.1786  0.0595  0.0663
  253ntf    cn1 1679   1.272   1.498   4.361  0.2343  0.1147  0.1981
  253ntf    fn4 1680   1.160   0.986   4.500 -0.4124 -0.1686  0.3248
  253ntf    fn4 1681   1.113   0.870   4.331  0.2550  0.2154  0.5462
  253ntf    fn4 1682   1.311   0.944   4.353 -0.1387  0.0073  0.4780
  253ntf    on5 1683   1.162   1.081   4.142 -0.4644  0.2324 -0.5385
  253ntf    on5 1684   1.002   1.148   4.313  0.0454 -0.2551 -1.0466
  253ntf    on5 1685   1.365   1.319   4.519 -0.1572  0.2682  0.6278
  253ntf    on5 1686   1.119   1.353   4.508  0.0641 -0.9047  0.1014
  253ntf    fn4 1687   1.245   1.600   4.442  0.7950  0.6097 -0.2276
  253ntf    fn4 1688   1.399   1.509   4.326  0.2446 -0.3873  0.0722
  253ntf    fn4 1689   1.194   1.513   4.255  0.1458 -0.4766  0.1796
  254ntf    cn1 1690   2.057   0.036   5.916 -0.0463  0.7952  0.3705
  254ntf    sn2 1691   2.045   0.064   6.096 -0.0391 -0.0701  0.5104
  254ntf    nn3 1692   2.035  -0.087   6.137  0.4977 -0.1377  0.4008
  254ntf    sn2 1693   1.926  -0.163   6.222 -0.1777  0.2799 -0.0809
  254ntf    cn1 1694   1.937  -0.069   6.377  0.4977  0.3300 -0.1556
  254ntf    fn4 1695   1.939   0.017   5.860 -0.0468 -0.0183  0.6344
  254ntf    fn4 1696   2.112   0.139   5.853  0.3813  0.5436  0.3244
  254ntf    fn4 1697   2.131  -0.069   5.886 -0.3530  0.7045 -0.0712
  254ntf    on5 1698   2.177   0.115   6.123  0.1254 -0.4057  0.3434
  254ntf    on5 1699   1.932   0.153   6.110  0.0735  0.1382  0.1210
  254ntf    on5 1700   1.972  -0.296   6.251 -0.1080  0.3383  0.0775
  254ntf    on5 1701   1.794  -0.133   6.173  0.0822  0.0828 -0.9167
  254ntf    fn4 1702   1.887  -0.128   6.484  0.6668  0.1723 -0.1620
  254ntf    fn4 1703   2.064  -0.038   6.399  0.4708 -0.0941  0.6190
  254ntf    fn4 1704   1.868   0.044   6.370 -0.1971 -0.0303  0.7725
  255ntf    cn1 1705   0.969   1.871   4.772 -0.0838  0.4271 -0.1993
  255ntf    sn2 1706   0.798   1.898   4.829 -0.1268  0.2600 -0.2504
  255ntf    nn3 1707   0.833   1.868   4.979  0.1646  0.9615 -0.1733
  255ntf    sn2 1708   0.829   1.957   5.108 -0.2482 -0.0076  0.4973
  255ntf    cn1 1709   1.009   1.969   5.130 -0.1872  0.0074 -0.0049
  255ntf    fn4 1710   1.001   1.743   4.781 -0.0949  0.4622  0.4373
  255ntf    fn4 1711   0.988   1.902   4.645 -0.2570  0.5995 -0.1835
  255ntf    fn4 1712   1.063   1.931   4.844  0.0413 -0.3572  0.2980
  255ntf    on5 1713   0.769   2.034   4.791 -0.5643  0.2485  0.0420
  255ntf    on5 1714   0.730   1.791   4.760  0.7766 -0.3154 -0.2645
  255ntf    on5 1715   0.781   1.888   5.225  0.0905  0.2510  0.7905
  255ntf    on5 1716   0.794   2.096   5.088 -0.3624 -0.1190 -0.1160
  255ntf    fn4 1717   1.039   2.006   5.253 -0.1553  0.4173 -0.1329
  255ntf    fn4 1718   1.067   1.852   5.109 -0.0415 -0.0569  0.7416
  255ntf    fn4 1719   1.062   2.047   5.036  0.3519 -0.6418 -0.2514
  256ntf    cn1 1720   1.472   1.239   0.712 -0.2937 -0.0661  0.0801
  256ntf    sn2 1721   1.647   1.188   0.715 -0.3844 -0.3969 -0.1439
  256ntf    nn3 1722   1.648   1.046   0.649 -0.3003 -0.6041  0.2966
  256ntf    sn2 1723   1.623   1.008   0.499 -0.1751 -0.0068  0.1204
  256ntf    cn1 1724   1.582   0.833   0.524  0.4498 -0.1721  0.0039
  256ntf    fn4 1725   1.446   1.352   0.775 -0.4054 -0.0362 -0.0217
  256ntf    fn4 1726   1.438   1.259   0.586  0.1169  0.1929  0.0085
  256ntf    fn4 1727   1.393   1.142   0.757 -0.2670 -0.2869 -0.3483
  256ntf    on5 1728   1.719   1.284   0.634 -0.2953 -0.4627 -0.1425
  256ntf    on5 1729   1.678   1.186   0.856  0.5744 -0.4326 -0.3471
  256ntf    on5 1730   1.740   1.013   0.415  0.2394  0.8204  0.7467
  256ntf    on5 1731   1.505   1.072   0.445  0.0086  0.1367 -0.1119
  256ntf    fn4 1732   1.659   0.778   0.617  0.3186  0.4047  0.4569
  256ntf    fn4 1733   1.456   0.819   0.563  0.4073  0.6244  0.1689
  256ntf    fn4 1734   1.610   0.761   0.417  0.4762  0.5289 -0.4584
  257ntf    cn1 1735   0.972   2.201   5.495 -0.3128  0.4468 -0.1993
  257ntf    sn2 1736   1.126   2.273   5.558 -0.3376  0.4354 -0.1247
  257ntf    nn3 1737   1.221   2.241   5.437 -0.6644 -0.5132 -0.1345
  257ntf    sn2 1738   1.314   2.114   5.422 -0.1623 -0.1329 -0.2713
  257ntf    cn1 1739   1.467   2.181   5.495 -0.1628  0.0068 -0.3991
  257ntf    fn4 1740   0.870   2.212   5.578 -0.1507  0.6314 -0.0234
  257ntf    fn4 1741   0.936   2.251   5.378 -0.5366 -0.0691 -0.3532
  257ntf    fn4 1742   0.990   2.072   5.472  0.3306  0.4723  0.1292
  257ntf    on5 1743   1.095   2.414   5.567 -0.3596  0.4096  0.2084
  257ntf    on5 1744   1.154   2.210   5.685  0.0050  0.5502 -0.1420
  257ntf    on5 1745   1.353   2.093   5.285 -0.0778 -0.1178 -0.2493
  257ntf    on5 1746   1.286   1.995   5.498 -0.1395  0.3537  0.5167
  257ntf    fn4 1747   1.578   2.110   5.482 -0.3951 -0.3166 -0.6418
  257ntf    fn4 1748   1.491   2.302   5.448  0.0190  0.2107  0.2173
  257ntf    fn4 1749   1.451   2.196   5.625 -0.0089  0.8976 -0.4780
  258ntf    cn1 1750   1.122   0.255   2.758  0.0579 -0.2062  0.1577
  258ntf    sn2 1751   1.211   0.190   2.902  0.2249 -0.2203  0.0493
  258ntf    nn3 1752   1.360   0.231   2.877 -0.0631  0.7263 -0.1421
  258ntf    sn2 1753   1.456   0.319   2.966 -0.0135  0.4449  0.0837
  258ntf    cn1 1754   1.604   0.214   2.974 -0.2894  0.0591  0.1649
  258ntf    fn4 1755   1.139   0.385   2.740  0.1310 -0.1037  0.9337
  258ntf    fn4 1756   1.149   0.192   2.644  0.0944 -0.6041  0.3840
  258ntf    fn4 1757   0.990   0.251   2.772  0.0926 -0.2973  0.4513
  258ntf    on5 1758   1.137   0.240   3.016 -0.3281 -0.2400 -0.3001
  258ntf    on5 1759   1.194   0.048   2.884  0.0464 -0.2077  0.1171
  258ntf    on5 1760   1.431   0.332   3.107 -0.1496 -0.2997  0.1318
  258ntf    on5 1761   1.504   0.422   2.877 -0.5661  0.5480 -0.1006
  258ntf    fn4 1762   1.703   0.265   3.045 -0.3355  0.1578  0.1598
  258ntf    fn4 1763   1.587   0.094   3.026 -0.1462 -0.0251  0.0178
  258ntf    fn4 1764   1.648   0.199   2.850 -0.2411  0.3592  0.1448
  259ntf    cn1 1765   1.300   1.820   6.112  0.0401  0.1822  0.1537
  259ntf    sn2 1766   1.241   1.707   5.982 -0.1906  0.0293  0.3904
  259ntf    nn3 1767   1.375   1.646   5.926 -0.1487  0.3467  0.1435
  259ntf    sn2 1768   1.432   1.502   5.951 -0.1812  0.3600  0.2951
  259ntf    cn1 1769   1.499   1.524   6.119 -0.2518 -0.0379  0.3768
  259ntf    fn4 1770   1.356   1.753   6.211 -0.5501 -0.8108 -0.1674
  259ntf    fn4 1771   1.400   1.892   6.063  0.0111 -0.2549 -0.5603
  259ntf    fn4 1772   1.210   1.905   6.158 -0.1887 -0.0103  0.0658
  259ntf    on5 1773   1.159   1.618   6.060  0.0881  0.0940  0.7603
  259ntf    on5 1774   1.175   1.786   5.881 -0.2583 -0.8333 -0.2525
  259ntf    on5 1775   1.545   1.463   5.872 -0.7783 -0.7273 -0.0406
  259ntf    on5 1776   1.332   1.398   5.965 -0.3608  0.5017  0.0769
  259ntf    fn4 1777   1.571   1.633   6.140  0.1707 -0.1886 -0.2546
  259ntf    fn4 1778   1.406   1.531   6.212 -0.6394 -0.4963  0.0290
  259ntf    fn4 1779   1.581   1.423   6.142 -0.3698 -0.2206  0.0098
  260ntf    cn1 1780   1.716   1.058   3.276  0.1320  0.1270  0.2381
  260ntf    sn2 1781   1.766   1.042   3.102 -0.1296 -0.2203  0.1956
  260ntf    nn3 1782   1.696   1.166   3.036 -0.1926 -0.3105  0.0935
  260ntf    sn2 1783   1.695   1.209   2.885 -0.0079 -0.2927  0.0971
  260ntf    cn1 1784   1.534   1.143   2.832  0.1005 -0.0492 -0.5469
  260ntf    fn4 1785   1.768   0.963   3.352 -0.1160 -0.0622  0.1718
  260ntf    fn4 1786   1.768   1.171   3.322  0.5497  0.1150 -0.1924
  260ntf    fn4 1787   1.584   1.062   3.284  0.0891 -0.2447 -0.2533
  260ntf    on5 1788   1.906   1.071   3.119 -0.0567 -0.6666  0.3849
  260ntf    on5 1789   1.729   0.909   3.059  0.2990 -0.2661 -0.0318
  260ntf    on5 1790   1.782   1.144   2.790  0.1026 -0.2938  0.1992
  260ntf    on5 1791   1.675   1.351   2.865  0.1134 -0.3015 -0.0879
  260ntf    fn4 1792   1.517   1.012   2.833  0.4375 -0.0924 -0.4467
  260ntf    fn4 1793   1.432   1.179   2.908  0.6970  0.0570  0.2209
  260ntf    fn4 1794   1.503   1.169   2.706 -0.1127  0.0224 -0.4805
  261ntf    cn1 1795   0.149   0.702   2.015  0.0338 -0.1918 -0.2722
  261ntf    sn2 1796   0.254   0.851   2.013  0.1358 -0.2567  0.0861
  261ntf    nn3 1797   0.391   0.778   1.988 -0.1915 -0.8869  0.1125
  261ntf    sn2 1798   0.507   0.805   1.886 -0.1984 -0.3105  0.2560
  261ntf    cn1 1799   0.630   0.868   2.004 -0.0364  0.6839 -0.4285
  261ntf    fn4 1800   0.188   0.623   2.114  0.2604  0.0896 -0.1357
  261ntf    fn4 1801   0.024   0.736   2.042 -0.1164 -0.4886 -0.5922
  261ntf    fn4 1802   0.162   0.632   1.904  0.6170 -0.3847 -0.0844
  261ntf    on5 1803   0.203   0.908   1.890  0.7619  0.0984 -0.0107
  261ntf    on5 1804   0.247   0.930   2.133 -0.5585 -0.1114 -0.0438
  261ntf    on5 1805   0.498   0.923   1.804 -0.4089 -0.4002  0.1495
  261ntf    on5 1806   0.560   0.682   1.833  0.2320 -0.1842  0.3874
  261ntf    fn4 1807   0.753   0.877   1.957  0.1764  0.7526  0.1285
  261ntf    fn4 1808   0.605   0.988   2.056  0.6356  0.6398  0.0054
  261ntf    fn4 1809   0.646   0.791   2.111  0.0765  0.7347 -0.4084
  262ntf    cn1 1810   0.358   1.795   0.299  0.2952  0.1537 -0.0459
  262ntf    sn2 1811   0.297   1.842   0.464 -0.2871 -0.2305 -0.1500
  262ntf    nn3 1812   0.240   1.987   0.443 -0.0677 -0.1401 -0.1213
  262ntf    sn2 1813   0.101   2.054   0.474  0.2466  0.4449  0.0372
  262ntf    cn1 1814   0.040   2.031   0.305 -0.0018 -0.1972  0.2122
  262ntf    fn4 1815   0.397   1.670   0.289 -0.1765  0.0237 -0.3155
  262ntf    fn4 1816   0.258   1.808   0.213  0.1730  0.7038  0.1726
  262ntf    fn4 1817   0.455   1.877   0.261  0.5476 -0.1555 -0.0627
  262ntf    on5 1818   0.196   1.743   0.495 -0.3735 -0.0229  0.2347
  262ntf    on5 1819   0.420   1.834   0.538 -0.2608  0.0126 -0.1663
  262ntf    on5 1820   0.098   2.196   0.498 -0.2397  0.5003 -0.3502
  262ntf    on5 1821   0.007   1.980   0.555  0.0225  0.4961 -0.1782
  262ntf    fn4 1822  -0.087   2.059   0.284  0.0525 -0.1981 -0.1189
  262ntf    fn4 1823   0.122   2.105   0.232  0.2309 -0.4113  0.2531
  262ntf    fn4 1824   0.062   1.911   0.253 -0.2130 -0.0621 -0.1933
  263ntf    cn1 1825   0.969   1.568   3.862 -0.3875  0.2100  0.3482
  263ntf    sn2 1826   0.808   1.485   3.853 -0.3071  0.1209 -0.3708
  263ntf    nn3 1827   0.707   1.596   3.898 -0.3994 -0.2744  0.4245
  263ntf    sn2 1828   0.678   1.637   4.047 -0.2153  0.1177  0.3541
  263ntf    cn1 1829   0.549   1.516   4.089 -0.0153 -0.1532  0.1893
  263ntf    fn4 1830   1.017   1.547   3.983 -0.0574  0.2481  0.2236
  263ntf    fn4 1831   1.070   1.527   3.788 -0.3666  0.5898  0.1598
  263ntf    fn4 1832   0.962   1.698   3.834 -0.3305  0.1637  0.1117
  263ntf    on5 1833   0.807   1.460   3.711 -0.0000  0.3487 -0.4123
  263ntf    on5 1834   0.823   1.368   3.937 -0.5084  0.7366  0.5387
  263ntf    on5 1835   0.610   1.764   4.053 -0.3502  0.0575  0.1281
  263ntf    on5 1836   0.783   1.610   4.142 -0.2871  0.0375  0.4101
  263ntf    fn4 1837   0.473   1.565   4.186 -0.1281 -0.0661  0.0558
  263ntf    fn4 1838   0.467   1.496   3.988  0.1800 -0.1694  0.0336
  263ntf    fn4 1839   0.597   1.401   4.133 -0.4369 -0.3761  0.0670
  264ntf    cn1 1840   0.722   1.959   2.075  0.1300  0.0161  0.2261
  264ntf    sn2 1841   0.875   2.021   2.151  0.3542  0.1035 -0.2926
  264ntf    nn3 1842   0.864   2.177   2.139  0.0222  0.0918 -0.1516
  264ntf    sn2 1843   0.888   2.271   2.015  0.0712  0.4790  0.1514
  264ntf    cn1 1844   1.062   2.313   2.046  0.1692  0.4081 -0.3036
  264ntf    fn4 1845   0.669   2.057   2.005  0.2022  0.0066  0.1573
  264ntf    fn4 1846   0.734   1.860   1.988 -0.4841 -0.2846  0.4830
  264ntf    fn4 1847   0.630   1.918   2.161  0.2760 -0.3015  0.2360
  264ntf    on5 1848   0.849   1.986   2.289  0.2995  0.1976 -0.2788
  264ntf    on5 1849   0.987   1.961   2.082  0.4133  0.3029 -0.3698
  264ntf    on5 1850   0.814   2.394   2.029 -0.0674  0.3560  0.5066
  264ntf    on5 1851   0.890   2.209   1.885 -0.3526 -0.0841  0.4097
  264ntf    fn4 1852   1.140   2.209   2.022 -0.3010  0.0210 -0.1707
  264ntf    fn4 1853   1.092   2.405   1.956  0.0594  0.3718 -0.3773
  264ntf    fn4 1854   1.086   2.355   2.169  0.2094 -0.3788 -0.0399
  265ntf    cn1 1855   0.402   0.768   4.713 -0.4754 -0.0206  0.4547
  265ntf    sn2 1856   0.576   0.729   4.749 -0.2354  0.3316 -0.2979
  265ntf    nn3 1857   0.648   0.766   4.615 -0.0696  0.0252 -0.2946
  265ntf    sn2 1858   0.660   0.910   4.554 -0.2738  0.1856  0.0450
  265ntf    cn1 1859   0.822   0.958   4.622 -0.1577 -0.0151 -0.0903
  265ntf    fn4 1860   0.375   0.896   4.729 -0.4276 -0.0121  0.4661
  265ntf    fn4 1861   0.375   0.727   4.590 -0.6079  0.1588  0.4241
  265ntf    fn4 1862   0.316   0.704   4.790  0.2969 -0.3467  1.0629
  265ntf    on5 1863   0.604   0.812   4.863 -0.3621  0.1295 -0.1182
  265ntf    on5 1864   0.587   0.587   4.771  0.8027  0.4789  0.2024
  265ntf    on5 1865   0.578   1.015   4.610 -0.1439  0.5616 -0.4575
  265ntf    on5 1866   0.676   0.904   4.411  0.4889 -0.4199  0.1507
  265ntf    fn4 1867   0.863   0.894   4.731 -0.2415 -0.1933 -0.1625
  265ntf    fn4 1868   0.921   0.939   4.536 -0.2007  0.4968 -0.2533
  265ntf    fn4 1869   0.834   1.088   4.643 -0.1033 -0.1636  0.8324
  266ntf    cn1 1870   0.058   0.150   3.051  0.0800 -0.1204 -0.0105
  266ntf    sn2 1871   0.190   0.259   2.991 -0.1584  0.0254 -0.2688
  266ntf    nn3 1872   0.096   0.363   2.920  0.3436  0.3860 -0.4165
  266ntf    sn2 1873   0.090   0.518   2.944 -0.1230  0.3086 -0.0136
  266ntf    cn1 1874   0.217   0.574   2.826  0.1771  0.0443  0.1834
  266ntf    fn4 1875   0.009   0.189   3.168 -0.3968 -0.0857 -0.2193
  266ntf    fn4 1876  -0.048   0.153   2.972 -0.3605  0.3040  0.5825
  266ntf    fn4 1877   0.094   0.024   3.072  0.1494 -0.1421 -0.2655
  266ntf    on5 1878   0.252   0.289   3.118  0.1770 -0.3303 -0.3475
  266ntf    on5 1879   0.276   0.180   2.907  0.4417  0.1632  0.2041
  266ntf    on5 1880   0.127   0.566   3.074  0.3097  0.4309 -0.1811
  266ntf    on5 1881  -0.030   0.575   2.886  0.2242  1.3015  0.2272
  266ntf    fn4 1882   0.166   0.564   2.704  0.1282 -0.4048  0.2388
  266ntf    fn4 1883   0.254   0.697   2.855  0.2737 -0.0927  0.6620
  266ntf    fn4 1884   0.326   0.500   2.818 -0.3349 -0.6821 -0.1729
  267ntf    cn1 1885   0.904   1.495   5.238 -0.1353  0.0834  0.0234
  267ntf    sn2 1886   0.949   1.338   5.318 -0.1374 -0.0913 -0.3155
  267ntf    nn3 1887   1.078   1.386   5.394 -0.1715 -0.7135  0.1439
  267ntf    sn2 1888   1.193   1.301   5.458 -0.1873 -0.2588  0.7820
  267ntf    cn1 1889   1.128   1.267   5.624 -0.4430  0.2247  0.7825
  267ntf    fn4 1890   0.905   1.594   5.326 -0.0168  0.2061 -0.1148
  267ntf    fn4 1891   0.996   1.524   5.147 -0.1954 -0.0304 -0.0740
  267ntf    fn4 1892   0.781   1.492   5.190 -0.1566  0.4620  0.0507
  267ntf    on5 1893   0.838   1.316   5.408  0.1213  0.0789  0.0514
  267ntf    on5 1894   0.980   1.243   5.214 -0.0833 -0.5262  0.0968
  267ntf    on5 1895   1.314   1.378   5.476 -0.2225  0.0587 -0.2799
  267ntf    on5 1896   1.213   1.164   5.418 -0.8681 -0.3713  0.8138
  267ntf    fn4 1897   1.200   1.186   5.700  0.2736  0.1199  0.0000
  267ntf    fn4 1898   1.128   1.377   5.697  0.4866  1.1322 -0.5441
  267ntf    fn4 1899   1.007   1.215   5.638 -0.4440 -0.0599 -0.2147
  268ntf    cn1 1900   0.412   1.286   5.881 -0.0573 -0.2149  0.2023
  268ntf    sn2 1901   0.555   1.187   5.830 -0.0960 -0.1534 -0.0261
  268ntf    nn3 1902   0.533   1.193   5.674 -0.3528  0.1011  0.0197
  268ntf    sn2 1903   0.491   1.074   5.582 -0.1455 -0.0142  0.0751
  268ntf    cn1 1904   0.620   0.949   5.615  0.3294  0.4719  0.0731
  268ntf    fn4 1905   0.402   1.304   6.012 -0.1267  0.6873  0.0812
  268ntf    fn4 1906   0.400   1.406   5.825  1.0564 -0.2618 -0.1543
  268ntf    fn4 1907   0.300   1.228   5.842  0.0921 -0.7466  0.5474
  268ntf    on5 1908   0.666   1.271   5.870  0.1550 -0.5354  0.0893
  268ntf    on5 1909   0.537   1.063   5.901 -0.4241 -0.0909  0.0007
  268ntf    on5 1910   0.532   1.100   5.446 -0.0110 -0.2511  0.0684
  268ntf    on5 1911   0.365   1.010   5.609 -0.4757  0.8672  0.6681
  268ntf    fn4 1912   0.590   0.866   5.714  0.0399  0.2057 -0.2359
  268ntf    fn4 1913   0.632   0.876   5.506  0.8311 -0.0001  0.4404
  268ntf    fn4 1914   0.738   1.004   5.639  0.6569 -0.0401 -0.3497
  269ntf    cn1 1915   0.649   1.108   1.037  0.3782 -0.6268 -0.5952
  269ntf    sn2 1916   0.809   1.182   0.992  0.4126 -0.3772 -0.0619
  269ntf    nn3 1917   0.753   1.290   0.892  0.7718 -0.0137  0.1256
  269ntf    sn2 1918   0.761   1.294   0.735 -0.2355 -0.3156  0.0586
  269ntf    cn1 1919   0.915   1.388   0.712 -0.1921 -0.3220  0.3194
  269ntf    fn4 1920   0.579   1.194   1.109 -0.1324 -0.7671 -0.9150
  269ntf    fn4 1921   0.577   1.082   0.929 -0.0628  0.3317 -0.5464
  269ntf    fn4 1922   0.652   1.001   1.114  0.6521  0.2889  0.7023
  269ntf    on5 1923   0.846   1.246   1.116  0.1915  0.0934 -0.2340
  269ntf    on5 1924   0.884   1.065   0.955  0.8004 -0.2869  0.4249
  269ntf    on5 1925   0.663   1.381   0.676 -0.1229 -0.1254  0.1492
  269ntf    on5 1926   0.796   1.170   0.669 -0.2595 -0.3239  0.0617
  269ntf    fn4 1927   0.948   1.397   0.584  0.3203  0.1771  0.4838
  269ntf    fn4 1928   0.906   1.510   0.762  0.8750 -0.1808  0.2045
  269ntf    fn4 1929   1.025   1.335   0.764  0.1116 -0.2292 -0.2197
  270ntf    cn1 1930   0.406   1.217   2.996 -0.1363 -0.0832 -0.1328
  270ntf    sn2 1931   0.293   1.128   2.885  0.0138  0.3637 -0.6439
  270ntf    nn3 1932   0.210   1.252   2.835 -0.3432  0.4069  0.0534
  270ntf    sn2 1933   0.179   1.277   2.683  0.1297 -0.1434 -0.1361
  270ntf    cn1 1934   0.293   1.413   2.643  0.1990 -0.1601  0.0008
  270ntf    fn4 1935   0.339   1.268   3.099 -0.1708 -0.5468  0.0771
  270ntf    fn4 1936   0.500   1.137   3.042 -0.2767 -0.1719  0.0027
  270ntf    fn4 1937   0.467   1.315   2.931  0.4132 -0.3005  0.0508
  270ntf    on5 1938   0.383   1.064   2.792  0.3384  0.6326 -0.5180
  270ntf    on5 1939   0.208   1.050   2.971  0.8232  0.3188  0.1291
  270ntf    on5 1940   0.047   1.333   2.672  0.1259 -0.0618  0.3022
  270ntf    on5 1941   0.198   1.180   2.578 -0.6784 -0.3497 -0.0980
  270ntf    fn4 1942   0.273   1.463   2.522 -0.3465 -0.5376 -0.0702
  270ntf    fn4 1943   0.276   1.509   2.733 -0.2949 -0.5848  0.3657
  270ntf    fn4 1944   0.423   1.393   2.652  0.1722 -0.3826 -0.0889
   2.33293   2.33293   6.51669
