Converted from moscito
23760
    1SOL     ow    1   2.903   2.556   3.817  0.2071  0.6492 -0.2079
    1SOL     hw    2   2.972   2.573   3.880  0.4199  2.9090 -0.9609
    1SOL     hw    3   2.922   2.469   3.783  1.8756  0.6698  0.5982
    1SOL     vw    4   2.915   2.547   3.821  0.4554  0.9502 -0.2010
    2SOL     ow    5   5.660   4.559   7.022  0.4219 -0.3232 -0.1203
    2SOL     hw    6   5.620   4.606   6.948  2.0454  1.2611 -0.0514
    2SOL     hw    7   5.704   4.484   6.981  0.8800  0.2596 -0.7255
    2SOL     vw    8   5.660   4.556   7.007  0.6967 -0.0374 -0.1910
    3SOL     ow    9   1.322   1.842   1.090 -0.2826 -0.2191 -0.6710
    3SOL     hw   10   1.403   1.826   1.139  0.0749 -1.1137 -1.5224
    3SOL     hw   11   1.291   1.755   1.066 -3.0657 -0.1318  2.0256
    3SOL     vw   12   1.329   1.829   1.094 -0.6026 -0.3256 -0.4275
    4SOL     ow   13   5.720   5.584   3.800 -0.0070 -0.3618  0.5296
    4SOL     hw   14   5.784   5.643   3.840  0.0498 -1.0690  1.5380
    4SOL     hw   15   5.642   5.592   3.856 -0.0354 -1.1460  0.6140
    4SOL     vw   16   5.718   5.593   3.813 -0.0033 -0.5584  0.6738
    5SOL     ow   17   5.094   1.855   3.367  0.0496  0.2604 -0.0502
    5SOL     hw   18   5.002   1.831   3.377 -0.1453  1.4738  1.2856
    5SOL     hw   19   5.141   1.792   3.420 -0.2934  1.4324  1.7351
    5SOL     vw   20   5.088   1.844   3.375 -0.0212  0.5751  0.3616
    6SOL     ow   21   4.172   3.720   5.942 -0.1412 -0.0160  0.3115
    6SOL     hw   22   4.181   3.627   5.923  1.0548 -0.2351  1.7321
    6SOL     hw   23   4.096   3.726   6.000 -1.2381  0.1337 -1.0924
    6SOL     vw   24   4.163   3.709   5.948 -0.1283 -0.0252  0.3135
    7SOL     ow   25   4.285   3.511   6.635  0.6103  0.2828 -0.0032
    7SOL     hw   26   4.353   3.546   6.693  0.0959  2.2571 -0.5064
    7SOL     hw   27   4.278   3.419   6.659  3.0896  0.1227  0.4200
    7SOL     vw   28   4.293   3.504   6.646  0.8695  0.5221 -0.0136
    8SOL     ow   29   4.094   4.718   2.903  0.0105 -0.1794  0.4369
    8SOL     hw   30   4.167   4.657   2.912  1.0508  1.0289  0.3340
    8SOL     hw   31   4.110   4.785   2.969 -0.0639  1.0172 -0.7116
    8SOL     vw   32   4.105   4.719   2.913  0.1378  0.1380  0.2718
    9SOL     ow   33   2.552   7.164   0.199 -0.3669 -0.0604  0.3418
    9SOL     hw   34   2.585   7.203   0.119 -0.0405  1.0334  0.9873
    9SOL     hw   35   2.457   7.162   0.188 -0.4567  1.5769  0.5496
    9SOL     vw   36   2.544   7.169   0.187 -0.3357  0.3000  0.4544
   10SOL     ow   37   2.893   6.999   1.770  0.4071  0.6628  0.6752
   10SOL     hw   38   2.927   6.962   1.852 -0.4141 -3.4103 -0.5745
   10SOL     hw   39   2.801   7.016   1.788  0.3082  0.0982  0.7299
   10SOL     vw   40   2.885   6.996   1.783  0.2857  0.0510  0.5177
   11SOL     ow   41   4.524   2.958   3.254  0.3126 -0.0338  0.1592
   11SOL     hw   42   4.567   2.992   3.175  1.8565 -1.1535  0.4715
   11SOL     hw   43   4.436   2.935   3.225  0.8164 -0.3138 -1.2260
   11SOL     vw   44   4.518   2.959   3.240  0.5829 -0.2184  0.0176
   12SOL     ow   45   5.626   2.363   2.921 -0.2862  0.4873  0.1562
   12SOL     hw   46   5.694   2.358   2.988 -0.7828  2.0907  0.8465
   12SOL     hw   47   5.660   2.313   2.848  0.5020 -0.8992  1.4190
   12SOL     vw   48   5.639   2.356   2.920 -0.2475  0.5157  0.4140
   13SOL     ow   49   5.222   5.849   5.549  0.5873 -0.0616  0.8044
   13SOL     hw   50   5.266   5.781   5.600  0.2359 -0.2330  0.8848
   13SOL     hw   51   5.138   5.809   5.524  1.2537 -0.4511 -0.9696
   13SOL     vw   52   5.217   5.835   5.552  0.6289 -0.1357  0.5808
   14SOL     ow   53   3.353   5.405   3.240  0.4824 -0.2041  0.3087
   14SOL     hw   54   3.286   5.396   3.308 -0.8283  1.3239 -0.7198
   14SOL     hw   55   3.348   5.323   3.191 -1.3188  0.2289 -0.3084
   14SOL     vw   56   3.344   5.393   3.243  0.0719  0.0546  0.0917
   15SOL     ow   57   6.898   0.928   2.957 -0.1571 -0.0078  0.1976
   15SOL     hw   58   6.922   0.987   2.886  1.2121  1.4264  1.7721
   15SOL     hw   59   6.945   0.847   2.938  2.0909  1.1293  0.6110
   15SOL     vw   60   6.907   0.925   2.945  0.3204  0.3314  0.4599
   16SOL     ow   61   2.306   4.762   4.519 -0.0673  0.2510 -0.7030
   16SOL     hw   62   2.253   4.839   4.540 -1.3941 -0.5013 -1.1466
   16SOL     hw   63   2.244   4.702   4.478  0.8802 -1.1609 -0.1155
   16SOL     vw   64   2.291   4.765   4.517 -0.1174 -0.0343 -0.6843
   17SOL     ow   65   4.424   2.348   2.668  0.8622  0.7151 -0.0004
   17SOL     hw   66   4.368   2.307   2.602  2.0200 -2.1437  0.6669
   17SOL     hw   67   4.492   2.392   2.617 -0.1894  1.5615 -0.7292
   17SOL     vw   68   4.425   2.348   2.652  0.8762  0.4495 -0.0085
   18SOL     ow   69   6.138   2.081   0.152  0.3669  0.4299 -0.1706
   18SOL     hw   70   6.190   2.124   0.221 -1.0426  0.2718  1.0484
   18SOL     hw   71   6.185   1.999   0.134 -0.5323 -0.7713  2.4797
   18SOL     vw   72   6.151   2.076   0.159  0.0625  0.2503  0.3399
   19SOL     ow   73   7.058   4.588   4.472 -0.6215  0.1391  0.0321
   19SOL     hw   74   7.038   4.645   4.398  1.3354  0.4734 -0.3003
   19SOL     hw   75   7.131   4.631   4.516 -0.4527 -1.0734  0.9881
   19SOL     vw   76   7.065   4.601   4.468 -0.3412  0.0234  0.1147
   20SOL     ow   77   3.979   0.447   5.104 -0.1331 -0.2179 -0.7369
   20SOL     hw   78   4.012   0.463   5.015 -0.6939  1.9722 -0.6036
   20SOL     hw   79   4.057   0.447   5.159  0.2083 -1.4821 -1.1793
   20SOL     vw   80   3.994   0.449   5.099 -0.1620 -0.0957 -0.7775
   21SOL     ow   81   4.461   5.198   5.971  0.7822  0.2253  0.1729
   21SOL     hw   82   4.458   5.245   6.055 -0.9757  0.3619  0.0733
   21SOL     hw   83   4.440   5.107   5.993  0.2171  0.2800 -0.1172
   21SOL     vw   84   4.458   5.192   5.985  0.4756  0.2503  0.1216
   22SOL     ow   85   1.657   0.059   4.077  0.1916  0.0710  0.2766
   22SOL     hw   86   1.619   0.141   4.047 -0.7009  0.8261  3.1214
   22SOL     hw   87   1.723   0.037   4.011  1.2032  3.6091 -0.1042
   22SOL     vw   88   1.661   0.067   4.064  0.2073  0.6374  0.6015
   23SOL     ow   89   1.844   0.031   4.287 -0.0894 -0.2515  0.3346
   23SOL     hw   90   1.898  -0.041   4.253 -1.0154 -0.3366 -1.0622
   23SOL     hw   91   1.766   0.030   4.230 -1.7687 -0.4203  2.5131
   23SOL     vw   92   1.841   0.021   4.275 -0.4331 -0.2850  0.4380
   24SOL     ow   93   2.511   0.984   1.250 -0.0603  0.3315 -0.0312
   24SOL     hw   94   2.525   0.982   1.345  4.2668 -2.1858 -0.4494
   24SOL     hw   95   2.489   0.894   1.227  2.8556 -0.1006 -1.6526
   24SOL     vw   96   2.510   0.972   1.259  0.8954 -0.0577 -0.3003
   25SOL     ow   97   1.357   0.290   4.436 -0.0267 -0.1272 -0.1478
   25SOL     hw   98   1.390   0.360   4.380 -0.1689 -0.2929 -0.4395
   25SOL     hw   99   1.276   0.324   4.472  0.5527  0.3603  0.7299
   25SOL     vw  100   1.351   0.303   4.434  0.0309 -0.0847 -0.0706
   26SOL     ow  101   6.843   5.877   7.023  0.8038  0.3291  0.0065
   26SOL     hw  102   6.878   5.860   6.935  1.8305 -1.8612  0.7644
   26SOL     hw  103   6.753   5.845   7.020  0.7604  0.4835 -0.3223
   26SOL     vw  104   6.836   5.870   7.011  0.9336  0.0603  0.0634
   27SOL     ow  105   3.257   6.058   6.355  0.4760  0.0960  0.6071
   27SOL     hw  106   3.349   6.071   6.378  0.1980  0.1892  1.6905
   27SOL     hw  107   3.245   5.963   6.362  0.5144  0.0659  0.3126
   27SOL     vw  108   3.268   6.047   6.359  0.4445  0.1044  0.7112
   28SOL     ow  109   4.104   1.127   6.975 -0.1182 -0.1672 -0.4794
   28SOL     hw  110   4.042   1.150   6.906 -1.2763 -1.9885 -0.1377
   28SOL     hw  111   4.086   1.035   6.993 -1.3456  0.6740  3.6592
   28SOL     vw  112   4.093   1.118   6.968 -0.4330 -0.2965  0.1118
   29SOL     ow  113   3.332   7.097   1.778  0.5225 -0.6637  0.4763
   29SOL     hw  114   3.274   7.149   1.834 -1.1383  0.6328 -2.1903
   29SOL     hw  115   3.417   7.140   1.785 -0.8392  2.9268 -1.8247
   29SOL     vw  116   3.335   7.110   1.786  0.1237 -0.0189 -0.1792
   30SOL     ow  117   3.916   6.642   6.531  0.0068 -0.0031 -0.5383
   30SOL     hw  118   3.826   6.655   6.562 -0.3668 -1.0305 -1.1352
   30SOL     hw  119   3.971   6.671   6.603 -0.8290 -0.7559  0.4287
   30SOL     vw  120   3.911   6.648   6.544 -0.1529 -0.2377 -0.4897
   31SOL     ow  121   2.829   3.567   5.888 -0.2304 -0.2182  0.0455
   31SOL     hw  122   2.748   3.521   5.867 -0.5869  0.1341  0.6257
   31SOL     hw  123   2.892   3.536   5.822 -0.6762 -0.9194 -0.0625
   31SOL     vw  124   2.827   3.557   5.876 -0.3363 -0.2642  0.1078
   32SOL     ow  125   3.043   3.793   0.360 -0.0712 -0.3827  0.8955
   32SOL     hw  126   2.949   3.802   0.373 -0.2941 -1.6972  0.4210
   32SOL     hw  127   3.071   3.878   0.327 -0.6122  0.8796  3.4255
   32SOL     vw  128   3.034   3.805   0.357 -0.1718 -0.3895  1.1667
   33SOL     ow  129   6.673   6.201   0.933 -0.0028  0.2085  0.2920
   33SOL     hw  130   6.672   6.115   0.891 -0.4400  0.4174 -0.1478
   33SOL     hw  131   6.680   6.263   0.860 -3.2982  0.7031  0.2470
   33SOL     vw  132   6.674   6.198   0.918 -0.4952  0.3016  0.2280
   34SOL     ow  133   1.192   6.280   3.088 -0.0215 -0.0731 -0.4405
   34SOL     hw  134   1.109   6.284   3.041  0.2695  0.3266 -0.9335
   34SOL     hw  135   1.221   6.189   3.080 -1.4742 -0.7916  1.6271
   34SOL     vw  136   1.185   6.269   3.081 -0.1748 -0.1152 -0.2327
   35SOL     ow  137   0.198   0.285   0.062  0.5252 -0.1823  0.4688
   35SOL     hw  138   0.197   0.311  -0.029  1.0162 -0.2279  0.4466
   35SOL     hw  139   0.142   0.349   0.107  0.7515  0.1823  0.2298
   35SOL     vw  140   0.190   0.297   0.056  0.6199 -0.1402  0.4343
   36SOL     ow  141   2.437   0.260   5.010 -0.4128  0.0996 -0.1674
   36SOL     hw  142   2.433   0.336   4.952  0.5996  0.2414 -0.0636
   36SOL     hw  143   2.521   0.219   4.990 -0.2433 -0.0920  0.8958
   36SOL     vw  144   2.447   0.264   5.000 -0.2568  0.0931 -0.0134
   37SOL     ow  145   0.417   5.964   3.834  0.5963 -0.4165 -0.2459
   37SOL     hw  146   0.389   5.983   3.744  2.1161 -0.4452 -0.7696
   37SOL     hw  147   0.346   5.913   3.871  0.3137 -1.1904 -1.7468
   37SOL     vw  148   0.404   5.960   3.827  0.7595 -0.5224 -0.5128
   38SOL     ow  149   7.075   0.352   0.411  0.2153 -0.1897 -0.0959
   38SOL     hw  150   7.162   0.352   0.450 -0.4146  0.8737  1.4306
   38SOL     hw  151   7.089   0.382   0.322  1.4630 -0.5053 -0.0256
   38SOL     vw  152   7.088   0.356   0.405  0.2971 -0.0910  0.1148
   39SOL     ow  153   1.000   5.532   4.713 -0.1759  0.0430 -0.7160
   39SOL     hw  154   1.086   5.574   4.719  0.2029 -0.6982 -0.7260
   39SOL     hw  155   1.007   5.476   4.635 -0.0324 -1.3852  0.2873
   39SOL     vw  156   1.012   5.530   4.703 -0.1070 -0.2434 -0.5851
   40SOL     ow  157   2.221   6.781   6.990 -0.2291  0.7473  0.0393
   40SOL     hw  158   2.208   6.759   7.083 -0.8599  1.0443  0.0278
   40SOL     hw  159   2.269   6.706   6.954 -0.8255  0.1844  0.3927
   40SOL     vw  160   2.226   6.768   6.998 -0.3910  0.7126  0.0844
   41SOL     ow  161   5.113   2.113   3.251  0.3273  0.2445  0.1905
   41SOL     hw  162   5.096   2.039   3.308 -0.2378 -0.8615 -1.3532
   41SOL     hw  163   5.033   2.166   3.255  0.6740  0.7194  1.1734
   41SOL     vw  164   5.100   2.111   3.259  0.2985  0.1612  0.1166
   42SOL     ow  165   5.456   2.585   2.907 -0.2346 -0.6510 -0.6202
   42SOL     hw  166   5.502   2.502   2.920 -1.5586 -1.2435  0.6097
   42SOL     hw  167   5.366   2.560   2.885 -0.2839  0.4692 -1.7818
   42SOL     vw  168   5.450   2.570   2.906 -0.4158 -0.5814 -0.6111
   43SOL     ow  169   1.144   6.570   3.815 -0.5653  0.1279 -0.6859
   43SOL     hw  170   1.115   6.643   3.760 -0.6696 -0.9792 -2.1700
   43SOL     hw  171   1.232   6.595   3.844 -0.9452  1.2167 -0.4203
   43SOL     vw  172   1.152   6.583   3.812 -0.6292  0.1254 -0.8467
   44SOL     ow  173   6.132   6.317   2.579  0.0711 -0.2880 -0.0057
   44SOL     hw  174   6.112   6.391   2.522  1.2127  0.9837  1.1678
   44SOL     hw  175   6.099   6.344   2.665 -0.2991 -1.5474  0.2668
   44SOL     vw  176   6.125   6.331   2.583  0.1729 -0.2866  0.1849
   45SOL     ow  177   3.807   5.031   1.676 -0.5593  0.3103  0.4657
   45SOL     hw  178   3.789   5.064   1.588 -0.7250 -2.7117 -0.7632
   45SOL     hw  179   3.769   4.943   1.677  0.2277 -0.1153  3.2846
   45SOL     vw  180   3.799   5.023   1.665 -0.4774 -0.1447  0.6754
   46SOL     ow  181   1.755   2.431   5.249  0.3279  0.3296  0.2000
   46SOL     hw  182   1.822   2.481   5.296 -0.7716  0.1552  2.0619
   46SOL     hw  183   1.745   2.476   5.165 -0.0951  2.8181  1.5102
   46SOL     vw  184   1.763   2.443   5.244  0.1270  0.6350  0.6182
   47SOL     ow  185   6.627   5.318   1.510  0.1843  0.1259 -0.1829
   47SOL     hw  186   6.682   5.346   1.583  2.7221  1.9730 -2.5873
   47SOL     hw  187   6.576   5.395   1.486 -0.6918 -0.4812 -0.3489
   47SOL     vw  188   6.628   5.331   1.516  0.4034  0.2894 -0.5220
   48SOL     ow  189   3.499   3.335   3.485  0.0771  0.6535 -0.1032
   48SOL     hw  190   3.420   3.339   3.431 -0.7331  1.0446  1.0739
   48SOL     hw  191   3.533   3.247   3.471 -0.2490  0.6704 -1.0592
   48SOL     vw  192   3.493   3.324   3.476 -0.0728  0.7074 -0.0740
   49SOL     ow  193   2.910   0.893   4.127  0.3048  0.2031  0.5232
   49SOL     hw  194   2.988   0.931   4.168  1.0009 -0.9761  0.3330
   49SOL     hw  195   2.904   0.806   4.165 -0.0742 -0.2478 -0.5502
   49SOL     vw  196   2.920   0.887   4.137  0.3467 -0.0120  0.3564
   50SOL     ow  197   2.884   2.806   1.131 -0.3013 -0.5549 -0.4609
   50SOL     hw  198   2.826   2.814   1.207  0.1205  3.0314 -0.3095
   50SOL     hw  199   2.829   2.831   1.056  0.6229  1.8403 -0.4451
   50SOL     vw  200   2.869   2.810   1.131 -0.1237  0.2342 -0.4389
   51SOL     ow  201   0.985   0.513   4.799 -0.1554  0.6814 -0.4295
   51SOL     hw  202   0.948   0.481   4.882 -0.0858  1.2864 -0.1569
   51SOL     hw  203   0.909   0.542   4.749 -0.1262  1.1891 -0.1898
   51SOL     vw  204   0.970   0.513   4.803 -0.1423  0.8282 -0.3622
   52SOL     ow  205   0.728   1.880   2.296  0.7239  0.2860 -0.2288
   52SOL     hw  206   0.735   1.789   2.325  1.0772  0.3373 -0.1508
   52SOL     hw  207   0.818   1.907   2.279  0.5594  0.4054 -0.9253
   52SOL     vw  208   0.741   1.871   2.298  0.7488  0.3086 -0.3105
   53SOL     ow  209   6.773   4.361   5.509 -0.5031 -0.0930 -0.1045
   53SOL     hw  210   6.681   4.366   5.535  0.1917  0.3134  2.6091
   53SOL     hw  211   6.819   4.416   5.572  1.6244 -0.2232 -1.4326
   53SOL     vw  212   6.767   4.369   5.521 -0.1311 -0.0567  0.0782
   54SOL     ow  213   0.922   0.880   2.870  0.4718 -0.6702  0.0376
   54SOL     hw  214   0.923   0.826   2.949 -0.3832  1.1948  1.4171
   54SOL     hw  215   1.015   0.892   2.848  0.6853 -2.2752 -0.0514
   54SOL     vw  216   0.935   0.874   2.878  0.3872 -0.6359  0.2079
   55SOL     ow  217   0.708   2.045   0.376  0.6416  0.0170  0.3179
   55SOL     hw  218   0.687   2.009   0.462 -1.0443 -0.6855 -0.3527
   55SOL     hw  219   0.741   1.971   0.326 -3.0448 -0.8454 -1.1355
   55SOL     vw  220   0.709   2.031   0.381 -0.0672 -0.1894  0.0376
   56SOL     ow  221   0.346   0.812   1.566 -0.1518 -0.0085  0.2425
   56SOL     hw  222   0.314   0.755   1.496  0.9913 -0.1965 -0.1535
   56SOL     hw  223   0.406   0.757   1.616 -0.2095  0.4111  0.7841
   56SOL     vw  224   0.350   0.797   1.563 -0.0086  0.0220  0.2617
   57SOL     ow  225   5.639   3.503   6.336 -0.1403 -0.2521  0.3890
   57SOL     hw  226   5.565   3.475   6.390 -0.2774 -2.6019 -0.9063
   57SOL     hw  227   5.672   3.581   6.381 -1.6326 -0.7683  2.5744
   57SOL     vw  228   5.634   3.510   6.349 -0.3555 -0.6303  0.5064
   58SOL     ow  229   6.907   0.681   4.876 -0.0791  0.4291 -0.3554
   58SOL     hw  230   6.849   0.654   4.947 -1.5017  1.4242 -1.0881
   58SOL     hw  231   6.978   0.728   4.920 -0.2487 -0.0712  0.4920
   58SOL     vw  232   6.909   0.683   4.891 -0.2894  0.4943 -0.3402
   59SOL     ow  233   4.847   1.215   5.118 -0.6577  0.5689  0.1556
   59SOL     hw  234   4.870   1.175   5.202  2.8766  1.6530 -0.1183
   59SOL     hw  235   4.917   1.278   5.101 -0.1336 -0.8472 -4.4106
   59SOL     vw  236   4.860   1.218   5.127 -0.1221  0.5251 -0.4830
   60SOL     ow  237   2.518   5.688   4.676 -0.1896 -0.0125 -0.0818
   60SOL     hw  238   2.497   5.762   4.619  0.5455 -0.2086 -0.6231
   60SOL     hw  239   2.607   5.705   4.705  0.2791 -1.0562 -0.8263
   60SOL     vw  240   2.527   5.700   4.672 -0.0308 -0.1762 -0.2515
   61SOL     ow  241   6.256   1.532   1.869  1.1794  0.7356 -0.1284
   61SOL     hw  242   6.300   1.610   1.905 -0.2474  1.6977 -0.4009
   61SOL     hw  243   6.295   1.459   1.917  0.4370  1.8340  2.3460
   61SOL     vw  244   6.267   1.533   1.880  0.8936  1.0075  0.1621
   62SOL     ow  245   1.530   4.074   5.654 -0.3598 -0.1095 -0.1092
   62SOL     hw  246   1.574   4.095   5.571  1.8543 -2.2289  0.4229
   62SOL     hw  247   1.524   4.158   5.699 -1.8016  1.1461 -2.4244
   62SOL     vw  248   1.535   4.088   5.649 -0.2579 -0.2232 -0.3448
   63SOL     ow  249   3.192   2.654   3.844 -0.1703  0.0158 -0.2000
   63SOL     hw  250   3.158   2.692   3.925 -0.6926  0.6125 -0.6856
   63SOL     hw  251   3.246   2.580   3.873  0.6783  0.9719  0.7547
   63SOL     vw  252   3.195   2.649   3.858 -0.1273  0.2207 -0.1382
   64SOL     ow  253   4.668   2.358   2.862  0.0987  0.2160 -0.4163
   64SOL     hw  254   4.744   2.323   2.815 -0.0150 -0.5877 -0.0335
   64SOL     hw  255   4.698   2.367   2.952 -0.4628 -0.8577 -0.0965
   64SOL     vw  256   4.682   2.354   2.868  0.0095 -0.0318 -0.3235
   65SOL     ow  257   7.048   1.314   0.400  0.0875  0.1471  0.3180
   65SOL     hw  258   7.028   1.313   0.493  4.2312 -4.9818  1.5563
   65SOL     hw  259   7.137   1.347   0.394 -0.1778  0.6667 -1.9786
   65SOL     vw  260   7.057   1.319   0.411  0.5994 -0.4610  0.1784
   66SOL     ow  261   2.538   1.678   5.947  0.2920 -0.3934  0.4906
   66SOL     hw  262   2.546   1.598   5.999 -0.4877 -1.1833 -0.5778
   66SOL     hw  263   2.463   1.724   5.986 -0.9434 -1.4740 -0.5276
   66SOL     vw  264   2.529   1.674   5.959  0.0262 -0.6402  0.2153
   67SOL     ow  265   0.227   0.863   5.124 -0.3099  0.1659  0.1845
   67SOL     hw  266   0.278   0.875   5.204  1.1902  0.5187 -0.7884
   67SOL     hw  267   0.274   0.797   5.075 -0.1602  1.2755 -1.2318
   67SOL     vw  268   0.240   0.856   5.128 -0.0922  0.3588 -0.1304
   68SOL     ow  269   1.235   2.067   1.374  0.4792  0.4066  0.0431
   68SOL     hw  270   1.190   2.022   1.303  0.0153  0.9655 -0.0215
   68SOL     hw  271   1.165   2.112   1.422  0.8614  0.5404  0.4813
   68SOL     vw  272   1.219   2.067   1.371  0.4684  0.4979  0.0924
   69SOL     ow  273   5.324   0.405   1.231  0.5369 -0.3127  0.0073
   69SOL     hw  274   5.256   0.397   1.298  1.3344 -0.5166  0.8189
   69SOL     hw  275   5.285   0.367   1.153 -0.3352 -0.2874  0.4128
   69SOL     vw  276   5.310   0.399   1.230  0.5271 -0.3363  0.1679
   70SOL     ow  277   2.418   2.979   5.071 -0.4233  0.3997 -0.6945
   70SOL     hw  278   2.505   2.970   5.110 -0.0010 -1.1722 -1.9232
   70SOL     hw  279   2.406   2.900   5.019 -2.2284  1.0071 -1.2845
   70SOL     vw  280   2.428   2.967   5.069 -0.6057  0.2724 -0.9348
   71SOL     ow  281   2.334   1.587   0.183  0.3193 -0.0671  0.2424
   71SOL     hw  282   2.364   1.663   0.233 -0.9751  1.3597 -1.0348
   71SOL     hw  283   2.357   1.609   0.092 -0.2506 -1.1340 -0.1705
   71SOL     vw  284   2.341   1.600   0.177  0.0733 -0.0196  0.0194
   72SOL     ow  285   7.160   6.761   2.250  0.3975  0.6641  0.3041
   72SOL     hw  286   7.232   6.749   2.312 -0.1060 -0.8419  0.6310
   72SOL     hw  287   7.171   6.690   2.187 -0.2632  0.9824 -0.1818
   72SOL     vw  288   7.171   6.750   2.250  0.2437  0.5071  0.2831
   73SOL     ow  289   0.994   7.072   2.318  0.2568 -0.0132  0.4050
   73SOL     hw  290   0.966   6.981   2.307 -0.2576  0.2133 -0.2285
   73SOL     hw  291   1.027   7.097   2.231  3.9233 -0.7341  1.4127
   73SOL     vw  292   0.995   7.063   2.305  0.6727 -0.0782  0.4545
   74SOL     ow  293   3.519   3.100   0.550 -0.0627 -0.5988  0.3230
   74SOL     hw  294   3.561   3.137   0.628 -0.8919 -1.7463  1.3574
   74SOL     hw  295   3.428   3.130   0.556 -0.1780 -0.8559 -0.1126
   74SOL     vw  296   3.513   3.109   0.561 -0.1872 -0.7842  0.4020
   75SOL     ow  297   1.964   3.123   4.102 -0.6325 -0.5872 -0.6999
   75SOL     hw  298   2.032   3.060   4.078  0.7649  0.1697  1.0564
   75SOL     hw  299   1.885   3.069   4.110  0.0983 -1.7830 -1.1769
   75SOL     vw  300   1.962   3.107   4.100 -0.3516 -0.6450 -0.5312
   76SOL     ow  301   5.080   4.206   5.452  0.0369  0.1406 -0.2647
   76SOL     hw  302   5.134   4.132   5.482  0.7269  1.8701  3.2779
   76SOL     hw  303   5.126   4.241   5.376  0.8849 -1.6764 -0.6402
   76SOL     vw  304   5.093   4.201   5.446  0.2398  0.1292  0.1533
   77SOL     ow  305   5.246   7.132   0.491  0.2271  0.2532  0.4011
   77SOL     hw  306   5.326   7.162   0.535 -0.6504  0.6713  1.7455
   77SOL     hw  307   5.259   7.038   0.481  1.5817  0.5360 -0.8914
   77SOL     vw  308   5.259   7.124   0.495  0.2902  0.3455  0.4079
   78SOL     ow  309   0.168   4.229   3.202 -0.8454 -0.1831  0.4563
   78SOL     hw  310   0.146   4.209   3.112  0.1046 -0.7704  0.3367
   78SOL     hw  311   0.183   4.324   3.203  0.1478 -0.3168 -0.2462
   78SOL     vw  312   0.167   4.239   3.190 -0.5890 -0.2782  0.3480
   79SOL     ow  313   1.219   0.002   4.414  0.4797 -0.2114 -0.1060
   79SOL     hw  314   1.171  -0.014   4.495  1.4571 -0.1707  0.5030
   79SOL     hw  315   1.166  -0.039   4.345  0.0684 -0.9966  0.6667
   79SOL     vw  316   1.206  -0.005   4.415  0.5543 -0.3097  0.0763
   80SOL     ow  317   7.045   2.771   2.714  0.4134 -0.8588 -0.2481
   80SOL     hw  318   7.045   2.683   2.752 -2.1111 -0.3841  1.0688
   80SOL     hw  319   6.974   2.769   2.649  0.0357  0.2923  0.0993
   80SOL     vw  320   7.035   2.759   2.711  0.0305 -0.6443 -0.0285
   81SOL     ow  321   2.550   4.106   5.364 -0.1794 -0.2388 -0.0298
   81SOL     hw  322   2.528   4.198   5.368  0.2662 -0.0361 -1.5004
   81SOL     hw  323   2.475   4.065   5.322  0.0226 -0.3847 -0.2531
   81SOL     vw  324   2.537   4.112   5.359 -0.0939 -0.2313 -0.2532
   82SOL     ow  325   1.827   3.649   0.072  0.1061 -0.3620  0.6404
   82SOL     hw  326   1.812   3.613   0.159 -0.1750  0.5044  0.9651
   82SOL     hw  327   1.789   3.584   0.012 -2.5878  0.4336  1.3125
   82SOL     vw  328   1.820   3.636   0.075 -0.2864 -0.1428  0.7719
   83SOL     ow  329   3.360   6.799   4.656 -0.2842  0.3717 -0.2794
   83SOL     hw  330   3.442   6.781   4.610 -0.2449 -0.8305  0.2243
   83SOL     hw  331   3.293   6.751   4.606 -0.2373 -0.9780  0.8714
   83SOL     vw  332   3.362   6.790   4.643 -0.2729  0.0350 -0.0608
   84SOL     ow  333   1.652   0.043   6.672 -0.1766 -0.2560  0.9334
   84SOL     hw  334   1.582   0.003   6.723  0.2244 -2.5484 -0.1709
   84SOL     hw  335   1.683   0.115   6.726 -2.4495 -0.0223  2.0476
   84SOL     vw  336   1.647   0.047   6.685 -0.4236 -0.5276  0.9346
   85SOL     ow  337   0.018   4.313   2.380 -0.3664  0.4659  0.3918
   85SOL     hw  338   0.026   4.294   2.474  1.1573 -0.6248  0.0675
   85SOL     hw  339   0.084   4.380   2.364  0.2363 -0.2495 -0.1348
   85SOL     vw  340   0.028   4.319   2.390 -0.0859  0.2279  0.2795
   86SOL     ow  341   7.086   7.119   0.730 -0.2629 -0.4876 -0.0973
   86SOL     hw  342   7.017   7.125   0.796 -1.1488  0.4412 -1.0816
   86SOL     hw  343   7.163   7.091   0.779 -1.4177 -1.9628  0.9619
   86SOL     vw  344   7.087   7.116   0.745 -0.5322 -0.5597 -0.0874
   87SOL     ow  345   5.782   1.181   7.100  0.3030  0.7838 -0.4890
   87SOL     hw  346   5.794   1.134   7.183  1.6464  0.9914 -0.5377
   87SOL     hw  347   5.696   1.153   7.068 -0.1208  0.5043  0.8410
   87SOL     vw  348   5.772   1.171   7.107  0.4244  0.7743 -0.3200
   88SOL     ow  349   2.502   5.707   0.418 -0.1248  0.0279 -0.1705
   88SOL     hw  350   2.457   5.630   0.383  0.2764 -0.0650 -0.4860
   88SOL     hw  351   2.446   5.781   0.393 -0.1571 -0.0964 -0.4736
   88SOL     vw  352   2.489   5.707   0.410 -0.0762 -0.0010 -0.2521
   89SOL     ow  353   0.158   5.387   4.702 -0.2769 -0.0912  0.0095
   89SOL     hw  354   0.112   5.358   4.781 -1.3780 -0.7337 -0.8297
   89SOL     hw  355   0.088   5.399   4.637  0.7485 -1.2289 -1.3607
   89SOL     vw  356   0.142   5.385   4.704 -0.2869 -0.3262 -0.2823
   90SOL     ow  357   6.304   6.964   2.857 -0.1747 -0.6313  1.0523
   90SOL     hw  358   6.347   6.930   2.778  2.2738 -0.2266  2.1011
   90SOL     hw  359   6.309   6.892   2.920  2.0380  0.4253  2.2148
   90SOL     vw  360   6.310   6.950   2.855  0.4406 -0.4387  1.3441
   91SOL     ow  361   6.514   5.667   5.708 -0.4245  0.9363  0.5114
   91SOL     hw  362   6.525   5.574   5.728  0.6555  1.3251  1.9086
   91SOL     hw  363   6.573   5.683   5.634 -0.5782  0.5199  0.2980
   91SOL     vw  364   6.523   5.657   5.701 -0.3023  0.9329  0.6676
   92SOL     ow  365   2.096   4.951   6.511  0.3180 -0.2139 -0.4633
   92SOL     hw  366   2.037   4.897   6.563  1.6912  0.3537  1.8085
   92SOL     hw  367   2.046   5.031   6.493  0.3016  0.2276  1.3694
   92SOL     vw  368   2.082   4.954   6.515  0.4970 -0.0808  0.0782
   93SOL     ow  369   1.732   4.230   3.791  0.2503 -0.1885 -0.2115
   93SOL     hw  370   1.709   4.207   3.701  1.1540 -0.2696 -0.4289
   93SOL     hw  371   1.720   4.325   3.795 -1.4494 -0.3937  0.0857
   93SOL     vw  372   1.728   4.239   3.780  0.1452 -0.2263 -0.2010
   94SOL     ow  373   5.396   4.728   1.579 -0.6972 -0.1962 -0.6302
   94SOL     hw  374   5.422   4.763   1.494 -0.3859 -1.3670 -1.0383
   94SOL     hw  375   5.380   4.635   1.563  1.1325 -0.8534  0.9240
   94SOL     vw  376   5.397   4.721   1.566 -0.4146 -0.4373 -0.4791
   95SOL     ow  377   3.805   3.403   5.068 -0.7917 -0.0366  0.0624
   95SOL     hw  378   3.801   3.353   5.150 -1.2674 -2.0701 -1.1469
   95SOL     hw  379   3.852   3.346   5.007  1.2268  2.1950 -0.6389
   95SOL     vw  380   3.811   3.389   5.071 -0.5882 -0.0104 -0.1895
   96SOL     ow  381   6.184   5.668   5.603  0.2842  0.2102 -0.2310
   96SOL     hw  382   6.116   5.616   5.646  0.8072  0.4405  0.9272
   96SOL     hw  383   6.159   5.669   5.511 -1.1135  0.0438  0.1174
   96SOL     vw  384   6.172   5.661   5.596  0.1688  0.2186 -0.0322
   97SOL     ow  385   1.823   1.566   2.948  0.1846 -0.2222  0.6426
   97SOL     hw  386   1.898   1.619   2.922  0.0699 -1.1255 -1.8658
   97SOL     hw  387   1.747   1.619   2.925  0.0693 -0.5141  0.3433
   97SOL     vw  388   1.823   1.580   2.941  0.1543 -0.3799  0.2720
   98SOL     ow  389   1.046   5.002   5.985  0.6310  0.1495  0.9501
   98SOL     hw  390   1.098   5.057   5.926 -0.8714  1.7068  0.9706
   98SOL     hw  391   1.017   4.930   5.930  2.4529 -0.5490  0.8499
   98SOL     vw  392   1.049   5.000   5.970  0.6732  0.2630  0.9394
   99SOL     ow  393   2.713   6.041   6.597 -0.7466  0.1665  0.0736
   99SOL     hw  394   2.639   6.077   6.547 -0.8910  0.8541  0.7553
   99SOL     hw  395   2.785   6.101   6.580  0.2482 -1.5158 -2.0852
   99SOL     vw  396   2.712   6.054   6.588 -0.6343  0.0353 -0.1214
  100SOL     ow  397   6.535   6.155   5.302 -0.3318  0.5530  0.5808
  100SOL     hw  398   6.586   6.204   5.367 -0.5360  0.2175  1.0063
  100SOL     hw  399   6.444   6.172   5.327 -0.4093  0.3392  0.4415
  100SOL     vw  400   6.529   6.164   5.314 -0.3691  0.4804  0.6185
  101SOL     ow  401   1.615   3.040   1.453 -0.0384 -0.3412 -0.2355
  101SOL     hw  402   1.544   3.073   1.398 -1.0245 -1.7401  0.1191
  101SOL     hw  403   1.643   2.960   1.410  1.2384  0.1140 -0.2795
  101SOL     vw  404   1.609   3.034   1.440 -0.0001 -0.4658 -0.1945
  102SOL     ow  405   4.078   4.991   1.666 -0.2185  0.1529 -0.3965
  102SOL     hw  406   3.984   5.008   1.671  0.0384  1.3611  1.9313
  102SOL     hw  407   4.093   4.920   1.729  0.2516 -1.1656 -1.9337
  102SOL     vw  408   4.068   4.984   1.675 -0.1225  0.1383 -0.2922
  103SOL     ow  409   4.659   5.065   0.267  0.4993 -0.4021 -0.0131
  103SOL     hw  410   4.713   5.137   0.301  1.0184 -1.3364  1.2105
  103SOL     hw  411   4.722   5.007   0.224  0.5116 -1.5051  1.4322
  103SOL     vw  412   4.674   5.067   0.266  0.5693 -0.6707  0.3390
  104SOL     ow  413   4.326   6.342   2.718  0.1504 -0.0052  0.1272
  104SOL     hw  414   4.286   6.258   2.743  3.3261 -1.6241  0.3427
  104SOL     hw  415   4.330   6.339   2.623  1.3946 -0.7419  0.1826
  104SOL     vw  416   4.321   6.330   2.709  0.7336 -0.3161  0.1631
  105SOL     ow  417   0.580   5.661   4.839  0.7770  0.1081 -0.0562
  105SOL     hw  418   0.570   5.756   4.845 -0.6150 -0.1149  2.5155
  105SOL     hw  419   0.539   5.628   4.919  3.4405 -2.5286  0.3635
  105SOL     vw  420   0.573   5.669   4.850  0.9448 -0.2692  0.3386
  106SOL     ow  421   2.670   5.110   0.032  0.6930 -0.8227 -0.1715
  106SOL     hw  422   2.620   5.189   0.014 -0.2525 -1.8696 -2.4566
  106SOL     hw  423   2.756   5.126  -0.009  1.0082 -0.4590  0.6032
  106SOL     vw  424   2.675   5.123   0.024  0.6098 -0.9124 -0.3708
  107SOL     ow  425   6.664   6.009   5.021  0.4030 -0.1773 -0.1798
  107SOL     hw  426   6.619   5.973   4.944  0.5408  1.3889 -1.0402
  107SOL     hw  427   6.757   6.006   4.999  0.6142 -1.5120  0.7576
  107SOL     vw  428   6.670   6.004   5.008  0.4492 -0.1469 -0.1698
  108SOL     ow  429   0.240   2.829   2.696  0.6103 -0.0411  0.1136
  108SOL     hw  430   0.240   2.744   2.652  0.7889  0.3559 -0.6780
  108SOL     hw  431   0.306   2.880   2.649 -1.3756  1.4355 -1.2011
  108SOL     vw  432   0.249   2.824   2.684  0.3719  0.2061 -0.1642
  109SOL     ow  433   6.430   4.155   2.986  0.3411 -0.3970 -0.0225
  109SOL     hw  434   6.387   4.216   3.045  1.8937 -1.2358  2.1154
  109SOL     hw  435   6.359   4.110   2.941 -0.8565  1.6171 -0.2836
  109SOL     vw  436   6.415   4.157   2.988  0.3879 -0.2418  0.2252
  110SOL     ow  437   3.064   3.840   3.309 -0.3513 -0.1200  0.1319
  110SOL     hw  438   3.157   3.831   3.332  0.1219  1.1198 -1.1732
  110SOL     hw  439   3.037   3.753   3.281  0.5195 -0.4007  0.1561
  110SOL     vw  440   3.073   3.827   3.308 -0.1740  0.0066 -0.0370
  111SOL     ow  441   4.806   1.905   3.353 -0.8317  0.0205  0.1427
  111SOL     hw  442   4.789   1.885   3.261  0.4959  0.0043 -0.1250
  111SOL     hw  443   4.797   2.001   3.358 -1.7913 -0.0618  0.2115
  111SOL     vw  444   4.803   1.915   3.341 -0.7832  0.0076  0.1165
  112SOL     ow  445   2.994   5.853   6.043 -0.7767  0.1795  0.2470
  112SOL     hw  446   3.050   5.776   6.036  0.0025  0.7185  0.4516
  112SOL     hw  447   2.974   5.877   5.952 -1.2735 -0.4350  0.1891
  112SOL     vw  448   2.998   5.846   6.030 -0.7395  0.1698  0.2666
  113SOL     ow  449   1.768   7.068   6.396  0.1658  0.0710 -0.5241
  113SOL     hw  450   1.742   6.991   6.346 -1.7476 -0.2298  0.8297
  113SOL     hw  451   1.792   7.133   6.330  1.9573 -1.6523 -1.7076
  113SOL     vw  452   1.768   7.066   6.381  0.1497 -0.1957 -0.5016
  114SOL     ow  453   4.894   4.551   3.786  0.3874 -0.2751  0.9970
  114SOL     hw  454   4.860   4.475   3.833 -1.1551  0.8745  1.8691
  114SOL     hw  455   4.877   4.533   3.694 -5.0357  1.0879  1.3938
  114SOL     vw  456   4.887   4.539   3.780 -0.5314  0.0563  1.1644
  115SOL     ow  457   3.022   5.575   0.455  0.2624  0.2536  0.3691
  115SOL     hw  458   3.058   5.487   0.441 -0.8967 -0.0505 -0.9144
  115SOL     hw  459   3.046   5.624   0.376 -1.0949  0.3752  0.0049
  115SOL     vw  460   3.030   5.570   0.442 -0.0696  0.2294  0.1517
  116SOL     ow  461   1.688   4.566   2.967 -0.2555 -0.1323 -0.3174
  116SOL     hw  462   1.603   4.607   2.953 -0.0563  1.1100  1.5771
  116SOL     hw  463   1.684   4.535   3.058  1.6097  0.8304  0.1411
  116SOL     vw  464   1.676   4.568   2.977  0.0169  0.1588 -0.0072
  117SOL     ow  465   5.820   4.740   3.979 -0.5347  0.7912  0.2729
  117SOL     hw  466   5.908   4.716   3.950 -0.4631 -0.0717  1.1640
  117SOL     hw  467   5.764   4.668   3.950 -0.6273  0.4105  1.3384
  117SOL     vw  468   5.824   4.727   3.972 -0.5376  0.6273  0.5310
  118SOL     ow  469   5.917   0.730   0.973 -0.7063  0.5585  0.4771
  118SOL     hw  470   5.983   0.670   1.009  1.4535  0.4435 -3.1510
  118SOL     hw  471   5.962   0.815   0.968 -1.2120  0.7770 -0.9222
  118SOL     vw  472   5.932   0.733   0.977 -0.4880  0.5721 -0.1862
  119SOL     ow  473   0.048   4.248   1.044  0.0106  0.4347 -0.5917
  119SOL     hw  474  -0.033   4.232   0.995  0.2993 -2.4022 -0.3514
  119SOL     hw  475   0.116   4.203   0.994  0.9287  0.4292  0.6056
  119SOL     vw  476   0.046   4.240   1.031  0.1698  0.0598 -0.4020
  120SOL     ow  477   0.786   3.984   0.482 -0.1956 -1.1579  0.8449
  120SOL     hw  478   0.769   4.050   0.549  0.2136  0.4179 -0.5213
  120SOL     hw  479   0.845   4.027   0.421 -0.9372 -2.3444 -0.7894
  120SOL     vw  480   0.791   3.998   0.483 -0.2394 -1.1065  0.4490
  121SOL     ow  481   2.158   3.813   2.174 -0.0315  0.2467 -0.1532
  121SOL     hw  482   2.230   3.867   2.207  0.6297 -0.9036  0.3790
  121SOL     hw  483   2.143   3.844   2.085  0.9733  0.6569 -0.1965
  121SOL     vw  484   2.165   3.824   2.167  0.1884  0.1491 -0.0886
  122SOL     ow  485   5.011   3.412   2.153 -0.3135  0.0345 -0.8792
  122SOL     hw  486   5.057   3.431   2.234 -0.7111 -0.0765 -0.6248
  122SOL     hw  487   5.074   3.431   2.084  0.3109 -0.6599 -0.5178
  122SOL     vw  488   5.025   3.417   2.154 -0.2835 -0.0718 -0.7979
  123SOL     ow  489   5.645   3.049   1.128 -0.0897  0.1755  0.0834
  123SOL     hw  490   5.576   3.047   1.194 -0.4530 -0.2286 -0.3105
  123SOL     hw  491   5.635   3.134   1.085  0.9933  1.0418  1.4305
  123SOL     vw  492   5.635   3.060   1.131  0.0052  0.2365  0.2091
  124SOL     ow  493   7.087   0.883   1.325 -0.2289 -0.1183  0.0511
  124SOL     hw  494   7.142   0.958   1.302  0.2984 -0.5088  0.0386
  124SOL     hw  495   7.132   0.807   1.289 -0.8450 -0.4331 -0.0798
  124SOL     vw  496   7.100   0.883   1.318 -0.2406 -0.2114  0.0322
  125SOL     ow  497   0.423   4.238   4.351  0.2026  0.2916  0.2867
  125SOL     hw  498   0.454   4.148   4.352 -0.4398  0.0656  0.4694
  125SOL     hw  499   0.501   4.291   4.366  0.6693 -0.2047 -0.3732
  125SOL     vw  500   0.437   4.233   4.353  0.1795  0.1965  0.2234
  126SOL     ow  501   4.304   2.856   5.046  0.0635 -0.2358  0.7084
  126SOL     hw  502   4.370   2.791   5.021  0.3030  0.5610 -0.8474
  126SOL     hw  503   4.230   2.805   5.077 -0.3475 -1.3708 -1.9132
  126SOL     vw  504   4.303   2.841   5.047  0.0405 -0.2804  0.1571
  127SOL     ow  505   3.355   0.390   2.942 -0.5481 -0.1524 -0.3447
  127SOL     hw  506   3.340   0.334   3.018  2.3812  1.1885  1.3916
  127SOL     hw  507   3.450   0.399   2.937 -0.7972  2.8322 -1.8804
  127SOL     vw  508   3.366   0.384   2.951 -0.1945  0.4183 -0.3183
  128SOL     ow  509   3.698   5.356   6.975  0.2603  0.1192  0.2970
  128SOL     hw  510   3.741   5.400   7.048  1.5561  1.6695 -1.2956
  128SOL     hw  511   3.757   5.371   6.900 -1.3818 -0.7148 -1.2448
  128SOL     vw  512   3.712   5.364   6.975  0.2146  0.2139 -0.1166
  129SOL     ow  513   1.799   1.676   3.568  0.0640  0.2030 -0.3680
  129SOL     hw  514   1.751   1.711   3.643 -0.4663 -0.3336 -0.4421
  129SOL     hw  515   1.747   1.702   3.492 -0.5118 -0.9684 -0.4071
  129SOL     vw  516   1.786   1.684   3.568 -0.0820 -0.0224 -0.3829
  130SOL     ow  517   2.896   5.836   1.049 -0.6104  0.5645 -0.4383
  130SOL     hw  518   2.960   5.772   1.082 -0.1744  1.6137  0.8336
  130SOL     hw  519   2.947   5.892   0.990 -1.0662 -0.4021 -1.8216
  130SOL     vw  520   2.911   5.835   1.045 -0.6130  0.5753 -0.4530
  131SOL     ow  521   0.190   6.250   3.632 -0.0068  0.3990 -0.2274
  131SOL     hw  522   0.237   6.327   3.598 -0.5238  1.3528  1.1026
  131SOL     hw  523   0.248   6.176   3.613 -0.0102  0.9221 -2.5898
  131SOL     vw  524   0.204   6.251   3.625 -0.0754  0.5937 -0.3636
  132SOL     ow  525   0.479   1.899   2.184 -0.5956 -0.6024 -0.8788
  132SOL     hw  526   0.452   1.990   2.175 -0.0408 -0.1043  1.6651
  132SOL     hw  527   0.575   1.903   2.189 -0.5652 -1.3355 -0.7808
  132SOL     vw  528   0.488   1.912   2.184 -0.5184 -0.6335 -0.5302
  133SOL     ow  529   5.006   5.907   1.744 -0.9426 -0.4502  0.6761
  133SOL     hw  530   4.944   5.861   1.801  0.5601 -0.7242  2.1722
  133SOL     hw  531   5.067   5.840   1.715 -0.9309 -0.0663 -0.2111
  133SOL     vw  532   5.006   5.892   1.748 -0.7429 -0.4356  0.7565
  134SOL     ow  533   1.585   7.061   5.314 -0.5522  0.4924  0.1931
  134SOL     hw  534   1.585   6.966   5.307 -1.4196  0.3678  1.5133
  134SOL     hw  535   1.552   7.091   5.230  0.0152 -0.3635 -0.3434
  134SOL     vw  536   1.581   7.053   5.302 -0.5918  0.3631  0.2968
  135SOL     ow  537   6.645   6.318   3.418  0.6914 -0.0745 -0.2433
  135SOL     hw  538   6.646   6.265   3.338  0.8495  1.8463 -1.5905
  135SOL     hw  539   6.566   6.290   3.465  0.1117 -0.6338 -1.5129
  135SOL     vw  540   6.635   6.307   3.414  0.6359  0.1051 -0.5887
  136SOL     ow  541   5.255   0.595   3.285  0.0862 -0.7642  0.5797
  136SOL     hw  542   5.348   0.613   3.279  0.2036 -1.7301 -1.1065
  136SOL     hw  543   5.213   0.677   3.258  0.4853 -0.8417 -0.3061
  136SOL     vw  544   5.261   0.608   3.281  0.1543 -0.9018  0.2403
  137SOL     ow  545   1.286   6.238   3.362 -0.3800 -0.0324  0.8105
  137SOL     hw  546   1.235   6.162   3.335 -1.5436  0.0215  2.6821
  137SOL     hw  547   1.366   6.201   3.400 -0.9400 -0.3451  1.7104
  137SOL     vw  548   1.290   6.223   3.364 -0.6074 -0.0665  1.1762
  138SOL     ow  549   4.726   1.014   4.995 -1.0074  0.6427  1.1165
  138SOL     hw  550   4.778   1.075   5.048 -0.2676  1.1712 -0.1713
  138SOL     hw  551   4.787   0.984   4.928 -2.2456  0.9088 -0.1587
  138SOL     vw  552   4.741   1.018   4.993 -1.0729  0.7476  0.7782
  139SOL     ow  553   6.426   0.122   3.810 -0.0877 -0.0986  0.1384
  139SOL     hw  554   6.507   0.095   3.766 -0.7873  0.7409 -1.7693
  139SOL     hw  555   6.368   0.149   3.739 -1.8714 -0.1798  1.4967
  139SOL     vw  556   6.429   0.122   3.795 -0.4156  0.0014  0.0658
  140SOL     ow  557   3.496   4.043   6.048  0.1745 -0.5799 -0.2750
  140SOL     hw  558   3.519   3.951   6.054  2.3614 -0.0951 -0.3327
  140SOL     hw  559   3.464   4.054   5.958  0.0277 -1.2531 -0.3106
  140SOL     vw  560   3.495   4.032   6.037  0.4436 -0.6049 -0.2873
  141SOL     ow  561   2.311   1.818   6.104  0.4435 -0.6050  0.1547
  141SOL     hw  562   2.221   1.785   6.106 -0.4159  1.4498 -0.9059
  141SOL     hw  563   2.329   1.845   6.194  0.1324 -1.3173  0.4368
  141SOL     vw  564   2.301   1.817   6.116  0.2891 -0.4279  0.0520
  142SOL     ow  565   2.545   7.106   4.404 -0.0052  0.2866  0.6116
  142SOL     hw  566   2.570   7.155   4.482 -1.8142  1.1828  0.6956
  142SOL     hw  567   2.560   7.014   4.427  1.0286  0.6428  1.4018
  142SOL     vw  568   2.550   7.100   4.417 -0.1075  0.4520  0.7269
  143SOL     ow  569   3.376   5.475   4.357 -0.1041  0.4259 -0.3874
  143SOL     hw  570   3.435   5.537   4.399  1.3445 -0.5673 -0.9035
  143SOL     hw  571   3.402   5.390   4.390 -1.5541 -0.0095 -0.2852
  143SOL     vw  572   3.387   5.472   4.367 -0.1043  0.2377 -0.4420
  144SOL     ow  573   5.383   2.793   3.087  0.0875  0.6258 -0.0744
  144SOL     hw  574   5.329   2.843   3.026 -0.9155 -0.2518  0.0711
  144SOL     hw  575   5.389   2.706   3.048  0.7424  0.4895  0.3155
  144SOL     vw  576   5.377   2.788   3.074  0.0415  0.4920 -0.0038
  145SOL     ow  577   1.353   6.296   6.963  0.8568 -0.2207  0.2167
  145SOL     hw  578   1.350   6.389   6.985 -1.7408  0.2874 -1.7915
  145SOL     hw  579   1.427   6.287   6.903  2.5523  0.0221  2.1601
  145SOL     vw  580   1.362   6.307   6.958  0.7378 -0.1216  0.2084
  146SOL     ow  581   2.891   1.686   4.845 -0.0242  0.5675  0.0010
  146SOL     hw  582   2.859   1.619   4.906  1.8476  0.6307  1.1460
  146SOL     hw  583   2.844   1.669   4.764 -1.8265 -0.2065  1.1393
  146SOL     vw  584   2.881   1.675   4.843 -0.0150  0.4737  0.3026
  147SOL     ow  585   3.576   6.982   4.399 -0.5653 -0.0722 -0.6572
  147SOL     hw  586   3.663   7.020   4.386 -0.5012 -0.8751 -2.9535
  147SOL     hw  587   3.581   6.897   4.356 -2.0506 -0.7838  0.5178
  147SOL     vw  588   3.588   6.976   4.392 -0.7528 -0.2718 -0.8054
  148SOL     ow  589   4.023   0.833   7.020  0.4282  0.1945 -0.0322
  148SOL     hw  590   4.001   0.764   6.958 -0.1707 -0.2758  0.6863
  148SOL     hw  591   3.938   0.872   7.044  0.4693 -0.6729  1.6658
  148SOL     vw  592   4.009   0.829   7.015  0.3548  0.0181  0.2868
  149SOL     ow  593   5.654   4.550   2.026  0.2598 -0.4652  0.0852
  149SOL     hw  594   5.703   4.632   2.026  1.2370 -1.0400 -0.6958
  149SOL     hw  595   5.709   4.489   2.076 -0.8583 -0.4449  1.4227
  149SOL     vw  596   5.668   4.553   2.033  0.2410 -0.5386  0.1587
  150SOL     ow  597   5.295   6.402   1.794 -0.1715  0.6001  0.0856
  150SOL     hw  598   5.320   6.404   1.886 -0.3177  1.3319  0.1118
  150SOL     hw  599   5.235   6.476   1.784  0.5847  1.1073 -0.8159
  150SOL     vw  600   5.290   6.412   1.805 -0.0908  0.7637 -0.0299
  151SOL     ow  601   3.164   0.899   2.831  0.6251  0.8016 -0.5627
  151SOL     hw  602   3.147   0.883   2.738  1.6207  1.4369 -0.8696
  151SOL     hw  603   3.203   0.986   2.833  0.1253  1.0114  0.5198
  151SOL     vw  604   3.167   0.908   2.819  0.6906  0.9131 -0.4604
  152SOL     ow  605   3.940   3.273   4.842  0.1726 -0.3156  0.0880
  152SOL     hw  606   3.874   3.225   4.792 -0.6091  1.3140 -0.5090
  152SOL     hw  607   3.964   3.347   4.786  0.8111  0.4007  1.2575
  152SOL     vw  608   3.935   3.276   4.828  0.1538 -0.0061  0.1636
  153SOL     ow  609   5.747   5.449   5.011 -0.7319  0.0607 -0.4425
  153SOL     hw  610   5.804   5.378   5.042 -0.4738  0.8338  0.9299
  153SOL     hw  611   5.803   5.503   4.956 -0.1008  0.8137  0.8958
  153SOL     vw  612   5.762   5.446   5.008 -0.6146  0.2623 -0.0846
  154SOL     ow  613   0.300   4.605   0.299 -0.3707 -0.4657 -0.9540
  154SOL     hw  614   0.385   4.590   0.342 -1.5325  0.2018  1.7464
  154SOL     hw  615   0.294   4.700   0.290 -1.6034 -0.3647  0.6278
  154SOL     vw  616   0.311   4.615   0.303 -0.6866 -0.3643 -0.3890
  155SOL     ow  617   6.742   4.244   3.521 -0.0762 -0.0004  0.4398
  155SOL     hw  618   6.700   4.245   3.435  0.4695  0.9740  0.1684
  155SOL     hw  619   6.711   4.163   3.562 -1.5233  0.2610 -0.0745
  155SOL     vw  620   6.732   4.233   3.515 -0.1953  0.1624  0.3362
  156SOL     ow  621   5.085   5.244   1.757  0.1317 -0.5092  0.5944
  156SOL     hw  622   5.114   5.163   1.800  2.0343 -0.0371  0.2992
  156SOL     hw  623   5.122   5.237   1.669  0.2181  0.6160  0.5384
  156SOL     vw  624   5.094   5.232   1.751  0.3943 -0.2985  0.5480
  157SOL     ow  625   0.738   7.017   1.845  0.2441  0.0226 -0.6610
  157SOL     hw  626   0.827   7.000   1.875  1.3652  1.4686 -2.8814
  157SOL     hw  627   0.718   6.944   1.787 -1.0559 -1.6061  1.7120
  157SOL     vw  628   0.747   7.005   1.841  0.2204 -0.0017 -0.6409
  158SOL     ow  629   2.959   2.313   3.750  0.4954  0.2430 -0.0307
  158SOL     hw  630   2.911   2.241   3.791 -0.6981  0.6205 -0.7267
  158SOL     hw  631   2.996   2.274   3.670 -0.7955  0.5490 -0.8150
  158SOL     vw  632   2.958   2.298   3.745  0.1676  0.3330 -0.2259
  159SOL     ow  633   6.842   1.754   0.295 -0.3234 -0.1826  0.5261
  159SOL     hw  634   6.832   1.771   0.388 -3.1549 -0.7255  0.3853
  159SOL     hw  635   6.808   1.832   0.252 -1.4949 -0.9872 -0.0466
  159SOL     vw  636   6.836   1.767   0.301 -0.8514 -0.3604  0.4319
  160SOL     ow  637   2.480   3.951   3.455 -0.2756  0.0894 -0.0478
  160SOL     hw  638   2.507   3.873   3.407  1.5442 -2.0657  3.9045
  160SOL     hw  639   2.423   3.917   3.524  1.8272  1.8488  2.7683
  160SOL     vw  640   2.476   3.936   3.458  0.2419  0.0372  0.8451
  161SOL     ow  641   3.514   1.336   6.144 -0.4939  0.2597 -0.3682
  161SOL     hw  642   3.522   1.266   6.210 -0.7798  1.7888  1.3604
  161SOL     hw  643   3.529   1.417   6.193  1.2848  1.3785 -2.5929
  161SOL     vw  644   3.517   1.337   6.159 -0.2970  0.6092 -0.4334
  162SOL     ow  645   3.486   5.508   2.190 -0.1136 -0.2203 -0.5957
  162SOL     hw  646   3.574   5.538   2.210 -1.2276  1.5081  2.4596
  162SOL     hw  647   3.451   5.575   2.131  0.4302 -0.6832 -1.4657
  162SOL     vw  648   3.493   5.521   2.185 -0.1887 -0.0536 -0.3074
  163SOL     ow  649   4.387   3.205   1.481  0.2606 -0.1810 -0.1405
  163SOL     hw  650   4.326   3.266   1.441  0.8324 -0.9040 -2.2326
  163SOL     hw  651   4.341   3.121   1.480 -0.2298  0.0150  2.0181
  163SOL     vw  652   4.373   3.202   1.476  0.2716 -0.2506 -0.1317
  164SOL     ow  653   5.172   4.113   2.662  0.0242 -0.3310 -0.1254
  164SOL     hw  654   5.210   4.034   2.624 -1.7420 -0.6289 -1.4079
  164SOL     hw  655   5.205   4.185   2.608  1.9705 -0.0711  1.2985
  164SOL     vw  656   5.181   4.112   2.650  0.0479 -0.3359 -0.1068
  165SOL     ow  657   3.457   6.737   4.960 -0.0197  0.6109 -0.2273
  165SOL     hw  658   3.441   6.742   5.054 -0.0281 -0.4678 -0.1624
  165SOL     hw  659   3.446   6.645   4.938  0.3786  0.7821 -1.2193
  165SOL     vw  660   3.453   6.726   4.970  0.0316  0.4911 -0.3495
  166SOL     ow  661   3.493   0.613   6.605 -0.7076  0.7538  0.6116
  166SOL     hw  662   3.506   0.599   6.699  2.0543  2.3186  0.5592
  166SOL     hw  663   3.436   0.689   6.599 -0.5525  0.9004  1.0073
  166SOL     vw  664   3.487   0.621   6.616 -0.3227  0.9796  0.6568
  167SOL     ow  665   2.412   6.318   0.929 -0.3875  0.0809  0.8782
  167SOL     hw  666   2.355   6.393   0.946 -1.8027 -0.3604 -1.4499
  167SOL     hw  667   2.356   6.242   0.943  0.3519 -0.4558  0.9340
  167SOL     vw  668   2.397   6.318   0.933 -0.4766 -0.0479  0.5784
  168SOL     ow  669   7.149   6.732   0.924 -0.0173 -0.2508 -0.6555
  168SOL     hw  670   7.066   6.775   0.908 -0.8559 -1.1787  0.9141
  168SOL     hw  671   7.212   6.778   0.868 -1.3646  1.1807 -1.0489
  168SOL     vw  672   7.147   6.744   0.915 -0.3057 -0.1848 -0.5003
  169SOL     ow  673   3.712   5.853   0.868  0.0840  0.0773  0.1098
  169SOL     hw  674   3.698   5.766   0.831  1.7038  0.2569 -1.0853
  169SOL     hw  675   3.730   5.908   0.791 -0.8861  1.4629  0.8463
  169SOL     vw  676   3.713   5.849   0.853  0.1696  0.2837  0.0493
  170SOL     ow  677   2.465   1.989   5.769 -0.3442  0.2709 -0.0328
  170SOL     hw  678   2.417   1.974   5.688  1.7383  0.8333 -1.4703
  170SOL     hw  679   2.552   2.016   5.740  0.5752  0.1859  2.4117
  170SOL     vw  680   2.470   1.991   5.754  0.0517  0.3339  0.1001
  171SOL     ow  681   5.762   0.840   0.744  0.7639  0.2143 -0.5132
  171SOL     hw  682   5.678   0.851   0.789  1.4126 -1.9273  1.3912
  171SOL     hw  683   5.768   0.916   0.686 -1.4996  1.5535  0.8521
  171SOL     vw  684   5.751   0.851   0.742  0.5510  0.1085 -0.0818
  172SOL     ow  685   2.994   3.387   5.007 -0.7295 -0.2202  0.5307
  172SOL     hw  686   2.997   3.461   5.068 -1.8528 -0.7458  1.2623
  172SOL     hw  687   2.960   3.314   5.060  0.4970 -1.3146 -0.1287
  172SOL     vw  688   2.990   3.387   5.022 -0.7157 -0.4340  0.5403
  173SOL     ow  689   0.714   1.260   1.647 -0.0481 -0.3491  0.1908
  173SOL     hw  690   0.717   1.336   1.705  0.5447 -0.3255  0.1376
  173SOL     hw  691   0.635   1.273   1.594 -0.8033 -0.5554  1.2396
  173SOL     vw  692   0.704   1.272   1.648 -0.0695 -0.3732  0.3222
  174SOL     ow  693   5.834   0.501   5.763 -0.3490  0.2418  0.1285
  174SOL     hw  694   5.915   0.549   5.780 -1.1338  0.8895  2.4052
  174SOL     hw  695   5.859   0.409   5.766  0.1366  0.4037  2.1200
  174SOL     vw  696   5.848   0.495   5.766 -0.3884  0.3486  0.6917
  175SOL     ow  697   6.807   6.643   4.675  0.2732  0.3805  0.0525
  175SOL     hw  698   6.729   6.698   4.679 -0.2624 -0.1309 -2.0266
  175SOL     hw  699   6.773   6.553   4.678  0.3115  0.0194 -4.1034
  175SOL     vw  700   6.792   6.638   4.675  0.2077  0.2654 -0.7703
  176SOL     ow  701   0.618   5.698   3.907  0.1317  0.2694  0.0339
  176SOL     hw  702   0.646   5.663   3.991  2.0477 -1.5179 -1.2220
  176SOL     hw  703   0.570   5.625   3.866 -1.0961  1.2330 -0.3184
  176SOL     vw  704   0.615   5.684   3.912  0.2225  0.1607 -0.1781
  177SOL     ow  705   1.298   2.330   7.151  0.0087  0.5774  0.4318
  177SOL     hw  706   1.264   2.415   7.124 -1.9448 -0.2126  0.2119
  177SOL     hw  707   1.281   2.327   7.246  1.5257  1.0260  0.7470
  177SOL     vw  708   1.291   2.341   7.160 -0.0489  0.5324  0.4444
  178SOL     ow  709   1.939   1.260   2.938  0.0880  0.1547 -0.3012
  178SOL     hw  710   2.027   1.236   2.967  1.0266  1.9157 -1.4996
  178SOL     hw  711   1.903   1.179   2.901  1.8433 -0.2271 -1.2868
  178SOL     vw  712   1.946   1.246   2.937  0.4433  0.3367 -0.5893
  179SOL     ow  713   3.677   4.424   6.280  0.5440  0.4374 -0.2835
  179SOL     hw  714   3.663   4.519   6.285  1.2391  0.4783  2.6951
  179SOL     hw  715   3.772   4.414   6.274  0.4489 -0.0704 -0.9451
  179SOL     vw  716   3.687   4.435   6.280  0.6233  0.3757  0.0219
  180SOL     ow  717   0.889   0.004   2.515  0.4435 -0.1490 -0.5013
  180SOL     hw  718   0.945   0.080   2.532 -0.0953  0.1579 -0.0511
  180SOL     hw  719   0.929  -0.039   2.439  0.3755  0.9786 -1.2080
  180SOL     vw  720   0.901   0.009   2.507  0.3634  0.0403 -0.5351
  181SOL     ow  721   7.114   4.563   0.014  0.0862 -0.1788  0.4141
  181SOL     hw  722   7.102   4.630   0.081  0.5533  0.1061  0.2223
  181SOL     hw  723   7.030   4.561  -0.033 -0.1852 -0.2651  0.8937
  181SOL     vw  724   7.101   4.572   0.016  0.1121 -0.1528  0.4521
  182SOL     ow  725   4.994   6.157   6.293 -0.3298 -1.0184 -0.5167
  182SOL     hw  726   5.014   6.249   6.276 -1.1213 -1.1437 -2.4063
  182SOL     hw  727   5.079   6.117   6.312  0.0143  0.1052  0.3667
  182SOL     vw  728   5.008   6.164   6.293 -0.3889 -0.8869 -0.6495
  183SOL     ow  729   4.019   0.135   2.020 -0.5283 -0.0225  0.0385
  183SOL     hw  730   4.055   0.178   1.943  0.6240 -2.2371 -0.7324
  183SOL     hw  731   3.955   0.072   1.985 -1.1443  0.0317  1.0198
  183SOL     vw  732   4.015   0.132   2.005 -0.4578 -0.3075  0.0662
  184SOL     ow  733   1.298   1.480   4.059  0.6257  0.8673 -0.1942
  184SOL     hw  734   1.230   1.484   3.992 -0.5679 -2.3289  0.6543
  184SOL     hw  735   1.331   1.390   4.055  0.9368  0.7169  3.0517
  184SOL     vw  736   1.294   1.469   4.050  0.5093  0.4257  0.3459
  185SOL     ow  737   2.707   4.664   3.252  0.0068 -0.1747  0.7678
  185SOL     hw  738   2.675   4.687   3.165 -0.9153 -1.4623  0.7363
  185SOL     hw  739   2.637   4.612   3.291  1.1172 -1.1179  1.6059
  185SOL     vw  740   2.694   4.660   3.246  0.0316 -0.4690  0.8743
  186SOL     ow  741   0.922   3.243   2.469 -0.4161 -0.3618  0.7632
  186SOL     hw  742   0.911   3.221   2.561 -1.6133  0.3014  0.7967
  186SOL     hw  743   1.016   3.236   2.453 -0.2256 -0.6864  1.9753
  186SOL     vw  744   0.933   3.239   2.479 -0.5489 -0.3171  0.9274
  187SOL     ow  745   2.062   1.494   3.614 -0.7969 -0.7272  0.5509
  187SOL     hw  746   2.110   1.413   3.593 -0.5128 -0.1752 -1.0506
  187SOL     hw  747   2.130   1.560   3.624 -1.1567  0.0804 -1.7996
  187SOL     vw  748   2.077   1.492   3.613 -0.8069 -0.5478  0.0294
  188SOL     ow  749   5.213   6.544   5.463 -0.0845 -0.3724  0.2325
  188SOL     hw  750   5.268   6.502   5.529 -0.6750 -1.8610 -0.1785
  188SOL     hw  751   5.126   6.547   5.502 -0.5660 -1.8088 -0.6666
  188SOL     vw  752   5.209   6.539   5.477 -0.2263 -0.7582  0.0594
  189SOL     ow  753   3.570   6.868   2.682 -0.6507  0.1769  0.2758
  189SOL     hw  754   3.563   6.944   2.739 -0.5166 -1.1351  2.1753
  189SOL     hw  755   3.651   6.882   2.632 -1.8756  2.3580 -1.2245
  189SOL     vw  756   3.580   6.880   2.683 -0.7946  0.2913  0.3284
  190SOL     ow  757   2.191   2.389   0.284 -0.2990 -0.7061  0.3188
  190SOL     hw  758   2.257   2.335   0.327 -1.5821 -1.1791  1.7868
  190SOL     hw  759   2.131   2.326   0.244 -0.2800 -0.3042 -0.3545
  190SOL     vw  760   2.192   2.373   0.284 -0.4658 -0.7155  0.4236
  191SOL     ow  761   1.567   2.157   6.747  0.8550 -0.3346 -0.3865
  191SOL     hw  762   1.600   2.109   6.671  2.2949  0.1380 -0.0945
  191SOL     hw  763   1.535   2.239   6.711  0.4977 -0.5658 -0.6071
  191SOL     vw  764   1.567   2.161   6.732  0.9977 -0.3027 -0.3772
  192SOL     ow  765   5.749   2.531   4.364 -0.0966  0.3314 -0.4269
  192SOL     hw  766   5.831   2.577   4.383  1.1085 -2.6265  2.6360
  192SOL     hw  767   5.772   2.471   4.292 -0.1175  0.7518 -0.7881
  192SOL     vw  768   5.763   2.529   4.357  0.0596 -0.0035 -0.0706
  193SOL     ow  769   2.317   1.217   1.330  0.2279 -0.0699 -0.3512
  193SOL     hw  770   2.366   1.276   1.388 -0.0769 -0.6381  0.5156
  193SOL     hw  771   2.225   1.243   1.343  0.1425 -0.3327 -0.4325
  193SOL     vw  772   2.311   1.228   1.340  0.1764 -0.1796 -0.2476
  194SOL     ow  773   2.286   5.735   0.990  1.0457  0.1476 -0.3243
  194SOL     hw  774   2.321   5.798   0.926  0.3387  1.2290  0.3337
  194SOL     hw  775   2.232   5.676   0.937  2.7022 -0.7168 -1.1442
  194SOL     vw  776   2.284   5.735   0.974  1.1711  0.1762 -0.3456
  195SOL     ow  777   6.617   2.185   2.199 -0.2659 -0.2606  0.5672
  195SOL     hw  778   6.535   2.152   2.162  1.1466 -0.7645 -2.4270
  195SOL     hw  779   6.597   2.274   2.226 -1.7586 -0.3042 -0.2928
  195SOL     vw  780   6.603   2.192   2.198 -0.2763 -0.3330  0.0587
  196SOL     ow  781   4.223   0.040   4.009  0.0217 -0.0090  0.0730
  196SOL     hw  782   4.261   0.087   4.084 -0.5282 -1.0365  1.0100
  196SOL     hw  783   4.140   0.007   4.041 -0.6484  0.3050 -1.2890
  196SOL     vw  784   4.217   0.042   4.023 -0.1390 -0.1031  0.0169
  197SOL     ow  785   6.325   1.331   2.028  0.2894  0.2146  0.4485
  197SOL     hw  786   6.372   1.248   2.032 -1.5534 -0.9327 -0.0487
  197SOL     hw  787   6.308   1.354   2.119  0.2193 -0.3361  0.5766
  197SOL     vw  788   6.329   1.323   2.040  0.0372 -0.0094  0.3997
  198SOL     ow  789   0.475   2.241   0.260  0.6443  0.0015  0.4496
  198SOL     hw  790   0.402   2.279   0.309  0.7820  0.3044  0.4223
  198SOL     hw  791   0.434   2.178   0.201  0.1836  1.5056 -0.9274
  198SOL     vw  792   0.460   2.238   0.259  0.6017  0.2398  0.2643
  199SOL     ow  793   2.630   1.436   6.037 -0.2102  0.1339  0.4930
  199SOL     hw  794   2.560   1.408   5.978 -0.4068  0.3177  0.6372
  199SOL     hw  795   2.646   1.360   6.092 -1.2365  0.5175  1.3544
  199SOL     vw  796   2.623   1.422   6.037 -0.3717  0.2088  0.6256
  200SOL     ow  797   0.942   5.286   3.622  0.9677 -0.3907  0.2879
  200SOL     hw  798   0.971   5.300   3.712  0.8996 -0.9094  0.3922
  200SOL     hw  799   1.014   5.236   3.582 -0.1168 -2.4570  0.7845
  200SOL     vw  800   0.956   5.281   3.629  0.8157 -0.7317  0.3672
  201SOL     ow  801   4.754   3.452   4.052 -0.2755 -0.0242  0.2844
  201SOL     hw  802   4.696   3.390   4.094  0.1718 -0.6853 -0.0502
  201SOL     hw  803   4.797   3.402   3.982 -1.0305  1.0313 -1.0001
  201SOL     vw  804   4.752   3.437   4.048 -0.3161  0.0279  0.0706
  202SOL     ow  805   1.557   5.921   3.081  0.4419  0.7964  0.1387
  202SOL     hw  806   1.613   5.982   3.128 -0.3494  2.8589 -1.4366
  202SOL     hw  807   1.604   5.903   2.999  1.2914 -1.8600  1.1136
  202SOL     vw  808   1.570   5.926   3.076  0.4496  0.7179  0.0594
  203SOL     ow  809   5.207   4.634   2.930  0.3431 -0.8599  0.0546
  203SOL     hw  810   5.148   4.684   2.873 -0.5318  0.6348  2.1460
  203SOL     hw  811   5.149   4.572   2.974  0.6446 -0.5997  0.8192
  203SOL     vw  812   5.191   4.632   2.928  0.2675 -0.6282  0.4314
  204SOL     ow  813   1.332   6.128   1.984 -0.3174  0.5877  0.1876
  204SOL     hw  814   1.246   6.157   1.954 -0.7600 -1.0522 -0.2170
  204SOL     hw  815   1.367   6.203   2.034 -1.3355  1.8134 -0.8795
  204SOL     vw  816   1.325   6.142   1.987 -0.5102  0.5329 -0.0066
  205SOL     ow  817   1.371   3.404   3.210  0.2666  0.0506 -0.3190
  205SOL     hw  818   1.322   3.430   3.132 -0.0475 -1.4619 -0.6561
  205SOL     hw  819   1.304   3.395   3.278  0.3564 -0.0388 -0.2428
  205SOL     vw  820   1.355   3.406   3.209  0.2371 -0.1608 -0.3535
  206SOL     ow  821   2.565   6.057   0.612  0.2803  0.1357  0.1076
  206SOL     hw  822   2.589   6.062   0.519  1.7046  1.8028  0.5230
  206SOL     hw  823   2.646   6.037   0.657  0.0305  1.3492  1.1607
  206SOL     vw  824   2.579   6.055   0.606  0.4352  0.5155  0.3014
  207SOL     ow  825   1.715   2.402   3.982  0.9301 -0.5280 -0.2037
  207SOL     hw  826   1.754   2.457   4.050  1.8336 -0.9488 -0.3700
  207SOL     hw  827   1.702   2.317   4.023 -2.0499  0.1955  0.5833
  207SOL     vw  828   1.718   2.398   3.996  0.6561 -0.4882 -0.1218
  208SOL     ow  829   2.850   1.569   0.533  0.5561  0.3203 -0.0042
  208SOL     hw  830   2.914   1.555   0.603 -1.7072  1.2397  2.4238
  208SOL     hw  831   2.770   1.528   0.566  0.0662 -1.8884 -3.4663
  208SOL     vw  832   2.848   1.562   0.547  0.1930  0.1501 -0.1407
  209SOL     ow  833   5.702   2.383   1.816  0.0786 -0.3367 -0.5484
  209SOL     hw  834   5.698   2.430   1.900  1.1927 -0.1451 -0.5838
  209SOL     hw  835   5.724   2.450   1.752 -1.4671 -0.3542 -1.1391
  209SOL     vw  836   5.704   2.398   1.819  0.0217 -0.3139 -0.6310
  210SOL     ow  837   4.594   5.271   0.097 -0.7746 -0.0657 -0.0447
  210SOL     hw  838   4.500   5.284   0.106 -0.9716 -0.8750 -0.8205
  210SOL     hw  839   4.612   5.191   0.146 -0.2197  0.8963  1.3885
  210SOL     vw  840   4.584   5.262   0.105 -0.7274 -0.0458  0.0421
  211SOL     ow  841   2.321   7.156   5.974 -0.0287  0.3523 -0.0682
  211SOL     hw  842   2.294   7.116   5.892 -1.4212 -0.9237  0.9512
  211SOL     hw  843   2.265   7.233   5.983 -1.3069 -0.6005  0.5731
  211SOL     vw  844   2.310   7.161   5.964 -0.3811  0.0583  0.1509
  212SOL     ow  845   4.280   1.744   1.377  0.4201  0.6953  0.6506
  212SOL     hw  846   4.290   1.662   1.329 -0.7446  0.0292  1.4997
  212SOL     hw  847   4.348   1.741   1.444  0.4464  0.4670  0.6153
  212SOL     vw  848   4.290   1.733   1.380  0.2699  0.5773  0.7580
  213SOL     ow  849   5.512   0.303   3.435 -0.9088  0.3100 -0.8512
  213SOL     hw  850   5.510   0.344   3.521 -3.2035  1.0433 -1.1881
  213SOL     hw  851   5.493   0.211   3.452 -1.3500  0.4512 -0.5614
  213SOL     vw  852   5.509   0.296   3.448 -1.2698  0.4254 -0.8575
  214SOL     ow  853   0.640   0.163   2.612  0.3529  0.3448  0.0173
  214SOL     hw  854   0.567   0.184   2.553 -0.2410 -0.1065  0.5910
  214SOL     hw  855   0.616   0.202   2.695 -1.2704 -3.2828  1.4445
  214SOL     vw  856   0.627   0.171   2.615  0.0604 -0.1934  0.2815
  215SOL     ow  857   2.716   6.574   0.718 -0.2752  0.1294 -0.5156
  215SOL     hw  858   2.742   6.507   0.781  0.8894 -0.0397 -1.1454
  215SOL     hw  859   2.700   6.652   0.770  0.6173 -0.0205 -0.0073
  215SOL     vw  860   2.717   6.575   0.733 -0.0038  0.0873 -0.5316
  216SOL     ow  861   2.636   0.974   0.061  0.1977  0.4963 -0.2936
  216SOL     hw  862   2.641   1.064   0.091 -0.1484  0.0471  1.2158
  216SOL     hw  863   2.544   0.961   0.039  0.4095  0.7563 -1.3944
  216SOL     vw  864   2.625   0.984   0.062  0.1799  0.4714 -0.2397
  217SOL     ow  865   7.158   4.643   2.439 -0.0049  0.4038  0.4939
  217SOL     hw  866   7.238   4.605   2.402 -0.6480 -1.7159  1.1247
  217SOL     hw  867   7.097   4.647   2.366 -0.5914 -1.8042  0.8079
  217SOL     vw  868   7.160   4.639   2.425 -0.1669 -0.1669  0.6186
  218SOL     ow  869   1.200   1.220   5.212  0.2316 -0.8348 -0.6624
  218SOL     hw  870   1.130   1.186   5.267 -0.3070 -3.6357 -2.8723
  218SOL     hw  871   1.269   1.154   5.215  1.5445  0.4438 -0.9470
  218SOL     vw  872   1.200   1.207   5.220  0.3338 -1.0357 -0.9913
  219SOL     ow  873   4.489   3.031   6.017 -0.5015  0.6262 -0.4557
  219SOL     hw  874   4.401   3.014   6.050 -0.5028 -1.3251 -1.3256
  219SOL     hw  875   4.483   3.117   5.976 -2.4384 -0.1225 -1.8906
  219SOL     vw  876   4.477   3.040   6.016 -0.7570  0.2699 -0.7598
  220SOL     ow  877   0.196   5.845   2.053  0.1542 -0.4269 -0.1690
  220SOL     hw  878   0.106   5.813   2.039  0.1004  0.0286 -0.9431
  220SOL     hw  879   0.249   5.766   2.060 -0.4797 -0.7309  1.6410
  220SOL     vw  880   0.191   5.830   2.052  0.0635 -0.4070 -0.0322
  221SOL     ow  881   6.319   1.437   4.719 -0.1501 -0.4013  0.5095
  221SOL     hw  882   6.341   1.426   4.626 -4.3874  0.4757 -0.8049
  221SOL     hw  883   6.361   1.520   4.743 -0.5110  0.3394 -1.2365
  221SOL     vw  884   6.328   1.446   4.710 -0.7565 -0.1880  0.1054
  222SOL     ow  885   6.953   5.649   5.212 -0.2410  0.1871  0.2709
  222SOL     hw  886   6.894   5.614   5.146  1.1584  2.0566 -2.1235
  222SOL     hw  887   6.960   5.742   5.191  2.3477  0.3327  1.3880
  222SOL     vw  888   6.946   5.657   5.201  0.2847  0.4530  0.1025
  223SOL     ow  889   5.012   0.184   0.042  0.3440 -0.4909  0.8057
  223SOL     hw  890   5.066   0.210   0.117  0.8759  0.9575 -0.0465
  223SOL     hw  891   5.034   0.093   0.027  1.9137 -0.1721  1.0277
  223SOL     vw  892   5.022   0.176   0.050  0.6213 -0.2577  0.7226
  224SOL     ow  893   1.717   1.150   4.180 -0.2847  0.0146  0.6232
  224SOL     hw  894   1.736   1.083   4.244  0.5011  0.0641  0.4482
  224SOL     hw  895   1.797   1.202   4.174 -0.5419  0.3573  0.0234
  224SOL     vw  896   1.730   1.148   4.187 -0.2151  0.0663  0.5209
  225SOL     ow  897   3.570   1.572   2.861  0.0607  0.4211 -0.2995
  225SOL     hw  898   3.595   1.489   2.820 -0.6760 -0.2770  0.6297
  225SOL     hw  899   3.552   1.630   2.787 -1.7926 -0.9697 -1.0123
  225SOL     vw  900   3.571   1.569   2.845 -0.2811  0.1455 -0.2708
  226SOL     ow  901   0.986   3.375   4.894 -0.5608  0.1898  0.3143
  226SOL     hw  902   0.965   3.339   4.807  0.4124  2.1285 -0.7862
  226SOL     hw  903   0.910   3.352   4.948 -2.2291  0.7843 -1.6228
  226SOL     vw  904   0.973   3.367   4.889 -0.6525  0.5240 -0.0863
  227SOL     ow  905   6.817   3.315   4.537  0.6196 -0.2412 -0.3868
  227SOL     hw  906   6.772   3.320   4.621  0.1818 -3.1609 -0.3627
  227SOL     hw  907   6.904   3.280   4.559  0.0988 -2.1528 -1.2170
  227SOL     vw  908   6.823   3.311   4.551  0.4933 -0.8786 -0.4930
  228SOL     ow  909   4.462   5.046   0.477  0.0882 -0.3365 -0.0647
  228SOL     hw  910   4.382   5.086   0.444  0.5434  0.5243 -0.1581
  228SOL     hw  911   4.526   5.058   0.407  0.5190 -0.2768  0.3321
  228SOL     vw  912   4.460   5.053   0.464  0.2050 -0.2148 -0.0247
  229SOL     ow  913   2.369   5.091   4.122 -0.5957  0.1160  0.4148
  229SOL     hw  914   2.425   5.167   4.107 -0.0150 -0.1498  1.1497
  229SOL     hw  915   2.419   5.017   4.089 -0.4782 -0.1284  1.1169
  229SOL     vw  916   2.383   5.091   4.116 -0.5037  0.0486  0.6044
  230SOL     ow  917   3.293   5.332   3.621 -0.6288  0.5281 -0.7910
  230SOL     hw  918   3.363   5.324   3.557 -1.1631  1.8242 -1.5754
  230SOL     hw  919   3.216   5.359   3.570 -1.4134  0.2610  0.2049
  230SOL     vw  920   3.292   5.334   3.606 -0.8028  0.6640 -0.7632
  231SOL     ow  921   4.133   3.048   1.155  0.3734 -0.7229  0.2600
  231SOL     hw  922   4.228   3.058   1.148  0.5504 -2.2273  0.0196
  231SOL     hw  923   4.106   3.114   1.218  1.4684  0.2396 -0.2308
  231SOL     vw  924   4.142   3.058   1.162  0.5410 -0.7945  0.1636
  232SOL     ow  925   1.687   3.794   1.009 -0.3820  0.4768  0.4104
  232SOL     hw  926   1.610   3.781   1.064 -1.8307  0.4282 -1.5700
  232SOL     hw  927   1.673   3.878   0.967  0.8327  0.6264  0.2688
  232SOL     vw  928   1.675   3.803   1.011 -0.4129  0.4902  0.1304
  233SOL     ow  929   3.927   2.270   2.867 -0.4116 -0.2382  0.1966
  233SOL     hw  930   3.869   2.218   2.921 -1.8027  2.2405  1.2724
  233SOL     hw  931   4.003   2.287   2.922 -0.8509  0.4672  0.6038
  233SOL     vw  932   3.929   2.266   2.881 -0.6531  0.1818  0.3922
  234SOL     ow  933   5.209   6.632   5.178  0.3838 -0.4917  0.0977
  234SOL     hw  934   5.125   6.608   5.138  0.2049 -2.0471  1.3361
  234SOL     hw  935   5.271   6.567   5.145  0.8060 -0.2006  0.3068
  234SOL     vw  936   5.206   6.620   5.169  0.4160 -0.6585  0.2885
  235SOL     ow  937   2.465   5.056   6.328 -0.3322  0.4693 -0.4695
  235SOL     hw  938   2.554   5.073   6.295 -0.0967 -0.6062 -0.4289
  235SOL     hw  939   2.436   5.140   6.362  0.3757  1.0257 -1.1901
  235SOL     vw  940   2.473   5.069   6.328 -0.2078  0.4005 -0.5591
  236SOL     ow  941   2.531   6.080   6.829  0.0594 -0.2887  0.0606
  236SOL     hw  942   2.500   6.170   6.816 -0.2950 -0.1080  1.9295
  236SOL     hw  943   2.489   6.052   6.910 -0.1746 -2.3165 -0.7082
  236SOL     vw  944   2.521   6.088   6.838 -0.0182 -0.5324  0.2058
  237SOL     ow  945   5.768   4.288   2.617  0.0760 -0.8201 -0.3699
  237SOL     hw  946   5.798   4.339   2.693 -0.2203 -0.3082 -0.5878
  237SOL     hw  947   5.701   4.343   2.577 -1.4312 -2.1024  0.3121
  237SOL     vw  948   5.763   4.302   2.622 -0.1621 -0.9217 -0.3088
  238SOL     ow  949   3.954   1.749   1.384  0.7713 -1.0059 -0.1148
  238SOL     hw  950   3.990   1.684   1.445  0.2762 -0.5458  0.6910
  238SOL     hw  951   3.890   1.797   1.437  0.5046 -0.4397 -0.9462
  238SOL     vw  952   3.950   1.747   1.399  0.6708 -0.8705 -0.1183
  239SOL     ow  953   6.190   3.966   0.488  0.3474  0.1424 -0.0172
  239SOL     hw  954   6.109   3.954   0.538  0.9011 -0.4173  0.7882
  239SOL     hw  955   6.192   4.059   0.467 -0.9209  0.0223 -0.8075
  239SOL     vw  956   6.179   3.977   0.492  0.2530  0.0527 -0.0152
  240SOL     ow  957   3.970   1.656   1.071  0.0769 -0.4671 -0.5127
  240SOL     hw  958   3.895   1.628   1.018  0.2767 -0.2613 -0.9131
  240SOL     hw  959   4.040   1.594   1.050 -0.0198 -0.7415 -0.0350
  240SOL     vw  960   3.969   1.644   1.061  0.0905 -0.4762 -0.5025
  241SOL     ow  961   1.479   4.519   1.780 -0.3443  0.2834  0.0436
  241SOL     hw  962   1.551   4.456   1.776 -3.1532 -3.2079 -0.4138
  241SOL     hw  963   1.458   4.538   1.688  1.6072  3.6337  0.1024
  241SOL     vw  964   1.486   4.513   1.767 -0.4575  0.2649 -0.0091
  242SOL     ow  965   4.983   2.945   5.753 -0.6604  0.2085  0.2404
  242SOL     hw  966   5.059   2.948   5.811 -0.7383  0.4640  0.3264
  242SOL     hw  967   4.997   2.867   5.700 -0.2648  0.3404  0.1553
  242SOL     vw  968   4.994   2.935   5.754 -0.6185  0.2596  0.2406
  243SOL     ow  969   0.379   0.834   3.238  0.1065  0.0579  0.4286
  243SOL     hw  970   0.316   0.762   3.246 -1.3552  1.1494 -0.7160
  243SOL     hw  971   0.404   0.854   3.329 -1.9261  0.1962  1.0021
  243SOL     vw  972   0.374   0.827   3.251 -0.3545  0.2202  0.3532
  244SOL     ow  973   0.073   1.077   5.650  0.3995 -0.1451  0.3504
  244SOL     hw  974   0.029   1.133   5.714  1.0566  0.0226  0.6700
  244SOL     hw  975   0.010   1.007   5.632 -1.1431  1.5957 -1.3746
  244SOL     vw  976   0.059   1.075   5.656  0.2827  0.1068  0.1652
  245SOL     ow  977   5.591   0.414   3.906 -0.4924 -0.4392 -0.2687
  245SOL     hw  978   5.602   0.322   3.928 -2.2078 -0.7179 -0.3822
  245SOL     hw  979   5.548   0.413   3.820  0.4048  0.5020 -0.7498
  245SOL     vw  980   5.586   0.402   3.897 -0.6003 -0.3518 -0.3471
  246SOL     ow  981   6.810   0.295   6.775 -0.4477  0.1160 -0.3679
  246SOL     hw  982   6.753   0.356   6.823 -1.2815 -0.3253 -0.7733
  246SOL     hw  983   6.886   0.285   6.831 -0.5731  1.0555 -0.0060
  246SOL     vw  984   6.812   0.302   6.789 -0.5744  0.1817 -0.3734
  247SOL     ow  985   4.196   1.167   3.386 -0.0493 -0.3692 -0.1055
  247SOL     hw  986   4.169   1.182   3.476 -1.6683 -0.2202 -0.5878
  247SOL     hw  987   4.119   1.188   3.334  0.4977 -1.5279 -1.4563
  247SOL     vw  988   4.182   1.172   3.391 -0.1907 -0.5025 -0.3473
  248SOL     ow  989   0.489   5.159   2.725 -0.5888  0.2653 -0.1287
  248SOL     hw  990   0.409   5.211   2.714 -0.5116  0.0703 -2.1494
  248SOL     hw  991   0.533   5.166   2.640  0.5760 -1.2040  0.3150
  248SOL     vw  992   0.484   5.167   2.712 -0.4249  0.0458 -0.3366
  249SOL     ow  993   5.915   1.185   0.899 -0.1243 -0.0377 -0.2732
  249SOL     hw  994   5.962   1.126   0.840 -0.7057  0.5844 -1.3677
  249SOL     hw  995   5.827   1.149   0.904 -0.4589  0.6682 -0.8762
  249SOL     vw  996   5.910   1.172   0.892 -0.2449  0.1375 -0.4972
  250SOL     ow  997   3.555   0.618   3.873  0.4562  0.0461 -0.9938
  250SOL     hw  998   3.481   0.633   3.814 -0.5898  2.1642  0.7254
  250SOL     hw  999   3.632   0.627   3.817 -0.5386 -0.2483 -2.4575
  250SOL     vw 1000   3.555   0.621   3.858  0.1869  0.2867 -0.9600
  251SOL     ow 1001   1.768   2.930   4.274 -0.2273 -0.0427 -0.2185
  251SOL     hw 1002   1.754   2.835   4.276  1.8425 -0.3935  0.5822
  251SOL     hw 1003   1.680   2.968   4.273 -1.1879 -1.9486  2.1262
  251SOL     vw 1004   1.755   2.923   4.274 -0.0809 -0.3405  0.1967
  252SOL     ow 1005   0.200   1.284   4.862  0.2484 -0.3320 -0.6091
  252SOL     hw 1006   0.267   1.351   4.845  0.4319 -0.4671 -0.4190
  252SOL     hw 1007   0.124   1.333   4.892  0.4269 -0.2205 -0.3396
  252SOL     vw 1008   0.199   1.299   4.864  0.2961 -0.3352 -0.5486
  253SOL     ow 1009   2.666   6.367   0.873 -0.3332  0.3769  0.3382
  253SOL     hw 1010   2.572   6.373   0.894 -0.3797  4.0932 -0.1949
  253SOL     hw 1011   2.710   6.397   0.953  0.1638  1.7756 -0.4194
  253SOL     vw 1012   2.659   6.372   0.886 -0.2737  1.0517  0.1679
  254SOL     ow 1013   0.874   0.406   4.340  0.0595 -0.4334  0.1147
  254SOL     hw 1014   0.849   0.439   4.254  0.9489  2.3925  0.8159
  254SOL     hw 1015   0.791   0.386   4.383 -0.4310 -0.9975 -1.0556
  254SOL     vw 1016   0.860   0.408   4.334  0.1121 -0.1350  0.0527
  255SOL     ow 1017   0.057   2.951   1.290 -0.0145 -0.0919 -0.4014
  255SOL     hw 1018   0.124   2.962   1.358  0.6788 -3.5590 -0.3091
  255SOL     hw 1019   0.105   2.913   1.216 -1.3137  0.6855 -1.6807
  255SOL     vw 1020   0.072   2.947   1.289 -0.0944 -0.4468 -0.5580
  256SOL     ow 1021   4.151   6.710   3.303 -0.2992 -0.3739  0.5104
  256SOL     hw 1022   4.203   6.641   3.344 -0.6862 -1.2723 -0.4579
  256SOL     hw 1023   4.089   6.663   3.247  0.6475  0.8066 -1.6246
  256SOL     vw 1024   4.150   6.695   3.301 -0.2255 -0.3369  0.1010
  257SOL     ow 1025   3.293   3.336   4.383 -0.0623  0.1876 -0.6747
  257SOL     hw 1026   3.208   3.339   4.428  0.4535 -0.9753  0.4477
  257SOL     hw 1027   3.284   3.400   4.312 -1.6795  0.4940 -0.2576
  257SOL     vw 1028   3.280   3.345   4.380 -0.2077  0.0746 -0.4716
  258SOL     ow 1029   6.341   4.711   1.127  0.1369 -0.3340  0.3256
  258SOL     hw 1030   6.296   4.627   1.144  0.6590 -0.6894 -0.0188
  258SOL     hw 1031   6.335   4.722   1.032 -2.1100  1.2689  0.5560
  258SOL     vw 1032   6.334   4.701   1.117 -0.0906 -0.1695  0.3105
  259SOL     ow 1033   7.085   0.401   2.108 -0.0420  0.6802  0.7452
  259SOL     hw 1034   7.138   0.324   2.129 -1.6199 -0.1517  1.9332
  259SOL     hw 1035   7.132   0.444   2.037  0.6391 -1.6734 -0.3395
  259SOL     vw 1036   7.098   0.396   2.101 -0.1602  0.2599  0.7590
  260SOL     ow 1037   2.498   5.805   4.990  0.1802 -0.0753  0.1148
  260SOL     hw 1038   2.472   5.893   5.016 -1.3901 -0.2809 -0.6438
  260SOL     hw 1039   2.415   5.758   4.977  0.9502 -1.1720 -1.1384
  260SOL     vw 1040   2.483   5.810   4.992  0.0747 -0.2470 -0.1507
  261SOL     ow 1041   3.085   0.918   0.870  0.1615 -0.5258 -0.2624
  261SOL     hw 1042   2.993   0.926   0.845  0.1754  2.4247  0.2332
  261SOL     hw 1043   3.092   0.830   0.906 -2.2635 -1.1383 -1.0524
  261SOL     vw 1044   3.074   0.907   0.872 -0.1566 -0.2173 -0.3012
  262SOL     ow 1045   4.049   3.559   4.997  0.2016  0.0522 -0.3673
  262SOL     hw 1046   4.137   3.547   5.032  0.9387 -2.8606 -2.7864
  262SOL     hw 1047   4.061   3.603   4.913 -0.6418 -0.3038 -0.6911
  262SOL     vw 1048   4.062   3.563   4.991  0.1876 -0.3790 -0.7291
  263SOL     ow 1049   0.127   5.891   1.724  0.2357 -0.0259  0.1462
  263SOL     hw 1050   0.150   5.801   1.749  1.2853  0.6147  1.6228
  263SOL     hw 1051   0.034   5.886   1.700  0.2087 -1.4554  0.4641
  263SOL     vw 1052   0.117   5.878   1.724  0.3706 -0.1299  0.3830
  264SOL     ow 1053   3.833   6.288   2.133  0.3502  0.0401 -0.4229
  264SOL     hw 1054   3.843   6.249   2.219 -1.1376 -1.1907 -0.7543
  264SOL     hw 1055   3.806   6.378   2.151  0.3417 -0.1194  0.4044
  264SOL     vw 1056   3.830   6.295   2.147  0.1528 -0.1433 -0.3577
  265SOL     ow 1057   1.950   1.405   3.213  0.0571  0.1550 -0.0629
  265SOL     hw 1058   1.979   1.495   3.229  2.3038 -0.5182 -0.0228
  265SOL     hw 1059   1.927   1.372   3.300  1.9712 -0.1581  0.3641
  265SOL     vw 1060   1.950   1.412   3.227  0.6061  0.0249 -0.0013
  266SOL     ow 1061   6.686   0.377   4.466  0.6190  0.0042 -1.4525
  266SOL     hw 1062   6.611   0.318   4.463  0.3452  0.3668 -2.0090
  266SOL     hw 1063   6.742   0.348   4.395 -0.1620  1.2260 -2.6237
  266SOL     vw 1064   6.683   0.366   4.456  0.4797  0.2133 -1.6806
  267SOL     ow 1065   3.512   6.880   0.602  0.7195 -0.4688 -0.0830
  267SOL     hw 1066   3.591   6.909   0.648  0.0953 -0.9098  1.3387
  267SOL     hw 1067   3.447   6.948   0.620  0.0883 -1.2893  0.8222
  267SOL     vw 1068   3.514   6.893   0.610  0.5537 -0.6354  0.2240
  268SOL     ow 1069   0.565   2.564   5.925 -0.3235 -0.1453  0.2259
  268SOL     hw 1070   0.547   2.488   5.870 -2.7474  0.7918 -0.4234
  268SOL     hw 1071   0.532   2.539   6.011  2.2755 -1.1230  1.0296
  268SOL     vw 1072   0.558   2.551   5.929 -0.3004 -0.1507  0.2463
  269SOL     ow 1073   5.001   0.967   0.713  0.5950 -0.5375  0.3755
  269SOL     hw 1074   5.079   1.012   0.745 -0.1222  0.4026  0.8650
  269SOL     hw 1075   4.931   0.995   0.772 -0.6631  0.8058 -1.6087
  269SOL     vw 1076   5.002   0.977   0.725  0.3345 -0.2362  0.1782
  270SOL     ow 1077   3.451   4.018   6.415  0.5625 -0.8592 -0.0659
  270SOL     hw 1078   3.432   3.975   6.498  0.4857 -1.3521 -0.3310
  270SOL     hw 1079   3.521   3.965   6.376  0.5630 -0.6641 -0.3344
  270SOL     vw 1080   3.458   4.005   6.421  0.5524 -0.8986 -0.1361
  271SOL     ow 1081   4.159   0.847   0.068  0.0221 -0.0465  0.1278
  271SOL     hw 1082   4.238   0.902   0.069 -0.8874  1.3220 -0.5767
  271SOL     hw 1083   4.129   0.850  -0.022  0.1102 -2.0194 -0.0211
  271SOL     vw 1084   4.166   0.855   0.056 -0.0863 -0.1262  0.0152
  272SOL     ow 1085   3.886   1.650   4.712 -0.2042 -0.1763 -0.2193
  272SOL     hw 1086   3.807   1.632   4.660  0.9138 -1.5473 -1.5406
  272SOL     hw 1087   3.854   1.701   4.787 -1.9362  1.6344 -2.0592
  272SOL     vw 1088   3.871   1.654   4.715 -0.2853 -0.1183 -0.6363
  273SOL     ow 1089   6.474   4.612   6.233 -0.7140 -0.0868  0.0178
  273SOL     hw 1090   6.503   4.544   6.293 -0.8494 -0.5274 -0.4105
  273SOL     hw 1091   6.378   4.611   6.240 -0.8585 -1.4161 -1.5511
  273SOL     vw 1092   6.465   4.603   6.242 -0.7510 -0.3204 -0.2456
  274SOL     ow 1093   1.802   4.089   3.223 -0.0768 -0.1563  0.2413
  274SOL     hw 1094   1.733   4.119   3.164 -0.0337 -0.2130  0.1607
  274SOL     hw 1095   1.844   4.018   3.175 -0.7512 -0.9464  0.8007
  274SOL     vw 1096   1.799   4.084   3.209 -0.1601 -0.2680  0.3046
  275SOL     ow 1097   3.632   5.361   3.246 -0.0292 -0.2754  0.3726
  275SOL     hw 1098   3.627   5.333   3.337  1.4293 -1.3533  0.1585
  275SOL     hw 1099   3.603   5.285   3.196 -1.1563  0.4245 -0.0846
  275SOL     vw 1100   3.627   5.348   3.251  0.0145 -0.3254  0.2841
  276SOL     ow 1101   2.626   5.303   1.577 -0.1584 -0.2352  0.2403
  276SOL     hw 1102   2.670   5.382   1.609 -0.8316 -0.2660  1.3113
  276SOL     hw 1103   2.681   5.272   1.505 -0.1692  1.5003 -0.5626
  276SOL     vw 1104   2.639   5.309   1.572 -0.2487 -0.0103  0.2757
  277SOL     ow 1105   1.603   3.516   3.292  0.0503  0.3139  0.3448
  277SOL     hw 1106   1.680   3.474   3.256  0.5826  0.1916  1.5650
  277SOL     hw 1107   1.529   3.470   3.253  0.5953 -0.0834 -0.2315
  277SOL     vw 1108   1.603   3.505   3.282  0.1924  0.2453  0.4296
  278SOL     ow 1109   4.529   2.077   2.802 -0.5251  0.3300  0.1967
  278SOL     hw 1110   4.482   2.020   2.863 -1.4296  0.7919 -0.0506
  278SOL     hw 1111   4.599   2.022   2.767 -0.9733 -0.4254  0.4602
  278SOL     vw 1112   4.532   2.062   2.806 -0.7036  0.2912  0.1988
  279SOL     ow 1113   0.457   1.402   4.613 -0.1612  0.9827 -0.5428
  279SOL     hw 1114   0.431   1.313   4.587 -0.0565  0.7105  0.2682
  279SOL     hw 1115   0.376   1.443   4.641 -0.4049  1.5246 -1.9486
  279SOL     vw 1116   0.443   1.396   4.613 -0.1796  1.0182 -0.6211
  280SOL     ow 1117   5.077   1.504   2.080 -0.0158  0.4265  0.9747
  280SOL     hw 1118   5.016   1.486   2.152  2.0444 -1.0687  2.4619
  280SOL     hw 1119   5.142   1.434   2.086  0.7430  0.8021 -1.8168
  280SOL     vw 1120   5.077   1.493   2.090  0.3560  0.2788  0.8025
  281SOL     ow 1121   0.617   0.284   6.532  0.1190 -0.2810 -0.5570
  281SOL     hw 1122   0.612   0.228   6.609  1.7528 -2.4582 -1.8975
  281SOL     hw 1123   0.542   0.258   6.478  0.8569 -1.2368 -1.1627
  281SOL     vw 1124   0.607   0.273   6.535  0.4319 -0.6943 -0.8137
  282SOL     ow 1125   5.055   3.512   1.399 -0.8181  0.4830  0.0761
  282SOL     hw 1126   5.111   3.435   1.387 -2.6890 -1.0244  0.5712
  282SOL     hw 1127   5.116   3.586   1.402  1.1598 -1.0912  0.8563
  282SOL     vw 1128   5.070   3.512   1.398 -0.8039  0.0765  0.2444
  283SOL     ow 1129   5.546   1.560   0.058  0.0843  0.2690  0.0286
  283SOL     hw 1130   5.520   1.469   0.067  2.6012 -0.4676  0.5078
  283SOL     hw 1131   5.578   1.567  -0.032 -0.1713  0.7181 -0.0329
  283SOL     vw 1132   5.546   1.549   0.047  0.3824  0.2311  0.0837
  284SOL     ow 1133   1.227   5.350   3.760  0.0832  0.5911 -0.8031
  284SOL     hw 1134   1.189   5.435   3.739 -1.2518 -0.0006 -0.8704
  284SOL     hw 1135   1.224   5.302   3.677 -2.2679 -0.6459 -0.0911
  284SOL     vw 1136   1.222   5.355   3.746 -0.4032  0.3498 -0.7181
  285SOL     ow 1137   5.525   5.179   2.524 -0.1690 -0.0330  0.2455
  285SOL     hw 1138   5.464   5.108   2.502  1.5197 -0.8917 -1.9220
  285SOL     hw 1139   5.511   5.245   2.457 -0.3686  0.8664  1.1441
  285SOL     vw 1140   5.515   5.178   2.512  0.0277 -0.0277  0.0781
  286SOL     ow 1141   6.357   6.427   7.123 -0.3935 -0.1178  0.6404
  286SOL     hw 1142   6.357   6.523   7.128  1.1971  0.1807 -2.3921
  286SOL     hw 1143   6.448   6.404   7.109 -0.5311 -2.2953  2.7607
  286SOL     vw 1144   6.369   6.437   7.122 -0.2017 -0.3655  0.5202
  287SOL     ow 1145   3.536   5.476   6.735 -0.3053 -0.1184  0.1749
  287SOL     hw 1146   3.470   5.489   6.667 -0.3697 -0.9825  0.0644
  287SOL     hw 1147   3.616   5.453   6.687  0.1319  1.1012  0.2986
  287SOL     vw 1148   3.538   5.475   6.720 -0.2562 -0.0715  0.1764
  288SOL     ow 1149   5.805   5.363   5.496 -0.5417 -0.2703  0.1173
  288SOL     hw 1150   5.711   5.361   5.513 -0.5480  0.1564  0.1472
  288SOL     hw 1151   5.824   5.280   5.452 -0.7448 -0.8495  1.1001
  288SOL     vw 1152   5.795   5.352   5.493 -0.5696 -0.2902  0.2506
  289SOL     ow 1153   1.163   5.688   7.000 -0.1478  0.1841  0.2886
  289SOL     hw 1154   1.219   5.623   6.956  0.5399  0.5303  0.6283
  289SOL     hw 1155   1.113   5.729   6.929 -1.1175 -1.1889  0.1402
  289SOL     vw 1156   1.164   5.685   6.985 -0.1850  0.0486  0.3140
  290SOL     ow 1157   1.071   5.447   5.025 -0.0311  0.0171 -0.1606
  290SOL     hw 1158   1.103   5.373   5.076  1.6560  0.1878 -0.9211
  290SOL     hw 1159   1.149   5.486   4.987 -0.3742  4.0269  2.5493
  290SOL     vw 1160   1.085   5.442   5.027  0.1462  0.5686  0.0966
  291SOL     ow 1161   4.932   0.479   1.120 -0.8376  0.3482  0.4807
  291SOL     hw 1162   4.909   0.486   1.213  1.6683 -0.6355  1.2552
  291SOL     hw 1163   4.977   0.395   1.113  1.2497  1.5141 -1.0821
  291SOL     vw 1164   4.934   0.469   1.132 -0.2317  0.3722  0.3767
  292SOL     ow 1165   4.708   7.111   4.903 -0.0430 -0.1802  0.0737
  292SOL     hw 1166   4.768   7.042   4.933  0.6687  0.6271  0.5225
  292SOL     hw 1167   4.657   7.134   4.980  1.2326  1.3264  0.5072
  292SOL     vw 1168   4.709   7.105   4.917  0.2193  0.1254  0.1903
  293SOL     ow 1169   3.569   6.841   0.336  0.1512  0.5745 -0.3945
  293SOL     hw 1170   3.538   6.848   0.426 -1.7015 -0.5497 -0.8973
  293SOL     hw 1171   3.503   6.788   0.292  0.7854  1.4563 -2.5331
  293SOL     vw 1172   3.556   6.835   0.342 -0.0095  0.5426 -0.7430
  294SOL     ow 1173   5.205   6.251   6.954 -0.3844  0.2453 -0.1591
  294SOL     hw 1174   5.110   6.254   6.949 -0.4322 -1.2205 -0.6317
  294SOL     hw 1175   5.230   6.333   6.997 -1.8155  0.8782 -0.4980
  294SOL     vw 1176   5.196   6.262   6.959 -0.5796  0.1354 -0.2663
  295SOL     ow 1177   4.582   3.917   1.176 -0.0584  0.2923  0.3177
  295SOL     hw 1178   4.563   4.007   1.204 -2.0541 -0.4020  1.3617
  295SOL     hw 1179   4.522   3.901   1.104 -0.0070 -0.3335  0.4064
  295SOL     vw 1180   4.571   3.927   1.170 -0.3152  0.1181  0.4672
  296SOL     ow 1181   5.686   2.965   5.007  0.1514 -0.1655 -0.3062
  296SOL     hw 1182   5.715   2.965   5.098 -0.3058  0.5940 -0.1533
  296SOL     hw 1183   5.767   2.970   4.956  0.4928 -1.7998  0.0052
  296SOL     vw 1184   5.700   2.965   5.012  0.1361 -0.2810 -0.2451
  297SOL     ow 1185   3.573   1.352   1.516  0.2312  0.1769 -0.0450
  297SOL     hw 1186   3.543   1.312   1.597  1.6470 -0.0840  0.3658
  297SOL     hw 1187   3.551   1.288   1.448 -0.9987  0.4153  0.0961
  297SOL     vw 1188   3.566   1.338   1.517  0.2557  0.1739  0.0278
  298SOL     ow 1189   5.999   1.430   4.681  0.0547  0.2888  0.1088
  298SOL     hw 1190   5.978   1.476   4.600  0.6751  0.7437  0.2079
  298SOL     hw 1191   5.934   1.462   4.744 -2.1907 -2.0059 -0.8168
  298SOL     vw 1192   5.987   1.440   4.679 -0.1597  0.0460 -0.0002
  299SOL     ow 1193   1.791   3.251   1.553  0.2171 -0.3510  0.4102
  299SOL     hw 1194   1.745   3.280   1.474  1.9930  1.3479 -0.0698
  299SOL     hw 1195   1.852   3.322   1.572  0.5500 -1.1936  2.7394
  299SOL     vw 1196   1.793   3.264   1.545  0.4953 -0.2381  0.6542
  300SOL     ow 1197   5.309   1.923   0.797  0.6501  0.7703 -0.4191
  300SOL     hw 1198   5.310   2.017   0.777 -2.1328  0.4851 -2.5870
  300SOL     hw 1199   5.343   1.882   0.718 -1.7779 -0.0971 -1.0989
  300SOL     vw 1200   5.313   1.930   0.784 -0.0372  0.6182 -0.7948
  301SOL     ow 1201   6.628   2.815   5.250 -0.2039 -0.2389 -0.4890
  301SOL     hw 1202   6.609   2.808   5.156 -0.1213 -0.7892 -0.4690
  301SOL     hw 1203   6.703   2.873   5.255 -1.2144  1.1298 -0.6414
  301SOL     vw 1204   6.635   2.822   5.238 -0.3264 -0.1309 -0.5066
  302SOL     ow 1205   6.955   6.917   2.132  0.7579  0.0698 -0.1075
  302SOL     hw 1206   6.898   6.876   2.197  0.2447 -0.3644 -0.8161
  302SOL     hw 1207   7.042   6.881   2.149  0.4584 -0.7139 -0.2156
  302SOL     vw 1208   6.959   6.907   2.143  0.6506 -0.0911 -0.2152
  303SOL     ow 1209   5.954   4.317   2.384  0.4053 -0.1695  0.9240
  303SOL     hw 1210   5.883   4.297   2.445 -0.4073 -0.1655 -0.0025
  303SOL     hw 1211   5.911   4.342   2.303  1.4623 -0.2821  0.2966
  303SOL     vw 1212   5.939   4.317   2.381  0.4375 -0.1836  0.7188
  304SOL     ow 1213   5.254   2.917   2.876  0.1855  0.4473 -0.2272
  304SOL     hw 1214   5.273   2.994   2.822  0.1006 -0.0304 -0.9354
  304SOL     hw 1215   5.214   2.854   2.817 -2.4399  0.8908  0.9321
  304SOL     vw 1216   5.252   2.919   2.861 -0.1721  0.4429 -0.1677
  305SOL     ow 1217   5.871   3.340   6.253  0.0559 -0.3249  0.1433
  305SOL     hw 1218   5.895   3.269   6.194 -0.4003  0.8079 -1.4902
  305SOL     hw 1219   5.867   3.300   6.340 -0.2694 -2.2906 -0.7330
  305SOL     vw 1220   5.873   3.325   6.257 -0.0472 -0.4349 -0.1879
  306SOL     ow 1221   5.301   4.913   1.287 -0.1567 -0.2153  0.1211
  306SOL     hw 1222   5.248   4.990   1.305 -0.5450  0.1190 -2.1849
  306SOL     hw 1223   5.239   4.840   1.284 -0.2133 -0.1428 -0.5865
  306SOL     vw 1224   5.286   4.913   1.289 -0.2151 -0.1616 -0.2766
  307SOL     ow 1225   6.650   0.033   1.206  0.2899 -0.9319  0.2488
  307SOL     hw 1226   6.554   0.036   1.205  0.2782  0.7511  1.3203
  307SOL     hw 1227   6.671  -0.059   1.194 -1.5249 -1.6295  1.8030
  307SOL     vw 1228   6.640   0.021   1.205  0.0491 -0.8019  0.5952
  308SOL     ow 1229   4.403   1.388   4.761 -0.1582 -0.1531  0.2853
  308SOL     hw 1230   4.379   1.353   4.676 -0.4311 -1.7285  0.9801
  308SOL     hw 1231   4.354   1.335   4.824 -0.4894  1.4116  1.4164
  308SOL     vw 1232   4.393   1.376   4.758 -0.2377 -0.1546  0.5260
  309SOL     ow 1233   3.049   0.266   4.067  0.5290  0.2918  0.1480
  309SOL     hw 1234   3.128   0.251   4.016  1.2064  0.0876  1.2106
  309SOL     hw 1235   3.081   0.281   4.156 -0.6572 -0.3481  0.7119
  309SOL     vw 1236   3.064   0.266   4.072  0.4618  0.1804  0.3629
  310SOL     ow 1237   0.606   1.489   0.799 -0.3312  0.2832 -0.5271
  310SOL     hw 1238   0.632   1.420   0.860 -1.1218  2.1006  2.0006
  310SOL     hw 1239   0.684   1.504   0.746  1.1966  0.1545  1.5472
  310SOL     vw 1240   0.620   1.482   0.800 -0.2340  0.5060  0.0801
  311SOL     ow 1241   1.784   6.047   3.217 -0.2636 -0.0869  0.1858
  311SOL     hw 1242   1.750   6.135   3.236  1.6042  0.4796  1.2009
  311SOL     hw 1243   1.820   6.017   3.301  2.0363 -0.4469 -0.8612
  311SOL     vw 1244   1.784   6.055   3.231  0.2863 -0.0596  0.1816
  312SOL     ow 1245   3.870   4.147   5.866  0.1505 -0.4802  0.6325
  312SOL     hw 1246   3.794   4.111   5.821  0.9383 -0.2996 -0.8747
  312SOL     hw 1247   3.939   4.083   5.854  1.1546  0.8022 -0.8584
  312SOL     vw 1248   3.869   4.134   5.859  0.3868 -0.2873  0.2367
  313SOL     ow 1249   4.472   2.646   4.940 -0.4058  0.1112  0.2912
  313SOL     hw 1250   4.544   2.658   4.877 -1.7692  0.9060 -1.1864
  313SOL     hw 1251   4.419   2.576   4.902 -1.4630  0.8739  0.3273
  313SOL     vw 1252   4.475   2.639   4.926 -0.7250  0.3167  0.1009
  314SOL     ow 1253   5.659   5.118   4.679 -0.5458 -0.2911  0.2939
  314SOL     hw 1254   5.682   5.024   4.680  0.2444 -0.1063  0.5771
  314SOL     hw 1255   5.723   5.156   4.618  0.0610  0.2809  1.2670
  314SOL     vw 1256   5.671   5.110   4.671 -0.3614 -0.1912  0.4594
  315SOL     ow 1257   2.807   3.990   3.378  0.4020 -0.1370 -0.1386
  315SOL     hw 1258   2.809   4.034   3.294  0.7795 -0.4146 -0.2778
  315SOL     hw 1259   2.769   4.054   3.438 -1.3292 -0.4655 -0.8229
  315SOL     vw 1260   2.803   4.004   3.375  0.2234 -0.2170 -0.2472
  316SOL     ow 1261   1.603   0.617   1.675 -0.1978 -0.6349  0.8182
  316SOL     hw 1262   1.619   0.682   1.744 -1.5496 -0.0307  0.6028
  316SOL     hw 1263   1.677   0.557   1.680  1.3695  1.2123  0.7028
  316SOL     vw 1264   1.615   0.618   1.685 -0.1695 -0.3114  0.7746
  317SOL     ow 1265   0.004   3.023   2.601 -0.2562 -0.4375  0.8966
  317SOL     hw 1266   0.035   3.111   2.620 -0.2018 -0.2474 -0.0303
  317SOL     hw 1267   0.084   2.970   2.596 -0.1386 -0.1650 -0.3892
  317SOL     vw 1268   0.019   3.027   2.603 -0.2337 -0.3766  0.6046
  318SOL     ow 1269   1.646   1.726   3.825  0.1973 -0.4012  0.0345
  318SOL     hw 1270   1.579   1.779   3.781  0.6140  1.5323  1.5676
  318SOL     hw 1271   1.630   1.637   3.795 -0.9935  0.4773 -2.1482
  318SOL     vw 1272   1.635   1.721   3.816  0.0951 -0.0302 -0.0514
  319SOL     ow 1273   3.316   6.908   0.978  0.0804 -0.2466  0.0410
  319SOL     hw 1274   3.402   6.907   0.935  0.5732 -0.4079  1.0045
  319SOL     hw 1275   3.285   6.998   0.967  0.9034  0.1287  0.6861
  319SOL     vw 1276   3.323   6.920   0.971  0.2540 -0.2184  0.2533
  320SOL     ow 1277   2.169   0.393   5.199  0.1587  0.6863  0.1983
  320SOL     hw 1278   2.137   0.481   5.217  1.1598  1.0848  0.0829
  320SOL     hw 1279   2.102   0.354   5.143 -0.1138  1.5017 -0.0576
  320SOL     vw 1280   2.156   0.399   5.194  0.2550  0.8464  0.1493
  321SOL     ow 1281   5.136   7.143   6.006 -1.1545 -0.1460 -0.0398
  321SOL     hw 1282   5.168   7.231   5.989 -2.7527  0.3315 -0.8136
  321SOL     hw 1283   5.207   7.085   5.979  0.1525  0.8895  1.0374
  321SOL     vw 1284   5.150   7.147   6.000 -1.1928  0.0539  0.0005
  322SOL     ow 1285   2.020   3.619   2.378 -0.1445  0.0030 -0.3498
  322SOL     hw 1286   2.058   3.704   2.404  0.2867 -0.4068  0.3808
  322SOL     hw 1287   1.939   3.643   2.333 -0.3502  0.7917  0.3923
  322SOL     vw 1288   2.014   3.634   2.375 -0.1148  0.0530 -0.1556
  323SOL     ow 1289   6.128   5.845   2.245 -0.2306 -0.3559 -0.2477
  323SOL     hw 1290   6.142   5.918   2.305 -1.0641 -0.7004  0.3859
  323SOL     hw 1291   6.035   5.824   2.253 -0.1444 -1.0571 -0.9145
  323SOL     vw 1292   6.117   5.852   2.254 -0.3295 -0.4940 -0.2521
  324SOL     ow 1293   3.220   5.455   1.285 -0.0518  0.3588  0.0937
  324SOL     hw 1294   3.279   5.388   1.251 -1.2181 -1.2354  1.0492
  324SOL     hw 1295   3.244   5.464   1.377 -0.0444  1.1162  0.0253
  324SOL     vw 1296   3.231   5.447   1.293 -0.2047  0.2482  0.2108
  325SOL     ow 1297   0.137   4.246   4.445 -0.2043 -0.1189  0.4822
  325SOL     hw 1298   0.046   4.275   4.455 -0.5291 -1.0353  0.3459
  325SOL     hw 1299   0.130   4.150   4.442  0.7402 -0.1785  0.1601
  325SOL     vw 1300   0.124   4.237   4.446 -0.1225 -0.2475  0.4220
  326SOL     ow 1301   6.232   1.423   6.554 -0.0030 -0.5758  0.0053
  326SOL     hw 1302   6.213   1.511   6.588  0.4477 -1.0750  1.6320
  326SOL     hw 1303   6.328   1.415   6.560 -0.0498 -1.2169 -0.0416
  326SOL     vw 1304   6.242   1.434   6.559  0.0503 -0.7263  0.2136
  327SOL     ow 1305   4.506   0.859   1.188  0.5129 -1.0611  0.5229
  327SOL     hw 1306   4.596   0.831   1.206  0.5475 -1.8134 -0.6821
  327SOL     hw 1307   4.497   0.851   1.093 -0.3711  0.4288  0.4366
  327SOL     vw 1308   4.517   0.855   1.177  0.4008 -0.9638  0.3525
  328SOL     ow 1309   4.996   6.425   1.346  0.3681 -0.0330 -0.4868
  328SOL     hw 1310   5.060   6.496   1.343  0.7014 -0.3557 -1.8841
  328SOL     hw 1311   5.039   6.352   1.301  0.0986 -1.1920  1.0667
  328SOL     vw 1312   5.010   6.425   1.339  0.3762 -0.2286 -0.4662
  329SOL     ow 1313   4.007   3.492   6.521  0.4817 -0.3478  0.0449
  329SOL     hw 1314   3.915   3.516   6.507  0.6702 -0.5579 -1.8636
  329SOL     hw 1315   4.006   3.397   6.528  0.3407 -0.2248  2.2334
  329SOL     vw 1316   3.994   3.483   6.520  0.4880 -0.3593  0.0820
  330SOL     ow 1317   7.008   0.067   0.479  0.3705  0.2715 -0.3596
  330SOL     hw 1318   7.024   0.029   0.565 -1.0467  1.0133  0.2678
  330SOL     hw 1319   6.953   0.002   0.435  1.5465 -0.3600 -0.9350
  330SOL     vw 1320   7.003   0.053   0.484  0.3386  0.2860 -0.3527
  331SOL     ow 1321   2.601   0.927   6.317  0.0469 -0.7703  0.0565
  331SOL     hw 1322   2.689   0.898   6.337  0.3345  0.4630  0.6732
  331SOL     hw 1323   2.548   0.897   6.391  0.6311  1.5131  1.5120
  331SOL     vw 1324   2.605   0.920   6.329  0.1619 -0.3063  0.3297
  332SOL     ow 1325   2.783   3.855   5.933  0.6199  0.5392  0.6441
  332SOL     hw 1326   2.792   3.782   5.872  0.3783 -0.0844  1.3324
  332SOL     hw 1327   2.730   3.820   6.005  1.1159  1.1647  1.3381
  332SOL     vw 1328   2.777   3.841   5.935  0.6534  0.5395  0.8266
  333SOL     ow 1329   6.748   6.588   3.333  0.2653 -0.1460 -0.5611
  333SOL     hw 1330   6.732   6.676   3.369 -0.8200 -0.4386 -0.3106
  333SOL     hw 1331   6.713   6.592   3.244 -0.0446 -0.4117 -0.4509
  333SOL     vw 1332   6.741   6.600   3.326  0.0813 -0.2196 -0.5134
  334SOL     ow 1333   6.815   4.330   5.240 -0.1500 -0.3151  0.1544
  334SOL     hw 1334   6.816   4.362   5.330 -0.7231  1.7522 -0.5179
  334SOL     hw 1335   6.735   4.277   5.234  0.5864 -1.6048  1.1760
  334SOL     vw 1336   6.805   4.327   5.251 -0.1287 -0.2124  0.2007
  335SOL     ow 1337   5.075   3.758   5.933  0.1164  0.8738 -0.1441
  335SOL     hw 1338   4.999   3.703   5.913 -0.4676  0.8898  1.8041
  335SOL     hw 1339   5.150   3.708   5.901 -0.6245  0.3283 -1.0771
  335SOL     vw 1340   5.075   3.744   5.926 -0.0584  0.8038 -0.0100
  336SOL     ow 1341   5.990   1.273   6.452 -0.1500  0.0449  0.1131
  336SOL     hw 1342   5.978   1.182   6.478  0.7833  0.5093  2.3698
  336SOL     hw 1343   5.901   1.307   6.441 -0.5011 -1.2221 -1.2114
  336SOL     vw 1344   5.977   1.266   6.454 -0.0732 -0.0610  0.2363
  337SOL     ow 1345   4.143   2.178   4.163 -0.5976 -0.0410  0.0532
  337SOL     hw 1346   4.123   2.093   4.125  0.3172  0.1298 -0.8661
  337SOL     hw 1347   4.208   2.161   4.231  0.8283  0.0625 -1.2300
  337SOL     vw 1348   4.149   2.165   4.167 -0.2890 -0.0048 -0.2372
  338SOL     ow 1349   2.597   3.610   6.608  1.3097 -0.0276 -0.2087
  338SOL     hw 1350   2.672   3.581   6.660  2.3049 -0.6864 -1.9455
  338SOL     hw 1351   2.610   3.704   6.597  2.4117 -0.2761 -1.2539
  338SOL     vw 1352   2.608   3.619   6.614  1.5866 -0.1472 -0.5760
  339SOL     ow 1353   6.475   1.618   5.686 -0.5501  0.2579 -0.2068
  339SOL     hw 1354   6.430   1.603   5.603  1.2789  0.0514 -1.2240
  339SOL     hw 1355   6.474   1.533   5.730 -1.4375  0.3427 -0.0463
  339SOL     vw 1356   6.469   1.605   5.681 -0.4261  0.2418 -0.3200
  340SOL     ow 1357   6.994   1.440   6.466  0.3924  0.6320 -0.4339
  340SOL     hw 1358   7.043   1.482   6.537 -0.0115  0.7769 -0.2393
  340SOL     hw 1359   6.909   1.419   6.505  0.1176  0.8391 -0.9154
  340SOL     vw 1360   6.990   1.443   6.480  0.3026  0.6784 -0.4718
  341SOL     ow 1361   5.587   4.110   4.916  0.7267 -1.0894 -0.0499
  341SOL     hw 1362   5.522   4.084   4.851 -0.0840  0.4277  0.0867
  341SOL     hw 1363   5.537   4.163   4.979  2.0894  0.2165 -0.0021
  341SOL     vw 1364   5.572   4.114   4.916  0.7994 -0.7172 -0.0257
  342SOL     ow 1365   3.954   0.540   3.928 -0.2894  0.1374  0.5046
  342SOL     hw 1366   3.905   0.601   3.873  1.7937  1.5700  0.1087
  342SOL     hw 1367   4.012   0.493   3.868 -1.2014 -1.6378  0.9361
  342SOL     vw 1368   3.955   0.542   3.913 -0.1349  0.0922  0.5094
  343SOL     ow 1369   0.568   4.680   4.821 -0.5876 -0.1282  0.1422
  343SOL     hw 1370   0.655   4.658   4.788 -0.1178 -0.2863  1.4283
  343SOL     hw 1371   0.508   4.646   4.754  0.2723 -1.6334  0.0900
  343SOL     vw 1372   0.572   4.672   4.808 -0.4122 -0.3476  0.3049
  344SOL     ow 1373   3.686   6.335   6.956  0.5866  0.2094 -0.9212
  344SOL     hw 1374   3.659   6.244   6.971  0.5731  0.6491  2.3884
  344SOL     hw 1375   3.605   6.385   6.957  0.8191  0.7318  2.2592
  344SOL     vw 1376   3.672   6.329   6.958  0.6155  0.3364 -0.0648
  345SOL     ow 1377   3.611   3.768   3.709  0.4017 -0.4378 -0.0381
  345SOL     hw 1378   3.599   3.856   3.745  0.9751 -0.1065 -0.6491
  345SOL     hw 1379   3.671   3.779   3.636 -0.1627 -1.2135 -0.6472
  345SOL     vw 1380   3.617   3.781   3.704  0.4029 -0.4963 -0.1992
  346SOL     ow 1381   7.085   0.398   3.815 -0.6477  0.0299  0.1009
  346SOL     hw 1382   7.042   0.392   3.729  0.2879  0.1599 -0.3837
  346SOL     hw 1383   7.013   0.415   3.876 -1.4109 -0.7191 -0.5591
  346SOL     vw 1384   7.070   0.400   3.812 -0.6249 -0.0518 -0.0501
  347SOL     ow 1385   6.068   3.982   3.761 -0.4862 -0.2939  0.3667
  347SOL     hw 1386   6.146   3.952   3.807  0.5657 -2.2752 -2.4394
  347SOL     hw 1387   6.083   4.076   3.747  0.0418 -0.0530  2.1961
  347SOL     vw 1388   6.080   3.991   3.765 -0.2778 -0.5236  0.2379
  348SOL     ow 1389   3.906   5.792   2.624  0.0606 -0.7414 -0.4443
  348SOL     hw 1390   3.988   5.790   2.674 -0.0988 -0.3889 -0.1643
  348SOL     hw 1391   3.931   5.768   2.535  0.5123 -0.3723 -0.4212
  348SOL     vw 1392   3.920   5.789   2.619  0.0993 -0.6464 -0.4044
  349SOL     ow 1393   6.529   5.543   2.535  0.2561  0.0346  0.0637
  349SOL     hw 1394   6.546   5.634   2.509  0.4241  0.5995  1.9822
  349SOL     hw 1395   6.560   5.491   2.461  0.5353  1.5155 -0.9107
  349SOL     vw 1396   6.536   5.548   2.521  0.3152  0.3047  0.1881
  350SOL     ow 1397   2.185   7.078   1.130 -0.1595 -0.3629 -0.1073
  350SOL     hw 1398   2.241   7.010   1.092  0.9373 -0.1293  1.0324
  350SOL     hw 1399   2.117   7.093   1.064  1.5773 -0.0721 -1.9391
  350SOL     vw 1400   2.184   7.071   1.116  0.2145 -0.2935 -0.1986
  351SOL     ow 1401   5.093   0.948   0.979 -0.1803 -0.2161  0.2978
  351SOL     hw 1402   5.105   0.994   1.062  1.6826 -0.9749  0.4897
  351SOL     hw 1403   5.177   0.955   0.935 -0.1187 -2.6204 -0.0957
  351SOL     vw 1404   5.105   0.955   0.984  0.0737 -0.6334  0.2712
  352SOL     ow 1405   5.576   4.404   0.123 -0.0661  0.0691 -0.5722
  352SOL     hw 1406   5.656   4.445   0.158  0.1022 -0.7606  0.0469
  352SOL     hw 1407   5.604   4.317   0.096 -1.0059 -0.6805  0.7761
  352SOL     vw 1408   5.591   4.398   0.124 -0.1678 -0.1395 -0.3126
  353SOL     ow 1409   6.527   6.050   7.096  0.7315 -0.6062  0.3067
  353SOL     hw 1410   6.470   6.050   7.019  1.9199 -0.3788 -0.6005
  353SOL     hw 1411   6.615   6.063   7.061  1.2650 -0.1446  1.7342
  353SOL     vw 1412   6.531   6.052   7.081  0.9587 -0.5155  0.3753
  354SOL     ow 1413   6.341   0.719   1.746  0.1051  0.7436  0.1355
  354SOL     hw 1414   6.301   0.634   1.724 -1.8303  2.1160 -2.1807
  354SOL     hw 1415   6.427   0.716   1.706 -0.0053 -0.0734 -0.0609
  354SOL     vw 1416   6.347   0.707   1.738 -0.1650  0.8169 -0.1960
  355SOL     ow 1417   6.830   1.464   0.253 -0.8657 -0.6565  0.5298
  355SOL     hw 1418   6.806   1.475   0.161  1.9733 -1.5839 -0.4363
  355SOL     hw 1419   6.841   1.554   0.286 -3.2582 -0.2795  0.4463
  355SOL     vw 1420   6.829   1.477   0.246 -0.8068 -0.7291  0.3913
  356SOL     ow 1421   1.840   4.560   2.704  0.6333 -0.4216  0.2369
  356SOL     hw 1422   1.775   4.491   2.688 -0.9416  1.1479 -0.5509
  356SOL     hw 1423   1.874   4.581   2.617 -0.3049  1.0244  0.1678
  356SOL     vw 1424   1.836   4.554   2.690  0.3017 -0.0238  0.1237
  357SOL     ow 1425   0.865   5.395   0.181 -1.0031  0.1147  0.1038
  357SOL     hw 1426   0.852   5.463   0.247 -1.6688  0.2586 -0.1692
  357SOL     hw 1427   0.815   5.320   0.215  0.3516 -0.5157  0.7909
  357SOL     vw 1428   0.857   5.394   0.195 -0.9122  0.0505  0.1585
  358SOL     ow 1429   5.836   6.248   7.022  0.3782 -0.1113 -0.1553
  358SOL     hw 1430   5.742   6.266   7.024  0.7525  2.4096 -1.1397
  358SOL     hw 1431   5.844   6.166   6.975 -1.4115 -1.6576  1.9877
  358SOL     vw 1432   5.825   6.239   7.016  0.1917  0.0172 -0.0026
  359SOL     ow 1433   5.504   2.326   5.260  0.6525  1.0643  0.3405
  359SOL     hw 1434   5.573   2.302   5.321  0.8226 -0.0942 -0.2792
  359SOL     hw 1435   5.469   2.408   5.295  0.1411 -0.0001  2.4658
  359SOL     vw 1436   5.509   2.334   5.272  0.6073  0.7709  0.5391
  360SOL     ow 1437   6.859   4.086   1.932 -0.2024 -0.7060 -0.0362
  360SOL     hw 1438   6.905   4.143   1.871 -0.8150  0.2774  0.3927
  360SOL     hw 1439   6.812   4.146   1.990  0.6029 -1.5990  1.6015
  360SOL     vw 1440   6.859   4.102   1.932 -0.1771 -0.6940  0.2365
  361SOL     ow 1441   6.554   1.151   5.274 -0.0905  0.0482 -0.3246
  361SOL     hw 1442   6.553   1.069   5.225 -0.7610 -0.4363  0.4795
  361SOL     hw 1443   6.585   1.216   5.211  1.2055 -0.9486 -0.7489
  361SOL     vw 1444   6.558   1.149   5.259 -0.0081 -0.1472 -0.2744
  362SOL     ow 1445   6.175   1.389   0.123  0.4087 -0.3744 -0.0083
  362SOL     hw 1446   6.268   1.397   0.148  0.7062 -0.2542 -1.0902
  362SOL     hw 1447   6.166   1.297   0.096 -0.2378 -0.8618  1.7606
  362SOL     vw 1448   6.186   1.378   0.123  0.3624 -0.4228  0.0823
  363SOL     ow 1449   3.460   3.093   2.892  0.1686  0.0287 -0.2902
  363SOL     hw 1450   3.472   3.135   2.806 -0.5494  1.2799  0.1933
  363SOL     hw 1451   3.365   3.085   2.902  0.2075  0.7279  0.7609
  363SOL     vw 1452   3.449   3.097   2.882  0.0789  0.2860 -0.0879
  364SOL     ow 1453   2.059   4.564   2.551 -0.6351  0.4212  0.0675
  364SOL     hw 1454   2.111   4.529   2.624 -0.9019 -1.5762 -0.6322
  364SOL     hw 1455   2.090   4.516   2.474 -0.3322  2.5107 -1.1728
  364SOL     vw 1456   2.070   4.553   2.551 -0.6303  0.4334 -0.1884
  365SOL     ow 1457   4.745   3.712   4.232 -0.0068  0.0693  0.1429
  365SOL     hw 1458   4.714   3.765   4.306  2.8045  1.4891  0.4426
  365SOL     hw 1459   4.837   3.737   4.222  0.7322 -2.8477 -1.4677
  365SOL     vw 1460   4.753   3.722   4.241  0.4616 -0.1283 -0.0303
  366SOL     ow 1461   4.969   2.850   0.690  0.4190  0.3567 -0.0625
  366SOL     hw 1462   4.883   2.808   0.682  1.5045 -2.2158  0.8886
  366SOL     hw 1463   5.009   2.839   0.604  1.4952 -2.6572  0.6950
  366SOL     vw 1464   4.963   2.843   0.678  0.7045 -0.3804  0.1630
  367SOL     ow 1465   4.313   1.524   5.710 -0.4278 -0.0199  0.1867
  367SOL     hw 1466   4.250   1.462   5.747 -1.7815  1.8740  1.1787
  367SOL     hw 1467   4.393   1.472   5.700 -1.1997 -1.6867  1.9127
  367SOL     vw 1468   4.315   1.509   5.714 -0.7081  0.0101  0.5453
  368SOL     ow 1469   1.004   5.941   5.112 -0.2817  0.1699 -0.4200
  368SOL     hw 1470   1.099   5.945   5.122 -0.4206  0.8522  0.8584
  368SOL     hw 1471   0.984   6.000   5.040 -0.0192  2.9396  1.6427
  368SOL     vw 1472   1.014   5.949   5.104 -0.2654  0.6254  0.0207
  369SOL     ow 1473   0.192   0.059   3.480 -0.0844 -0.0176  0.3247
  369SOL     hw 1474   0.272   0.070   3.428 -0.4486 -0.5202 -0.3590
  369SOL     hw 1475   0.196  -0.031   3.512 -0.1053  0.1351  0.7598
  369SOL     vw 1476   0.203   0.049   3.477 -0.1352 -0.0637  0.2919
  370SOL     ow 1477   1.756   0.375   2.857  0.0558  0.7255 -0.2111
  370SOL     hw 1478   1.719   0.338   2.937  0.1463 -0.2549 -0.6127
  370SOL     hw 1479   1.690   0.438   2.827 -1.1315 -0.6988 -0.6983
  370SOL     vw 1480   1.742   0.378   2.863 -0.0889  0.4082 -0.3284
  371SOL     ow 1481   3.532   6.344   3.871  0.4670 -0.1609  0.0745
  371SOL     hw 1482   3.487   6.415   3.915  0.8246 -0.0728  0.3022
  371SOL     hw 1483   3.619   6.380   3.850  0.6839 -0.5555  0.2792
  371SOL     vw 1484   3.538   6.358   3.874  0.5428 -0.2015  0.1315
  372SOL     ow 1485   5.094   2.086   4.007 -0.7388 -0.4576  0.2501
  372SOL     hw 1486   5.053   2.144   3.943  0.2165  1.2790  1.1169
  372SOL     hw 1487   5.162   2.039   3.958  1.0184  1.9516  0.1584
  372SOL     vw 1488   5.098   2.088   3.992 -0.3808  0.0895  0.3525
  373SOL     ow 1489   3.603   2.363   4.330  0.4994 -0.6455 -0.1153
  373SOL     hw 1490   3.692   2.391   4.311  0.3215  0.2779  0.3832
  373SOL     hw 1491   3.612   2.271   4.357  1.1121 -1.0073 -1.5049
  373SOL     vw 1492   3.616   2.354   4.331  0.5568 -0.5716 -0.2329
  374SOL     ow 1493   4.476   3.741   5.993  0.3124 -0.3117  0.8458
  374SOL     hw 1494   4.499   3.651   5.969 -0.8176 -0.6108  0.8022
  374SOL     hw 1495   4.491   3.745   6.088  3.0143  0.3186  0.4545
  374SOL     vw 1496   4.481   3.729   6.002  0.5198 -0.2679  0.7882
  375SOL     ow 1497   1.264   4.725   1.034 -0.7076  0.0893  0.3867
  375SOL     hw 1498   1.326   4.725   1.107 -0.9126  1.0602  0.5778
  375SOL     hw 1499   1.314   4.690   0.960 -0.8817 -2.2136  1.2689
  375SOL     vw 1500   1.279   4.721   1.034 -0.7576 -0.0863  0.5283
  376SOL     ow 1501   5.855   2.047   5.782 -0.6324 -0.1454 -0.2503
  376SOL     hw 1502   5.878   1.988   5.854 -1.2652  1.1381  1.0589
  376SOL     hw 1503   5.799   1.994   5.725  2.1560 -2.1016 -1.4394
  376SOL     vw 1504   5.851   2.032   5.784 -0.3481 -0.2341 -0.2344
  377SOL     ow 1505   0.952   1.104   1.742  0.5585  0.6517 -0.5853
  377SOL     hw 1506   0.916   1.022   1.776 -0.4184  0.9576 -0.8347
  377SOL     hw 1507   1.044   1.085   1.725  0.6165 -0.0578  0.4343
  377SOL     vw 1508   0.959   1.091   1.745  0.4372  0.5984 -0.4837
  378SOL     ow 1509   3.715   5.270   5.672  0.1960 -0.3912  0.3933
  378SOL     hw 1510   3.744   5.192   5.625 -2.7368 -0.1604 -2.1146
  378SOL     hw 1511   3.747   5.344   5.620 -1.2061 -0.0807 -0.0703
  378SOL     vw 1512   3.723   5.269   5.659 -0.3760 -0.3197  0.0014
  379SOL     ow 1513   3.441   2.030   2.000 -0.1251 -0.3466 -0.7258
  379SOL     hw 1514   3.377   1.959   2.002  0.3206 -0.8149 -1.9048
  379SOL     hw 1515   3.525   1.986   2.014  0.0398  0.1295 -0.1917
  379SOL     vw 1516   3.444   2.015   2.002 -0.0445 -0.3456 -0.8110
  380SOL     ow 1517   2.296   2.482   0.889 -0.2150  0.2991 -0.0411
  380SOL     hw 1518   2.338   2.558   0.929  1.7201 -0.5118 -0.3697
  380SOL     hw 1519   2.343   2.470   0.806 -0.8497 -0.9076 -0.2509
  380SOL     vw 1520   2.308   2.491   0.883 -0.0434  0.0329 -0.1122
  381SOL     ow 1521   1.433   1.462   2.704  0.3216 -0.2896 -0.3451
  381SOL     hw 1522   1.496   1.412   2.756 -0.3766 -0.2045  0.6067
  381SOL     hw 1523   1.402   1.530   2.764 -1.2938 -0.8420 -0.5206
  381SOL     vw 1524   1.437   1.464   2.719  0.0163 -0.3513 -0.2426
  382SOL     ow 1525   2.218   1.705   3.658  0.3518  0.3263  0.0848
  382SOL     hw 1526   2.264   1.737   3.581  1.8010 -1.3208  0.1909
  382SOL     hw 1527   2.228   1.775   3.723 -1.0941  1.8257 -1.2509
  382SOL     vw 1528   2.225   1.718   3.657  0.3523  0.3068 -0.0775
  383SOL     ow 1529   0.137   5.025   2.820  0.5845 -0.1408  0.0034
  383SOL     hw 1530   0.070   5.014   2.886 -1.4381 -0.2915 -1.9714
  383SOL     hw 1531   0.181   5.107   2.844  0.4730 -0.5874  1.9165
  383SOL     vw 1532   0.134   5.035   2.832  0.3029 -0.2196 -0.0046
  384SOL     ow 1533   3.739   5.056   5.879 -0.4987  0.1021 -0.1580
  384SOL     hw 1534   3.787   4.984   5.838 -1.2670  0.4620 -1.7265
  384SOL     hw 1535   3.647   5.032   5.868 -0.9130  2.5334 -3.1523
  384SOL     vw 1536   3.733   5.043   5.872 -0.6547  0.4702 -0.7598
  385SOL     ow 1537   5.526   4.036   2.682  0.6075 -0.2937  0.4003
  385SOL     hw 1538   5.558   4.120   2.649 -0.0219 -0.0423  0.4345
  385SOL     hw 1539   5.469   4.003   2.613  2.2800 -1.5809 -0.4593
  385SOL     vw 1540   5.523   4.043   2.669  0.7455 -0.4303  0.2915
  386SOL     ow 1541   5.012   0.931   6.048 -0.5045 -0.6580 -0.3628
  386SOL     hw 1542   4.977   0.920   6.136  0.8933 -1.3996  0.1162
  386SOL     hw 1543   4.936   0.958   5.996 -1.5559 -1.1539  0.8559
  386SOL     vw 1544   4.997   0.933   6.052 -0.4587 -0.8212 -0.1388
  387SOL     ow 1545   4.562   5.008   0.766  0.1176 -0.2666  0.3347
  387SOL     hw 1546   4.641   4.981   0.812  0.0961  1.1203  1.2261
  387SOL     hw 1547   4.536   5.090   0.807 -1.2104 -0.1576 -0.6332
  387SOL     vw 1548   4.569   5.015   0.777 -0.0603 -0.0691  0.3246
  388SOL     ow 1549   7.140   4.479   1.683  0.3666 -0.0219  0.5176
  388SOL     hw 1550   7.069   4.424   1.716  0.4505  0.5358  1.6745
  388SOL     hw 1551   7.185   4.424   1.619  0.8696 -1.5600  2.1179
  388SOL     vw 1552   7.137   4.464   1.679  0.4442 -0.1512  0.8814
  389SOL     ow 1553   1.608   6.549   5.690  0.0984 -0.5044  0.1631
  389SOL     hw 1554   1.665   6.491   5.740 -0.5498  0.8905  2.6898
  389SOL     hw 1555   1.631   6.637   5.719 -1.0822  0.2933 -1.2064
  389SOL     vw 1556   1.618   6.553   5.701 -0.1428 -0.2151  0.3159
  390SOL     ow 1557   5.494   0.623   3.498  0.2110  0.1011 -0.3195
  390SOL     hw 1558   5.500   0.602   3.405  0.5739  0.5523 -0.4056
  390SOL     hw 1559   5.500   0.719   3.501 -1.2317  0.1943  0.0651
  390SOL     vw 1560   5.496   0.633   3.486  0.0684  0.1729 -0.2801
  391SOL     ow 1561   0.693   6.664   6.201  0.6720 -0.3092  0.1980
  391SOL     hw 1562   0.783   6.650   6.230  0.4702 -0.7927  0.6180
  391SOL     hw 1563   0.674   6.756   6.221  0.5333 -0.6322  1.6482
  391SOL     vw 1564   0.702   6.674   6.208  0.6271 -0.4156  0.4447
  392SOL     ow 1565   2.610   0.202   4.211 -0.5368  0.4282 -0.0586
  392SOL     hw 1566   2.530   0.251   4.229  0.1501  0.9843  1.6883
  392SOL     hw 1567   2.638   0.233   4.124 -2.5849 -0.3491 -1.0593
  392SOL     vw 1568   2.603   0.213   4.202 -0.7163  0.3990  0.0401
  393SOL     ow 1569   4.288   1.334   7.021 -0.2360 -0.8893 -0.8273
  393SOL     hw 1570   4.311   1.426   7.035  1.8462 -1.5540  0.5584
  393SOL     hw 1571   4.248   1.307   7.104 -2.2305 -0.9256 -1.7241
  393SOL     vw 1572   4.285   1.343   7.034 -0.2244 -0.9818 -0.7629
  394SOL     ow 1573   0.597   6.505   4.213 -0.3935 -0.1373  0.1967
  394SOL     hw 1574   0.544   6.492   4.135  0.2159 -0.1746 -0.2159
  394SOL     hw 1575   0.538   6.485   4.286 -0.8731 -0.4135 -0.2620
  394SOL     vw 1576   0.582   6.501   4.212 -0.3764 -0.1786  0.0818
  395SOL     ow 1577   2.111   5.567   5.200 -0.3833  0.0496  0.4214
  395SOL     hw 1578   2.046   5.612   5.253  1.0213  2.3680  0.2882
  395SOL     hw 1579   2.060   5.526   5.130 -1.6295  3.9461 -1.2324
  395SOL     vw 1580   2.096   5.567   5.198 -0.3624  0.8695  0.1855
  396SOL     ow 1581   1.165   2.094   5.226  0.1045  0.0857  0.7680
  396SOL     hw 1582   1.211   2.019   5.187  1.7720  2.0040 -1.2153
  396SOL     hw 1583   1.217   2.116   5.303  0.6107  0.2483  0.3824
  396SOL     vw 1584   1.178   2.087   5.231  0.3912  0.3601  0.4554
  397SOL     ow 1585   5.450   4.928   7.158 -0.8072 -0.0596  0.8402
  397SOL     hw 1586   5.494   4.949   7.241  0.1425  0.0024  0.3235
  397SOL     hw 1587   5.398   5.007   7.139 -1.0121 -0.0611  1.3526
  397SOL     vw 1588   5.449   4.941   7.167 -0.7088 -0.0515  0.8397
  398SOL     ow 1589   2.828   2.891   2.442 -0.4756  0.8180 -0.3652
  398SOL     hw 1590   2.849   2.800   2.460 -0.4638  0.5630 -1.5628
  398SOL     hw 1591   2.832   2.934   2.527 -0.5845 -0.3152  0.2291
  398SOL     vw 1592   2.832   2.885   2.455 -0.4885  0.6348 -0.4448
  399SOL     ow 1593   6.725   4.201   4.352  0.2827  0.0020 -0.0502
  399SOL     hw 1594   6.752   4.110   4.367  1.0140  0.0568 -0.9624
  399SOL     hw 1595   6.637   4.193   4.313  1.3959 -0.4946 -2.6935
  399SOL     vw 1596   6.717   4.188   4.348  0.5260 -0.0565 -0.5190
  400SOL     ow 1597   5.801   4.358   2.155  0.3898 -0.0902 -0.6182
  400SOL     hw 1598   5.853   4.313   2.088 -0.9393  0.7143 -2.2577
  400SOL     hw 1599   5.724   4.303   2.167  0.7808 -0.4179  0.5838
  400SOL     vw 1600   5.798   4.345   2.148  0.2656 -0.0274 -0.6760
  401SOL     ow 1601   5.627   4.456   3.013 -0.0914  0.1720  0.2113
  401SOL     hw 1602   5.619   4.476   3.106 -0.0238  1.2705 -0.0009
  401SOL     hw 1603   5.634   4.542   2.971 -0.9004 -0.2620 -0.8738
  401SOL     vw 1604   5.627   4.470   3.019 -0.1895  0.2599  0.0402
  402SOL     ow 1605   0.693   5.291   1.804  0.1423  0.3054 -0.5295
  402SOL     hw 1606   0.664   5.224   1.742  1.1272 -1.6079  0.9562
  402SOL     hw 1607   0.614   5.315   1.852 -0.5915  1.6669 -2.3053
  402SOL     vw 1608   0.679   5.285   1.802  0.1754  0.2327 -0.5677
  403SOL     ow 1609   2.974   2.810   6.161 -0.3646  0.2903 -0.0911
  403SOL     hw 1610   3.062   2.848   6.160 -0.3442  0.2462  0.1136
  403SOL     hw 1611   2.917   2.882   6.134 -0.3258  0.4666  0.2986
  403SOL     vw 1612   2.978   2.824   6.157 -0.3567  0.3077 -0.0126
  404SOL     ow 1613   6.035   1.895   4.630  0.4473  0.2028 -0.3362
  404SOL     hw 1614   6.116   1.944   4.644  1.4294 -1.3481 -0.2274
  404SOL     hw 1615   6.048   1.852   4.545 -0.4830  0.3064 -0.5432
  404SOL     vw 1616   6.048   1.896   4.620  0.4542  0.0118 -0.3493
  405SOL     ow 1617   5.830   5.737   6.552 -0.3101 -0.6314 -0.9869
  405SOL     hw 1618   5.869   5.817   6.588  1.1033 -1.8729  0.3642
  405SOL     hw 1619   5.742   5.764   6.525 -0.9018  0.7704  1.9376
  405SOL     vw 1620   5.824   5.751   6.553 -0.2017 -0.6104 -0.4230
  406SOL     ow 1621   1.825   5.211   0.780 -0.5104 -0.3082  0.8635
  406SOL     hw 1622   1.885   5.165   0.722  1.4525  1.2529  1.5537
  406SOL     hw 1623   1.773   5.266   0.722 -1.7870 -2.0987  0.2022
  406SOL     vw 1624   1.826   5.212   0.765 -0.4199 -0.3383  0.8673
  407SOL     ow 1625   3.414   4.453   2.281  0.2907 -0.2463  0.3244
  407SOL     hw 1626   3.334   4.488   2.241  0.7683  0.4965 -0.0074
  407SOL     hw 1627   3.384   4.380   2.335 -0.7447  0.6961  1.0552
  407SOL     vw 1628   3.400   4.448   2.283  0.2171 -0.0238  0.3772
  408SOL     ow 1629   5.267   4.964   3.016  0.1274 -0.0972  0.0550
  408SOL     hw 1630   5.259   4.871   2.999 -0.4849 -0.3968  1.7886
  408SOL     hw 1631   5.348   4.973   3.066  0.2495  0.3214 -0.2083
  408SOL     vw 1632   5.277   4.953   3.020  0.0627 -0.0815  0.2491
  409SOL     ow 1633   3.308   0.015   4.460 -0.1924 -0.0813 -0.0887
  409SOL     hw 1634   3.348   0.102   4.469 -0.8486  0.3473 -1.1393
  409SOL     hw 1635   3.214   0.031   4.467 -0.4328 -0.4304 -1.9174
  409SOL     vw 1636   3.301   0.029   4.462 -0.3107 -0.0708 -0.4685
  410SOL     ow 1637   1.292   3.321   6.792 -0.6971 -0.4079  0.2129
  410SOL     hw 1638   1.230   3.378   6.838  0.0004 -1.0927  2.1066
  410SOL     hw 1639   1.378   3.352   6.820 -0.2313 -0.6999 -0.8522
  410SOL     vw 1640   1.296   3.333   6.802 -0.5437 -0.5368  0.3221
  411SOL     ow 1641   0.539   5.961   1.321 -0.2550 -0.0901  0.4206
  411SOL     hw 1642   0.629   5.935   1.342 -0.8316 -2.4581  0.2783
  411SOL     hw 1643   0.485   5.888   1.351 -1.7029 -1.0535 -3.7224
  411SOL     vw 1644   0.544   5.948   1.327 -0.5221 -0.5295 -0.1448
  412SOL     ow 1645   5.217   1.258   1.940  0.4907 -0.0129 -0.6653
  412SOL     hw 1646   5.298   1.271   1.891  0.2555  2.3898 -0.5179
  412SOL     hw 1647   5.242   1.270   2.032  0.1914 -0.5507 -0.5068
  412SOL     vw 1648   5.231   1.261   1.946  0.4206  0.2331 -0.6250
  413SOL     ow 1649   0.599   5.757   5.446  0.1691 -0.4786  0.4638
  413SOL     hw 1650   0.521   5.753   5.391  2.2763 -0.2602 -2.7686
  413SOL     hw 1651   0.607   5.849   5.469 -0.2855 -0.4373  0.4697
  413SOL     vw 1652   0.590   5.769   5.442  0.3872 -0.4444  0.0384
  414SOL     ow 1653   2.210   2.278   5.808  0.1974  0.0851  0.3852
  414SOL     hw 1654   2.170   2.321   5.733  0.0611 -1.6916 -0.6120
  414SOL     hw 1655   2.170   2.320   5.884 -0.5610  1.0916 -0.5500
  414SOL     vw 1656   2.200   2.289   5.808  0.0794 -0.0165  0.1302
  415SOL     ow 1657   4.899   1.982   1.768  0.1227 -0.0469 -0.2314
  415SOL     hw 1658   4.831   1.950   1.709  0.4033  1.5988 -1.5339
  415SOL     hw 1659   4.975   1.996   1.712 -0.1173  3.2147  0.0748
  415SOL     vw 1660   4.900   1.980   1.753  0.1283  0.6006 -0.3629
  416SOL     ow 1661   6.239   3.355   6.152  0.5440 -0.0928 -0.3673
  416SOL     hw 1662   6.228   3.382   6.243  0.8382  1.6846 -0.8305
  416SOL     hw 1663   6.248   3.260   6.157 -1.0361 -0.2234  1.3040
  416SOL     vw 1664   6.239   3.346   6.165  0.3743  0.1246 -0.2079
  417SOL     ow 1665   4.398   1.037   6.960 -0.4889  1.2897 -0.2812
  417SOL     hw 1666   4.471   1.063   7.015  1.6838  0.7380 -2.6997
  417SOL     hw 1667   4.379   0.946   6.985 -0.5728  1.5373  0.5677
  417SOL     vw 1668   4.405   1.028   6.971 -0.2134  1.2496 -0.4880
  418SOL     ow 1669   1.301   6.510   4.871 -0.3046  0.2967 -0.3890
  418SOL     hw 1670   1.322   6.475   4.957  4.1439 -1.7682 -2.0126
  418SOL     hw 1671   1.353   6.590   4.864  1.5165 -0.9292 -1.9327
  418SOL     vw 1672   1.311   6.516   4.882  0.5226 -0.1376 -0.8070
  419SOL     ow 1673   6.517   3.875   1.683  0.5746 -0.4064  0.2437
  419SOL     hw 1674   6.558   3.855   1.599  0.4306 -3.5854  0.7772
  419SOL     hw 1675   6.433   3.830   1.680 -1.5330  3.1520  0.4855
  419SOL     vw 1676   6.512   3.866   1.672  0.2775 -0.3566  0.3460
  420SOL     ow 1677   2.188   1.596   4.972  0.5724 -0.2604  0.3885
  420SOL     hw 1678   2.245   1.602   5.049 -0.1150 -0.1744  0.8976
  420SOL     hw 1679   2.199   1.681   4.928  0.6368 -0.1401  0.6314
  420SOL     vw 1680   2.197   1.608   4.976  0.4903 -0.2331  0.4878
  421SOL     ow 1681   4.411   3.664   2.509 -0.1627  0.3437  0.2512
  421SOL     hw 1682   4.364   3.582   2.497 -0.5048  0.5457  0.1820
  421SOL     hw 1683   4.465   3.674   2.431  2.5748 -1.5294  1.7439
  421SOL     vw 1684   4.412   3.655   2.497  0.1535  0.1233  0.4389
  422SOL     ow 1685   6.117   1.490   6.263 -0.1939  0.1925  0.0991
  422SOL     hw 1686   6.100   1.583   6.281  0.3870  0.0966  1.2534
  422SOL     hw 1687   6.165   1.490   6.180  0.0562  0.9540  0.2331
  422SOL     vw 1688   6.121   1.503   6.254 -0.0844  0.2803  0.2692
  423SOL     ow 1689   1.235   2.865   0.415 -0.2124 -0.2751  0.0676
  423SOL     hw 1690   1.224   2.789   0.358 -0.3220 -0.3714  0.2158
  423SOL     hw 1691   1.329   2.884   0.412  0.0835 -1.3912  1.2535
  423SOL     vw 1692   1.246   2.857   0.407 -0.1878 -0.4351  0.2436
  424SOL     ow 1693   6.595   0.622   4.406 -1.1022 -0.1673  0.2318
  424SOL     hw 1694   6.561   0.639   4.494  0.9765  0.6709  0.9292
  424SOL     hw 1695   6.624   0.531   4.409  1.2815  0.5440  1.3132
  424SOL     vw 1696   6.594   0.612   4.418 -0.5133  0.0371  0.4666
  425SOL     ow 1697   7.155   4.767   3.896 -0.4690 -0.1359 -0.2632
  425SOL     hw 1698   7.223   4.760   3.962 -1.0773 -1.1391  0.2864
  425SOL     hw 1699   7.110   4.682   3.898 -2.1634  0.7164 -0.1290
  425SOL     vw 1700   7.158   4.755   3.905 -0.7728 -0.1557 -0.1730
  426SOL     ow 1701   6.910   3.568   1.870  0.2793  0.4484 -0.4052
  426SOL     hw 1702   6.992   3.559   1.822 -0.0743  0.0303 -0.9284
  426SOL     hw 1703   6.843   3.584   1.803 -0.5258 -1.9513 -0.2527
  426SOL     vw 1704   6.912   3.569   1.855  0.1264  0.0765 -0.4541
  427SOL     ow 1705   6.581   5.066   1.520  0.2866 -1.2044  0.2892
  427SOL     hw 1706   6.607   5.158   1.511  0.4547 -1.3655 -1.1972
  427SOL     hw 1707   6.623   5.036   1.600  1.0862 -0.2636  0.2345
  427SOL     vw 1708   6.590   5.074   1.529  0.4144 -1.1015  0.0858
  428SOL     ow 1709   2.338   5.266   1.487  0.0607  0.9926  1.1208
  428SOL     hw 1710   2.250   5.252   1.522  0.3523 -2.3831  0.8802
  428SOL     hw 1711   2.333   5.233   1.397  1.5640  0.7500  1.1055
  428SOL     vw 1712   2.326   5.259   1.480  0.2975  0.5150  1.0870
  429SOL     ow 1713   7.008   4.408   4.719  0.3568  0.7595 -0.5437
  429SOL     hw 1714   7.003   4.467   4.794  1.7807  0.0431  0.1479
  429SOL     hw 1715   6.989   4.321   4.755  1.4026  0.3550 -0.9237
  429SOL     vw 1716   7.005   4.404   4.733  0.6826  0.6115 -0.5026
  430SOL     ow 1717   5.680   4.508   3.890  0.6216 -0.2716  0.7866
  430SOL     hw 1718   5.585   4.509   3.896  0.5285  0.8847 -0.3758
  430SOL     hw 1719   5.700   4.428   3.840  0.0249  0.8658 -1.4175
  430SOL     vw 1720   5.670   4.497   3.884  0.5307  0.0310  0.3425
  431SOL     ow 1721   1.311   2.426   5.075  0.7685  0.6214  0.3130
  431SOL     hw 1722   1.288   2.514   5.044 -0.1045  0.7410  1.2680
  431SOL     hw 1723   1.334   2.438   5.167 -0.1008 -0.2519  0.6628
  431SOL     vw 1724   1.311   2.439   5.083  0.5386  0.5219  0.4852
  432SOL     ow 1725   4.786   5.528   2.922 -0.1661 -0.0951  0.4587
  432SOL     hw 1726   4.702   5.548   2.962 -0.3637  1.3447 -0.5644
  432SOL     hw 1727   4.838   5.608   2.934  0.5306 -0.4346 -0.1905
  432SOL     vw 1728   4.782   5.541   2.929 -0.1004  0.0498  0.2381
  433SOL     ow 1729   6.723   2.545   0.245  0.4760 -0.2208  0.2031
  433SOL     hw 1730   6.720   2.603   0.169  0.9038 -0.2140  0.1921
  433SOL     hw 1731   6.697   2.460   0.211  1.3365 -0.3716 -0.0968
  433SOL     vw 1732   6.719   2.542   0.230  0.6459 -0.2398  0.1621
  434SOL     ow 1733   2.339   0.794   3.033  0.5439  0.1930  0.4226
  434SOL     hw 1734   2.257   0.835   3.061  1.2627  0.8295  1.6722
  434SOL     hw 1735   2.324   0.700   3.045 -1.3275 -0.1111 -3.0112
  434SOL     vw 1736   2.326   0.787   3.038  0.3918  0.2368  0.1343
  435SOL     ow 1737   0.996   5.617   5.233 -0.4812 -0.4375 -0.1740
  435SOL     hw 1738   1.020   5.584   5.319 -1.7634  0.9419  0.7492
  435SOL     hw 1739   0.995   5.539   5.177  0.8223 -1.2774  0.9237
  435SOL     vw 1740   0.999   5.602   5.237 -0.4784 -0.3662  0.0930
  436SOL     ow 1741   5.733   3.415   2.050  0.1627 -0.7287  0.7331
  436SOL     hw 1742   5.756   3.468   2.126  0.5453 -0.6473  0.5641
  436SOL     hw 1743   5.802   3.434   1.986 -1.2634  0.8211 -0.4293
  436SOL     vw 1744   5.745   3.425   2.051  0.0250 -0.5133  0.5574
  437SOL     ow 1745   1.328   0.510   6.581  1.0223 -0.3431  0.2960
  437SOL     hw 1746   1.276   0.576   6.534  1.0506 -1.8096 -1.9646
  437SOL     hw 1747   1.418   0.542   6.576  0.6776  1.1163  2.3039
  437SOL     vw 1748   1.333   0.523   6.574  0.9806 -0.3440  0.2627
  438SOL     ow 1749   5.225   0.712   0.892  0.1235 -0.3300 -0.0811
  438SOL     hw 1750   5.205   0.622   0.868 -0.9020 -0.1261 -0.0310
  438SOL     hw 1751   5.295   0.705   0.957  0.1751 -1.0701 -0.2076
  438SOL     vw 1752   5.232   0.699   0.897 -0.0050 -0.4008 -0.0911
  439SOL     ow 1753   6.039   5.558   6.428  0.3145  0.4784 -0.1460
  439SOL     hw 1754   6.082   5.561   6.514 -0.1637 -1.6410  0.2236
  439SOL     hw 1755   6.092   5.615   6.373  1.0261  1.3571  1.3786
  439SOL     vw 1756   6.052   5.566   6.432  0.3452  0.3147  0.1040
  440SOL     ow 1757   0.262   0.468   3.451  0.3503 -0.3644  0.0439
  440SOL     hw 1758   0.235   0.539   3.393  0.6737  0.9249  1.4069
  440SOL     hw 1759   0.309   0.407   3.394  0.1130  0.5343 -1.1496
  440SOL     vw 1760   0.265   0.469   3.436  0.3617 -0.0757  0.0664
  441SOL     ow 1761   4.586   0.811   5.104 -0.4881  0.5122  0.2811
  441SOL     hw 1762   4.557   0.742   5.044 -0.4539  0.5112  0.2651
  441SOL     hw 1763   4.647   0.863   5.051 -0.6878  0.6892  0.2236
  441SOL     vw 1764   4.590   0.809   5.089 -0.5100  0.5354  0.2716
  442SOL     ow 1765   0.844   3.156   2.719  0.3277  0.5157  0.0720
  442SOL     hw 1766   0.762   3.188   2.683  0.9039  0.9226 -0.9343
  442SOL     hw 1767   0.857   3.207   2.799 -0.9530 -0.3699  0.8846
  442SOL     vw 1768   0.835   3.167   2.725  0.2347  0.4525  0.0465
  443SOL     ow 1769   5.771   3.759   5.890  0.4413  0.3562  0.1656
  443SOL     hw 1770   5.847   3.706   5.867 -0.8199 -1.0569 -0.9125
  443SOL     hw 1771   5.718   3.762   5.810 -1.2276  0.2630  1.2192
  443SOL     vw 1772   5.774   3.752   5.877  0.0546  0.1575  0.1624
  444SOL     ow 1773   2.546   4.944   4.401 -0.3138 -0.3953 -0.3026
  444SOL     hw 1774   2.555   4.965   4.308 -0.5568  0.9688 -0.0443
  444SOL     hw 1775   2.629   4.973   4.439  0.2810 -2.0679 -0.2565
  444SOL     vw 1776   2.558   4.951   4.394 -0.2674 -0.4358 -0.2625
  445SOL     ow 1777   3.522   3.873   1.241  0.2270  0.3488  0.2677
  445SOL     hw 1778   3.441   3.827   1.218  0.2366 -0.5260  1.7665
  445SOL     hw 1779   3.497   3.928   1.316  0.8692  0.5635  0.3253
  445SOL     vw 1780   3.508   3.874   1.248  0.3130  0.2618  0.4730
  446SOL     ow 1781   2.868   3.615   3.160  0.2579  0.2915  0.0781
  446SOL     hw 1782   2.805   3.658   3.218 -0.1524 -1.1618  0.7578
  446SOL     hw 1783   2.839   3.636   3.072 -0.5649  0.5003  0.3932
  446SOL     vw 1784   2.856   3.624   3.156  0.0952  0.1272  0.2093
  447SOL     ow 1785   2.352   5.501   4.473 -0.1998 -0.4052  0.7166
  447SOL     hw 1786   2.443   5.528   4.474 -0.4229  0.3826  1.5983
  447SOL     hw 1787   2.313   5.548   4.399  0.2478 -1.2975 -0.1072
  447SOL     vw 1788   2.359   5.511   4.464 -0.1702 -0.4189  0.7243
  448SOL     ow 1789   4.647   3.583   1.052 -0.4355 -0.3035 -0.2203
  448SOL     hw 1790   4.565   3.632   1.048 -0.4615 -0.3987 -1.6543
  448SOL     hw 1791   4.628   3.501   1.005  0.2451 -0.6823  0.1475
  448SOL     vw 1792   4.634   3.579   1.045 -0.3493 -0.3660 -0.3610
  449SOL     ow 1793   2.104   2.917   4.793 -0.6400 -0.1275  0.1967
  449SOL     hw 1794   2.120   3.006   4.760  0.5283 -0.9752 -1.6482
  449SOL     hw 1795   2.159   2.911   4.871  0.0229  0.4656 -0.2091
  449SOL     vw 1796   2.114   2.928   4.799 -0.3985 -0.1612 -0.1004
  450SOL     ow 1797   5.887   3.687   3.674  0.4038  0.4684 -0.0423
  450SOL     hw 1798   5.951   3.623   3.705  0.6125  0.8241  0.2795
  450SOL     hw 1799   5.808   3.637   3.658  0.5075  0.1614  0.3961
  450SOL     vw 1800   5.885   3.672   3.676  0.4451  0.4747  0.0579
  451SOL     ow 1801   5.797   2.304   5.690  0.0779 -0.3478  0.5906
  451SOL     hw 1802   5.823   2.222   5.733 -1.4204 -1.9398 -1.3556
  451SOL     hw 1803   5.702   2.307   5.700 -0.6737 -1.7937 -3.9519
  451SOL     vw 1804   5.788   2.293   5.697 -0.2191 -0.7486 -0.2654
  452SOL     ow 1805   2.666   4.136   3.547 -0.0320 -0.5326 -0.0550
  452SOL     hw 1806   2.590   4.082   3.523 -0.5943  0.2742 -0.1201
  452SOL     hw 1807   2.637   4.226   3.533  0.7948 -0.1933  0.3560
  452SOL     vw 1808   2.652   4.140   3.542  0.0030 -0.3817 -0.0094
  453SOL     ow 1809   3.956   0.691   2.204 -0.5469  0.0656 -0.0448
  453SOL     hw 1810   3.951   0.786   2.193 -1.9640  0.3507  2.5035
  453SOL     hw 1811   4.006   0.678   2.284 -1.0927 -1.3051  0.1075
  453SOL     vw 1812   3.962   0.702   2.213 -0.8059 -0.0776  0.3115
  454SOL     ow 1813   5.934   3.318   1.500  0.4717  0.1578 -0.2164
  454SOL     hw 1814   5.843   3.342   1.514  0.6903  1.1689 -0.4641
  454SOL     hw 1815   5.983   3.369   1.563  1.0841  1.6295 -1.8051
  454SOL     vw 1816   5.928   3.328   1.510  0.5815  0.4853 -0.4586
  455SOL     ow 1817   4.632   3.337   1.533 -0.2314 -0.2327 -0.0168
  455SOL     hw 1818   4.545   3.297   1.530 -0.3738  0.1051 -0.5294
  455SOL     hw 1819   4.639   3.372   1.622 -1.8915  2.4676 -0.7951
  455SOL     vw 1820   4.621   3.337   1.545 -0.4694  0.1680 -0.1872
  456SOL     ow 1821   3.591   2.848   2.944  0.0295  0.0495  0.4391
  456SOL     hw 1822   3.665   2.838   2.884  0.4969  0.1796  0.9883
  456SOL     hw 1823   3.535   2.773   2.926  0.1759  0.0756 -0.1449
  456SOL     vw 1824   3.594   2.837   2.933  0.1104  0.0701  0.4345
  457SOL     ow 1825   5.860   2.305   0.689  0.2934  0.0197  0.2024
  457SOL     hw 1826   5.810   2.320   0.770  0.2680 -1.8313  0.5724
  457SOL     hw 1827   5.834   2.377   0.632 -1.9823 -0.2534  0.7881
  457SOL     vw 1828   5.850   2.316   0.692 -0.0105 -0.2606  0.3285
  458SOL     ow 1829   6.878   6.105   3.788  0.1188  0.1971 -0.3296
  458SOL     hw 1830   6.816   6.176   3.806  0.9226  0.8754 -0.1742
  458SOL     hw 1831   6.825   6.037   3.748 -1.0674  0.0583  1.3788
  458SOL     vw 1832   6.863   6.106   3.785  0.0684  0.2682 -0.0837
  459SOL     ow 1833   7.136   0.785   4.934  0.5114  0.7209  0.2107
  459SOL     hw 1834   7.196   0.756   5.002  0.3456 -0.3821 -0.0757
  459SOL     hw 1835   7.167   0.740   4.855 -1.0480 -0.4030  0.1931
  459SOL     vw 1836   7.148   0.775   4.932  0.2838  0.4271  0.1707
  460SOL     ow 1837   3.151   5.653   5.912  0.1380  0.1361 -1.0020
  460SOL     hw 1838   3.179   5.657   5.821 -1.1427  0.0313 -1.4199
  460SOL     hw 1839   3.106   5.569   5.920 -0.4684  0.4999 -0.4902
  460SOL     vw 1840   3.149   5.643   5.901 -0.1107  0.1705 -0.9894
  461SOL     ow 1841   5.804   2.271   4.896 -0.2914  0.5241 -0.4299
  461SOL     hw 1842   5.799   2.282   4.801  1.7316 -1.8190 -0.9277
  461SOL     hw 1843   5.874   2.330   4.924  0.6631 -0.4023 -0.7967
  461SOL     vw 1844   5.812   2.280   4.887  0.1013  0.0929 -0.5441
  462SOL     ow 1845   4.934   6.062   7.172 -0.6328 -0.0026  0.0939
  462SOL     hw 1846   4.861   6.009   7.204  0.3941 -1.6242 -0.1015
  462SOL     hw 1847   4.984   6.002   7.115  0.2258  1.3864 -0.6653
  462SOL     vw 1848   4.931   6.047   7.169 -0.3839 -0.0331 -0.0319
  463SOL     ow 1849   0.127   3.269   5.883 -0.7621 -0.2019 -0.2569
  463SOL     hw 1850   0.033   3.279   5.897 -0.7867 -1.2296  0.3897
  463SOL     hw 1851   0.165   3.273   5.970 -0.2067  0.1827 -0.5138
  463SOL     vw 1852   0.120   3.271   5.896 -0.6921 -0.2868 -0.2053
  464SOL     ow 1853   1.714   0.078   5.444  0.4587 -0.0641 -0.0857
  464SOL     hw 1854   1.672   0.013   5.388  1.1752 -0.0945 -0.6069
  464SOL     hw 1855   1.789   0.032   5.482 -1.0510 -0.6473  2.4631
  464SOL     vw 1856   1.719   0.063   5.441  0.3541 -0.1450  0.1817
  465SOL     ow 1857   5.935   2.034   0.328  0.0655  0.6785 -0.5573
  465SOL     hw 1858   5.859   2.087   0.306  1.1159  2.9092  0.7165
  465SOL     hw 1859   6.001   2.058   0.263  0.4213  0.6500 -0.2147
  465SOL     vw 1860   5.934   2.044   0.317  0.2508  0.9689 -0.3440
  466SOL     ow 1861   4.804   2.600   3.955 -0.7556 -0.2570  0.3416
  466SOL     hw 1862   4.867   2.584   4.025  0.5662 -1.2713 -1.0183
  466SOL     hw 1863   4.840   2.675   3.907  1.6479 -3.0600 -2.7111
  466SOL     vw 1864   4.817   2.608   3.958 -0.2642 -0.7606 -0.2407
  467SOL     ow 1865   2.577   0.350   5.918  0.6723 -0.0535  0.2959
  467SOL     hw 1866   2.571   0.293   5.842  1.3699 -2.8612  2.1837
  467SOL     hw 1867   2.496   0.333   5.967  0.9356  0.4833  0.9383
  467SOL     vw 1868   2.565   0.340   5.915  0.7991 -0.3531  0.6294
  468SOL     ow 1869   1.945   2.669   0.848  0.0107  0.3782  1.0955
  468SOL     hw 1870   1.874   2.691   0.788 -0.3267  0.4937  1.5294
  468SOL     hw 1871   2.000   2.747   0.851  1.5269 -0.5315 -1.1164
  468SOL     vw 1872   1.942   2.682   0.841  0.1663  0.2735  0.8609
  469SOL     ow 1873   4.099   3.983   0.371  0.0047 -0.4508  0.8310
  469SOL     hw 1874   4.149   4.020   0.444  1.0124  0.4540 -0.2843
  469SOL     hw 1875   4.078   3.894   0.399 -0.3377  0.1374  2.5555
  469SOL     vw 1876   4.102   3.976   0.384  0.0925 -0.2539  0.9114
  470SOL     ow 1877   1.601   2.362   7.157 -0.5390 -0.2199  0.2299
  470SOL     hw 1878   1.607   2.292   7.092  0.1011 -0.7694  0.8504
  470SOL     hw 1879   1.513   2.397   7.148 -1.3355 -1.9588  0.7328
  470SOL     vw 1880   1.590   2.357   7.147 -0.5596 -0.5218  0.3779
  471SOL     ow 1881   2.263   3.616   1.170 -0.0325 -0.4646 -0.2746
  471SOL     hw 1882   2.282   3.696   1.219  1.9736 -1.5503  0.9016
  471SOL     hw 1883   2.215   3.561   1.231 -1.7568 -0.0532 -1.2114
  471SOL     vw 1884   2.259   3.619   1.185  0.0048 -0.5536 -0.2430
  472SOL     ow 1885   5.656   0.569   6.793  0.2876  0.1019  0.1342
  472SOL     hw 1886   5.594   0.524   6.736  1.4560  0.5858 -1.6016
  472SOL     hw 1887   5.621   0.657   6.804  1.0994  0.7040 -1.6891
  472SOL     vw 1888   5.643   0.574   6.787  0.5486  0.2452 -0.3355
  473SOL     ow 1889   1.972   2.602   4.732  0.4023  0.0750  0.2803
  473SOL     hw 1890   1.967   2.511   4.762 -1.3896  0.0575  0.0553
  473SOL     hw 1891   2.018   2.597   4.649  0.9350 -0.5331  0.6023
  473SOL     vw 1892   1.977   2.589   4.725  0.2361 -0.0075  0.2930
  474SOL     ow 1893   4.717   1.362   4.917  0.4396  0.4897  0.1655
  474SOL     hw 1894   4.745   1.304   4.989 -1.0031  0.8337  1.0508
  474SOL     hw 1895   4.785   1.429   4.913  2.4595 -1.5128 -1.2682
  474SOL     vw 1896   4.730   1.363   4.926  0.5159  0.2709  0.0930
  475SOL     ow 1897   5.083   0.977   3.821 -0.2429 -0.6150  0.5318
  475SOL     hw 1898   5.060   0.896   3.775 -0.3654 -1.1037  1.4504
  475SOL     hw 1899   5.173   0.995   3.793 -0.3409 -0.8541  0.0391
  475SOL     vw 1900   5.092   0.969   3.811 -0.2718 -0.7110  0.5881
  476SOL     ow 1901   1.603   2.149   5.276  0.0346 -0.5430 -0.2956
  476SOL     hw 1902   1.579   2.161   5.184  0.7947  0.9904 -0.3238
  476SOL     hw 1903   1.649   2.065   5.278  1.2287  0.0397 -1.6034
  476SOL     vw 1904   1.606   2.139   5.264  0.2924 -0.2638 -0.4718
  477SOL     ow 1905   6.700   3.607   5.429 -0.0252  0.1860  0.3134
  477SOL     hw 1906   6.713   3.608   5.334  1.3937 -0.5880  0.4617
  477SOL     hw 1907   6.625   3.549   5.442  0.1948 -0.2524 -0.3086
  477SOL     vw 1908   6.692   3.599   5.418  0.1910  0.0261  0.2508
  478SOL     ow 1909   7.028   4.218   3.514 -0.3039 -0.2613  0.4190
  478SOL     hw 1910   7.092   4.187   3.578  1.4050  2.5662  0.2346
  478SOL     hw 1911   7.076   4.223   3.431 -1.5695 -0.7140 -0.3825
  478SOL     vw 1912   7.042   4.214   3.511 -0.2453  0.0522  0.2890
  479SOL     ow 1913   1.009   1.032   7.041 -0.1106 -0.3984  0.2046
  479SOL     hw 1914   1.003   1.113   6.991  0.2427 -1.1332 -1.0616
  479SOL     hw 1915   1.045   1.059   7.126 -0.6926  0.8589  0.0725
  479SOL     vw 1916   1.013   1.046   7.046 -0.1408 -0.3295  0.0200
  480SOL     ow 1917   2.407   3.482   0.162 -0.1603 -0.0252 -0.3832
  480SOL     hw 1918   2.497   3.484   0.194 -0.9172  1.8680  1.9020
  480SOL     hw 1919   2.355   3.447   0.234 -1.8229  3.6002  0.4420
  480SOL     vw 1920   2.412   3.478   0.175 -0.4793  0.7029  0.0272
  481SOL     ow 1921   3.040   4.464   2.273 -0.1759  0.9131  0.2798
  481SOL     hw 1922   3.042   4.510   2.357  1.9861  2.2410 -0.4114
  481SOL     hw 1923   2.970   4.508   2.224 -0.3035  1.2797  0.7826
  481SOL     vw 1924   3.031   4.476   2.277  0.0924  1.1365  0.2549
  482SOL     ow 1925   3.058   4.101   5.112 -0.2087  0.3250  0.1987
  482SOL     hw 1926   3.115   4.093   5.188 -0.9891 -0.2666  0.7373
  482SOL     hw 1927   3.058   4.014   5.072  1.2526  0.9438 -1.2899
  482SOL     vw 1928   3.066   4.089   5.117 -0.1187  0.3290  0.0737
  483SOL     ow 1929   2.097   1.968   4.077  0.2046  0.5272  0.2954
  483SOL     hw 1930   2.133   2.007   4.156 -1.9358  0.6136  1.2949
  483SOL     hw 1931   2.056   1.887   4.108  1.0933 -0.4879 -1.0845
  483SOL     vw 1932   2.097   1.962   4.092  0.0393  0.4047  0.2453
  484SOL     ow 1933   1.951   1.149   2.081  0.3433  0.1095 -0.2672
  484SOL     hw 1934   1.962   1.236   2.044  1.3914  0.2554  0.3199
  484SOL     hw 1935   2.040   1.123   2.107 -0.1031 -0.6881  0.5378
  484SOL     vw 1936   1.964   1.157   2.079  0.4227  0.0235 -0.0834
  485SOL     ow 1937   0.698   0.918   6.807 -0.4313  0.1427 -0.6152
  485SOL     hw 1938   0.636   0.892   6.739 -0.5776 -0.0861 -0.3968
  485SOL     hw 1939   0.701   1.014   6.802 -1.9041  0.2702  0.3216
  485SOL     vw 1940   0.691   0.927   6.797 -0.6450  0.1294 -0.4630
  486SOL     ow 1941   3.618   4.705   7.053 -0.0290 -0.3610 -0.0203
  486SOL     hw 1942   3.650   4.668   7.135  0.6705  1.5973  0.6309
  486SOL     hw 1943   3.564   4.635   7.015  2.7521 -2.7649  0.1534
  486SOL     vw 1944   3.615   4.691   7.059  0.4302 -0.4199  0.0885
  487SOL     ow 1945   0.138   1.544   2.894 -0.6212  0.5768 -0.2683
  487SOL     hw 1946   0.122   1.638   2.886  0.1947  0.6926 -0.7129
  487SOL     hw 1947   0.176   1.534   2.982  0.1376  0.8060 -0.5562
  487SOL     vw 1948   0.141   1.555   2.905 -0.4134  0.6224 -0.3648
  488SOL     ow 1949   2.651   4.689   0.939  0.0695  0.1945 -0.3053
  488SOL     hw 1950   2.724   4.730   0.985  1.1817 -0.0862 -1.7344
  488SOL     hw 1951   2.578   4.751   0.949  0.9304  1.1966 -0.0888
  488SOL     vw 1952   2.651   4.703   0.946  0.3300  0.2897 -0.4653
  489SOL     ow 1953   4.610   3.069   3.011 -0.0382  0.1429  0.0794
  489SOL     hw 1954   4.612   3.160   3.040 -0.8626 -0.2569  1.4457
  489SOL     hw 1955   4.697   3.036   3.030 -0.2724  0.1603  1.2694
  489SOL     vw 1956   4.622   3.077   3.017 -0.1781  0.0924  0.4166
  490SOL     ow 1957   5.259   5.934   0.954  0.3562 -0.1229  0.1940
  490SOL     hw 1958   5.280   6.024   0.930 -0.6293  0.1209  0.2195
  490SOL     hw 1959   5.183   5.941   1.011  1.1417 -0.8750  1.3904
  490SOL     vw 1960   5.252   5.947   0.958  0.3295 -0.1898  0.3553
  491SOL     ow 1961   6.782   1.193   0.385 -0.1487  0.2072 -0.9176
  491SOL     hw 1962   6.712   1.130   0.399  0.5618 -0.2140  0.9427
  491SOL     hw 1963   6.795   1.235   0.470 -0.6158  2.9311 -2.0935
  491SOL     vw 1964   6.774   1.190   0.398 -0.1166  0.5109 -0.8273
  492SOL     ow 1965   5.619   1.800   3.420  0.3053  0.2392 -0.2140
  492SOL     hw 1966   5.566   1.880   3.412 -1.0684 -0.6122  0.0321
  492SOL     hw 1967   5.674   1.816   3.497 -1.6654  0.0483  1.3021
  492SOL     vw 1968   5.619   1.813   3.429 -0.1359  0.1016  0.0184
  493SOL     ow 1969   0.483   0.674   3.691  0.1628  1.0921  0.1368
  493SOL     hw 1970   0.398   0.679   3.734 -0.0605  0.0813 -0.1458
  493SOL     hw 1971   0.492   0.581   3.668  1.1516  1.2658 -0.2129
  493SOL     vw 1972   0.473   0.662   3.694  0.2638  0.9816  0.0534
  494SOL     ow 1973   1.166   1.365   2.696 -0.1823  0.3859 -0.3029
  494SOL     hw 1974   1.158   1.370   2.791 -0.1098  1.0472 -0.3276
  494SOL     hw 1975   1.260   1.370   2.680 -0.1827  0.1089 -0.4061
  494SOL     vw 1976   1.177   1.366   2.707 -0.1727  0.4366 -0.3197
  495SOL     ow 1977   6.779   0.004   5.475  0.5606  0.2051 -0.0391
  495SOL     hw 1978   6.862   0.044   5.499  1.0039 -0.9630  0.4358
  495SOL     hw 1979   6.798  -0.044   5.394  0.0846  0.7915 -0.5024
  495SOL     vw 1980   6.792   0.003   5.467  0.5562  0.1285 -0.0377
  496SOL     ow 1981   2.270   5.277   4.639  0.1352 -0.3492 -0.2016
  496SOL     hw 1982   2.254   5.360   4.683 -0.4040 -0.5630  0.0268
  496SOL     hw 1983   2.365   5.267   4.637  0.2392  0.7036 -1.0583
  496SOL     vw 1984   2.280   5.286   4.644  0.0778 -0.2387 -0.2847
  497SOL     ow 1985   7.113   6.027   3.637 -0.1562 -0.4076  0.3171
  497SOL     hw 1986   7.057   5.977   3.577 -0.4161 -0.8501  0.9247
  497SOL     hw 1987   7.157   6.091   3.580 -0.8605 -0.4115 -0.2546
  497SOL     vw 1988   7.111   6.029   3.621 -0.2835 -0.4666  0.3216
  498SOL     ow 1989   6.341   5.901   0.171  0.1350  0.1791 -0.0624
  498SOL     hw 1990   6.313   5.819   0.130 -0.2947  0.9893 -1.4627
  498SOL     hw 1991   6.348   5.880   0.264 -0.5422 -1.2893 -0.3118
  498SOL     vw 1992   6.338   5.887   0.178 -0.0112  0.0918 -0.2800
  499SOL     ow 1993   3.041   6.091   6.157  0.1569  0.2879  0.3911
  499SOL     hw 1994   3.056   6.001   6.127  3.1052 -0.1640  2.6477
  499SOL     hw 1995   2.949   6.093   6.182 -0.8044 -1.0758 -2.6277
  499SOL     vw 1996   3.031   6.079   6.156  0.4190  0.0484  0.2904
  500SOL     ow 1997   6.904   5.281   0.088 -0.1645 -0.2590 -0.2969
  500SOL     hw 1998   6.869   5.343   0.151 -2.6150 -0.7318 -1.0683
  500SOL     hw 1999   6.979   5.325   0.049 -0.3986  1.2207  0.8454
  500SOL     vw 2000   6.910   5.295   0.091 -0.5188 -0.1261 -0.2480
  501SOL     ow 2001   2.917   5.923   1.856  0.4287  0.3026  0.4334
  501SOL     hw 2002   2.862   5.873   1.915  1.9633  0.1154  1.7732
  501SOL     hw 2003   2.996   5.870   1.845  0.3054  0.4581 -1.6060
  501SOL     vw 2004   2.920   5.910   1.862  0.6149  0.2983  0.3411
  502SOL     ow 2005   6.875   6.388   4.917  0.0714 -0.2644  0.3688
  502SOL     hw 2006   6.944   6.453   4.904  0.1394  0.0990  2.3617
  502SOL     hw 2007   6.864   6.349   4.830  1.5627  0.8609 -0.3856
  502SOL     vw 2008   6.883   6.392   4.903  0.2773 -0.0682  0.5322
  503SOL     ow 2009   2.046   4.279   6.227  0.0970 -0.3139 -0.4955
  503SOL     hw 2010   2.021   4.366   6.257 -0.5114 -1.3684  2.3119
  503SOL     hw 2011   2.139   4.287   6.203 -0.6389  1.7107 -3.2246
  503SOL     vw 2012   2.055   4.292   6.228 -0.0805 -0.1860 -0.4849
  504SOL     ow 2013   1.289   0.154   4.160 -0.6464  0.7409  0.6605
  504SOL     hw 2014   1.267   0.106   4.081 -0.2210 -0.0153  0.9902
  504SOL     hw 2015   1.221   0.220   4.168 -0.2712  1.3360 -0.7517
  504SOL     vw 2016   1.277   0.157   4.151 -0.5408  0.7197  0.5176
  505SOL     ow 2017   0.427   5.486   4.684  0.2074 -0.8131  0.1353
  505SOL     hw 2018   0.476   5.547   4.740 -1.7040 -1.0989  2.2822
  505SOL     hw 2019   0.493   5.447   4.627  1.8138  1.6660  0.1654
  505SOL     vw 2020   0.442   5.489   4.684  0.1671 -0.5233  0.4227
  506SOL     ow 2021   5.894   5.414   6.027 -0.0331 -0.3454 -0.0175
  506SOL     hw 2022   5.885   5.352   6.099 -1.7622  1.1905  1.1789
  506SOL     hw 2023   5.971   5.466   6.050 -0.6137  0.1778  0.7848
  506SOL     vw 2024   5.903   5.413   6.039 -0.3378 -0.0739  0.2463
  507SOL     ow 2025   2.574   5.759   3.599  0.2165 -0.0930 -0.0934
  507SOL     hw 2026   2.626   5.789   3.674 -0.8579  1.1584  0.2023
  507SOL     hw 2027   2.616   5.678   3.571  0.4596 -0.7898  2.0691
  507SOL     vw 2028   2.587   5.753   3.605  0.1069 -0.0198  0.2308
  508SOL     ow 2029   5.324   4.856   5.692  0.1224 -0.1224  0.0310
  508SOL     hw 2030   5.249   4.852   5.752  1.0410  0.3487  1.2640
  508SOL     hw 2031   5.300   4.799   5.619 -1.8579  0.8276 -0.1121
  508SOL     vw 2032   5.311   4.848   5.691 -0.0179  0.0653  0.1748
  509SOL     ow 2033   3.253   6.642   1.041 -0.3605 -0.7122 -0.9634
  509SOL     hw 2034   3.313   6.666   1.112  4.1896 -2.9981 -3.6001
  509SOL     hw 2035   3.181   6.596   1.085  0.8675  0.2429  2.3165
  509SOL     vw 2036   3.252   6.639   1.056  0.4019 -0.8876 -0.8786
  510SOL     ow 2037   0.179   5.707   6.968  0.3804 -0.1974 -0.6661
  510SOL     hw 2038   0.152   5.696   7.060 -2.1745 -0.7417 -1.4030
  510SOL     hw 2039   0.196   5.800   6.959  1.0574 -0.1945  0.4449
  510SOL     vw 2040   0.178   5.718   6.979  0.1327 -0.2689 -0.6168
  511SOL     ow 2041   5.935   2.000   2.506 -0.9437  0.6690 -0.2213
  511SOL     hw 2042   5.955   2.092   2.524  2.1654  0.0783 -0.0307
  511SOL     hw 2043   5.951   1.955   2.589 -0.7487 -0.2381 -0.7302
  511SOL     vw 2044   5.940   2.006   2.519 -0.5081  0.4714 -0.2633
  512SOL     ow 2045   5.952   7.023   5.914 -0.5548 -0.1514 -0.1273
  512SOL     hw 2046   5.864   6.992   5.935 -0.4557 -1.6570 -1.6876
  512SOL     hw 2047   6.006   6.945   5.918  0.8295  0.8239  1.2024
  512SOL     vw 2048   5.947   7.009   5.917 -0.3588 -0.2215 -0.1576
  513SOL     ow 2049   1.062   6.359   4.892  0.1258 -0.4967 -0.2236
  513SOL     hw 2050   1.027   6.269   4.891 -1.4987  0.0990 -0.5864
  513SOL     hw 2051   1.070   6.379   4.986 -2.5575  0.0386 -0.0239
  513SOL     vw 2052   1.058   6.350   4.905 -0.4426 -0.3476 -0.2451
  514SOL     ow 2053   5.367   6.606   3.167 -0.1929 -0.3067 -0.3250
  514SOL     hw 2054   5.369   6.691   3.121 -1.9422 -0.6639 -1.1214
  514SOL     hw 2055   5.443   6.559   3.131  1.3937  1.2102  0.8277
  514SOL     vw 2056   5.377   6.611   3.156 -0.2141 -0.1533 -0.2780
  515SOL     ow 2057   4.132   6.116   1.905  0.4057 -0.1057 -0.3127
  515SOL     hw 2058   4.197   6.139   1.972 -0.0423 -0.8355  0.3938
  515SOL     hw 2059   4.178   6.055   1.847  0.9882  1.0217 -1.0463
  515SOL     vw 2060   4.147   6.111   1.906  0.4237 -0.0532 -0.3163
  516SOL     ow 2061   0.859   3.732   6.610 -0.3750 -0.2180 -0.4317
  516SOL     hw 2062   0.886   3.816   6.646 -1.2612  0.2573 -0.8253
  516SOL     hw 2063   0.885   3.667   6.676  2.9740 -0.0116 -1.3944
  516SOL     vw 2064   0.866   3.734   6.623 -0.0500 -0.1280 -0.6106
  517SOL     ow 2065   4.476   6.195   0.266  0.0942  0.1553  0.7086
  517SOL     hw 2066   4.445   6.276   0.225 -0.9167 -0.2581  0.6130
  517SOL     hw 2067   4.480   6.132   0.194 -1.6985 -0.5783  1.1972
  517SOL     vw 2068   4.472   6.197   0.251 -0.2754  0.0041  0.7604
  518SOL     ow 2069   3.305   0.051   6.901  0.9811 -0.0405 -0.0962
  518SOL     hw 2070   3.394   0.077   6.878  1.9271 -1.6714  1.4777
  518SOL     hw 2071   3.307  -0.045   6.900 -0.7869 -0.1146 -0.0683
  518SOL     vw 2072   3.317   0.042   6.898  0.8726 -0.2656  0.1149
  519SOL     ow 2073   5.549   2.804   2.612  0.1512 -0.0551  0.3367
  519SOL     hw 2074   5.531   2.840   2.525 -0.7426  0.9776  0.9198
  519SOL     hw 2075   5.642   2.822   2.625  0.5072 -0.9825 -0.7249
  519SOL     vw 2076   5.559   2.811   2.602  0.0806 -0.0414  0.2735
  520SOL     ow 2077   3.582   5.291   3.476  0.1120  0.0971  0.8075
  520SOL     hw 2078   3.613   5.316   3.564  1.3389 -3.5763  1.5604
  520SOL     hw 2079   3.546   5.203   3.487  0.6198 -0.6374 -2.4714
  520SOL     vw 2080   3.581   5.283   3.489  0.3408 -0.4847  0.4742
  521SOL     ow 2081   7.170   2.142   5.056 -0.0133  0.3439 -0.0078
  521SOL     hw 2082   7.234   2.073   5.037  0.0839  0.1100  1.0871
  521SOL     hw 2083   7.204   2.219   5.010  1.1108  0.2408  0.6007
  521SOL     vw 2084   7.183   2.143   5.047  0.1478  0.2993  0.2172
  522SOL     ow 2085   4.781   1.868   3.050  1.2172  0.3561 -0.4106
  522SOL     hw 2086   4.695   1.834   3.076  0.4285  0.8205 -2.2594
  522SOL     hw 2087   4.837   1.791   3.046  0.7080 -0.0528  0.1316
  522SOL     vw 2088   4.777   1.853   3.053  1.0462  0.3634 -0.5831
  523SOL     ow 2089   5.904   7.043   7.001 -0.6886 -0.2516  0.3727
  523SOL     hw 2090   5.982   6.988   7.004 -0.2359  0.4055  0.9193
  523SOL     hw 2091   5.865   7.036   7.089 -1.5802 -1.0316 -0.0634
  523SOL     vw 2092   5.909   7.035   7.013 -0.7467 -0.2680  0.3874
  524SOL     ow 2093   5.422   6.425   5.579 -0.0748 -0.1868 -0.7024
  524SOL     hw 2094   5.436   6.384   5.494  1.7967 -0.6583 -0.2044
  524SOL     hw 2095   5.400   6.352   5.638 -3.6458  0.3454 -1.1252
  524SOL     vw 2096   5.421   6.410   5.576 -0.2990 -0.1788 -0.6924
  525SOL     ow 2097   0.925   4.424   2.664 -0.0454 -0.5141 -0.0065
  525SOL     hw 2098   0.969   4.401   2.583 -0.2128  1.7555 -0.8112
  525SOL     hw 2099   0.833   4.436   2.639  0.2322  2.2859 -0.0371
  525SOL     vw 2100   0.918   4.422   2.650 -0.0309  0.1550 -0.1167
  526SOL     ow 2101   2.919   5.216   4.342 -0.1489 -0.5115 -0.3317
  526SOL     hw 2102   2.877   5.201   4.427  0.6598 -0.5325  0.0787
  526SOL     hw 2103   2.929   5.129   4.304  2.2077 -0.8642  0.9064
  526SOL     vw 2104   2.915   5.203   4.348  0.2688 -0.5608 -0.1142
  527SOL     ow 2105   7.094   7.003   2.644 -0.0395  0.3742 -0.0807
  527SOL     hw 2106   7.006   7.040   2.631 -0.4619 -0.9019 -1.1521
  527SOL     hw 2107   7.144   7.074   2.684 -2.2486  0.2912  3.2426
  527SOL     vw 2108   7.089   7.017   2.647 -0.3867  0.1948  0.2164
  528SOL     ow 2109   1.694   1.386   6.380  0.0064  0.1891  0.1627
  528SOL     hw 2110   1.627   1.437   6.336 -2.9358 -1.2407  2.5701
  528SOL     hw 2111   1.700   1.305   6.330 -0.6228  0.0356  0.3309
  528SOL     vw 2112   1.686   1.382   6.368 -0.4647 -0.0198  0.5023
  529SOL     ow 2113   0.867   2.833   2.837 -0.3112  0.4504 -0.1365
  529SOL     hw 2114   0.832   2.893   2.772  1.2712  1.6580  0.0610
  529SOL     hw 2115   0.920   2.771   2.786  0.2956  0.9209 -0.0842
  529SOL     vw 2116   0.870   2.833   2.822 -0.0224  0.6717 -0.1036
  530SOL     ow 2117   6.087   0.393   5.183  0.3685  0.5829 -0.3402
  530SOL     hw 2118   6.107   0.328   5.251  0.0578  0.7658 -0.0757
  530SOL     hw 2119   6.149   0.464   5.198 -0.7493  1.3613  0.7695
  530SOL     vw 2120   6.098   0.393   5.194  0.1800  0.7098 -0.1590
  531SOL     ow 2121   5.163   0.101   6.750  0.0773  0.3229  0.6283
  531SOL     hw 2122   5.105   0.025   6.744  0.2382  0.2531 -0.0195
  531SOL     hw 2123   5.126   0.165   6.689  1.4854 -0.2530 -0.9017
  531SOL     vw 2124   5.150   0.100   6.741  0.2844  0.2377  0.3409
  532SOL     ow 2125   0.264   1.855   2.651 -0.7801  0.2712 -0.1679
  532SOL     hw 2126   0.237   1.788   2.713 -1.8146  0.1436 -0.7387
  532SOL     hw 2127   0.329   1.811   2.595 -0.9749 -0.0586 -0.1364
  532SOL     vw 2128   0.269   1.840   2.652 -0.9423  0.2108 -0.2391
  533SOL     ow 2129   2.677   0.648   5.826 -0.6211  0.6240  0.3830
  533SOL     hw 2130   2.754   0.695   5.795 -0.6381  0.3064 -0.1412
  533SOL     hw 2131   2.617   0.646   5.751 -0.5725 -0.3300  0.3547
  533SOL     vw 2132   2.679   0.654   5.812 -0.6169  0.4563  0.3099
  534SOL     ow 2133   5.899   5.766   3.841 -0.1601 -0.0852  0.1199
  534SOL     hw 2134   5.877   5.856   3.865  0.4869  0.2522 -0.5188
  534SOL     hw 2135   5.975   5.745   3.896 -0.2747 -0.2196  0.2272
  534SOL     vw 2136   5.906   5.775   3.852 -0.0899 -0.0584  0.0497
  535SOL     ow 2137   6.049   3.122   4.186 -0.3934 -0.3082 -0.4183
  535SOL     hw 2138   5.986   3.110   4.257 -1.9346  1.4164 -1.4094
  535SOL     hw 2139   6.038   3.044   4.132 -1.3003 -0.3025 -0.2663
  535SOL     vw 2140   6.039   3.110   4.188 -0.7164 -0.0800 -0.5291
  536SOL     ow 2141   5.071   5.380   2.025 -0.0472 -0.4385 -0.3378
  536SOL     hw 2142   5.133   5.319   2.063  1.8973  0.5787 -1.7024
  536SOL     hw 2143   5.099   5.466   2.057 -1.8609 -0.0889  0.4178
  536SOL     vw 2144   5.083   5.383   2.034 -0.0298 -0.2584 -0.4183
  537SOL     ow 2145   1.138   6.562   0.390  0.6236 -0.3507  1.0761
  537SOL     hw 2146   1.098   6.552   0.476 -0.3589  0.3971  0.7270
  537SOL     hw 2147   1.157   6.656   0.383 -1.1574 -0.0272 -0.2741
  537SOL     vw 2148   1.136   6.573   0.401  0.2590 -0.2093  0.8519
  538SOL     ow 2149   2.974   4.806   2.136 -0.7689  0.0961 -0.2696
  538SOL     hw 2150   3.020   4.775   2.059 -1.2209  0.8466 -0.8551
  538SOL     hw 2151   3.042   4.812   2.204 -0.1010  0.7518 -0.9849
  538SOL     vw 2152   2.989   4.803   2.135 -0.7405  0.2816 -0.4412
  539SOL     ow 2153   4.238   1.736   5.463  0.2686  0.5138  0.1068
  539SOL     hw 2154   4.203   1.820   5.434  2.3654  1.3053 -0.3456
  539SOL     hw 2155   4.209   1.673   5.396 -2.4509  0.5326  1.1474
  539SOL     vw 2156   4.230   1.739   5.450  0.1867  0.6207  0.1841
  540SOL     ow 2157   7.155   2.772   7.061 -0.3491  0.2508 -0.3497
  540SOL     hw 2158   7.074   2.724   7.043  0.2724 -0.6664 -0.7325
  540SOL     hw 2159   7.211   2.755   6.985  0.6408 -0.0596  0.4280
  540SOL     vw 2160   7.152   2.764   7.048 -0.1364  0.0888 -0.2975
  541SOL     ow 2161   2.571   6.070   6.018  0.2333  0.4028  0.3528
  541SOL     hw 2162   2.597   6.079   5.926  0.7473 -0.5178  0.3993
  541SOL     hw 2163   2.653   6.059   6.065  0.1443  2.6880  1.1873
  541SOL     vw 2164   2.585   6.070   6.012  0.2893  0.5832  0.4692
  542SOL     ow 2165   1.711   2.789   1.408 -0.5494  0.2378  0.2025
  542SOL     hw 2166   1.668   2.757   1.488  0.9935  0.1903  1.0467
  542SOL     hw 2167   1.798   2.816   1.437  0.0316  0.2567 -1.4739
  542SOL     vw 2168   1.717   2.788   1.422 -0.2692  0.2341  0.0927
  543SOL     ow 2169   1.959   2.608   0.236 -0.0456 -0.0634 -1.2096
  543SOL     hw 2170   1.894   2.670   0.270  1.0356 -0.1694  1.2818
  543SOL     hw 2171   1.949   2.613   0.141 -3.3783  0.2121 -0.9677
  543SOL     vw 2172   1.949   2.617   0.228 -0.3426 -0.0410 -0.8490
  544SOL     ow 2173   6.591   3.237   4.356  0.2132 -0.1590  0.5191
  544SOL     hw 2174   6.556   3.152   4.331 -0.7687 -0.4924  2.7853
  544SOL     hw 2175   6.562   3.249   4.447  0.3608  2.5636  0.2879
  544SOL     vw 2176   6.582   3.228   4.365  0.1030  0.1563  0.7875
  545SOL     ow 2177   7.025   0.588   4.581  0.1252  0.1225 -0.5124
  545SOL     hw 2178   7.105   0.569   4.630 -0.6762  1.1634  1.2771
  545SOL     hw 2179   7.047   0.665   4.528 -0.2351  1.7770  1.5952
  545SOL     vw 2180   7.038   0.596   4.580 -0.0279  0.4781  0.0019
  546SOL     ow 2181   5.395   1.838   0.562 -0.1665 -0.0450 -0.8176
  546SOL     hw 2182   5.462   1.906   0.559  0.7904 -1.0123 -1.9727
  546SOL     hw 2183   5.443   1.756   0.567 -1.2992 -0.6860  0.0036
  546SOL     vw 2184   5.410   1.837   0.562 -0.1895 -0.2571 -0.8616
  547SOL     ow 2185   0.386   4.765   5.009 -0.1649 -0.0885  0.0887
  547SOL     hw 2186   0.309   4.738   5.060 -1.0991  2.2578  0.0163
  547SOL     hw 2187   0.355   4.765   4.918 -0.3248  1.5755  0.1267
  547SOL     vw 2188   0.372   4.761   5.004 -0.3093  0.4406  0.0842
  548SOL     ow 2189   6.261   5.312   3.112  0.3818 -0.3038 -0.0603
  548SOL     hw 2190   6.341   5.293   3.063  0.7612  0.1758  0.3671
  548SOL     hw 2191   6.291   5.350   3.194 -0.2603 -0.8926  0.4538
  548SOL     vw 2192   6.275   5.315   3.116  0.3469 -0.3183  0.0639
  549SOL     ow 2193   5.970   2.646   4.450 -0.2687 -0.0018 -0.0846
  549SOL     hw 2194   5.974   2.667   4.357  1.3472  0.7158  0.1068
  549SOL     hw 2195   6.034   2.576   4.462  1.4602  1.6299  0.8486
  549SOL     vw 2196   5.979   2.640   4.439  0.1729  0.3082  0.0639
  550SOL     ow 2197   0.927   2.245   5.369 -0.1263 -0.9277 -0.0812
  550SOL     hw 2198   0.960   2.255   5.458  0.1576  1.5551 -0.4075
  550SOL     hw 2199   0.836   2.219   5.381 -0.6107  1.0524  1.0244
  550SOL     vw 2200   0.919   2.243   5.382 -0.1527 -0.3389  0.0219
  551SOL     ow 2201   3.322   3.159   1.768  0.5208  0.5421  0.3637
  551SOL     hw 2202   3.233   3.124   1.774  1.0009 -0.5447  2.0172
  551SOL     hw 2203   3.325   3.203   1.683 -1.2154 -0.4495 -0.2727
  551SOL     vw 2204   3.311   3.160   1.758  0.3552  0.2680  0.4979
  552SOL     ow 2205   1.041   2.790   0.624  0.5072 -0.1659 -0.6394
  552SOL     hw 2206   1.091   2.709   0.628  0.1661 -0.3306  1.8075
  552SOL     hw 2207   0.958   2.766   0.582  0.4366 -1.0882  0.0035
  552SOL     vw 2208   1.037   2.776   0.619  0.4529 -0.3095 -0.2318
  553SOL     ow 2209   3.241   6.193   2.721  0.5671  0.0956  0.3832
  553SOL     hw 2210   3.184   6.219   2.794  0.1809 -1.5848  0.7161
  553SOL     hw 2211   3.193   6.220   2.643 -1.7048 -2.9480  0.5603
  553SOL     vw 2212   3.227   6.200   2.720  0.2165 -0.5276  0.4504
  554SOL     ow 2213   1.772   0.246   0.211  0.0915 -0.1552  0.2576
  554SOL     hw 2214   1.867   0.256   0.217  0.2420 -0.8410 -0.6610
  554SOL     hw 2215   1.757   0.223   0.119 -0.7235 -2.2410  0.8574
  554SOL     vw 2216   1.783   0.244   0.200  0.0038 -0.5209  0.2155
  555SOL     ow 2217   6.002   0.180   4.999  0.0702  0.1967  0.1034
  555SOL     hw 2218   6.009   0.115   5.069 -0.9868  1.5431  1.5448
  555SOL     hw 2219   5.918   0.161   4.957 -0.0818  0.3932  0.3103
  555SOL     vw 2220   5.992   0.169   5.003 -0.0892  0.4002  0.3209
  556SOL     ow 2221   6.871   5.982   6.238 -0.0171 -0.4658 -0.2243
  556SOL     hw 2222   6.879   5.970   6.144  0.1092  0.3122 -0.3173
  556SOL     hw 2223   6.945   6.038   6.262 -0.0953 -0.5884  0.3219
  556SOL     vw 2224   6.882   5.988   6.229 -0.0105 -0.3793 -0.1645
  557SOL     ow 2225   0.889   3.757   5.602 -0.6370 -0.2361 -0.7952
  557SOL     hw 2226   0.973   3.798   5.625  0.9713 -1.5957 -3.7234
  557SOL     hw 2227   0.871   3.788   5.513 -2.2680 -1.4634 -0.9317
  557SOL     vw 2228   0.898   3.767   5.593 -0.6400 -0.5774 -1.1995
  558SOL     ow 2229   0.643   3.609   5.560  0.4317 -0.0268  0.0963
  558SOL     hw 2230   0.587   3.673   5.517  0.7419 -0.3108 -0.7650
  558SOL     hw 2231   0.584   3.538   5.585  0.2108  0.2437  0.3411
  558SOL     vw 2232   0.628   3.608   5.558  0.4435 -0.0287  0.0153
  559SOL     ow 2233   1.885   2.020   2.110 -0.0697  0.0479  0.3282
  559SOL     hw 2234   1.858   2.088   2.048 -2.4203 -1.8117 -0.8928
  559SOL     hw 2235   1.946   1.965   2.060 -0.3966 -0.3065  0.3069
  559SOL     vw 2236   1.889   2.022   2.095 -0.4229 -0.2440  0.1643
  560SOL     ow 2237   1.460   0.742   4.712  0.1966 -0.3711  0.3990
  560SOL     hw 2238   1.521   0.762   4.641  1.5204 -1.6781  1.1252
  560SOL     hw 2239   1.488   0.657   4.745 -2.0264 -1.0123  0.7909
  560SOL     vw 2240   1.472   0.734   4.707  0.0780 -0.6281  0.5467
  561SOL     ow 2241   2.797   6.652   2.921  0.2232 -0.7016 -0.1045
  561SOL     hw 2242   2.829   6.618   2.837  0.5674 -2.2437  0.6231
  561SOL     hw 2243   2.876   6.670   2.971  0.0066 -0.1246  0.0393
  561SOL     vw 2244   2.811   6.650   2.916  0.2400 -0.8287  0.0105
  562SOL     ow 2245   6.946   2.651   1.485 -0.1521 -0.3431 -0.0252
  562SOL     hw 2246   6.934   2.603   1.403  2.1694 -1.3808  0.1761
  562SOL     hw 2247   6.978   2.585   1.547  0.6066  0.9370  0.9931
  562SOL     vw 2248   6.948   2.636   1.483  0.2546 -0.3113  0.1357
  563SOL     ow 2249   3.684   2.849   2.180  0.2612  0.1209  0.4440
  563SOL     hw 2250   3.636   2.802   2.248  0.7625 -0.3901  0.4500
  563SOL     hw 2251   3.773   2.856   2.214  1.4603 -3.2022 -1.5458
  563SOL     vw 2252   3.690   2.844   2.193  0.4855 -0.3850  0.1822
  564SOL     ow 2253   3.991   6.377   6.413 -0.5460 -0.2739 -1.0292
  564SOL     hw 2254   4.078   6.397   6.380 -0.0637 -0.3248  0.1738
  564SOL     hw 2255   3.970   6.451   6.470 -1.5898  0.0844 -1.8440
  564SOL     vw 2256   3.999   6.390   6.416 -0.6201 -0.2334 -0.9780
  565SOL     ow 2257   0.170   4.397   7.005  0.0632 -0.2484  0.8929
  565SOL     hw 2258   0.162   4.302   7.011 -1.4138 -0.2584 -0.4799
  565SOL     hw 2259   0.209   4.411   6.918 -0.9070  0.4151  0.5496
  565SOL     vw 2260   0.174   4.386   6.994 -0.2597 -0.1624  0.6664
  566SOL     ow 2261   6.400   5.385   1.840  0.7112  0.6236  0.7970
  566SOL     hw 2262   6.344   5.308   1.849 -0.9557  1.5374 -1.0691
  566SOL     hw 2263   6.489   5.349   1.835  0.1609 -1.0009  1.9078
  566SOL     vw 2264   6.404   5.370   1.841  0.4187  0.5300  0.6973
  567SOL     ow 2265   0.043   3.972   0.221  0.6820 -0.4306 -0.2182
  567SOL     hw 2266   0.026   3.894   0.169  1.3804 -0.7651  0.0480
  567SOL     hw 2267  -0.007   3.958   0.301 -1.4933  0.6895 -1.2906
  567SOL     vw 2268   0.034   3.960   0.225  0.4869 -0.3269 -0.3246
  568SOL     ow 2269   1.152   7.005   0.069 -0.1883 -0.0447  0.6061
  568SOL     hw 2270   1.073   7.010   0.122 -0.5047  0.9084  0.0655
  568SOL     hw 2271   1.134   7.062  -0.006  0.7152 -0.4150  0.0929
  568SOL     vw 2272   1.139   7.013   0.066 -0.1109  0.0324  0.4671
  569SOL     ow 2273   1.197   4.297   4.855  0.1602 -0.4904  0.5576
  569SOL     hw 2274   1.249   4.342   4.788 -1.2932 -1.0548 -1.0489
  569SOL     hw 2275   1.132   4.361   4.882  0.1040 -0.5873  0.6542
  569SOL     vw 2276   1.195   4.311   4.850 -0.0390 -0.5774  0.3581
  570SOL     ow 2277   2.287   6.088   0.981 -0.4209 -0.0057  0.0219
  570SOL     hw 2278   2.300   6.029   0.906 -1.0792 -0.7210  0.4559
  570SOL     hw 2279   2.322   6.039   1.056 -0.8639  0.2022  0.3690
  570SOL     vw 2280   2.293   6.074   0.981 -0.5660 -0.0725  0.1250
  571SOL     ow 2281   6.879   0.767   6.654 -0.5073  0.1205  0.0230
  571SOL     hw 2282   6.821   0.825   6.703  0.5597  1.1091  0.1766
  571SOL     hw 2283   6.967   0.802   6.670  0.1188 -1.1712 -0.4016
  571SOL     vw 2284   6.883   0.779   6.662 -0.2840  0.0805 -0.0129
  572SOL     ow 2285   6.185   0.130   2.914 -0.4747 -0.6953  0.3171
  572SOL     hw 2286   6.254   0.173   2.966 -1.1371 -0.7315  1.2509
  572SOL     hw 2287   6.110   0.189   2.920 -1.0972 -1.5119  0.8249
  572SOL     vw 2288   6.184   0.144   2.922 -0.6440 -0.8078  0.5072
  573SOL     ow 2289   0.137   0.388   5.782  0.2472  0.3556 -0.0740
  573SOL     hw 2290   0.106   0.460   5.727  0.9272  0.5921 -0.1666
  573SOL     hw 2291   0.061   0.331   5.793  0.2191 -0.0004 -1.7493
  573SOL     vw 2292   0.123   0.390   5.776  0.3332  0.3398 -0.3071
  574SOL     ow 2293   3.738   4.320   2.310 -0.0403 -0.3830  0.2109
  574SOL     hw 2294   3.709   4.283   2.226  0.5792  0.0055 -0.1859
  574SOL     hw 2295   3.690   4.403   2.317 -0.8966 -0.9168  0.7603
  574SOL     vw 2296   3.728   4.326   2.300 -0.0715 -0.4022  0.2310
  575SOL     ow 2297   3.899   0.558   7.046 -0.3224 -0.0697 -0.1855
  575SOL     hw 2298   3.936   0.543   6.959 -0.5560 -0.1569 -0.2722
  575SOL     hw 2299   3.804   0.554   7.032 -0.3811  0.7297 -0.0693
  575SOL     vw 2300   3.891   0.555   7.033 -0.3611  0.0243 -0.1814
  576SOL     ow 2301   5.876   1.421   7.127  0.5248 -0.5262 -0.2529
  576SOL     hw 2302   5.834   1.340   7.156 -0.2067  0.0027  0.2012
  576SOL     hw 2303   5.843   1.435   7.038 -2.8707  1.5282  1.1540
  576SOL     vw 2304   5.866   1.413   7.119 -0.0196 -0.1854 -0.0074
  577SOL     ow 2305   4.521   1.146   4.881  0.1159 -0.3735  0.0102
  577SOL     hw 2306   4.460   1.080   4.850 -0.3559 -0.3280  0.8210
  577SOL     hw 2307   4.589   1.096   4.927  1.2383 -0.5124 -1.6898
  577SOL     vw 2308   4.522   1.131   4.883  0.2019 -0.3858 -0.1073
  578SOL     ow 2309   6.039   4.429   4.662 -0.7398  0.4535  0.4333
  578SOL     hw 2310   6.019   4.473   4.745 -1.2225  2.4640 -0.7041
  578SOL     hw 2311   5.957   4.429   4.614 -0.5419 -1.0011  0.0408
  578SOL     vw 2312   6.026   4.435   4.667 -0.7772  0.5267  0.2315
  579SOL     ow 2313   6.994   4.644   4.896  0.3835  0.0270 -0.1573
  579SOL     hw 2314   7.003   4.714   4.961 -1.8045 -0.1933  0.4827
  579SOL     hw 2315   7.065   4.659   4.834  0.6083  2.1949  0.5304
  579SOL     vw 2316   7.004   4.656   4.897  0.1242  0.2840  0.0179
  580SOL     ow 2317   6.052   6.795   6.068 -0.1802  0.0711 -0.6757
  580SOL     hw 2318   6.146   6.779   6.071 -0.2434 -0.5513 -1.5688
  580SOL     hw 2319   6.030   6.825   6.156  0.9107  0.5830 -0.5556
  580SOL     vw 2320   6.061   6.797   6.080 -0.0443  0.0563 -0.7775
  581SOL     ow 2321   3.132   0.374   4.285  0.1685  0.1511 -0.0297
  581SOL     hw 2322   3.097   0.347   4.370 -0.1330  0.2857 -0.1129
  581SOL     hw 2323   3.200   0.438   4.307  1.4961 -1.2922  0.2189
  581SOL     vw 2324   3.137   0.379   4.299  0.3037 -0.0216 -0.0076
  582SOL     ow 2325   2.299   3.663   4.957 -0.1634 -0.4440  0.9172
  582SOL     hw 2326   2.392   3.665   4.933 -0.5290  1.7104 -0.6208
  582SOL     hw 2327   2.254   3.644   4.875 -1.1601  0.2717  1.2890
  582SOL     vw 2328   2.306   3.661   4.943 -0.3431 -0.0654  0.7632
  583SOL     ow 2329   4.587   3.103   5.454 -0.0696  0.1262 -0.3886
  583SOL     hw 2330   4.610   3.053   5.376  2.3021 -4.5729  2.8508
  583SOL     hw 2331   4.504   3.065   5.483 -0.6418  1.4283 -0.2435
  583SOL     vw 2332   4.579   3.091   5.447  0.1678 -0.3220  0.0579
  584SOL     ow 2333   3.958   4.066   2.431 -0.1531 -0.5133 -0.2580
  584SOL     hw 2334   4.018   4.051   2.358  0.2383  3.2652 -0.9030
  584SOL     hw 2335   4.013   4.069   2.509  0.0978 -0.0645 -0.4489
  584SOL     vw 2336   3.973   4.064   2.432 -0.0683  0.0443 -0.3684
  585SOL     ow 2337   3.230   4.863   5.154 -0.1068  0.2209 -0.5650
  585SOL     hw 2338   3.251   4.894   5.242  0.0677 -1.3374 -0.0272
  585SOL     hw 2339   3.175   4.932   5.117  0.7487  1.4299  0.3367
  585SOL     vw 2340   3.225   4.876   5.161  0.0291  0.1745 -0.3748
  586SOL     ow 2341   1.335   2.160   0.912 -0.0232 -0.4596 -0.1507
  586SOL     hw 2342   1.292   2.083   0.877  0.3752 -0.2984 -1.0135
  586SOL     hw 2343   1.312   2.231   0.852 -2.1432  0.6082  1.7570
  586SOL     vw 2344   1.326   2.159   0.900 -0.2503 -0.2975 -0.0128
  587SOL     ow 2345   6.121   2.237   7.121 -0.5103  0.3516 -0.3297
  587SOL     hw 2346   6.072   2.313   7.153 -1.9544 -0.5172 -0.4254
  587SOL     hw 2347   6.125   2.178   7.197  0.3214  0.3701 -0.3502
  587SOL     vw 2348   6.115   2.239   7.136 -0.5910  0.2395 -0.3450
  588SOL     ow 2349   6.816   2.872   3.459  0.7937 -0.2921 -0.6124
  588SOL     hw 2350   6.730   2.858   3.420 -0.5518 -0.8192  2.2224
  588SOL     hw 2351   6.812   2.961   3.494  1.1713 -0.5041 -0.0151
  588SOL     vw 2352   6.804   2.882   3.459  0.6661 -0.3895 -0.1596
  589SOL     ow 2353   1.508   3.845   4.992  0.6800  0.1350  0.7769
  589SOL     hw 2354   1.449   3.785   5.038 -1.1065  0.2949 -1.1575
  589SOL     hw 2355   1.573   3.788   4.950 -0.8789 -0.5144 -0.8734
  589SOL     vw 2356   1.509   3.830   4.993  0.2387  0.0705  0.3040
  590SOL     ow 2357   3.368   1.432   5.371  0.0017  0.4858 -0.4569
  590SOL     hw 2358   3.406   1.361   5.319 -0.4752  1.4958 -2.2935
  590SOL     hw 2359   3.385   1.511   5.320 -2.1693  1.3031 -0.0346
  590SOL     vw 2360   3.375   1.433   5.357 -0.3476  0.7269 -0.6435
  591SOL     ow 2361   6.145   0.026   6.059  0.1209  0.3033 -0.0343
  591SOL     hw 2362   6.235  -0.006   6.057  0.2778  0.7448 -0.6527
  591SOL     hw 2363   6.093  -0.047   6.024  0.3909  0.4656 -0.7984
  591SOL     vw 2364   6.150   0.012   6.054  0.1774  0.3829 -0.2170
  592SOL     ow 2365   2.602   2.318   3.780 -0.5546  0.7869  0.0062
  592SOL     hw 2366   2.652   2.238   3.799  0.4845  1.1081 -1.1867
  592SOL     hw 2367   2.653   2.361   3.711 -0.9165  2.6578  0.8617
  592SOL     vw 2368   2.616   2.313   3.773 -0.4652  1.0762 -0.0384
  593SOL     ow 2369   3.955   7.125   0.558  0.4517  0.2732  0.0915
  593SOL     hw 2370   3.969   7.031   0.566 -1.1194  0.1050  1.4954
  593SOL     hw 2371   3.882   7.133   0.496  0.9240  0.5908 -0.4232
  593SOL     vw 2372   3.947   7.114   0.551  0.3067  0.2930  0.2089
  594SOL     ow 2373   6.081   4.238   3.689 -0.2232  0.4380  0.0343
  594SOL     hw 2374   6.027   4.281   3.623 -0.8664  0.6202  0.6602
  594SOL     hw 2375   6.149   4.302   3.710  0.6823 -0.0540 -1.2554
  594SOL     vw 2376   6.083   4.252   3.683 -0.1886  0.3970 -0.0532
  595SOL     ow 2377   3.668   2.797   5.470  0.7490  0.0259 -0.0264
  595SOL     hw 2378   3.631   2.720   5.427 -2.8342  0.2005  2.3148
  595SOL     hw 2379   3.730   2.761   5.533 -0.1147 -0.9340  0.3163
  595SOL     vw 2380   3.671   2.782   5.472  0.1622 -0.0778  0.3276
  596SOL     ow 2381   3.611   5.114   0.042 -0.4788 -0.0905  0.5689
  596SOL     hw 2382   3.549   5.073   0.103 -1.6371  0.7919  0.0270
  596SOL     hw 2383   3.694   5.116   0.089 -1.5215  1.3182  2.4459
  596SOL     vw 2384   3.614   5.109   0.056 -0.7691  0.2120  0.7451
  597SOL     ow 2385   1.544   2.092   1.266  0.1950 -0.1339  0.3038
  597SOL     hw 2386   1.587   2.021   1.218  1.2352  1.6483 -1.6102
  597SOL     hw 2387   1.616   2.144   1.301 -0.5045  0.5830  0.7061
  597SOL     vw 2388   1.559   2.089   1.264  0.2400  0.1957  0.1043
  598SOL     ow 2389   5.267   4.234   0.560 -0.4841  0.7758  0.2200
  598SOL     hw 2390   5.175   4.258   0.563 -1.2240 -1.8095  2.3053
  598SOL     hw 2391   5.277   4.188   0.476 -1.1788  0.8410  0.0965
  598SOL     vw 2392   5.256   4.231   0.549 -0.6731  0.4432  0.4788
  599SOL     ow 2393   4.489   2.148   5.048 -0.3684  0.0227  0.4514
  599SOL     hw 2394   4.442   2.181   4.973  0.3590  0.8942  0.3677
  599SOL     hw 2395   4.429   2.160   5.122 -1.2239 -1.1672 -0.0173
  599SOL     vw 2396   4.475   2.154   5.048 -0.3853 -0.0193  0.3784
  600SOL     ow 2397   2.868   0.976   0.741  0.1274  0.1074 -0.5233
  600SOL     hw 2398   2.791   0.924   0.765  0.4421 -0.3979 -0.5846
  600SOL     hw 2399   2.851   1.063   0.777  0.2960 -0.4568  1.0073
  600SOL     vw 2400   2.856   0.981   0.749  0.1911 -0.0337 -0.3294
  601SOL     ow 2401   5.213   6.099   1.678  0.3823 -0.3427 -0.2261
  601SOL     hw 2402   5.138   6.046   1.705 -1.0869  1.0847 -1.2939
  601SOL     hw 2403   5.281   6.078   1.741 -1.2908 -0.7806  1.5293
  601SOL     vw 2404   5.212   6.089   1.690 -0.0324 -0.2122 -0.1353
  602SOL     ow 2405   3.575   1.884   6.605  0.5131  0.4346  0.8696
  602SOL     hw 2406   3.545   1.794   6.612 -0.5325  0.7564  0.6479
  602SOL     hw 2407   3.573   1.903   6.511  0.9033  0.6311  0.8975
  602SOL     vw 2408   3.571   1.875   6.593  0.4267  0.5030  0.8438
  603SOL     ow 2409   4.937   0.097   5.016  0.0002 -0.1714 -0.4391
  603SOL     hw 2410   4.998   0.162   4.981 -2.3582  1.4906 -1.7838
  603SOL     hw 2411   4.892   0.143   5.087 -0.3082 -1.0410 -0.0678
  603SOL     vw 2412   4.939   0.112   5.021 -0.3514 -0.0669 -0.5674
  604SOL     ow 2413   6.398   0.587   4.653 -0.1863  0.0740 -0.4820
  604SOL     hw 2414   6.424   0.512   4.706  1.3565 -0.1271 -1.4527
  604SOL     hw 2415   6.346   0.642   4.712  0.0672 -0.9413  0.7190
  604SOL     vw 2416   6.394   0.585   4.668  0.0505 -0.0865 -0.4518
  605SOL     ow 2417   1.820   3.615   1.218  0.2826  0.1727 -0.5638
  605SOL     hw 2418   1.760   3.588   1.288  0.2679  1.0689 -0.2121
  605SOL     hw 2419   1.901   3.568   1.236 -0.2534 -0.9236 -0.9481
  605SOL     vw 2420   1.823   3.605   1.229  0.2100  0.1464 -0.5680
  606SOL     ow 2421   2.144   5.836   6.266  0.0211 -0.1704  0.0220
  606SOL     hw 2422   2.152   5.870   6.176 -2.2389 -0.9056 -0.5010
  606SOL     hw 2423   2.205   5.763   6.269 -0.1904 -0.4136 -1.0725
  606SOL     vw 2424   2.153   5.831   6.254 -0.3049 -0.2995 -0.1915
  607SOL     ow 2425   6.021   0.476   4.054 -0.4564 -0.5584 -0.8657
  607SOL     hw 2426   6.018   0.441   4.143 -2.7564 -0.0029 -0.6544
  607SOL     hw 2427   6.114   0.496   4.039 -0.2425  1.7615  2.3958
  607SOL     vw 2428   6.033   0.474   4.064 -0.7317 -0.1790 -0.4075
  608SOL     ow 2429   5.773   1.980   4.888  0.9614 -0.1165 -0.1058
  608SOL     hw 2430   5.806   1.928   4.961  0.7435 -0.2319 -0.0890
  608SOL     hw 2431   5.775   2.071   4.919  1.0227 -0.1490 -0.0159
  608SOL     vw 2432   5.778   1.985   4.902  0.9408 -0.1361 -0.0920
  609SOL     ow 2433   6.464   6.789   0.401 -0.1130 -0.8371 -0.3842
  609SOL     hw 2434   6.498   6.770   0.313 -0.7569 -0.3029 -0.7596
  609SOL     hw 2435   6.529   6.751   0.460  1.7077  1.0700 -1.0405
  609SOL     vw 2436   6.477   6.781   0.397  0.0422 -0.5147 -0.5203
  610SOL     ow 2437   6.992   4.125   5.155  0.0671 -0.2652  0.2197
  610SOL     hw 2438   6.921   4.062   5.142 -0.4355  0.6501 -1.9630
  610SOL     hw 2439   6.949   4.205   5.184  0.6026 -0.5957  2.0487
  610SOL     vw 2440   6.977   4.127   5.157  0.0715 -0.1881  0.1731
  611SOL     ow 2441   3.957   6.503   7.057 -0.3061  0.4020  0.3487
  611SOL     hw 2442   3.946   6.586   7.010 -1.4935 -0.2625 -0.6206
  611SOL     hw 2443   4.047   6.505   7.089  0.0065  1.6274 -0.5229
  611SOL     vw 2444   3.967   6.514   7.055 -0.4215  0.4759  0.1059
  612SOL     ow 2445   4.600   3.906   4.841 -0.4026  0.1752  0.0009
  612SOL     hw 2446   4.581   3.830   4.896 -2.1730 -0.8275 -1.8350
  612SOL     hw 2447   4.524   3.964   4.852 -0.5481  0.1876 -0.9666
  612SOL     vw 2448   4.588   3.904   4.849 -0.6552  0.0445 -0.3688
  613SOL     ow 2449   5.990   0.882   2.467  0.4247 -0.4835 -0.6327
  613SOL     hw 2450   5.970   0.975   2.452  3.5917  0.2095 -1.1786
  613SOL     hw 2451   5.965   0.839   2.385 -5.8766 -1.2986  1.1561
  613SOL     vw 2452   5.984   0.889   2.454  0.0112 -0.4996 -0.4687
  614SOL     ow 2453   0.087   6.129   1.933  0.9564 -0.2386 -0.3076
  614SOL     hw 2454   0.047   6.192   1.873  0.4271 -0.6355 -0.3807
  614SOL     hw 2455   0.127   6.183   2.001  0.6472  0.1835 -0.4535
  614SOL     vw 2456   0.087   6.145   1.934  0.8458 -0.2353 -0.3365
  615SOL     ow 2457   1.819   3.714   3.355  0.4169  0.2443 -0.1509
  615SOL     hw 2458   1.884   3.722   3.425  1.4044 -1.5898 -0.7928
  615SOL     hw 2459   1.869   3.681   3.281 -1.1393 -0.5966 -0.8537
  615SOL     vw 2460   1.834   3.711   3.355  0.3420 -0.1086 -0.3283
  616SOL     ow 2461   2.976   2.699   0.740 -0.3682 -0.4886 -0.5959
  616SOL     hw 2462   2.996   2.632   0.674 -1.7481 -0.3552 -1.1903
  616SOL     hw 2463   3.043   2.766   0.727 -0.7521 -0.3549 -2.0581
  616SOL     vw 2464   2.988   2.699   0.729 -0.6009 -0.4534 -0.8673
  617SOL     ow 2465   0.137   4.323   6.606 -0.1280 -0.0403  0.6356
  617SOL     hw 2466   0.185   4.399   6.639 -0.4937  0.7730 -0.6385
  617SOL     hw 2467   0.185   4.296   6.528  0.0291 -1.1733  1.1046
  617SOL     vw 2468   0.150   4.329   6.600 -0.1556 -0.0823  0.5295
  618SOL     ow 2469   0.315   4.269   3.967  0.6629  0.1103 -0.0678
  618SOL     hw 2470   0.268   4.188   3.985 -0.4223  0.2342 -2.0942
  618SOL     hw 2471   0.401   4.240   3.936  0.0696 -0.3463 -1.3899
  618SOL     vw 2472   0.320   4.254   3.965  0.4414  0.0663 -0.5096
  619SOL     ow 2473   6.429   1.658   1.656  0.2012  0.0412 -0.2312
  619SOL     hw 2474   6.432   1.670   1.562 -2.7784  1.4484 -0.2538
  619SOL     hw 2475   6.414   1.746   1.692 -1.2303 -0.7590  1.3075
  619SOL     vw 2476   6.427   1.671   1.649 -0.3805  0.1212 -0.0312
  620SOL     ow 2477   1.293   6.803   0.261  0.0189 -0.3479  0.4493
  620SOL     hw 2478   1.353   6.755   0.204 -1.5186 -1.1378 -0.5750
  620SOL     hw 2479   1.256   6.872   0.205 -1.5146 -1.1381  0.4381
  620SOL     vw 2480   1.296   6.806   0.246 -0.3862 -0.5565  0.3127
  621SOL     ow 2481   1.422   2.117   7.041 -0.1029  0.3405  0.0789
  621SOL     hw 2482   1.364   2.050   7.075  0.9806 -0.0399  1.2757
  621SOL     hw 2483   1.385   2.200   7.072  0.2762  0.0629  1.3183
  621SOL     vw 2484   1.409   2.119   7.050  0.0901  0.2536  0.4003
  622SOL     ow 2485   4.367   5.096   1.669  0.3493 -0.0277 -0.0320
  622SOL     hw 2486   4.377   5.046   1.750  0.0206  1.9029  1.2771
  622SOL     hw 2487   4.448   5.082   1.622  1.1615 -0.0569  1.3173
  622SOL     vw 2488   4.379   5.088   1.674  0.4129  0.2229  0.3187
  623SOL     ow 2489   3.386   0.769   2.209  0.2381  0.3128 -0.6401
  623SOL     hw 2490   3.293   0.787   2.223  0.6347  0.5739  2.2891
  623SOL     hw 2491   3.395   0.674   2.222  0.6614  0.5934  1.3450
  623SOL     vw 2492   3.375   0.759   2.212  0.3463  0.3843  0.0083
  624SOL     ow 2493   0.617   2.238   6.307 -0.6488 -0.1683  0.7397
  624SOL     hw 2494   0.624   2.215   6.214  0.2753 -1.1559  1.0484
  624SOL     hw 2495   0.563   2.169   6.345 -3.4034  1.6668  0.4669
  624SOL     vw 2496   0.611   2.226   6.299 -0.8903 -0.0566  0.7443
  625SOL     ow 2497   6.907   6.290   3.479 -0.0301 -0.1694 -0.1051
  625SOL     hw 2498   6.993   6.258   3.452 -1.0152 -1.5592 -1.8005
  625SOL     hw 2499   6.864   6.213   3.516 -0.9804  0.2099 -0.4060
  625SOL     vw 2500   6.913   6.276   3.480 -0.2854 -0.3026 -0.3686
  626SOL     ow 2501   2.199   2.660   4.556 -0.2281  0.5750  0.3915
  626SOL     hw 2502   2.257   2.584   4.544 -1.0464  0.3704 -3.9692
  626SOL     hw 2503   2.253   2.735   4.531 -1.1938  0.5643 -1.9891
  626SOL     vw 2504   2.214   2.660   4.551 -0.4636  0.5465 -0.4981
  627SOL     ow 2505   2.783   0.841   0.249  0.6981  0.1246 -0.0957
  627SOL     hw 2506   2.769   0.896   0.327  0.8331 -2.3649  1.8143
  627SOL     hw 2507   2.872   0.808   0.259  1.6093  1.5541 -2.6283
  627SOL     vw 2508   2.793   0.844   0.261  0.8361 -0.0153 -0.1779
  628SOL     ow 2509   1.073   6.602   0.663 -0.2650  0.0469 -0.3274
  628SOL     hw 2510   1.058   6.546   0.740  0.4573  0.1885 -0.0738
  628SOL     hw 2511   1.016   6.677   0.677 -0.8371 -0.3623 -0.3998
  628SOL     vw 2512   1.063   6.604   0.675 -0.2452  0.0117 -0.3035
  629SOL     ow 2513   5.865   1.240   1.929  0.4212  0.0623  0.0723
  629SOL     hw 2514   5.788   1.183   1.932 -1.1679  2.0115 -0.7112
  629SOL     hw 2515   5.849   1.298   1.854  2.2743  1.0800  0.3898
  629SOL     vw 2516   5.853   1.240   1.919  0.4561  0.4538  0.0107
  630SOL     ow 2517   5.840   4.395   2.854 -0.3034 -0.0622 -0.0566
  630SOL     hw 2518   5.770   4.421   2.913 -1.4578 -0.1202 -1.3578
  630SOL     hw 2519   5.912   4.456   2.874 -0.1056 -1.0003  2.3693
  630SOL     vw 2520   5.841   4.407   2.865 -0.4294 -0.1936  0.0918
  631SOL     ow 2521   2.114   0.969   4.395  0.1187 -0.5544 -0.3438
  631SOL     hw 2522   2.068   1.017   4.464  0.6798 -2.3527  1.3618
  631SOL     hw 2523   2.047   0.956   4.327 -0.8311  0.1029  0.4392
  631SOL     vw 2524   2.099   0.974   4.395  0.0675 -0.7049 -0.0153
  632SOL     ow 2525   0.232   6.447   5.903 -0.1411  0.2969 -0.7693
  632SOL     hw 2526   0.172   6.469   5.974 -0.0827  1.1038 -0.9601
  632SOL     hw 2527   0.176   6.413   5.834 -0.3906  0.9922 -0.9246
  632SOL     vw 2528   0.217   6.446   5.904 -0.1663  0.4947 -0.8149
  633SOL     ow 2529   5.161   4.090   5.945 -0.2003 -0.1396 -0.0551
  633SOL     hw 2530   5.138   4.180   5.966  0.4287 -0.2392  1.1260
  633SOL     hw 2531   5.186   4.092   5.853 -0.8141  0.7570 -0.2113
  633SOL     vw 2532   5.161   4.102   5.936 -0.1981 -0.0346  0.0801
  634SOL     ow 2533   6.321   2.876   5.393  0.6942  0.3059  0.3766
  634SOL     hw 2534   6.238   2.905   5.356  2.0353  0.9186 -2.4125
  634SOL     hw 2535   6.341   2.940   5.461 -0.3495  1.0679 -0.0158
  634SOL     vw 2536   6.313   2.888   5.397  0.7336  0.4872 -0.0432
  635SOL     ow 2537   1.395   4.322   5.644 -0.4148  0.1836  0.7018
  635SOL     hw 2538   1.429   4.354   5.560 -0.5958 -1.0360  0.1317
  635SOL     hw 2539   1.300   4.323   5.634 -0.4491  0.4638  1.0584
  635SOL     vw 2540   1.387   4.326   5.631 -0.4432  0.0596  0.6735
  636SOL     ow 2541   3.876   0.738   0.120 -0.2171 -0.4692  0.5673
  636SOL     hw 2542   3.848   0.822   0.084  0.6389 -0.6542 -0.6176
  636SOL     hw 2543   3.870   0.677   0.046  2.9199 -0.5773  0.2411
  636SOL     vw 2544   3.872   0.741   0.105  0.3098 -0.5079  0.3679
  637SOL     ow 2545   5.073   0.394   3.387  0.4795  0.0548 -0.0995
  637SOL     hw 2546   5.119   0.361   3.464  0.8646  0.6960 -0.0497
  637SOL     hw 2547   5.013   0.460   3.422  0.2755 -0.0261 -0.2919
  637SOL     vw 2548   5.071   0.399   3.402  0.5035  0.1287 -0.1183
  638SOL     ow 2549   3.813   6.900   6.311 -0.7384  0.3380 -0.1705
  638SOL     hw 2550   3.750   6.913   6.382 -2.4410  0.1966 -1.5891
  638SOL     hw 2551   3.783   6.821   6.267  0.7416 -0.0043 -0.6085
  638SOL     vw 2552   3.800   6.892   6.315 -0.7677  0.2742 -0.4153
  639SOL     ow 2553   5.018   4.788   3.995 -0.6768  0.1806  0.1436
  639SOL     hw 2554   4.990   4.875   4.023  0.7468  0.4197  0.9449
  639SOL     hw 2555   4.997   4.731   4.069 -0.7336  0.0194  0.0041
  639SOL     vw 2556   5.012   4.792   4.008 -0.4966  0.1910  0.2310
  640SOL     ow 2557   2.445   6.316   4.274 -0.4123 -0.1283 -0.1806
  640SOL     hw 2558   2.439   6.262   4.195 -1.5397 -0.2092 -0.0587
  640SOL     hw 2559   2.383   6.387   4.259  1.4055  1.4539 -0.5567
  640SOL     vw 2560   2.436   6.318   4.262 -0.3213  0.0696 -0.2143
  641SOL     ow 2561   0.891   6.562   5.997 -0.3860  0.3478 -0.1522
  641SOL     hw 2562   0.925   6.558   6.087  2.2777  0.4495 -1.0873
  641SOL     hw 2563   0.814   6.619   6.004 -1.3126 -1.0303  2.3288
  641SOL     vw 2564   0.885   6.569   6.010 -0.1568  0.1795  0.0517
  642SOL     ow 2565   3.395   4.770   1.739  0.4676  0.6373 -0.2348
  642SOL     hw 2566   3.470   4.798   1.687  0.6633  1.1461  0.3105
  642SOL     hw 2567   3.351   4.852   1.763 -0.9367  0.3186 -1.5036
  642SOL     vw 2568   3.399   4.784   1.735  0.3082  0.6623 -0.3302
  643SOL     ow 2569   3.539   1.649   6.281 -0.1677  0.1325 -0.7116
  643SOL     hw 2570   3.541   1.595   6.360  0.0460 -0.7262 -1.2806
  643SOL     hw 2571   3.456   1.697   6.287 -0.5207 -0.5107 -0.3400
  643SOL     vw 2572   3.528   1.648   6.292 -0.1862 -0.0656 -0.7377
  644SOL     ow 2573   6.970   7.008   1.583  0.4294  0.5744  0.2474
  644SOL     hw 2574   6.933   7.011   1.495  1.9399  0.2155 -0.4352
  644SOL     hw 2575   7.055   7.049   1.575  0.5662  0.6019  1.5737
  644SOL     vw 2576   6.976   7.014   1.570  0.6468  0.5305  0.3324
  645SOL     ow 2577   2.386   1.962   3.565 -0.1842 -0.2976  0.4456
  645SOL     hw 2578   2.479   1.946   3.552  0.1601  0.4978  1.7596
  645SOL     hw 2579   2.377   2.057   3.563 -0.5050 -0.2098  2.9314
  645SOL     vw 2580   2.397   1.972   3.563 -0.1811 -0.1811  0.9471
  646SOL     ow 2581   4.386   2.300   2.984 -0.3649  0.0198 -0.3408
  646SOL     hw 2582   4.291   2.298   2.996 -0.3975 -0.9762 -0.6031
  646SOL     hw 2583   4.421   2.318   3.071 -0.8305  2.3876 -0.6005
  646SOL     vw 2584   4.378   2.302   2.997 -0.4303  0.2009 -0.4096
  647SOL     ow 2585   5.676   0.657   1.644  0.5356  0.3779 -0.4741
  647SOL     hw 2586   5.690   0.664   1.738  1.6715  1.0919 -0.6717
  647SOL     hw 2587   5.714   0.738   1.608 -1.2262  0.8303 -1.4230
  647SOL     vw 2588   5.683   0.669   1.652  0.4532  0.5319 -0.6253
  648SOL     ow 2589   3.503   6.041   3.751 -0.7916  0.3823 -0.6291
  648SOL     hw 2590   3.580   6.003   3.708  0.4526  0.5074  1.3163
  648SOL     hw 2591   3.444   5.967   3.764  0.8630 -0.6806  1.5830
  648SOL     vw 2592   3.506   6.026   3.747 -0.4091  0.2587 -0.0807
  649SOL     ow 2593   5.468   3.538   5.994 -0.1168  0.2541  0.1660
  649SOL     hw 2594   5.524   3.538   5.917 -0.1271 -0.0187  0.1576
  649SOL     hw 2595   5.422   3.622   5.991  0.1508  0.3977  0.0715
  649SOL     vw 2596   5.469   3.549   5.984 -0.0830  0.2372  0.1523
  650SOL     ow 2597   3.874   2.857   1.146  0.8249 -0.1919  0.1918
  650SOL     hw 2598   3.868   2.809   1.064 -0.3658  0.3311 -0.0504
  650SOL     hw 2599   3.836   2.799   1.211 -0.4711  0.3025 -0.0747
  650SOL     vw 2600   3.868   2.843   1.144  0.4969 -0.0577  0.1247
  651SOL     ow 2601   1.039   4.156   1.456  0.3756 -0.3370 -0.2144
  651SOL     hw 2602   1.014   4.122   1.370  1.2027  1.1279 -1.0687
  651SOL     hw 2603   1.125   4.119   1.472 -0.3333 -1.6762  0.6159
  651SOL     vw 2604   1.047   4.147   1.446  0.3912 -0.3207 -0.2176
  652SOL     ow 2605   5.184   0.289   6.968  0.2789  0.3443 -0.7158
  652SOL     hw 2606   5.254   0.351   6.947  0.4682  0.0874 -0.8450
  652SOL     hw 2607   5.178   0.232   6.892 -0.1106  0.3990 -0.7268
  652SOL     vw 2608   5.192   0.290   6.955  0.2522  0.3176 -0.7341
  653SOL     ow 2609   3.843   4.694   2.662  0.6863 -0.1009  0.2906
  653SOL     hw 2610   3.752   4.682   2.633 -0.0758  1.7117  1.6703
  653SOL     hw 2611   3.888   4.731   2.587 -0.2600  0.8916  0.1869
  653SOL     vw 2612   3.837   4.697   2.648  0.4610  0.2692  0.4590
  654SOL     ow 2613   3.077   4.146   3.354 -0.3089 -0.0258 -0.9074
  654SOL     hw 2614   3.007   4.211   3.358  0.3130  0.6273  2.3557
  654SOL     hw 2615   3.158   4.197   3.357  0.2667 -0.8755 -1.3739
  654SOL     vw 2616   3.078   4.161   3.355 -0.1509 -0.0517 -0.5383
  655SOL     ow 2617   5.035   2.277   0.163 -0.1152  0.1720  0.0504
  655SOL     hw 2618   5.034   2.181   0.169 -2.6780  0.0646 -0.8400
  655SOL     hw 2619   5.126   2.299   0.141  0.2200 -2.1626 -1.1882
  655SOL     vw 2620   5.047   2.267   0.161 -0.4091 -0.1503 -0.2305
  656SOL     ow 2621   6.920   0.593   1.064 -0.1485  0.4320  0.4052
  656SOL     hw 2622   6.935   0.505   1.029 -0.3572  0.5169  0.1007
  656SOL     hw 2623   6.872   0.639   0.995 -1.5927  0.2549  1.2432
  656SOL     vw 2624   6.916   0.587   1.050 -0.3664  0.4198  0.4756
  657SOL     ow 2625   6.142   5.903   3.093 -0.1244 -0.0628  0.8560
  657SOL     hw 2626   6.114   5.872   3.179 -0.7373  0.2692  0.7802
  657SOL     hw 2627   6.190   5.984   3.111  0.4119 -0.3883  0.9425
  657SOL     vw 2628   6.145   5.909   3.107 -0.1345 -0.0620  0.8575
  658SOL     ow 2629   2.136   6.597   2.820  0.1560  0.5660  0.1182
  658SOL     hw 2630   2.212   6.588   2.764 -0.0721  0.7251 -0.2224
  658SOL     hw 2631   2.170   6.595   2.909  0.7117  1.9738 -0.0369
  658SOL     vw 2632   2.150   6.596   2.824  0.1992  0.7727  0.0530
  659SOL     ow 2633   5.817   6.615   4.816  0.1357 -0.0762  0.0831
  659SOL     hw 2634   5.779   6.604   4.729 -0.0864 -2.9267  0.4506
  659SOL     hw 2635   5.871   6.538   4.829 -0.1666  0.0381  2.6349
  659SOL     vw 2636   5.819   6.604   4.806  0.0663 -0.4368  0.4683
  660SOL     ow 2637   3.792   5.614   1.078  0.1234  0.2982  0.1083
  660SOL     hw 2638   3.763   5.527   1.105  3.3757 -0.7939  0.4971
  660SOL     hw 2639   3.823   5.601   0.988 -0.1052  1.2772 -0.1210
  660SOL     vw 2640   3.792   5.601   1.069  0.5224  0.2832  0.1293
  661SOL     ow 2641   4.848   0.949   0.412 -0.3120 -0.3134  0.0157
  661SOL     hw 2642   4.807   1.033   0.433 -3.0713 -1.3633 -0.6457
  661SOL     hw 2643   4.853   0.948   0.316  2.5073  0.2396  0.0872
  661SOL     vw 2644   4.843   0.960   0.402 -0.3042 -0.3789 -0.0621
  662SOL     ow 2645   6.077   3.366   4.377 -0.2072  0.3796  0.3673
  662SOL     hw 2646   6.015   3.434   4.402 -0.2279  0.3547  0.3848
  662SOL     hw 2647   6.091   3.315   4.458  1.8290  1.9521  1.0791
  662SOL     vw 2648   6.071   3.368   4.391  0.0587  0.5839  0.4635
  663SOL     ow 2649   5.921   0.505   6.817  0.4740  0.8156 -0.5726
  663SOL     hw 2650   5.826   0.511   6.808  0.2740 -2.1380 -1.4660
  663SOL     hw 2651   5.934   0.483   6.910  0.2708  0.9259 -0.5160
  663SOL     vw 2652   5.910   0.503   6.828  0.4208  0.4404 -0.6828
  664SOL     ow 2653   4.801   5.291   1.883  0.2268 -0.2991  0.1446
  664SOL     hw 2654   4.728   5.352   1.872 -0.9130 -1.6233  0.1475
  664SOL     hw 2655   4.762   5.204   1.874  1.7599 -1.0542  0.4229
  664SOL     vw 2656   4.787   5.288   1.881  0.2785 -0.5734  0.1817
  665SOL     ow 2657   2.438   6.055   3.572  0.0205  0.0479 -0.1613
  665SOL     hw 2658   2.509   6.116   3.554  1.4893 -1.7727 -0.9021
  665SOL     hw 2659   2.432   6.054   3.668  1.0681  0.1909 -0.0756
  665SOL     vw 2660   2.447   6.063   3.583  0.3525 -0.1733 -0.2476
  666SOL     ow 2661   4.810   5.908   6.332  0.0800 -0.4764  0.4263
  666SOL     hw 2662   4.826   5.827   6.283  1.0171 -0.6926  1.0732
  666SOL     hw 2663   4.761   5.880   6.409  1.4943 -0.6144  1.2852
  666SOL     vw 2664   4.805   5.893   6.335  0.3903 -0.5231  0.6249
  667SOL     ow 2665   5.876   6.813   3.768  0.2262 -0.5090 -0.1402
  667SOL     hw 2666   5.868   6.895   3.720 -4.2989 -2.5699 -3.6008
  667SOL     hw 2667   5.809   6.818   3.837  0.0152 -1.2261 -0.2822
  667SOL     vw 2668   5.866   6.824   3.771 -0.3989 -0.8755 -0.6156
  668SOL     ow 2669   6.065   2.394   6.854  0.3963  0.3763 -0.7447
  668SOL     hw 2670   6.012   2.446   6.793 -0.0481  0.1287 -0.5682
  668SOL     hw 2671   6.155   2.416   6.830  0.2497  2.4361  0.3192
  668SOL     vw 2672   6.070   2.404   6.842  0.3183  0.6156 -0.5813
  669SOL     ow 2673   4.963   2.060   2.999  0.7301 -0.1445  0.2013
  669SOL     hw 2674   4.941   2.126   2.933  0.1388  1.0169  1.4985
  669SOL     hw 2675   4.882   2.010   3.011  0.3123  0.7552  1.2465
  669SOL     vw 2676   4.949   2.062   2.992  0.5970  0.1276  0.5105
  670SOL     ow 2677   2.034   3.711   1.051  0.2774  0.3099 -0.1550
  670SOL     hw 2678   2.024   3.773   1.123 -0.5158 -1.5391  1.4452
  670SOL     hw 2679   2.114   3.663   1.073 -0.1168 -0.4427 -0.3301
  670SOL     vw 2680   2.043   3.712   1.064  0.1206 -0.0333  0.0330
  671SOL     ow 2681   0.888   2.149   6.432  0.6310 -0.2519  0.1705
  671SOL     hw 2682   0.983   2.157   6.436  0.5811  1.5391 -1.1378
  671SOL     hw 2683   0.871   2.056   6.451  2.4048 -0.1061  3.1466
  671SOL     vw 2684   0.898   2.138   6.435  0.8585  0.0036  0.3905
  672SOL     ow 2685   4.610   0.712   5.401  0.1696  0.1865 -0.0988
  672SOL     hw 2686   4.681   0.657   5.368 -1.0401 -0.6156 -1.4632
  672SOL     hw 2687   4.586   0.672   5.484  0.6877 -0.0894 -0.0749
  672SOL     vw 2688   4.617   0.700   5.408  0.0784  0.0442 -0.2754
  673SOL     ow 2689   2.612   6.021   1.271  0.2852 -0.3254  0.2017
  673SOL     hw 2690   2.546   6.032   1.339 -2.8793  1.1772 -2.7423
  673SOL     hw 2691   2.685   6.076   1.299 -1.9999  2.4616  1.2086
  673SOL     vw 2692   2.613   6.030   1.283 -0.4337  0.2406 -0.0539
  674SOL     ow 2693   1.948   4.790   1.842  0.2722 -0.2462  0.5282
  674SOL     hw 2694   2.027   4.747   1.811  0.6305  1.4456 -1.1307
  674SOL     hw 2695   1.979   4.874   1.878 -0.4933 -0.8157  2.6835
  674SOL     vw 2696   1.962   4.796   1.843  0.2185 -0.0980  0.5937
  675SOL     ow 2697   4.364   5.364   1.667 -0.1831 -0.1060 -0.0701
  675SOL     hw 2698   4.432   5.400   1.611 -0.0654  1.5287  1.0601
  675SOL     hw 2699   4.388   5.272   1.680  2.4328  0.6624  1.1618
  675SOL     vw 2700   4.376   5.357   1.662  0.1776  0.2112  0.2416
  676SOL     ow 2701   4.553   4.100   1.557  0.6991 -0.1767  0.3936
  676SOL     hw 2702   4.528   4.010   1.576  1.1925  0.1787  3.0263
  676SOL     hw 2703   4.638   4.093   1.514  0.0327 -0.9888 -0.8573
  676SOL     vw 2704   4.561   4.087   1.554  0.6762 -0.2370  0.5758
  677SOL     ow 2705   4.287   3.890   3.347 -0.5272 -0.6266 -0.2164
  677SOL     hw 2706   4.230   3.854   3.279 -0.7610  1.8134 -1.4299
  677SOL     hw 2707   4.240   3.968   3.379  0.9437 -0.0473  0.6251
  677SOL     vw 2708   4.273   3.896   3.343 -0.3638 -0.2282 -0.2654
  678SOL     ow 2709   1.531   6.337   1.765  0.3882 -0.5259  0.0401
  678SOL     hw 2710   1.586   6.414   1.752 -0.0918 -0.3645 -1.1494
  678SOL     hw 2711   1.446   6.361   1.729  0.2120 -1.5876 -0.3038
  678SOL     vw 2712   1.527   6.350   1.758  0.3016 -0.6447 -0.1622
  679SOL     ow 2713   0.856   0.669   4.604 -0.0704  0.0752 -0.1552
  679SOL     hw 2714   0.787   0.718   4.559 -0.8841 -0.7325  0.1680
  679SOL     hw 2715   0.921   0.734   4.627 -1.5612  1.1704  1.1322
  679SOL     vw 2716   0.855   0.684   4.601 -0.3745  0.1132  0.0575
  680SOL     ow 2717   7.055   5.955   1.665  0.2816 -0.0812 -0.0971
  680SOL     hw 2718   6.980   5.942   1.608  0.7618 -2.5921 -0.3023
  680SOL     hw 2719   7.107   6.023   1.622 -0.4256 -0.3949 -1.5083
  680SOL     vw 2720   7.052   5.962   1.652  0.2513 -0.4535 -0.3104
  681SOL     ow 2721   0.879   6.860   6.364  0.6495  0.2896 -0.1487
  681SOL     hw 2722   0.801   6.904   6.398 -0.6743 -1.3200 -0.9477
  681SOL     hw 2723   0.945   6.930   6.357 -0.1237  1.3677  2.2005
  681SOL     vw 2724   0.878   6.875   6.368  0.3728  0.2193  0.0558
  682SOL     ow 2725   6.010   5.997   0.862  0.4891 -0.1154  0.6182
  682SOL     hw 2726   5.942   5.961   0.920  1.3727  0.4318  2.0402
  682SOL     hw 2727   5.981   5.973   0.774 -1.4421 -0.0868  1.1889
  682SOL     vw 2728   5.997   5.989   0.858  0.3507 -0.0393  0.8811
  683SOL     ow 2729   0.214   0.464   3.715 -0.2900  0.2698  0.0410
  683SOL     hw 2730   0.202   0.559   3.723  0.5863  0.3310  0.7883
  683SOL     hw 2731   0.249   0.452   3.627  1.1547  0.8195  0.5185
  683SOL     vw 2732   0.217   0.475   3.705  0.0162  0.3504  0.2025
  684SOL     ow 2733   1.637   2.879   5.650 -0.0222  0.7544 -0.5126
  684SOL     hw 2734   1.589   2.826   5.587  2.2423 -1.2026 -0.7606
  684SOL     hw 2735   1.721   2.897   5.607  1.3044 -0.0128  1.5909
  684SOL     vw 2736   1.642   2.874   5.636  0.4515  0.3949 -0.2680
  685SOL     ow 2737   0.071   0.177   3.690  0.7812 -0.2365  0.1608
  685SOL     hw 2738  -0.022   0.172   3.665  0.8042  0.9998 -0.2018
  685SOL     hw 2739   0.116   0.127   3.622  0.7222  2.1141 -1.7304
  685SOL     vw 2740   0.064   0.170   3.678  0.7765  0.2367 -0.1366
  686SOL     ow 2741   0.821   1.806   3.526  0.0570 -0.2260 -0.2760
  686SOL     hw 2742   0.758   1.760   3.470  0.8384  1.1786 -2.4512
  686SOL     hw 2743   0.857   1.738   3.583 -2.0473 -1.4027 -0.2704
  686SOL     vw 2744   0.818   1.791   3.526 -0.1175 -0.1960 -0.5622
  687SOL     ow 2745   4.264   2.930   6.115  0.0969 -0.0987 -0.1060
  687SOL     hw 2746   4.176   2.923   6.078  0.2157  0.6402 -0.5403
  687SOL     hw 2747   4.249   2.935   6.210 -0.2492 -1.2265 -0.0908
  687SOL     vw 2748   4.250   2.930   6.123  0.0668 -0.1500 -0.1614
  688SOL     ow 2749   2.254   0.097   5.189  0.2728  0.1627 -0.4282
  688SOL     hw 2750   2.162   0.080   5.168  0.5566 -1.3249 -0.5878
  688SOL     hw 2751   2.276   0.031   5.256  1.2276  0.4647 -0.4249
  688SOL     vw 2752   2.245   0.086   5.195  0.4362  0.0062 -0.4487
  689SOL     ow 2753   1.242   2.239   1.146  0.0500  1.2771  0.1952
  689SOL     hw 2754   1.228   2.331   1.123  1.6780  1.0872 -1.8511
  689SOL     hw 2755   1.274   2.198   1.065 -1.2120 -1.2652  0.8671
  689SOL     vw 2756   1.245   2.246   1.132  0.0983  0.9167  0.0138
  690SOL     ow 2757   1.382   4.070   4.993 -0.4818 -0.2196 -0.0658
  690SOL     hw 2758   1.331   4.066   5.074  1.0097 -0.1677  0.9131
  690SOL     hw 2759   1.433   3.989   4.993 -2.1124 -1.3127 -2.1201
  690SOL     vw 2760   1.382   4.059   5.004 -0.5001 -0.3567 -0.2081
  691SOL     ow 2761   4.721   6.325   0.018  0.6873 -0.7039 -0.0259
  691SOL     hw 2762   4.669   6.248  -0.002 -1.1373 -0.2376  2.4725
  691SOL     hw 2763   4.660   6.399   0.010  0.8343 -0.1343  2.8615
  691SOL     vw 2764   4.706   6.325   0.014  0.4659 -0.5672  0.6847
  692SOL     ow 2765   0.683   3.827   5.800  0.5806 -0.1340 -0.1729
  692SOL     hw 2766   0.596   3.846   5.833 -0.6861 -0.5322 -3.0582
  692SOL     hw 2767   0.726   3.912   5.794  0.5214  0.0391  1.4744
  692SOL     vw 2768   0.678   3.840   5.804  0.4057 -0.1637 -0.3359
  693SOL     ow 2769   4.467   4.724   4.431  0.0689 -0.2979 -0.3974
  693SOL     hw 2770   4.445   4.647   4.483  0.7728 -0.7472 -0.7435
  693SOL     hw 2771   4.558   4.744   4.454 -0.1760  0.5730 -0.1428
  693SOL     vw 2772   4.476   4.717   4.441  0.1297 -0.2427 -0.4094
  694SOL     ow 2773   3.364   0.712   1.214  0.2180 -0.1826 -0.2999
  694SOL     hw 2774   3.409   0.792   1.243  1.5322 -1.0406  0.1088
  694SOL     hw 2775   3.417   0.641   1.250 -2.4186 -1.2675  1.6683
  694SOL     vw 2776   3.377   0.713   1.222  0.0434 -0.4390  0.0136
  695SOL     ow 2777   5.476   3.832   4.254  0.2573  0.3550 -0.2242
  695SOL     hw 2778   5.495   3.882   4.174  0.5562  0.7170  0.0683
  695SOL     hw 2779   5.442   3.898   4.315  1.2027  0.3150  0.3639
  695SOL     vw 2780   5.474   3.847   4.251  0.4215  0.3976 -0.1078
  696SOL     ow 2781   6.905   3.313   6.977  0.1801  0.3956  1.1944
  696SOL     hw 2782   6.901   3.404   7.007 -2.1474  0.8133 -0.1078
  696SOL     hw 2783   6.847   3.265   7.037 -0.7697  0.3433  0.2713
  696SOL     vw 2784   6.897   3.318   6.989 -0.2520  0.4438  0.9007
  697SOL     ow 2785   6.205   1.433   1.588 -0.1024 -0.2428 -0.1701
  697SOL     hw 2786   6.214   1.380   1.667 -0.5455  0.5660  0.4495
  697SOL     hw 2787   6.260   1.390   1.523 -3.0272 -3.4511 -0.7830
  697SOL     vw 2788   6.214   1.421   1.590 -0.5465 -0.5594 -0.1693
  698SOL     ow 2789   1.022   3.666   6.395 -0.4016 -0.4218  0.3812
  698SOL     hw 2790   0.965   3.670   6.318 -0.6751  1.2151  0.6383
  698SOL     hw 2791   0.968   3.699   6.467  1.1697  2.4857  0.3866
  698SOL     vw 2792   1.007   3.671   6.394 -0.2305  0.1779  0.4156
  699SOL     ow 2793   4.873   2.408   6.184 -0.4994  0.0551 -0.3721
  699SOL     hw 2794   4.845   2.477   6.244  0.6351  0.2140 -0.0038
  699SOL     hw 2795   4.962   2.432   6.160  0.6803 -2.2342  1.2640
  699SOL     vw 2796   4.881   2.420   6.189 -0.1938 -0.2259 -0.1075
  700SOL     ow 2797   5.707   0.875   3.964  0.7566 -0.4907  0.3966
  700SOL     hw 2798   5.641   0.938   3.937 -0.3891 -1.2265  1.3802
  700SOL     hw 2799   5.791   0.920   3.952  0.1700  0.0616 -1.9301
  700SOL     vw 2800   5.710   0.889   3.959  0.5281 -0.5149  0.2195
  701SOL     ow 2801   0.552   3.276   6.608  0.1651 -0.4867 -0.7559
  701SOL     hw 2802   0.538   3.193   6.653  1.0687 -0.6294 -0.7252
  701SOL     hw 2803   0.517   3.262   6.520 -4.1853  0.6416  0.5278
  701SOL     vw 2804   0.545   3.263   6.602 -0.2897 -0.3566 -0.5825
  702SOL     ow 2805   2.243   5.769   0.159 -0.0530  0.4784 -0.5005
  702SOL     hw 2806   2.265   5.799   0.248  0.4505 -1.8597  0.2233
  702SOL     hw 2807   2.314   5.708   0.136 -1.6840 -1.1969 -1.3089
  702SOL     vw 2808   2.256   5.765   0.168 -0.2017 -0.0508 -0.5117
  703SOL     ow 2809   3.846   0.460   3.621  0.3653  0.3549 -0.1861
  703SOL     hw 2810   3.786   0.454   3.547  0.6916  2.1276 -0.6250
  703SOL     hw 2811   3.931   0.481   3.582  1.3574 -2.1462  0.4196
  703SOL     vw 2812   3.849   0.462   3.606  0.5392  0.2588 -0.1642
  704SOL     ow 2813   6.878   1.811   0.563 -0.0960  0.5524  0.1688
  704SOL     hw 2814   6.838   1.852   0.640 -0.3670 -1.7974  1.3819
  704SOL     hw 2815   6.962   1.777   0.595 -0.0019 -0.0586 -0.6823
  704SOL     vw 2816   6.884   1.812   0.578 -0.1194  0.1618  0.2165
  705SOL     ow 2817   3.806   5.856   1.161  0.1373 -0.4511 -0.0091
  705SOL     hw 2818   3.886   5.899   1.131  1.5747 -2.2403  1.0527
  705SOL     hw 2819   3.819   5.763   1.142 -3.0910 -0.5401 -2.7256
  705SOL     vw 2820   3.818   5.849   1.155 -0.0989 -0.6990 -0.2274
  706SOL     ow 2821   4.134   3.756   2.652  0.1892 -0.5694 -0.2881
  706SOL     hw 2822   4.099   3.688   2.710  2.2989 -0.0969  1.7020
  706SOL     hw 2823   4.068   3.825   2.653 -0.4899 -1.2115  0.3286
  706SOL     vw 2824   4.121   3.756   2.660  0.3779 -0.5918  0.0557
  707SOL     ow 2825   3.507   3.054   5.312 -0.0936 -0.3315  0.3802
  707SOL     hw 2826   3.423   3.090   5.284 -0.6212 -1.8546 -0.1222
  707SOL     hw 2827   3.554   3.128   5.349 -1.5050  0.6378  0.3141
  707SOL     vw 2828   3.502   3.069   5.313 -0.3495 -0.4045  0.3052
  708SOL     ow 2829   6.395   4.003   6.491 -0.0245  0.0559 -0.0597
  708SOL     hw 2830   6.355   4.051   6.419 -0.2594 -0.9993 -0.6644
  708SOL     hw 2831   6.322   3.958   6.534  0.0240  1.2207  1.2880
  708SOL     vw 2832   6.380   4.003   6.487 -0.0491  0.0706  0.0381
  709SOL     ow 2833   3.770   3.098   2.925 -0.3233 -0.3107 -0.2309
  709SOL     hw 2834   3.828   3.174   2.919  0.5515 -1.0160 -0.9382
  709SOL     hw 2835   3.828   3.023   2.910 -0.8148 -1.2651  2.2226
  709SOL     vw 2836   3.786   3.098   2.922 -0.2726 -0.5296 -0.0005
  710SOL     ow 2837   1.984   0.251   4.509 -0.1975  0.2380 -0.5149
  710SOL     hw 2838   1.963   0.342   4.529  2.5879  1.2281 -1.5969
  710SOL     hw 2839   2.034   0.221   4.585 -1.1426 -0.4297 -0.1418
  710SOL     vw 2840   1.988   0.259   4.522  0.0453  0.2806 -0.6084
  711SOL     ow 2841   0.444   2.088   2.567 -0.7517  0.2323 -0.3954
  711SOL     hw 2842   0.416   2.137   2.489 -1.7767 -0.1844 -0.2979
  711SOL     hw 2843   0.540   2.093   2.564 -0.8073  2.0116 -0.5317
  711SOL     vw 2844   0.453   2.095   2.556 -0.8943  0.4120 -0.4005
  712SOL     ow 2845   4.417   6.496   2.265  0.1626  0.2291  0.3000
  712SOL     hw 2846   4.502   6.524   2.232  0.6436 -0.7394  0.6604
  712SOL     hw 2847   4.361   6.491   2.188 -0.2148  2.9303  0.3113
  712SOL     vw 2848   4.420   6.499   2.251  0.1762  0.4578  0.3490
  713SOL     ow 2849   2.674   0.357   5.351 -0.3936  0.2039  0.2304
  713SOL     hw 2850   2.738   0.319   5.290  0.9414  2.4993  0.0866
  713SOL     hw 2851   2.687   0.309   5.432  0.7905 -0.0972 -0.1160
  713SOL     vw 2852   2.684   0.346   5.354 -0.0612  0.4670  0.1657
  714SOL     ow 2853   6.431   6.182   5.046  0.9794 -0.2404  0.3204
  714SOL     hw 2854   6.387   6.133   4.976 -0.1163  1.3231 -0.1269
  714SOL     hw 2855   6.360   6.218   5.099  1.6877  1.7184  0.0254
  714SOL     vw 2856   6.416   6.180   5.044  0.9284  0.2244  0.2224
  715SOL     ow 2857   2.239   4.932   0.245  0.2974  0.3984 -0.1436
  715SOL     hw 2858   2.234   5.022   0.214  2.0985  0.2454 -1.0176
  715SOL     hw 2859   2.169   4.925   0.310  0.2574  2.4763  0.1107
  715SOL     vw 2860   2.229   4.943   0.250  0.5298  0.6526 -0.2253
  716SOL     ow 2861   5.910   1.313   3.508  0.2813  0.2888 -0.7610
  716SOL     hw 2862   5.942   1.316   3.418  1.7591 -0.4428 -0.2906
  716SOL     hw 2863   5.815   1.302   3.500  0.3813  0.3398 -2.2170
  716SOL     vw 2864   5.902   1.312   3.495  0.4897  0.1991 -0.8909
  717SOL     ow 2865   3.476   4.723   1.208  0.7024 -0.3665 -0.4133
  717SOL     hw 2866   3.492   4.692   1.119  0.5590  0.7890 -0.8604
  717SOL     hw 2867   3.512   4.812   1.209 -0.2741  0.0374  0.3577
  717SOL     vw 2868   3.483   4.731   1.197  0.5548 -0.1607 -0.3705
  718SOL     ow 2869   1.111   1.540   2.302 -0.1748  0.5919  0.1664
  718SOL     hw 2870   1.145   1.584   2.224  1.3863  2.0676  1.5956
  718SOL     hw 2871   1.035   1.592   2.328 -0.7333  0.0635 -0.3650
  718SOL     vw 2872   1.106   1.552   2.295 -0.0426  0.7169  0.2848
  719SOL     ow 2873   5.307   5.791   2.288  0.1948 -0.4751  0.0968
  719SOL     hw 2874   5.394   5.752   2.280  1.5136  2.0796  0.9746
  719SOL     hw 2875   5.315   5.877   2.245 -2.2160 -0.5820 -0.7375
  719SOL     vw 2876   5.319   5.797   2.281  0.0510 -0.1523  0.1026
  720SOL     ow 2877   6.717   1.918   2.256 -0.5438 -0.4127  0.1264
  720SOL     hw 2878   6.732   1.914   2.161 -0.7901 -3.7372  0.1280
  720SOL     hw 2879   6.717   1.827   2.284 -2.8268  0.3401  2.9886
  720SOL     vw 2880   6.719   1.906   2.247 -0.8774 -0.7519  0.5041
  721SOL     ow 2881   3.059   2.690   3.594 -0.0151  0.5292  0.6633
  721SOL     hw 2882   3.125   2.705   3.526  0.3974 -0.6764  0.7826
  721SOL     hw 2883   3.109   2.690   3.676 -0.5341  2.1753  1.0124
  721SOL     vw 2884   3.075   2.692   3.596 -0.0291  0.5872  0.7252
  722SOL     ow 2885   2.362   6.994   7.159 -0.6392 -0.3567 -0.6657
  722SOL     hw 2886   2.454   6.982   7.138 -0.3498  0.4058  0.1304
  722SOL     hw 2887   2.345   6.933   7.231 -0.8268 -0.6965 -0.9971
  722SOL     vw 2888   2.372   6.984   7.166 -0.6258 -0.3009 -0.6044
  723SOL     ow 2889   4.709   1.269   4.663 -0.0689 -0.0176  0.4075
  723SOL     hw 2890   4.741   1.184   4.632  1.0020 -0.4074  2.4270
  723SOL     hw 2891   4.780   1.330   4.642 -0.4814  0.2374 -0.2805
  723SOL     vw 2892   4.723   1.266   4.656  0.0184 -0.0354  0.5829
  724SOL     ow 2893   6.853   0.332   0.606 -0.2653 -0.3283 -0.0115
  724SOL     hw 2894   6.898   0.410   0.639  0.8437 -1.3201  0.9186
  724SOL     hw 2895   6.784   0.314   0.669  0.4517 -0.9604  0.6050
  724SOL     vw 2896   6.850   0.340   0.618 -0.0241 -0.5426  0.1926
  725SOL     ow 2897   3.568   5.930   6.071 -0.0797 -1.1090  0.6838
  725SOL     hw 2898   3.535   5.841   6.082 -1.0238 -0.9466 -0.5671
  725SOL     hw 2899   3.609   5.930   5.985  0.0131 -0.3643  0.7191
  725SOL     vw 2900   3.569   5.919   6.061 -0.1919 -0.9894  0.5233
  726SOL     ow 2901   5.163   6.216   2.957 -0.1407 -0.5163  0.3242
  726SOL     hw 2902   5.093   6.152   2.944 -0.4410  0.0401 -0.8676
  726SOL     hw 2903   5.214   6.213   2.876  0.4234  0.0443  0.6513
  726SOL     vw 2904   5.161   6.207   2.945 -0.1059 -0.3691  0.2102
  727SOL     ow 2905   7.074   7.111   3.015  0.3837 -0.2877  0.1890
  727SOL     hw 2906   7.155   7.068   2.988  2.4563  3.2158  0.2371
  727SOL     hw 2907   7.044   7.157   2.937 -0.2396  0.3496  0.7912
  727SOL     vw 2908   7.081   7.112   3.001  0.5751  0.2587  0.2748
  728SOL     ow 2909   3.684   5.959   6.314  0.1897 -0.2599  0.7713
  728SOL     hw 2910   3.638   5.970   6.231  1.6290 -1.6237 -0.2752
  728SOL     hw 2911   3.696   5.864   6.323  2.0879 -0.0102  1.3453
  728SOL     vw 2912   3.680   5.948   6.304  0.6300 -0.4067  0.7088
  729SOL     ow 2913   2.837   1.628   2.907 -0.0307 -0.2837  0.3191
  729SOL     hw 2914   2.857   1.691   2.838  2.3997  0.8085  1.8751
  729SOL     hw 2915   2.776   1.567   2.867  1.4932  0.0792 -2.8872
  729SOL     vw 2916   2.832   1.628   2.893  0.4910 -0.0917  0.1013
  730SOL     ow 2917   5.809   2.596   5.968  0.4816  0.0959  0.3177
  730SOL     hw 2918   5.904   2.600   5.962  0.7671 -0.0985  3.1214
  730SOL     hw 2919   5.785   2.511   5.932  1.1339  0.7741 -1.8607
  730SOL     vw 2920   5.818   2.586   5.962  0.6053  0.1597  0.4003
  731SOL     ow 2921   4.672   2.030   5.233  0.1524  0.0733  0.2491
  731SOL     hw 2922   4.615   2.081   5.290 -2.4237 -0.5582 -1.5398
  731SOL     hw 2923   4.694   1.952   5.284  0.1257  0.7178  1.2768
  731SOL     vw 2924   4.667   2.026   5.247 -0.1910  0.0750  0.1488
  732SOL     ow 2925   5.840   6.619   6.039 -0.3830  0.0958  0.0996
  732SOL     hw 2926   5.919   6.673   6.029 -2.2992  2.6940 -2.8076
  732SOL     hw 2927   5.779   6.674   6.088 -1.5845 -0.3394 -0.8498
  732SOL     vw 2928   5.843   6.633   6.044 -0.7944  0.3810 -0.4094
  733SOL     ow 2929   0.929   5.080   2.060 -0.0494 -0.1606 -0.2696
  733SOL     hw 2930   0.884   5.163   2.045  0.9841  0.6994  1.1236
  733SOL     hw 2931   0.887   5.018   2.000 -0.4096  1.5089 -1.8063
  733SOL     vw 2932   0.918   5.083   2.050  0.0394  0.1733 -0.2885
  734SOL     ow 2933   2.356   1.089   6.240 -0.1325 -0.4012  0.1263
  734SOL     hw 2934   2.296   1.034   6.290 -1.4738  1.2533  0.4460
  734SOL     hw 2935   2.305   1.167   6.219  1.8911  1.0852  0.3886
  734SOL     vw 2936   2.342   1.092   6.244 -0.0424  0.0132  0.2029
  735SOL     ow 2937   4.462   3.381   0.166 -0.3869  0.4921  0.2775
  735SOL     hw 2938   4.536   3.431   0.200  0.8380 -1.2213  0.2606
  735SOL     hw 2939   4.386   3.417   0.211  0.0567  3.8769 -1.3797
  735SOL     vw 2940   4.462   3.392   0.176 -0.1667  0.7126  0.0566
  736SOL     ow 2941   5.936   5.555   5.662 -0.1868  0.5481 -0.0499
  736SOL     hw 2942   5.876   5.608   5.715 -1.7993 -0.1455 -1.0947
  736SOL     hw 2943   5.924   5.588   5.573  0.6124  0.0323 -0.3601
  736SOL     vw 2944   5.927   5.567   5.657 -0.2937  0.3886 -0.2286
  737SOL     ow 2945   5.883   3.465   1.213 -0.5782  0.8115 -0.1222
  737SOL     hw 2946   5.804   3.476   1.161 -0.2387  1.4300 -0.5177
  737SOL     hw 2947   5.896   3.549   1.256  0.2290  0.9320 -0.5870
  737SOL     vw 2948   5.875   3.477   1.212 -0.4268  0.9091 -0.2357
  738SOL     ow 2949   0.467   7.050   1.972 -0.2756 -0.2821 -0.3466
  738SOL     hw 2950   0.452   6.956   1.981 -3.8547  0.1710 -0.1615
  738SOL     hw 2951   0.442   7.087   2.057 -0.0387  0.9423 -0.7835
  738SOL     vw 2952   0.462   7.043   1.984 -0.7166 -0.0608 -0.3798
  739SOL     ow 2953   5.673   3.455   1.449  0.1541 -0.3583  0.0823
  739SOL     hw 2954   5.635   3.475   1.535  0.6307  0.7300  0.0531
  739SOL     hw 2955   5.612   3.391   1.411 -0.9494  0.3571  0.5746
  739SOL     vw 2956   5.660   3.450   1.455  0.0713 -0.1205  0.1433
  740SOL     ow 2957   3.505   4.948   2.636  0.1674 -0.3039  0.1232
  740SOL     hw 2958   3.590   4.980   2.607  0.0786  0.8986  1.1122
  740SOL     hw 2959   3.465   5.022   2.681 -1.3403 -0.8991 -0.1662
  740SOL     vw 2960   3.511   4.962   2.638 -0.0433 -0.2241  0.2155
  741SOL     ow 2961   1.046   6.413   5.156  0.7286 -1.5719 -0.1099
  741SOL     hw 2962   0.978   6.348   5.175 -0.1864 -0.1273  2.0455
  741SOL     hw 2963   1.112   6.400   5.224  0.9693 -0.8325 -0.1858
  741SOL     vw 2964   1.046   6.403   5.168  0.6397 -1.2836  0.1643
  742SOL     ow 2965   2.471   5.603   6.231  0.6440  0.0892 -0.7831
  742SOL     hw 2966   2.501   5.515   6.211 -1.0550 -0.4017 -1.3568
  742SOL     hw 2967   2.410   5.592   6.304  1.8697  1.0642  0.4489
  742SOL     vw 2968   2.467   5.590   6.238  0.5816  0.1531 -0.6962
  743SOL     ow 2969   4.229   6.883   2.256 -0.2354  0.1799  0.0036
  743SOL     hw 2970   4.206   6.835   2.336  1.0071  0.6027  0.6403
  743SOL     hw 2971   4.322   6.905   2.267 -0.2145  0.8019 -1.2714
  743SOL     vw 2972   4.238   6.880   2.268 -0.0689  0.3181 -0.0806
  744SOL     ow 2973   5.345   0.317   3.253  0.0004  0.2064  0.0197
  744SOL     hw 2974   5.378   0.236   3.215 -1.0911 -0.6805  0.8858
  744SOL     hw 2975   5.403   0.335   3.326  1.3607  1.2477 -1.2648
  744SOL     vw 2976   5.357   0.309   3.257  0.0358  0.2267 -0.0355
  745SOL     ow 2977   3.636   4.567   2.391  0.2304  0.7529  0.1835
  745SOL     hw 2978   3.558   4.536   2.345  0.3583 -0.3867  0.7282
  745SOL     hw 2979   3.660   4.647   2.344 -0.9343  0.8215 -0.3363
  745SOL     vw 2980   3.629   4.574   2.379  0.0936  0.6115  0.1869
  746SOL     ow 2981   1.049   5.438   1.857 -0.2717  0.3588  0.8888
  746SOL     hw 2982   1.127   5.382   1.845  0.8308  1.9166  0.4591
  746SOL     hw 2983   1.001   5.397   1.929 -1.7684 -3.5764 -1.9549
  746SOL     vw 2984   1.053   5.425   1.865 -0.3237  0.0451  0.4569
  747SOL     ow 2985   5.435   3.410   6.480 -0.4064  0.4625 -0.3484
  747SOL     hw 2986   5.342   3.391   6.470 -0.6557  0.0802  2.0445
  747SOL     hw 2987   5.479   3.328   6.460 -0.7753  0.0103  0.6331
  747SOL     vw 2988   5.428   3.397   6.476 -0.4880  0.3524  0.0968
  748SOL     ow 2989   7.024   3.849   5.485  0.3273 -0.3611 -0.2863
  748SOL     hw 2990   7.105   3.864   5.437  0.4003  1.1874  0.2782
  748SOL     hw 2991   7.053   3.828   5.574  0.1252  0.0262 -0.1255
  748SOL     vw 2992   7.039   3.848   5.491  0.3099 -0.1056 -0.1910
  749SOL     ow 2993   2.890   1.859   3.117 -0.6700 -0.1379 -0.3971
  749SOL     hw 2994   2.922   1.921   3.183  1.3530 -1.5211  0.0270
  749SOL     hw 2995   2.933   1.886   3.036  0.7881 -1.3469 -0.0623
  749SOL     vw 2996   2.900   1.871   3.115 -0.2106 -0.4799 -0.2971
  750SOL     ow 2997   4.793   2.084   6.238 -0.2958  0.0100  0.4222
  750SOL     hw 2998   4.785   2.001   6.286  2.3598  0.2205  1.3774
  750SOL     hw 2999   4.799   2.058   6.146 -0.6134 -0.7673  0.6160
  750SOL     vw 3000   4.793   2.069   6.232  0.0126 -0.0648  0.5739
  751SOL     ow 3001   6.167   4.508   0.782 -0.4969  0.9099 -0.0448
  751SOL     hw 3002   6.093   4.489   0.724  0.3853  1.1488 -1.2824
  751SOL     hw 3003   6.157   4.446   0.854 -0.6117 -0.6935 -1.3758
  751SOL     vw 3004   6.156   4.497   0.784 -0.3958  0.7298 -0.3837
  752SOL     ow 3005   0.822   5.489   1.627 -0.4423  0.4593  1.0239
  752SOL     hw 3006   0.852   5.414   1.576  0.1058  0.3640  1.4807
  752SOL     hw 3007   0.744   5.458   1.673 -1.0776  0.6107  0.0926
  752SOL     vw 3008   0.816   5.475   1.626 -0.4539  0.4666  0.9613
  753SOL     ow 3009   2.336   7.022   6.865  0.8129 -0.1757 -0.4735
  753SOL     hw 3010   2.363   6.964   6.794  2.1891  0.5425 -0.5735
  753SOL     hw 3011   2.300   7.099   6.820  2.7940  0.8136 -0.4934
  753SOL     vw 3012   2.335   7.024   6.850  1.2560  0.0498 -0.4892
  754SOL     ow 3013   1.457   4.093   5.942 -0.0766 -0.3838  0.0839
  754SOL     hw 3014   1.538   4.047   5.967  0.3851 -1.3161 -2.7214
  754SOL     hw 3015   1.475   4.185   5.960  3.0088 -0.0788 -3.2366
  754SOL     vw 3016   1.470   4.099   5.947  0.3915 -0.4666 -0.7246
  755SOL     ow 3017   2.031   1.224   7.076  0.1277  0.8122 -0.2076
  755SOL     hw 3018   2.095   1.178   7.129 -0.8825 -0.4264  0.0017
  755SOL     hw 3019   1.984   1.154   7.030 -1.3857  1.6397  0.0279
  755SOL     vw 3020   2.033   1.208   7.077 -0.2052  0.7579 -0.1490
  756SOL     ow 3021   0.483   2.512   6.189 -0.1182 -0.1467  0.0407
  756SOL     hw 3022   0.532   2.452   6.246 -0.9623 -0.5092  0.4015
  756SOL     hw 3023   0.462   2.586   6.246 -1.0613 -0.5606  0.2456
  756SOL     vw 3024   0.487   2.514   6.204 -0.3539 -0.2490  0.1152
  757SOL     ow 3025   3.930   5.461   3.209  0.1259 -0.1612  0.1799
  757SOL     hw 3026   3.875   5.462   3.287 -0.5477 -2.3768 -0.2182
  757SOL     hw 3027   3.874   5.425   3.140  0.3739  2.6095 -1.6608
  757SOL     vw 3028   3.916   5.457   3.210  0.0697 -0.0880 -0.1155
  758SOL     ow 3029   2.555   6.477   3.009  0.2325 -0.2205 -0.4513
  758SOL     hw 3030   2.466   6.449   2.989  0.3427  0.0108 -1.2899
  758SOL     hw 3031   2.611   6.411   2.969  0.4517 -1.7901  2.2111
  758SOL     vw 3032   2.551   6.465   3.001  0.2759 -0.3970 -0.2108
  759SOL     ow 3033   1.785   2.961   1.685 -0.6684  0.0378 -1.1458
  759SOL     hw 3034   1.710   2.923   1.731  1.0178 -5.4717 -2.1897
  759SOL     hw 3035   1.857   2.954   1.747  0.0299  0.0358 -1.9440
  759SOL     vw 3036   1.785   2.955   1.699 -0.3539 -0.6893 -1.3887
  760SOL     ow 3037   2.460   2.520   4.232  0.1741  0.4167 -1.1523
  760SOL     hw 3038   2.489   2.524   4.323  1.2944 -0.2214 -1.4631
  760SOL     hw 3039   2.374   2.478   4.237  0.9772 -1.2542 -0.5097
  760SOL     vw 3040   2.453   2.515   4.245  0.4277  0.1122 -1.1084
  761SOL     ow 3041   4.150   5.752   6.914  0.2214  0.4916  0.3584
  761SOL     hw 3042   4.089   5.708   6.855  0.5326  0.1574  0.2826
  761SOL     hw 3043   4.144   5.845   6.890 -0.2880  0.4640  0.3855
  761SOL     vw 3044   4.141   5.759   6.903  0.1953  0.4442  0.3521
  762SOL     ow 3045   2.201   3.615   4.712 -1.1441 -0.8810 -0.1932
  762SOL     hw 3046   2.284   3.640   4.671 -1.4466 -0.5294 -0.5931
  762SOL     hw 3047   2.134   3.663   4.663 -1.3033  2.5146  2.9527
  762SOL     vw 3048   2.203   3.625   4.700 -1.2052 -0.3866  0.1693
  763SOL     ow 3049   1.604   6.785   5.255 -0.5538 -0.1281  0.2501
  763SOL     hw 3050   1.632   6.796   5.164 -1.2764  0.4181  0.0878
  763SOL     hw 3051   1.671   6.728   5.294 -0.4794 -0.7392 -0.7419
  763SOL     vw 3052   1.617   6.779   5.248 -0.6393 -0.1364  0.0978
  764SOL     ow 3053   4.710   1.374   1.539  0.6954  0.8591 -1.2574
  764SOL     hw 3054   4.710   1.426   1.619  0.3379  1.8821 -1.9086
  764SOL     hw 3055   4.773   1.417   1.482  1.6871 -0.4387 -1.1783
  764SOL     vw 3056   4.718   1.386   1.542  0.7794  0.8228 -1.3328
  765SOL     ow 3057   3.410   7.111   4.167  0.3991 -0.0788 -0.0289
  765SOL     hw 3058   3.448   7.196   4.148  0.3366 -0.3041 -1.2569
  765SOL     hw 3059   3.371   7.083   4.084 -0.2222 -0.9756  0.5434
  765SOL     vw 3060   3.410   7.118   4.154  0.3089 -0.2267 -0.1152
  766SOL     ow 3061   2.598   4.035   4.643  0.8437 -0.5876  0.3759
  766SOL     hw 3062   2.627   4.089   4.569 -0.6190 -0.3479 -0.0678
  766SOL     hw 3063   2.662   3.964   4.648  1.0474 -0.5360 -1.0477
  766SOL     vw 3064   2.610   4.033   4.634  0.6775 -0.5493  0.1295
  767SOL     ow 3065   0.824   2.428   2.412 -0.2392  0.4798  0.6067
  767SOL     hw 3066   0.731   2.450   2.405 -0.0259  1.0714 -0.9947
  767SOL     hw 3067   0.868   2.500   2.367  0.9094 -0.3482  0.3759
  767SOL     vw 3068   0.817   2.441   2.405 -0.0595  0.4483  0.3649
  768SOL     ow 3069   2.540   1.039   3.061  0.5565 -0.4333  0.4424
  768SOL     hw 3070   2.586   1.080   3.134  1.3068 -0.0236 -0.2311
  768SOL     hw 3071   2.576   1.082   2.983  1.7650 -2.6847 -0.3490
  768SOL     vw 3072   2.551   1.050   3.060  0.8148 -0.6763  0.2491
  769SOL     ow 3073   3.386   5.952   5.247  0.0356  0.0981 -0.0163
  769SOL     hw 3074   3.425   5.973   5.331  0.3481  1.1886 -0.4264
  769SOL     hw 3075   3.306   6.004   5.244 -0.9739 -1.3676  0.3948
  769SOL     vw 3076   3.380   5.961   5.258 -0.0564  0.0486 -0.0160
  770SOL     ow 3077   2.508   5.638   5.930  0.2261  0.4097  0.1914
  770SOL     hw 3078   2.563   5.644   5.852  1.3013  0.9920  0.9689
  770SOL     hw 3079   2.442   5.573   5.907  1.6270 -0.8265 -0.5494
  770SOL     vw 3080   2.506   5.630   5.917  0.5528  0.3235  0.1962
  771SOL     ow 3081   3.212   0.613   2.938 -0.5507  0.9125 -0.7294
  771SOL     hw 3082   3.124   0.588   2.908 -0.2266 -0.7112 -0.4460
  771SOL     hw 3083   3.260   0.530   2.941  0.2439  1.3848  1.5965
  771SOL     vw 3084   3.207   0.599   2.934 -0.4030  0.7606 -0.3852
  772SOL     ow 3085   0.669   0.610   6.619  0.4420 -0.4228  0.0282
  772SOL     hw 3086   0.599   0.676   6.619  1.4405  0.7412  2.5175
  772SOL     hw 3087   0.678   0.584   6.711  4.1557  0.4619  0.0596
  772SOL     vw 3088   0.661   0.615   6.631  1.0637 -0.1525  0.3610
  773SOL     ow 3089   1.750   4.425   0.683  0.0865  0.3602  0.0981
  773SOL     hw 3090   1.671   4.473   0.659  0.6875  1.1255 -0.4083
  773SOL     hw 3091   1.817   4.457   0.622  0.6130 -0.7970  0.0545
  773SOL     vw 3092   1.748   4.436   0.672  0.2353  0.3085  0.0255
  774SOL     ow 3093   4.054   1.108   5.874 -0.4046  0.8876 -0.1548
  774SOL     hw 3094   3.971   1.149   5.898 -0.2359  1.8649 -1.1805
  774SOL     hw 3095   4.030   1.017   5.852 -0.9813  0.7821  0.8533
  774SOL     vw 3096   4.040   1.101   5.874 -0.4587  1.0026 -0.1571
  775SOL     ow 3097   5.580   4.787   5.542  0.5953  0.4359  0.5495
  775SOL     hw 3098   5.664   4.766   5.500  0.4833  0.8848  0.0884
  775SOL     hw 3099   5.527   4.825   5.471  0.1035  0.4228  0.9063
  775SOL     vw 3100   5.584   4.789   5.527  0.5157  0.4938  0.5357
  776SOL     ow 3101   6.940   5.241   6.297 -0.2253  0.0013  0.0179
  776SOL     hw 3102   6.853   5.257   6.333 -1.2921  1.0767 -2.7940
  776SOL     hw 3103   6.959   5.150   6.320 -1.8900 -0.1175  1.0647
  776SOL     vw 3104   6.931   5.231   6.305 -0.5856  0.1273 -0.2151
  777SOL     ow 3105   2.746   1.926   5.888  0.0342  0.0741 -0.6615
  777SOL     hw 3106   2.763   1.952   5.797  0.9533 -0.9029 -0.7895
  777SOL     hw 3107   2.817   1.967   5.937  0.2037 -0.3548 -0.5510
  777SOL     vw 3108   2.758   1.935   5.882  0.1776 -0.1115 -0.6640
  778SOL     ow 3109   4.661   5.912   3.447 -0.2926 -0.1087  0.0274
  778SOL     hw 3110   4.705   5.829   3.466 -1.4351 -0.2985  2.2069
  778SOL     hw 3111   4.729   5.978   3.457  0.2379 -0.6506  0.0491
  778SOL     vw 3112   4.676   5.910   3.451 -0.3738 -0.2053  0.3178
  779SOL     ow 3113   6.186   4.763   0.856 -0.8283 -0.6966  0.1737
  779SOL     hw 3114   6.229   4.815   0.789 -2.3360 -1.0736 -1.1378
  779SOL     hw 3115   6.174   4.677   0.816 -2.9625 -0.5439  0.3554
  779SOL     vw 3116   6.190   4.758   0.842 -1.3089 -0.7262  0.0246
  780SOL     ow 3117   4.357   6.299   2.459  0.6089 -0.6559  0.6498
  780SOL     hw 3118   4.357   6.367   2.391 -1.1824 -1.2719 -0.0354
  780SOL     hw 3119   4.292   6.236   2.428  1.7308 -2.3348  1.6179
  780SOL     vw 3120   4.349   6.300   2.446  0.5207 -0.9587  0.6871
  781SOL     ow 3121   7.150   6.947   4.722  0.8391 -0.0961  0.4890
  781SOL     hw 3122   7.143   6.852   4.706  0.2259  0.0724 -0.2898
  781SOL     hw 3123   7.193   6.953   4.807  2.6333 -1.0574 -0.2851
  781SOL     vw 3124   7.155   6.935   4.731  0.9949 -0.2005  0.2842
  782SOL     ow 3125   2.726   1.016   4.303 -0.1153  0.0592 -0.0595
  782SOL     hw 3126   2.799   1.006   4.242 -0.5666 -0.8778 -0.4673
  782SOL     hw 3127   2.760   1.071   4.373  1.0399 -0.4935 -0.1690
  782SOL     vw 3128   2.740   1.022   4.304 -0.0225 -0.1374 -0.1273
  783SOL     ow 3129   2.378   2.729   3.661 -0.1257 -0.0745  0.7780
  783SOL     hw 3130   2.378   2.799   3.596 -0.6752  0.9669  1.8574
  783SOL     hw 3131   2.289   2.694   3.659 -0.9671  1.7378  2.7496
  783SOL     vw 3132   2.366   2.733   3.652 -0.3092  0.3020  1.1804
  784SOL     ow 3133   1.674   5.316   3.025 -0.0623  0.3987  0.1637
  784SOL     hw 3134   1.734   5.314   3.100 -1.1374  2.2250  1.1694
  784SOL     hw 3135   1.673   5.227   2.992  1.0363 -0.2994  1.8675
  784SOL     vw 3136   1.682   5.304   3.031 -0.0592  0.5476  0.5213
  785SOL     ow 3137   0.494   2.409   5.659 -0.3606  0.3398  0.1287
  785SOL     hw 3138   0.469   2.328   5.615 -0.2625 -0.6330  1.7475
  785SOL     hw 3139   0.533   2.463   5.591 -1.4905 -0.4937 -1.2279
  785SOL     vw 3140   0.496   2.405   5.644 -0.4968  0.1016  0.1633
  786SOL     ow 3141   6.406   3.414   5.919 -0.2301  0.1028 -0.3305
  786SOL     hw 3142   6.342   3.429   5.849 -0.1561 -0.3019 -0.4927
  786SOL     hw 3143   6.483   3.379   5.873 -0.5365 -1.1347  0.0436
  786SOL     vw 3144   6.408   3.411   5.904 -0.2604 -0.1138 -0.3028
  787SOL     ow 3145   1.876   2.433   0.036  0.1453 -0.1840 -0.1513
  787SOL     hw 3146   1.867   2.395  -0.051 -0.9959 -0.7759  0.2002
  787SOL     hw 3147   1.924   2.367   0.086 -0.5404 -0.5255  0.0659
  787SOL     vw 3148   1.881   2.419   0.031 -0.0958 -0.3072 -0.0763
  788SOL     ow 3149   0.170   2.267   0.324  0.0949  0.7088  0.6877
  788SOL     hw 3150   0.092   2.244   0.374 -0.3687  2.2056  0.7066
  788SOL     hw 3151   0.179   2.198   0.259  0.6522 -1.2580  2.7375
  788SOL     vw 3152   0.161   2.255   0.322  0.1073  0.6468  0.9606
  789SOL     ow 3153   4.530   3.695   4.040 -0.5402 -0.4234 -0.3294
  789SOL     hw 3154   4.448   3.648   4.052 -0.0671 -1.0025  0.7174
  789SOL     hw 3155   4.506   3.787   4.045 -1.2018 -0.5788 -0.5607
  789SOL     vw 3156   4.516   3.701   4.042 -0.5651 -0.5202 -0.2217
  790SOL     ow 3157   1.827   2.424   2.620  0.5131  0.1528  0.1048
  790SOL     hw 3158   1.750   2.397   2.670  1.2471  0.5757  1.5460
  790SOL     hw 3159   1.800   2.502   2.572 -0.4201 -0.6861 -0.7600
  790SOL     vw 3160   1.814   2.430   2.621  0.4869  0.0979  0.1808
  791SOL     ow 3161   3.725   3.537   3.592  0.4090  0.3459 -0.4200
  791SOL     hw 3162   3.782   3.587   3.533  1.8064 -0.6882 -0.0159
  791SOL     hw 3163   3.700   3.461   3.541  1.0068 -0.1731  0.0404
  791SOL     vw 3164   3.729   3.534   3.577  0.6721  0.1408 -0.3059
  792SOL     ow 3165   0.561   6.245   3.865  0.0803 -0.1662 -0.3373
  792SOL     hw 3166   0.496   6.176   3.853 -0.2212  0.3617 -1.8782
  792SOL     hw 3167   0.516   6.312   3.916  0.1979 -0.8260  0.6764
  792SOL     vw 3168   0.547   6.245   3.870  0.0560 -0.1836 -0.4069
  793SOL     ow 3169   1.743   6.879   2.591 -0.5499  0.5600  0.3805
  793SOL     hw 3170   1.677   6.825   2.633 -1.0240  0.7224 -0.1451
  793SOL     hw 3171   1.811   6.891   2.658 -1.2099  0.6740  1.0379
  793SOL     vw 3172   1.743   6.873   2.605 -0.6995  0.5965  0.3978
  794SOL     ow 3173   5.447   2.040   5.169  0.4454 -0.5656 -0.0617
  794SOL     hw 3174   5.376   1.995   5.125 -1.1049  2.4187 -0.8916
  794SOL     hw 3175   5.430   2.026   5.263  0.7293 -2.5754 -0.2682
  794SOL     vw 3176   5.436   2.033   5.176  0.2785 -0.4370 -0.1986
  795SOL     ow 3177   1.688   6.652   0.401 -0.1266  0.2447 -0.5576
  795SOL     hw 3178   1.631   6.682   0.331 -0.6011  0.7207  0.0181
  795SOL     hw 3179   1.717   6.565   0.373  1.1522  1.1405 -2.1792
  795SOL     vw 3180   1.684   6.644   0.388 -0.0205  0.4256 -0.6956
  796SOL     ow 3181   2.794   3.534   6.132  0.2101 -0.1846  0.4577
  796SOL     hw 3182   2.869   3.484   6.166  0.1049  0.4230  1.6659
  796SOL     hw 3183   2.810   3.543   6.038  1.1258 -0.9509  0.5348
  796SOL     vw 3184   2.806   3.529   6.124  0.3172 -0.2056  0.6273
  797SOL     ow 3185   2.762   5.772   0.501  0.0481 -0.2339  0.7278
  797SOL     hw 3186   2.667   5.761   0.510  0.0179 -1.6007 -0.8502
  797SOL     hw 3187   2.772   5.836   0.430  0.3124 -0.6570  0.3841
  797SOL     vw 3188   2.751   5.779   0.493  0.0792 -0.4699  0.4743
  798SOL     ow 3189   1.308   1.457   4.997 -0.8616  0.0160 -0.1510
  798SOL     hw 3190   1.384   1.399   4.987  0.2939  1.3222  0.7384
  798SOL     hw 3191   1.278   1.472   4.907  0.4522  0.1240 -0.5964
  798SOL     vw 3192   1.314   1.451   4.983 -0.5358  0.2027 -0.0925
  799SOL     ow 3193   2.711   4.128   1.120  0.0309  0.2967  0.3352
  799SOL     hw 3194   2.739   4.159   1.206 -0.6541  0.5272  0.4818
  799SOL     hw 3195   2.638   4.068   1.138  0.7756 -0.7392 -0.0004
  799SOL     vw 3196   2.705   4.124   1.133  0.0389  0.1903  0.3102
  800SOL     ow 3197   7.161   7.142   3.320  0.7204 -0.1914 -0.7605
  800SOL     hw 3198   7.171   7.053   3.356 -1.4417 -1.5988 -3.3154
  800SOL     hw 3199   7.246   7.183   3.336  1.5474 -2.3981  1.2536
  800SOL     vw 3200   7.174   7.136   3.327  0.5443 -0.6683 -0.8318
  801SOL     ow 3201   1.290   1.744   1.429  0.9423  0.4688 -0.4533
  801SOL     hw 3202   1.290   1.771   1.338 -0.8245  1.0159 -0.3179
  801SOL     hw 3203   1.198   1.732   1.451  1.2466  1.4440  1.5752
  801SOL     vw 3204   1.278   1.746   1.420  0.7493  0.6697 -0.1678
  802SOL     ow 3205   1.125   6.397   0.160  0.3090 -0.5401  0.5755
  802SOL     hw 3206   1.161   6.445   0.085 -0.6424  0.7409  0.9066
  802SOL     hw 3207   1.202   6.367   0.208  0.9305  0.0324 -0.0364
  802SOL     vw 3208   1.140   6.400   0.156  0.2655 -0.2956  0.5384
  803SOL     ow 3209   3.420   3.253   1.991 -0.3492 -0.2775 -0.3583
  803SOL     hw 3210   3.470   3.327   1.957  1.0364 -0.7977  0.4663
  803SOL     hw 3211   3.385   3.209   1.913  1.1401 -0.3347 -1.0206
  803SOL     vw 3212   3.422   3.257   1.976  0.0302 -0.3538 -0.3368
  804SOL     ow 3213   0.719   3.990   2.521  0.4378  0.4634  0.4764
  804SOL     hw 3214   0.663   4.034   2.584 -0.8068  3.3438 -2.3647
  804SOL     hw 3215   0.807   4.024   2.540  0.0908  1.2643  0.6948
  804SOL     vw 3216   0.723   4.000   2.532  0.2278  0.9491  0.1304
  805SOL     ow 3217   5.639   6.609   1.821 -0.2317  0.4894 -0.2069
  805SOL     hw 3218   5.610   6.539   1.879 -2.6992  0.0007 -1.9028
  805SOL     hw 3219   5.653   6.567   1.736 -0.6758  1.8585 -0.9867
  805SOL     vw 3220   5.637   6.595   1.818 -0.6158  0.6058 -0.5335
  806SOL     ow 3221   4.817   4.350   5.414 -0.2131 -0.1516  0.2605
  806SOL     hw 3222   4.783   4.366   5.502  1.7868  2.2932  0.6921
  806SOL     hw 3223   4.903   4.309   5.429  0.7132  1.4390 -0.4368
  806SOL     vw 3224   4.824   4.347   5.428  0.1731  0.3805  0.2255
  807SOL     ow 3225   5.999   3.910   3.504  0.3797  0.0996  0.3710
  807SOL     hw 3226   5.980   3.999   3.477  2.9226  0.2612 -1.1519
  807SOL     hw 3227   5.988   3.857   3.425 -0.5691 -0.8822  1.1216
  807SOL     vw 3228   5.995   3.915   3.490  0.5901 -0.0086  0.2691
  808SOL     ow 3229   3.693   0.505   5.188  0.0721 -0.1390  0.5300
  808SOL     hw 3230   3.603   0.471   5.193 -0.0193  0.0283  0.0797
  808SOL     hw 3231   3.683   0.592   5.149  0.3041  0.3978  1.6216
  808SOL     vw 3232   3.680   0.512   5.183  0.0906 -0.0461  0.6146
  809SOL     ow 3233   4.429   6.707   5.478 -0.3201 -0.2566  0.3723
  809SOL     hw 3234   4.523   6.721   5.472 -0.2259 -1.2745 -0.9563
  809SOL     hw 3235   4.398   6.773   5.540  1.4547 -0.8058  1.9033
  809SOL     vw 3236   4.437   6.718   5.485 -0.0734 -0.4635  0.3989
  810SOL     ow 3237   1.719   3.980   5.970 -0.1742  0.3640  0.1557
  810SOL     hw 3238   1.754   3.900   5.929 -2.2580  0.1659 -1.3968
  810SOL     hw 3239   1.751   4.051   5.915 -2.5668  0.1306 -1.7555
  810SOL     vw 3240   1.728   3.979   5.957 -0.7648  0.3072 -0.3014
  811SOL     ow 3241   2.680   3.732   3.319 -0.4467 -0.3912  0.2168
  811SOL     hw 3242   2.604   3.738   3.262  1.1477  0.3073 -1.9385
  811SOL     hw 3243   2.685   3.817   3.363 -0.7002 -0.3153  0.0978
  811SOL     vw 3244   2.671   3.744   3.317 -0.2699 -0.2890 -0.0832
  812SOL     ow 3245   1.818   1.364   3.497 -1.2274 -0.2219  0.1462
  812SOL     hw 3246   1.841   1.274   3.523  1.0082  0.3890  0.4200
  812SOL     hw 3247   1.726   1.358   3.472 -1.5148 -2.3182  1.4491
  812SOL     vw 3248   1.809   1.351   3.497 -0.9703 -0.4179  0.3542
  813SOL     ow 3249   6.394   7.085   6.052  0.0346 -0.4507  0.0456
  813SOL     hw 3250   6.482   7.113   6.025 -1.1408  1.4625 -2.0317
  813SOL     hw 3251   6.395   6.990   6.040  1.5967 -0.3859 -0.5933
  813SOL     vw 3252   6.406   7.076   6.047  0.0856 -0.1895 -0.3130
  814SOL     ow 3253   1.663   2.545   3.708 -0.1471  0.2276 -0.2057
  814SOL     hw 3254   1.748   2.520   3.672 -0.3451  0.6409 -0.9727
  814SOL     hw 3255   1.601   2.532   3.636 -0.6632  0.3797  0.1997
  814SOL     vw 3256   1.666   2.540   3.694 -0.2413  0.3022 -0.2534
  815SOL     ow 3257   0.747   3.744   0.341 -0.6377  0.7221  0.3354
  815SOL     hw 3258   0.781   3.724   0.253 -2.6785 -0.5783 -0.2438
  815SOL     hw 3259   0.655   3.717   0.337 -0.2044 -1.9313  3.6361
  815SOL     vw 3260   0.739   3.738   0.329 -0.8498  0.2005  0.6945
  816SOL     ow 3261   4.220   5.600   3.140 -0.3534  0.1510  0.4816
  816SOL     hw 3262   4.302   5.642   3.163 -0.1128 -1.5418  3.0476
  816SOL     hw 3263   4.239   5.550   3.060  0.9501  0.2155  0.7435
  816SOL     vw 3264   4.233   5.599   3.132 -0.1497 -0.0639  0.8547
  817SOL     ow 3265   4.252   7.091   2.062  0.0114  0.0581 -0.6719
  817SOL     hw 3266   4.341   7.101   2.028  0.7145  0.0168  1.0523
  817SOL     hw 3267   4.258   7.020   2.126 -1.0920  0.5577  0.0270
  817SOL     vw 3268   4.264   7.083   2.066 -0.0415  0.1185 -0.3521
  818SOL     ow 3269   6.059   1.575   1.183  0.2326 -0.1976 -0.5846
  818SOL     hw 3270   6.081   1.643   1.245  2.5513 -1.0611 -0.3739
  818SOL     hw 3271   6.003   1.514   1.232  1.7431 -0.6852  0.6028
  818SOL     vw 3272   6.054   1.576   1.197  0.7381 -0.3759 -0.4001
  819SOL     ow 3273   4.858   6.929   0.785 -0.5068  0.2214  0.6910
  819SOL     hw 3274   4.901   6.974   0.859 -0.9431 -2.5157  2.7933
  819SOL     hw 3275   4.775   6.975   0.774 -0.0886  1.1804  1.3677
  819SOL     vw 3276   4.853   6.941   0.794 -0.5090 -0.0131  1.0577
  820SOL     ow 3277   1.764   2.825   4.711 -0.0680 -0.5651 -0.6314
  820SOL     hw 3278   1.691   2.857   4.765 -0.9779 -1.2379 -1.4221
  820SOL     hw 3279   1.789   2.901   4.658  1.1277  0.2319  0.9866
  820SOL     vw 3280   1.757   2.840   4.711 -0.0303 -0.5487 -0.5224
  821SOL     ow 3281   5.374   6.300   1.520  0.0704  1.4397  0.4721
  821SOL     hw 3282   5.445   6.236   1.523  0.0379  1.4321  1.8553
  821SOL     hw 3283   5.327   6.279   1.440 -1.9927 -2.5851  2.4032
  821SOL     vw 3284   5.377   6.289   1.510 -0.2062  0.9077  0.9093
  822SOL     ow 3285   3.488   1.410   3.140  0.5331 -0.3096  0.1997
  822SOL     hw 3286   3.441   1.387   3.221  0.0651 -0.1837 -0.0321
  822SOL     hw 3287   3.547   1.336   3.125  0.4913 -0.4197  0.5557
  822SOL     vw 3288   3.490   1.397   3.149  0.4659 -0.3075  0.2161
  823SOL     ow 3289   1.570   3.370   2.907  0.4624 -0.5187  0.7759
  823SOL     hw 3290   1.607   3.284   2.929 -0.9138 -1.4231 -0.1932
  823SOL     hw 3291   1.536   3.403   2.990  0.7882 -1.0381  1.1260
  823SOL     vw 3292   1.570   3.363   2.921  0.3237 -0.7066  0.6942
  824SOL     ow 3293   5.199   3.380   1.954  1.0148 -0.5492 -0.2997
  824SOL     hw 3294   5.181   3.451   1.893 -0.3725 -0.9079 -0.3461
  824SOL     hw 3295   5.167   3.301   1.910  1.5038 -1.0516  0.2183
  824SOL     vw 3296   5.193   3.379   1.940  0.8967 -0.6628 -0.2375
  825SOL     ow 3297   0.930   6.608   6.259  0.3787  0.2558 -0.0749
  825SOL     hw 3298   0.958   6.569   6.342 -2.3930 -0.9909  0.3674
  825SOL     hw 3299   0.917   6.701   6.280  2.0062  0.4470  0.2156
  825SOL     vw 3300   0.932   6.615   6.273  0.2277  0.1166  0.0217
  826SOL     ow 3301   1.560   1.887   6.922 -0.2710 -0.0437 -0.6362
  826SOL     hw 3302   1.643   1.861   6.962  0.0304  1.0943 -0.4987
  826SOL     hw 3303   1.508   1.807   6.921  0.5827 -0.6197 -0.1226
  826SOL     vw 3304   1.564   1.873   6.927 -0.1186  0.0305 -0.5500
  827SOL     ow 3305   2.602   1.003   6.035 -0.1849 -0.0779 -0.0331
  827SOL     hw 3306   2.542   0.942   5.994 -2.8154  1.5338  1.1435
  827SOL     hw 3307   2.664   1.026   5.966 -1.6019 -0.9962 -1.6882
  827SOL     vw 3308   2.602   0.998   6.021 -0.7191  0.0135 -0.0963
  828SOL     ow 3309   1.923   5.764   6.978  0.3680  0.4821 -0.0164
  828SOL     hw 3310   1.843   5.768   7.030  0.6607  0.1903  0.4701
  828SOL     hw 3311   1.906   5.697   6.912  0.0589  0.7255 -0.1844
  828SOL     vw 3312   1.910   5.756   6.977  0.3658  0.4756  0.0257
  829SOL     ow 3313   2.436   2.627   3.924 -0.2998 -0.1787  0.9374
  829SOL     hw 3314   2.438   2.628   3.828  0.5829 -0.2784  0.9472
  829SOL     hw 3315   2.388   2.706   3.948 -0.3356 -0.0379  0.4206
  829SOL     vw 3316   2.430   2.637   3.915 -0.1881 -0.1732  0.8705
  830SOL     ow 3317   4.454   5.471   4.776 -0.0683  0.2895  0.0397
  830SOL     hw 3318   4.412   5.474   4.862  2.1866  2.6266  1.1871
  830SOL     hw 3319   4.416   5.544   4.727 -0.0540  0.0689 -0.3094
  830SOL     vw 3320   4.443   5.481   4.781  0.2310  0.5686  0.1450
  831SOL     ow 3321   0.656   4.413   2.639 -0.7225 -0.0709  0.0801
  831SOL     hw 3322   0.621   4.326   2.659 -0.7784  0.2651  1.5821
  831SOL     hw 3323   0.629   4.430   2.549 -2.0353 -0.9733  0.2741
  831SOL     vw 3324   0.648   4.404   2.630 -0.9031 -0.1454  0.3039
  832SOL     ow 3325   4.957   6.351   7.024 -0.2525  0.1021 -0.5972
  832SOL     hw 3326   4.903   6.405   6.967  0.4634  2.0217  0.4758
  832SOL     hw 3327   5.022   6.411   7.061  0.0596 -1.3148  1.3175
  832SOL     vw 3328   4.959   6.366   7.021 -0.1168  0.1686 -0.2031
  833SOL     ow 3329   0.009   1.323   6.300  0.2359 -0.6089 -0.0247
  833SOL     hw 3330   0.049   1.366   6.224 -0.4034 -1.1560 -0.6866
  833SOL     hw 3331   0.062   1.351   6.374 -1.0090  2.6017 -0.1608
  833SOL     vw 3332   0.021   1.332   6.300 -0.0127 -0.2574 -0.1297
  834SOL     ow 3333   5.217   0.277   3.591  0.4260  0.2305  0.5032
  834SOL     hw 3334   5.301   0.236   3.570  0.9081  1.6248 -0.4642
  834SOL     hw 3335   5.173   0.214   3.648  1.8860 -0.7831  0.5717
  834SOL     vw 3336   5.222   0.263   3.596  0.6824  0.2807  0.3846
  835SOL     ow 3337   5.804   5.517   2.588 -0.0231  0.0232 -0.2129
  835SOL     hw 3338   5.804   5.422   2.576 -1.4629 -0.3649  2.0977
  835SOL     hw 3339   5.789   5.553   2.500 -2.6121 -2.0392 -0.7566
  835SOL     vw 3340   5.802   5.510   2.575 -0.5548 -0.3004  0.0203
  836SOL     ow 3341   5.945   4.259   6.019 -0.4043 -0.3033  0.0453
  836SOL     hw 3342   5.963   4.349   6.045  1.5149 -0.5016 -0.4539
  836SOL     hw 3343   5.961   4.257   5.925  1.2477 -1.5219  0.3154
  836SOL     vw 3344   5.949   4.271   6.010  0.0668 -0.4904  0.0153
  837SOL     ow 3345   0.017   6.221   3.836  0.2518 -0.5963  0.2390
  837SOL     hw 3346   0.036   6.290   3.900 -0.9546  0.7700 -0.8005
  837SOL     hw 3347   0.085   6.231   3.769 -0.0108 -0.3016  0.0129
  837SOL     vw 3348   0.028   6.232   3.835  0.0580 -0.3772  0.0720
  838SOL     ow 3349   3.589   3.114   3.169 -0.2276 -0.7001  0.4231
  838SOL     hw 3350   3.619   3.202   3.144 -1.7262 -0.0962  0.5961
  838SOL     hw 3351   3.601   3.112   3.264  0.7630 -1.0854  0.2989
  838SOL     vw 3352   3.595   3.126   3.178 -0.2948 -0.6711  0.4295
  839SOL     ow 3353   6.781   6.090   7.164  0.0444 -0.1481 -0.2595
  839SOL     hw 3354   6.816   6.174   7.134 -0.5263  0.0247 -0.4617
  839SOL     hw 3355   6.818   6.026   7.103  1.8081 -0.2790  0.8740
  839SOL     vw 3356   6.791   6.093   7.152  0.2019 -0.1426 -0.1366
  840SOL     ow 3357   1.906   4.224   0.827 -0.3038 -0.0926 -0.0864
  840SOL     hw 3358   1.951   4.216   0.911 -0.9690  3.2804  0.7454
  840SOL     hw 3359   1.964   4.182   0.764  1.8068  0.1393  1.5895
  840SOL     vw 3360   1.919   4.217   0.830 -0.1131  0.3829  0.2445
  841SOL     ow 3361   1.475   6.533   5.466 -0.3135 -0.5183  0.4611
  841SOL     hw 3362   1.505   6.539   5.557  0.6644  0.0554  0.1225
  841SOL     hw 3363   1.551   6.562   5.415 -1.0625 -0.2344 -0.5047
  841SOL     vw 3364   1.489   6.538   5.472 -0.2833 -0.4053  0.2892
  842SOL     ow 3365   4.132   5.622   1.747 -0.0626  0.1401  0.0266
  842SOL     hw 3366   4.154   5.705   1.790 -0.7174  0.4787 -0.2809
  842SOL     hw 3367   4.085   5.648   1.667  3.6098 -0.3183 -2.5291
  842SOL     vw 3368   4.129   5.637   1.742  0.3357  0.1245 -0.3512
  843SOL     ow 3369   1.606   0.530   1.084 -0.3998  0.4430 -0.3777
  843SOL     hw 3370   1.633   0.587   1.157 -2.0027  1.7225 -0.7101
  843SOL     hw 3371   1.551   0.463   1.125 -1.2290  1.1104 -0.3592
  843SOL     vw 3372   1.602   0.529   1.099 -0.7206  0.6998 -0.4191
  844SOL     ow 3373   6.306   2.512   1.146  0.3528  0.2487 -1.5120
  844SOL     hw 3374   6.278   2.534   1.234 -0.2870 -1.5876 -1.2063
  844SOL     hw 3375   6.250   2.564   1.089  1.4727  2.2542 -0.8989
  844SOL     vw 3376   6.295   2.522   1.150  0.4163  0.2711 -1.3907
  845SOL     ow 3377   1.690   2.035   6.536 -0.5509 -0.5499  0.1650
  845SOL     hw 3378   1.682   1.994   6.450 -0.3300  1.8208 -1.0589
  845SOL     hw 3379   1.756   1.983   6.581  0.6427 -0.7891 -1.7696
  845SOL     vw 3380   1.697   2.023   6.530 -0.3643 -0.2687 -0.2518
  846SOL     ow 3381   6.828   0.911   3.270 -0.2307  0.1664  0.1627
  846SOL     hw 3382   6.781   0.909   3.354 -0.9582 -1.4976 -0.2292
  846SOL     hw 3383   6.891   0.982   3.279  0.9804 -1.0856  2.8473
  846SOL     vw 3384   6.830   0.920   3.282 -0.1664 -0.2183  0.4652
  847SOL     ow 3385   1.590   5.715   3.285  0.3268  0.6829  0.0142
  847SOL     hw 3386   1.669   5.752   3.325  1.6244 -1.6771 -0.1897
  847SOL     hw 3387   1.558   5.783   3.227  2.3197  1.6630 -0.0141
  847SOL     vw 3388   1.596   5.729   3.283  0.7609  0.5009 -0.0163
  848SOL     ow 3389   2.428   1.216   1.044  0.0441 -0.1977 -0.0852
  848SOL     hw 3390   2.470   1.155   0.983  0.3752 -1.1499  1.0528
  848SOL     hw 3391   2.415   1.296   0.993  3.8848  0.4515 -0.3714
  848SOL     vw 3392   2.432   1.218   1.029  0.5944 -0.2377  0.0272
  849SOL     ow 3393   3.576   5.654   3.119 -0.3999 -0.1501 -0.1810
  849SOL     hw 3394   3.591   5.673   3.026 -0.6727  0.8850 -0.0202
  849SOL     hw 3395   3.642   5.707   3.165 -2.4947  2.1554  0.3854
  849SOL     vw 3396   3.587   5.664   3.113 -0.7124  0.2909 -0.0850
  850SOL     ow 3397   7.162   5.003   3.029  0.0947 -0.1346  0.9995
  850SOL     hw 3398   7.203   4.958   3.102 -1.8506 -1.6345  1.2558
  850SOL     hw 3399   7.149   5.092   3.060  2.7960  0.3577  0.9854
  850SOL     vw 3400   7.166   5.009   3.042  0.1944 -0.2675  1.0316
  851SOL     ow 3401   5.270   0.908   6.147  0.3572  0.2252 -0.7396
  851SOL     hw 3402   5.231   0.992   6.172 -1.4831 -0.4995 -1.0739
  851SOL     hw 3403   5.317   0.879   6.225 -0.8096  0.5397  0.1028
  851SOL     vw 3404   5.271   0.916   6.160 -0.0393  0.1710 -0.6726
  852SOL     ow 3405   2.483   0.212   2.202  0.3706  0.2593  0.3668
  852SOL     hw 3406   2.410   0.208   2.139  0.2610  1.2624  0.4127
  852SOL     hw 3407   2.461   0.145   2.267  0.0155 -0.1607 -0.1686
  852SOL     vw 3408   2.470   0.202   2.202  0.3092  0.3362  0.3023
  853SOL     ow 3409   4.280   5.546   2.653  0.0167  0.6461  1.1219
  853SOL     hw 3410   4.292   5.640   2.637  0.1072  0.5487  0.5703
  853SOL     hw 3411   4.322   5.504   2.577 -1.1004  0.1963  0.7378
  853SOL     vw 3412   4.287   5.553   2.641 -0.1190  0.5736  0.9984
  854SOL     ow 3413   0.799   6.358   3.954  0.4591 -0.6058 -0.5606
  854SOL     hw 3414   0.736   6.287   3.941  0.3239 -0.7590  0.7713
  854SOL     hw 3415   0.811   6.362   4.049  0.6440  1.0010 -0.6288
  854SOL     vw 3416   0.792   6.349   3.965  0.4657 -0.4139 -0.3939
  855SOL     ow 3417   3.800   3.830   3.531  1.0321 -0.4771  0.7837
  855SOL     hw 3418   3.780   3.905   3.475 -0.4856  0.5900  2.6394
  855SOL     hw 3419   3.863   3.863   3.595  0.9365 -1.0217  1.1697
  855SOL     vw 3420   3.806   3.844   3.532  0.8192 -0.4081  1.0794
  856SOL     ow 3421   1.279   3.087   3.225  0.1951 -0.1964  0.2650
  856SOL     hw 3422   1.362   3.049   3.253  1.0783 -0.6715 -2.6467
  856SOL     hw 3423   1.304   3.156   3.163 -1.5607 -0.0142 -0.2972
  856SOL     vw 3424   1.293   3.091   3.220  0.0799 -0.2350 -0.1932
  857SOL     ow 3425   0.052   1.631   1.492  0.1200  0.4437  0.2472
  857SOL     hw 3426  -0.002   1.642   1.414 -0.2734 -0.7490  0.3367
  857SOL     hw 3427   0.136   1.598   1.459  0.2215  0.6732  0.2689
  857SOL     vw 3428   0.056   1.628   1.478  0.0815  0.3166  0.2620
  858SOL     ow 3429   6.661   1.720   5.897  0.2546  0.2382 -0.0021
  858SOL     hw 3430   6.752   1.696   5.880 -0.2704 -1.3429 -0.7607
  858SOL     hw 3431   6.657   1.734   5.992  1.3689  0.7481 -0.0218
  858SOL     vw 3432   6.672   1.719   5.908  0.3324  0.0969 -0.1051
  859SOL     ow 3433   3.274   6.878   2.567  0.0278  0.1465  0.6866
  859SOL     hw 3434   3.216   6.941   2.609  0.0906  0.5373  0.1879
  859SOL     hw 3435   3.306   6.922   2.489 -0.3196 -0.6868  0.0596
  859SOL     vw 3436   3.270   6.892   2.562 -0.0095  0.0882  0.5381
  860SOL     ow 3437   2.769   6.109   6.228  0.2364 -0.5271  0.9766
  860SOL     hw 3438   2.738   6.197   6.251  2.9142  0.3873  1.3753
  860SOL     hw 3439   2.759   6.058   6.308  1.1534  0.1847  1.5670
  860SOL     vw 3440   2.764   6.114   6.241  0.7106 -0.3126  1.1070
  861SOL     ow 3441   0.514   2.435   3.096 -0.6522  0.1104  0.3206
  861SOL     hw 3442   0.521   2.483   3.178  3.1521 -2.7916  2.0031
  861SOL     hw 3443   0.566   2.486   3.033 -0.9682  0.7776  0.5981
  861SOL     vw 3444   0.522   2.448   3.098 -0.1920 -0.1845  0.5792
  862SOL     ow 3445   1.004   2.073   3.524 -0.8278 -0.0466 -0.0873
  862SOL     hw 3446   1.081   2.025   3.556 -0.5654  0.2776 -0.2193
  862SOL     hw 3447   1.034   2.164   3.521 -1.4029  0.1638  0.4275
  862SOL     vw 3448   1.018   2.079   3.528 -0.8690  0.0240 -0.0367
  863SOL     ow 3449   4.250   3.244   6.722  0.1751  0.1200 -0.5272
  863SOL     hw 3450   4.274   3.182   6.791  1.5521  0.8655 -0.2924
  863SOL     hw 3451   4.170   3.208   6.684  1.0120 -1.8917 -0.5154
  863SOL     vw 3452   4.243   3.231   6.726  0.4671 -0.0470 -0.4945
  864SOL     ow 3453   1.771   3.894   0.240  0.3712 -0.2634 -0.7161
  864SOL     hw 3454   1.835   3.873   0.307 -1.2600  2.9509  2.1297
  864SOL     hw 3455   1.690   3.854   0.271 -0.1363  0.1179 -1.5099
  864SOL     vw 3456   1.769   3.886   0.253  0.0890  0.2111 -0.4454
  865SOL     ow 3457   0.141   6.270   2.135 -0.0481  0.1790  0.0587
  865SOL     hw 3458   0.070   6.267   2.199 -1.5196  1.3144 -1.4289
  865SOL     hw 3459   0.203   6.334   2.171 -1.5180  1.8415 -0.2292
  865SOL     vw 3460   0.140   6.278   2.148 -0.4362  0.5481 -0.1755
  866SOL     ow 3461   4.265   6.934   3.892 -0.0824 -0.0769 -0.1644
  866SOL     hw 3462   4.239   6.880   3.966  0.6464 -1.0095 -0.5617
  866SOL     hw 3463   4.251   6.878   3.816  2.2246 -0.3284 -0.4671
  866SOL     vw 3464   4.259   6.920   3.891  0.3181 -0.2329 -0.2568
  867SOL     ow 3465   3.865   0.733   4.183 -0.1248 -0.4187  0.8507
  867SOL     hw 3466   3.878   0.765   4.273 -0.8905  1.6143  0.2983
  867SOL     hw 3467   3.852   0.813   4.132  0.2525 -1.5480 -1.0799
  867SOL     vw 3468   3.865   0.748   4.188 -0.1760 -0.2995  0.5229
  868SOL     ow 3469   0.183   5.711   4.718 -0.1464 -0.3564  0.0098
  868SOL     hw 3470   0.111   5.766   4.688 -0.0899 -0.3173 -0.0547
  868SOL     hw 3471   0.196   5.735   4.810  0.3297  0.2284 -0.2029
  868SOL     vw 3472   0.175   5.721   4.726 -0.0761 -0.2744 -0.0267
  869SOL     ow 3473   3.319   6.966   6.906 -0.3492 -0.2604  0.4582
  869SOL     hw 3474   3.392   6.962   6.966 -1.2567 -0.8575  1.5664
  869SOL     hw 3475   3.244   6.932   6.956 -1.3475  0.1630 -0.6808
  869SOL     vw 3476   3.319   6.961   6.920 -0.6006 -0.2832  0.4539
  870SOL     ow 3477   3.467   1.452   6.822 -0.1331  0.1638 -0.1291
  870SOL     hw 3478   3.445   1.420   6.909 -1.5573 -1.3242 -0.9781
  870SOL     hw 3479   3.485   1.373   6.771 -1.5904  0.8116 -1.7472
  870SOL     vw 3480   3.467   1.437   6.827 -0.5134  0.0529 -0.4547
  871SOL     ow 3481   6.213   1.358   3.604 -0.2792  0.1416  0.4070
  871SOL     hw 3482   6.260   1.434   3.639  1.0350 -0.8475  0.8725
  871SOL     hw 3483   6.282   1.295   3.581 -1.2529 -0.3391 -1.3992
  871SOL     vw 3484   6.228   1.360   3.606 -0.2344 -0.0523  0.2301
  872SOL     ow 3485   3.898   2.504   2.639  0.3055  0.4069  0.4631
  872SOL     hw 3486   3.935   2.522   2.553 -0.4718  1.2723  0.2915
  872SOL     hw 3487   3.813   2.549   2.638 -0.9921 -1.8597  0.6633
  872SOL     vw 3488   3.891   2.512   2.627  0.0318  0.2221  0.4668
  873SOL     ow 3489   4.416   1.313   1.358  0.9715  0.0151  0.2924
  873SOL     hw 3490   4.499   1.312   1.311  0.6037  1.7055 -0.4472
  873SOL     hw 3491   4.439   1.328   1.449  1.4517  1.5069 -0.0530
  873SOL     vw 3492   4.430   1.315   1.363  0.9863  0.4350  0.1493
  874SOL     ow 3493   4.955   5.901   3.487 -0.1087  0.0750  0.1615
  874SOL     hw 3494   5.030   5.958   3.506  0.1659 -0.4630  0.7237
  874SOL     hw 3495   4.989   5.836   3.426 -0.2611  0.1606 -0.0127
  874SOL     vw 3496   4.970   5.900   3.482 -0.0927  0.0150  0.2128
  875SOL     ow 3497   6.898   1.187   0.114  0.6577  0.4492  0.0463
  875SOL     hw 3498   6.896   1.093   0.132  0.8232  0.8197  2.2034
  875SOL     hw 3499   6.949   1.194   0.033  0.8602 -1.2798 -0.0303
  875SOL     vw 3500   6.904   1.175   0.105  0.7062  0.2700  0.3208
  876SOL     ow 3501   6.057   5.331   2.817  0.4201  0.0420  0.5721
  876SOL     hw 3502   6.040   5.261   2.880  1.3333 -1.2512 -0.5609
  876SOL     hw 3503   5.978   5.385   2.819 -0.1380 -0.7863  1.7759
  876SOL     vw 3504   6.044   5.329   2.826  0.4668 -0.2377  0.5814
  877SOL     ow 3505   0.207   4.160   3.518  0.2250  0.0418  0.6212
  877SOL     hw 3506   0.257   4.102   3.576  1.3496 -0.6453 -0.9633
  877SOL     hw 3507   0.248   4.245   3.528  0.5930 -0.1344  0.6216
  877SOL     vw 3508   0.219   4.163   3.527  0.4219 -0.0722  0.4122
  878SOL     ow 3509   6.133   4.907   1.077 -0.5751 -0.2752  0.3552
  878SOL     hw 3510   6.141   4.854   0.997 -2.1011 -0.8399  0.5311
  878SOL     hw 3511   6.190   4.864   1.140 -0.4827 -0.6962 -0.0059
  878SOL     vw 3512   6.141   4.895   1.075 -0.7641 -0.4053  0.3307
  879SOL     ow 3513   3.727   1.602   1.644 -0.5158 -0.3030  0.3731
  879SOL     hw 3514   3.781   1.607   1.722 -0.9502  0.2243  0.6474
  879SOL     hw 3515   3.649   1.654   1.665 -0.0988  0.8640 -0.8484
  879SOL     vw 3516   3.724   1.610   1.657 -0.5182 -0.0794  0.2481
  880SOL     ow 3517   1.775   5.975   6.093 -0.0429 -0.5645  0.0019
  880SOL     hw 3518   1.754   5.961   6.185 -2.1904 -2.6773 -0.7126
  880SOL     hw 3519   1.847   6.039   6.094 -1.4035  1.1178  3.0248
  880SOL     vw 3520   1.782   5.982   6.105 -0.5058 -0.6213  0.3066
  881SOL     ow 3521   6.592   3.913   1.926  0.5891  0.2754 -0.0936
  881SOL     hw 3522   6.550   3.999   1.928  1.3049  0.6681 -0.9039
  881SOL     hw 3523   6.553   3.869   1.850 -2.2045 -1.4603  2.1639
  881SOL     vw 3524   6.581   3.919   1.916  0.3150  0.0982  0.0973
  882SOL     ow 3525   4.010   1.887   6.488 -0.0424 -1.0935  0.0416
  882SOL     hw 3526   3.948   1.958   6.471  1.4108  0.5104  1.0328
  882SOL     hw 3527   4.035   1.856   6.400 -1.5066 -1.1344 -0.3797
  882SOL     vw 3528   4.005   1.893   6.474 -0.0439 -0.8873  0.1166
  883SOL     ow 3529   5.527   2.114   1.654  0.2770 -0.1308 -0.2830
  883SOL     hw 3530   5.455   2.089   1.597  0.7897 -1.5625 -0.3459
  883SOL     hw 3531   5.557   2.031   1.692  1.2147  0.5639  0.5336
  883SOL     vw 3532   5.522   2.100   1.651  0.4685 -0.2279 -0.1835
  884SOL     ow 3533   7.168   4.132   1.425  0.1744  0.0663 -0.0806
  884SOL     hw 3534   7.113   4.149   1.348 -0.2681 -0.2257  0.1671
  884SOL     hw 3535   7.228   4.207   1.429  0.8443 -0.3731 -1.2661
  884SOL     vw 3536   7.169   4.144   1.415  0.2044 -0.0303 -0.2044
  885SOL     ow 3537   3.717   0.502   4.077  0.0847  0.0628 -0.1005
  885SOL     hw 3538   3.669   0.549   4.009 -0.0843 -0.5857 -0.4406
  885SOL     hw 3539   3.653   0.490   4.148  0.3936  1.1545  0.3945
  885SOL     vw 3540   3.702   0.507   4.078  0.1032  0.1213 -0.0799
  886SOL     ow 3541   0.627   0.396   0.686  0.8416  0.1171  0.7327
  886SOL     hw 3542   0.546   0.418   0.639  0.8539  1.5030  1.3151
  886SOL     hw 3543   0.675   0.339   0.625 -0.3739 -0.3933  0.2114
  886SOL     vw 3544   0.623   0.391   0.671  0.6828  0.2326  0.7407
  887SOL     ow 3545   3.468   1.656   3.377 -0.2052 -0.3830  0.6406
  887SOL     hw 3546   3.518   1.630   3.454 -2.8572  0.4093  2.7787
  887SOL     hw 3547   3.420   1.734   3.405 -0.2773  0.7791 -2.2930
  887SOL     vw 3548   3.469   1.663   3.391 -0.5647 -0.1252  0.5355
  888SOL     ow 3549   1.962   3.473   1.554 -0.5977  0.2608 -0.5924
  888SOL     hw 3550   2.035   3.492   1.613 -1.4091  0.8384  0.2645
  888SOL     hw 3551   1.911   3.553   1.554 -1.5269 -0.3213 -0.7364
  888SOL     vw 3552   1.965   3.486   1.562 -0.8274  0.2602 -0.4984
  889SOL     ow 3553   1.407   0.980   5.230  0.5517  0.2242  0.1053
  889SOL     hw 3554   1.386   0.951   5.319  0.3453 -1.0754 -0.3378
  889SOL     hw 3555   1.419   0.899   5.181 -0.9385  0.8706 -1.4373
  889SOL     vw 3556   1.406   0.965   5.235  0.3278  0.1380 -0.1566
  890SOL     ow 3557   1.411   7.081   2.178  0.2923 -0.1356 -0.8240
  890SOL     hw 3558   1.331   7.094   2.127 -1.5740 -0.6390  1.8069
  890SOL     hw 3559   1.437   6.991   2.158 -0.1086 -0.1550 -1.2798
  890SOL     vw 3560   1.404   7.071   2.168 -0.0068 -0.2041 -0.5372
  891SOL     ow 3561   3.739   2.629   1.979  0.0603  0.1504 -0.8237
  891SOL     hw 3562   3.820   2.634   2.031 -0.3712  1.5657 -0.2354
  891SOL     hw 3563   3.769   2.610   1.891  1.0680  0.7138 -0.6232
  891SOL     vw 3564   3.754   2.627   1.975  0.1364  0.4115 -0.7196
  892SOL     ow 3565   5.786   2.054   4.584  0.2078 -0.4038 -0.2578
  892SOL     hw 3566   5.767   2.146   4.604  2.9384 -0.2275  2.0304
  892SOL     hw 3567   5.713   2.026   4.529 -1.9597  2.4382  0.9470
  892SOL     vw 3568   5.774   2.062   4.579  0.2820 -0.0056  0.2031
  893SOL     ow 3569   0.349   4.280   1.826 -0.3084 -0.6579  0.1992
  893SOL     hw 3570   0.438   4.289   1.860 -0.5716 -1.9389  1.3504
  893SOL     hw 3571   0.323   4.191   1.850 -1.6438 -0.5646 -0.7605
  893SOL     vw 3572   0.357   4.270   1.834 -0.5193 -0.8144  0.2245
  894SOL     ow 3573   0.331   2.660   4.531 -0.7997 -0.1424 -0.7128
  894SOL     hw 3574   0.258   2.605   4.560 -0.2725 -0.0990  0.7638
  894SOL     hw 3575   0.361   2.703   4.610 -0.9168  1.9796 -1.7453
  894SOL     vw 3576   0.325   2.658   4.545 -0.7455  0.1434 -0.6542
  895SOL     ow 3577   2.837   1.608   5.947 -0.1610 -0.0925 -0.3530
  895SOL     hw 3578   2.908   1.640   6.002  0.3095 -1.6723  0.0077
  895SOL     hw 3579   2.806   1.529   5.991 -0.2588 -0.9911 -1.9450
  895SOL     vw 3580   2.842   1.602   5.960 -0.1119 -0.4195 -0.5152
  896SOL     ow 3581   0.525   6.623   5.871 -0.2373 -0.0452  0.1096
  896SOL     hw 3582   0.557   6.709   5.898 -0.7310  0.5513 -1.1291
  896SOL     hw 3583   0.503   6.634   5.778  0.5614 -1.7519 -0.3251
  896SOL     vw 3584   0.526   6.636   5.862 -0.1971 -0.1917 -0.1109
  897SOL     ow 3585   4.211   3.576   4.275  0.2014  0.2089  1.3584
  897SOL     hw 3586   4.177   3.551   4.361 -0.0546 -0.4944  1.0642
  897SOL     hw 3587   4.275   3.508   4.254 -0.2468 -0.0131  0.6914
  897SOL     vw 3588   4.215   3.564   4.283  0.1085  0.0868  1.2317
  898SOL     ow 3589   4.349   2.944   1.483 -0.3059  0.1721  0.8145
  898SOL     hw 3590   4.410   2.941   1.557  0.9472  0.6287 -0.1511
  898SOL     hw 3591   4.399   2.906   1.410 -1.1326  0.6748 -0.0390
  898SOL     vw 3592   4.364   2.938   1.483 -0.2499  0.2989  0.5745
  899SOL     ow 3593   2.063   2.475   1.047 -0.1357  0.1366  0.5171
  899SOL     hw 3594   2.093   2.484   1.138  1.8336 -2.1605  0.1952
  899SOL     hw 3595   2.143   2.478   0.995 -1.0780 -0.2629 -0.9928
  899SOL     vw 3596   2.078   2.477   1.052 -0.0002 -0.2191  0.2754
  900SOL     ow 3597   5.433   6.211   6.790  0.3780 -0.2652  0.0548
  900SOL     hw 3598   5.483   6.134   6.761 -0.0076 -0.2816 -0.5986
  900SOL     hw 3599   5.489   6.253   6.855  0.8668 -0.7566 -0.0400
  900SOL     vw 3600   5.447   6.206   6.795  0.3915 -0.3324 -0.0439
  901SOL     ow 3601   6.841   3.138   4.264  0.5971  0.3024  0.4957
  901SOL     hw 3602   6.852   3.076   4.336 -0.4458  0.5363  0.8743
  901SOL     hw 3603   6.860   3.087   4.185 -1.6196 -0.9503  0.6831
  901SOL     vw 3604   6.845   3.123   4.263  0.1674  0.1680  0.5703
  902SOL     ow 3605   0.391   1.225   6.608 -0.4711 -0.7957 -0.0349
  902SOL     hw 3606   0.322   1.158   6.609 -1.3213  0.0420 -0.6315
  902SOL     hw 3607   0.364   1.286   6.539  0.4892 -0.0459  0.2327
  902SOL     vw 3608   0.378   1.224   6.599 -0.4566 -0.5863 -0.0784
  903SOL     ow 3609   3.817   5.413   6.741  0.3159 -0.1203  0.2503
  903SOL     hw 3610   3.850   5.503   6.738 -1.2908  0.4718 -0.5496
  903SOL     hw 3611   3.892   5.360   6.713  0.8038  1.1033 -0.9170
  903SOL     vw 3612   3.832   5.418   6.737  0.1682  0.1190 -0.0091
  904SOL     ow 3613   2.846   4.207   5.413  0.5497 -0.0295 -0.2859
  904SOL     hw 3614   2.933   4.174   5.437  0.7485  1.4050  1.1349
  904SOL     hw 3615   2.844   4.296   5.447 -0.4846  0.9719 -2.7397
  904SOL     vw 3616   2.857   4.214   5.421  0.4394  0.2918 -0.4222
  905SOL     ow 3617   2.971   4.227   2.186  0.1494 -0.2617  0.0987
  905SOL     hw 3618   3.025   4.304   2.204  1.0276 -1.0320  0.8874
  905SOL     hw 3619   3.032   4.163   2.150 -0.4320 -0.8334  0.1190
  905SOL     vw 3620   2.986   4.229   2.184  0.1886 -0.4387  0.2055
  906SOL     ow 3621   2.063   1.478   0.030 -1.1499  0.2764 -0.1771
  906SOL     hw 3622   2.052   1.385   0.010  2.6618  0.0013 -1.8255
  906SOL     hw 3623   2.055   1.522  -0.054  0.4066  0.9812  0.0077
  906SOL     vw 3624   2.061   1.471   0.017 -0.4417  0.3330 -0.3703
  907SOL     ow 3625   2.141   5.550   4.779 -0.1280 -0.1330 -0.0561
  907SOL     hw 3626   2.078   5.620   4.794  0.1577  0.4887 -1.5577
  907SOL     hw 3627   2.204   5.587   4.718 -0.0959 -1.7625 -1.0682
  907SOL     vw 3628   2.141   5.564   4.773 -0.0861 -0.2658 -0.3877
  908SOL     ow 3629   4.054   0.413   2.181 -0.6343 -0.1723  0.5447
  908SOL     hw 3630   4.113   0.477   2.221 -3.3774  4.2944 -1.8025
  908SOL     hw 3631   4.106   0.374   2.110  0.4361  1.3929  0.4184
  908SOL     vw 3632   4.069   0.416   2.177 -0.8550  0.6236  0.2184
  909SOL     ow 3633   5.949   0.537   7.072  0.2344  0.2747 -0.5791
  909SOL     hw 3634   6.038   0.557   7.101  0.0568 -1.8699  1.7639
  909SOL     hw 3635   5.896   0.606   7.113  0.6971  1.1729 -1.4383
  909SOL     vw 3636   5.954   0.549   7.081  0.2723  0.1102 -0.3831
  910SOL     ow 3637   5.456   0.136   3.097 -0.0785 -0.0672 -0.2367
  910SOL     hw 3638   5.412   0.156   3.014 -1.1990  1.1455  0.6208
  910SOL     hw 3639   5.549   0.148   3.077 -0.3038 -0.0837 -1.3829
  910SOL     vw 3640   5.463   0.140   3.083 -0.2563  0.0906 -0.2748
  911SOL     ow 3641   0.387   5.390   0.516 -0.5971 -0.0663  0.0265
  911SOL     hw 3642   0.340   5.473   0.514 -0.4375  0.0322  0.4422
  911SOL     hw 3643   0.397   5.367   0.423  2.8007  2.3328 -0.3906
  911SOL     vw 3644   0.382   5.398   0.503 -0.1277  0.2635  0.0263
  912SOL     ow 3645   5.789   3.555   6.086 -0.0055 -0.6213  0.3088
  912SOL     hw 3646   5.776   3.606   6.006 -1.5956 -2.5650 -0.7780
  912SOL     hw 3647   5.884   3.553   6.098  0.2244  0.3920 -1.0701
  912SOL     vw 3648   5.799   3.561   6.077 -0.1850 -0.7441 -0.0165
  913SOL     ow 3649   5.246   3.632   4.199  0.3040  0.6778 -0.0329
  913SOL     hw 3650   5.178   3.566   4.213 -0.5876  1.4002 -0.8563
  913SOL     hw 3651   5.222   3.674   4.116  0.9573  1.9134  0.3887
  913SOL     vw 3652   5.234   3.629   4.190  0.2728  0.9362 -0.0858
  914SOL     ow 3653   4.312   0.644   1.339  0.1479 -0.6604 -0.8676
  914SOL     hw 3654   4.376   0.583   1.376  0.8170 -0.1316 -1.1384
  914SOL     hw 3655   4.250   0.587   1.293 -0.1116 -1.2471  0.1720
  914SOL     vw 3656   4.313   0.628   1.338  0.2019 -0.6680 -0.7661
  915SOL     ow 3657   5.209   0.631   6.008 -0.6738  0.2766  0.3296
  915SOL     hw 3658   5.201   0.562   6.074 -1.4597  1.4746  1.5562
  915SOL     hw 3659   5.150   0.605   5.938  0.4984 -1.2431 -0.1423
  915SOL     vw 3660   5.201   0.619   6.008 -0.6227  0.2341  0.4292
  916SOL     ow 3661   4.438   1.290   3.320 -0.1809  0.2360  0.1810
  916SOL     hw 3662   4.518   1.326   3.283 -1.0925  1.6653 -0.4928
  916SOL     hw 3663   4.381   1.365   3.333 -1.0317 -0.6046  1.7032
  916SOL     vw 3664   4.441   1.304   3.317 -0.4134  0.3137  0.2929
  917SOL     ow 3665   5.987   1.143   2.500 -0.2356 -0.2233 -0.1916
  917SOL     hw 3666   5.926   1.214   2.480 -1.0450 -0.6581  0.6230
  917SOL     hw 3667   5.994   1.143   2.596  0.1743 -0.8835 -0.2122
  917SOL     vw 3668   5.980   1.152   2.510 -0.2885 -0.3678 -0.0868
  918SOL     ow 3669   3.357   1.994   6.704  0.0315  0.3145 -0.6110
  918SOL     hw 3670   3.292   2.005   6.635 -0.0605  1.7217 -0.3255
  918SOL     hw 3671   3.433   1.956   6.659 -0.0603  1.1157 -1.4802
  918SOL     vw 3672   3.359   1.991   6.689  0.0073  0.6059 -0.6881
  919SOL     ow 3673   4.905   5.446   4.853 -0.0295 -0.5247 -0.1741
  919SOL     hw 3674   4.996   5.455   4.882 -0.7773  2.2657  1.7436
  919SOL     hw 3675   4.875   5.365   4.893  0.2911  0.9960  3.4920
  919SOL     vw 3676   4.913   5.436   4.862 -0.0856  0.0441  0.5629
  920SOL     ow 3677   2.816   5.091   2.104  0.6138 -0.2664  0.3200
  920SOL     hw 3678   2.798   5.165   2.162  0.6098 -0.8596  1.0761
  920SOL     hw 3679   2.892   5.119   2.053 -2.5875  2.6518 -3.5083
  920SOL     vw 3680   2.824   5.105   2.105  0.1907  0.0405 -0.0854
  921SOL     ow 3681   5.791   6.819   1.662 -0.0991  0.9724 -0.4234
  921SOL     hw 3682   5.753   6.886   1.605  0.4297  0.5829 -1.2470
  921SOL     hw 3683   5.843   6.764   1.604 -1.1471 -0.6503  0.1052
  921SOL     vw 3684   5.793   6.821   1.647 -0.1676  0.7069 -0.4624
  922SOL     ow 3685   7.164   2.890   0.140 -0.5846 -0.3441  0.0542
  922SOL     hw 3686   7.124   2.830   0.203 -2.9629  0.7637 -0.3188
  922SOL     hw 3687   7.179   2.970   0.190  1.2586 -0.7090  0.1761
  922SOL     vw 3688   7.161   2.892   0.155 -0.6552 -0.2460  0.0211
  923SOL     ow 3689   3.633   5.383   0.880  0.4404  1.0232  0.1662
  923SOL     hw 3690   3.719   5.349   0.904  1.1475 -0.5988 -3.8765
  923SOL     hw 3691   3.650   5.469   0.844  0.3354  0.8117 -0.3912
  923SOL     vw 3692   3.647   5.390   0.879  0.5200  0.7813 -0.4407
  924SOL     ow 3693   2.071   4.851   3.130  0.3137  0.1596  0.1705
  924SOL     hw 3694   2.120   4.789   3.184  1.0860 -0.0250 -0.7043
  924SOL     hw 3695   2.009   4.892   3.190 -1.0081 -2.2496  0.5680
  924SOL     vw 3696   2.069   4.849   3.145  0.2413 -0.1824  0.1075
  925SOL     ow 3697   0.393   3.387   4.981  0.6876  0.1934 -0.0435
  925SOL     hw 3698   0.338   3.431   4.916  1.2709  0.5031 -0.3315
  925SOL     hw 3699   0.338   3.315   5.013 -0.7865  1.8381  1.3567
  925SOL     vw 3700   0.378   3.383   4.977  0.5700  0.4513  0.1035
  926SOL     ow 3701   7.106   5.987   3.968 -0.4732  0.5492 -0.4431
  926SOL     hw 3702   7.061   5.903   3.962 -1.6186  0.9386  1.6606
  926SOL     hw 3703   7.101   6.010   4.061  2.2098  1.6729 -0.4969
  926SOL     vw 3704   7.099   5.979   3.980 -0.2704  0.7486 -0.1726
  927SOL     ow 3705   5.246   2.272   5.090 -0.2098  0.2685  0.3496
  927SOL     hw 3706   5.217   2.337   5.026  0.8757 -0.7319 -1.2279
  927SOL     hw 3707   5.166   2.226   5.116 -0.8115  1.4125  0.5807
  927SOL     vw 3708   5.231   2.274   5.085 -0.1459  0.2873  0.1719
  928SOL     ow 3709   5.025   0.631   2.543 -0.2991  0.4507  0.5145
  928SOL     hw 3710   5.049   0.723   2.554  0.4806  0.6316 -2.0122
  928SOL     hw 3711   4.999   0.603   2.630  0.1477  2.8546  1.5199
  928SOL     vw 3712   5.025   0.640   2.556 -0.1373  0.7917  0.3139
  929SOL     ow 3713   6.384   5.082   1.239  0.8426 -0.7397 -0.0475
  929SOL     hw 3714   6.411   5.147   1.175  0.2929 -1.6333 -1.2262
  929SOL     hw 3715   6.311   5.122   1.285  0.0927 -0.7415 -1.1971
  929SOL     vw 3716   6.378   5.096   1.237  0.6711 -0.8578 -0.3547
  930SOL     ow 3717   4.592   6.021   0.463  0.5157 -0.2389  0.0906
  930SOL     hw 3718   4.580   5.936   0.421  0.5582 -0.3994  0.3984
  930SOL     hw 3719   4.563   6.085   0.398  1.0611 -0.4582 -0.3701
  930SOL     vw 3720   4.587   6.019   0.449  0.5932 -0.2890  0.0704
  931SOL     ow 3721   4.583   1.751   3.170 -0.2508 -0.2488 -0.0155
  931SOL     hw 3722   4.540   1.668   3.154 -0.3205 -0.3381  0.6029
  931SOL     hw 3723   4.579   1.762   3.265 -2.5315  1.6730 -0.2340
  931SOL     vw 3724   4.577   1.742   3.180 -0.5608 -0.0069  0.0372
  932SOL     ow 3725   0.841   3.139   3.726  0.0441 -0.1662  0.1540
  932SOL     hw 3726   0.886   3.055   3.727  0.2057 -0.0809  0.0552
  932SOL     hw 3727   0.910   3.204   3.716 -0.2468 -0.1348 -2.0767
  932SOL     vw 3728   0.856   3.136   3.725  0.0270 -0.1508 -0.1532
  933SOL     ow 3729   3.666   4.807   1.651 -0.2572  0.2680 -0.4045
  933SOL     hw 3730   3.674   4.847   1.564 -4.1437  0.1999 -0.9511
  933SOL     hw 3731   3.639   4.717   1.633 -1.0997  0.2550  0.8588
  933SOL     vw 3732   3.664   4.800   1.637 -0.8811  0.2573 -0.3099
  934SOL     ow 3733   7.104   1.817   1.701  0.5194  0.1312  0.3214
  934SOL     hw 3734   7.016   1.852   1.707  0.6260  0.3439  0.6571
  934SOL     hw 3735   7.126   1.792   1.791  0.4823 -0.6990  0.1053
  934SOL     vw 3736   7.096   1.818   1.714  0.5286  0.0498  0.3372
  935SOL     ow 3737   3.450   6.373   6.636  0.2613  0.3492  0.1460
  935SOL     hw 3738   3.416   6.447   6.586 -5.5632 -0.9798  1.3832
  935SOL     hw 3739   3.451   6.404   6.727 -3.8784 -1.1167  0.9366
  935SOL     vw 3740   3.445   6.387   6.641 -1.0535 -0.0193  0.4134
  936SOL     ow 3741   0.284   4.577   1.411  0.5032 -0.5465  0.6615
  936SOL     hw 3742   0.279   4.673   1.415  1.3278 -0.5056  0.8404
  936SOL     hw 3743   0.323   4.560   1.325 -0.3380 -0.7569  0.3123
  936SOL     vw 3744   0.289   4.588   1.400  0.5010 -0.5691  0.6390
  937SOL     ow 3745   2.539   0.719   2.847 -0.1910 -0.1445  0.5073
  937SOL     hw 3746   2.508   0.629   2.856  2.2793 -1.3832 -1.8251
  937SOL     hw 3747   2.497   0.750   2.767  1.1113 -0.2920 -0.2564
  937SOL     vw 3748   2.529   0.711   2.838  0.3067 -0.3273  0.0989
  938SOL     ow 3749   6.847   3.852   1.716 -0.4344  0.6287  0.6755
  938SOL     hw 3750   6.922   3.902   1.681 -0.5287  0.3203  0.0209
  938SOL     hw 3751   6.797   3.828   1.639 -0.8086  0.1797  1.0580
  938SOL     vw 3752   6.851   3.856   1.701 -0.4961  0.5288  0.6396
  939SOL     ow 3753   2.690   0.471   2.192 -0.4705 -0.0622  0.1389
  939SOL     hw 3754   2.674   0.470   2.098 -1.5008 -1.6638  0.2898
  939SOL     hw 3755   2.779   0.435   2.202 -1.2253 -2.1273 -0.1375
  939SOL     vw 3756   2.700   0.466   2.181 -0.7060 -0.5459  0.1224
  940SOL     ow 3757   3.417   5.299   3.899 -0.0116 -0.2017  0.8209
  940SOL     hw 3758   3.509   5.316   3.882  0.5116 -2.3527  1.2302
  940SOL     hw 3759   3.413   5.278   3.992 -0.9927  0.1896  0.8831
  940SOL     vw 3760   3.428   5.299   3.909 -0.0719 -0.4339  0.8831
  941SOL     ow 3761   0.228   2.393   3.221  0.1776 -0.6446 -0.2358
  941SOL     hw 3762   0.195   2.464   3.277 -2.7506 -1.7913 -0.3589
  941SOL     hw 3763   0.211   2.313   3.271 -0.1484 -1.5229 -1.6929
  941SOL     vw 3764   0.222   2.392   3.235 -0.2518 -0.9117 -0.4442
  942SOL     ow 3765   4.970   3.040   5.446  0.1325  0.4205  0.5679
  942SOL     hw 3766   4.936   3.073   5.363 -0.7269  0.1065  0.7858
  942SOL     hw 3767   4.972   2.944   5.435  1.1709  0.4361  0.4834
  942SOL     vw 3768   4.966   3.031   5.433  0.1564  0.3812  0.5853
  943SOL     ow 3769   6.796   0.816   1.253 -0.1254 -0.3275  0.0238
  943SOL     hw 3770   6.715   0.840   1.209 -0.5072 -1.3516  0.1346
  943SOL     hw 3771   6.855   0.890   1.238 -1.1312  0.5107  0.0965
  943SOL     vw 3772   6.794   0.829   1.245 -0.3085 -0.3521  0.0480
  944SOL     ow 3773   5.031   3.678   1.980 -0.1846  0.6142 -0.2188
  944SOL     hw 3774   5.059   3.723   1.900  0.3938 -2.3696 -1.8128
  944SOL     hw 3775   4.942   3.712   1.996 -0.3206  1.2844 -2.1363
  944SOL     vw 3776   5.023   3.689   1.972 -0.1261  0.3089 -0.6821
  945SOL     ow 3777   6.971   4.394   2.152  0.1613 -0.0659  0.2293
  945SOL     hw 3778   6.894   4.438   2.116  0.5115  0.4823  0.1293
  945SOL     hw 3779   7.045   4.433   2.104  0.4642 -0.9916 -0.0829
  945SOL     vw 3780   6.971   4.405   2.141  0.2475 -0.1154  0.1749
  946SOL     ow 3781   0.653   2.516   0.600 -0.0938 -0.0558  0.1677
  946SOL     hw 3782   0.701   2.599   0.599 -0.5800  0.2397  0.8361
  946SOL     hw 3783   0.563   2.539   0.579 -0.1354 -0.4836 -0.1399
  946SOL     vw 3784   0.648   2.530   0.597 -0.1634 -0.0732  0.2153
  947SOL     ow 3785   3.562   0.758   1.934 -0.2345 -0.3730 -0.0188
  947SOL     hw 3786   3.603   0.673   1.946 -0.9985 -0.5992  1.1155
  947SOL     hw 3787   3.589   0.785   1.846  2.4391 -0.4339  0.6894
  947SOL     vw 3788   3.571   0.750   1.924  0.0174 -0.4108  0.2242
  948SOL     ow 3789   1.506   3.628   2.794 -0.0288 -0.0658  0.0900
  948SOL     hw 3790   1.490   3.699   2.731  0.8004 -1.2857 -1.6047
  948SOL     hw 3791   1.419   3.597   2.818 -0.5139 -2.0849 -3.5481
  948SOL     vw 3792   1.493   3.634   2.789  0.0166 -0.4932 -0.6137
  949SOL     ow 3793   4.447   4.770   4.114  0.0436  0.1696 -0.3264
  949SOL     hw 3794   4.459   4.802   4.025 -2.0118  0.7809 -0.4343
  949SOL     hw 3795   4.483   4.682   4.113  2.4602  1.0876 -1.0129
  949SOL     vw 3796   4.453   4.763   4.103  0.0916  0.3715 -0.4313
  950SOL     ow 3797   0.485   2.422   4.458 -0.1148  0.1150 -0.3296
  950SOL     hw 3798   0.467   2.399   4.549  1.1713  0.6855  0.0941
  950SOL     hw 3799   0.546   2.354   4.428 -0.9107 -0.3518 -0.9319
  950SOL     vw 3800   0.491   2.410   4.466 -0.0501  0.1287 -0.3533
  951SOL     ow 3801   6.841   4.397   4.194  0.0529 -0.9249 -0.1947
  951SOL     hw 3802   6.838   4.469   4.257  0.9643 -0.4590 -0.6640
  951SOL     hw 3803   6.793   4.326   4.236  0.6608 -0.6292  1.0308
  951SOL     vw 3804   6.834   4.397   4.208  0.2534 -0.8242 -0.0947
  952SOL     ow 3805   3.691   6.448   0.632 -0.0482  0.3916 -0.2583
  952SOL     hw 3806   3.603   6.423   0.605  0.8669 -3.2743 -0.3307
  952SOL     hw 3807   3.743   6.368   0.625  3.4747  2.4672 -0.7072
  952SOL     vw 3808   3.686   6.434   0.628  0.5374  0.1819 -0.3271
  953SOL     ow 3809   0.643   5.282   0.658 -0.2943  0.5818 -0.5970
  953SOL     hw 3810   0.677   5.315   0.741  0.0868  1.1260 -0.9604
  953SOL     hw 3811   0.721   5.262   0.606 -0.5102  1.1744 -1.1756
  953SOL     vw 3812   0.658   5.284   0.662 -0.2725  0.7319 -0.7213
  954SOL     ow 3813   1.615   6.096   1.904 -0.6181 -0.3924 -0.2528
  954SOL     hw 3814   1.607   6.188   1.880 -1.1612 -0.3406  0.1310
  954SOL     hw 3815   1.661   6.056   1.830  1.4666  0.5643  0.4191
  954SOL     vw 3816   1.620   6.103   1.891 -0.4147 -0.2592 -0.1135
  955SOL     ow 3817   6.363   4.489   0.432  0.2568  0.3374 -0.2239
  955SOL     hw 3818   6.344   4.580   0.411  0.0945  0.3918  0.1586
  955SOL     hw 3819   6.285   4.441   0.405  0.2434  0.3451 -0.1984
  955SOL     vw 3820   6.350   4.494   0.426  0.2339  0.3455 -0.1701
  956SOL     ow 3821   3.623   1.530   4.620  0.0061  0.4771  0.8535
  956SOL     hw 3822   3.633   1.522   4.525  0.0027  2.2562  0.6765
  956SOL     hw 3823   3.650   1.444   4.654 -0.3378 -0.3150 -0.7604
  956SOL     vw 3824   3.628   1.517   4.612 -0.0396  0.6073  0.6173
  957SOL     ow 3825   3.654   3.258   5.399  0.4018 -0.1688  0.1286
  957SOL     hw 3826   3.740   3.291   5.372 -1.5951  4.0678 -2.0803
  957SOL     hw 3827   3.603   3.337   5.420 -3.8546 -2.0484 -1.8156
  957SOL     vw 3828   3.658   3.273   5.398 -0.4232  0.1421 -0.4191
  958SOL     ow 3829   6.592   6.082   6.157 -0.0389  0.0161  0.4976
  958SOL     hw 3830   6.598   6.162   6.105 -0.6472 -0.7091 -0.7313
  958SOL     hw 3831   6.511   6.041   6.129  1.5043 -2.3578 -0.8951
  958SOL     vw 3832   6.582   6.087   6.146  0.0846 -0.3927  0.1516
  959SOL     ow 3833   1.954   2.755   4.972 -0.7740 -0.2205 -0.1563
  959SOL     hw 3834   1.989   2.747   5.060 -2.2692  1.3095  0.6104
  959SOL     hw 3835   1.877   2.698   4.971 -0.2910 -0.8901 -0.7665
  959SOL     vw 3836   1.949   2.746   4.983 -0.9076 -0.1069 -0.1357
  960SOL     ow 3837   4.412   6.882   3.229 -0.3838 -0.3985  0.1030
  960SOL     hw 3838   4.462   6.962   3.212 -1.0300 -0.1377 -0.6015
  960SOL     hw 3839   4.427   6.864   3.322 -0.8362  0.9751  0.4695
  960SOL     vw 3840   4.420   6.891   3.239 -0.5288 -0.1826  0.0584
  961SOL     ow 3841   6.634   2.963   0.858 -0.4442 -0.2727  0.3071
  961SOL     hw 3842   6.570   3.021   0.817 -1.8487 -1.9949 -0.0939
  961SOL     hw 3843   6.675   3.016   0.926  0.0168  1.8426 -1.5111
  961SOL     vw 3844   6.631   2.978   0.862 -0.5686 -0.2209  0.0143
  962SOL     ow 3845   0.880   1.107   2.669  0.3312  0.3423  0.0447
  962SOL     hw 3846   0.901   1.153   2.588 -0.2475  1.7778  0.6767
  962SOL     hw 3847   0.870   1.176   2.734  1.5083 -0.8125  1.5348
  962SOL     vw 3848   0.882   1.122   2.667  0.4102  0.3793  0.3247
  963SOL     ow 3849   2.814   1.973   2.180 -0.1279  0.7497  0.5642
  963SOL     hw 3850   2.888   2.024   2.146  0.4580 -0.2135  0.3554
  963SOL     hw 3851   2.851   1.920   2.250 -0.5249 -0.0373  0.1941
  963SOL     vw 3852   2.829   1.973   2.184 -0.1030  0.5188  0.4880
  964SOL     ow 3853   3.775   4.352   5.652 -0.0629 -0.0930  0.0701
  964SOL     hw 3854   3.697   4.386   5.695  0.3612 -1.4162  2.0568
  964SOL     hw 3855   3.802   4.421   5.592 -2.8690  0.3024 -0.8698
  964SOL     vw 3856   3.768   4.365   5.650 -0.3772 -0.2153  0.2081
  965SOL     ow 3857   0.180   2.672   6.879 -0.0407  0.2928 -0.0979
  965SOL     hw 3858   0.243   2.622   6.930 -1.5874 -1.8632 -0.1310
  965SOL     hw 3859   0.233   2.726   6.821  1.7711 -1.1299  0.1471
  965SOL     vw 3860   0.195   2.672   6.878 -0.0057 -0.1792 -0.0703
  966SOL     ow 3861   7.173   6.543   2.087  0.9849  0.4218  0.2487
  966SOL     hw 3862   7.255   6.513   2.048 -0.4683 -3.0998 -0.4774
  966SOL     hw 3863   7.131   6.463   2.119 -3.9812  1.3065 -2.9198
  966SOL     vw 3864   7.178   6.528   2.086  0.1380  0.0739 -0.2651
  967SOL     ow 3865   1.393   4.548   0.859 -0.0108 -0.4528  0.0623
  967SOL     hw 3866   1.449   4.580   0.788  0.0917 -0.3376  0.1935
  967SOL     hw 3867   1.340   4.480   0.819 -1.5154  1.1011 -0.6839
  967SOL     vw 3868   1.394   4.543   0.844 -0.1959 -0.2329 -0.0189
  968SOL     ow 3869   6.156   5.639   4.935  0.0909  0.2151  0.5729
  968SOL     hw 3870   6.184   5.718   4.981 -0.7869  0.7611  0.1891
  968SOL     hw 3871   6.230   5.617   4.878  1.0055 -0.2130  1.8841
  968SOL     vw 3872   6.170   5.647   4.933  0.0956  0.2306  0.6950
  969SOL     ow 3873   3.563   3.074   5.592 -0.1368 -0.5353 -0.0130
  969SOL     hw 3874   3.603   3.151   5.553  2.6385 -1.6877  0.3710
  969SOL     hw 3875   3.476   3.104   5.619 -0.0880  1.7489 -2.0449
  969SOL     vw 3876   3.557   3.089   5.591  0.2357 -0.3859 -0.2303
  970SOL     ow 3877   4.928   4.488   2.891 -0.4996  1.1105  0.8223
  970SOL     hw 3878   4.942   4.510   2.799 -0.3164 -1.7440  0.0732
  970SOL     hw 3879   4.835   4.501   2.906 -0.6798  0.8471 -0.0254
  970SOL     vw 3880   4.918   4.492   2.881 -0.4990  0.6995  0.6115
  971SOL     ow 3881   4.422   0.023   3.781  0.4246 -0.0029 -0.1633
  971SOL     hw 3882   4.464   0.059   3.703 -1.4120  2.8410  0.0316
  971SOL     hw 3883   4.454   0.078   3.853 -1.4215  0.4201  0.3792
  971SOL     vw 3884   4.432   0.035   3.780 -0.0610  0.4282 -0.0662
  972SOL     ow 3885   0.512   0.965   3.456 -0.1684 -0.2503 -0.0214
  972SOL     hw 3886   0.564   1.003   3.385  0.4926 -0.5076  0.3200
  972SOL     hw 3887   0.473   1.040   3.500  0.5174 -0.0098  0.1808
  972SOL     vw 3888   0.513   0.980   3.452  0.0093 -0.2525  0.0504
  973SOL     ow 3889   0.349   5.157   5.611 -0.8744 -0.6625 -0.0616
  973SOL     hw 3890   0.310   5.076   5.579 -0.3497 -0.4068 -1.4463
  973SOL     hw 3891   0.431   5.165   5.562 -0.7228  0.4926  0.3539
  973SOL     vw 3892   0.355   5.148   5.600 -0.7852 -0.4766 -0.1893
  974SOL     ow 3893   3.807   0.686   3.762  0.1557 -0.3881  0.2617
  974SOL     hw 3894   3.830   0.770   3.723 -2.5575  1.1788  1.7658
  974SOL     hw 3895   3.835   0.622   3.697  0.0022  1.8126 -2.1429
  974SOL     vw 3896   3.814   0.689   3.748 -0.2226  0.1090  0.1429
  975SOL     ow 3897   5.637   4.957   5.781 -0.5648 -0.3759  0.0033
  975SOL     hw 3898   5.673   4.992   5.699 -2.0189  0.0373 -0.5013
  975SOL     hw 3899   5.710   4.912   5.823  1.1233  2.2844  0.1338
  975SOL     vw 3900   5.651   4.956   5.776 -0.5341  0.0298 -0.0460
  976SOL     ow 3901   1.952   4.882   4.743 -0.5334 -0.0369  0.5826
  976SOL     hw 3902   1.909   4.926   4.816 -0.4813  1.6586 -0.3524
  976SOL     hw 3903   1.989   4.803   4.781 -0.6616  0.7072  2.3474
  976SOL     vw 3904   1.951   4.878   4.757 -0.5435  0.2851  0.6921
  977SOL     ow 3905   3.892   1.781   5.498  0.1775  0.3014  0.2632
  977SOL     hw 3906   3.799   1.768   5.484  0.3509 -0.7010 -0.0643
  977SOL     hw 3907   3.935   1.717   5.440  0.9935 -1.0052  2.1616
  977SOL     vw 3908   3.886   1.771   5.489  0.3080 -0.0032  0.4704
  978SOL     ow 3909   5.489   4.656   5.800 -0.0415  0.2039 -0.6255
  978SOL     hw 3910   5.510   4.649   5.893  0.0463 -0.5102 -0.6930
  978SOL     hw 3911   5.399   4.624   5.794  0.3444 -0.8961 -0.9362
  978SOL     vw 3912   5.480   4.651   5.812  0.0210 -0.0353 -0.6757
  979SOL     ow 3913   5.364   5.637   1.939 -0.0165 -0.2614 -0.0991
  979SOL     hw 3914   5.415   5.557   1.955  0.4392  0.0264 -0.1129
  979SOL     hw 3915   5.419   5.708   1.972 -1.0911 -0.0699  1.4072
  979SOL     vw 3916   5.378   5.636   1.945 -0.0980 -0.1981  0.0979
  980SOL     ow 3917   0.046   0.590   4.763 -0.1611 -0.3884 -0.0877
  980SOL     hw 3918   0.029   0.539   4.842 -0.3663 -0.6745 -0.3150
  980SOL     hw 3919   0.141   0.581   4.749  0.1524  0.9882  1.0254
  980SOL     vw 3920   0.057   0.582   4.771 -0.1468 -0.2445  0.0293
  981SOL     ow 3921   1.714   2.603   4.991 -0.4705  0.1257  0.6310
  981SOL     hw 3922   1.671   2.688   5.007 -0.4996  0.5456 -1.4598
  981SOL     hw 3923   1.670   2.568   4.914  0.7535 -0.9734  0.3996
  981SOL     vw 3924   1.702   2.610   4.983 -0.3129  0.0361  0.3245
  982SOL     ow 3925   3.015   5.919   4.238  0.2039 -0.0303  0.0230
  982SOL     hw 3926   2.983   5.914   4.328  1.0769 -1.0485  0.3023
  982SOL     hw 3927   2.941   5.890   4.185 -0.0315 -0.2855  0.4847
  982SOL     vw 3928   3.001   5.914   4.243  0.2881 -0.1984  0.1204
  983SOL     ow 3929   0.339   2.327   2.890  0.3861 -0.0084  0.0884
  983SOL     hw 3930   0.261   2.302   2.841 -1.5846  2.0699  1.9642
  983SOL     hw 3931   0.393   2.248   2.891 -1.4335 -1.3643 -1.6930
  983SOL     vw 3932   0.336   2.313   2.884 -0.1140  0.0869  0.1007
  984SOL     ow 3933   0.300   5.816   6.483 -0.4514  0.1550 -0.4039
  984SOL     hw 3934   0.356   5.796   6.408  0.6817  1.4347  0.0687
  984SOL     hw 3935   0.223   5.859   6.445  0.4559  1.4840 -0.8063
  984SOL     vw 3936   0.297   5.819   6.468 -0.1822  0.4992 -0.3946
  985SOL     ow 3937   6.066   3.457   4.066  0.6588  0.9014 -0.1502
  985SOL     hw 3938   6.103   3.538   4.033 -0.3247  1.5090  0.1867
  985SOL     hw 3939   6.010   3.426   3.994  0.9206  0.5978 -0.2237
  985SOL     vw 3940   6.063   3.463   4.052  0.5636  0.9416 -0.1156
  986SOL     ow 3941   0.770   3.531   5.803 -0.0823  0.7090  0.2957
  986SOL     hw 3942   0.846   3.491   5.845  0.3562  0.7882 -0.3974
  986SOL     hw 3943   0.758   3.480   5.723  1.0119  2.4454 -1.0502
  986SOL     vw 3944   0.778   3.519   5.798  0.1199  0.9487  0.0267
  987SOL     ow 3945   3.787   6.203   6.470  0.3117  0.3730  0.4137
  987SOL     hw 3946   3.785   6.239   6.559 -1.4654  1.9550 -0.1931
  987SOL     hw 3947   3.867   6.237   6.432  0.7025  0.3155  1.1598
  987SOL     vw 3948   3.797   6.212   6.477  0.1289  0.5741  0.4320
  988SOL     ow 3949   3.755   6.686   0.585 -0.4926 -0.1156  0.4523
  988SOL     hw 3950   3.730   6.728   0.667 -2.9010 -1.6065  0.5726
  988SOL     hw 3951   3.733   6.594   0.597  1.7378 -0.9135 -0.9019
  988SOL     vw 3952   3.749   6.680   0.597 -0.5159 -0.4175  0.2895
  989SOL     ow 3953   1.395   2.331   1.352  0.3137 -0.0728 -0.0883
  989SOL     hw 3954   1.444   2.408   1.323  2.9666 -1.5271  0.1936
  989SOL     hw 3955   1.364   2.354   1.440 -0.4769  1.2895 -0.7032
  989SOL     vw 3956   1.398   2.344   1.360  0.5594 -0.0849 -0.1323
  990SOL     ow 3957   1.046   1.287   2.475 -0.1055 -0.4473  0.5286
  990SOL     hw 3958   1.077   1.314   2.562  2.2792  2.6201 -1.0715
  990SOL     hw 3959   0.964   1.335   2.464 -0.2922 -0.6556  0.9644
  990SOL     vw 3960   1.039   1.297   2.485  0.1845 -0.0701  0.3749
  991SOL     ow 3961   5.395   1.620   3.486  0.1044  0.2236 -0.0671
  991SOL     hw 3962   5.304   1.594   3.468 -0.7232  0.6758  2.8045
  991SOL     hw 3963   5.390   1.663   3.572  3.1194 -0.1142  0.3755
  991SOL     vw 3964   5.382   1.622   3.495  0.3927  0.2387  0.3700
  992SOL     ow 3965   5.621   2.901   3.254 -0.0851 -0.3264 -0.5945
  992SOL     hw 3966   5.671   2.930   3.178 -0.3624  1.5408 -0.1108
  992SOL     hw 3967   5.666   2.821   3.283  1.1240 -0.0455 -1.6201
  992SOL     vw 3968   5.634   2.894   3.248  0.0381 -0.0429 -0.6659
  993SOL     ow 3969   5.753   2.339   4.620 -0.3615  0.1496 -0.2286
  993SOL     hw 3970   5.677   2.391   4.594 -0.2009 -0.2789 -1.6526
  993SOL     hw 3971   5.827   2.398   4.608 -0.1833 -0.3253 -1.8079
  993SOL     vw 3972   5.753   2.353   4.615 -0.3169  0.0304 -0.6247
  994SOL     ow 3973   4.543   5.477   3.068  0.0862  0.2350  0.0527
  994SOL     hw 3974   4.487   5.475   2.990  1.7950  0.2135 -1.2302
  994SOL     hw 3975   4.532   5.391   3.107 -1.1780  0.4184  0.1283
  994SOL     vw 3976   4.534   5.466   3.063  0.1447  0.2565 -0.1067
  995SOL     ow 3977   2.759   2.864   0.898  0.1189 -0.1603 -0.0907
  995SOL     hw 3978   2.815   2.939   0.879  0.2895 -0.6579 -1.7053
  995SOL     hw 3979   2.675   2.903   0.923 -0.7356  0.6963 -3.7014
  995SOL     vw 3980   2.755   2.879   0.899  0.0287 -0.1128 -0.7801
  996SOL     ow 3981   1.318   6.196   4.775  0.8671  0.1078 -0.6404
  996SOL     hw 3982   1.303   6.146   4.695 -2.6310  0.4212 -0.3111
  996SOL     hw 3983   1.332   6.130   4.843 -0.2949 -0.3464 -0.8216
  996SOL     vw 3984   1.318   6.181   4.773  0.2522  0.0892 -0.6206
  997SOL     ow 3985   0.243   3.695   0.803  0.3203  0.1800  0.0621
  997SOL     hw 3986   0.293   3.768   0.838  0.4704  0.2713 -0.3403
  997SOL     hw 3987   0.280   3.618   0.847 -0.2658  0.3997  0.9659
  997SOL     vw 3988   0.255   3.694   0.814  0.2628  0.2210  0.1283
  998SOL     ow 3989   3.745   4.099   4.522 -0.3910 -0.1222  0.1449
  998SOL     hw 3990   3.668   4.062   4.565  0.5784 -0.3594  1.7538
  998SOL     hw 3991   3.717   4.114   4.432 -1.5069 -2.7288 -0.0303
  998SOL     vw 3992   3.731   4.096   4.516 -0.4104 -0.4971  0.3338
  999SOL     ow 3993   4.958   5.205   2.594  0.5010 -0.5385 -0.2460
  999SOL     hw 3994   4.993   5.117   2.582 -0.1185 -0.9022  0.5281
  999SOL     hw 3995   5.029   5.254   2.635  1.4890 -0.1601 -2.3006
  999SOL     vw 3996   4.972   5.200   2.598  0.5496 -0.5364 -0.4150
 1000SOL     ow 3997   2.720   1.729   2.006 -0.0369  0.4065 -0.0623
 1000SOL     hw 3998   2.730   1.650   2.060  0.5288  0.9321  0.6137
 1000SOL     hw 3999   2.795   1.727   1.947 -1.0233 -0.5336 -1.3363
 1000SOL     vw 4000   2.731   1.718   2.006 -0.0924  0.3518 -0.1414
 1001SOL     ow 4001   6.792   2.001   5.817 -0.0063  0.0314 -0.5375
 1001SOL     hw 4002   6.842   1.932   5.860  1.6127  0.2175 -1.9848
 1001SOL     hw 4003   6.857   2.070   5.799 -1.4164  1.6234  0.1764
 1001SOL     vw 4004   6.807   2.001   5.820  0.0210  0.2660 -0.6342
 1002SOL     ow 4005   4.875   6.140   1.657 -0.0272  0.1952 -0.3794
 1002SOL     hw 4006   4.911   6.055   1.630 -2.8880 -0.6928 -1.7331
 1002SOL     hw 4007   4.889   6.142   1.751  2.1859 -0.7004 -0.6235
 1002SOL     vw 4008   4.882   6.129   1.666 -0.1128 -0.0398 -0.5901
 1003SOL     ow 4009   6.494   3.553   0.251  0.0365  0.5811  0.1022
 1003SOL     hw 4010   6.517   3.460   0.249 -0.8233  0.3567  0.4322
 1003SOL     hw 4011   6.560   3.593   0.309  2.1336  0.6926 -2.1656
 1003SOL     vw 4012   6.506   3.546   0.258  0.1996  0.5662 -0.1535
 1004SOL     ow 4013   4.913   1.875   4.086  0.1066 -0.6239  0.4396
 1004SOL     hw 4014   4.919   1.872   3.990  1.2793 -0.3936  0.4910
 1004SOL     hw 4015   4.821   1.855   4.104 -0.2099 -0.3604 -0.7434
 1004SOL     vw 4016   4.901   1.872   4.075  0.2196 -0.5587  0.2902
 1005SOL     ow 4017   1.811   1.360   2.281  0.1453 -0.7478  0.6151
 1005SOL     hw 4018   1.723   1.393   2.295  0.6298  0.7998  0.1953
 1005SOL     hw 4019   1.864   1.404   2.348  0.7363 -1.1166  0.4024
 1005SOL     vw 4020   1.807   1.370   2.292  0.2872 -0.5923  0.5316
 1006SOL     ow 4021   3.145   6.718   4.494  0.2093 -0.2211  0.3631
 1006SOL     hw 4022   3.145   6.625   4.518  0.9086 -1.1815 -2.9345
 1006SOL     hw 4023   3.056   6.735   4.463  0.3458 -0.0541  0.0619
 1006SOL     vw 4024   3.133   6.708   4.493  0.3195 -0.3257 -0.1118
 1007SOL     ow 4025   6.470   4.090   0.310  0.0207  0.2035 -0.1963
 1007SOL     hw 4026   6.509   4.130   0.232 -2.2865 -0.9716 -2.0596
 1007SOL     hw 4027   6.502   4.000   0.309  2.0919  0.8062  1.8233
 1007SOL     vw 4028   6.480   4.084   0.300 -0.0103  0.1278 -0.1757
 1008SOL     ow 4029   0.178   4.427   0.136 -0.6508  0.0289  0.3182
 1008SOL     hw 4030   0.132   4.356   0.180 -0.4772 -0.2211  0.0993
 1008SOL     hw 4031   0.219   4.477   0.207 -1.0722  0.1261  0.4975
 1008SOL     vw 4032   0.177   4.425   0.151 -0.6835  0.0088  0.3129
 1009SOL     ow 4033   6.002   1.442   0.908 -0.7397 -0.3267  0.0533
 1009SOL     hw 4034   5.967   1.355   0.924  2.2777 -1.8944 -1.1443
 1009SOL     hw 4035   6.023   1.443   0.814 -1.1566  1.9208 -0.0886
 1009SOL     vw 4036   6.000   1.431   0.898 -0.3967 -0.2370 -0.1235
 1010SOL     ow 4037   6.291   0.926   1.973  0.1013  0.2131 -0.2122
 1010SOL     hw 4038   6.369   0.978   1.989  0.4897 -0.5895  0.6227
 1010SOL     hw 4039   6.222   0.990   1.955  1.2026  0.8976 -2.2656
 1010SOL     vw 4040   6.292   0.941   1.973  0.2978  0.1975 -0.3729
 1011SOL     ow 4041   1.084   3.097   3.417 -0.1583  0.3755  0.1731
 1011SOL     hw 4042   1.143   3.113   3.344  0.9446 -0.2460  0.9090
 1011SOL     hw 4043   1.070   3.183   3.456 -0.8274  0.7243 -0.7997
 1011SOL     vw 4044   1.090   3.110   3.413 -0.1011  0.3395  0.1417
 1012SOL     ow 4045   4.128   1.291   5.717  0.6316 -0.3593 -0.6053
 1012SOL     hw 4046   4.081   1.292   5.634 -0.4419 -0.5765 -0.0085
 1012SOL     hw 4047   4.080   1.230   5.772 -1.3397  2.9529  1.6978
 1012SOL     vw 4048   4.116   1.283   5.714  0.2298  0.0491 -0.2229
 1013SOL     ow 4049   4.163   2.470   7.138 -0.8752 -0.3487 -0.2204
 1013SOL     hw 4050   4.101   2.535   7.170 -0.5158  1.4230 -2.8383
 1013SOL     hw 4051   4.109   2.403   7.097 -1.1579 -0.0647 -0.3127
 1013SOL     vw 4052   4.148   2.470   7.137 -0.8652 -0.0775 -0.5779
 1014SOL     ow 4053   1.126   6.277   3.860  0.7360  0.1000 -0.7469
 1014SOL     hw 4054   1.085   6.246   3.941 -0.0888 -1.2557 -1.6532
 1014SOL     hw 4055   1.215   6.243   3.863  1.1581  1.1991  0.1925
 1014SOL     vw 4056   1.132   6.269   3.871  0.6829  0.0663 -0.7427
 1015SOL     ow 4057   5.164   1.843   3.092  0.2321 -0.3738  0.3882
 1015SOL     hw 4058   5.110   1.788   3.034  0.2250  0.3070 -0.2716
 1015SOL     hw 4059   5.130   1.825   3.179 -2.4685  1.4902 -0.1484
 1015SOL     vw 4060   5.152   1.833   3.096 -0.1252 -0.0380  0.2303
 1016SOL     ow 4061   2.365   5.895   1.173  0.2972 -0.1211  0.6745
 1016SOL     hw 4062   2.298   5.911   1.239  0.4884  0.7478  0.6652
 1016SOL     hw 4063   2.322   5.837   1.110 -0.3853  0.2536  0.7765
 1016SOL     vw 4064   2.350   5.890   1.174  0.2325  0.0429  0.6866
 1017SOL     ow 4065   3.461   3.480   3.717 -0.4061  0.0368 -0.2688
 1017SOL     hw 4066   3.409   3.435   3.784 -0.0298 -0.7555 -0.4966
 1017SOL     hw 4067   3.463   3.419   3.644 -0.2125  0.6003 -0.7355
 1017SOL     vw 4068   3.454   3.466   3.716 -0.3309  0.0066 -0.3604
 1018SOL     ow 4069   1.949   1.091   2.418  0.3710 -0.0760  0.0899
 1018SOL     hw 4070   2.042   1.065   2.417 -0.1529 -2.1719 -1.6836
 1018SOL     hw 4071   1.906   1.026   2.473  0.0149  1.4513  1.7158
 1018SOL     vw 4072   1.956   1.079   2.425  0.2549 -0.1510  0.0705
 1019SOL     ow 4073   0.134   1.531   6.176  0.1141 -0.1887 -0.2653
 1019SOL     hw 4074   0.111   1.569   6.091 -0.3223 -0.5883 -0.3274
 1019SOL     hw 4075   0.099   1.593   6.240 -0.3098 -0.3258 -0.3675
 1019SOL     vw 4076   0.127   1.544   6.173  0.0006 -0.2595 -0.2871
 1020SOL     ow 4077   4.255   1.091   2.400  0.2716  0.0068  0.3625
 1020SOL     hw 4078   4.314   1.018   2.380  1.7776  0.4729  2.7354
 1020SOL     hw 4079   4.292   1.131   2.479 -2.0971  1.6205  0.7537
 1020SOL     vw 4080   4.268   1.086   2.408  0.1578  0.2812  0.7272
 1021SOL     ow 4081   0.965   5.567   7.117  0.4597  0.8257  0.1291
 1021SOL     hw 4082   0.943   5.655   7.149 -1.2585 -0.5650  3.1322
 1021SOL     hw 4083   1.029   5.583   7.047 -0.2401  4.4668  0.0969
 1021SOL     vw 4084   0.971   5.581   7.112  0.1407  1.1225  0.5209
 1022SOL     ow 4085   5.794   5.204   4.443 -0.9304  0.2343 -0.1091
 1022SOL     hw 4086   5.870   5.199   4.501 -0.4420 -0.3175 -0.7780
 1022SOL     hw 4087   5.776   5.298   4.437 -0.7529  0.3284  0.6218
 1022SOL     vw 4088   5.802   5.216   4.450 -0.8428  0.1740 -0.1009
 1023SOL     ow 4089   6.282   1.130   2.416  0.3285 -0.1288 -0.1236
 1023SOL     hw 4090   6.199   1.119   2.461  0.9985 -1.8412  0.7721
 1023SOL     hw 4091   6.342   1.163   2.482  0.6936 -0.1824 -0.4219
 1023SOL     vw 4092   6.279   1.133   2.430  0.4652 -0.3617 -0.0448
 1024SOL     ow 4093   4.377   1.919   2.942  0.2539 -0.2907 -0.0307
 1024SOL     hw 4094   4.443   1.911   3.011  0.1134  1.4608  0.3489
 1024SOL     hw 4095   4.297   1.946   2.987 -0.5481 -1.6676 -0.5780
 1024SOL     vw 4096   4.375   1.922   2.957  0.1295 -0.2413 -0.0528
 1025SOL     ow 4097   5.658   4.528   1.275 -0.2209 -0.1716  0.1387
 1025SOL     hw 4098   5.594   4.463   1.306 -0.0738 -0.4360 -0.1156
 1025SOL     hw 4099   5.740   4.503   1.317  0.1305 -0.9230 -0.9778
 1025SOL     vw 4100   5.660   4.516   1.285 -0.1550 -0.3057 -0.0421
 1026SOL     ow 4101   0.877   3.512   6.781  0.4740 -0.1347 -0.1521
 1026SOL     hw 4102   0.799   3.463   6.806  1.5131 -1.6637  0.2000
 1026SOL     hw 4103   0.921   3.531   6.864  0.0591  1.5301 -0.2617
 1026SOL     vw 4104   0.872   3.508   6.796  0.5563 -0.1167 -0.1197
 1027SOL     ow 4105   0.261   5.388   5.711  0.6739  0.1378 -0.0981
 1027SOL     hw 4106   0.287   5.307   5.668 -0.5512 -0.3219 -0.0088
 1027SOL     hw 4107   0.256   5.366   5.804 -0.7729 -0.0120 -0.1915
 1027SOL     vw 4108   0.264   5.375   5.717  0.3213  0.0572 -0.0987
 1028SOL     ow 4109   6.701   3.845   5.554  0.4918 -0.0708  0.6811
 1028SOL     hw 4110   6.712   3.763   5.507  0.1159  0.8815 -1.1428
 1028SOL     hw 4111   6.610   3.845   5.581  0.2609  0.1307 -0.0855
 1028SOL     vw 4112   6.691   3.834   5.552  0.4117  0.0814  0.3393
 1029SOL     ow 4113   2.791   2.890   2.143  0.4761 -0.2215 -0.3717
 1029SOL     hw 4114   2.754   2.894   2.054  1.7348  1.0164 -0.8751
 1029SOL     hw 4115   2.870   2.837   2.134 -0.0896 -1.2094  0.3014
 1029SOL     vw 4116   2.796   2.883   2.130  0.5676 -0.1887 -0.3493
 1030SOL     ow 4117   4.849   6.503   6.852  0.5470  0.8892 -0.0411
 1030SOL     hw 4118   4.939   6.531   6.836  0.9056 -0.3449 -0.2813
 1030SOL     hw 4119   4.802   6.584   6.874  1.4466  1.7067 -1.0452
 1030SOL     vw 4120   4.855   6.518   6.853  0.7129  0.8340 -0.2055
 1031SOL     ow 4121   4.909   6.923   6.085  0.5546 -0.3682  0.2251
 1031SOL     hw 4122   4.828   6.952   6.043  0.2482  0.0385  1.0737
 1031SOL     hw 4123   4.891   6.833   6.114  1.2112 -1.1410 -1.6369
 1031SOL     vw 4124   4.896   6.915   6.084  0.6008 -0.4165  0.0913
 1032SOL     ow 4125   3.540   1.231   5.185 -0.4966  0.2377 -0.2911
 1032SOL     hw 4126   3.604   1.258   5.119  0.9512  1.3129  1.4732
 1032SOL     hw 4127   3.575   1.149   5.221 -1.9216 -1.0260 -1.6401
 1032SOL     vw 4128   3.553   1.224   5.181 -0.4935  0.2128 -0.2363
 1033SOL     ow 4129   3.582   1.846   0.450  0.0366 -1.1035  0.3868
 1033SOL     hw 4130   3.670   1.844   0.413  0.2950  0.2954  0.8403
 1033SOL     hw 4131   3.590   1.804   0.535  0.2547 -1.0160  0.4097
 1033SOL     vw 4132   3.595   1.840   0.456  0.0995 -0.9074  0.4497
 1034SOL     ow 4133   5.694   1.536   3.354  0.0942 -0.2006  0.9103
 1034SOL     hw 4134   5.778   1.581   3.355  0.1385 -0.2541 -0.0900
 1034SOL     hw 4135   5.716   1.443   3.364 -0.0285 -0.0311  3.6248
 1034SOL     vw 4136   5.708   1.529   3.356  0.0839 -0.1854  1.1364
 1035SOL     ow 4137   6.167   0.352   5.981  0.0472 -0.0179 -0.0469
 1035SOL     hw 4138   6.160   0.394   5.895 -0.1315  1.0475  0.4732
 1035SOL     hw 4139   6.247   0.388   6.019 -1.3517  1.7540  1.3905
 1035SOL     vw 4140   6.177   0.362   5.974 -0.1612  0.3565  0.2115
 1036SOL     ow 4141   5.536   5.071   4.945 -0.2797  0.1670 -0.3421
 1036SOL     hw 4142   5.467   5.022   4.989  0.0448  0.3849  0.4345
 1036SOL     hw 4143   5.618   5.031   4.976 -0.0094  1.1685  0.2987
 1036SOL     vw 4144   5.538   5.059   4.955 -0.2015  0.3278 -0.1550
 1037SOL     ow 4145   0.639   3.446   6.820 -0.0098 -0.1839  0.3356
 1037SOL     hw 4146   0.631   3.361   6.862  2.6255 -0.9045 -0.4702
 1037SOL     hw 4147   0.626   3.509   6.892 -1.3864 -1.2367  1.0475
 1037SOL     vw 4148   0.636   3.443   6.835  0.1563 -0.4177  0.3231
 1038SOL     ow 4149   1.658   0.206   4.445  0.2353  0.2390 -0.2787
 1038SOL     hw 4150   1.629   0.279   4.391  0.4482  1.1053  0.7627
 1038SOL     hw 4151   1.591   0.139   4.432 -0.4950  0.9897 -0.4662
 1038SOL     vw 4152   1.645   0.206   4.436  0.1671  0.4524 -0.1659
 1039SOL     ow 4153   0.027   2.793   1.524  0.4447  0.0782 -0.0089
 1039SOL     hw 4154   0.062   2.709   1.497 -0.9779 -0.3187 -0.7386
 1039SOL     hw 4155   0.096   2.832   1.578  0.3733 -2.4081  2.0570
 1039SOL     vw 4156   0.041   2.787   1.527  0.2475 -0.3022  0.1674
 1040SOL     ow 4157   2.065   6.669   2.530 -0.2575 -0.7107 -0.4218
 1040SOL     hw 4158   2.128   6.601   2.505  0.2614  0.1367 -1.5030
 1040SOL     hw 4159   2.027   6.698   2.447  0.1672  0.9220 -0.0695
 1040SOL     vw 4160   2.068   6.664   2.515 -0.1329 -0.3836 -0.5181
 1041SOL     ow 4161   1.500   0.028   4.317  0.0359  0.3109  0.0810
 1041SOL     hw 4162   1.483  -0.057   4.358 -1.6154  0.8277  0.5251
 1041SOL     hw 4163   1.540   0.005   4.233  2.0044 -0.8002  1.2361
 1041SOL     vw 4164   1.503   0.014   4.311  0.0778  0.2324  0.2921
 1042SOL     ow 4165   3.235   4.262   4.980  0.3721  0.2968 -0.6379
 1042SOL     hw 4166   3.190   4.280   4.898  0.6592 -1.8238 -1.3211
 1042SOL     hw 4167   3.173   4.211   5.032  0.4273  1.0686  0.2164
 1042SOL     vw 4168   3.221   4.258   4.976  0.4172  0.1187 -0.6151
 1043SOL     ow 4169   4.853   5.767   1.918 -0.5562  0.8211 -0.0895
 1043SOL     hw 4170   4.762   5.773   1.889 -0.2536  1.8611 -0.9013
 1043SOL     hw 4171   4.858   5.824   1.994 -0.3714  1.5541 -0.6415
 1043SOL     vw 4172   4.841   5.775   1.924 -0.4921  1.0548 -0.2695
 1044SOL     ow 4173   0.770   2.761   0.544 -0.1407 -0.5317 -0.2326
 1044SOL     hw 4174   0.732   2.848   0.554  1.2954  0.1297 -0.3243
 1044SOL     hw 4175   0.779   2.749   0.449 -1.0119 -1.1005 -0.2560
 1044SOL     vw 4176   0.766   2.771   0.533 -0.0661 -0.5195 -0.2478
 1045SOL     ow 4177   5.013   4.056   3.037 -0.0741  0.6031  0.9465
 1045SOL     hw 4178   4.983   3.981   3.089 -0.5218  0.3077  0.2720
 1045SOL     hw 4179   4.953   4.059   2.963  0.2446  1.3359  0.7146
 1045SOL     vw 4180   5.001   4.046   3.034 -0.0913  0.6607  0.8271
 1046SOL     ow 4181   6.466   3.593   6.173 -0.4842 -0.0340 -0.1587
 1046SOL     hw 4182   6.536   3.634   6.224 -0.4651  0.1659 -0.3448
 1046SOL     hw 4183   6.391   3.651   6.183 -0.9246 -0.7392  0.8369
 1046SOL     vw 4184   6.465   3.606   6.181 -0.5400 -0.1007 -0.0520
 1047SOL     ow 4185   0.169   5.957   2.310 -0.7493 -0.4025  0.6755
 1047SOL     hw 4186   0.162   5.914   2.225 -1.1680  1.9369 -0.5507
 1047SOL     hw 4187   0.089   5.933   2.356 -1.9159  0.5777 -0.7508
 1047SOL     vw 4188   0.158   5.948   2.305 -0.9584  0.0355  0.3257
 1048SOL     ow 4189   7.096   2.504   1.661  0.1820 -0.1424  0.5568
 1048SOL     hw 4190   7.185   2.509   1.694 -0.0034 -1.2863  1.2832
 1048SOL     hw 4191   7.041   2.505   1.739 -0.6880  3.5530  0.0879
 1048SOL     vw 4192   7.100   2.505   1.676  0.0427  0.1942  0.5908
 1049SOL     ow 4193   2.129   3.615   0.139  0.0540  0.1740  0.2880
 1049SOL     hw 4194   2.036   3.633   0.126 -0.1885 -0.1901  1.4623
 1049SOL     hw 4195   2.155   3.671   0.212  0.6357 -0.1054  0.3020
 1049SOL     vw 4196   2.120   3.625   0.147  0.0987  0.0889  0.4448
 1050SOL     ow 4197   1.956   3.985   6.170  0.1941 -0.4053  0.7061
 1050SOL     hw 4198   1.957   4.020   6.081  1.0335 -2.8306 -0.3516
 1050SOL     hw 4199   1.874   3.936   6.176  0.1621 -0.2941  1.2393
 1050SOL     vw 4200   1.946   3.983   6.159  0.3007 -0.7107  0.6368
 1051SOL     ow 4201   4.391   5.575   1.271  0.0588 -0.0793  0.0974
 1051SOL     hw 4202   4.449   5.649   1.257 -1.8102  1.1226 -2.0684
 1051SOL     hw 4203   4.388   5.530   1.186  0.6116 -2.2988  1.1717
 1051SOL     vw 4204   4.398   5.579   1.258 -0.1149 -0.2136 -0.0466
 1052SOL     ow 4205   5.456   0.430   3.681  0.1508 -0.8935 -0.0221
 1052SOL     hw 4206   5.489   0.512   3.644  0.8903 -0.6184  1.2006
 1052SOL     hw 4207   5.363   0.430   3.660  0.3571 -0.3009 -1.0227
 1052SOL     vw 4208   5.448   0.441   3.673  0.2756 -0.7790  0.0073
 1053SOL     ow 4209   6.911   4.311   2.430  0.3189  0.1198  0.6061
 1053SOL     hw 4210   6.948   4.378   2.487  1.4127  1.5801 -1.6774
 1053SOL     hw 4211   6.868   4.360   2.359  2.3831 -1.4779 -1.9509
 1053SOL     vw 4212   6.910   4.326   2.428  0.7358  0.1018 -0.0324
 1054SOL     ow 4213   1.889   1.571   6.536 -0.1260  0.1683  0.0513
 1054SOL     hw 4214   1.914   1.663   6.546  2.1629 -0.6011  2.8031
 1054SOL     hw 4215   1.822   1.556   6.602 -0.7722 -0.0919 -0.6418
 1054SOL     vw 4216   1.884   1.581   6.546  0.0907  0.0325  0.3228
 1055SOL     ow 4217   6.252   6.748   0.625 -0.1747 -0.7114 -0.4096
 1055SOL     hw 4218   6.297   6.675   0.669  2.6204  0.5428 -0.9556
 1055SOL     hw 4219   6.246   6.816   0.691  2.5833  0.5906 -1.3445
 1055SOL     vw 4220   6.257   6.747   0.640  0.5581 -0.3741 -0.6050
 1056SOL     ow 4221   5.760   6.963   4.817  0.8707  0.1031 -0.7273
 1056SOL     hw 4222   5.815   7.039   4.799  1.4877 -0.5852 -1.8638
 1056SOL     hw 4223   5.684   6.998   4.863  1.0059  1.4490 -1.4950
 1056SOL     vw 4224   5.757   6.977   4.821  0.9701  0.1898 -0.9785
 1057SOL     ow 4225   2.227   0.991   1.108 -0.1854 -0.5622 -0.4390
 1057SOL     hw 4226   2.142   1.019   1.142 -0.3003 -1.9358  0.4973
 1057SOL     hw 4227   2.227   0.896   1.119  2.8958 -0.3577  3.1265
 1057SOL     vw 4228   2.216   0.982   1.114  0.2058 -0.7165  0.1550
 1058SOL     ow 4229   2.872   3.293   3.506 -0.9332  0.2190  0.0195
 1058SOL     hw 4230   2.830   3.271   3.589 -1.8211 -1.0730 -0.7433
 1058SOL     hw 4231   2.805   3.278   3.440 -1.2330  4.1016 -0.7571
 1058SOL     vw 4232   2.858   3.288   3.508 -1.0899  0.5609 -0.1837
 1059SOL     ow 4233   4.714   1.396   6.620  0.2498 -0.2586  0.2810
 1059SOL     hw 4234   4.765   1.318   6.644  1.8809  0.0712 -1.8012
 1059SOL     hw 4235   4.697   1.386   6.527 -0.7352  1.2308  0.2684
 1059SOL     vw 4236   4.719   1.384   6.611  0.3350 -0.0186  0.0048
 1060SOL     ow 4237   6.348   5.565   4.240  0.4934  0.0654 -0.7758
 1060SOL     hw 4238   6.358   5.655   4.210  0.7270  0.1397 -0.4693
 1060SOL     hw 4239   6.292   5.524   4.173  0.5392  0.3855 -1.0108
 1060SOL     vw 4240   6.342   5.571   4.227  0.5307  0.1175 -0.7663
 1061SOL     ow 4241   3.826   6.952   3.409  0.0024 -0.2459 -0.4761
 1061SOL     hw 4242   3.896   6.943   3.344  1.0862  0.9587  0.4630
 1061SOL     hw 4243   3.846   6.884   3.474 -0.0718 -0.3263 -0.5379
 1061SOL     vw 4244   3.838   6.942   3.409  0.1355 -0.0975 -0.3603
 1062SOL     ow 4245   4.441   6.592   5.209 -0.1057 -0.3666 -0.1276
 1062SOL     hw 4246   4.428   6.549   5.124 -1.3201  1.3247 -0.8382
 1062SOL     hw 4247   4.534   6.613   5.211  0.1165 -1.2335 -0.6246
 1062SOL     vw 4248   4.451   6.589   5.198 -0.2365 -0.2580 -0.2868
 1063SOL     ow 4249   5.915   0.270   6.602 -0.3594  0.0242 -0.7217
 1063SOL     hw 4250   5.853   0.230   6.541 -0.0474 -0.0530 -0.9931
 1063SOL     hw 4251   5.918   0.209   6.676 -0.8932  0.2196 -0.5359
 1063SOL     vw 4252   5.907   0.256   6.604 -0.3889  0.0398 -0.7329
 1064SOL     ow 4253   2.419   4.147   2.192 -0.7421  0.4613  0.7503
 1064SOL     hw 4254   2.385   4.093   2.121 -1.3003  1.4756  0.2228
 1064SOL     hw 4255   2.406   4.095   2.271  2.0825 -1.7286 -0.0695
 1064SOL     vw 4256   2.413   4.133   2.193 -0.4432  0.3061  0.5726
 1065SOL     ow 4257   2.907   6.787   4.358 -0.1573  0.0099 -0.3228
 1065SOL     hw 4258   2.910   6.779   4.263  0.6281 -1.2271 -0.2273
 1065SOL     hw 4259   2.821   6.822   4.377 -2.1708 -3.8014 -1.2931
 1065SOL     vw 4260   2.896   6.790   4.348 -0.3194 -0.6564 -0.4382
 1066SOL     ow 4261   3.085   6.745   0.813 -0.0671 -0.3673 -0.0739
 1066SOL     hw 4262   3.072   6.653   0.792 -1.6765 -0.3926  0.9370
 1066SOL     hw 4263   3.006   6.772   0.858  0.1902  1.6342 -0.6842
 1066SOL     vw 4264   3.073   6.737   0.816 -0.2453 -0.1068 -0.0211
 1067SOL     ow 4265   2.325   5.366   5.222  0.2461  0.4577  0.3404
 1067SOL     hw 4266   2.299   5.279   5.192  2.6609 -0.8017  1.6163
 1067SOL     hw 4267   2.246   5.420   5.209 -2.4470 -2.5870  2.3700
 1067SOL     vw 4268   2.311   5.361   5.216  0.2095 -0.1101  0.7763
 1068SOL     ow 4269   0.509   5.157   1.654 -0.3137 -0.5791 -0.1529
 1068SOL     hw 4270   0.539   5.097   1.585 -1.1041 -0.6062 -0.4807
 1068SOL     hw 4271   0.429   5.195   1.619 -0.7613 -0.6472  0.7838
 1068SOL     vw 4272   0.502   5.154   1.640 -0.4771 -0.5918 -0.0725
 1069SOL     ow 4273   5.116   0.682   1.155  0.4196  0.1448 -0.0985
 1069SOL     hw 4274   5.115   0.713   1.246  0.4003  1.0648 -0.4000
 1069SOL     hw 4275   5.091   0.590   1.161 -2.2145  0.8243  0.6027
 1069SOL     vw 4276   5.112   0.674   1.168  0.0696  0.3558 -0.0458
 1070SOL     ow 4277   2.641   4.221   2.098  0.0643  0.4327 -0.2805
 1070SOL     hw 4278   2.554   4.198   2.129 -1.1903  2.8357 -1.6595
 1070SOL     hw 4279   2.641   4.196   2.005  0.5914  1.0376 -0.4562
 1070SOL     vw 4280   2.630   4.215   2.090 -0.0316  0.8295 -0.4855
 1071SOL     ow 4281   3.705   4.418   4.532  0.0705 -0.0915  0.0470
 1071SOL     hw 4282   3.738   4.480   4.467 -0.4597 -1.6974 -1.8447
 1071SOL     hw 4283   3.618   4.451   4.555  0.6509  1.0276  0.7574
 1071SOL     vw 4284   3.698   4.431   4.527  0.0770 -0.1559 -0.1090
 1072SOL     ow 4285   2.913   3.948   6.175  0.9585 -0.3129  1.0102
 1072SOL     hw 4286   2.837   3.908   6.218 -1.3507 -0.8026 -2.9565
 1072SOL     hw 4287   2.976   3.876   6.166 -0.7456 -1.6784 -0.9369
 1072SOL     vw 4288   2.911   3.933   6.179  0.4290 -0.5578  0.2298
 1073SOL     ow 4289   2.357   5.935   0.379  0.6471  0.3854  0.3997
 1073SOL     hw 4290   2.344   6.010   0.321 -0.1239  0.1990  0.3159
 1073SOL     hw 4291   2.311   5.959   0.459 -1.2827 -0.7463 -0.2868
 1073SOL     vw 4292   2.349   5.948   0.382  0.2908  0.2117  0.2981
 1074SOL     ow 4293   1.870   2.218   1.928  0.1323 -0.0878  0.5639
 1074SOL     hw 4294   1.929   2.251   1.995  0.1043  0.1306  0.4808
 1074SOL     hw 4295   1.925   2.206   1.851  0.1293 -0.1754  0.5749
 1074SOL     vw 4296   1.885   2.220   1.926  0.1281 -0.0706  0.5544
 1075SOL     ow 4297   3.505   7.031   3.448 -0.2908 -0.2462  0.0994
 1075SOL     hw 4298   3.449   7.084   3.392  0.1358  0.0801 -0.0200
 1075SOL     hw 4299   3.456   7.023   3.530 -0.9667 -0.8196 -0.3424
 1075SOL     vw 4300   3.491   7.037   3.451 -0.3237 -0.2785  0.0253
 1076SOL     ow 4301   2.207   4.808   2.385 -0.4373 -0.6670  0.2710
 1076SOL     hw 4302   2.123   4.847   2.410  0.5427  1.0174  1.0911
 1076SOL     hw 4303   2.205   4.721   2.424 -1.3424 -0.2271  1.2718
 1076SOL     vw 4304   2.195   4.802   2.393 -0.4274 -0.3867  0.5113
 1077SOL     ow 4305   4.021   5.462   2.776 -0.2036  0.7079 -0.0876
 1077SOL     hw 4306   3.972   5.474   2.695  0.4500 -1.9164 -0.9781
 1077SOL     hw 4307   4.111   5.487   2.753  0.9852 -4.0166 -1.7087
 1077SOL     vw 4308   4.027   5.467   2.762  0.0396 -0.2620 -0.4189
 1078SOL     ow 4309   6.153   6.703   3.783  0.5225 -0.0953  0.1886
 1078SOL     hw 4310   6.170   6.694   3.877 -0.1030  0.2780  0.3417
 1078SOL     hw 4311   6.240   6.718   3.745  0.5361  2.4867  1.0378
 1078SOL     vw 4312   6.167   6.703   3.791  0.4413  0.2947  0.3208
 1079SOL     ow 4313   5.041   4.192   6.571  0.2501 -0.4425 -0.0636
 1079SOL     hw 4314   5.051   4.208   6.477  1.7597  1.5818  0.3617
 1079SOL     hw 4315   5.118   4.141   6.595  0.0574 -0.6367  0.1462
 1079SOL     vw 4316   5.052   4.188   6.562  0.4241 -0.2010  0.0200
 1080SOL     ow 4317   1.541   4.553   0.579  0.0100  0.1808  0.3902
 1080SOL     hw 4318   1.492   4.472   0.566  0.8916 -0.6663  1.9991
 1080SOL     hw 4319   1.492   4.619   0.530 -1.4588 -1.0636  0.1055
 1080SOL     vw 4320   1.528   4.551   0.571 -0.0674 -0.0949  0.5649
 1081SOL     ow 4321   3.934   2.491   3.155  0.5109  0.3058  0.2959
 1081SOL     hw 4322   3.939   2.496   3.060 -3.6947  2.3616 -0.0525
 1081SOL     hw 4323   3.979   2.569   3.186 -0.2975  1.0156 -0.2569
 1081SOL     vw 4324   3.940   2.502   3.147 -0.1506  0.6707  0.1771
 1082SOL     ow 4325   3.157   2.751   1.260  0.5636 -0.3618 -0.3707
 1082SOL     hw 4326   3.243   2.733   1.222 -0.0832 -1.6751 -1.2918
 1082SOL     hw 4327   3.126   2.666   1.292 -0.3048  0.1320  0.1608
 1082SOL     vw 4328   3.164   2.738   1.259  0.3637 -0.4699 -0.4221
 1083SOL     ow 4329   2.773   2.584   0.992 -0.3707 -0.0434 -0.6643
 1083SOL     hw 4330   2.823   2.628   1.061  0.0387 -0.9009 -0.4026
 1083SOL     hw 4331   2.740   2.505   1.034  0.1183 -0.7142 -1.5266
 1083SOL     vw 4332   2.776   2.580   1.007 -0.2521 -0.2451 -0.7435
 1084SOL     ow 4333   0.849   1.162   6.037  0.1029 -0.1068 -0.3547
 1084SOL     hw 4334   0.908   1.231   6.006 -0.1136  0.4958  0.5637
 1084SOL     hw 4335   0.863   1.158   6.131 -3.1185  1.8064  0.3432
 1084SOL     vw 4336   0.859   1.171   6.045 -0.3507  0.2252 -0.1416
 1085SOL     ow 4337   2.533   3.772   2.566  0.2971  0.0491  0.4382
 1085SOL     hw 4338   2.604   3.710   2.586  1.6527  1.8100  1.3202
 1085SOL     hw 4339   2.538   3.838   2.634 -0.3234  1.8098 -1.1342
 1085SOL     vw 4340   2.543   3.772   2.578  0.3942  0.5137  0.3470
 1086SOL     ow 4341   3.963   0.223   5.384  0.2900  0.6418 -0.1186
 1086SOL     hw 4342   3.935   0.139   5.421  2.2347  0.7000  1.6716
 1086SOL     hw 4343   4.022   0.199   5.313  0.4282  0.4737  0.0490
 1086SOL     vw 4344   3.967   0.208   5.380  0.5648  0.6273  0.1400
 1087SOL     ow 4345   7.114   4.465   6.436  0.9638  0.4698 -0.6256
 1087SOL     hw 4346   7.095   4.557   6.419 -1.1886 -0.1317 -1.9961
 1087SOL     hw 4347   7.070   4.419   6.364  1.1435 -1.6842  0.5780
 1087SOL     vw 4348   7.106   4.471   6.424  0.7036  0.1061 -0.6475
 1088SOL     ow 4349   3.327   0.814   6.464  0.0308  0.8092  0.7834
 1088SOL     hw 4350   3.345   0.908   6.468 -0.0129  0.8757 -0.1757
 1088SOL     hw 4351   3.257   0.807   6.399 -0.4404  0.1730  1.3618
 1088SOL     vw 4352   3.320   0.826   6.456 -0.0372  0.7340  0.7331
 1089SOL     ow 4353   1.714   6.358   5.841  0.6567  0.5129 -0.1896
 1089SOL     hw 4354   1.639   6.309   5.876  1.9002 -2.5853 -1.4823
 1089SOL     hw 4355   1.787   6.296   5.845  2.1782  1.9421 -2.7874
 1089SOL     vw 4356   1.713   6.343   5.846  1.0216  0.2928 -0.7029
 1090SOL     ow 4357   4.812   0.561   2.396  0.3668  0.4222 -0.3996
 1090SOL     hw 4358   4.876   0.617   2.439 -0.0666  1.4716 -1.0744
 1090SOL     hw 4359   4.746   0.543   2.464  0.3556  0.9857 -0.2551
 1090SOL     vw 4360   4.812   0.566   2.411  0.3080  0.6350 -0.4696
 1091SOL     ow 4361   2.295   3.143   4.822 -0.5837 -0.5300 -0.0813
 1091SOL     hw 4362   2.337   3.123   4.739  0.2430  1.8484 -0.2907
 1091SOL     hw 4363   2.232   3.212   4.802 -0.8453 -0.3786  1.1652
 1091SOL     vw 4364   2.292   3.149   4.809 -0.5091 -0.1963  0.0558
 1092SOL     ow 4365   0.783   3.313   1.992  1.1770  0.0368  0.2190
 1092SOL     hw 4366   0.742   3.388   2.036  0.5712  0.7172 -1.4274
 1092SOL     hw 4367   0.711   3.271   1.945  2.0207  0.1760 -1.2522
 1092SOL     vw 4368   0.768   3.317   1.992  1.2084  0.1448 -0.1924
 1093SOL     ow 4369   0.346   1.397   6.321  0.4106 -0.0512  0.0968
 1093SOL     hw 4370   0.280   1.448   6.275 -0.4754 -1.6014 -0.4422
 1093SOL     hw 4371   0.404   1.462   6.360 -0.1800  1.3433 -1.2330
 1093SOL     vw 4372   0.345   1.412   6.320  0.2158 -0.0717 -0.1500
 1094SOL     ow 4373   2.124   4.970   4.577 -0.4078 -0.0885 -0.4086
 1094SOL     hw 4374   2.067   4.937   4.646 -2.9051  2.6055 -0.9492
 1094SOL     hw 4375   2.159   5.052   4.612  0.9493 -0.3204 -1.1501
 1094SOL     vw 4376   2.121   4.977   4.590 -0.5583  0.2363 -0.5774
 1095SOL     ow 4377   5.906   3.015   4.801 -0.1031  0.2685  0.1971
 1095SOL     hw 4378   5.972   2.986   4.865  0.7966  2.2667  0.2440
 1095SOL     hw 4379   5.930   2.969   4.721 -0.4858 -1.3037  0.9299
 1095SOL     vw 4380   5.918   3.005   4.799 -0.0346  0.3247  0.2999
 1096SOL     ow 4381   2.220   1.408   4.719 -0.0672 -0.3652  0.0061
 1096SOL     hw 4382   2.298   1.354   4.704  0.8777  1.4714 -2.2137
 1096SOL     hw 4383   2.224   1.476   4.652 -1.3188  2.3721  2.4579
 1096SOL     vw 4384   2.231   1.410   4.708 -0.1076  0.2382  0.0367
 1097SOL     ow 4385   1.048   1.289   5.907 -0.2607 -1.3786 -0.0029
 1097SOL     hw 4386   1.121   1.350   5.915  0.2186 -1.8686 -0.5400
 1097SOL     hw 4387   1.008   1.310   5.823 -0.7435 -1.1090  0.2928
 1097SOL     vw 4388   1.052   1.300   5.897 -0.2612 -1.4077 -0.0346
 1098SOL     ow 4389   5.583   6.385   6.958  0.0487  0.1027 -0.1882
 1098SOL     hw 4390   5.642   6.428   6.896 -0.5527  1.1610 -0.0539
 1098SOL     hw 4391   5.536   6.457   7.000 -3.8731 -0.6861 -2.7124
 1098SOL     vw 4392   5.585   6.401   6.955 -0.5481  0.1380 -0.5035
 1099SOL     ow 4393   6.585   5.012   3.591 -0.1398 -0.5450 -0.7262
 1099SOL     hw 4394   6.587   4.950   3.664 -2.1150 -0.7580 -0.8067
 1099SOL     hw 4395   6.636   5.087   3.623 -0.6092 -0.8038  0.7141
 1099SOL     vw 4396   6.592   5.014   3.605 -0.4623 -0.6073 -0.5467
 1100SOL     ow 4397   2.642   1.231   6.206  0.2327 -0.2099 -0.1565
 1100SOL     hw 4398   2.606   1.291   6.272  0.9450  0.0774 -0.0256
 1100SOL     hw 4399   2.728   1.207   6.240  0.4889 -0.2761 -0.8490
 1100SOL     vw 4400   2.649   1.236   6.219  0.3605 -0.1808 -0.2306
 1101SOL     ow 4401   3.029   0.705   0.269  0.1053  0.1374 -0.8257
 1101SOL     hw 4402   3.098   0.644   0.244 -1.2562 -2.1162  0.5063
 1101SOL     hw 4403   3.056   0.739   0.354  0.8228  1.3973 -1.5294
 1101SOL     vw 4404   3.041   0.701   0.277  0.0203  0.0063 -0.7428
 1102SOL     ow 4405   2.392   5.411   3.132 -0.0074  0.4320  0.0978
 1102SOL     hw 4406   2.362   5.466   3.205 -0.4659 -2.4398  2.2825
 1102SOL     hw 4407   2.487   5.405   3.144  0.2406  1.8010 -0.9955
 1102SOL     vw 4408   2.400   5.418   3.143 -0.0352  0.2334  0.2418
 1103SOL     ow 4409   5.446   6.087   5.497 -0.1025  0.6281  0.4411
 1103SOL     hw 4410   5.498   6.154   5.454 -1.3636  0.4169 -1.5580
 1103SOL     hw 4411   5.508   6.039   5.552  1.3429  1.7375 -0.1781
 1103SOL     vw 4412   5.461   6.089   5.498 -0.0782  0.7467  0.0958
 1104SOL     ow 4413   6.870   3.793   2.013  0.8827  0.0951  0.8495
 1104SOL     hw 4414   6.843   3.760   2.099 -4.0298 -0.0693 -0.4300
 1104SOL     hw 4415   6.896   3.714   1.965  2.0715 -0.0259  1.6617
 1104SOL     vw 4416   6.870   3.778   2.018  0.3915  0.0576  0.7879
 1105SOL     ow 4417   3.811   4.586   4.347 -0.2994  0.2678 -0.3590
 1105SOL     hw 4418   3.778   4.673   4.371 -1.6235  0.1066 -1.4818
 1105SOL     hw 4419   3.834   4.593   4.254 -0.4528 -0.5886 -0.4715
 1105SOL     vw 4420   3.810   4.598   4.338 -0.4942  0.1335 -0.5219
 1106SOL     ow 4421   2.723   6.477   2.303  0.1339 -0.3391 -0.2940
 1106SOL     hw 4422   2.739   6.429   2.384  2.7607  0.1585 -0.4315
 1106SOL     hw 4423   2.788   6.443   2.241  1.4485  2.5811 -0.6904
 1106SOL     vw 4424   2.734   6.466   2.305  0.6539  0.1118 -0.3644
 1107SOL     ow 4425   4.856   2.211   2.794 -0.5675  0.3233 -0.2705
 1107SOL     hw 4426   4.882   2.266   2.719 -1.6087  0.4868 -0.5275
 1107SOL     hw 4427   4.843   2.124   2.756  0.4918  0.0173  0.0299
 1107SOL     vw 4428   4.858   2.207   2.779 -0.5651  0.3045 -0.2648
 1108SOL     ow 4429   1.594   4.759   1.883 -0.6466 -0.2205  0.3331
 1108SOL     hw 4430   1.539   4.689   1.848 -1.0231  0.0629  0.3564
 1108SOL     hw 4431   1.576   4.835   1.828 -0.7958  0.0630  0.7649
 1108SOL     vw 4432   1.585   4.760   1.871 -0.7159 -0.1459  0.3932
 1109SOL     ow 4433   1.162   0.701   4.844 -0.6051 -0.2107 -0.0356
 1109SOL     hw 4434   1.098   0.629   4.851  0.2239 -0.9067  0.5820
 1109SOL     hw 4435   1.183   0.722   4.935 -0.6276  0.6370 -0.2248
 1109SOL     vw 4436   1.156   0.694   4.857 -0.4987 -0.1907  0.0212
 1110SOL     ow 4437   0.826   2.255   2.175  0.0349 -0.2554  0.1465
 1110SOL     hw 4438   0.816   2.196   2.100 -1.3111 -0.6181  0.5831
 1110SOL     hw 4439   0.865   2.334   2.138 -0.0946 -0.6396 -0.8338
 1110SOL     vw 4440   0.830   2.258   2.160 -0.1597 -0.3538  0.0749
 1111SOL     ow 4441   3.948   6.976   1.325 -0.5674  0.0164 -0.5062
 1111SOL     hw 4442   3.961   6.948   1.234 -1.2712 -1.2245 -0.2536
 1111SOL     hw 4443   3.978   7.066   1.327 -0.8743  0.1841 -2.0653
 1111SOL     vw 4444   3.954   6.984   1.313 -0.7007 -0.1252 -0.6786
 1112SOL     ow 4445   2.529   5.218   4.632  0.2881 -0.0393  0.0694
 1112SOL     hw 4446   2.541   5.159   4.707 -1.9605  0.5864  1.0016
 1112SOL     hw 4447   2.575   5.298   4.656  2.3508 -0.9334 -0.6937
 1112SOL     vw 4448   2.537   5.221   4.645  0.2635 -0.0749  0.0913
 1113SOL     ow 4449   7.053   5.885   0.025  0.2045 -0.4416  0.1276
 1113SOL     hw 4450   6.966   5.864  -0.009  0.5436 -0.7532 -0.5709
 1113SOL     hw 4451   7.101   5.920  -0.050  0.1557  1.4006  0.9137
 1113SOL     vw 4452   7.048   5.887   0.011  0.2427 -0.2398  0.1392
 1114SOL     ow 4453   3.415   0.711   3.655  0.2220 -0.1924 -0.2757
 1114SOL     hw 4454   3.473   0.761   3.599 -0.2423  0.0180 -0.5801
 1114SOL     hw 4455   3.389   0.636   3.602  2.2087 -1.6963  0.7396
 1114SOL     vw 4456   3.419   0.708   3.641  0.4230 -0.3631 -0.1818
 1115SOL     ow 4457   4.988   6.306   0.163  0.3185  0.2607  0.5240
 1115SOL     hw 4458   5.075   6.331   0.193  0.2215  0.4376  0.6604
 1115SOL     hw 4459   4.950   6.257   0.236  0.1476  0.5427  0.6245
 1115SOL     vw 4460   4.995   6.303   0.176  0.2830  0.3211  0.5552
 1116SOL     ow 4461   4.300   5.017   3.633 -0.2575 -0.7321 -0.3350
 1116SOL     hw 4462   4.281   4.957   3.705 -0.8211 -0.8875 -0.6119
 1116SOL     hw 4463   4.361   5.080   3.671  1.2787 -2.1354 -0.3632
 1116SOL     vw 4464   4.306   5.017   3.647 -0.1292 -0.9379 -0.3754
 1117SOL     ow 4465   1.178   0.889   2.784  0.6097 -0.2789 -0.5125
 1117SOL     hw 4466   1.222   0.922   2.705 -2.0050 -1.2209 -2.5376
 1117SOL     hw 4467   1.197   0.795   2.784  1.2023 -0.1728  0.4546
 1117SOL     vw 4468   1.186   0.881   2.773  0.3430 -0.3892 -0.6521
 1118SOL     ow 4469   3.647   4.032   2.390 -0.0842 -0.1015  0.2807
 1118SOL     hw 4470   3.668   3.967   2.322  1.3731  0.1529  0.4505
 1118SOL     hw 4471   3.552   4.034   2.393 -0.2495  0.7265 -2.6011
 1118SOL     vw 4472   3.637   4.024   2.381  0.0863  0.0410 -0.0770
 1119SOL     ow 4473   1.082   0.395   4.559 -0.3335  0.1906 -0.3868
 1119SOL     hw 4474   1.005   0.393   4.502 -1.8746  1.9316  1.5012
 1119SOL     hw 4475   1.047   0.414   4.646  2.2298  0.7505  0.6023
 1119SOL     vw 4476   1.067   0.397   4.563 -0.1986  0.4942 -0.0072
 1120SOL     ow 4477   2.677   2.704   4.116 -0.1865 -0.3569 -0.0919
 1120SOL     hw 4478   2.625   2.768   4.165  0.0638 -0.1235 -0.1298
 1120SOL     hw 4479   2.764   2.708   4.155 -0.1033 -0.4920 -0.2599
 1120SOL     vw 4480   2.681   2.713   4.127 -0.1425 -0.3438 -0.1192
 1121SOL     ow 4481   6.116   3.179   4.568  0.3956 -0.9576 -0.0427
 1121SOL     hw 4482   6.194   3.198   4.621  0.5197 -2.9564  0.5761
 1121SOL     hw 4483   6.072   3.108   4.615 -0.9585 -0.9276 -1.2173
 1121SOL     vw 4484   6.121   3.172   4.581  0.2334 -1.2174 -0.1159
 1122SOL     ow 4485   0.187   1.934   5.001  0.5841  0.1641  0.5627
 1122SOL     hw 4486   0.239   1.931   4.921  0.8980  1.0547  0.7322
 1122SOL     hw 4487   0.245   1.902   5.070 -0.4760 -3.2928  0.0777
 1122SOL     vw 4488   0.201   1.929   5.000  0.4856 -0.1745  0.5209
 1123SOL     ow 4489   2.198   3.770   0.343 -0.5143 -0.0188 -0.0182
 1123SOL     hw 4490   2.257   3.843   0.325 -0.5357 -0.5355 -2.6782
 1123SOL     hw 4491   2.116   3.811   0.369 -0.2521  0.8640 -0.5452
 1123SOL     vw 4492   2.195   3.785   0.344 -0.4826  0.0294 -0.4387
 1124SOL     ow 4493   6.979   1.289   5.000  0.3308  0.5046  0.5227
 1124SOL     hw 4494   6.986   1.215   4.940 -1.5669  1.0688 -0.4879
 1124SOL     hw 4495   6.970   1.366   4.943  1.9233  1.5278  1.5459
 1124SOL     vw 4496   6.979   1.290   4.985  0.2904  0.7140  0.5243
 1125SOL     ow 4497   4.236   1.251   6.084 -0.0463 -0.3818  0.2300
 1125SOL     hw 4498   4.298   1.234   6.156  1.3695  0.9604 -0.6090
 1125SOL     hw 4499   4.182   1.324   6.115  1.0683  0.7117 -0.3078
 1125SOL     vw 4500   4.237   1.258   6.097  0.2878 -0.0605  0.0484
 1126SOL     ow 4501   5.859   4.133   4.988 -0.1505  0.3900 -0.2963
 1126SOL     hw 4502   5.841   4.214   4.940  0.9554  0.4345 -0.6509
 1126SOL     hw 4503   5.925   4.158   5.052 -0.3875 -0.0626  0.1348
 1126SOL     vw 4504   5.865   4.147   4.990 -0.0360  0.3362 -0.2866
 1127SOL     ow 4505   3.142   3.324   4.796 -0.4772 -0.2289 -0.6664
 1127SOL     hw 4506   3.081   3.268   4.748 -0.1198 -0.5898 -0.6996
 1127SOL     hw 4507   3.091   3.357   4.870 -0.9181  0.0215 -1.0695
 1127SOL     vw 4508   3.127   3.321   4.799 -0.4883 -0.2434 -0.7238
 1128SOL     ow 4509   3.863   2.448   3.938 -0.3689  0.1808 -0.1435
 1128SOL     hw 4510   3.942   2.499   3.920 -0.2699  0.2796  0.5508
 1128SOL     hw 4511   3.805   2.508   3.984 -2.0900  1.0341 -3.2171
 1128SOL     vw 4512   3.866   2.462   3.942 -0.5829  0.3065 -0.4574
 1129SOL     ow 4513   5.951   0.623   6.531  0.4371 -0.1590 -0.4283
 1129SOL     hw 4514   5.870   0.673   6.520  0.2194 -0.5427 -0.6019
 1129SOL     hw 4515   6.011   0.661   6.467  0.2809 -0.0986 -0.5394
 1129SOL     vw 4516   5.948   0.635   6.521  0.3877 -0.2016 -0.4656
 1130SOL     ow 4517   5.504   4.650   6.085  0.7115 -0.6019  0.5948
 1130SOL     hw 4518   5.456   4.610   6.158  0.0322 -0.2073  0.3766
 1130SOL     hw 4519   5.592   4.663   6.119  1.5053 -3.8604  0.1195
 1130SOL     vw 4520   5.509   4.647   6.099  0.7267 -0.9797  0.5033
 1131SOL     ow 4521   6.756   6.522   3.586  0.3387  0.5765  0.2271
 1131SOL     hw 4522   6.809   6.491   3.660  0.4255  0.3786  0.0820
 1131SOL     hw 4523   6.698   6.588   3.624  0.9562  1.0811  0.3218
 1131SOL     vw 4524   6.755   6.527   3.601  0.4315  0.6168  0.2203
 1132SOL     ow 4525   3.031   3.029   1.241 -0.0345 -0.0036 -0.8487
 1132SOL     hw 4526   2.961   3.051   1.302 -0.8505 -2.9185 -0.5749
 1132SOL     hw 4527   3.030   3.100   1.176 -2.0711  0.9262  0.1096
 1132SOL     vw 4528   3.022   3.041   1.240 -0.4108 -0.2655 -0.6861
 1133SOL     ow 4529   4.294   4.926   3.331 -0.1747 -0.0196  0.1176
 1133SOL     hw 4530   4.320   4.835   3.321 -1.9171 -0.4795 -0.6875
 1133SOL     hw 4531   4.331   4.970   3.254 -1.3591 -0.5899 -0.8261
 1133SOL     vw 4532   4.302   4.920   3.319 -0.5605 -0.1554 -0.1132
 1134SOL     ow 4533   2.500   4.643   4.326 -0.6387  0.2678  0.0477
 1134SOL     hw 4534   2.477   4.552   4.306 -0.8844  0.3357  0.0250
 1134SOL     hw 4535   2.548   4.672   4.249 -0.2457  0.0453  0.2055
 1134SOL     vw 4536   2.503   4.635   4.313 -0.6193  0.2475  0.0653
 1135SOL     ow 4537   6.853   7.145   3.211 -0.0020  0.3140 -0.5743
 1135SOL     hw 4538   6.781   7.188   3.164  0.3977  2.0973  0.3693
 1135SOL     hw 4539   6.812   7.108   3.289 -0.1476  0.0285 -0.7859
 1135SOL     vw 4540   6.838   7.146   3.215  0.0315  0.5116 -0.4776
 1136SOL     ow 4541   5.457   5.806   1.691 -0.5535 -0.3155 -0.3145
 1136SOL     hw 4542   5.459   5.818   1.596 -2.1348  0.1651 -0.3176
 1136SOL     hw 4543   5.522   5.868   1.725 -1.1178  0.6583 -0.9953
 1136SOL     vw 4544   5.466   5.816   1.683 -0.8366 -0.1235 -0.4048
 1137SOL     ow 4545   3.330   4.657   3.088 -0.2750 -0.4519  0.2749
 1137SOL     hw 4546   3.408   4.677   3.139 -0.9736  1.2471  0.7607
 1137SOL     hw 4547   3.258   4.666   3.150 -1.2849  2.9181 -1.1062
 1137SOL     vw 4548   3.330   4.661   3.103 -0.5003  0.2167  0.1568
 1138SOL     ow 4549   3.441   4.478   6.989  0.1225 -0.6493 -0.7062
 1138SOL     hw 4550   3.359   4.481   7.039  1.0905  3.4187  1.0382
 1138SOL     hw 4551   3.494   4.412   7.035 -1.2863 -1.6205 -0.4038
 1138SOL     vw 4552   3.437   4.470   7.002  0.0643 -0.2406 -0.4363
 1139SOL     ow 4553   3.551   3.395   5.621 -0.4341  0.1225  0.1118
 1139SOL     hw 4554   3.473   3.425   5.575 -0.3006  1.3983  0.6799
 1139SOL     hw 4555   3.518   3.358   5.703 -0.5445 -0.6790 -0.2859
 1139SOL     vw 4556   3.536   3.394   5.626 -0.4311  0.1850  0.1342
 1140SOL     ow 4557   1.799   3.305   1.236 -0.1016  0.3064 -0.1947
 1140SOL     hw 4558   1.733   3.306   1.167 -1.3818 -0.7176  0.9613
 1140SOL     hw 4559   1.834   3.216   1.235 -0.4204  0.1554  0.7090
 1140SOL     vw 4560   1.795   3.294   1.227 -0.3125  0.1514  0.0771
 1141SOL     ow 4561   2.957   1.862   0.546  0.3668  0.6012  0.0888
 1141SOL     hw 4562   3.002   1.823   0.621  0.1006  0.0152 -0.0463
 1141SOL     hw 4563   2.936   1.951   0.574  0.4659  0.4585  0.6279
 1141SOL     vw 4564   2.960   1.868   0.560  0.3448  0.5051  0.1422
 1142SOL     ow 4565   1.661   2.410   0.267  0.1430  0.0624  0.3278
 1142SOL     hw 4566   1.675   2.488   0.321 -1.5475  1.6605 -1.4032
 1142SOL     hw 4567   1.588   2.364   0.309 -0.5193  0.7758 -0.0235
 1142SOL     vw 4568   1.653   2.414   0.280 -0.1674  0.3673  0.0530
 1143SOL     ow 4569   7.024   4.283   2.998 -0.0231 -0.0257 -0.7284
 1143SOL     hw 4570   7.050   4.338   3.071 -0.4126 -0.1592 -0.4847
 1143SOL     hw 4571   7.101   4.279   2.941  1.2964 -2.2748  1.0550
 1143SOL     vw 4572   7.037   4.290   3.000  0.0994 -0.3402 -0.4609
 1144SOL     ow 4573   2.790   5.892   6.404  0.0288 -0.2977  0.0564
 1144SOL     hw 4574   2.768   5.955   6.471  1.8188  1.4157 -0.8617
 1144SOL     hw 4575   2.867   5.846   6.438 -1.4187 -2.2559  0.8384
 1144SOL     vw 4576   2.798   5.894   6.417  0.0739 -0.3300  0.0384
 1145SOL     ow 4577   6.062   6.888   6.322 -0.4122  0.2052 -0.5536
 1145SOL     hw 4578   6.111   6.833   6.383 -0.6742  0.2509 -0.2991
 1145SOL     hw 4579   6.108   6.971   6.322  0.2200 -0.1269 -1.2418
 1145SOL     vw 4580   6.074   6.891   6.330 -0.3636  0.1674 -0.6108
 1146SOL     ow 4581   6.452   0.733   2.390 -0.9390 -0.3740 -0.0125
 1146SOL     hw 4582   6.532   0.750   2.439 -1.6058 -2.9107  2.1627
 1146SOL     hw 4583   6.474   0.661   2.331 -0.8428  1.0019 -1.7586
 1146SOL     vw 4584   6.465   0.726   2.388 -1.0140 -0.5271  0.0441
 1147SOL     ow 4585   4.632   5.110   6.951  0.2084  0.0140  0.1730
 1147SOL     hw 4586   4.549   5.117   6.999  0.1434  0.5445 -0.0077
 1147SOL     hw 4587   4.666   5.024   6.975  0.9384  0.8525  2.3937
 1147SOL     vw 4588   4.625   5.100   6.960  0.2961  0.1943  0.4420
 1148SOL     ow 4589   1.966   3.899   0.410  0.4001 -0.1087  0.2434
 1148SOL     hw 4590   1.955   3.870   0.501 -1.8477 -1.6876 -0.4561
 1148SOL     hw 4591   1.994   3.990   0.418  2.5730 -0.8262  2.5004
 1148SOL     vw 4592   1.968   3.907   0.423  0.3903 -0.4119  0.4489
 1149SOL     ow 4593   6.713   6.078   5.557 -0.3243  0.2799 -0.5863
 1149SOL     hw 4594   6.654   6.099   5.629  1.7675 -1.5057  1.7969
 1149SOL     hw 4595   6.766   6.156   5.545  1.4511 -0.3987  2.1055
 1149SOL     vw 4596   6.712   6.091   5.565  0.1862 -0.0451  0.0834
 1150SOL     ow 4597   4.407   3.942   2.621 -0.3023  0.3139 -0.7026
 1150SOL     hw 4598   4.399   4.007   2.690 -1.0516 -0.3228 -0.1708
 1150SOL     hw 4599   4.474   3.977   2.562 -0.1006  1.1569  0.0128
 1150SOL     vw 4600   4.415   3.955   2.622 -0.3746  0.3412 -0.5380
 1151SOL     ow 4601   5.279   4.340   2.583  0.2824  0.1320  0.6106
 1151SOL     hw 4602   5.307   4.394   2.657  1.0787  0.3152  0.1947
 1151SOL     hw 4603   5.223   4.397   2.531  1.0329  0.5399  0.2300
 1151SOL     vw 4604   5.275   4.355   2.586  0.4864  0.2100  0.5056
 1152SOL     ow 4605   6.476   1.117   2.025 -0.7432 -0.3750  0.5511
 1152SOL     hw 4606   6.564   1.118   1.987 -1.5038 -2.0218 -1.4348
 1152SOL     hw 4607   6.489   1.088   2.116  0.8812  1.0530  0.8285
 1152SOL     vw 4608   6.489   1.113   2.032 -0.6292 -0.4039  0.3257
 1153SOL     ow 4609   2.458   5.997   1.482 -0.3051  0.0221 -0.1349
 1153SOL     hw 4610   2.411   5.915   1.502  0.6998 -0.6049 -0.2769
 1153SOL     hw 4611   2.388   6.059   1.460 -1.2055 -0.3562  1.4377
 1153SOL     vw 4612   2.442   5.994   1.482 -0.2912 -0.1104  0.0538
 1154SOL     ow 4613   3.847   6.226   7.169 -0.6762 -0.5391 -0.3845
 1154SOL     hw 4614   3.939   6.200   7.168 -0.2482  0.8775 -1.1095
 1154SOL     hw 4615   3.816   6.205   7.258  0.6742  0.0279  0.2408
 1154SOL     vw 4616   3.855   6.220   7.181 -0.4417 -0.2775 -0.3977
 1155SOL     ow 4617   0.404   1.580   0.601  0.0783  0.5426  0.1054
 1155SOL     hw 4618   0.360   1.653   0.558  1.8689  1.8932  0.4656
 1155SOL     hw 4619   0.469   1.550   0.538 -0.9690 -1.1280 -0.2398
 1155SOL     vw 4620   0.407   1.586   0.587  0.1764  0.5003  0.1073
 1156SOL     ow 4621   2.444   4.861   1.040  0.1848  0.3405 -0.6126
 1156SOL     hw 4622   2.374   4.893   0.982  1.5487  1.8662 -1.4825
 1156SOL     hw 4623   2.481   4.940   1.079  0.3783 -0.5684  1.0966
 1156SOL     vw 4624   2.439   4.875   1.037  0.3903  0.4220 -0.5019
 1157SOL     ow 4625   0.046   1.027   4.872  0.1351 -0.0417 -0.3584
 1157SOL     hw 4626   0.001   0.943   4.884  1.3350 -0.9190 -1.6149
 1157SOL     hw 4627   0.005   1.065   4.795 -0.3142  0.4652  0.1294
 1157SOL     vw 4628   0.035   1.021   4.863  0.2341 -0.0905 -0.4597
 1158SOL     ow 4629   0.236   1.734   2.348  0.3990 -0.1210 -0.2288
 1158SOL     hw 4630   0.257   1.664   2.411  1.7381  1.7349  1.5529
 1158SOL     hw 4631   0.149   1.713   2.317  0.4605 -2.1913  0.7922
 1158SOL     vw 4632   0.228   1.722   2.352  0.5838 -0.1493  0.1410
 1159SOL     ow 4633   0.470   0.146   0.170 -0.4480  0.3005  1.1949
 1159SOL     hw 4634   0.483   0.065   0.220  0.2761 -0.2984  0.0911
 1159SOL     hw 4635   0.524   0.134   0.092 -1.1123  1.4414  0.5367
 1159SOL     vw 4636   0.479   0.134   0.166 -0.4401  0.3720  0.9625
 1160SOL     ow 4637   4.928   1.787   1.948 -0.3047 -0.4538  0.2750
 1160SOL     hw 4638   4.844   1.754   1.980 -0.6602  1.8037  1.8698
 1160SOL     hw 4639   4.904   1.860   1.890  0.5382 -0.9538 -0.7361
 1160SOL     vw 4640   4.914   1.792   1.945 -0.2403 -0.2219  0.3520
 1161SOL     ow 4641   6.641   4.165   6.450 -0.1656 -0.3044 -0.2562
 1161SOL     hw 4642   6.624   4.259   6.460 -1.1035 -0.5773  1.0520
 1161SOL     hw 4643   6.665   4.154   6.358  0.3244  1.2614 -0.3480
 1161SOL     vw 4644   6.642   4.176   6.439 -0.2248 -0.1340 -0.0958
 1162SOL     ow 4645   2.546   6.990   6.149 -0.2108 -0.6363  0.0381
 1162SOL     hw 4646   2.600   6.911   6.146 -0.0704 -0.5283 -0.4005
 1162SOL     hw 4647   2.596   7.051   6.204 -1.5791 -1.7547  2.6747
 1162SOL     vw 4648   2.560   6.988   6.156 -0.3729 -0.7696  0.3283
 1163SOL     ow 4649   2.269   0.785   4.542  0.5825  0.3376  0.9927
 1163SOL     hw 4650   2.192   0.821   4.498  1.6610  3.8453  1.6916
 1163SOL     hw 4651   2.238   0.764   4.630 -0.2280 -1.2234  0.3699
 1163SOL     vw 4652   2.254   0.787   4.548  0.6180  0.5944  1.0028
 1164SOL     ow 4653   4.018   4.498   0.438 -0.2349  0.0029  0.2056
 1164SOL     hw 4654   4.007   4.563   0.368  1.0626  1.2922  1.1421
 1164SOL     hw 4655   3.951   4.520   0.503  0.2436  0.4416  0.5505
 1164SOL     vw 4656   4.008   4.510   0.437 -0.0007  0.2306  0.3747
 1165SOL     ow 4657   5.338   6.996   2.151  0.5878 -0.5101 -0.1850
 1165SOL     hw 4658   5.396   7.067   2.123  2.1973 -1.2565  1.0763
 1165SOL     hw 4659   5.314   7.020   2.241 -1.7774  0.1705 -0.9076
 1165SOL     vw 4660   5.342   7.009   2.160  0.4880 -0.5186 -0.1140
 1166SOL     ow 4661   0.832   6.237   2.562 -0.1846 -0.0542  0.6265
 1166SOL     hw 4662   0.785   6.155   2.576 -0.1480 -0.2679 -0.4245
 1166SOL     hw 4663   0.794   6.297   2.627 -0.5317 -0.7686  1.0973
 1166SOL     vw 4664   0.821   6.234   2.573 -0.2256 -0.1767  0.5499
 1167SOL     ow 4665   5.906   5.858   2.502 -0.3558 -0.2831 -0.8349
 1167SOL     hw 4666   5.824   5.871   2.550 -0.9567  0.9065 -2.1186
 1167SOL     hw 4667   5.884   5.791   2.437 -0.0785 -0.5352 -0.6701
 1167SOL     vw 4668   5.892   5.851   2.499 -0.3982 -0.1593 -0.9825
 1168SOL     ow 4669   4.052   3.204   6.556 -0.0422 -0.0975  0.4208
 1168SOL     hw 4670   4.056   3.146   6.480  1.0794 -1.7513  1.6819
 1168SOL     hw 4671   3.960   3.206   6.580 -0.1168 -1.2726  0.2783
 1168SOL     vw 4672   4.041   3.197   6.549  0.0958 -0.4708  0.5682
 1169SOL     ow 4673   4.974   1.678   2.989 -0.2414 -0.2450  0.0796
 1169SOL     hw 4674   4.908   1.682   2.919 -0.4582 -0.6608  0.2568
 1169SOL     hw 4675   5.048   1.633   2.950 -0.1515  0.0115 -0.0482
 1169SOL     vw 4676   4.975   1.673   2.975 -0.2584 -0.2660  0.0861
 1170SOL     ow 4677   6.103   1.723   1.692  0.1952  0.8025  0.0868
 1170SOL     hw 4678   6.089   1.808   1.734 -0.5839 -0.3443  2.2841
 1170SOL     hw 4679   6.021   1.707   1.644 -2.3048 -1.1749  4.4181
 1170SOL     vw 4680   6.090   1.732   1.691 -0.2375  0.3904  0.9482
 1171SOL     ow 4681   2.663   6.766   6.210 -0.0295  0.1453 -0.4171
 1171SOL     hw 4682   2.606   6.759   6.287 -2.2242  1.0297 -1.8518
 1171SOL     hw 4683   2.749   6.788   6.246 -0.8956  0.2036  1.7961
 1171SOL     vw 4684   2.667   6.768   6.225 -0.4333  0.2697 -0.3142
 1172SOL     ow 4685   0.029   0.490   0.176  0.5665  0.4598 -0.3336
 1172SOL     hw 4686   0.009   0.544   0.099 -1.5657 -0.9636 -0.8678
 1172SOL     hw 4687   0.087   0.544   0.229 -0.9760  3.0526 -1.1208
 1172SOL     vw 4688   0.034   0.504   0.173  0.0817  0.6141 -0.5079
 1173SOL     ow 4689   2.352   3.899   2.347  0.7374  0.1144  0.5925
 1173SOL     hw 4690   2.274   3.915   2.399  0.6033 -1.0846  0.7665
 1173SOL     hw 4691   2.416   3.864   2.409  0.7576 -0.7975  0.0689
 1173SOL     vw 4692   2.350   3.897   2.362  0.7224 -0.1642  0.5463
 1174SOL     ow 4693   3.772   0.440   2.294  0.0972 -0.5623 -0.4666
 1174SOL     hw 4694   3.744   0.464   2.383 -0.8509  2.4131 -1.4620
 1174SOL     hw 4695   3.724   0.359   2.275 -1.7274  0.1501  0.8054
 1174SOL     vw 4696   3.762   0.432   2.304 -0.2686 -0.0758 -0.4301
 1175SOL     ow 4697   0.751   5.577   5.648 -0.6379 -0.5309 -0.1689
 1175SOL     hw 4698   0.802   5.516   5.594  0.3591  0.4673 -0.3825
 1175SOL     hw 4699   0.811   5.603   5.718 -1.7168 -1.3377  1.1079
 1175SOL     vw 4700   0.766   5.572   5.650 -0.6486 -0.5054 -0.0284
 1176SOL     ow 4701   4.312   6.935   1.150 -0.0668 -0.0859 -0.1627
 1176SOL     hw 4702   4.260   6.860   1.120  1.1410 -0.7627 -0.6190
 1176SOL     hw 4703   4.266   7.011   1.115 -1.4421 -0.5716  0.5058
 1176SOL     vw 4704   4.299   6.935   1.141 -0.0892 -0.2394 -0.1347
 1177SOL     ow 4705   6.655   5.114   0.131 -0.5935 -0.5264 -0.0281
 1177SOL     hw 4706   6.569   5.144   0.161 -0.2850  0.1627  0.1989
 1177SOL     hw 4707   6.656   5.133   0.038 -0.3093  0.4012  0.1615
 1177SOL     vw 4708   6.644   5.120   0.123 -0.5155 -0.3133  0.0269
 1178SOL     ow 4709   2.778   4.889   2.339  0.3799  0.0508 -0.1409
 1178SOL     hw 4710   2.694   4.907   2.381  0.0914 -1.0834 -0.2074
 1178SOL     hw 4711   2.823   4.831   2.399 -0.9873 -3.5758 -2.3266
 1178SOL     vw 4712   2.773   4.884   2.352  0.1613 -0.5774 -0.4382
 1179SOL     ow 4713   0.879   7.060   0.948  0.3734  0.3268 -0.4547
 1179SOL     hw 4714   0.919   7.044   0.862  1.5621 -0.3528  0.1867
 1179SOL     hw 4715   0.790   7.088   0.928  0.6544  0.2912 -1.9139
 1179SOL     vw 4716   0.873   7.061   0.934  0.5673  0.2322 -0.5626
 1180SOL     ow 4717   6.342   6.012   6.911  0.2701  0.1502  0.5147
 1180SOL     hw 4718   6.304   6.068   6.843  2.3408  3.2655  1.6497
 1180SOL     hw 4719   6.357   5.928   6.869 -2.5860  0.5166 -1.4937
 1180SOL     vw 4720   6.339   6.009   6.897  0.1667  0.6094  0.3996
 1181SOL     ow 4721   2.548   1.941   1.134  0.7352  0.2690  0.4385
 1181SOL     hw 4722   2.465   1.985   1.117 -0.2783 -1.0037  1.8307
 1181SOL     hw 4723   2.549   1.867   1.074  0.9686  0.4032  0.2757
 1181SOL     vw 4724   2.537   1.937   1.124  0.6323  0.1189  0.6007
 1182SOL     ow 4725   3.391   0.990   0.842  0.2150 -0.0609  0.0541
 1182SOL     hw 4726   3.447   0.967   0.768 -1.3312  1.1788 -1.5966
 1182SOL     hw 4727   3.426   1.073   0.874 -1.4209  1.5266 -1.9597
 1182SOL     vw 4728   3.403   0.998   0.836 -0.2047  0.3121 -0.4295
 1183SOL     ow 4729   0.900   3.065   4.234 -0.0814 -0.5192 -0.4980
 1183SOL     hw 4730   0.806   3.045   4.238 -0.2324  0.3908  1.2292
 1183SOL     hw 4731   0.940   3.005   4.296  0.2151  0.3966  0.2146
 1183SOL     vw 4732   0.893   3.054   4.243 -0.0622 -0.2782 -0.1762
 1184SOL     ow 4733   4.086   6.400   6.073 -0.3232  0.6603  0.1199
 1184SOL     hw 4734   4.070   6.468   6.138 -1.6415  0.2553  0.2448
 1184SOL     hw 4735   3.999   6.367   6.050  0.1290  0.5691 -1.6136
 1184SOL     vw 4736   4.073   6.404   6.079 -0.4375  0.5949 -0.0925
 1185SOL     ow 4737   7.055   5.737   0.305 -0.1828 -1.0736 -0.2603
 1185SOL     hw 4738   7.111   5.660   0.293 -0.0914 -0.9385 -0.7628
 1185SOL     hw 4739   7.034   5.738   0.398 -0.9794 -2.2496 -0.4107
 1185SOL     vw 4740   7.060   5.727   0.316 -0.2761 -1.2109 -0.3465
 1186SOL     ow 4741   0.948   4.217   3.792 -0.4133 -0.2121 -0.4499
 1186SOL     hw 4742   0.921   4.291   3.847 -0.4566 -0.3656 -0.2620
 1186SOL     hw 4743   0.937   4.248   3.702  1.3956  0.7128 -0.4164
 1186SOL     vw 4744   0.943   4.231   3.788 -0.1804 -0.1101 -0.4207
 1187SOL     ow 4745   2.419   6.292   5.993  0.0811 -0.3561  0.0614
 1187SOL     hw 4746   2.472   6.212   6.006  1.8123  1.0212  2.2583
 1187SOL     hw 4747   2.333   6.270   6.028  0.2003 -1.5663 -0.3496
 1187SOL     vw 4748   2.415   6.278   5.999  0.3252 -0.3340  0.2968
 1188SOL     ow 4749   6.362   3.805   0.353 -0.1169 -0.2115  0.0664
 1188SOL     hw 4750   6.442   3.800   0.405  0.3818 -3.0307 -0.8039
 1188SOL     hw 4751   6.301   3.855   0.407  1.7035  0.6266  1.4420
 1188SOL     vw 4752   6.365   3.811   0.367  0.1888 -0.4728  0.1331
 1189SOL     ow 4753   2.401   0.297   5.347 -0.1317  0.1555 -0.2401
 1189SOL     hw 4754   2.491   0.327   5.341  0.0301 -0.5899 -2.1219
 1189SOL     hw 4755   2.405   0.219   5.403 -0.0591  1.5946  1.8702
 1189SOL     vw 4756   2.413   0.290   5.353 -0.1009  0.2471 -0.2100
 1190SOL     ow 4757   6.850   6.958   1.895  0.8036 -0.4680 -0.4472
 1190SOL     hw 4758   6.883   6.941   1.983 -0.3616  0.1220  0.1375
 1190SOL     hw 4759   6.758   6.984   1.909  0.3713 -1.1331 -1.9001
 1190SOL     vw 4760   6.842   6.959   1.909  0.5929 -0.4780 -0.5618
 1191SOL     ow 4761   7.062   4.022   1.658  0.0276  0.7610 -0.0552
 1191SOL     hw 4762   7.096   4.056   1.576  0.4012  2.1979  0.6599
 1191SOL     hw 4763   7.138   3.984   1.702 -0.0884  0.3687 -0.1935
 1191SOL     vw 4764   7.076   4.021   1.653  0.0618  0.8988  0.0210
 1192SOL     ow 4765   6.622   2.092   2.490  0.3074 -0.1048 -0.4389
 1192SOL     hw 4766   6.530   2.098   2.466  0.2967  1.9909 -0.0835
 1192SOL     hw 4767   6.629   2.143   2.571  1.4845 -1.6417  0.4899
 1192SOL     vw 4768   6.611   2.100   2.498  0.4616 -0.0310 -0.2693
 1193SOL     ow 4769   2.792   6.943   1.470  0.3344 -0.3467 -0.6944
 1193SOL     hw 4770   2.806   6.900   1.385 -0.8780  1.7956 -2.0922
 1193SOL     hw 4771   2.707   6.910   1.499 -0.1380  0.3019 -1.2872
 1193SOL     vw 4772   2.782   6.933   1.462  0.1121  0.0217 -0.9570
 1194SOL     ow 4773   0.088   4.787   1.161 -0.3900  0.4863  0.1214
 1194SOL     hw 4774   0.178   4.791   1.131  0.1354  0.2178  1.5657
 1194SOL     hw 4775   0.054   4.875   1.148 -0.0780  0.4738 -0.8619
 1194SOL     vw 4776   0.095   4.799   1.156 -0.2795  0.4494  0.1823
 1195SOL     ow 4777   1.539   3.170   5.603 -0.2852  0.1973 -0.7042
 1195SOL     hw 4778   1.485   3.243   5.633 -0.5065 -0.4951  0.6876
 1195SOL     hw 4779   1.558   3.190   5.512 -2.7290  0.5841 -1.2010
 1195SOL     vw 4780   1.534   3.182   5.595 -0.6369  0.1571 -0.5860
 1196SOL     ow 4781   5.909   1.792   2.321 -0.1942  0.2587 -0.3792
 1196SOL     hw 4782   5.833   1.767   2.374  0.1525  0.1978  0.0936
 1196SOL     hw 4783   5.954   1.858   2.374  0.4955 -0.2488 -0.3212
 1196SOL     vw 4784   5.905   1.798   2.335 -0.0577  0.1837 -0.3093
 1197SOL     ow 4785   2.324   5.214   5.444 -0.0024 -0.6065 -0.0889
 1197SOL     hw 4786   2.341   5.285   5.383 -0.3094 -1.2043 -0.8865
 1197SOL     hw 4787   2.239   5.234   5.483  0.3779 -0.0146  0.4657
 1197SOL     vw 4788   2.315   5.226   5.441  0.0072 -0.6073 -0.1211
 1198SOL     ow 4789   5.802   0.385   5.012 -0.3933  0.4405 -0.0404
 1198SOL     hw 4790   5.811   0.478   5.031 -1.8598  0.4617  0.7384
 1198SOL     hw 4791   5.734   0.355   5.073 -1.5874 -0.6378 -1.8090
 1198SOL     vw 4792   5.794   0.393   5.023 -0.7446  0.3010 -0.1712
 1199SOL     ow 4793   1.680   1.266   5.327  0.0832  0.2456  0.6565
 1199SOL     hw 4794   1.668   1.338   5.266  0.9429 -0.8574 -0.8678
 1199SOL     hw 4795   1.719   1.196   5.275 -0.4860 -1.2465  2.1379
 1199SOL     vw 4796   1.683   1.266   5.312  0.1215 -0.0969  0.6509
 1200SOL     ow 4797   0.468   6.416   6.600  0.5201  0.0030  0.1735
 1200SOL     hw 4798   0.538   6.468   6.561 -1.0419  2.2760  0.1710
 1200SOL     hw 4799   0.416   6.480   6.650 -1.9968 -1.3722 -0.5033
 1200SOL     vw 4800   0.470   6.431   6.601 -0.0181  0.1216  0.0837
 1201SOL     ow 4801   2.382   5.211   4.364 -0.0416 -0.4685  0.2511
 1201SOL     hw 4802   2.350   5.149   4.298 -0.4060 -1.1326  1.0380
 1201SOL     hw 4803   2.461   5.169   4.400 -1.4541 -1.5593  2.2965
 1201SOL     vw 4804   2.388   5.197   4.360 -0.2760 -0.7005  0.6247
 1202SOL     ow 4805   4.284   3.121   0.085  0.5502 -0.0683 -1.0225
 1202SOL     hw 4806   4.266   3.089   0.174  0.0327  1.6370 -0.4933
 1202SOL     hw 4807   4.210   3.089   0.033  0.4947 -0.4747 -0.7046
 1202SOL     vw 4808   4.272   3.112   0.090  0.4749  0.1030 -0.9107
 1203SOL     ow 4809   2.428   5.866   6.108  0.0914  0.0617 -0.1960
 1203SOL     hw 4810   2.383   5.896   6.029 -3.1998  0.9821  1.8740
 1203SOL     hw 4811   2.491   5.936   6.127  0.4925  0.1257 -1.5933
 1203SOL     vw 4812   2.431   5.879   6.100 -0.2899  0.1915 -0.1073
 1204SOL     ow 4813   6.293   5.927   0.903  0.0507 -0.6775 -0.0420
 1204SOL     hw 4814   6.264   5.879   0.825 -0.4487  3.9314 -3.0880
 1204SOL     hw 4815   6.389   5.928   0.895  0.0387 -0.8116 -0.2259
 1204SOL     vw 4816   6.302   5.921   0.891 -0.0167 -0.0870 -0.4681
 1205SOL     ow 4817   3.200   2.130   1.900  0.0407  0.4627  0.3183
 1205SOL     hw 4818   3.147   2.136   1.820 -0.7537  0.4343  0.8304
 1205SOL     hw 4819   3.136   2.114   1.970  0.6876  0.8855  1.0192
 1205SOL     vw 4820   3.184   2.129   1.899  0.0212  0.5149  0.4783
 1206SOL     ow 4821   2.298   2.102   2.369  0.3981 -0.2819  0.6427
 1206SOL     hw 4822   2.369   2.151   2.327 -0.6016  1.4493  0.8748
 1206SOL     hw 4823   2.336   2.071   2.451  0.5539  1.8929  1.4824
 1206SOL     vw 4824   2.312   2.105   2.375  0.2869  0.2334  0.7843
 1207SOL     ow 4825   2.138   0.417   3.749 -0.3803  0.1009 -0.3817
 1207SOL     hw 4826   2.192   0.471   3.806 -2.3608  1.1455  0.6212
 1207SOL     hw 4827   2.199   0.355   3.709  1.6186  1.6570  0.1145
 1207SOL     vw 4828   2.153   0.416   3.752 -0.3779  0.4440 -0.1838
 1208SOL     ow 4829   4.700   5.416   2.671 -0.1992  0.2498 -0.7954
 1208SOL     hw 4830   4.636   5.485   2.655  0.9241  1.2274 -1.1975
 1208SOL     hw 4831   4.729   5.430   2.761  0.1256  0.3777 -0.9206
 1208SOL     vw 4832   4.695   5.427   2.681 -0.0081  0.3955 -0.8651
 1209SOL     ow 4833   4.490   2.736   6.050 -0.0872  0.1197 -0.7538
 1209SOL     hw 4834   4.516   2.661   6.103 -0.0456  1.4729  1.2104
 1209SOL     hw 4835   4.406   2.764   6.087 -0.5111  0.5821 -1.9918
 1209SOL     vw 4836   4.482   2.729   6.062 -0.1376  0.3593 -0.6578
 1210SOL     ow 4837   4.915   3.153   2.005 -0.0197 -0.0604 -0.7996
 1210SOL     hw 4838   4.946   3.192   1.923  0.5377 -0.5686 -0.8442
 1210SOL     hw 4839   4.955   3.066   2.006  0.2811  0.0707  0.1787
 1210SOL     vw 4840   4.925   3.147   1.994  0.0939 -0.1103 -0.6763
 1211SOL     ow 4841   4.277   3.621   3.999 -0.2363 -0.8023 -0.3993
 1211SOL     hw 4842   4.315   3.677   3.931  2.2102 -1.6904  0.1331
 1211SOL     hw 4843   4.268   3.536   3.956  1.2973 -1.3605  0.2989
 1211SOL     vw 4844   4.281   3.617   3.984  0.2890 -0.9931 -0.2370
 1212SOL     ow 4845   5.244   1.669   0.203  0.2354  0.1731 -0.0124
 1212SOL     hw 4846   5.235   1.718   0.285 -0.3558 -0.0583  0.0660
 1212SOL     hw 4847   5.164   1.689   0.154 -0.5988 -1.5773  0.5027
 1212SOL     vw 4848   5.232   1.678   0.208  0.0474 -0.0885  0.0659
 1213SOL     ow 4849   6.651   4.785   5.100 -0.4831 -0.0986  0.8201
 1213SOL     hw 4850   6.723   4.751   5.153 -0.4950  0.5713  1.2726
 1213SOL     hw 4851   6.572   4.754   5.144 -0.5187  1.3012  1.8007
 1213SOL     vw 4852   6.650   4.776   5.113 -0.4892  0.1743  1.0095
 1214SOL     ow 4853   2.483   2.737   5.818 -0.2503 -0.4629  0.5270
 1214SOL     hw 4854   2.407   2.686   5.789  1.2100 -2.0396 -0.7050
 1214SOL     hw 4855   2.459   2.766   5.907 -2.0768 -1.3307  0.3652
 1214SOL     vw 4856   2.470   2.734   5.826 -0.2986 -0.7856  0.3431
 1215SOL     ow 4857   4.449   6.057   4.105  0.2696 -0.0905  0.4223
 1215SOL     hw 4858   4.522   5.995   4.107 -0.1512 -0.5959  0.5709
 1215SOL     hw 4859   4.371   6.002   4.115 -0.1444  0.4167  0.0623
 1215SOL     vw 4860   4.448   6.041   4.107  0.1593 -0.0906  0.3943
 1216SOL     ow 4861   3.043   1.436   5.237  0.1703 -0.4826 -0.3813
 1216SOL     hw 4862   3.020   1.529   5.238  0.1661 -0.4786 -0.6637
 1216SOL     hw 4863   2.963   1.391   5.262 -0.2494 -0.4868 -1.6154
 1216SOL     vw 4864   3.030   1.443   5.240  0.1143 -0.4826 -0.5815
 1217SOL     ow 4865   1.390   5.825   1.965 -0.2035  0.4425 -0.6054
 1217SOL     hw 4866   1.427   5.737   1.965 -2.1590 -0.4855  1.1189
 1217SOL     hw 4867   1.303   5.814   2.003 -0.0342  3.3052  0.8925
 1217SOL     vw 4868   1.383   5.812   1.970 -0.4392  0.6976 -0.1802
 1218SOL     ow 4869   1.055   0.303   4.182 -0.0771 -0.6541  0.5507
 1218SOL     hw 4870   0.989   0.298   4.251 -2.4415 -0.3922 -1.5924
 1218SOL     hw 4871   1.064   0.397   4.164 -0.9428 -0.8067 -0.7950
 1218SOL     vw 4872   1.048   0.315   4.189 -0.5032 -0.6397  0.0901
 1219SOL     ow 4873   1.308   0.307   6.322 -0.3153 -0.4366 -0.3066
 1219SOL     hw 4874   1.398   0.284   6.298  0.0064 -0.2748  0.7053
 1219SOL     hw 4875   1.273   0.349   6.244  0.6170 -0.1511 -0.5856
 1219SOL     vw 4876   1.315   0.309   6.308 -0.1499 -0.3776 -0.2098
 1220SOL     ow 4877   4.908   3.158   2.306  0.0502  0.3657 -0.5401
 1220SOL     hw 4878   4.928   3.213   2.382  2.4714  1.4097 -1.8112
 1220SOL     hw 4879   4.902   3.069   2.341 -0.3012  0.9898  1.0607
 1220SOL     vw 4880   4.910   3.154   2.321  0.3233  0.5857 -0.4966
 1221SOL     ow 4881   3.056   2.997   6.872 -0.0229 -0.0781 -0.0228
 1221SOL     hw 4882   3.000   2.972   6.799  0.8453  1.3355 -1.2267
 1221SOL     hw 4883   3.071   3.091   6.860 -0.0936  0.2620  2.1495
 1221SOL     vw 4884   3.051   3.006   6.861  0.0823  0.1534  0.1051
 1222SOL     ow 4885   0.068   1.110   2.967  0.3420  0.1832  0.0354
 1222SOL     hw 4886   0.024   1.194   2.956  0.5116  0.4369  1.1791
 1222SOL     hw 4887   0.017   1.050   2.913  0.4809  1.0907 -1.1470
 1222SOL     vw 4888   0.055   1.113   2.959  0.3827  0.3364  0.0303
 1223SOL     ow 4889   1.881   5.573   6.767  0.2350  0.1435 -0.0822
 1223SOL     hw 4890   1.972   5.559   6.741  0.4475 -1.5898  1.3549
 1223SOL     hw 4891   1.832   5.505   6.719 -0.2817  0.9099 -0.6583
 1223SOL     vw 4892   1.886   5.562   6.757  0.1948  0.0160  0.0312
 1224SOL     ow 4893   3.156   0.304   6.890  0.4558 -0.1114 -0.6316
 1224SOL     hw 4894   3.239   0.352   6.897  0.0476  0.3584  1.4847
 1224SOL     hw 4895   3.091   0.363   6.927 -0.4406 -1.3976 -0.0903
 1224SOL     vw 4896   3.159   0.318   6.896  0.2837 -0.2191 -0.2809
 1225SOL     ow 4897   4.910   1.106   5.362 -0.2015 -0.6660  0.2996
 1225SOL     hw 4898   4.987   1.163   5.359 -1.3470  0.9338  0.0053
 1225SOL     hw 4899   4.871   1.122   5.448 -0.0116 -1.7813  0.6140
 1225SOL     vw 4900   4.915   1.116   5.373 -0.3276 -0.6021  0.3023
 1226SOL     ow 4901   5.566   2.690   6.165 -0.3207  0.1083  0.3019
 1226SOL     hw 4902   5.558   2.603   6.204 -0.2589  0.7147  1.7150
 1226SOL     hw 4903   5.476   2.722   6.158 -0.3590 -0.1273 -0.3992
 1226SOL     vw 4904   5.553   2.683   6.169 -0.3178  0.1572  0.3958
 1227SOL     ow 4905   6.127   5.875   7.035  0.1113  0.2920  1.2316
 1227SOL     hw 4906   6.193   5.936   7.003 -0.2660  1.5209  2.6582
 1227SOL     hw 4907   6.176   5.798   7.063  0.6718  0.2201  0.1172
 1227SOL     vw 4908   6.142   5.873   7.034  0.1354  0.4447  1.2729
 1228SOL     ow 4909   1.279   0.530   1.669  0.6590 -0.0624  0.3748
 1228SOL     hw 4910   1.248   0.469   1.736 -0.1274  0.5728  0.6159
 1228SOL     hw 4911   1.199   0.574   1.638  0.9732 -0.5468 -1.1910
 1228SOL     vw 4912   1.264   0.528   1.674  0.5967 -0.0425  0.2000
 1229SOL     ow 4913   5.909   3.195   7.035  0.4341 -0.2404 -0.1952
 1229SOL     hw 4914   5.991   3.241   7.016  0.8708 -1.1782 -0.6102
 1229SOL     hw 4915   5.854   3.213   6.959  0.5551 -0.2972 -0.2969
 1229SOL     vw 4916   5.913   3.204   7.022  0.5076 -0.3716 -0.2632
 1230SOL     ow 4917   6.423   1.422   4.457  0.2516  0.5158 -0.3621
 1230SOL     hw 4918   6.362   1.375   4.401  1.4598 -0.0759 -1.2275
 1230SOL     hw 4919   6.462   1.488   4.400  1.5367 -0.1276 -0.2542
 1230SOL     vw 4920   6.420   1.424   4.442  0.5805  0.3529 -0.4621
 1231SOL     ow 4921   2.173   6.581   3.079  0.6037 -0.5738 -0.2027
 1231SOL     hw 4922   2.079   6.561   3.077  0.3938  0.3982 -0.1439
 1231SOL     hw 4923   2.178   6.671   3.110  1.4882 -0.1675 -1.4544
 1231SOL     vw 4924   2.161   6.590   3.083  0.6927 -0.3917 -0.3601
 1232SOL     ow 4925   1.015   3.461   1.379 -0.0853  0.0900 -0.2233
 1232SOL     hw 4926   1.036   3.490   1.468  2.3524  0.7792 -0.9469
 1232SOL     hw 4927   1.051   3.529   1.323  1.3663 -1.8962 -1.8364
 1232SOL     vw 4928   1.023   3.474   1.383  0.4278 -0.0811 -0.5316
 1233SOL     ow 4929   0.520   6.764   4.310 -0.5342 -0.1775  0.1633
 1233SOL     hw 4930   0.483   6.733   4.392  0.7442  0.9004  1.2007
 1233SOL     hw 4931   0.461   6.834   4.281  0.9347  2.0821  2.2132
 1233SOL     vw 4932   0.507   6.769   4.317 -0.1717  0.2627  0.5708
 1234SOL     ow 4933   6.907   1.281   0.628  0.1161 -0.5045 -0.5037
 1234SOL     hw 4934   6.949   1.249   0.708  0.7768 -1.2166 -1.1274
 1234SOL     hw 4935   6.838   1.340   0.660 -1.0153 -2.3600  0.6684
 1234SOL     vw 4936   6.904   1.285   0.643  0.0539 -0.8432 -0.4314
 1235SOL     ow 4937   6.016   5.269   7.022  0.1771  0.1524 -0.5579
 1235SOL     hw 4938   6.079   5.339   7.038 -0.3999  0.4898  0.2809
 1235SOL     hw 4939   6.052   5.222   6.946  1.5153  0.2276  0.0008
 1235SOL     vw 4940   6.029   5.272   7.014  0.2778  0.2069 -0.3736
 1236SOL     ow 4941   3.791   3.158   0.459  0.0273 -0.8144 -0.3588
 1236SOL     hw 4942   3.864   3.209   0.422 -0.3663 -0.3887 -0.5536
 1236SOL     hw 4943   3.812   3.150   0.552 -0.7421  1.1802  0.0384
 1236SOL     vw 4944   3.803   3.164   0.466 -0.1260 -0.4952 -0.3321
 1237SOL     ow 4945   5.590   5.394   4.828  0.3472 -0.1122 -0.0464
 1237SOL     hw 4946   5.638   5.413   4.909 -0.2190  0.1962  0.2231
 1237SOL     hw 4947   5.644   5.432   4.759  1.5796 -1.6543  0.0256
 1237SOL     vw 4948   5.603   5.402   4.830  0.4351 -0.2749 -0.0014
 1238SOL     ow 4949   5.238   3.560   6.816 -0.7614 -0.4467 -0.0256
 1238SOL     hw 4950   5.148   3.590   6.801 -0.8517 -0.7769 -0.1591
 1238SOL     hw 4951   5.281   3.573   6.731 -0.9849 -1.3177 -0.2890
 1238SOL     vw 4952   5.232   3.566   6.803 -0.8028 -0.6051 -0.0780
 1239SOL     ow 4953   6.940   1.527   2.747 -0.5028  0.3621 -0.2516
 1239SOL     hw 4954   6.896   1.548   2.664 -1.3686  1.8158  0.5400
 1239SOL     hw 4955   6.931   1.606   2.800  0.5132 -0.3481  1.0534
 1239SOL     vw 4956   6.933   1.540   2.743 -0.4828  0.4601  0.0250
 1240SOL     ow 4957   5.285   2.338   0.071 -0.1621  0.5525 -0.1572
 1240SOL     hw 4958   5.258   2.342  -0.021  0.1219  2.4716 -0.1888
 1240SOL     hw 4959   5.358   2.399   0.078 -1.6017  2.1782  1.7966
 1240SOL     vw 4960   5.291   2.347   0.060 -0.3142  1.0201  0.0965
 1241SOL     ow 4961   7.006   2.616   0.303  0.4188 -0.5979  0.4380
 1241SOL     hw 4962   6.916   2.635   0.278  1.2193  1.0685 -1.4390
 1241SOL     hw 4963   6.998   2.560   0.380 -2.2005 -0.5426  0.2967
 1241SOL     vw 4964   6.993   2.611   0.310  0.1786 -0.3707  0.1717
 1242SOL     ow 4965   6.738   5.775   5.507 -0.1047  0.1782 -0.2350
 1242SOL     hw 4966   6.706   5.774   5.416 -2.4339  0.8884  0.4963
 1242SOL     hw 4967   6.752   5.868   5.527 -0.1394  0.0724  0.2982
 1242SOL     vw 4968   6.735   5.787   5.497 -0.4165  0.2580 -0.0682
 1243SOL     ow 4969   1.198   0.890   4.615 -0.6361 -0.5789  0.4224
 1243SOL     hw 4970   1.104   0.909   4.620 -0.7742 -1.1279  0.0547
 1243SOL     hw 4971   1.231   0.949   4.547 -0.0137  2.1522  2.8948
 1243SOL     vw 4972   1.190   0.900   4.606 -0.5721 -0.2910  0.6998
 1244SOL     ow 4973   3.766   2.320   3.678 -0.0502 -0.3798  0.6324
 1244SOL     hw 4974   3.677   2.354   3.670  0.5591  1.2948  0.3745
 1244SOL     hw 4975   3.768   2.244   3.620 -1.8894 -1.8271  2.3346
 1244SOL     vw 4976   3.755   2.315   3.669 -0.2126 -0.3499  0.8230
 1245SOL     ow 4977   6.495   0.520   2.205  0.8706  0.1756  0.3128
 1245SOL     hw 4978   6.451   0.443   2.167  1.0806 -0.2378  0.9102
 1245SOL     hw 4979   6.587   0.496   2.210  0.9112  0.4045  0.6766
 1245SOL     vw 4980   6.501   0.507   2.200  0.9038  0.1512  0.4395
 1246SOL     ow 4981   3.271   4.545   4.965 -0.5528  0.8874 -0.0390
 1246SOL     hw 4982   3.358   4.559   4.928 -1.3549  0.5542 -2.2758
 1246SOL     hw 4983   3.263   4.450   4.972 -1.0936  0.8492 -0.9205
 1246SOL     vw 4984   3.281   4.534   4.961 -0.7302  0.8385 -0.4506
 1247SOL     ow 4985   2.831   6.015   1.603 -0.0359  0.9951 -0.4767
 1247SOL     hw 4986   2.780   6.071   1.544 -1.9916 -2.0643 -1.9150
 1247SOL     hw 4987   2.897   5.974   1.547 -1.1735 -1.0669 -0.4043
 1247SOL     vw 4988   2.833   6.017   1.588 -0.4441  0.3195 -0.6570
 1248SOL     ow 4989   3.731   4.971   6.980  0.7622 -0.2966  0.5412
 1248SOL     hw 4990   3.715   5.013   6.896 -0.3534 -1.9683 -0.1520
 1248SOL     hw 4991   3.689   5.028   7.044  2.1049  1.2811  0.0748
 1248SOL     vw 4992   3.723   4.984   6.977  0.7923 -0.3090  0.3881
 1249SOL     ow 4993   5.512   6.765   1.084  0.0836 -0.3223  0.1394
 1249SOL     hw 4994   5.565   6.686   1.092 -0.1104 -0.3858  0.8421
 1249SOL     hw 4995   5.469   6.774   1.169 -0.4486  0.1422 -0.1710
 1249SOL     vw 4996   5.513   6.756   1.096 -0.0124 -0.2694  0.1912
 1250SOL     ow 4997   6.092   5.553   3.009  0.4362 -0.4876 -0.0271
 1250SOL     hw 4998   6.165   5.586   3.062 -0.3366 -1.3362  1.6423
 1250SOL     hw 4999   6.126   5.475   2.965  0.4162 -1.1780  1.1523
 1250SOL     vw 5000   6.106   5.547   3.010  0.3314 -0.6907  0.3489
 1251SOL     ow 5001   4.497   2.131   0.088 -0.1287 -0.5254 -0.2142
 1251SOL     hw 5002   4.486   2.037   0.100  0.7473 -0.4129  1.8438
 1251SOL     hw 5003   4.490   2.144  -0.007  1.1336 -2.8419 -0.6996
 1251SOL     vw 5004   4.495   2.121   0.077  0.1538 -0.8161 -0.0067
 1252SOL     ow 5005   6.145   2.396   0.567 -0.0962  0.0207 -0.4671
 1252SOL     hw 5006   6.238   2.385   0.551 -0.1213 -1.2235  0.1274
 1252SOL     hw 5007   6.128   2.488   0.546  0.5803 -0.4697 -3.7909
 1252SOL     vw 5008   6.155   2.407   0.562 -0.0105 -0.2083 -0.8272
 1253SOL     ow 5009   4.275   6.358   6.302 -0.7921  0.2846  0.2558
 1253SOL     hw 5010   4.361   6.393   6.323 -1.3873  1.0921  1.4904
 1253SOL     hw 5011   4.256   6.296   6.372 -1.4282  0.5137  0.2991
 1253SOL     vw 5012   4.284   6.354   6.314 -0.9549  0.4210  0.4244
 1254SOL     ow 5013   1.304   5.331   1.902 -0.1182 -0.2659  0.5783
 1254SOL     hw 5014   1.315   5.398   1.970 -0.3289 -0.3963  0.7402
 1254SOL     hw 5015   1.376   5.348   1.840 -0.4611  0.4225  0.3539
 1254SOL     vw 5016   1.315   5.342   1.903 -0.1912 -0.1924  0.5701
 1255SOL     ow 5017   0.223   7.164   0.007  0.2638  0.3786  0.0873
 1255SOL     hw 5018   0.282   7.117  -0.052 -0.3220  0.7082 -0.7817
 1255SOL     hw 5019   0.170   7.095   0.047  2.0450 -0.0609  1.8633
 1255SOL     vw 5020   0.224   7.148   0.004  0.4215  0.3643  0.2067
 1256SOL     ow 5021   1.165   3.756   5.626  0.2890 -0.1357  0.0216
 1256SOL     hw 5022   1.163   3.665   5.654 -3.3458 -0.7167 -1.5400
 1256SOL     hw 5023   1.207   3.754   5.540  0.3217 -0.3195  0.0412
 1256SOL     vw 5024   1.170   3.744   5.618 -0.1863 -0.2365 -0.1819
 1257SOL     ow 5025   6.750   6.791   6.867 -1.0514 -0.2073  0.2052
 1257SOL     hw 5026   6.733   6.833   6.951 -1.3229 -2.6152  1.4629
 1257SOL     hw 5027   6.763   6.699   6.889 -0.3545 -0.7969 -2.3331
 1257SOL     vw 5028   6.749   6.784   6.881 -0.9956 -0.6027  0.0362
 1258SOL     ow 5029   0.112   2.817   5.563 -0.5324  0.3346 -0.9736
 1258SOL     hw 5030   0.173   2.822   5.489  1.1395 -0.1516  0.3064
 1258SOL     hw 5031   0.081   2.727   5.563 -1.0145  0.4965 -1.4320
 1258SOL     vw 5032   0.116   2.806   5.553 -0.3754  0.2918 -0.8652
 1259SOL     ow 5033   3.270   4.280   6.491 -0.5582  0.1552  0.2499
 1259SOL     hw 5034   3.287   4.364   6.533  1.4484  0.2625 -0.6865
 1259SOL     hw 5035   3.253   4.220   6.564  2.0808  0.5048  1.2471
 1259SOL     vw 5036   3.270   4.283   6.506  0.0547  0.2153  0.2580
 1260SOL     ow 5037   3.968   0.223   0.432  0.5461  0.2057 -0.0462
 1260SOL     hw 5038   3.912   0.223   0.355  1.7779  1.6084 -1.0114
 1260SOL     hw 5039   3.921   0.275   0.497  0.4936  0.9206 -0.6514
 1260SOL     vw 5040   3.955   0.230   0.430  0.7015  0.4851 -0.2534
 1261SOL     ow 5041   3.032   4.194   0.486  0.1343  0.8636  0.3730
 1261SOL     hw 5042   2.995   4.112   0.454  2.1642 -0.4207  1.1098
 1261SOL     hw 5043   3.102   4.215   0.424  2.3566 -0.2431  2.3444
 1261SOL     vw 5044   3.037   4.186   0.473  0.6953  0.5481  0.7303
 1262SOL     ow 5045   6.299   1.260   6.303 -0.3620 -0.2933  0.1999
 1262SOL     hw 5046   6.365   1.214   6.355 -0.3566 -0.5262 -0.0073
 1262SOL     hw 5047   6.319   1.235   6.213 -2.2519 -2.3905  0.2809
 1262SOL     vw 5048   6.311   1.251   6.298 -0.6108 -0.6008  0.1833
 1263SOL     ow 5049   1.297   6.168   5.918 -0.0123  0.5693 -0.2434
 1263SOL     hw 5050   1.268   6.081   5.948  0.1810  0.7340  0.4345
 1263SOL     hw 5051   1.220   6.205   5.875  0.5572 -0.8943 -2.7540
 1263SOL     vw 5052   1.283   6.161   5.916  0.0884  0.3982 -0.4854
 1264SOL     ow 5053   6.515   6.136   5.726  0.1084  0.2040 -0.4039
 1264SOL     hw 5054   6.550   6.181   5.803  2.6371  0.2123 -1.4698
 1264SOL     hw 5055   6.467   6.203   5.678 -1.1258  0.2975  0.9045
 1264SOL     vw 5056   6.514   6.151   5.730  0.2792  0.2170 -0.3719
 1265SOL     ow 5057   5.171   3.617   0.752 -0.3141 -0.4287 -0.2455
 1265SOL     hw 5058   5.239   3.646   0.692 -0.6194 -0.2664 -0.5162
 1265SOL     hw 5059   5.184   3.523   0.761  0.3141 -0.3121  0.1708
 1265SOL     vw 5060   5.182   3.608   0.746 -0.2713 -0.3918 -0.2263
 1266SOL     ow 5061   3.839   2.286   5.771  1.2343  0.0772  0.0192
 1266SOL     hw 5062   3.869   2.373   5.797  0.4998 -0.3484  2.5566
 1266SOL     hw 5063   3.864   2.229   5.844  0.5688 -1.6271 -1.0067
 1266SOL     vw 5064   3.846   2.290   5.784  1.0494 -0.2037  0.2186
 1267SOL     ow 5065   6.790   4.824   4.842  0.9053  0.5639  0.0635
 1267SOL     hw 5066   6.784   4.864   4.755  0.9166  2.4247  0.8613
 1267SOL     hw 5067   6.866   4.766   4.836 -0.1694 -0.8014 -1.6647
 1267SOL     vw 5068   6.799   4.822   4.829  0.7651  0.6294 -0.0591
 1268SOL     ow 5069   5.539   6.414   1.982 -0.1812  0.3498 -0.1283
 1268SOL     hw 5070   5.470   6.361   2.023  0.2673 -0.1810 -0.0507
 1268SOL     hw 5071   5.621   6.379   2.018  0.0918  1.7214  0.6646
 1268SOL     vw 5072   5.541   6.403   1.992 -0.0858  0.4606 -0.0134
 1269SOL     ow 5073   1.737   0.355   0.900  1.2487 -0.0067 -0.8574
 1269SOL     hw 5074   1.697   0.292   0.960  1.2166  0.4607 -0.3726
 1269SOL     hw 5075   1.781   0.302   0.834  1.5208 -0.5352 -0.2576
 1269SOL     vw 5076   1.737   0.340   0.899  1.2804 -0.0147 -0.7142
 1270SOL     ow 5077   5.516   2.268   4.961  0.1784 -0.2394 -1.1744
 1270SOL     hw 5078   5.482   2.240   4.877  0.1884 -2.8279 -0.3897
 1270SOL     hw 5079   5.604   2.299   4.942 -0.6466  1.5745 -2.4167
 1270SOL     vw 5080   5.523   2.269   4.948  0.0710 -0.3417 -1.2345
 1271SOL     ow 5081   2.097   4.640   4.436  0.5150  0.9832  0.2212
 1271SOL     hw 5082   2.056   4.638   4.522 -0.0269  1.0400 -0.0284
 1271SOL     hw 5083   2.062   4.563   4.391 -1.0735  2.1999 -0.7642
 1271SOL     vw 5084   2.087   4.629   4.441  0.2339  1.1511  0.0584
 1272SOL     ow 5085   3.939   5.660   6.771 -0.9319  0.0261  0.1943
 1272SOL     hw 5086   3.861   5.696   6.814 -0.3983  0.3895  0.8814
 1272SOL     hw 5087   3.961   5.724   6.703 -1.0113  0.1087  0.2462
 1272SOL     vw 5088   3.932   5.674   6.768 -0.8719  0.0851  0.2921
 1273SOL     ow 5089   1.271   1.070   5.900  0.0651 -0.4937  0.5009
 1273SOL     hw 5090   1.364   1.095   5.896 -0.0686  0.1230  0.9889
 1273SOL     hw 5091   1.272   0.975   5.906  0.7284 -0.4317  1.7123
 1273SOL     vw 5092   1.284   1.061   5.901  0.1350 -0.4042  0.7250
 1274SOL     ow 5093   0.046   1.783   2.833  0.0261  0.6224  0.1127
 1274SOL     hw 5094  -0.034   1.766   2.882  0.3372 -2.5862 -0.2830
 1274SOL     hw 5095   0.047   1.878   2.821 -3.6770  0.8107  0.1228
 1274SOL     vw 5096   0.036   1.794   2.838 -0.4214  0.2239  0.0618
 1275SOL     ow 5097   4.735   0.932   0.886 -0.1323  0.4909  0.3756
 1275SOL     hw 5098   4.727   0.960   0.977 -0.9452  0.6436  0.2721
 1275SOL     hw 5099   4.645   0.933   0.853  0.0760 -0.1552 -0.2536
 1275SOL     vw 5100   4.722   0.936   0.893 -0.2122  0.4258  0.2789
 1276SOL     ow 5101   2.853   6.254   3.646  0.3242  0.0199  0.2880
 1276SOL     hw 5102   2.840   6.214   3.560  0.8935 -0.6937  0.5240
 1276SOL     hw 5103   2.804   6.198   3.706  0.6985 -0.0190  0.5552
 1276SOL     vw 5104   2.845   6.242   3.643  0.4487 -0.0794  0.3544
 1277SOL     ow 5105   4.635   6.247   1.616  0.1132  0.1747 -0.4051
 1277SOL     hw 5106   4.571   6.196   1.666  0.0420  0.8547  0.2257
 1277SOL     hw 5107   4.715   6.195   1.617  0.1519  0.2392  0.5498
 1277SOL     vw 5108   4.637   6.233   1.623  0.1090  0.2728 -0.1960
 1278SOL     ow 5109   3.784   4.196   2.613 -0.2666 -0.1189 -0.0101
 1278SOL     hw 5110   3.699   4.175   2.650 -0.7854  2.9600  0.8369
 1278SOL     hw 5111   3.830   4.242   2.683  1.2857  0.0969 -1.1247
 1278SOL     vw 5112   3.779   4.199   2.627 -0.1303  0.3157 -0.0455
 1279SOL     ow 5113   3.398   2.344   4.558  0.2711 -0.1148  0.2109
 1279SOL     hw 5114   3.337   2.381   4.622  0.5510  0.0357  0.3959
 1279SOL     hw 5115   3.466   2.304   4.612  0.5220  0.0349  0.0043
 1279SOL     vw 5116   3.399   2.343   4.574  0.3411 -0.0751  0.2084
 1280SOL     ow 5117   1.537   4.347   5.891  0.1343  0.5066  0.1412
 1280SOL     hw 5118   1.631   4.333   5.884  0.0873 -0.1431  0.6382
 1280SOL     hw 5119   1.508   4.363   5.802  0.4687 -1.0955 -0.2941
 1280SOL     vw 5120   1.545   4.347   5.879  0.1723  0.2096  0.1493
 1281SOL     ow 5121   3.841   1.317   2.134  0.4265 -0.4301 -0.5162
 1281SOL     hw 5122   3.794   1.297   2.053  0.9225 -0.4604 -0.8026
 1281SOL     hw 5123   3.906   1.382   2.108 -1.7821  2.4145  0.5831
 1281SOL     vw 5124   3.844   1.323   2.120  0.2005 -0.0588 -0.4091
 1282SOL     ow 5125   2.439   3.782   3.192 -0.7285  0.2908 -0.2273
 1282SOL     hw 5126   2.424   3.849   3.125 -0.1355  3.4650  2.5472
 1282SOL     hw 5127   2.355   3.735   3.197 -1.4080  1.2398 -1.8450
 1282SOL     vw 5128   2.426   3.785   3.183 -0.7399  0.8347 -0.0746
 1283SOL     ow 5129   3.134   4.943   6.949 -0.3419 -0.3569 -0.1321
 1283SOL     hw 5130   3.175   4.931   6.863  0.8608 -0.6056  0.4433
 1283SOL     hw 5131   3.204   4.920   7.011 -1.1749 -0.1310  0.9062
 1283SOL     vw 5132   3.149   4.938   6.946 -0.2931 -0.3595  0.0806
 1284SOL     ow 5133   2.800   2.496   3.537 -1.0198 -0.6093  0.1715
 1284SOL     hw 5134   2.873   2.444   3.503  0.7233  0.7993  1.5796
 1284SOL     hw 5135   2.745   2.511   3.460  0.8253 -0.6782 -1.2502
 1284SOL     vw 5136   2.803   2.491   3.522 -0.5463 -0.4327  0.1699
 1285SOL     ow 5137   6.749   1.954   1.975  0.9760 -0.0656  0.4202
 1285SOL     hw 5138   6.715   2.039   1.946  2.0339  0.0107 -0.7256
 1285SOL     hw 5139   6.716   1.892   1.910  0.5093 -0.4800  1.0460
 1285SOL     vw 5140   6.740   1.957   1.962  1.0543 -0.1101  0.3515
 1286SOL     ow 5141   5.928   5.961   0.045 -0.2983 -0.8357  0.1085
 1286SOL     hw 5142   5.904   5.990  -0.043  1.4726 -0.4663 -0.3009
 1286SOL     hw 5143   5.976   5.879   0.031 -0.4152 -1.0229  0.7795
 1286SOL     vw 5144   5.931   5.954   0.031 -0.0801 -0.8118  0.1430
 1287SOL     ow 5145   4.102   0.550   0.079  0.1682  0.2193  0.2814
 1287SOL     hw 5146   4.173   0.486   0.068  2.9201  3.1400 -0.3097
 1287SOL     hw 5147   4.042   0.531   0.007  1.3375 -1.1364 -0.4000
 1287SOL     vw 5148   4.104   0.539   0.068  0.6857  0.4258  0.1135
 1288SOL     ow 5149   7.048   5.068   5.507 -0.4055 -0.0649  0.4665
 1288SOL     hw 5150   6.961   5.047   5.540 -0.4585  1.5355  1.4747
 1288SOL     hw 5151   7.107   5.009   5.555 -0.5495  1.7867  3.1536
 1288SOL     vw 5152   7.045   5.058   5.518 -0.4315  0.3905  0.9539
 1289SOL     ow 5153   3.047   4.111   4.021 -0.6897 -0.1837 -0.1753
 1289SOL     hw 5154   3.135   4.081   4.002 -0.2641  1.1476 -0.4213
 1289SOL     hw 5155   3.049   4.205   4.001 -1.9800 -0.0092  0.4189
 1289SOL     vw 5156   3.059   4.120   4.016 -0.8038  0.0150 -0.1295
 1290SOL     ow 5157   4.566   2.484   4.133 -0.2840  0.9511  0.5226
 1290SOL     hw 5158   4.555   2.501   4.227 -1.7501  1.2247  0.3235
 1290SOL     hw 5159   4.480   2.457   4.103  0.2653  0.4659 -0.6833
 1290SOL     vw 5160   4.553   2.483   4.142 -0.4048  0.9233  0.3374
 1291SOL     ow 5161   1.628   7.074   2.367  0.2773 -0.1701  1.1645
 1291SOL     hw 5162   1.658   7.045   2.281 -1.7066  0.7188  0.1203
 1291SOL     hw 5163   1.654   7.003   2.426  0.7023 -1.3054 -0.3287
 1291SOL     vw 5164   1.636   7.061   2.363  0.0716 -0.2029  0.8298
 1292SOL     ow 5165   5.336   4.984   4.038  0.3159 -0.6853  0.8566
 1292SOL     hw 5166   5.323   4.998   4.132  5.0523  0.1990  1.6181
 1292SOL     hw 5167   5.324   5.071   3.999 -2.0374 -1.1208  0.4323
 1292SOL     vw 5168   5.333   4.997   4.045  0.6301 -0.6263  0.9010
 1293SOL     ow 5169   2.200   1.078   2.185 -0.6924  0.6376  0.4113
 1293SOL     hw 5170   2.231   1.010   2.245 -1.8560 -1.3154 -1.0969
 1293SOL     hw 5171   2.254   1.155   2.206 -0.0954 -0.3806  2.9287
 1293SOL     vw 5172   2.212   1.079   2.196 -0.7672  0.2456  0.5447
 1294SOL     ow 5173   5.451   2.495   2.626 -0.2607  0.4670 -0.0443
 1294SOL     hw 5174   5.421   2.523   2.539  0.9749  1.0149 -0.3123
 1294SOL     hw 5175   5.525   2.437   2.608 -1.7041 -1.6952  0.5629
 1294SOL     vw 5176   5.457   2.491   2.612 -0.2880  0.2540  0.0005
 1295SOL     ow 5177   3.489   6.894   1.247 -0.1614  0.0034 -0.4466
 1295SOL     hw 5178   3.532   6.816   1.282 -0.1321  0.4423  0.5130
 1295SOL     hw 5179   3.542   6.917   1.171  0.5069 -0.2516 -0.0694
 1295SOL     vw 5180   3.502   6.886   1.241 -0.0694  0.0277 -0.2702
 1296SOL     ow 5181   6.944   6.620   4.378 -0.5347 -0.4403  0.4351
 1296SOL     hw 5182   6.908   6.667   4.303 -1.5778 -0.5789  0.8333
 1296SOL     hw 5183   7.012   6.563   4.340  1.4114  1.9674  0.0594
 1296SOL     vw 5184   6.948   6.619   4.363 -0.4156 -0.1407  0.4380
 1297SOL     ow 5185   3.239   2.883   0.698  1.0862 -0.1755  0.4350
 1297SOL     hw 5186   3.274   2.901   0.611  0.1735 -2.8814 -0.6172
 1297SOL     hw 5187   3.313   2.843   0.746  0.5829 -2.4739 -0.5551
 1297SOL     vw 5188   3.254   2.880   0.693  0.8993 -0.8359  0.1655
 1298SOL     ow 5189   6.473   0.693   1.993  0.3502 -0.0163 -0.1309
 1298SOL     hw 5190   6.550   0.747   2.010 -0.0745  0.1484  1.3603
 1298SOL     hw 5191   6.473   0.627   2.062  0.1436 -1.1621 -1.1714
 1298SOL     vw 5192   6.483   0.691   2.004  0.2668 -0.1457 -0.0715
 1299SOL     ow 5193   0.617   1.408   6.567  0.2726  0.3889 -0.2304
 1299SOL     hw 5194   0.672   1.349   6.515  1.3115 -1.4164  2.6622
 1299SOL     hw 5195   0.674   1.482   6.587  0.9729 -0.4386  0.9344
 1299SOL     vw 5196   0.632   1.410   6.563  0.5021  0.0415  0.3054
 1300SOL     ow 5197   6.204   3.566   0.263  0.3777 -0.6351 -0.5173
 1300SOL     hw 5198   6.187   3.473   0.246  1.8259 -1.3483  1.5570
 1300SOL     hw 5199   6.125   3.597   0.307  0.9649 -1.6851  1.3786
 1300SOL     vw 5200   6.191   3.558   0.266  0.6461 -0.8676  0.0066
 1301SOL     ow 5201   6.181   0.219   3.978  0.1021 -0.0051  0.5769
 1301SOL     hw 5202   6.089   0.244   3.978  0.0136 -0.0374  3.6976
 1301SOL     hw 5203   6.226   0.291   4.021  0.9860 -1.5280  2.3415
 1301SOL     vw 5204   6.175   0.232   3.984  0.2072 -0.2103  1.2214
 1302SOL     ow 5205   3.259   4.316   5.619 -0.4894  0.0045 -0.4851
 1302SOL     hw 5206   3.254   4.409   5.641  0.3675 -0.3295  1.3196
 1302SOL     hw 5207   3.335   4.309   5.561 -0.6120  0.4202 -0.7030
 1302SOL     vw 5208   3.268   4.327   5.614 -0.3924  0.0155 -0.2756
 1303SOL     ow 5209   3.048   5.407   4.205 -0.2800 -0.7794  0.4118
 1303SOL     hw 5210   2.974   5.351   4.230 -0.6430  0.1241  1.4155
 1303SOL     hw 5211   3.011   5.467   4.140 -0.7902  0.5062  1.8447
 1303SOL     vw 5212   3.033   5.408   4.200 -0.3953 -0.4907  0.7331
 1304SOL     ow 5213   1.159   5.056   3.936  0.7018  0.1884  0.1661
 1304SOL     hw 5214   1.126   5.056   4.026  1.6154  0.1002  0.5112
 1304SOL     hw 5215   1.104   4.991   3.891  0.0719  0.4127  0.5919
 1304SOL     vw 5216   1.147   5.047   3.942  0.7392  0.2065  0.2679
 1305SOL     ow 5217   2.199   0.176   2.063 -0.5731 -0.3399 -0.1289
 1305SOL     hw 5218   2.168   0.133   2.142  0.4955 -0.9097  0.0039
 1305SOL     hw 5219   2.127   0.168   2.001 -0.2826 -2.6697 -0.2293
 1305SOL     vw 5220   2.186   0.169   2.065 -0.3940 -0.7225 -0.1247
 1306SOL     ow 5221   0.209   4.689   7.122 -0.4984  0.3515 -0.0400
 1306SOL     hw 5222   0.300   4.704   7.148  0.4856 -0.1643 -2.8804
 1306SOL     hw 5223   0.167   4.774   7.135  1.0007  1.2612 -0.8204
 1306SOL     vw 5224   0.216   4.702   7.127 -0.1708  0.4036 -0.5176
 1307SOL     ow 5225   1.817   0.206   0.703 -0.6264 -0.2311 -0.7746
 1307SOL     hw 5226   1.906   0.223   0.733 -0.9175  0.9154 -0.5282
 1307SOL     hw 5227   1.816   0.112   0.683  0.9092 -0.0839 -1.7014
 1307SOL     vw 5228   1.828   0.196   0.704 -0.4622 -0.0604 -0.8644
 1308SOL     ow 5229   0.956   6.296   5.837  0.4027  0.6430 -0.3446
 1308SOL     hw 5230   0.957   6.225   5.901 -0.7232  1.3285  0.4811
 1308SOL     hw 5231   0.900   6.265   5.767 -0.1982  0.7576  0.0799
 1308SOL     vw 5232   0.949   6.283   5.836  0.1749  0.7484 -0.1798
 1309SOL     ow 5233   1.210   6.351   3.602 -0.0752  0.0585 -0.2412
 1309SOL     hw 5234   1.299   6.361   3.635 -0.3584  2.2100  0.0156
 1309SOL     hw 5235   1.221   6.318   3.513  0.9553  0.0141 -0.1068
 1309SOL     vw 5236   1.223   6.348   3.595  0.0234  0.3364 -0.1894
 1310SOL     ow 5237   6.629   2.206   4.054  0.3069  0.1559  1.0260
 1310SOL     hw 5238   6.613   2.113   4.037 -1.0573  0.3983  0.8758
 1310SOL     hw 5239   6.577   2.251   3.987  0.0077  1.0399  1.8454
 1310SOL     vw 5240   6.620   2.199   4.043  0.0873  0.3045  1.1144
 1311SOL     ow 5241   2.603   3.036   5.760  0.2122 -0.0084 -0.6195
 1311SOL     hw 5242   2.663   3.082   5.819 -0.5131  0.4476 -0.2193
 1311SOL     hw 5243   2.535   3.100   5.740 -1.4586 -1.1921  0.8682
 1311SOL     vw 5244   2.602   3.050   5.765 -0.1040 -0.1044 -0.3703
 1312SOL     ow 5245   1.822   2.245   2.392  0.2611 -0.1157  0.3641
 1312SOL     hw 5246   1.841   2.324   2.341  1.1353 -0.7367 -0.3022
 1312SOL     hw 5247   1.784   2.278   2.473 -3.4588  0.8524 -1.5371
 1312SOL     vw 5248   1.820   2.259   2.396 -0.1143 -0.0699  0.0253
 1313SOL     ow 5249   0.216   2.978   7.124  0.4186 -0.0750  0.1717
 1313SOL     hw 5250   0.174   3.061   7.103 -0.7303 -0.4379  0.9051
 1313SOL     hw 5251   0.308   2.999   7.135 -0.1215  1.5306  2.3604
 1313SOL     vw 5252   0.222   2.992   7.123  0.1958  0.0889  0.5574
 1314SOL     ow 5253   4.320   4.154   3.180  0.1253  0.0277 -0.1587
 1314SOL     hw 5254   4.290   4.158   3.089  1.0043 -0.5816 -0.4866
 1314SOL     hw 5255   4.246   4.189   3.230 -1.6194 -2.3597 -0.8331
 1314SOL     vw 5256   4.306   4.159   3.174  0.0112 -0.3676 -0.2910
 1315SOL     ow 5257   4.738   3.112   5.671 -0.7588 -0.2183  0.0340
 1315SOL     hw 5258   4.684   3.122   5.593 -2.5798 -0.0094  1.2549
 1315SOL     hw 5259   4.731   3.196   5.716  0.3154 -0.3155  0.4050
 1315SOL     vw 5260   4.730   3.124   5.667 -0.8574 -0.2035  0.2439
 1316SOL     ow 5261   4.315   2.127   4.371  0.2698 -0.2302 -0.1180
 1316SOL     hw 5262   4.308   2.207   4.423  0.6094  0.7957 -1.5854
 1316SOL     hw 5263   4.401   2.091   4.393 -0.1211 -0.5264  0.9782
 1316SOL     vw 5264   4.325   2.133   4.381  0.2630 -0.1340 -0.1671
 1317SOL     ow 5265   1.456   1.740   4.029 -0.6482 -0.4397 -0.3383
 1317SOL     hw 5266   1.522   1.748   3.961 -0.5882  0.0263 -0.2344
 1317SOL     hw 5267   1.375   1.770   3.988 -0.2893  1.5135  0.2523
 1317SOL     vw 5268   1.454   1.745   4.015 -0.5929 -0.1205 -0.2465
 1318SOL     ow 5269   5.777   0.622   3.986  0.4023 -0.1085  0.2598
 1318SOL     hw 5270   5.704   0.562   3.971 -0.1825  0.2053  1.7126
 1318SOL     hw 5271   5.737   0.709   3.982  0.5944  0.0554  1.4783
 1318SOL     vw 5272   5.762   0.626   3.983  0.3505 -0.0454  0.6123
 1319SOL     ow 5273   5.359   3.979   2.483 -0.2459 -0.4081  0.4104
 1319SOL     hw 5274   5.376   3.893   2.445 -0.1689  0.3071 -1.2565
 1319SOL     hw 5275   5.286   4.014   2.433 -0.3567  0.4508  1.1429
 1319SOL     vw 5276   5.352   3.973   2.471 -0.2503 -0.2004  0.2872
 1320SOL     ow 5277   6.314   5.294   2.716  0.7975  0.4634 -0.7854
 1320SOL     hw 5278   6.221   5.291   2.739  0.9156  0.6793 -0.2639
 1320SOL     hw 5279   6.349   5.211   2.751  1.3507  1.5902  1.5492
 1320SOL     vw 5280   6.307   5.282   2.724  0.8860  0.6404 -0.4086
 1321SOL     ow 5281   4.694   3.529   4.491  0.2369  0.4668  0.5713
 1321SOL     hw 5282   4.703   3.494   4.403  2.9764 -0.5385  1.1303
 1321SOL     hw 5283   4.760   3.482   4.542 -1.2895  0.9723  3.1943
 1321SOL     vw 5284   4.704   3.518   4.486  0.3970  0.4009  0.9911
 1322SOL     ow 5285   2.300   5.806   2.163 -0.0099  0.1133  0.0050
 1322SOL     hw 5286   2.394   5.807   2.180 -0.0602  2.4904  0.5822
 1322SOL     hw 5287   2.290   5.854   2.081 -0.5973 -2.1985 -1.3672
 1322SOL     vw 5288   2.311   5.813   2.155 -0.0941  0.1221 -0.0999
 1323SOL     ow 5289   0.842   1.293   2.871 -0.0832  0.4610 -0.1508
 1323SOL     hw 5290   0.822   1.387   2.862  0.5962  0.8393  1.6703
 1323SOL     hw 5291   0.828   1.275   2.964  0.0402 -1.1996 -0.4282
 1323SOL     vw 5292   0.838   1.303   2.882  0.0227  0.2918  0.0529
 1324SOL     ow 5293   2.659   2.400   4.026  0.5774  0.0612  0.0337
 1324SOL     hw 5294   2.682   2.367   3.939  1.2941  1.3992 -0.3041
 1324SOL     hw 5295   2.727   2.366   4.084  0.2514 -0.6039  0.0377
 1324SOL     vw 5296   2.671   2.391   4.022  0.6289  0.1500 -0.0105
 1325SOL     ow 5297   2.681   0.630   5.272 -0.7259 -0.1557  0.6023
 1325SOL     hw 5298   2.705   0.548   5.315 -0.7813 -0.8928 -0.7111
 1325SOL     hw 5299   2.619   0.603   5.203  0.7566  0.7158 -1.1530
 1325SOL     vw 5300   2.676   0.615   5.269 -0.5376 -0.1380  0.1972
 1326SOL     ow 5301   1.600   1.685   2.880 -0.4356  0.1141 -0.1003
 1326SOL     hw 5302   1.553   1.697   2.962  1.5933 -0.2421  1.1744
 1326SOL     hw 5303   1.619   1.774   2.850 -2.5166  0.3034 -1.0823
 1326SOL     vw 5304   1.596   1.698   2.887 -0.4425  0.0920 -0.0616
 1327SOL     ow 5305   0.310   0.919   4.792 -0.2665 -0.5356 -0.1387
 1327SOL     hw 5306   0.383   0.924   4.731 -1.8259  0.9991 -2.0175
 1327SOL     hw 5307   0.234   0.898   4.738 -1.6697  0.5366  1.2881
 1327SOL     vw 5308   0.310   0.917   4.777 -0.6574 -0.1917 -0.1986
 1328SOL     ow 5309   0.339   1.013   5.739 -0.2500 -0.1918  0.0583
 1328SOL     hw 5310   0.380   1.063   5.669  0.5969 -1.7594 -0.6067
 1328SOL     hw 5311   0.245   1.017   5.721 -0.2947  1.8250  0.5091
 1328SOL     vw 5312   0.332   1.020   5.728 -0.1442 -0.1325  0.0300
 1329SOL     ow 5313   6.145   6.366   6.949  0.4706  0.8290  0.1532
 1329SOL     hw 5314   6.234   6.399   6.964  1.6100 -2.0345  0.2710
 1329SOL     hw 5315   6.150   6.323   6.864 -0.7456  0.3624  0.3049
 1329SOL     vw 5316   6.158   6.365   6.940  0.4604  0.3898  0.1886
 1330SOL     ow 5317   4.279   1.514   1.242 -0.4283  0.1516 -0.4432
 1330SOL     hw 5318   4.235   1.477   1.166 -0.4582 -0.3764 -0.1764
 1330SOL     hw 5319   4.305   1.438   1.294 -3.0613  0.4775  1.5992
 1330SOL     vw 5320   4.276   1.499   1.239 -0.7796  0.1249 -0.1385
 1331SOL     ow 5321   2.759   2.134   4.392 -0.0960  0.4012  0.0067
 1331SOL     hw 5322   2.752   2.175   4.305  0.8672  1.4773  0.4102
 1331SOL     hw 5323   2.702   2.186   4.448 -1.2810 -0.7310 -0.0993
 1331SOL     vw 5324   2.751   2.146   4.388 -0.1253  0.3937  0.0458
 1332SOL     ow 5325   2.045   3.792   4.129 -0.0507  0.2334 -0.3524
 1332SOL     hw 5326   2.028   3.744   4.210  0.5218 -0.3429 -0.5643
 1332SOL     hw 5327   2.136   3.821   4.137 -0.0540  0.3491 -0.7046
 1332SOL     vw 5328   2.055   3.789   4.141  0.0243  0.1726 -0.4265
 1333SOL     ow 5329   1.548   5.474   6.200 -0.4942 -0.7857 -0.2985
 1333SOL     hw 5330   1.559   5.390   6.245  1.7027  0.1282  1.0238
 1333SOL     hw 5331   1.527   5.451   6.110  1.0716 -2.7949 -0.2113
 1333SOL     vw 5332   1.546   5.460   6.194  0.0023 -0.9301 -0.1130
 1334SOL     ow 5333   2.588   5.150   3.499  0.1984  0.1330 -0.4913
 1334SOL     hw 5334   2.525   5.149   3.571  0.1984  1.4438 -0.4508
 1334SOL     hw 5335   2.544   5.198   3.429  0.4124 -0.6487 -1.1741
 1334SOL     vw 5336   2.574   5.156   3.499  0.2266  0.2027 -0.5760
 1335SOL     ow 5337   3.456   6.392   0.571  0.2105  0.5340  0.7731
 1335SOL     hw 5338   3.361   6.403   0.574  0.0052 -0.6497 -0.2954
 1335SOL     hw 5339   3.469   6.309   0.525  1.7038 -0.6565  3.1529
 1335SOL     vw 5340   3.445   6.383   0.565  0.3804  0.2208  0.9461
 1336SOL     ow 5341   6.990   6.772   2.487  0.4795 -0.1834  0.2848
 1336SOL     hw 5342   7.039   6.769   2.404  0.8849 -0.6118  0.5376
 1336SOL     hw 5343   6.899   6.782   2.461  0.5901 -0.4772 -0.2158
 1336SOL     vw 5344   6.985   6.773   2.473  0.5474 -0.2787  0.2521
 1337SOL     ow 5345   1.300   4.817   6.094  0.3069 -0.5374 -0.0755
 1337SOL     hw 5346   1.228   4.830   6.155  1.2398 -1.5540  1.3106
 1337SOL     hw 5347   1.273   4.863   6.014 -1.4827 -0.1986  0.6808
 1337SOL     vw 5348   1.287   4.825   6.092  0.1939 -0.6268  0.2069
 1338SOL     ow 5349   4.223   5.536   7.111  0.0296  0.0985 -0.5345
 1338SOL     hw 5350   4.278   5.539   7.189  2.3605 -0.3748 -2.0779
 1338SOL     hw 5351   4.171   5.457   7.122 -0.3394  0.4967  0.9042
 1338SOL     vw 5352   4.223   5.526   7.123  0.2887  0.0887 -0.5481
 1339SOL     ow 5353   6.248   1.227   1.746 -0.5438 -0.1787 -0.1498
 1339SOL     hw 5354   6.250   1.168   1.671 -0.8057 -1.0615  0.5227
 1339SOL     hw 5355   6.180   1.192   1.804 -0.3788  0.5040  0.4875
 1339SOL     vw 5356   6.239   1.215   1.744 -0.5567 -0.2051  0.0230
 1340SOL     ow 5357   3.075   3.502   0.151  0.1422 -0.3128  0.3611
 1340SOL     hw 5358   3.076   3.476   0.059 -0.4791  0.9357 -0.0233
 1340SOL     hw 5359   3.016   3.438   0.193  2.3809 -2.4760  0.4645
 1340SOL     vw 5360   3.067   3.490   0.145  0.3555 -0.4336  0.3240
 1341SOL     ow 5361   3.090   1.505   4.747  0.6901  0.0100  0.0869
 1341SOL     hw 5362   3.037   1.574   4.787 -1.3203  2.0744 -5.1287
 1341SOL     hw 5363   3.039   1.425   4.760 -1.4388  1.1342 -0.7699
 1341SOL     vw 5364   3.076   1.504   4.754  0.1439  0.4307 -0.7143
 1342SOL     ow 5365   1.542   2.531   1.239 -0.1432 -0.1808 -0.6564
 1342SOL     hw 5366   1.482   2.604   1.252 -0.8888 -0.8346 -0.3175
 1342SOL     hw 5367   1.559   2.530   1.145 -0.3460  0.2512 -0.7004
 1342SOL     vw 5368   1.536   2.540   1.229 -0.2683 -0.2100 -0.6174
 1343SOL     ow 5369   0.063   5.990   7.011  0.3333  0.1560 -0.4338
 1343SOL     hw 5370   0.058   5.964   6.919  0.0376  1.4483 -0.8075
 1343SOL     hw 5371   0.045   6.084   7.010  2.0719  0.5457  0.7503
 1343SOL     vw 5372   0.060   5.999   6.999  0.5237  0.3781 -0.3269
 1344SOL     ow 5373   1.715   5.909   6.337 -0.2105 -0.1902  0.2644
 1344SOL     hw 5374   1.759   5.985   6.375  0.3073  0.6134 -1.7806
 1344SOL     hw 5375   1.626   5.939   6.321  0.4801  0.8081 -2.3842
 1344SOL     vw 5376   1.709   5.923   6.340 -0.0511  0.0477 -0.3545
 1345SOL     ow 5377   0.233   4.145   0.185 -0.5287 -0.4955  0.3700
 1345SOL     hw 5378   0.238   4.176   0.275 -1.1402 -0.6101  0.4482
 1345SOL     hw 5379   0.158   4.085   0.184 -0.0596 -1.0965 -0.0343
 1345SOL     vw 5380   0.224   4.141   0.197 -0.5475 -0.5896  0.3270
 1346SOL     ow 5381   1.446   4.606   0.141  0.3431  0.0822 -0.5029
 1346SOL     hw 5382   1.448   4.645   0.228  2.4633 -0.5502 -0.2234
 1346SOL     hw 5383   1.448   4.512   0.157 -0.2836 -0.0648 -1.2367
 1346SOL     vw 5384   1.446   4.599   0.155  0.5401 -0.0207 -0.5628
 1347SOL     ow 5385   2.704   4.266   0.467  0.2365  0.2054 -0.0147
 1347SOL     hw 5386   2.761   4.260   0.390 -1.4026 -1.8766 -1.2007
 1347SOL     hw 5387   2.615   4.257   0.431 -0.5822 -0.7891  2.1090
 1347SOL     vw 5388   2.700   4.264   0.452 -0.0877 -0.2003  0.1090
 1348SOL     ow 5389   4.770   6.402   2.958 -0.2488  0.1588  0.6179
 1348SOL     hw 5390   4.724   6.405   3.042  0.1114 -1.6408  0.9053
 1348SOL     hw 5391   4.862   6.394   2.982 -0.0927  0.2426  0.0484
 1348SOL     vw 5392   4.776   6.402   2.972 -0.1810 -0.0677  0.5808
 1349SOL     ow 5393   3.588   4.297   6.502 -0.3201  0.0572 -0.1619
 1349SOL     hw 5394   3.627   4.370   6.453  0.2952 -0.9963 -1.2903
 1349SOL     hw 5395   3.654   4.274   6.567  1.6070 -2.3997 -2.7283
 1349SOL     vw 5396   3.602   4.304   6.504  0.0153 -0.4060 -0.6492
 1350SOL     ow 5397   7.135   4.751   1.685 -0.4500  0.3328  0.6091
 1350SOL     hw 5398   7.049   4.780   1.715 -2.2298 -1.5155 -2.1810
 1350SOL     hw 5399   7.138   4.658   1.708  1.1457  0.5190  1.2697
 1350SOL     vw 5400   7.124   4.742   1.692 -0.4742  0.1137  0.3281
 1351SOL     ow 5401   3.635   2.869   6.826 -1.0030 -0.0394  0.5891
 1351SOL     hw 5402   3.711   2.909   6.867  0.9697 -1.9904 -0.9492
 1351SOL     hw 5403   3.571   2.862   6.897  1.3849 -1.2023  2.7934
 1351SOL     vw 5404   3.636   2.874   6.841 -0.4277 -0.4504  0.6769
 1352SOL     ow 5405   3.114   0.660   1.370  0.1568  0.9373 -0.6200
 1352SOL     hw 5406   3.143   0.747   1.398  1.7507 -0.1716  1.4513
 1352SOL     hw 5407   3.108   0.609   1.451 -2.8867 -0.3498 -1.5213
 1352SOL     vw 5408   3.117   0.665   1.384 -0.0343  0.6211 -0.4657
 1353SOL     ow 5409   3.002   3.469   3.662 -0.0334 -0.2406  0.0312
 1353SOL     hw 5410   3.006   3.535   3.731  1.2234 -1.0197  0.7567
 1353SOL     hw 5411   3.033   3.389   3.705 -1.9333 -1.4417 -0.6822
 1353SOL     vw 5412   3.007   3.467   3.677 -0.1180 -0.5020  0.0328
 1354SOL     ow 5413   1.698   5.610   3.069 -0.0706 -0.3710 -0.1910
 1354SOL     hw 5414   1.661   5.645   3.151  2.0795 -1.9700  1.5881
 1354SOL     hw 5415   1.730   5.687   3.023 -2.5220  0.7085 -0.2449
 1354SOL     vw 5416   1.697   5.625   3.074 -0.1103 -0.4396  0.0367
 1355SOL     ow 5417   0.144   0.327   3.979  0.0499  0.6654  0.0046
 1355SOL     hw 5418   0.224   0.320   4.031 -0.5191  1.8673  1.0997
 1355SOL     hw 5419   0.077   0.286   4.034 -0.1383 -0.0889 -0.7853
 1355SOL     vw 5420   0.146   0.321   3.993 -0.0500  0.7244  0.0448
 1356SOL     ow 5421   1.331   5.289   4.044  0.0938 -0.0630 -0.2654
 1356SOL     hw 5422   1.296   5.310   4.131  0.8991 -1.0860  0.3376
 1356SOL     hw 5423   1.371   5.371   4.014  3.4332 -0.5851  2.1586
 1356SOL     vw 5424   1.332   5.303   4.052  0.6407 -0.2668  0.1340
 1357SOL     ow 5425   3.442   3.429   2.212  0.5264  0.3123 -0.6815
 1357SOL     hw 5426   3.434   3.366   2.141  1.8409 -0.8609  0.1635
 1357SOL     hw 5427   3.363   3.416   2.265  1.2049 -1.3042 -0.0156
 1357SOL     vw 5428   3.430   3.419   2.210  0.7893 -0.0558 -0.4822
 1358SOL     ow 5429   0.765   5.055   2.853 -0.8110  0.5822  0.1516
 1358SOL     hw 5430   0.841   5.006   2.821  0.3775  1.2320  1.8419
 1358SOL     hw 5431   0.789   5.147   2.840 -1.3467  0.7964  0.6181
 1358SOL     vw 5432   0.778   5.061   2.847 -0.7249  0.6964  0.4361
 1359SOL     ow 5433   7.061   3.542   5.769  0.2674 -0.4654 -0.2587
 1359SOL     hw 5434   7.102   3.503   5.846  1.4348 -2.5899 -1.8443
 1359SOL     hw 5435   6.970   3.513   5.774 -0.4107  1.7463  1.6986
 1359SOL     vw 5436   7.054   3.533   5.780  0.3321 -0.4539 -0.2096
 1360SOL     ow 5437   2.902   5.118   7.105  0.2802  0.0086 -0.1596
 1360SOL     hw 5438   2.925   5.131   7.197 -2.4401  2.5798  0.3340
 1360SOL     hw 5439   2.934   5.197   7.061  0.8921 -0.8553 -1.3177
 1360SOL     vw 5440   2.909   5.130   7.112  0.0020  0.2337 -0.2475
 1361SOL     ow 5441   3.534   1.210   1.283  0.4844  0.0001 -0.4096
 1361SOL     hw 5442   3.443   1.214   1.252  0.3245 -0.2678  0.0187
 1361SOL     hw 5443   3.568   1.127   1.250  0.3705 -0.2002 -0.0316
 1361SOL     vw 5444   3.526   1.200   1.275  0.4483 -0.0618 -0.3032
 1362SOL     ow 5445   3.824   1.642   6.556 -0.3004 -0.0141  0.6091
 1362SOL     hw 5446   3.779   1.702   6.496 -1.6001  0.7289  2.2236
 1362SOL     hw 5447   3.884   1.593   6.501 -1.5476  0.5048 -1.3219
 1362SOL     vw 5448   3.826   1.644   6.541 -0.6365  0.1524  0.5672
 1363SOL     ow 5449   0.482   3.163   3.767 -0.2254 -0.1115 -0.2468
 1363SOL     hw 5450   0.564   3.147   3.814 -0.3373  0.1188  0.0311
 1363SOL     hw 5451   0.484   3.101   3.695  1.0215  1.0799 -1.2925
 1363SOL     vw 5452   0.493   3.153   3.764 -0.0757  0.0759 -0.3481
 1364SOL     ow 5453   3.794   0.520   2.001 -0.1628  0.0874 -0.5105
 1364SOL     hw 5454   3.850   0.578   1.950 -0.3128 -0.1924 -0.9971
 1364SOL     hw 5455   3.787   0.440   1.948  1.2765 -0.9860  0.8055
 1364SOL     vw 5456   3.801   0.517   1.988  0.0073 -0.0911 -0.4010
 1365SOL     ow 5457   6.054   4.205   4.420  0.3455 -0.7256  0.5546
 1365SOL     hw 5458   6.019   4.117   4.435  0.5437 -0.7052  1.1513
 1365SOL     hw 5459   6.007   4.236   4.342 -2.9192  0.3308  2.7480
 1365SOL     vw 5460   6.043   4.197   4.411 -0.0589 -0.5834  0.9227
 1366SOL     ow 5461   6.537   1.964   3.932 -0.0778 -0.7705  0.0137
 1366SOL     hw 5462   6.443   1.982   3.931  0.0473  0.4577  2.5394
 1366SOL     hw 5463   6.548   1.893   3.995  0.7010 -0.8611 -0.2075
 1366SOL     vw 5464   6.526   1.957   3.940  0.0417 -0.6205  0.3178
 1367SOL     ow 5465   4.606   5.195   5.492  0.0287 -0.2846  0.0192
 1367SOL     hw 5466   4.518   5.160   5.477  0.5731 -2.0191  0.5682
 1367SOL     hw 5467   4.593   5.268   5.551 -0.9817 -1.1070  0.8550
 1367SOL     vw 5468   4.593   5.200   5.498 -0.0327 -0.6220  0.2017
 1368SOL     ow 5469   6.712   2.550   6.358 -0.1347  0.1167  0.3166
 1368SOL     hw 5470   6.623   2.566   6.326  0.7150  2.7597 -0.9271
 1368SOL     hw 5471   6.712   2.583   6.448 -0.4519 -0.0488  0.3773
 1368SOL     vw 5472   6.700   2.556   6.366 -0.0646  0.4436  0.1605
 1369SOL     ow 5473   3.462   6.653   2.483  0.1691 -0.2876 -0.6507
 1369SOL     hw 5474   3.427   6.567   2.461 -0.3399 -0.7313  1.6759
 1369SOL     hw 5475   3.557   6.639   2.490  0.4862  0.0773 -3.2064
 1369SOL     vw 5476   3.470   6.640   2.481  0.1438 -0.2980 -0.6809
 1370SOL     ow 5477   5.637   4.995   4.394  0.3307  0.0628 -0.5623
 1370SOL     hw 5478   5.708   5.058   4.407  1.5141 -0.8675 -2.1980
 1370SOL     hw 5479   5.565   5.030   4.446  1.3933  1.9957 -0.2851
 1370SOL     vw 5480   5.637   5.008   4.403  0.6270  0.1950 -0.7412
 1371SOL     ow 5481   1.728   5.418   6.597 -0.0542 -0.6327 -0.1600
 1371SOL     hw 5482   1.722   5.323   6.587 -2.4247 -0.3849 -1.9679
 1371SOL     hw 5483   1.639   5.446   6.617  0.5301  1.2575  0.0234
 1371SOL     vw 5484   1.716   5.409   6.598 -0.2899 -0.3505 -0.3746
 1372SOL     ow 5485   5.404   0.868   4.467 -0.2525 -0.2213  0.2369
 1372SOL     hw 5486   5.372   0.958   4.463 -0.2075 -0.2528 -1.8548
 1372SOL     hw 5487   5.325   0.815   4.474 -0.3781 -0.0925 -0.2053
 1372SOL     vw 5488   5.389   0.873   4.467 -0.2630 -0.2084 -0.0975
 1373SOL     ow 5489   1.680   1.098   2.234  0.4368 -0.6091  0.3660
 1373SOL     hw 5490   1.636   1.102   2.149  1.0983  0.0343  0.0427
 1373SOL     hw 5491   1.628   1.036   2.285 -1.0866  0.4250  0.1326
 1373SOL     vw 5492   1.667   1.090   2.229  0.3232 -0.3878  0.2925
 1374SOL     ow 5493   7.076   4.332   4.072 -0.3272 -0.7306  0.0884
 1374SOL     hw 5494   6.992   4.334   4.119 -0.7418 -1.0032 -0.6352
 1374SOL     hw 5495   7.077   4.248   4.028 -0.7090  0.2095 -1.7910
 1374SOL     vw 5496   7.065   4.321   4.073 -0.4325 -0.6425 -0.2549
 1375SOL     ow 5497   5.760   2.923   1.351 -0.5726 -0.1895  0.1112
 1375SOL     hw 5498   5.668   2.904   1.336 -0.7481 -0.9838  1.9029
 1375SOL     hw 5499   5.802   2.837   1.353  0.0461  0.1110  0.1952
 1375SOL     vw 5500   5.754   2.909   1.350 -0.5140 -0.2545  0.3587
 1376SOL     ow 5501   4.626   3.953   6.392 -0.4347 -0.4183  0.1183
 1376SOL     hw 5502   4.584   4.018   6.336  1.8834 -0.1427 -1.4407
 1376SOL     hw 5503   4.641   3.999   6.475 -0.8578  0.3036 -0.1959
 1376SOL     vw 5504   4.623   3.968   6.395 -0.1845 -0.2867 -0.1287
 1377SOL     ow 5505   6.373   2.828   2.069  0.1064 -0.0988 -0.2415
 1377SOL     hw 5506   6.313   2.760   2.097  0.6124  0.1459  1.5763
 1377SOL     hw 5507   6.460   2.796   2.093  0.4788  0.5995 -0.6010
 1377SOL     vw 5508   6.377   2.815   2.076  0.2222  0.0255 -0.0492
 1378SOL     ow 5509   3.737   1.103   2.289 -0.2367  0.5093 -0.5269
 1378SOL     hw 5510   3.764   1.181   2.241 -3.3598  1.3313 -1.1011
 1378SOL     hw 5511   3.706   1.136   2.373  0.0217 -0.3440 -0.0789
 1378SOL     vw 5512   3.737   1.118   2.294 -0.6146  0.5051 -0.5437
 1379SOL     ow 5513   3.058   6.163   1.721  0.2528  0.2400 -0.2632
 1379SOL     hw 5514   3.095   6.221   1.654  0.8793 -1.4637 -1.4752
 1379SOL     hw 5515   3.133   6.114   1.755  0.1439  1.8391  2.5942
 1379SOL     vw 5516   3.073   6.164   1.716  0.3209  0.2260 -0.0461
 1380SOL     ow 5517   4.382   2.667   1.128 -0.0361 -0.0969  0.0964
 1380SOL     hw 5518   4.441   2.693   1.199 -0.0206 -1.1724  0.4887
 1380SOL     hw 5519   4.439   2.659   1.051 -0.2424  2.3898 -0.4307
 1380SOL     vw 5520   4.398   2.670   1.127 -0.0615  0.0893  0.0786
 1381SOL     ow 5521   3.387   2.621   4.429 -0.1246  0.4274 -0.0843
 1381SOL     hw 5522   3.423   2.696   4.476 -0.3673  0.0407  0.7359
 1381SOL     hw 5523   3.315   2.658   4.376 -1.4006  0.5375  1.6462
 1381SOL     vw 5524   3.382   2.636   4.428 -0.3250  0.3908  0.2522
 1382SOL     ow 5525   2.437   0.914   2.001 -0.8409 -0.0145  0.3088
 1382SOL     hw 5526   2.481   0.915   1.916  2.3197  0.6853  1.7803
 1382SOL     hw 5527   2.509   0.908   2.064 -3.0900 -1.3755  2.9426
 1382SOL     vw 5528   2.453   0.914   1.998 -0.7206 -0.1018  0.8505
 1383SOL     ow 5529   6.492   0.992   2.274 -0.0476 -0.6453 -0.6582
 1383SOL     hw 5530   6.481   0.898   2.289  0.8696 -0.6191  0.3043
 1383SOL     hw 5531   6.415   1.032   2.313  0.5642 -0.8642  0.8662
 1383SOL     vw 5532   6.481   0.985   2.281  0.1538 -0.6707 -0.3301
 1384SOL     ow 5533   6.862   4.413   3.724  0.7842 -0.5100 -0.0308
 1384SOL     hw 5534   6.946   4.419   3.771  0.6049 -0.1496  0.2497
 1384SOL     hw 5535   6.798   4.449   3.785  0.6160  0.4035 -0.7164
 1384SOL     vw 5536   6.865   4.419   3.738  0.7386 -0.3419 -0.0842
 1385SOL     ow 5537   1.854   2.669   1.159  0.2270  0.0501 -0.4385
 1385SOL     hw 5538   1.903   2.721   1.223  0.4435 -0.6156 -0.0586
 1385SOL     hw 5539   1.763   2.674   1.189  0.3349 -0.3062 -0.0416
 1385SOL     vw 5540   1.849   2.677   1.171  0.2698 -0.0848 -0.3361
 1386SOL     ow 5541   5.635   3.461   5.787  0.1962 -0.6103 -0.1106
 1386SOL     hw 5542   5.576   3.507   5.727  0.0470  0.0271  0.5022
 1386SOL     hw 5543   5.596   3.374   5.798  0.4558 -0.8862 -1.2510
 1386SOL     vw 5544   5.622   3.456   5.780  0.2108 -0.5627 -0.1800
 1387SOL     ow 5545   5.363   0.498   6.977 -0.3162  0.7873 -0.2909
 1387SOL     hw 5546   5.439   0.506   6.920 -0.5540  1.6175 -0.5078
 1387SOL     hw 5547   5.400   0.484   7.064  0.0957  1.5073 -0.3463
 1387SOL     vw 5548   5.378   0.497   6.981 -0.2933  0.9918 -0.3271
 1388SOL     ow 5549   6.511   5.250   3.402 -0.4701  0.1680 -0.2378
 1388SOL     hw 5550   6.467   5.330   3.432  1.7155  0.5069  2.5194
 1388SOL     hw 5551   6.592   5.281   3.362 -0.1649 -0.6200 -0.2504
 1388SOL     vw 5552   6.516   5.265   3.401 -0.1414  0.1087  0.1245
 1389SOL     ow 5553   1.689   6.226   4.324  0.1572 -0.3705 -0.4054
 1389SOL     hw 5554   1.654   6.187   4.244 -0.2106 -0.4069 -0.2244
 1389SOL     hw 5555   1.613   6.260   4.370  0.3132 -0.8379  0.2005
 1389SOL     vw 5556   1.675   6.226   4.319  0.1293 -0.4370 -0.3014
 1390SOL     ow 5557   6.680   2.485   4.175  0.5483 -0.1226  0.3898
 1390SOL     hw 5558   6.592   2.459   4.202 -0.4179 -0.0382 -2.3519
 1390SOL     hw 5559   6.696   2.567   4.221 -1.6568  0.8792 -0.5227
 1390SOL     vw 5560   6.670   2.492   4.185  0.1299  0.0207 -0.0923
 1391SOL     ow 5561   4.255   3.869   2.371  0.0331 -0.4066  0.2693
 1391SOL     hw 5562   4.200   3.859   2.293  0.9609 -2.3148 -0.1949
 1391SOL     hw 5563   4.333   3.914   2.339 -0.3455  0.4438  0.5045
 1391SOL     vw 5564   4.258   3.874   2.356  0.1059 -0.5461  0.2390
 1392SOL     ow 5565   5.974   2.910   4.578  0.1966 -0.7315 -0.1792
 1392SOL     hw 5566   6.009   2.831   4.538 -0.2206 -0.9741 -0.0755
 1392SOL     hw 5567   5.893   2.928   4.529  0.2429 -0.4188 -0.1447
 1392SOL     vw 5568   5.968   2.902   4.566  0.1476 -0.7223 -0.1609
 1393SOL     ow 5569   0.123   4.507   1.047 -0.2605  0.4646  0.5092
 1393SOL     hw 5570   0.107   4.412   1.046 -0.3334  0.4745 -0.3341
 1393SOL     hw 5571   0.198   4.519   0.989  0.7496  0.7716  1.8583
 1393SOL     vw 5572   0.131   4.496   1.039 -0.1368  0.5064  0.5760
 1394SOL     ow 5573   4.341   1.154   5.805 -0.2240 -0.0564 -0.2016
 1394SOL     hw 5574   4.280   1.202   5.748 -0.4331  0.3933  0.3951
 1394SOL     hw 5575   4.423   1.153   5.755  0.3671  2.6386  0.5440
 1394SOL     vw 5576   4.344   1.160   5.791 -0.1736  0.3586 -0.0248
 1395SOL     ow 5577   0.232   1.328   3.138  0.1272  0.0972 -0.2488
 1395SOL     hw 5578   0.273   1.413   3.156  0.0839  0.2368 -0.8122
 1395SOL     hw 5579   0.221   1.289   3.225  1.8441 -0.1374 -0.1108
 1395SOL     vw 5580   0.236   1.334   3.152  0.3480  0.0848 -0.3049
 1396SOL     ow 5581   3.297   5.344   2.022  0.4680  0.3892  0.3202
 1396SOL     hw 5582   3.272   5.255   2.000 -0.9034  0.5924  0.9625
 1396SOL     hw 5583   3.287   5.393   1.940 -1.3691  0.4653  0.5454
 1396SOL     vw 5584   3.293   5.339   2.008  0.0446  0.4261  0.4345
 1397SOL     ow 5585   6.624   4.229   3.290 -0.3909 -0.4414 -0.7984
 1397SOL     hw 5586   6.577   4.146   3.287 -2.4177  0.6355 -0.7743
 1397SOL     hw 5587   6.562   4.290   3.330  1.6582  0.7204  0.8340
 1397SOL     vw 5588   6.610   4.226   3.295 -0.3879 -0.1462 -0.5798
 1398SOL     ow 5589   5.593   4.797   4.213  0.2633 -0.3780 -0.0041
 1398SOL     hw 5590   5.618   4.857   4.282 -0.8588 -1.3891  1.3396
 1398SOL     hw 5591   5.522   4.745   4.250 -0.2592 -1.0895 -1.8542
 1398SOL     vw 5592   5.587   4.798   4.227  0.0465 -0.6053 -0.0708
 1399SOL     ow 5593   5.220   2.954   0.847 -0.6992  0.4967 -0.7851
 1399SOL     hw 5594   5.150   2.983   0.905 -0.2482 -0.8864  0.5308
 1399SOL     hw 5595   5.291   3.017   0.860 -0.5886  0.1807  0.2283
 1399SOL     vw 5596   5.220   2.966   0.856 -0.6251  0.2724 -0.4778
 1400SOL     ow 5597   3.721   1.827   6.357  0.5186  0.0457 -0.0555
 1400SOL     hw 5598   3.659   1.771   6.312 -0.3624 -0.8119  2.0758
 1400SOL     hw 5599   3.681   1.914   6.354  0.2980 -0.0725 -0.5885
 1400SOL     vw 5600   3.707   1.831   6.351  0.3734 -0.0831  0.1552
 1401SOL     ow 5601   5.821   0.452   3.494 -0.1874  0.1114  0.6437
 1401SOL     hw 5602   5.746   0.498   3.456 -1.4708 -1.8639  0.6092
 1401SOL     hw 5603   5.857   0.400   3.422 -0.4576 -0.9623  1.2494
 1401SOL     vw 5604   5.816   0.451   3.480 -0.3924 -0.2909  0.7190
 1402SOL     ow 5605   6.906   3.514   0.000 -0.1208 -0.3202 -0.5728
 1402SOL     hw 5606   6.945   3.600  -0.016 -1.7406  0.3123 -1.2690
 1402SOL     hw 5607   6.962   3.475   0.068 -0.3831  2.0257  1.1277
 1402SOL     vw 5608   6.918   3.520   0.007 -0.3691  0.0728 -0.4403
 1403SOL     ow 5609   6.497   5.310   2.353  0.1262 -0.0602 -0.0583
 1403SOL     hw 5610   6.410   5.272   2.363  0.3801 -1.0462 -1.3971
 1403SOL     hw 5611   6.556   5.235   2.342  0.7434  0.6600 -1.9971
 1403SOL     vw 5612   6.494   5.295   2.353  0.2410 -0.0954 -0.4907
 1404SOL     ow 5613   6.016   6.700   3.510  0.6363 -0.2510 -0.2977
 1404SOL     hw 5614   5.935   6.702   3.458 -0.3931  2.2581  1.2320
 1404SOL     hw 5615   6.079   6.655   3.453 -1.3336 -0.7188 -2.2748
 1404SOL     vw 5616   6.013   6.695   3.495  0.2406  0.0186 -0.3567
 1405SOL     ow 5617   4.939   6.957   6.566  0.6064 -0.7951  0.6153
 1405SOL     hw 5618   4.964   6.919   6.651  0.8363 -1.1176  0.4055
 1405SOL     hw 5619   4.847   6.935   6.556  1.1073 -2.6903 -0.2227
 1405SOL     vw 5620   4.930   6.949   6.576  0.7031 -1.0877  0.4768
 1406SOL     ow 5621   0.816   0.670   0.754  0.4545 -0.7184 -0.7237
 1406SOL     hw 5622   0.755   0.744   0.759 -0.4567 -1.4764 -0.2163
 1406SOL     hw 5623   0.900   0.706   0.781 -0.0997  0.0000  0.1107
 1406SOL     vw 5624   0.819   0.685   0.758  0.2611 -0.7236 -0.5466
 1407SOL     ow 5625   1.478   0.432   4.681 -0.0427  0.2870 -0.2891
 1407SOL     hw 5626   1.500   0.355   4.628  0.0102 -0.3102  0.5757
 1407SOL     hw 5627   1.521   0.417   4.765 -1.5810  0.3370  0.5595
 1407SOL     vw 5628   1.486   0.420   4.685 -0.2387  0.2148 -0.0629
 1408SOL     ow 5629   3.825   1.920   6.703 -0.1046 -0.0547 -0.4561
 1408SOL     hw 5630   3.841   2.011   6.726  0.8791 -0.0246 -1.2055
 1408SOL     hw 5631   3.739   1.922   6.659 -1.7230 -0.0381  2.4654
 1408SOL     vw 5632   3.816   1.932   6.700 -0.1884 -0.0486 -0.1698
 1409SOL     ow 5633   4.868   1.099   4.350 -0.4173 -0.0131  0.0581
 1409SOL     hw 5634   4.867   1.049   4.432 -1.7727 -2.8492 -1.5031
 1409SOL     hw 5635   4.788   1.151   4.352 -1.0941 -1.0204  0.0671
 1409SOL     vw 5636   4.858   1.099   4.361 -0.6852 -0.5202 -0.1466
 1410SOL     ow 5637   4.694   3.736   1.311  0.3240  0.1208  0.1485
 1410SOL     hw 5638   4.685   3.760   1.404 -0.8447  0.1925  0.0204
 1410SOL     hw 5639   4.665   3.813   1.263  2.4082  0.6845 -0.3332
 1410SOL     vw 5640   4.689   3.749   1.317  0.4447  0.2046  0.0681
 1411SOL     ow 5641   0.831   2.553   1.755 -0.1090 -0.2487  0.0862
 1411SOL     hw 5642   0.806   2.473   1.802 -2.6978  1.1283  1.2468
 1411SOL     hw 5643   0.889   2.600   1.815 -2.3985  0.9083  1.5010
 1411SOL     vw 5644   0.836   2.548   1.769 -0.7526  0.0856  0.4261
 1412SOL     ow 5645   6.039   1.134   3.713 -0.3174  0.4836  0.1522
 1412SOL     hw 5646   5.953   1.094   3.704  0.8755 -2.1722 -0.5784
 1412SOL     hw 5647   6.066   1.114   3.803 -0.5192  1.5005  0.4515
 1412SOL     vw 5648   6.031   1.126   3.724 -0.1867  0.2674  0.0952
 1413SOL     ow 5649   3.469   5.321   0.586 -0.8134  0.1203  0.0200
 1413SOL     hw 5650   3.531   5.364   0.526  0.5801 -2.3700 -0.4984
 1413SOL     hw 5651   3.429   5.252   0.533 -0.9003 -0.9823  1.4575
 1413SOL     vw 5652   3.472   5.318   0.571 -0.6410 -0.3541  0.1413
 1414SOL     ow 5653   6.196   4.246   0.377  0.3322  0.6980 -0.0041
 1414SOL     hw 5654   6.259   4.216   0.311 -0.2310  0.1478 -0.3020
 1414SOL     hw 5655   6.125   4.286   0.326 -0.3494 -0.1913  0.2285
 1414SOL     vw 5656   6.195   4.247   0.361  0.1678  0.5081 -0.0127
 1415SOL     ow 5657   4.851   3.657   5.823 -0.0071 -0.1050  0.0450
 1415SOL     hw 5658   4.830   3.740   5.780 -0.7244 -0.2668  0.0630
 1415SOL     hw 5659   4.770   3.633   5.869  0.2771 -0.6794  0.2572
 1415SOL     vw 5660   4.837   3.665   5.823 -0.0641 -0.2021  0.0751
 1416SOL     ow 5661   4.884   2.437   7.130 -0.1683  0.8717 -0.6902
 1416SOL     hw 5662   4.901   2.366   7.067 -0.6848  0.3702 -0.2779
 1416SOL     hw 5663   4.947   2.505   7.106  0.5208  0.1710 -0.9321
 1416SOL     vw 5664   4.895   2.436   7.118 -0.1454  0.7131 -0.6678
 1417SOL     ow 5665   5.768   2.355   5.368  0.3334  0.2005 -0.3038
 1417SOL     hw 5666   5.799   2.417   5.302  0.4877 -0.8888 -1.2998
 1417SOL     hw 5667   5.788   2.269   5.330 -0.8914 -0.4740  0.5350
 1417SOL     vw 5668   5.775   2.352   5.354  0.1924 -0.0322 -0.3242
 1418SOL     ow 5669   0.573   4.009   4.030  0.4266  0.2509 -0.2588
 1418SOL     hw 5670   0.608   3.976   4.113  0.8021 -2.0797 -1.2526
 1418SOL     hw 5671   0.598   4.101   4.028 -2.0482  1.1846  3.4421
 1418SOL     vw 5672   0.581   4.017   4.041  0.1496  0.0668  0.0985
 1419SOL     ow 5673   4.471   0.915   0.927 -0.3686  0.1524 -0.0322
 1419SOL     hw 5674   4.407   0.969   0.881 -0.0461  0.5235 -0.0423
 1419SOL     hw 5675   4.457   0.827   0.891 -0.6611  0.2894 -0.2619
 1419SOL     vw 5676   4.461   0.910   0.916 -0.3645  0.2194 -0.0639
 1420SOL     ow 5677   0.491   2.689   5.628 -0.0837 -0.0828  0.0674
 1420SOL     hw 5678   0.542   2.673   5.549 -0.5866  0.7148 -0.4380
 1420SOL     hw 5679   0.417   2.628   5.622 -1.1083  1.1974 -1.0228
 1420SOL     vw 5680   0.488   2.679   5.617 -0.2853  0.1913 -0.1433
 1421SOL     ow 5681   5.313   5.645   0.908  0.2155  0.5457  0.4742
 1421SOL     hw 5682   5.234   5.592   0.894 -0.0634  0.4441  2.2444
 1421SOL     hw 5683   5.380   5.581   0.932  0.2135  0.8547  1.3267
 1421SOL     vw 5684   5.311   5.629   0.909  0.1783  0.5732  0.8202
 1422SOL     ow 5685   5.605   6.499   5.837  0.3933  0.7187  0.2168
 1422SOL     hw 5686   5.576   6.492   5.746 -0.2026  0.6203  0.4098
 1422SOL     hw 5687   5.543   6.446   5.886  1.8632 -0.8881  0.4594
 1422SOL     vw 5688   5.593   6.491   5.831  0.5085  0.4935  0.2742
 1423SOL     ow 5689   1.372   0.831   5.460  0.3422 -0.3352 -0.0038
 1423SOL     hw 5690   1.347   0.820   5.552 -0.5862  0.4763 -0.1360
 1423SOL     hw 5691   1.368   0.743   5.423 -0.8717 -0.4547  0.3600
 1423SOL     vw 5692   1.368   0.818   5.467  0.0595 -0.2439  0.0265
 1424SOL     ow 5693   3.372   4.558   2.769  0.3264  0.0168 -0.3923
 1424SOL     hw 5694   3.447   4.591   2.719  0.5968  0.1639  0.1060
 1424SOL     hw 5695   3.385   4.463   2.771 -0.0036 -0.0510 -1.1069
 1424SOL     vw 5696   3.384   4.550   2.763  0.3186  0.0272 -0.4209
 1425SOL     ow 5697   3.288   0.911   1.986 -0.2901  0.6485 -0.1570
 1425SOL     hw 5698   3.222   0.863   1.936 -0.1563  0.3583 -0.0583
 1425SOL     hw 5699   3.245   0.992   2.013 -0.6304  0.4203 -0.0201
 1425SOL     vw 5700   3.274   0.915   1.983 -0.3175  0.5801 -0.1259
 1426SOL     ow 5701   6.436   1.901   5.762 -0.2389  0.3916  0.0449
 1426SOL     hw 5702   6.407   1.972   5.819 -2.3390 -1.4119  1.4043
 1426SOL     hw 5703   6.426   1.935   5.673  0.1627  2.2223  0.6531
 1426SOL     vw 5704   6.431   1.915   5.758 -0.4630  0.3952  0.3047
 1427SOL     ow 5705   1.272   6.381   5.380  0.6908  0.3185  0.7347
 1427SOL     hw 5706   1.350   6.418   5.422  1.2530  0.5667 -0.4798
 1427SOL     hw 5707   1.274   6.289   5.403  1.7194  0.1879  0.1922
 1427SOL     vw 5708   1.282   6.374   5.389  0.9007  0.3340  0.5028
 1428SOL     ow 5709   5.530   0.593   3.237  0.9320 -0.3092  0.3341
 1428SOL     hw 5710   5.552   0.505   3.206  3.4780 -0.7591  2.9972
 1428SOL     hw 5711   5.608   0.645   3.219  0.0585  1.0364  0.2680
 1428SOL     vw 5712   5.543   0.589   3.231  1.1523 -0.1910  0.6768
 1429SOL     ow 5713   3.603   2.169   0.366 -0.8923 -0.3362  0.6340
 1429SOL     hw 5714   3.638   2.231   0.302 -0.9609 -0.6452  0.2907
 1429SOL     hw 5715   3.627   2.206   0.451  1.0305 -0.9419  0.4102
 1429SOL     vw 5716   3.611   2.182   0.369 -0.6477 -0.4568  0.5592
 1430SOL     ow 5717   3.576   4.676   2.638  0.0024  0.3071  0.1130
 1430SOL     hw 5718   3.565   4.770   2.622  2.7807  0.5184 -0.9940
 1430SOL     hw 5719   3.585   4.637   2.551 -1.5758 -1.1110  0.5319
 1430SOL     vw 5720   3.575   4.683   2.625  0.1608  0.1478  0.0223
 1431SOL     ow 5721   5.876   1.472   2.146  0.0421  0.3479 -0.0698
 1431SOL     hw 5722   5.834   1.446   2.064  1.3309 -0.8872 -0.3563
 1431SOL     hw 5723   5.875   1.393   2.199  1.6356  0.4054  0.0712
 1431SOL     vw 5724   5.870   1.458   2.142  0.4222  0.1926 -0.0888
 1432SOL     ow 5725   1.673   0.314   0.503  0.1492  0.4814  0.0392
 1432SOL     hw 5726   1.591   0.286   0.543  0.3204 -0.7964 -0.4431
 1432SOL     hw 5727   1.741   0.284   0.565  0.6101 -3.8174 -2.1343
 1432SOL     vw 5728   1.671   0.306   0.517  0.2326 -0.2544 -0.3112
 1433SOL     ow 5729   3.560   1.615   6.619  0.2097 -0.1997 -0.5222
 1433SOL     hw 5730   3.654   1.604   6.605  0.5001  1.7786 -0.4303
 1433SOL     hw 5731   3.537   1.548   6.684  1.6041 -0.5522 -0.3632
 1433SOL     vw 5732   3.569   1.605   6.626  0.4320  0.0148 -0.4892
 1434SOL     ow 5733   2.188   4.812   6.082  0.3280 -0.6832 -0.1561
 1434SOL     hw 5734   2.162   4.741   6.023  0.0169 -2.0828  1.5825
 1434SOL     hw 5735   2.105   4.849   6.112  0.4244 -1.2220  0.8124
 1434SOL     vw 5736   2.173   4.807   6.078  0.2997 -0.9387  0.2012
 1435SOL     ow 5737   1.585   4.882   5.208  0.6391 -0.1580 -0.2241
 1435SOL     hw 5738   1.518   4.827   5.250  1.1818 -0.4986  0.2110
 1435SOL     hw 5739   1.618   4.938   5.279  0.0485  0.7900 -0.6778
 1435SOL     vw 5740   1.580   4.882   5.223  0.6327 -0.0780 -0.2263
 1436SOL     ow 5741   1.439   1.444   0.501  0.9056  0.2121 -0.4193
 1436SOL     hw 5742   1.420   1.512   0.436  1.8779 -0.3692 -1.3472
 1436SOL     hw 5743   1.430   1.362   0.452 -1.3952 -0.4355  0.9477
 1436SOL     vw 5744   1.435   1.442   0.486  0.7303  0.0499 -0.3614
 1437SOL     ow 5745   4.846   0.857   5.215  0.2936 -0.0259  0.2418
 1437SOL     hw 5746   4.884   0.922   5.274 -0.4052 -0.3543  1.0913
 1437SOL     hw 5747   4.919   0.828   5.161  0.6345  1.3933 -0.0979
 1437SOL     vw 5748   4.860   0.862   5.216  0.2460  0.1181  0.3090
 1438SOL     ow 5749   0.212   5.618   6.700 -0.5543  0.2198  0.1781
 1438SOL     hw 5750   0.247   5.696   6.657 -1.4212  0.9804  0.8062
 1438SOL     hw 5751   0.182   5.650   6.785 -2.1572 -0.5278 -0.0818
 1438SOL     vw 5752   0.213   5.632   6.706 -0.8802  0.2217  0.2265
 1439SOL     ow 5753   3.537   1.039   2.098 -0.1647 -0.0358 -0.2384
 1439SOL     hw 5754   3.566   1.077   2.014 -0.2044 -1.5616 -0.9656
 1439SOL     hw 5755   3.617   1.037   2.151  0.2526 -0.6850 -0.8732
 1439SOL     vw 5756   3.552   1.044   2.094 -0.1148 -0.3228 -0.4181
 1440SOL     ow 5757   6.608   6.060   0.202  0.1578  0.0028 -0.3546
 1440SOL     hw 5758   6.637   6.111   0.278  0.3914  2.2260 -1.8287
 1440SOL     hw 5759   6.675   6.076   0.135  0.4233 -2.5894 -0.8203
 1440SOL     vw 5760   6.621   6.069   0.203  0.2239 -0.0460 -0.6106
 1441SOL     ow 5761   4.823   5.539   1.570  0.0537  0.0301 -0.3711
 1441SOL     hw 5762   4.746   5.490   1.543  1.3362 -2.0389 -0.5206
 1441SOL     hw 5763   4.809   5.628   1.536 -1.7673 -0.5603 -1.2617
 1441SOL     vw 5764   4.811   5.544   1.562 -0.0172 -0.3207 -0.5083
 1442SOL     ow 5765   5.074   6.660   3.268  0.1743 -0.2082 -0.1741
 1442SOL     hw 5766   5.088   6.708   3.350  1.8232  0.8754 -1.0364
 1442SOL     hw 5767   4.999   6.703   3.228  0.2094  0.1531  0.1349
 1442SOL     vw 5768   5.066   6.672   3.274  0.3965 -0.0176 -0.2471
 1443SOL     ow 5769   2.323   3.928   5.210 -0.7823  0.2157  0.0415
 1443SOL     hw 5770   2.277   4.012   5.204 -0.5319  0.3639  0.1792
 1443SOL     hw 5771   2.316   3.903   5.302 -0.4013  0.3462  0.1063
 1443SOL     vw 5772   2.316   3.936   5.221 -0.6989  0.2524  0.0682
 1444SOL     ow 5773   4.926   0.282   3.864  0.1683 -0.0116  0.5613
 1444SOL     hw 5774   4.946   0.332   3.943 -1.7109  0.0955  1.0067
 1444SOL     hw 5775   4.869   0.339   3.812 -1.8935 -1.5394  1.0059
 1444SOL     vw 5776   4.921   0.296   3.867 -0.3519 -0.1990  0.6788
 1445SOL     ow 5777   1.051   4.493   4.987 -0.0305 -0.2432 -0.3273
 1445SOL     hw 5778   1.089   4.547   5.056  0.5277  0.9891 -1.5426
 1445SOL     hw 5779   0.961   4.479   5.015 -0.3552  1.7781 -0.1701
 1445SOL     vw 5780   1.044   4.499   5.000  0.0003  0.1862 -0.4668
 1446SOL     ow 5781   1.572   4.687   7.087  0.1461 -0.3257 -0.1594
 1446SOL     hw 5782   1.516   4.681   7.164  0.2073  1.5077  0.0805
 1446SOL     hw 5783   1.512   4.688   7.013  0.0236 -0.9857 -0.0720
 1446SOL     vw 5784   1.557   4.686   7.087  0.1380 -0.1709 -0.1161
 1447SOL     ow 5785   1.832   6.563   2.743 -0.0377 -0.0244 -0.2925
 1447SOL     hw 5786   1.749   6.528   2.712  1.6331 -2.7354 -2.0616
 1447SOL     hw 5787   1.859   6.502   2.812  1.4730 -0.5230 -1.2759
 1447SOL     vw 5788   1.824   6.550   2.748  0.3821 -0.4478 -0.6557
 1448SOL     ow 5789   0.798   2.640   1.447  0.7606 -0.4594 -0.0344
 1448SOL     hw 5790   0.773   2.646   1.355  0.6494  0.7970  0.0480
 1448SOL     hw 5791   0.893   2.648   1.448  0.9661 -2.5477 -0.1638
 1448SOL     vw 5792   0.807   2.642   1.435  0.7731 -0.5692 -0.0406
 1449SOL     ow 5793   0.318   1.030   3.073  0.0575 -0.8689  0.6052
 1449SOL     hw 5794   0.229   1.013   3.043 -0.5745 -0.7179  2.2576
 1449SOL     hw 5795   0.340   0.954   3.127  0.4817 -0.3843  1.1308
 1449SOL     vw 5796   0.309   1.018   3.076  0.0301 -0.7851  0.8926
 1450SOL     ow 5797   6.854   2.413   6.122  0.2008  0.2818 -0.1558
 1450SOL     hw 5798   6.875   2.499   6.085  1.3854 -0.6788 -1.8709
 1450SOL     hw 5799   6.933   2.361   6.108 -0.7062 -1.2726  0.2617
 1450SOL     vw 5800   6.867   2.418   6.115  0.2372 -0.0499 -0.3271
 1451SOL     ow 5801   3.413   5.215   4.153  0.2754 -0.2441 -0.0436
 1451SOL     hw 5802   3.507   5.213   4.138  0.3701  1.9110 -0.0211
 1451SOL     hw 5803   3.403   5.196   4.246  0.7437  0.0703  0.0756
 1451SOL     vw 5804   3.424   5.212   4.163  0.3496  0.0815 -0.0248
 1452SOL     ow 5805   4.645   4.517   5.228  0.1469 -0.0203 -0.0790
 1452SOL     hw 5806   4.708   4.557   5.168  1.1029  0.4763  1.2119
 1452SOL     hw 5807   4.560   4.534   5.187  0.6922  1.2899 -0.7405
 1452SOL     vw 5808   4.642   4.525   5.214  0.3448  0.2179  0.0041
 1453SOL     ow 5809   3.766   0.213   5.179  0.5096  0.0598  0.2004
 1453SOL     hw 5810   3.698   0.147   5.194  0.3195 -0.4150 -2.3523
 1453SOL     hw 5811   3.828   0.199   5.251 -2.0191  0.5716  2.6949
 1453SOL     vw 5812   3.765   0.203   5.191  0.1509  0.0647  0.1931
 1454SOL     ow 5813   3.332   6.070   6.052 -0.0067 -0.2860 -0.2209
 1454SOL     hw 5814   3.427   6.059   6.064 -0.2385 -1.0184  1.0671
 1454SOL     hw 5815   3.308   5.998   5.992 -0.3184 -2.5909  2.4640
 1454SOL     vw 5816   3.342   6.059   6.045 -0.0783 -0.6864  0.3035
 1455SOL     ow 5817   2.354   5.676   5.291 -0.7972  0.2559  0.5196
 1455SOL     hw 5818   2.341   5.762   5.332 -1.4754 -0.0587  0.9912
 1455SOL     hw 5819   2.265   5.645   5.273 -0.5395 -0.1178 -0.1380
 1455SOL     vw 5820   2.340   5.684   5.294 -0.8526  0.1652  0.4952
 1456SOL     ow 5821   0.835   0.082   3.513  0.1247  0.0687 -0.7584
 1456SOL     hw 5822   0.780   0.082   3.434  0.2989  3.1611 -1.0265
 1456SOL     hw 5823   0.905   0.021   3.493 -1.7241 -1.9706 -1.4887
 1456SOL     vw 5824   0.837   0.074   3.500 -0.0963  0.2076 -0.8901
 1457SOL     ow 5825   4.873   1.066   4.617  0.0762 -0.1118 -0.4075
 1457SOL     hw 5826   4.871   1.036   4.708 -1.6848  1.1586  0.0246
 1457SOL     hw 5827   4.961   1.102   4.606  0.4465 -0.6285  0.6605
 1457SOL     vw 5828   4.885   1.067   4.628 -0.1070 -0.0123 -0.2096
 1458SOL     ow 5829   1.577   1.305   2.854  0.3597  0.1290  0.6291
 1458SOL     hw 5830   1.509   1.276   2.915  0.2771 -0.5609  0.2083
 1458SOL     hw 5831   1.601   1.227   2.805 -1.3684  1.1248 -2.0241
 1458SOL     vw 5832   1.572   1.291   2.856  0.1208  0.1693  0.2236
 1459SOL     ow 5833   0.381   3.977   3.639 -0.4994  0.1761  0.1055
 1459SOL     hw 5834   0.389   4.006   3.730 -3.9211 -0.1429  0.6323
 1459SOL     hw 5835   0.412   3.887   3.639 -2.9313 -0.7376  1.6447
 1459SOL     vw 5836   0.386   3.969   3.651 -1.2717  0.0135  0.3780
 1460SOL     ow 5837   0.871   0.281   3.965 -0.2477  0.0740  0.3177
 1460SOL     hw 5838   0.930   0.285   4.041 -0.5542 -0.4674  0.5939
 1460SOL     hw 5839   0.783   0.284   4.004 -0.4084 -0.4430  0.0047
 1460SOL     vw 5840   0.867   0.282   3.980 -0.3093 -0.0656  0.3129
 1461SOL     ow 5841   1.259   1.843   3.849 -0.2152  0.0083 -0.0684
 1461SOL     hw 5842   1.229   1.930   3.823  1.2950  0.2217 -1.2409
 1461SOL     hw 5843   1.182   1.802   3.889 -1.1761  1.5792 -0.2334
 1461SOL     vw 5844   1.245   1.849   3.851 -0.1428  0.2438 -0.2449
 1462SOL     ow 5845   1.750   5.554   6.362  0.1524  0.8290  0.5185
 1462SOL     hw 5846   1.742   5.498   6.440  0.9889  0.4473  0.3404
 1462SOL     hw 5847   1.670   5.536   6.312  0.8137 -0.9876 -0.0047
 1462SOL     vw 5848   1.738   5.544   6.365  0.3501  0.5388  0.4258
 1463SOL     ow 5849   3.545   0.305   2.392  0.2880 -0.4232  0.1867
 1463SOL     hw 5850   3.549   0.348   2.477  1.1871  0.4577 -0.2739
 1463SOL     hw 5851   3.475   0.241   2.401 -0.7479  0.7673  1.0938
 1463SOL     vw 5852   3.536   0.302   2.404  0.2699 -0.1499  0.2457
 1464SOL     ow 5853   2.353   6.767   3.249  0.1179 -0.4111 -0.0985
 1464SOL     hw 5854   2.297   6.735   3.320  1.3786 -0.6892  0.8005
 1464SOL     hw 5855   2.426   6.810   3.293  1.5407 -1.6147 -1.1744
 1464SOL     vw 5856   2.355   6.768   3.264  0.4719 -0.6068 -0.1218
 1465SOL     ow 5857   6.548   0.685   1.593 -0.2004  0.8754 -0.4435
 1465SOL     hw 5858   6.598   0.766   1.583 -0.4011  0.9924 -0.5086
 1465SOL     hw 5859   6.582   0.627   1.524 -0.9343  1.3535 -1.2248
 1465SOL     vw 5860   6.559   0.688   1.583 -0.3238  0.9539 -0.5551
 1466SOL     ow 5861   1.240   6.407   4.603 -0.2513  0.6424 -0.4272
 1466SOL     hw 5862   1.163   6.408   4.546 -0.6467 -3.0309 -0.1933
 1466SOL     hw 5863   1.314   6.406   4.542 -0.3861  2.2964 -0.6777
 1466SOL     vw 5864   1.240   6.407   4.587 -0.3212  0.3760 -0.4294
 1467SOL     ow 5865   7.024   2.884   5.666  0.5558  0.3115 -0.4476
 1467SOL     hw 5866   6.967   2.859   5.738  0.4869  1.7516  0.0213
 1467SOL     hw 5867   6.989   2.837   5.590  0.1711 -0.6234  0.2943
 1467SOL     vw 5868   7.012   2.874   5.666  0.4959  0.3780 -0.2880
 1468SOL     ow 5869   4.544   2.773   1.294 -0.3950  0.1151 -0.1462
 1468SOL     hw 5870   4.607   2.752   1.363 -2.8207  2.4287  3.0548
 1468SOL     hw 5871   4.584   2.846   1.247  1.1433 -1.2752 -1.1077
 1468SOL     vw 5872   4.558   2.780   1.297 -0.5124  0.2367  0.1493
 1469SOL     ow 5873   0.197   2.147   2.721  0.2360 -0.2151  0.1130
 1469SOL     hw 5874   0.166   2.198   2.647  0.1650  1.3870  1.2009
 1469SOL     hw 5875   0.118   2.106   2.757 -0.3420  1.8765  1.3923
 1469SOL     vw 5876   0.183   2.148   2.716  0.1504  0.2722  0.4253
 1470SOL     ow 5877   4.892   0.715   0.942  0.4492  0.2132  0.4740
 1470SOL     hw 5878   4.838   0.782   0.899  1.6426 -0.3266 -2.0203
 1470SOL     hw 5879   4.828   0.659   0.987 -1.5146 -1.6090 -4.0063
 1470SOL     vw 5880   4.876   0.717   0.942  0.3476 -0.0985 -0.4463
 1471SOL     ow 5881   0.722   1.396   4.485 -0.3791 -0.0779 -0.2235
 1471SOL     hw 5882   0.805   1.422   4.445 -0.3187  1.0039  0.5508
 1471SOL     hw 5883   0.745   1.328   4.548  0.2609  1.5672  1.4207
 1471SOL     vw 5884   0.736   1.391   4.488 -0.2867  0.2818  0.0954
 1472SOL     ow 5885   2.021   3.467   1.284  0.4274  0.7110  0.1083
 1472SOL     hw 5886   2.025   3.463   1.379  4.1564 -1.0880  0.0502
 1472SOL     hw 5887   1.957   3.400   1.260  1.3464 -0.6865  1.3678
 1472SOL     vw 5888   2.013   3.458   1.293  1.0406  0.2892  0.2668
 1473SOL     ow 5889   1.614   0.899   5.614 -0.2773  1.0926  0.0386
 1473SOL     hw 5890   1.611   0.820   5.668  0.8964  1.0104  0.0042
 1473SOL     hw 5891   1.559   0.879   5.539  0.0218  0.2889  0.0205
 1473SOL     vw 5892   1.606   0.886   5.611 -0.0830  0.9757  0.0317
 1474SOL     ow 5893   2.614   2.547   3.356 -0.4520  0.2343  0.1417
 1474SOL     hw 5894   2.620   2.642   3.341  0.3220  0.2276  0.3813
 1474SOL     hw 5895   2.520   2.532   3.369 -0.7701  0.7224 -1.3946
 1474SOL     vw 5896   2.602   2.558   3.356 -0.3918  0.2979 -0.0293
 1475SOL     ow 5897   1.869   3.006   4.530 -0.2488  0.6907 -0.1800
 1475SOL     hw 5898   1.961   3.032   4.518  0.4567 -1.2239  0.6413
 1475SOL     hw 5899   1.840   2.982   4.442  0.1690  0.8824 -0.3792
 1475SOL     vw 5900   1.877   3.007   4.517 -0.1006  0.4634 -0.0982
 1476SOL     ow 5901   0.313   3.376   3.648 -0.6033 -0.0411  0.1663
 1476SOL     hw 5902   0.245   3.332   3.597 -0.1552 -0.0268 -0.4570
 1476SOL     hw 5903   0.365   3.423   3.583 -0.5205  0.6608  0.7280
 1476SOL     vw 5904   0.311   3.376   3.633 -0.5332  0.0533  0.1581
 1477SOL     ow 5905   2.950   2.173   2.080 -0.5170  0.2573  0.1402
 1477SOL     hw 5906   2.894   2.217   2.017  1.7211 -0.9398 -2.9404
 1477SOL     hw 5907   2.967   2.238   2.148 -1.1481  2.4816 -1.7423
 1477SOL     vw 5908   2.945   2.187   2.081 -0.3051  0.3928 -0.5147
 1478SOL     ow 5909   3.792   0.754   6.294 -0.2397  0.4052 -0.5902
 1478SOL     hw 5910   3.886   0.764   6.278 -0.5688  0.6499 -2.6214
 1478SOL     hw 5911   3.765   0.837   6.333  0.0179  1.1490 -1.9638
 1478SOL     vw 5912   3.801   0.766   6.297 -0.2491  0.5356 -1.0393
 1479SOL     ow 5913   5.977   3.335   0.329  0.0866 -0.3082  0.0235
 1479SOL     hw 5914   5.970   3.358   0.422 -1.0907 -3.0020  0.7098
 1479SOL     hw 5915   5.916   3.395   0.285 -0.9853 -0.3834  1.3220
 1479SOL     vw 5916   5.968   3.346   0.336 -0.2103 -0.6735  0.2854
 1480SOL     ow 5917   2.406   5.165   2.383  0.1034 -0.0111  0.7394
 1480SOL     hw 5918   2.311   5.161   2.391  0.1299 -2.0503  0.6337
 1480SOL     hw 5919   2.422   5.164   2.288  0.2464  0.2455  0.7582
 1480SOL     vw 5920   2.395   5.164   2.371  0.1259 -0.2465  0.7279
 1481SOL     ow 5921   4.848   2.327   6.468 -0.6303  0.0392  0.2989
 1481SOL     hw 5922   4.852   2.285   6.554 -0.1122 -0.2703  0.1318
 1481SOL     hw 5923   4.831   2.419   6.487 -0.0119  0.0714  0.7669
 1481SOL     vw 5924   4.846   2.333   6.482 -0.4802  0.0025  0.3386
 1482SOL     ow 5925   5.524   3.095   4.784 -0.5453  0.1321  0.2643
 1482SOL     hw 5926   5.577   3.161   4.738 -0.1022  0.0304  0.6221
 1482SOL     hw 5927   5.441   3.094   4.736 -0.5057  0.8450  0.1698
 1482SOL     vw 5928   5.520   3.103   4.771 -0.4816  0.2128  0.2992
 1483SOL     ow 5929   5.732   6.692   4.573 -0.6742  0.1133 -0.0092
 1483SOL     hw 5930   5.735   6.781   4.539  0.5572 -0.0550 -0.3945
 1483SOL     hw 5931   5.705   6.639   4.498 -2.1464  0.2159  0.4059
 1483SOL     vw 5932   5.729   6.697   4.559 -0.7060  0.1047 -0.0055
 1484SOL     ow 5933   4.890   0.885   4.820  0.1756 -0.1506 -0.3927
 1484SOL     hw 5934   4.960   0.866   4.883 -0.5770 -0.8850  0.2512
 1484SOL     hw 5935   4.851   0.800   4.802 -2.0999  0.5023  1.1059
 1484SOL     vw 5936   4.894   0.871   4.826 -0.2239 -0.1614 -0.1101
 1485SOL     ow 5937   0.229   0.062   0.293  0.2217 -0.3373  0.1081
 1485SOL     hw 5938   0.285   0.085   0.367 -0.4378  1.6582  0.0645
 1485SOL     hw 5939   0.175  -0.010   0.325  0.1837  0.2661  1.4833
 1485SOL     vw 5940   0.229   0.056   0.307  0.1297  0.0056  0.2838
 1486SOL     ow 5941   0.056   2.507   0.195  0.4639 -0.2626  0.4128
 1486SOL     hw 5942  -0.024   2.559   0.195  1.0542  0.6821  0.4618
 1486SOL     hw 5943   0.041   2.439   0.260 -0.1580  0.1368  0.6956
 1486SOL     vw 5944   0.044   2.505   0.204  0.4599 -0.0854  0.4566
 1487SOL     ow 5945   7.111   3.835   5.729  0.2000 -0.2799  0.4717
 1487SOL     hw 5946   7.140   3.753   5.769  0.6418  0.3246  1.4235
 1487SOL     hw 5947   7.112   3.899   5.801  0.8528  0.8008 -0.4577
 1487SOL     vw 5948   7.115   3.833   5.744  0.3443 -0.0576  0.4747
 1488SOL     ow 5949   1.724   6.003   0.931 -0.0819 -0.2405 -0.3410
 1488SOL     hw 5950   1.715   6.007   0.835 -0.6998  0.8451 -0.2540
 1488SOL     hw 5951   1.760   6.088   0.955  0.8689 -0.8168  0.3314
 1488SOL     vw 5952   1.728   6.014   0.921 -0.0380 -0.1733 -0.2408
 1489SOL     ow 5953   3.688   0.515   6.432 -0.1630 -0.5147 -0.1791
 1489SOL     hw 5954   3.758   0.474   6.482 -0.3797  0.6162  1.0814
 1489SOL     hw 5955   3.612   0.515   6.491 -0.3913  0.9444 -0.4405
 1489SOL     vw 5956   3.687   0.510   6.446 -0.2217 -0.1729 -0.0474
 1490SOL     ow 5957   3.983   3.510   4.089  0.1387  0.3399 -0.1591
 1490SOL     hw 5958   3.906   3.533   4.037 -0.0289  4.4653  1.4760
 1490SOL     hw 5959   3.952   3.448   4.154 -0.5603 -1.7556 -2.3531
 1490SOL     vw 5960   3.969   3.505   4.091  0.0244  0.6077 -0.2332
 1491SOL     ow 5961   6.344   6.201   0.088 -0.4604  0.5695 -0.2748
 1491SOL     hw 5962   6.340   6.260   0.163  0.3177 -0.1143  0.3396
 1491SOL     hw 5963   6.389   6.251   0.020 -0.2476  0.8543  0.0693
 1491SOL     vw 5964   6.349   6.215   0.089 -0.3297  0.5167 -0.1483
 1492SOL     ow 5965   6.818   1.027   6.088 -0.7536 -0.2023  0.1192
 1492SOL     hw 5966   6.840   1.025   5.995 -0.6242 -1.4771  0.1679
 1492SOL     hw 5967   6.723   1.019   6.090 -0.7795  0.0862  0.0912
 1492SOL     vw 5968   6.808   1.026   6.076 -0.7403 -0.3324  0.1218
 1493SOL     ow 5969   2.756   4.378   1.011  0.3905  0.0226 -0.6872
 1493SOL     hw 5970   2.844   4.401   1.040 -0.0952 -0.0545  0.9062
 1493SOL     hw 5971   2.749   4.284   1.030 -1.0482  0.6036  2.0240
 1493SOL     vw 5972   2.767   4.368   1.017  0.1366  0.0894 -0.1193
 1494SOL     ow 5973   5.360   5.209   4.745 -0.4504 -0.0369  0.0385
 1494SOL     hw 5974   5.335   5.147   4.676 -0.3684 -1.2991  1.1225
 1494SOL     hw 5975   5.276   5.239   4.781 -0.4847  0.0087 -0.0791
 1494SOL     vw 5976   5.345   5.205   4.740 -0.4442 -0.1972  0.1659
 1495SOL     ow 5977   4.565   4.813   6.802 -0.4670  0.0971 -0.0796
 1495SOL     hw 5978   4.653   4.790   6.833 -0.2225 -1.6911 -1.9119
 1495SOL     hw 5979   4.517   4.730   6.804 -1.1308  0.3761 -2.1209
 1495SOL     vw 5980   4.570   4.799   6.807 -0.5224 -0.1023 -0.5908
 1496SOL     ow 5981   3.740   3.518   3.873 -0.1818 -0.6316 -0.4105
 1496SOL     hw 5982   3.749   3.425   3.854  0.4302 -0.2837 -1.9897
 1496SOL     hw 5983   3.711   3.522   3.964 -3.4757 -2.4852 -1.2221
 1496SOL     vw 5984   3.737   3.507   3.883 -0.5355 -0.8302 -0.7259
 1497SOL     ow 5985   4.061   3.055   4.953  0.0289 -0.0147  0.2684
 1497SOL     hw 5986   4.018   3.037   5.036  1.2011  0.2643  0.9654
 1497SOL     hw 5987   4.023   3.137   4.923 -0.1566  0.0605  0.7052
 1497SOL     vw 5988   4.051   3.063   4.960  0.1588  0.0319  0.4182
 1498SOL     ow 5989   6.416   5.901   5.588 -0.5161  0.0792 -0.4503
 1498SOL     hw 5990   6.464   5.929   5.510  0.5294  0.2936  0.2452
 1498SOL     hw 5991   6.422   5.975   5.649  0.2761 -0.7434  0.5176
 1498SOL     vw 5992   6.423   5.914   5.586 -0.2735 -0.0010 -0.2310
 1499SOL     ow 5993   6.070   5.119   2.988 -0.0295  0.5422  0.0666
 1499SOL     hw 5994   6.097   5.028   2.995  0.4457  0.7128  0.5380
 1499SOL     hw 5995   6.135   5.167   3.038 -1.5242  0.9186  1.7333
 1499SOL     vw 5996   6.082   5.114   2.995 -0.1638  0.6142  0.3488
 1500SOL     ow 5997   1.991   1.316   6.371 -0.3473  0.1171 -0.6227
 1500SOL     hw 5998   2.009   1.280   6.284  0.8601  0.6211 -0.5968
 1500SOL     hw 5999   2.018   1.248   6.432 -2.0772 -0.6173 -0.6363
 1500SOL     vw 6000   1.997   1.303   6.367 -0.4162  0.0867 -0.6211
 1501SOL     ow 6001   5.346   4.437   2.827 -0.1880 -0.1417  0.8418
 1501SOL     hw 6002   5.429   4.457   2.870  0.3425  2.9741 -1.2976
 1501SOL     hw 6003   5.286   4.506   2.855 -0.6706  0.2587 -1.0349
 1501SOL     vw 6004   5.349   4.448   2.836 -0.1817  0.3219  0.3119
 1502SOL     ow 6005   4.555   6.560   1.639  0.3630 -0.5782  0.8477
 1502SOL     hw 6006   4.559   6.622   1.712  2.0693  0.8733 -0.4120
 1502SOL     hw 6007   4.501   6.604   1.573 -0.0576 -1.3129  0.6886
 1502SOL     vw 6008   4.548   6.574   1.640  0.5329 -0.4833  0.6605
 1503SOL     ow 6009   5.354   3.633   6.583  0.1920  0.3799  0.0478
 1503SOL     hw 6010   5.428   3.692   6.570  1.8112 -1.1731  1.4769
 1503SOL     hw 6011   5.386   3.548   6.552 -0.9618 -0.3434  0.7774
 1503SOL     vw 6012   5.368   3.630   6.578  0.2534  0.0795  0.3326
 1504SOL     ow 6013   0.023   5.211   6.208 -0.6841 -0.3817  0.2064
 1504SOL     hw 6014  -0.061   5.249   6.234  1.1118  2.8330  1.9222
 1504SOL     hw 6015   0.044   5.151   6.280  0.2532  1.9660  2.0544
 1504SOL     vw 6016   0.014   5.208   6.221 -0.3235  0.3521  0.6766
 1505SOL     ow 6017   6.647   4.439   0.417  0.2473  0.0027 -0.3358
 1505SOL     hw 6018   6.732   4.410   0.449  0.0464  0.5072  0.6913
 1505SOL     hw 6019   6.659   4.449   0.323  1.3860  0.2627 -0.1789
 1505SOL     vw 6020   6.660   4.436   0.409  0.3710  0.1037 -0.1796
 1506SOL     ow 6021   1.520   5.986   2.191 -0.6589 -0.4100  1.1883
 1506SOL     hw 6022   1.531   6.048   2.262 -1.5775  1.5620 -0.2825
 1506SOL     hw 6023   1.477   5.910   2.231 -0.2655  0.2311  2.8884
 1506SOL     vw 6024   1.516   5.984   2.206 -0.7281 -0.0653  1.2186
 1507SOL     ow 6025   2.561   6.649   2.087 -0.3324 -0.2788  0.1015
 1507SOL     hw 6026   2.492   6.707   2.055  0.2400 -0.8711 -2.4636
 1507SOL     hw 6027   2.641   6.683   2.046  0.1922 -2.1483 -0.5144
 1507SOL     vw 6028   2.563   6.661   2.077 -0.1875 -0.6037 -0.3183
 1508SOL     ow 6029   5.191   6.046   6.703  0.3320  0.5916 -0.4542
 1508SOL     hw 6030   5.101   6.063   6.678  0.1394  0.1736 -0.0505
 1508SOL     hw 6031   5.231   6.008   6.625 -0.2206 -0.5597 -0.1934
 1508SOL     vw 6032   5.185   6.044   6.690  0.2339  0.3846 -0.3667
 1509SOL     ow 6033   3.703   0.492   3.376 -0.2076 -0.4877 -0.6576
 1509SOL     hw 6034   3.608   0.492   3.362 -0.1068 -0.5664 -1.3730
 1509SOL     hw 6035   3.735   0.559   3.316  0.1334 -0.0355  0.0179
 1509SOL     vw 6036   3.695   0.501   3.367 -0.1493 -0.4384 -0.6628
 1510SOL     ow 6037   6.883   2.155   2.396  0.7342  0.6800 -0.6611
 1510SOL     hw 6038   6.842   2.188   2.476 -1.4351 -2.8043 -0.1862
 1510SOL     hw 6039   6.950   2.094   2.427 -1.4242 -2.2189 -1.3072
 1510SOL     vw 6040   6.887   2.152   2.411  0.1633 -0.1621 -0.6837
 1511SOL     ow 6041   4.607   3.233   3.239  0.5302  0.0632  0.1966
 1511SOL     hw 6042   4.524   3.281   3.239  0.1035 -0.6534 -0.4656
 1511SOL     hw 6043   4.674   3.302   3.248 -0.0898  0.7362 -0.2176
 1511SOL     vw 6044   4.605   3.249   3.240  0.3922  0.0575  0.0545
 1512SOL     ow 6045   0.627   2.343   0.802 -0.0408 -0.0393  0.1528
 1512SOL     hw 6046   0.622   2.380   0.713  0.8884 -2.8205 -1.1738
 1512SOL     hw 6047   0.543   2.298   0.814  0.6795 -1.5838 -0.3096
 1512SOL     vw 6048   0.615   2.342   0.792  0.1769 -0.6100 -0.0832
 1513SOL     ow 6049   1.227   4.009   5.670 -0.5853 -0.5259 -0.4659
 1513SOL     hw 6050   1.157   4.051   5.720  0.6321 -0.6767  1.4605
 1513SOL     hw 6051   1.201   3.917   5.664  0.3722 -1.0443  2.1217
 1513SOL     vw 6052   1.214   4.003   5.676 -0.2984 -0.6142  0.1297
 1514SOL     ow 6053   7.039   1.079   2.770  0.5447 -0.2501 -0.3115
 1514SOL     hw 6054   7.067   1.054   2.682  0.8583  1.6732 -0.8013
 1514SOL     hw 6055   7.079   1.165   2.784  0.6385 -0.5981  1.7900
 1514SOL     vw 6056   7.048   1.087   2.760  0.5984 -0.0423 -0.0989
 1515SOL     ow 6057   4.667   2.965   2.749 -0.2555  0.1123 -0.1217
 1515SOL     hw 6058   4.755   2.971   2.786 -0.6268  1.4545  0.6341
 1515SOL     hw 6059   4.639   2.875   2.766  1.8264 -1.0868 -2.4584
 1515SOL     vw 6060   4.675   2.954   2.756 -0.0298  0.1312 -0.3303
 1516SOL     ow 6061   4.189   6.797   3.035  0.0513 -0.1906  0.2928
 1516SOL     hw 6062   4.140   6.721   3.005 -2.6265  1.5953 -0.2601
 1516SOL     hw 6063   4.227   6.834   2.955  0.5887 -0.4192  0.4359
 1516SOL     vw 6064   4.188   6.792   3.020 -0.2315  0.0150  0.2388
 1517SOL     ow 6065   1.976   2.677   2.644 -0.3238  0.1492 -0.3458
 1517SOL     hw 6066   1.892   2.723   2.639 -0.5945 -0.2503  0.3929
 1517SOL     hw 6067   2.038   2.743   2.675 -0.8318 -0.0875  1.2958
 1517SOL     vw 6068   1.973   2.692   2.648 -0.4267  0.0652 -0.0317
 1518SOL     ow 6069   5.115   5.652   2.092 -0.7616 -0.3486 -0.0200
 1518SOL     hw 6070   5.140   5.675   2.182 -0.9181  3.2708 -0.7340
 1518SOL     hw 6071   5.192   5.674   2.040 -1.8063  0.9327 -1.0993
 1518SOL     vw 6072   5.129   5.658   2.097 -0.9203  0.2980 -0.2567
 1519SOL     ow 6073   5.643   5.358   3.617  1.0226  0.5639  0.4315
 1519SOL     hw 6074   5.707   5.297   3.582 -0.5301 -0.9255  0.0596
 1519SOL     hw 6075   5.595   5.308   3.683 -0.2236  1.4188  0.2127
 1519SOL     vw 6076   5.645   5.344   3.621  0.6533  0.4802  0.3537
 1520SOL     ow 6077   2.325   3.601   2.295 -0.4603 -0.1223 -0.2183
 1520SOL     hw 6078   2.385   3.545   2.245  1.7002  0.3148  1.7212
 1520SOL     hw 6079   2.336   3.688   2.259 -0.0829 -0.0882 -0.0268
 1520SOL     vw 6080   2.334   3.605   2.284 -0.1255 -0.0602  0.0628
 1521SOL     ow 6081   0.278   1.246   2.862 -0.2490 -0.1650 -0.0389
 1521SOL     hw 6082   0.198   1.194   2.855  0.0961 -0.4606 -3.2757
 1521SOL     hw 6083   0.248   1.332   2.892 -1.4941 -0.7896  0.6067
 1521SOL     vw 6084   0.263   1.250   2.865 -0.3677 -0.2864 -0.3809
 1522SOL     ow 6085   2.285   5.484   5.863 -0.9531 -0.2704 -0.2630
 1522SOL     hw 6086   2.206   5.521   5.824 -1.4867 -2.0643 -0.9893
 1522SOL     hw 6087   2.264   5.476   5.956 -0.7938  1.2488 -0.0709
 1522SOL     vw 6088   2.272   5.488   5.870 -1.0027 -0.3064 -0.3335
 1523SOL     ow 6089   0.601   1.056   5.901  0.0734 -0.4611 -0.3548
 1523SOL     hw 6090   0.686   1.058   5.943 -0.7026  1.7402  1.2878
 1523SOL     hw 6091   0.590   1.143   5.864 -1.8858 -0.3344  0.4103
 1523SOL     vw 6092   0.611   1.067   5.901 -0.2874 -0.1540 -0.0370
 1524SOL     ow 6093   1.434   3.081   6.582 -0.3194  0.1605 -0.5490
 1524SOL     hw 6094   1.463   3.133   6.507  1.8650 -2.3115 -1.5582
 1524SOL     hw 6095   1.405   2.998   6.544 -1.5182 -0.2825  1.1816
 1524SOL     vw 6096   1.434   3.077   6.567 -0.1894 -0.2241 -0.4537
 1525SOL     ow 6097   6.111   1.132   1.961 -0.7272 -0.0316  0.8962
 1525SOL     hw 6098   6.028   1.179   1.951  0.0605  1.1839 -0.5212
 1525SOL     hw 6099   6.172   1.199   1.993 -0.0153 -0.5814  0.7062
 1525SOL     vw 6100   6.108   1.147   1.964 -0.5293  0.0562  0.6842
 1526SOL     ow 6101   3.341   1.241   3.783  0.2676  0.5526  0.5625
 1526SOL     hw 6102   3.360   1.149   3.801 -0.6424  0.0821 -0.8092
 1526SOL     hw 6103   3.387   1.288   3.853  1.8342 -0.8485  0.5491
 1526SOL     vw 6104   3.350   1.235   3.795  0.3543  0.3056  0.3797
 1527SOL     ow 6105   4.184   1.540   4.796  0.0077 -0.2987 -0.0132
 1527SOL     hw 6106   4.273   1.505   4.794 -0.1205 -0.7263  0.9225
 1527SOL     hw 6107   4.190   1.614   4.856 -0.3479 -0.5927  0.3925
 1527SOL     vw 6108   4.197   1.545   4.804 -0.0560 -0.3939  0.1638
 1528SOL     ow 6109   1.960   5.781   6.448  0.2882  0.1371  0.5601
 1528SOL     hw 6110   2.025   5.729   6.496  1.2169  1.6174  0.9780
 1528SOL     hw 6111   2.009   5.818   6.374 -0.7072 -0.7212 -0.5554
 1528SOL     vw 6112   1.975   5.779   6.445  0.2794  0.2193  0.4683
 1529SOL     ow 6113   0.586   6.353   6.871  0.5388  0.4239  0.0266
 1529SOL     hw 6114   0.656   6.416   6.855  0.1524  0.9593  0.4190
 1529SOL     hw 6115   0.606   6.316   6.957 -1.3810  2.9552  1.7066
 1529SOL     vw 6116   0.598   6.357   6.881  0.2345  0.8285  0.3002
 1530SOL     ow 6117   3.387   5.697   6.095 -0.1802  0.1101 -0.5292
 1530SOL     hw 6118   3.304   5.698   6.047 -1.1091  1.4572  1.0458
 1530SOL     hw 6119   3.375   5.631   6.163  0.0808  0.2311 -0.3637
 1530SOL     vw 6120   3.374   5.688   6.097 -0.2683  0.3040 -0.2995
 1531SOL     ow 6121   5.926   7.171   6.726  0.1260  0.1702 -0.5708
 1531SOL     hw 6122   6.010   7.196   6.762 -0.6449  0.4987  1.1075
 1531SOL     hw 6123   5.942   7.087   6.683  1.1300 -0.2098  0.5021
 1531SOL     vw 6124   5.939   7.163   6.725  0.1566  0.1633 -0.2081
 1532SOL     ow 6125   1.511   2.229   5.032 -0.7035 -0.5617  0.0697
 1532SOL     hw 6126   1.454   2.302   5.056 -1.9262 -2.2540  2.7971
 1532SOL     hw 6127   1.453   2.164   4.994  0.1263 -0.7130 -0.9843
 1532SOL     vw 6128   1.496   2.230   5.030 -0.7553 -0.8049  0.2904
 1533SOL     ow 6129   4.589   6.270   2.789 -0.1760  0.0433 -0.2105
 1533SOL     hw 6130   4.496   6.291   2.783 -0.2294 -0.4735 -1.3843
 1533SOL     hw 6131   4.612   6.235   2.703  0.8899 -0.6951  0.3500
 1533SOL     vw 6132   4.580   6.268   2.777 -0.0424 -0.1225 -0.2915
 1534SOL     ow 6133   0.915   1.683   2.461  0.6898  0.7051 -0.1890
 1534SOL     hw 6134   0.964   1.753   2.418  0.7689  0.4103 -0.5839
 1534SOL     hw 6135   0.973   1.651   2.529  0.5007  1.2855  0.2533
 1534SOL     vw 6136   0.929   1.688   2.464  0.6753  0.7428 -0.1826
 1535SOL     ow 6137   2.742   2.015   5.636  0.0751  0.3652 -0.1945
 1535SOL     hw 6138   2.792   2.093   5.612  0.4210 -0.1338 -1.1574
 1535SOL     hw 6139   2.709   1.981   5.552 -0.8814  0.0136  0.3018
 1535SOL     vw 6140   2.744   2.021   5.622 -0.0055  0.2530 -0.2558
 1536SOL     ow 6141   2.486   1.514   1.217  0.3532 -0.2035 -0.0026
 1536SOL     hw 6142   2.537   1.454   1.163 -1.1661 -1.3779 -0.1636
 1536SOL     hw 6143   2.469   1.465   1.298 -0.9153 -0.0259 -0.1425
 1536SOL     vw 6144   2.491   1.500   1.221 -0.0147 -0.3350 -0.0424
 1537SOL     ow 6145   6.624   2.761   2.134  0.0066 -0.1550  0.7838
 1537SOL     hw 6146   6.699   2.774   2.076 -0.5143 -0.8668 -0.0932
 1537SOL     hw 6147   6.631   2.670   2.162 -1.7003 -0.9569 -1.1165
 1537SOL     vw 6148   6.635   2.751   2.130 -0.2873 -0.3549  0.4174
 1538SOL     ow 6149   2.910   0.885   3.860  0.2168 -0.3498  0.1318
 1538SOL     hw 6150   2.878   0.896   3.950 -1.8939 -3.0304 -0.1571
 1538SOL     hw 6151   2.833   0.901   3.806  1.5635  1.6862 -1.3427
 1538SOL     vw 6152   2.896   0.889   3.865  0.1161 -0.4348 -0.1009
 1539SOL     ow 6153   5.982   6.098   2.545 -0.0760 -1.0705  0.0173
 1539SOL     hw 6154   5.940   6.155   2.481 -1.7294 -2.8932 -0.6144
 1539SOL     hw 6155   5.954   6.009   2.520  1.7683 -2.1099  1.4029
 1539SOL     vw 6156   5.973   6.094   2.533 -0.0510 -1.4479  0.1168
 1540SOL     ow 6157   2.637   6.756   2.362  0.3666  0.4374 -1.2006
 1540SOL     hw 6158   2.557   6.809   2.358  1.3217  1.8939 -2.0545
 1540SOL     hw 6159   2.676   6.779   2.446  1.0996  1.6486 -1.8365
 1540SOL     vw 6160   2.631   6.766   2.372  0.5893  0.7894 -1.3971
 1541SOL     ow 6161   6.616   3.428   2.710 -0.2745  0.6312  0.4768
 1541SOL     hw 6162   6.538   3.378   2.686  0.1544  0.0051  0.3735
 1541SOL     hw 6163   6.626   3.492   2.639  1.6450 -1.9427 -1.8095
 1541SOL     vw 6164   6.607   3.430   2.697  0.0353  0.2090  0.1615
 1542SOL     ow 6165   1.653   1.434   6.642 -0.1572 -0.0302 -0.1511
 1542SOL     hw 6166   1.663   1.412   6.549  1.6736 -0.3624  0.1007
 1542SOL     hw 6167   1.578   1.495   6.643 -0.6083 -0.4882 -1.7521
 1542SOL     vw 6168   1.644   1.439   6.630  0.0248 -0.1344 -0.3290
 1543SOL     ow 6169   1.310   1.911   1.679  0.4902  0.0334  0.0489
 1543SOL     hw 6170   1.365   1.986   1.701  1.7450 -0.8224 -0.0679
 1543SOL     hw 6171   1.243   1.947   1.621 -0.6851  1.6177  2.2387
 1543SOL     vw 6172   1.309   1.926   1.674  0.5007  0.1294  0.3224
 1544SOL     ow 6173   4.871   0.047   6.535  0.0871  0.2014 -0.1605
 1544SOL     hw 6174   4.792   0.036   6.482 -0.2743  0.6279  0.2839
 1544SOL     hw 6175   4.900  -0.043   6.552  2.1142 -0.0099 -3.8251
 1544SOL     vw 6176   4.864   0.034   6.531  0.3068  0.2298 -0.5853
 1545SOL     ow 6177   3.084   0.741   1.081 -0.0329 -0.2527  0.4853
 1545SOL     hw 6178   3.042   0.808   1.135 -0.7763  0.5801 -1.0670
 1545SOL     hw 6179   3.017   0.673   1.072  1.6587 -2.8548  4.5575
 1545SOL     vw 6180   3.069   0.741   1.087  0.0924 -0.4861  0.8178
 1546SOL     ow 6181   3.061   5.625   1.149 -0.6804  1.1411 -0.4705
 1546SOL     hw 6182   3.003   5.550   1.138  0.0405  0.2039  1.6028
 1546SOL     hw 6183   3.136   5.591   1.198  0.2539  2.9608 -0.5417
 1546SOL     vw 6184   3.063   5.611   1.154 -0.4621  1.2574 -0.2064
 1547SOL     ow 6185   5.240   4.206   2.882 -0.4439 -0.5520 -0.2965
 1547SOL     hw 6186   5.290   4.283   2.858  2.9889 -2.1772  0.9497
 1547SOL     hw 6187   5.223   4.161   2.798  2.5635 -1.1847 -0.6860
 1547SOL     vw 6188   5.244   4.210   2.867  0.4055 -0.8497 -0.1835
 1548SOL     ow 6189   0.165   4.351   4.189 -0.4213  0.2237 -0.5830
 1548SOL     hw 6190   0.220   4.319   4.117  0.8192  0.9822  0.0033
 1548SOL     hw 6191   0.077   4.355   4.151 -0.0701 -0.8812 -1.5830
 1548SOL     vw 6192   0.161   4.347   4.174 -0.2113  0.1781 -0.6378
 1549SOL     ow 6193   2.718   2.547   2.698  0.1364 -0.0757 -0.4489
 1549SOL     hw 6194   2.643   2.606   2.701  0.5194  0.3834  1.0498
 1549SOL     hw 6195   2.767   2.574   2.621 -0.7489  0.2281 -0.9136
 1549SOL     vw 6196   2.715   2.558   2.688  0.0702  0.0250 -0.3123
 1550SOL     ow 6197   4.471   5.332   6.237  0.0178  0.3524 -0.2690
 1550SOL     hw 6198   4.506   5.420   6.220  0.5696  0.9067  3.0919
 1550SOL     hw 6199   4.419   5.342   6.316  0.7535 -2.4916  0.6734
 1550SOL     vw 6200   4.469   5.345   6.245  0.1874  0.0503  0.2990
 1551SOL     ow 6201   4.858   5.283   7.070 -0.0306  0.5496 -0.5776
 1551SOL     hw 6202   4.950   5.267   7.050 -0.5678 -0.5131 -2.4446
 1551SOL     hw 6203   4.812   5.208   7.033 -1.5860  0.4959  1.2990
 1551SOL     vw 6204   4.864   5.271   7.062 -0.3068  0.4025 -0.5760
 1552SOL     ow 6205   0.691   2.601   0.963 -0.2905  0.2194  0.5202
 1552SOL     hw 6206   0.602   2.634   0.962 -0.4019 -0.0875 -0.0478
 1552SOL     hw 6207   0.731   2.642   1.040 -0.0752  2.5996 -0.7549
 1552SOL     vw 6208   0.685   2.611   0.973 -0.2768  0.4930  0.2770
 1553SOL     ow 6209   4.558   3.737   6.251  0.1326 -0.3733 -0.2510
 1553SOL     hw 6210   4.588   3.815   6.299 -1.0467  0.4599 -0.8120
 1553SOL     hw 6211   4.574   3.665   6.311  2.3407  0.1164 -0.1569
 1553SOL     vw 6212   4.564   3.738   6.265  0.2687 -0.1987 -0.3123
 1554SOL     ow 6213   4.904   5.896   2.137  0.1167 -0.1733 -0.0537
 1554SOL     hw 6214   4.984   5.849   2.159  0.3764 -1.1774 -2.7760
 1554SOL     hw 6215   4.933   5.976   2.093 -0.3830  1.5154  2.4651
 1554SOL     vw 6216   4.918   5.901   2.134  0.0849 -0.0825 -0.0806
 1555SOL     ow 6217   3.009   2.405   2.758  0.1365  0.0207  0.8213
 1555SOL     hw 6218   3.101   2.424   2.738 -0.8614  1.1122 -4.0620
 1555SOL     hw 6219   2.996   2.315   2.729 -0.6056  0.3926 -0.0621
 1555SOL     vw 6220   3.019   2.396   2.751 -0.0931  0.2139  0.0606
 1556SOL     ow 6221   3.726   0.417   4.908 -0.1952  0.9476  0.5607
 1556SOL     hw 6222   3.720   0.512   4.893  1.3579  1.3557  2.1055
 1556SOL     hw 6223   3.661   0.379   4.849 -0.7714  2.9619 -0.1975
 1556SOL     vw 6224   3.716   0.425   4.899 -0.0664  1.2672  0.6647
 1557SOL     ow 6225   4.198   1.979   3.156 -0.0756  0.2005 -0.1453
 1557SOL     hw 6226   4.273   2.011   3.207 -0.7847 -0.2577  1.2467
 1557SOL     hw 6227   4.134   1.953   3.222 -0.3157 -2.2248 -1.2305
 1557SOL     vw 6228   4.200   1.980   3.172 -0.2007 -0.1799 -0.1049
 1558SOL     ow 6229   5.426   3.355   2.102  0.5538  0.4629 -0.2090
 1558SOL     hw 6230   5.398   3.347   2.193  1.9506  1.4527  0.3315
 1558SOL     hw 6231   5.344   3.347   2.051 -0.2822  0.2452  1.1262
 1558SOL     vw 6232   5.411   3.353   2.107  0.6280  0.5648  0.0386
 1559SOL     ow 6233   6.849   4.105   5.594 -0.0539 -0.0067 -0.5569
 1559SOL     hw 6234   6.883   4.126   5.682 -0.2413  0.3023 -0.5580
 1559SOL     hw 6235   6.834   4.190   5.554 -1.6546 -0.1201 -0.2446
 1559SOL     vw 6236   6.852   4.119   5.600 -0.2899  0.0191 -0.5159
 1560SOL     ow 6237   6.967   1.110   6.535 -0.7166  0.8714 -0.0971
 1560SOL     hw 6238   6.940   1.111   6.627 -0.5273  0.8978 -0.0416
 1560SOL     hw 6239   7.060   1.086   6.538 -0.3955  2.0651 -0.2112
 1560SOL     vw 6240   6.976   1.107   6.548 -0.6492  1.0324 -0.1049
 1561SOL     ow 6241   0.263   5.630   0.554 -0.2310 -0.3835 -0.0602
 1561SOL     hw 6242   0.168   5.635   0.555 -0.2610 -0.6928 -0.6456
 1561SOL     hw 6243   0.292   5.720   0.543 -0.3634  0.0839  2.7853
 1561SOL     vw 6244   0.254   5.642   0.553 -0.2524 -0.3629  0.2380
 1562SOL     ow 6245   3.010   0.023   6.859  0.3016 -0.0166 -0.7256
 1562SOL     hw 6246   2.922   0.056   6.840  0.3510  0.5728 -0.0200
 1562SOL     hw 6247   3.001  -0.072   6.860 -0.6526  0.0576  0.7351
 1562SOL     vw 6248   2.997   0.015   6.857  0.1823  0.0709 -0.4396
 1563SOL     ow 6249   1.051   6.028   4.606 -0.0210 -0.1841  0.0558
 1563SOL     hw 6250   0.975   6.084   4.587 -1.2543 -2.0479 -0.7572
 1563SOL     hw 6251   1.104   6.030   4.527  0.8141  1.0628  0.5999
 1563SOL     vw 6252   1.048   6.036   4.593 -0.0734 -0.2654  0.0205
 1564SOL     ow 6253   0.243   5.605   4.446  0.5782 -0.2588  0.0582
 1564SOL     hw 6254   0.189   5.550   4.390  0.4023  1.7716 -1.8490
 1564SOL     hw 6255   0.324   5.618   4.396  0.0665  2.3189 -0.2107
 1564SOL     vw 6256   0.247   5.599   4.432  0.4874  0.3490 -0.2291
 1565SOL     ow 6257   2.764   3.551   3.509 -0.6089  0.0350 -0.5246
 1565SOL     hw 6258   2.703   3.489   3.548 -0.1212 -0.5913 -0.7521
 1565SOL     hw 6259   2.714   3.593   3.439 -0.5499 -1.0201 -1.2150
 1565SOL     vw 6260   2.749   3.549   3.505 -0.5368 -0.1868 -0.6458
 1566SOL     ow 6261   4.082   3.014   6.376 -0.8239 -0.7371  0.8230
 1566SOL     hw 6262   4.019   2.943   6.367  1.1262 -2.3807 -0.9095
 1566SOL     hw 6263   4.054   3.079   6.312 -1.3819 -0.9224  0.8728
 1566SOL     vw 6264   4.070   3.014   6.367 -0.6402 -0.9784  0.6011
 1567SOL     ow 6265   5.700   5.050   4.119  0.0787 -0.3521  0.9508
 1567SOL     hw 6266   5.627   5.102   4.084  0.6371 -0.7910 -0.9772
 1567SOL     hw 6267   5.685   5.048   4.214 -2.1913 -0.0838  0.6522
 1567SOL     vw 6268   5.688   5.056   4.127 -0.1471 -0.3743  0.6568
 1568SOL     ow 6269   3.454   1.238   5.911 -0.9293  0.5646 -0.1980
 1568SOL     hw 6270   3.470   1.271   5.999 -1.6101  0.8596 -0.1723
 1568SOL     hw 6271   3.429   1.316   5.861 -0.0276  0.4841 -0.7827
 1568SOL     vw 6272   3.453   1.253   5.916 -0.9000  0.5929 -0.2718
 1569SOL     ow 6273   3.492   0.717   6.269  0.5210  0.1125  0.5601
 1569SOL     hw 6274   3.460   0.755   6.351  0.8920  1.2732  0.1923
 1569SOL     hw 6275   3.412   0.702   6.217  0.3101 -0.3466  1.0188
 1569SOL     vw 6276   3.477   0.720   6.273  0.5422  0.2050  0.5722
 1570SOL     ow 6277   5.491   4.735   1.841 -0.3255 -0.2081 -0.0148
 1570SOL     hw 6278   5.582   4.759   1.858 -0.7298  0.1873  1.7485
 1570SOL     hw 6279   5.486   4.729   1.746  1.6573 -0.7286 -0.1384
 1570SOL     vw 6280   5.503   4.737   1.831 -0.1175 -0.2246  0.2015
 1571SOL     ow 6281   5.098   4.381   3.073  0.0563  0.1212 -0.5067
 1571SOL     hw 6282   5.031   4.433   3.028  0.1370 -0.4567 -1.3082
 1571SOL     hw 6283   5.111   4.427   3.157 -0.0480  1.2576 -1.0869
 1571SOL     vw 6284   5.091   4.394   3.078  0.0534  0.1948 -0.6890
 1572SOL     ow 6285   0.183   0.141   5.669 -0.2226  0.3023  0.5970
 1572SOL     hw 6286   0.203   0.232   5.691 -0.9706  0.7069 -0.3093
 1572SOL     hw 6287   0.120   0.113   5.735 -0.5634  0.6885  0.4334
 1572SOL     vw 6288   0.177   0.149   5.681 -0.3662  0.4066  0.4561
 1573SOL     ow 6289   3.190   4.022   0.314  0.0247  0.2001 -0.5946
 1573SOL     hw 6290   3.192   4.061   0.227  0.5798  0.2078 -0.5790
 1573SOL     hw 6291   3.282   4.010   0.338 -0.1187 -1.1486 -0.6117
 1573SOL     vw 6292   3.202   4.025   0.306  0.0792  0.0236 -0.5948
 1574SOL     ow 6293   3.702   6.955   1.447  0.2681  0.5719 -0.3319
 1574SOL     hw 6294   3.700   6.955   1.543  0.6872  2.4069 -0.2703
 1574SOL     hw 6295   3.795   6.951   1.425  0.1987  0.6334 -0.6395
 1574SOL     vw 6296   3.714   6.955   1.457  0.3142  0.8221 -0.3643
 1575SOL     ow 6297   3.543   6.232   6.296 -0.5546  0.0121  0.1911
 1575SOL     hw 6298   3.481   6.304   6.283 -0.0123  0.5987  0.7854
 1575SOL     hw 6299   3.600   6.235   6.219  0.8590  1.6653  1.2027
 1575SOL     vw 6300   3.543   6.242   6.284 -0.2965  0.3076  0.4029
 1576SOL     ow 6301   0.519   0.960   3.796 -0.0335  0.7859 -0.4290
 1576SOL     hw 6302   0.494   1.042   3.754 -0.2702  1.4052  0.8911
 1576SOL     hw 6303   0.436   0.916   3.815  0.0595  0.6567 -0.3149
 1576SOL     vw 6304   0.505   0.965   3.793 -0.0525  0.8505 -0.2398
 1577SOL     ow 6305   6.514   2.333   3.828 -0.1207 -0.1131 -0.4008
 1577SOL     hw 6306   6.451   2.342   3.756  0.2844  2.0850 -0.5646
 1577SOL     hw 6307   6.589   2.385   3.799  0.6216 -0.3769  1.0094
 1577SOL     vw 6308   6.515   2.341   3.814  0.0308  0.1420 -0.2363
 1578SOL     ow 6309   1.301   2.047   6.766  0.6495  0.3722 -0.4850
 1578SOL     hw 6310   1.267   2.102   6.696  0.2513 -0.6075 -1.0744
 1578SOL     hw 6311   1.240   2.060   6.839  0.6569  0.8281 -0.5534
 1578SOL     vw 6312   1.289   2.056   6.767  0.5980  0.3031 -0.5717
 1579SOL     ow 6313   2.121   3.342   4.776  0.0064  0.0211  0.4306
 1579SOL     hw 6314   2.036   3.370   4.812  0.5296 -0.1028  1.8176
 1579SOL     hw 6315   2.172   3.423   4.771  0.6709 -0.2422  2.0983
 1579SOL     vw 6316   2.116   3.357   4.780  0.1631 -0.0299  0.8335
 1580SOL     ow 6317   0.463   3.940   0.068 -0.6850 -0.4524  0.1322
 1580SOL     hw 6318   0.420   3.878   0.011 -0.8707  0.2906 -0.5474
 1580SOL     hw 6319   0.515   3.886   0.128  1.6296 -1.2283 -2.3641
 1580SOL     vw 6320   0.464   3.925   0.069 -0.4041 -0.4567 -0.2868
 1581SOL     ow 6321   5.054   3.207   5.654  0.4164 -0.5165  0.2914
 1581SOL     hw 6322   5.140   3.176   5.680  1.1754  1.2456  0.0758
 1581SOL     hw 6323   5.052   3.299   5.682 -0.1824  0.3871 -2.3713
 1581SOL     vw 6324   5.065   3.215   5.661  0.4375 -0.1646 -0.0882
 1582SOL     ow 6325   3.242   2.123   7.021  0.2050 -0.2206  0.4803
 1582SOL     hw 6326   3.155   2.105   7.056  0.5071  1.4243  2.2370
 1582SOL     hw 6327   3.275   2.195   7.074  2.4749 -0.4985 -0.4357
 1582SOL     vw 6328   3.235   2.130   7.032  0.5443 -0.0403  0.5910
 1583SOL     ow 6329   0.815   3.364   4.263  0.1278  0.6586 -0.1055
 1583SOL     hw 6330   0.829   3.459   4.259  0.4265  0.6549  0.6240
 1583SOL     hw 6331   0.722   3.355   4.284  0.2536  0.8156  0.5497
 1583SOL     vw 6332   0.805   3.376   4.265  0.1839  0.6788  0.0775
 1584SOL     ow 6333   3.307   1.426   3.445 -0.0167  0.0562 -0.7854
 1584SOL     hw 6334   3.358   1.505   3.434 -1.5394  1.2132  0.0159
 1584SOL     hw 6335   3.243   1.428   3.374 -1.2606  0.5807  0.2851
 1584SOL     vw 6336   3.305   1.437   3.434 -0.3816  0.2781 -0.5383
 1585SOL     ow 6337   3.228   4.059   5.310 -0.3901 -0.3068  0.6296
 1585SOL     hw 6338   3.296   4.124   5.290 -0.2991 -0.8731 -1.1015
 1585SOL     hw 6339   3.249   3.984   5.254 -3.0000 -0.1197 -0.7709
 1585SOL     vw 6340   3.240   4.058   5.300 -0.7223 -0.3564  0.2165
 1586SOL     ow 6341   0.975   6.114   4.879 -0.4192 -0.5276 -0.2056
 1586SOL     hw 6342   1.010   6.034   4.839  1.9359  1.4194 -2.4010
 1586SOL     hw 6343   0.890   6.127   4.838 -1.1506 -2.1887  0.6845
 1586SOL     vw 6344   0.969   6.105   4.868 -0.2049 -0.4902 -0.3779
 1587SOL     ow 6345   0.015   4.091   3.672  0.3333  0.2954 -0.6402
 1587SOL     hw 6346   0.042   3.999   3.666  2.0379  0.2923  3.5741
 1587SOL     hw 6347   0.087   4.139   3.631  2.0388 -0.1837  1.5644
 1587SOL     vw 6348   0.028   4.085   3.666  0.7833  0.2317  0.2067
 1588SOL     ow 6349   6.518   0.479   1.434  0.7125 -0.3131 -0.6023
 1588SOL     hw 6350   6.453   0.445   1.494 -1.8978 -0.0702 -3.0650
 1588SOL     hw 6351   6.578   0.406   1.418 -0.4909 -1.4062 -0.2414
 1588SOL     vw 6352   6.518   0.465   1.440  0.2096 -0.4252 -0.8795
 1589SOL     ow 6353   5.894   5.576   4.818  0.3308 -1.1571  0.0605
 1589SOL     hw 6354   5.839   5.654   4.832  1.1681 -0.5391 -0.0157
 1589SOL     hw 6355   5.983   5.607   4.836  0.6036 -2.2806  0.7034
 1589SOL     vw 6356   5.899   5.591   4.823  0.4771 -1.2240  0.1354
 1590SOL     ow 6357   6.037   1.708   2.017  0.8602 -0.3220 -0.1099
 1590SOL     hw 6358   6.073   1.678   1.934  1.2885  1.0194 -0.4206
 1590SOL     hw 6359   6.042   1.803   2.013 -0.7248 -0.1674  0.7391
 1590SOL     vw 6360   6.042   1.716   2.006  0.7076 -0.1246 -0.0389
 1591SOL     ow 6361   2.262   6.211   3.433  0.0907  0.3806 -0.1405
 1591SOL     hw 6362   2.328   6.157   3.477 -0.0898  1.2055  1.2061
 1591SOL     hw 6363   2.192   6.150   3.410  0.0674 -0.0371  0.9910
 1591SOL     vw 6364   2.261   6.195   3.436  0.0638  0.4342  0.1863
 1592SOL     ow 6365   3.772   2.647   3.328 -0.1895  0.7218  0.1630
 1592SOL     hw 6366   3.851   2.701   3.334  0.3830 -0.1982  1.3531
 1592SOL     hw 6367   3.712   2.687   3.392  0.2061  0.0224  0.9876
 1592SOL     vw 6368   3.774   2.660   3.337 -0.0618  0.5082  0.4287
 1593SOL     ow 6369   0.094   7.054   0.414  0.2424 -0.2556  0.4410
 1593SOL     hw 6370   0.057   7.081   0.498  0.2388 -0.0960  0.3883
 1593SOL     hw 6371   0.024   7.068   0.351  0.4332  0.1602  0.3213
 1593SOL     vw 6372   0.080   7.059   0.417  0.2670 -0.1798  0.4182
 1594SOL     ow 6373   4.835   6.063   6.044 -0.5319  0.8734  0.2961
 1594SOL     hw 6374   4.759   6.007   6.032  0.2893 -1.0289  3.0602
 1594SOL     hw 6375   4.867   6.079   5.955 -2.2788 -0.9292 -0.7394
 1594SOL     vw 6376   4.829   6.058   6.030 -0.6542  0.3846  0.5243
 1595SOL     ow 6377   0.888   3.171   2.164 -0.5410  0.9854  0.2837
 1595SOL     hw 6378   0.903   3.081   2.137 -0.6938  0.7993  0.8061
 1595SOL     hw 6379   0.866   3.217   2.083  0.6526  0.8063 -0.1588
 1595SOL     vw 6380   0.887   3.165   2.150 -0.4037  0.9372  0.2942
 1596SOL     ow 6381   6.345   6.821   6.014 -0.5901 -0.2828 -0.0817
 1596SOL     hw 6382   6.342   6.781   5.927  1.6423  2.7536 -1.7606
 1596SOL     hw 6383   6.417   6.777   6.058 -0.6949 -0.7596 -0.3779
 1596SOL     vw 6384   6.354   6.810   6.008 -0.3092  0.0548 -0.3424
 1597SOL     ow 6385   5.453   5.468   1.705 -0.9184 -0.1514  0.4693
 1597SOL     hw 6386   5.426   5.378   1.725 -1.9461  0.3033  1.2301
 1597SOL     hw 6387   5.544   5.460   1.678 -0.9922 -1.4264  0.5271
 1597SOL     vw 6388   5.461   5.455   1.704 -1.0638 -0.2599  0.5774
 1598SOL     ow 6389   1.521   0.271   6.544  0.0638  0.5072  0.4260
 1598SOL     hw 6390   1.585   0.324   6.497  0.5543  0.0513  0.5671
 1598SOL     hw 6391   1.569   0.191   6.568 -0.2781  0.5656  1.3553
 1598SOL     vw 6392   1.536   0.267   6.541  0.0833  0.4547  0.5672
 1599SOL     ow 6393   1.329   6.442   5.121  0.0950  0.5288 -0.0600
 1599SOL     hw 6394   1.324   6.523   5.171 -1.1229  0.0084  0.7081
 1599SOL     hw 6395   1.351   6.375   5.186 -1.5412 -0.1604 -0.1666
 1599SOL     vw 6396   1.331   6.444   5.136 -0.2816  0.3693  0.0272
 1600SOL     ow 6397   2.588   6.578   0.412  0.4478 -0.8385  0.1573
 1600SOL     hw 6398   2.495   6.574   0.435  0.7906  0.6964  2.0774
 1600SOL     hw 6399   2.589   6.600   0.319 -1.2349  3.6198  0.9376
 1600SOL     vw 6400   2.576   6.580   0.403  0.2711 -0.0477  0.5136
 1601SOL     ow 6401   0.477   1.684   4.146  0.0117  0.1407 -0.2330
 1601SOL     hw 6402   0.440   1.600   4.120 -0.3888  0.4577 -0.7294
 1601SOL     hw 6403   0.563   1.663   4.183 -0.2037 -0.5060 -0.0867
 1601SOL     vw 6404   0.483   1.670   4.147 -0.0696  0.0973 -0.2792
 1602SOL     ow 6405   1.522   1.489   4.228 -0.2636 -0.3791  0.0472
 1602SOL     hw 6406   1.502   1.402   4.192  0.3302 -0.4035 -0.2300
 1602SOL     hw 6407   1.558   1.471   4.314 -1.5259 -0.3284  0.6119
 1602SOL     vw 6408   1.524   1.475   4.234 -0.3518 -0.3756  0.0854
 1603SOL     ow 6409   4.326   2.355   4.049  0.5319 -0.6122 -0.4341
 1603SOL     hw 6410   4.374   2.280   4.013  0.3676 -1.1560  0.4559
 1603SOL     hw 6411   4.273   2.318   4.120 -1.1544 -0.0004 -1.3379
 1603SOL     vw 6412   4.326   2.340   4.054  0.2878 -0.6032 -0.4358
 1604SOL     ow 6413   3.302   1.590   2.954 -0.6195  0.9145 -0.6986
 1604SOL     hw 6414   3.265   1.663   2.905 -0.2293  0.2985 -1.9673
 1604SOL     hw 6415   3.297   1.516   2.894  1.4462  0.5112 -0.4625
 1604SOL     vw 6416   3.297   1.590   2.939 -0.2955  0.7800 -0.8349
 1605SOL     ow 6417   0.790   2.217   0.143 -0.1811 -0.0854  0.3330
 1605SOL     hw 6418   0.865   2.274   0.126 -1.3734  1.5992  0.3735
 1605SOL     hw 6419   0.818   2.131   0.113  1.5304  0.6235 -0.2569
 1605SOL     vw 6420   0.803   2.213   0.137 -0.1126  0.2306  0.2605
 1606SOL     ow 6421   0.998   6.482   4.486  0.2136  0.1366 -0.0768
 1606SOL     hw 6422   0.926   6.508   4.543  0.6074  2.1072 -0.4037
 1606SOL     hw 6423   1.054   6.560   4.480  2.9095 -1.5756  0.9089
 1606SOL     vw 6424   0.996   6.496   4.492  0.6212  0.1707  0.0103
 1607SOL     ow 6425   2.673   0.916   5.127  1.2427 -0.2226  0.2596
 1607SOL     hw 6426   2.580   0.929   5.144  1.1693  0.4486 -0.6490
 1607SOL     hw 6427   2.698   0.988   5.070  1.8537 -1.5064 -1.1673
 1607SOL     vw 6428   2.664   0.927   5.122  1.3136 -0.3034 -0.0486
 1608SOL     ow 6429   6.435   4.457   0.714 -0.0347 -0.3553  0.0390
 1608SOL     hw 6430   6.484   4.532   0.746 -0.2681 -0.2579  0.1729
 1608SOL     hw 6431   6.343   4.478   0.733 -0.6027  1.2035 -3.5776
 1608SOL     vw 6432   6.429   4.470   0.721 -0.1407 -0.1371 -0.4205
 1609SOL     ow 6433   3.449   4.274   6.243  0.3896 -0.0824  0.8805
 1609SOL     hw 6434   3.473   4.211   6.175  1.2657 -0.3580  1.4262
 1609SOL     hw 6435   3.515   4.342   6.236 -0.1883  0.4722  0.7116
 1609SOL     vw 6436   3.461   4.275   6.233  0.4288 -0.0458  0.9303
 1610SOL     ow 6437   3.472   6.482   0.868 -0.6946 -0.1398 -0.1891
 1610SOL     hw 6438   3.534   6.441   0.808  1.0128 -2.9301  3.1293
 1610SOL     hw 6439   3.400   6.420   0.874 -2.1326  1.3352 -1.1537
 1610SOL     vw 6440   3.471   6.469   0.861 -0.6591 -0.3133  0.1215
 1611SOL     ow 6441   3.218   2.836   7.079 -0.5316  0.6947  0.1453
 1611SOL     hw 6442   3.249   2.754   7.117 -2.0873  0.2123  0.4401
 1611SOL     hw 6443   3.298   2.883   7.056  0.3949 -1.4179 -1.2071
 1611SOL     vw 6444   3.232   2.831   7.081 -0.6146  0.3524  0.0060
 1612SOL     ow 6445   6.086   1.574   2.307  0.3648  0.3522  0.9471
 1612SOL     hw 6446   6.155   1.510   2.290  0.0452  0.6096 -1.7660
 1612SOL     hw 6447   6.094   1.594   2.400  1.7573 -2.1181  1.4407
 1612SOL     vw 6448   6.096   1.568   2.317  0.5066  0.0602  0.6543
 1613SOL     ow 6449   5.941   2.664   1.299 -0.2066 -0.6657  0.2204
 1613SOL     hw 6450   6.016   2.683   1.356  0.5000 -1.1683 -0.5208
 1613SOL     hw 6451   5.941   2.569   1.290  0.3535 -0.5351 -1.4798
 1613SOL     vw 6452   5.951   2.654   1.306 -0.0393 -0.7147 -0.1017
 1614SOL     ow 6453   3.339   5.917   2.875  0.6510  0.4541  0.1473
 1614SOL     hw 6454   3.392   5.976   2.927  1.2114 -0.1040  0.2127
 1614SOL     hw 6455   3.396   5.843   2.857  0.0616  0.0833 -0.2144
 1614SOL     vw 6456   3.353   5.915   2.880  0.6472  0.3314  0.1080
 1615SOL     ow 6457   1.037   2.316   5.081 -0.4749  0.5116 -1.0860
 1615SOL     hw 6458   0.975   2.330   5.010 -0.5598 -0.0333 -1.1282
 1615SOL     hw 6459   1.107   2.379   5.066  0.0805 -0.3468 -2.3112
 1615SOL     vw 6460   1.038   2.326   5.070 -0.4128  0.3265 -1.2534
 1616SOL     ow 6461   3.296   2.374   4.296  0.1561 -0.3221 -0.2344
 1616SOL     hw 6462   3.221   2.433   4.302  2.2628  2.6162 -0.9209
 1616SOL     hw 6463   3.266   2.303   4.239 -2.0560  0.7426 -0.5122
 1616SOL     vw 6464   3.282   2.373   4.289  0.1422  0.2060 -0.3614
 1617SOL     ow 6465   0.124   4.862   2.535  0.3213 -0.3597  1.1861
 1617SOL     hw 6466   0.058   4.805   2.497 -1.6987  1.2668  2.0652
 1617SOL     hw 6467   0.139   4.930   2.469  0.3467 -0.1541  1.4008
 1617SOL     vw 6468   0.118   4.864   2.522  0.0581 -0.1178  1.3305
 1618SOL     ow 6469   1.807   4.952   5.030 -0.4927  0.4065 -0.0486
 1618SOL     hw 6470   1.819   5.038   4.990 -1.5847  1.0612  0.9495
 1618SOL     hw 6471   1.855   4.957   5.113 -0.0891 -0.1515 -0.2448
 1618SOL     vw 6472   1.815   4.964   5.036 -0.5835  0.4194  0.0572
 1619SOL     ow 6473   2.008   5.648   2.209  0.3321 -0.1695  0.1425
 1619SOL     hw 6474   2.012   5.556   2.236 -1.6308  0.0337  1.3196
 1619SOL     hw 6475   1.955   5.647   2.129 -0.6850 -0.0008  0.7841
 1619SOL     vw 6476   2.001   5.635   2.202 -0.0610 -0.1206  0.3827
 1620SOL     ow 6477   4.821   2.583   6.393 -0.0043 -0.1670 -0.5575
 1620SOL     hw 6478   4.913   2.607   6.404 -0.4006 -0.0884  6.1565
 1620SOL     hw 6479   4.774   2.667   6.400 -0.7539 -0.4061 -2.2422
 1620SOL     vw 6480   4.826   2.597   6.395 -0.1552 -0.1882  0.1061
 1621SOL     ow 6481   0.506   1.266   3.151 -0.6554  0.0429 -0.1891
 1621SOL     hw 6482   0.485   1.326   3.222 -1.2695  0.3469 -0.6182
 1621SOL     hw 6483   0.600   1.278   3.136 -0.4536 -0.2469  0.7615
 1621SOL     vw 6484   0.516   1.275   3.158 -0.7097  0.0447 -0.1200
 1622SOL     ow 6485   2.151   3.020   6.397  0.1568  0.4503  0.2408
 1622SOL     hw 6486   2.190   3.044   6.481  2.1970  4.0885 -1.4443
 1622SOL     hw 6487   2.225   3.025   6.335 -1.3589 -1.5189 -1.8762
 1622SOL     vw 6488   2.166   3.024   6.400  0.2261  0.6706 -0.2608
 1623SOL     ow 6489   5.918   0.415   3.778  0.3001  0.3197 -0.7301
 1623SOL     hw 6490   5.893   0.322   3.786  1.3073  0.0823 -0.2229
 1623SOL     hw 6491   5.896   0.437   3.688  1.8025 -0.9582 -1.4488
 1623SOL     vw 6492   5.912   0.405   3.767  0.6311  0.1198 -0.7581
 1624SOL     ow 6493   6.651   5.466   4.191  0.2699  0.2471  0.0317
 1624SOL     hw 6494   6.699   5.411   4.128  0.0615 -0.7899  0.7451
 1624SOL     hw 6495   6.706   5.543   4.202  1.4950 -0.6287  0.3567
 1624SOL     vw 6496   6.665   5.469   4.184  0.4041 -0.0055  0.1686
 1625SOL     ow 6497   5.549   0.641   4.613  0.0923 -0.2431  0.1565
 1625SOL     hw 6498   5.568   0.674   4.701  0.0846  0.6812 -0.1769
 1625SOL     hw 6499   5.539   0.547   4.624  0.4284 -0.1754  1.0899
 1625SOL     vw 6500   5.550   0.633   4.626  0.1354 -0.1122  0.2356
 1626SOL     ow 6501   5.104   6.836   5.414 -0.0608  0.4750  0.1950
 1626SOL     hw 6502   5.144   6.919   5.387 -0.5897  0.7101  0.1174
 1626SOL     hw 6503   5.059   6.857   5.496 -0.1757  0.2607  0.1868
 1626SOL     vw 6504   5.103   6.850   5.422 -0.1459  0.4780  0.1836
 1627SOL     ow 6505   5.769   5.229   2.585 -0.2899  0.5160 -0.0292
 1627SOL     hw 6506   5.799   5.146   2.622  2.8904  1.7033  0.3928
 1627SOL     hw 6507   5.679   5.212   2.559 -0.7864 -2.1586  2.7740
 1627SOL     vw 6508   5.761   5.216   2.587  0.0641  0.3200  0.3963
 1628SOL     ow 6509   6.535   6.075   1.209  0.1210  0.0267 -0.2854
 1628SOL     hw 6510   6.508   6.130   1.283 -1.0151  0.8214 -1.2485
 1628SOL     hw 6511   6.535   5.986   1.244 -0.2200  0.4105  0.7173
 1628SOL     vw 6512   6.531   6.070   1.223 -0.0737  0.1822 -0.2801
 1629SOL     ow 6513   0.049   3.127   5.575 -0.5536  0.2607  0.7536
 1629SOL     hw 6514   0.077   3.134   5.483 -0.1894  0.7400  0.8991
 1629SOL     hw 6515   0.061   3.215   5.611 -0.8620  0.1172  1.2175
 1629SOL     vw 6516   0.054   3.140   5.567 -0.5463  0.3049  0.8340
 1630SOL     ow 6517   5.052   2.192   6.236  0.5322  0.6972 -0.0663
 1630SOL     hw 6518   5.060   2.232   6.149  0.6206  0.6597 -0.0759
 1630SOL     hw 6519   5.139   2.201   6.274  0.4126  0.9869  0.1388
 1630SOL     vw 6520   5.065   2.198   6.229  0.5281  0.7305 -0.0405
 1631SOL     ow 6521   5.089   0.376   2.413  0.0292  0.2808  0.1291
 1631SOL     hw 6522   5.183   0.362   2.410 -0.3653 -3.2741  0.4036
 1631SOL     hw 6523   5.078   0.458   2.461  2.9198 -0.2751  1.9358
 1631SOL     vw 6524   5.100   0.385   2.419  0.3586 -0.2616  0.4036
 1632SOL     ow 6525   5.877   1.551   4.871  0.1724 -0.2398 -0.8111
 1632SOL     hw 6526   5.911   1.640   4.879  1.7451 -1.0186  2.4868
 1632SOL     hw 6527   5.782   1.562   4.879  0.4257  1.0756  1.2731
 1632SOL     vw 6528   5.869   1.564   4.873  0.4134 -0.1690 -0.1009
 1633SOL     ow 6529   1.404   3.810   5.816 -0.3875 -0.0488  0.5377
 1633SOL     hw 6530   1.336   3.757   5.775  0.2633 -1.2129  0.9115
 1633SOL     hw 6531   1.481   3.753   5.818  1.1735  1.8311 -1.5434
 1633SOL     vw 6532   1.405   3.795   5.811 -0.0957  0.0455  0.3126
 1634SOL     ow 6533   0.659   2.181   4.133 -0.1031 -0.3415  0.0793
 1634SOL     hw 6534   0.665   2.202   4.226 -0.4413  1.2928 -0.2311
 1634SOL     hw 6535   0.742   2.138   4.112  0.8959  1.1958  0.6976
 1634SOL     vw 6536   0.670   2.178   4.143 -0.0159  0.0769  0.1199
 1635SOL     ow 6537   4.779   4.052   6.642 -1.0511  1.1283  0.1982
 1635SOL     hw 6538   4.797   3.958   6.635  1.2368  1.3861  1.6897
 1635SOL     hw 6539   4.706   4.057   6.705 -1.1268  0.3688  0.1825
 1635SOL     vw 6540   4.772   4.040   6.649 -0.7591  1.0622  0.3927
 1636SOL     ow 6541   5.555   4.768   1.364  0.1078 -0.5886 -0.6629
 1636SOL     hw 6542   5.590   4.680   1.354 -0.3949 -1.0597  1.2966
 1636SOL     hw 6543   5.609   4.809   1.432 -0.3171  0.2391 -0.8010
 1636SOL     vw 6544   5.567   4.762   1.372 -0.0143 -0.5417 -0.4227
 1637SOL     ow 6545   1.322   1.422   2.473 -0.2957  0.1487 -0.1239
 1637SOL     hw 6546   1.296   1.509   2.445 -0.6563  0.0870  0.0159
 1637SOL     hw 6547   1.400   1.436   2.527 -2.1577  0.7391  2.6372
 1637SOL     vw 6548   1.329   1.435   2.476 -0.5890  0.2185  0.2588
 1638SOL     ow 6549   0.093   3.011   5.838 -0.3701  0.4148 -0.4534
 1638SOL     hw 6550   0.134   3.093   5.864  2.0541 -0.7217 -0.4582
 1638SOL     hw 6551   0.053   2.978   5.919  0.7191  0.4606  0.1181
 1638SOL     vw 6552   0.093   3.018   5.852  0.0935  0.2710 -0.3788
 1639SOL     ow 6553   2.592   6.330   0.608  0.0336  0.4728  0.4470
 1639SOL     hw 6554   2.613   6.313   0.700 -0.8495  3.0454  1.2326
 1639SOL     hw 6555   2.569   6.245   0.573 -1.4626 -0.3640  3.1391
 1639SOL     vw 6556   2.592   6.317   0.616 -0.2804  0.7019  0.9058
 1640SOL     ow 6557   4.739   4.752   3.963 -0.3407 -0.4855 -0.0683
 1640SOL     hw 6558   4.695   4.683   4.012  0.5436 -1.2965 -0.3768
 1640SOL     hw 6559   4.674   4.822   3.956 -1.4601 -1.5030 -0.2239
 1640SOL     vw 6560   4.724   4.752   3.968 -0.3719 -0.7267 -0.1296
 1641SOL     ow 6561   1.447   1.716   0.360 -0.0042  0.3788  0.2749
 1641SOL     hw 6562   1.515   1.745   0.421  0.6460 -0.5563  0.0396
 1641SOL     hw 6563   1.487   1.725   0.273  0.5715 -1.8838  0.2222
 1641SOL     vw 6564   1.461   1.721   0.357  0.1576 -0.0431  0.2369
 1642SOL     ow 6565   3.958   1.552   5.338  0.3416  0.6920 -0.6072
 1642SOL     hw 6566   3.916   1.559   5.252 -0.3308 -0.7023 -0.4209
 1642SOL     hw 6567   4.052   1.550   5.318  0.1650 -0.6931 -1.4207
 1642SOL     vw 6568   3.965   1.553   5.324  0.2296  0.3253 -0.6902
 1643SOL     ow 6569   0.826   6.747   1.095  0.0527  0.4523  0.8475
 1643SOL     hw 6570   0.817   6.712   1.007  0.5148 -0.9829  1.3527
 1643SOL     hw 6571   0.743   6.726   1.138 -0.3806  1.6184  0.6168
 1643SOL     vw 6572   0.814   6.740   1.089  0.0565  0.4168  0.8837
 1644SOL     ow 6573   0.824   0.773   6.993 -0.3976 -0.0779  0.1940
 1644SOL     hw 6574   0.782   0.807   6.914  0.2173  0.0762 -0.0715
 1644SOL     hw 6575   0.762   0.793   7.063 -0.7574  0.1700 -0.1880
 1644SOL     vw 6576   0.811   0.780   6.992 -0.3639 -0.0249  0.1087
 1645SOL     ow 6577   3.729   5.028   2.537  0.0139 -0.3322 -0.7906
 1645SOL     hw 6578   3.810   4.999   2.578 -1.3288 -1.5618  1.1593
 1645SOL     hw 6579   3.732   5.123   2.541  0.7661 -0.3958  0.5255
 1645SOL     vw 6580   3.740   5.037   2.543 -0.0641 -0.5028 -0.3597
 1646SOL     ow 6581   0.749   2.340   0.419  0.0863 -0.0279 -0.4303
 1646SOL     hw 6582   0.844   2.334   0.417  0.0155 -2.6145  0.5065
 1646SOL     hw 6583   0.731   2.412   0.478  1.4449  0.5346 -0.6621
 1646SOL     vw 6584   0.759   2.349   0.426  0.2562 -0.2950 -0.3373
 1647SOL     ow 6585   4.157   5.457   6.839 -0.9135 -0.0892 -0.0459
 1647SOL     hw 6586   4.116   5.377   6.872 -1.0447  0.2688  0.6764
 1647SOL     hw 6587   4.115   5.472   6.754 -0.8620 -0.8024 -0.2004
 1647SOL     vw 6588   4.146   5.448   6.832 -0.9239 -0.1361  0.0291
 1648SOL     ow 6589   2.877   4.361   0.651 -0.1584  0.2202 -0.2643
 1648SOL     hw 6590   2.815   4.319   0.591 -0.8315  1.3610 -0.3913
 1648SOL     hw 6591   2.910   4.436   0.602  0.7585  0.0643  0.0931
 1648SOL     vw 6592   2.873   4.365   0.637 -0.1262  0.3502 -0.2339
 1649SOL     ow 6593   4.238   3.989   5.984 -0.1934 -0.5918 -0.5566
 1649SOL     hw 6594   4.256   4.076   6.018  1.0332 -2.0141  2.9975
 1649SOL     hw 6595   4.146   3.992   5.956  0.1609  2.0760 -1.6652
 1649SOL     vw 6596   4.228   4.001   5.985  0.0153 -0.4275 -0.2339
 1650SOL     ow 6597   1.134   3.997   3.721 -0.4126 -0.0820 -0.3005
 1650SOL     hw 6598   1.094   4.040   3.645 -1.3409 -0.1680  0.1243
 1650SOL     hw 6599   1.222   4.034   3.725  0.3549 -1.4572 -2.5248
 1650SOL     vw 6600   1.141   4.008   3.711 -0.4337 -0.2749 -0.5379
 1651SOL     ow 6601   5.467   4.789   1.093  0.0040 -0.7303 -0.6643
 1651SOL     hw 6602   5.374   4.777   1.076  0.1872 -1.7825 -0.9889
 1651SOL     hw 6603   5.503   4.700   1.096  0.7782 -0.4107  0.7025
 1651SOL     vw 6604   5.460   4.776   1.091  0.1302 -0.8268 -0.5268
 1652SOL     ow 6605   0.840   2.101   5.106 -0.2497 -0.6262 -0.0154
 1652SOL     hw 6606   0.763   2.148   5.138 -0.7552 -0.7671 -1.0044
 1652SOL     hw 6607   0.810   2.055   5.028  0.3484 -2.2713  0.6823
 1652SOL     vw 6608   0.826   2.101   5.100 -0.2375 -0.8620 -0.0534
 1653SOL     ow 6609   1.340   6.692   5.289  0.6796  0.3208  0.0916
 1653SOL     hw 6610   1.359   6.630   5.359  1.6452 -0.2280 -0.6352
 1653SOL     hw 6611   1.424   6.732   5.268  0.6023 -0.2003 -1.3660
 1653SOL     vw 6612   1.354   6.689   5.295  0.7969  0.1795 -0.1967
 1654SOL     ow 6613   3.194   0.954   0.570  0.6142  0.3573 -0.9874
 1654SOL     hw 6614   3.268   0.956   0.510  0.5545  0.3020 -1.0635
 1654SOL     hw 6615   3.175   0.861   0.582  0.4632  0.3744 -1.0857
 1654SOL     vw 6616   3.201   0.942   0.563  0.5864  0.3523 -1.0104
 1655SOL     ow 6617   5.004   1.754   0.117 -0.3081  0.6680  0.3142
 1655SOL     hw 6618   4.929   1.788   0.165 -0.4174  1.4280 -0.3729
 1655SOL     hw 6619   5.004   1.803   0.035 -1.1865 -1.8155 -1.2749
 1655SOL     vw 6620   4.995   1.765   0.112 -0.4385  0.4405  0.0139
 1656SOL     ow 6621   7.130   6.666   4.638  0.7746  0.6692  0.4654
 1656SOL     hw 6622   7.208   6.654   4.584  2.0391  2.7462  1.6720
 1656SOL     hw 6623   7.129   6.591   4.696  1.6228  0.3733  0.1127
 1656SOL     vw 6624   7.140   6.655   4.639  1.0533  0.9041  0.5779
 1657SOL     ow 6625   3.311   4.855   2.837  0.1044  0.3144 -0.3767
 1657SOL     hw 6626   3.296   4.945   2.868 -1.9678 -0.2474  0.4518
 1657SOL     hw 6627   3.362   4.866   2.757 -2.7058  2.5279 -2.1055
 1657SOL     vw 6628   3.316   4.869   2.831 -0.5398  0.5324 -0.4954
 1658SOL     ow 6629   2.932   5.536   4.018 -0.1083 -0.2899 -0.1512
 1658SOL     hw 6630   2.893   5.623   4.006 -1.2031 -0.3992  2.1807
 1658SOL     hw 6631   2.902   5.486   3.941 -1.0411  0.8433 -0.5564
 1658SOL     vw 6632   2.923   5.541   4.006 -0.3757 -0.1550  0.1030
 1659SOL     ow 6633   3.422   5.210   4.457  0.0462  0.0230  0.6192
 1659SOL     hw 6634   3.459   5.242   4.539 -0.1325  1.5773  0.1223
 1659SOL     hw 6635   3.362   5.140   4.483  1.1825 -0.5896  1.6587
 1659SOL     vw 6636   3.419   5.205   4.471  0.1725  0.1473  0.6907
 1660SOL     ow 6637   5.430   4.664   0.015 -0.2468  0.0144  0.5034
 1660SOL     hw 6638   5.434   4.756  -0.010 -1.3220 -0.2576 -0.8219
 1660SOL     hw 6639   5.367   4.661   0.086 -1.4097  0.1373 -0.4885
 1660SOL     vw 6640   5.422   4.675   0.021 -0.5419 -0.0052  0.1977
 1661SOL     ow 6641   4.970   0.275   6.594  0.4302 -0.2541 -0.0545
 1661SOL     hw 6642   4.951   0.338   6.525  0.1744  0.1724  0.3959
 1661SOL     hw 6643   4.926   0.194   6.567 -0.2221  0.0990 -0.0739
 1661SOL     vw 6644   4.962   0.272   6.581  0.3104 -0.1512  0.0024
 1662SOL     ow 6645   5.468   0.627   1.342  0.0932 -0.8235  0.4634
 1662SOL     hw 6646   5.410   0.573   1.289  1.2057 -0.7413 -0.8774
 1662SOL     hw 6647   5.497   0.697   1.284  4.5839 -2.9665 -0.2679
 1662SOL     vw 6648   5.464   0.629   1.327  0.8323 -1.0954  0.1900
 1663SOL     ow 6649   2.657   1.641   3.143 -0.1741  0.3025  0.2832
 1663SOL     hw 6650   2.613   1.691   3.212  0.2495  1.1470 -0.0415
 1663SOL     hw 6651   2.656   1.550   3.174 -0.5979  0.5731  1.0755
 1663SOL     vw 6652   2.651   1.635   3.156 -0.1742  0.4496  0.3449
 1664SOL     ow 6653   6.386   1.187   5.580 -0.0943  0.1124  0.2538
 1664SOL     hw 6654   6.408   1.169   5.672  0.7303 -1.9772 -0.2879
 1664SOL     hw 6655   6.290   1.186   5.579 -0.1155 -0.6293  0.9851
 1664SOL     vw 6656   6.376   1.184   5.592  0.0119 -0.2611  0.2787
 1665SOL     ow 6657   1.027   0.926   5.963  0.0390  0.1151  0.0871
 1665SOL     hw 6658   1.052   0.839   5.995  0.9565  0.3734  0.0920
 1665SOL     hw 6659   1.013   0.913   5.869 -0.1913 -0.1150  0.1525
 1665SOL     vw 6660   1.028   0.913   5.954  0.1297  0.1188  0.0963
 1666SOL     ow 6661   3.841   5.346   2.989 -0.1190 -0.4062 -0.2362
 1666SOL     hw 6662   3.761   5.360   2.938  0.0335  1.8475  0.0145
 1666SOL     hw 6663   3.912   5.362   2.927  0.0712  2.7519  0.6318
 1666SOL     vw 6664   3.840   5.350   2.974 -0.0737  0.3078 -0.0886
 1667SOL     ow 6665   1.740   2.462   0.966 -0.4363  0.2875 -0.4374
 1667SOL     hw 6666   1.694   2.457   0.882 -0.3503  0.7190 -0.5145
 1667SOL     hw 6667   1.753   2.371   0.992 -0.1903  0.1435 -1.0430
 1667SOL     vw 6668   1.735   2.449   0.958 -0.3924  0.3254 -0.5275
 1668SOL     ow 6669   5.950   2.256   2.648 -0.1033 -0.1142 -0.8116
 1668SOL     hw 6670   5.979   2.314   2.578 -2.3964  1.6394 -0.4367
 1668SOL     hw 6671   5.976   2.301   2.728 -0.5064 -0.3791 -0.5273
 1668SOL     vw 6672   5.957   2.270   2.649 -0.4590  0.0823 -0.7248
 1669SOL     ow 6673   6.778   2.703   0.863  0.0408  0.3852  0.0919
 1669SOL     hw 6674   6.745   2.744   0.943 -0.1102 -0.8291  0.6723
 1669SOL     hw 6675   6.720   2.629   0.848  1.2573 -0.5810 -0.0184
 1669SOL     vw 6676   6.766   2.699   0.871  0.1812  0.0975  0.1540
 1670SOL     ow 6677   4.538   1.998   0.918  0.8447 -0.3691  0.0685
 1670SOL     hw 6678   4.555   2.014   0.825  3.3633  0.1952  0.5410
 1670SOL     hw 6679   4.554   1.904   0.929  2.3277 -0.1217  0.2144
 1670SOL     vw 6680   4.542   1.988   0.907  1.3728 -0.2620  0.1501
 1671SOL     ow 6681   0.044   5.561   5.662 -0.4352  0.3309 -0.5321
 1671SOL     hw 6682   0.094   5.640   5.646 -0.0522  0.0601 -0.6784
 1671SOL     hw 6683   0.109   5.493   5.676 -0.7578  0.3367  1.1323
 1671SOL     vw 6684   0.059   5.562   5.661 -0.4273  0.2959 -0.3316
 1672SOL     ow 6685   2.368   5.250   5.732 -0.1428 -0.0692 -0.2756
 1672SOL     hw 6686   2.328   5.323   5.779 -0.4298 -0.4489  0.0844
 1672SOL     hw 6687   2.315   5.174   5.757  0.9835 -0.6351  0.4354
 1672SOL     vw 6688   2.356   5.249   5.741 -0.0321 -0.1938 -0.1342
 1673SOL     ow 6689   6.713   6.308   5.104  0.1341  0.2754 -0.1389
 1673SOL     hw 6690   6.754   6.345   5.025  0.1275  1.6993  0.4988
 1673SOL     hw 6691   6.722   6.377   5.170 -0.3462 -0.6881  0.9591
 1673SOL     vw 6692   6.720   6.322   5.102  0.0701  0.3362  0.0904
 1674SOL     ow 6693   5.135   6.812   1.965  0.7269  0.1407  0.5295
 1674SOL     hw 6694   5.042   6.792   1.956  0.7434 -0.2922  1.2788
 1674SOL     hw 6695   5.175   6.777   1.885  0.2293  0.4773  0.1287
 1674SOL     vw 6696   5.128   6.805   1.953  0.6633  0.1280  0.5755
 1675SOL     ow 6697   2.405   6.496   2.299 -0.1482 -0.2674  0.0320
 1675SOL     hw 6698   2.380   6.451   2.218  0.8443  0.4673 -0.7014
 1675SOL     hw 6699   2.324   6.501   2.350 -0.9371 -0.1643 -1.2016
 1675SOL     vw 6700   2.391   6.491   2.295 -0.1214 -0.1569 -0.2276
 1676SOL     ow 6701   5.298   1.930   1.088 -0.7966  0.3175  0.0052
 1676SOL     hw 6702   5.376   1.977   1.058 -1.2176  0.6682 -0.5582
 1676SOL     hw 6703   5.332   1.851   1.129 -0.1606  0.2880 -0.5659
 1676SOL     vw 6704   5.313   1.926   1.089 -0.7682  0.3599 -0.1445
 1677SOL     ow 6705   3.426   2.990   6.967  0.8564  0.0607  0.4651
 1677SOL     hw 6706   3.452   3.080   6.986  0.6033  0.1734  0.2842
 1677SOL     hw 6707   3.391   2.994   6.878 -0.3730  0.0366  0.9319
 1677SOL     vw 6708   3.425   3.003   6.958  0.6607  0.0724  0.5026
 1678SOL     ow 6709   6.992   1.463   6.126 -0.2497 -0.0761 -0.4029
 1678SOL     hw 6710   7.033   1.537   6.082 -0.5686  0.0063 -0.5679
 1678SOL     hw 6711   6.900   1.466   6.096 -0.6587  0.4333  0.8463
 1678SOL     vw 6712   6.985   1.473   6.116 -0.3459  0.0020 -0.2599
 1679SOL     ow 6713   5.088   0.390   3.067 -0.5065  0.2595 -0.1238
 1679SOL     hw 6714   5.103   0.343   2.985 -0.7187 -1.3888  0.7458
 1679SOL     hw 6715   4.995   0.377   3.086 -0.2489 -0.2406  0.8755
 1679SOL     vw 6716   5.078   0.382   3.059 -0.5007 -0.0240  0.1228
 1680SOL     ow 6717   2.500   4.898   2.393  0.2711  0.3020 -0.1836
 1680SOL     hw 6718   2.476   4.991   2.396  0.1309  0.2669  2.8809
 1680SOL     hw 6719   2.420   4.852   2.418  0.3501 -0.6775 -1.6373
 1680SOL     vw 6720   2.486   4.904   2.397  0.2630  0.1681  0.0290
 1681SOL     ow 6721   5.807   2.865   2.533 -0.4105 -0.0851  0.1766
 1681SOL     hw 6722   5.803   2.792   2.471  1.1945 -0.3605  0.3331
 1681SOL     hw 6723   5.898   2.865   2.563 -0.0160  2.7811 -0.7723
 1681SOL     vw 6724   5.819   2.855   2.529 -0.1464  0.2567  0.0720
 1682SOL     ow 6725   6.790   3.983   5.301 -0.1617  0.2145  0.0518
 1682SOL     hw 6726   6.717   4.044   5.304  0.5106  1.0478 -0.0964
 1682SOL     hw 6727   6.758   3.909   5.250 -1.7032 -0.5307  1.9786
 1682SOL     vw 6728   6.776   3.982   5.295 -0.2766  0.2263  0.2863
 1683SOL     ow 6729   4.067   3.801   4.152  0.1306 -0.8149  0.4786
 1683SOL     hw 6730   3.977   3.829   4.133  0.9125  0.5377 -1.6245
 1683SOL     hw 6731   4.106   3.875   4.198  0.4055 -1.0684  0.6577
 1683SOL     vw 6732   4.060   3.815   4.156  0.2701 -0.6700  0.2248
 1684SOL     ow 6733   0.866   6.372   4.219 -0.4827 -0.7043  0.2296
 1684SOL     hw 6734   0.845   6.283   4.249 -0.2527 -0.7323  0.3091
 1684SOL     hw 6735   0.923   6.408   4.287  0.6957 -1.0482 -0.5328
 1684SOL     vw 6736   0.871   6.365   4.232 -0.2969 -0.7534  0.1395
 1685SOL     ow 6737   5.594   7.087   4.999  0.1069  0.4173 -0.0239
 1685SOL     hw 6738   5.538   7.160   4.970  0.9337  1.5293  1.0608
 1685SOL     hw 6739   5.613   7.106   5.091  1.0636 -0.7184  0.0431
 1685SOL     vw 6740   5.589   7.099   5.007  0.3419  0.4141  0.1280
 1686SOL     ow 6741   0.809   1.955   0.045 -0.3702  0.0114  0.5888
 1686SOL     hw 6742   0.755   1.897   0.098 -3.2867  1.6767 -0.3265
 1686SOL     hw 6743   0.783   1.937  -0.045  0.5438  0.9480  0.1160
 1686SOL     vw 6744   0.798   1.945   0.040 -0.6344  0.3547  0.4057
 1687SOL     ow 6745   7.028   4.124   3.906 -0.5152 -0.3041  0.3385
 1687SOL     hw 6746   7.090   4.116   3.833  0.4860  0.9339  1.0254
 1687SOL     hw 6747   7.031   4.038   3.949  0.4953 -0.3612  0.1774
 1687SOL     vw 6748   7.037   4.112   3.902 -0.2499 -0.1483  0.4079
 1688SOL     ow 6749   6.749   0.459   4.722 -0.3962 -1.0522 -0.1196
 1688SOL     hw 6750   6.732   0.401   4.647 -1.3492  0.2339 -0.9547
 1688SOL     hw 6751   6.662   0.475   4.759 -0.6593  2.1536 -1.7444
 1688SOL     vw 6752   6.735   0.453   4.717 -0.5569 -0.4595 -0.4442
 1689SOL     ow 6753   2.811   5.299   3.891  0.8056 -0.2799  0.5482
 1689SOL     hw 6754   2.765   5.268   3.813  3.6202  0.4648 -1.6228
 1689SOL     hw 6755   2.743   5.310   3.957 -1.6687 -1.5410 -1.5898
 1689SOL     vw 6756   2.796   5.296   3.889  0.8504 -0.3481 -0.0201
 1690SOL     ow 6757   7.005   0.848   1.595 -0.2234 -0.1669  0.5696
 1690SOL     hw 6758   7.044   0.862   1.509  0.2849 -1.0100  0.6550
 1690SOL     hw 6759   6.931   0.910   1.598  1.2500  1.7024  0.5162
 1690SOL     vw 6760   7.000   0.858   1.584  0.0381 -0.0315  0.5738
 1691SOL     ow 6761   4.852   3.356   4.301 -0.3461  0.5962 -0.1706
 1691SOL     hw 6762   4.870   3.373   4.209  0.2239  2.2654  0.2270
 1691SOL     hw 6763   4.780   3.292   4.300 -0.7948  1.0841 -1.7644
 1691SOL     vw 6764   4.845   3.350   4.289 -0.3297  0.8806 -0.3283
 1692SOL     ow 6765   0.652   6.546   6.420  0.2913 -0.3624 -0.0476
 1692SOL     hw 6766   0.699   6.597   6.485 -1.7207 -0.8509  1.9310
 1692SOL     hw 6767   0.666   6.593   6.337  3.3341  0.0023  0.5650
 1692SOL     vw 6768   0.660   6.559   6.417  0.4273 -0.3786  0.2942
 1693SOL     ow 6769   1.132   3.269   4.203  0.1239 -0.2921 -1.0096
 1693SOL     hw 6770   1.168   3.211   4.271 -1.8261 -0.8424 -0.3983
 1693SOL     hw 6771   1.204   3.278   4.139  1.5847 -0.7250  0.5010
 1693SOL     vw 6772   1.146   3.262   4.203  0.0594 -0.4218 -0.7296
 1694SOL     ow 6773   4.731   3.387   2.226  0.5647  0.3575  0.1252
 1694SOL     hw 6774   4.647   3.348   2.250 -0.1044  0.6858 -1.5260
 1694SOL     hw 6775   4.715   3.481   2.224  1.1894  0.4786  0.5636
 1694SOL     vw 6776   4.718   3.394   2.229  0.5589  0.4169 -0.0347
 1695SOL     ow 6777   4.578   3.590   0.324 -0.1237  0.6311  0.4163
 1695SOL     hw 6778   4.513   3.654   0.293 -1.4756 -0.5109  0.7866
 1695SOL     hw 6779   4.661   3.619   0.285 -1.1180  1.2474 -1.3720
 1695SOL     vw 6780   4.580   3.603   0.315 -0.4332  0.5618  0.2292
 1696SOL     ow 6781   3.099   4.618   3.245  0.6196  0.6824  0.1848
 1696SOL     hw 6782   3.004   4.627   3.240  0.5195 -0.8138 -1.0833
 1696SOL     hw 6783   3.114   4.569   3.326  0.2713  0.4237  0.0953
 1696SOL     vw 6784   3.088   4.613   3.255  0.5605  0.4511  0.0055
 1697SOL     ow 6785   6.959   3.066   2.828  0.2186 -0.2729  0.3903
 1697SOL     hw 6786   6.988   3.070   2.919  0.2824 -0.7429  0.3901
 1697SOL     hw 6787   6.880   3.012   2.830  0.4145 -0.5715  0.1195
 1697SOL     vw 6788   6.953   3.060   2.840  0.2527 -0.3744  0.3546
 1698SOL     ow 6789   6.688   0.540   1.250 -0.2218 -0.3444 -0.3235
 1698SOL     hw 6790   6.716   0.451   1.272 -0.2157 -0.1311  0.5714
 1698SOL     hw 6791   6.601   0.548   1.288  0.5822  0.6967  1.4697
 1698SOL     vw 6792   6.680   0.530   1.258 -0.1149 -0.1789  0.0312
 1699SOL     ow 6793   7.051   3.358   5.979  0.0995  0.5808 -0.4354
 1699SOL     hw 6794   6.978   3.420   5.973 -0.6577 -0.2495 -0.0107
 1699SOL     hw 6795   7.017   3.285   6.031  0.9881 -0.1733 -0.8733
 1699SOL     vw 6796   7.037   3.356   5.985  0.1168  0.3718 -0.4370
 1700SOL     ow 6797   1.319   2.499   5.391  0.3688  0.2635  0.0475
 1700SOL     hw 6798   1.254   2.469   5.454  0.0318 -0.6939 -0.7197
 1700SOL     hw 6799   1.301   2.593   5.380 -1.3895 -0.1158 -0.6977
 1700SOL     vw 6800   1.308   2.508   5.398  0.0923  0.0871 -0.1521
 1701SOL     ow 6801   6.749   4.201   3.061 -0.0482  0.2874  0.7425
 1701SOL     hw 6802   6.715   4.210   3.151  0.4573  0.1929  0.9443
 1701SOL     hw 6803   6.838   4.237   3.065  0.5126 -1.0437  0.6220
 1701SOL     vw 6804   6.756   4.207   3.074  0.0923  0.0994  0.7532
 1702SOL     ow 6805   7.008   4.229   1.249  0.1896 -0.3751  0.5116
 1702SOL     hw 6806   7.077   4.249   1.186 -1.6128  1.2209 -1.0977
 1702SOL     hw 6807   6.935   4.198   1.195 -0.7972 -0.7696  2.0174
 1702SOL     vw 6808   7.007   4.228   1.234 -0.1783 -0.2165  0.4979
 1703SOL     ow 6809   5.012   5.702   4.881 -0.0954  1.0070  0.7119
 1703SOL     hw 6810   5.101   5.672   4.902 -0.3641 -1.5593 -1.2545
 1703SOL     hw 6811   5.021   5.797   4.870  2.6295  0.7355 -0.2348
 1703SOL     vw 6812   5.025   5.710   4.882  0.2289  0.6328  0.3276
 1704SOL     ow 6813   2.459   6.601   6.068 -0.0391 -0.5088 -0.3053
 1704SOL     hw 6814   2.410   6.665   6.017 -0.2689 -0.7306 -0.3712
 1704SOL     hw 6815   2.521   6.652   6.119 -1.1187 -0.0941  0.6546
 1704SOL     vw 6816   2.460   6.616   6.068 -0.2117 -0.4835 -0.1874
 1705SOL     ow 6817   0.929   3.224   3.977 -0.4926  0.4429 -0.4331
 1705SOL     hw 6818   0.873   3.187   3.909 -0.2840 -0.2142 -0.2507
 1705SOL     hw 6819   0.985   3.286   3.930 -0.1871 -0.1806 -0.9021
 1705SOL     vw 6820   0.929   3.227   3.961 -0.4248  0.2739 -0.4710
 1706SOL     ow 6821   6.649   0.832   4.206 -0.6534 -0.0177  0.4739
 1706SOL     hw 6822   6.613   0.888   4.275  0.3628  0.8325  0.3358
 1706SOL     hw 6823   6.635   0.743   4.237 -0.7482  0.3493  1.5012
 1706SOL     vw 6824   6.642   0.828   4.219 -0.5319  0.1429  0.5908
 1707SOL     ow 6825   4.773   3.043   3.395 -1.0331  0.6725 -0.6468
 1707SOL     hw 6826   4.856   3.077   3.362 -1.6983  2.2234 -0.8517
 1707SOL     hw 6827   4.797   2.993   3.473  0.1655  0.3676 -1.1838
 1707SOL     vw 6828   4.787   3.041   3.401 -0.9625  0.8370 -0.7447
 1708SOL     ow 6829   7.068   4.462   2.630 -0.2494  0.6949 -0.6038
 1708SOL     hw 6830   7.142   4.405   2.651 -0.8875 -0.8669 -2.3400
 1708SOL     hw 6831   7.106   4.533   2.578  0.0802 -0.0957 -1.4814
 1708SOL     vw 6832   7.083   4.464   2.626 -0.2902  0.3846 -0.9487
 1709SOL     ow 6833   5.792   2.876   6.098  0.1952 -0.0221  0.4340
 1709SOL     hw 6834   5.768   2.938   6.167 -0.0421  0.3703  0.0090
 1709SOL     hw 6835   5.843   2.928   6.036 -2.6705  0.6344 -1.5878
 1709SOL     vw 6836   5.795   2.891   6.099 -0.2141  0.1162  0.1109
 1710SOL     ow 6837   7.147   7.139   0.187  0.6410 -0.1431 -0.2541
 1710SOL     hw 6838   7.113   7.052   0.167  2.1963 -1.2661  1.5848
 1710SOL     hw 6839   7.074   7.198   0.169 -0.9304 -1.9630 -0.2195
 1710SOL     vw 6840   7.133   7.135   0.182  0.6390 -0.5314 -0.0069
 1711SOL     ow 6841   0.771   5.440   4.890  0.1943 -0.0833 -0.4475
 1711SOL     hw 6842   0.702   5.422   4.954  0.4618  1.5255  0.3621
 1711SOL     hw 6843   0.740   5.400   4.809 -1.5724  0.3357 -0.0289
 1711SOL     vw 6844   0.758   5.432   4.888 -0.0035  0.1843 -0.2854
 1712SOL     ow 6845   1.514   0.518   0.830  0.1131 -0.1493  0.4718
 1712SOL     hw 6846   1.477   0.554   0.911 -1.4318 -1.5529  0.4269
 1712SOL     hw 6847   1.511   0.423   0.842  1.9511 -0.3642 -0.3608
 1712SOL     vw 6848   1.509   0.510   0.842  0.1517 -0.3628  0.3560
 1713SOL     ow 6849   2.570   4.773   6.399 -0.0218 -0.0360 -0.3321
 1713SOL     hw 6850   2.548   4.679   6.404  2.7194 -0.7976 -1.0200
 1713SOL     hw 6851   2.634   4.779   6.329  1.1451  2.0928  0.8093
 1713SOL     vw 6852   2.575   4.761   6.391  0.4939  0.1442 -0.2720
 1714SOL     ow 6853   3.539   4.638   1.483  0.0170 -0.7371  0.5569
 1714SOL     hw 6854   3.568   4.648   1.392 -0.5909  0.6314  0.4906
 1714SOL     hw 6855   3.586   4.561   1.514 -0.3911 -1.7508 -1.1682
 1714SOL     vw 6856   3.549   4.629   1.475 -0.1169 -0.6902  0.3206
 1715SOL     ow 6857   5.583   5.066   1.246 -0.3370 -0.0675  0.0874
 1715SOL     hw 6858   5.595   5.117   1.166  0.5903 -1.6717 -0.8374
 1715SOL     hw 6859   5.606   5.127   1.316  1.7622  0.5334 -1.0261
 1715SOL     vw 6860   5.588   5.081   1.245  0.0620 -0.1998 -0.1815
 1716SOL     ow 6861   5.388   1.402   6.018  0.3646  0.3797  0.2959
 1716SOL     hw 6862   5.308   1.350   6.014  0.0120  0.9896 -2.2798
 1716SOL     hw 6863   5.456   1.343   5.987  0.9805 -0.1424  2.4961
 1716SOL     vw 6864   5.386   1.387   6.013  0.3994  0.3912  0.2463
 1717SOL     ow 6865   0.367   5.380   6.839 -0.2222 -0.0736 -0.4800
 1717SOL     hw 6866   0.449   5.425   6.817 -1.2388  2.3271  0.3789
 1717SOL     hw 6867   0.395   5.292   6.864  1.9129  0.1423 -1.8024
 1717SOL     vw 6868   0.382   5.374   6.839 -0.0746  0.2716 -0.5412
 1718SOL     ow 6869   3.204   1.203   0.751  0.6067 -0.0479 -0.8472
 1718SOL     hw 6870   3.277   1.253   0.788  0.7446  0.1204 -1.3394
 1718SOL     hw 6871   3.134   1.267   0.740 -0.2052 -0.4952  1.1066
 1718SOL     vw 6872   3.204   1.218   0.755  0.5180 -0.0848 -0.6543
 1719SOL     ow 6873   3.490   5.601   3.401 -0.1378 -0.1723  0.2450
 1719SOL     hw 6874   3.545   5.600   3.479 -0.1307 -0.5656  0.2359
 1719SOL     hw 6875   3.463   5.693   3.392  1.2758  0.2146 -0.2882
 1719SOL     vw 6876   3.494   5.613   3.410  0.0497 -0.1731  0.1734
 1720SOL     ow 6877   5.675   2.252   2.690 -0.5919 -0.2808  0.7611
 1720SOL     hw 6878   5.768   2.249   2.666 -1.0460 -0.9557 -1.0512
 1720SOL     hw 6879   5.655   2.162   2.715 -1.0884 -0.4777 -0.2917
 1720SOL     vw 6880   5.685   2.240   2.690 -0.7172 -0.3958  0.3830
 1721SOL     ow 6881   0.399   1.115   4.987  0.2268  0.2752 -0.5014
 1721SOL     hw 6882   0.406   1.140   5.080 -0.2140 -1.7169  0.1121
 1721SOL     hw 6883   0.490   1.111   4.958  0.4676 -0.6508  0.3170
 1721SOL     vw 6884   0.412   1.118   4.996  0.2004 -0.1097 -0.3123
 1722SOL     ow 6885   4.120   2.706   1.161  0.2754 -0.1595 -0.4084
 1722SOL     hw 6886   4.078   2.636   1.111 -1.9395  0.4766  0.4159
 1722SOL     hw 6887   4.214   2.689   1.153 -0.0300 -1.0183 -3.3407
 1722SOL     vw 6888   4.127   2.695   1.153 -0.0570 -0.1888 -0.6865
 1723SOL     ow 6889   7.139   6.545   1.130 -0.4035 -0.8910  0.9687
 1723SOL     hw 6890   7.089   6.626   1.133  1.7759  0.6954 -1.5174
 1723SOL     hw 6891   7.197   6.550   1.206 -1.6922 -1.2283  2.0280
 1723SOL     vw 6892   7.140   6.556   1.141 -0.2859 -0.7260  0.7805
 1724SOL     ow 6893   1.419   2.686   7.012 -0.0519  0.1673 -0.5668
 1724SOL     hw 6894   1.326   2.665   7.007 -0.0587 -0.2780  0.8411
 1724SOL     hw 6895   1.452   2.674   6.923 -1.2443 -0.0942 -0.9903
 1724SOL     vw 6896   1.411   2.682   7.000 -0.2102  0.0741 -0.4368
 1725SOL     ow 6897   3.411   3.291   4.599  0.7284  0.2855  0.0990
 1725SOL     hw 6898   3.371   3.316   4.516 -0.1462  0.2716  0.5124
 1725SOL     hw 6899   3.461   3.212   4.579 -1.9449 -1.5477  0.1922
 1725SOL     vw 6900   3.413   3.284   4.586  0.2602  0.0416  0.1657
 1726SOL     ow 6901   0.976   6.913   5.063  0.0745  0.2190 -0.4301
 1726SOL     hw 6902   1.049   6.972   5.080  1.3931 -0.3874 -3.3697
 1726SOL     hw 6903   0.913   6.966   5.015 -0.9459  0.4028  1.0288
 1726SOL     vw 6904   0.977   6.928   5.059  0.1138  0.1631 -0.6251
 1727SOL     ow 6905   3.056   4.737   4.956  0.1897  0.4896  0.2914
 1727SOL     hw 6906   3.007   4.693   4.888  0.6679  0.5175 -0.0789
 1727SOL     hw 6907   3.026   4.828   4.953  0.4734  0.5720 -0.1336
 1727SOL     vw 6908   3.046   4.743   4.947  0.2902  0.5040  0.1864
 1728SOL     ow 6909   3.446   6.943   1.569 -0.7119  0.0473 -0.7856
 1728SOL     hw 6910   3.404   6.858   1.585  0.7899 -0.5603  0.0573
 1728SOL     hw 6911   3.398   7.004   1.625 -0.9769 -0.4777 -0.4283
 1728SOL     vw 6912   3.434   6.940   1.578 -0.5486 -0.1018 -0.6272
 1729SOL     ow 6913   1.613   2.351   0.733 -0.1202 -0.0311 -0.4314
 1729SOL     hw 6914   1.519   2.347   0.720 -0.4365 -1.5973  1.7650
 1729SOL     hw 6915   1.650   2.307   0.657 -1.3109 -1.2977 -0.3196
 1729SOL     vw 6916   1.606   2.345   0.721 -0.3189 -0.4047 -0.1269
 1730SOL     ow 6917   5.726   2.599   2.723 -0.0412 -0.7251  0.3098
 1730SOL     hw 6918   5.750   2.529   2.784 -0.5231  0.4120  1.8419
 1730SOL     hw 6919   5.809   2.624   2.682  0.8102  0.3351  2.5069
 1730SOL     vw 6920   5.740   2.593   2.726  0.0074 -0.4351  0.8018
 1731SOL     ow 6921   4.775   3.453   1.324  0.2027 -0.5294  0.3670
 1731SOL     hw 6922   4.766   3.383   1.389  1.8340 -2.1704 -1.0717
 1731SOL     hw 6923   4.862   3.489   1.340 -0.3073  0.6883  0.5616
 1731SOL     vw 6924   4.785   3.449   1.335  0.3505 -0.5852  0.2028
 1732SOL     ow 6925   2.277   4.749   6.327 -0.6555 -0.4373 -0.1905
 1732SOL     hw 6926   2.243   4.770   6.240 -2.3304  0.2076  0.5717
 1732SOL     hw 6927   2.199   4.749   6.383  0.6683  2.0812  1.8613
 1732SOL     vw 6928   2.262   4.752   6.323 -0.7018 -0.0200  0.1807
 1733SOL     ow 6929   6.996   5.347   5.615 -0.7155  0.5104  0.0673
 1733SOL     hw 6930   7.022   5.270   5.564 -1.4228  0.8404 -0.8185
 1733SOL     hw 6931   6.907   5.326   5.645 -0.8007  0.8538  0.0614
 1733SOL     vw 6932   6.988   5.334   5.612 -0.8199  0.5996 -0.0505
 1734SOL     ow 6933   4.790   3.713   3.917  0.3560  0.1346  0.0724
 1734SOL     hw 6934   4.822   3.636   3.869  0.0720  0.0957 -0.0573
 1734SOL     hw 6935   4.773   3.778   3.849 -2.2910 -0.6960 -0.1613
 1734SOL     vw 6936   4.792   3.712   3.902 -0.0308  0.0198  0.0244
 1735SOL     ow 6937   5.532   5.194   3.797  0.3873 -0.3133  0.1279
 1735SOL     hw 6938   5.437   5.199   3.796  0.1931  0.0170  4.1904
 1735SOL     hw 6939   5.552   5.104   3.823  1.2454 -0.4766 -1.0063
 1735SOL     vw 6940   5.522   5.183   3.800  0.4749 -0.2918  0.5143
 1736SOL     ow 6941   3.510   1.713   3.123  0.4196  0.0682  0.4145
 1736SOL     hw 6942   3.485   1.694   3.214 -0.0426  2.2843  0.8211
 1736SOL     hw 6943   3.507   1.809   3.117  0.3573 -0.0205 -1.9742
 1736SOL     vw 6944   3.506   1.723   3.134  0.3502  0.3489  0.1529
 1737SOL     ow 6945   3.155   6.787   5.379  0.4785 -0.1605  0.5912
 1737SOL     hw 6946   3.158   6.733   5.458 -2.0096 -0.1618  0.7469
 1737SOL     hw 6947   3.209   6.739   5.316 -1.8136 -3.1220  0.6321
 1737SOL     vw 6948   3.163   6.774   5.381 -0.1522 -0.5512  0.6170
 1738SOL     ow 6949   1.681   4.037   3.458 -0.8281 -0.0328  0.4055
 1738SOL     hw 6950   1.742   3.975   3.498 -1.4727 -0.4179  0.8132
 1738SOL     hw 6951   1.727   4.070   3.380 -0.6830 -1.4112 -0.1087
 1738SOL     vw 6952   1.695   4.034   3.453 -0.8940 -0.2656  0.3915
 1739SOL     ow 6953   0.917   6.437   3.718 -0.5332 -0.0137  0.8335
 1739SOL     hw 6954   0.870   6.507   3.673 -1.4928 -0.2417  1.4625
 1739SOL     hw 6955   0.868   6.423   3.799 -2.0064 -3.2628 -0.4412
 1739SOL     vw 6956   0.904   6.444   3.722 -0.8541 -0.4725  0.7482
 1740SOL     ow 6957   1.001   4.755   1.199 -0.0421  0.1900  0.0323
 1740SOL     hw 6958   1.016   4.687   1.265 -1.8809  1.0425  1.4304
 1740SOL     hw 6959   0.908   4.777   1.208  0.1575  1.8801 -1.3798
 1740SOL     vw 6960   0.990   4.749   1.209 -0.2584  0.5257  0.0305
 1741SOL     ow 6961   1.478   1.272   4.095  0.1666  0.2562  0.0361
 1741SOL     hw 6962   1.413   1.216   4.137 -0.6690  0.0863 -1.4195
 1741SOL     hw 6963   1.562   1.238   4.126 -0.3918 -0.0586  1.2865
 1741SOL     vw 6964   1.481   1.260   4.105 -0.0173  0.1922  0.0093
 1742SOL     ow 6965   5.070   3.501   5.775  0.7783 -0.4788  0.2712
 1742SOL     hw 6966   5.098   3.553   5.700 -0.5658 -2.7639 -1.9356
 1742SOL     hw 6967   4.975   3.514   5.780  0.4610 -2.3101 -0.1100
 1742SOL     vw 6968   5.061   3.510   5.766  0.5591 -1.0220 -0.0701
 1743SOL     ow 6969   6.786   2.761   3.745  0.5663  0.8866  0.4884
 1743SOL     hw 6970   6.697   2.787   3.724 -0.0284 -0.8928  0.6204
 1743SOL     hw 6971   6.788   2.752   3.840  0.9657  1.1707  0.5109
 1743SOL     vw 6972   6.775   2.763   3.755  0.5405  0.6894  0.5087
 1744SOL     ow 6973   1.980   4.984   4.308  0.4279  0.4053  0.3305
 1744SOL     hw 6974   1.941   5.067   4.334  0.8738  0.9552 -0.7340
 1744SOL     hw 6975   2.055   4.973   4.367  1.2363  1.4857 -0.4471
 1744SOL     vw 6976   1.985   4.993   4.319  0.5934  0.6204  0.0877
 1745SOL     ow 6977   5.596   3.295   6.095  0.6168 -0.3410  0.1402
 1745SOL     hw 6978   5.535   3.222   6.107  1.6323 -1.1366  0.5816
 1745SOL     hw 6979   5.566   3.338   6.015  0.2613 -1.4974 -0.3686
 1745SOL     vw 6980   5.584   3.291   6.086  0.7038 -0.5985  0.1314
 1746SOL     ow 6981   3.605   2.786   6.508  0.2886 -0.2732 -0.0254
 1746SOL     hw 6982   3.583   2.717   6.446 -1.2980 -1.5017  1.7898
 1746SOL     hw 6983   3.635   2.859   6.453  0.2069 -1.7296 -2.1129
 1746SOL     vw 6984   3.606   2.787   6.493  0.0683 -0.6275 -0.0610
 1747SOL     ow 6985   3.661   5.616   0.768 -0.0465 -0.6277 -0.3627
 1747SOL     hw 6986   3.575   5.641   0.736  0.5299  2.6627  0.2587
 1747SOL     hw 6987   3.711   5.595   0.690 -1.0778 -1.4574 -0.8184
 1747SOL     vw 6988   3.656   5.617   0.754 -0.1065 -0.3030 -0.3408
 1748SOL     ow 6989   2.284   1.909   3.807 -0.2194 -0.1525 -0.2880
 1748SOL     hw 6990   2.333   1.919   3.726  1.5588  0.0361  0.7465
 1748SOL     hw 6991   2.340   1.853   3.862 -1.7227 -0.9097  0.5363
 1748SOL     vw 6992   2.298   1.903   3.804 -0.1831 -0.2276 -0.0428
 1749SOL     ow 6993   4.606   3.775   4.523  0.2920  0.8009 -0.4330
 1749SOL     hw 6994   4.514   3.752   4.537 -0.5622  3.1612 -1.5059
 1749SOL     hw 6995   4.653   3.692   4.529 -1.8943 -0.4848  0.1586
 1749SOL     vw 6996   4.600   3.761   4.525 -0.1090  0.9427 -0.4966
 1750SOL     ow 6997   2.249   2.044   5.972 -0.2276  0.2844  0.0586
 1750SOL     hw 6998   2.281   1.966   6.017  0.1888  1.1696  1.3666
 1750SOL     hw 6999   2.154   2.043   5.987 -0.2550 -0.0773 -0.1219
 1750SOL     vw 7000   2.240   2.034   5.980 -0.1762  0.3536  0.2074
 1751SOL     ow 7001   2.592   5.820   1.002 -0.4245 -0.0321 -0.1528
 1751SOL     hw 7002   2.554   5.841   0.917 -0.9019  0.7518  0.2523
 1751SOL     hw 7003   2.684   5.847   0.995 -0.5907  0.5165 -0.2469
 1751SOL     vw 7004   2.599   5.826   0.990 -0.5094  0.1438 -0.1118
 1752SOL     ow 7005   3.001   6.774   4.087  0.6373  0.3510 -0.1767
 1752SOL     hw 7006   3.093   6.750   4.101  1.0178  1.1292 -1.2207
 1752SOL     hw 7007   2.966   6.705   4.030  0.5171 -0.0505  0.3812
 1752SOL     vw 7008   3.009   6.762   4.081  0.6716  0.4005 -0.2410
 1753SOL     ow 7009   0.024   5.026   1.243 -0.3962  0.2294 -0.4045
 1753SOL     hw 7010  -0.068   5.014   1.267 -0.1569  0.4591  0.6916
 1753SOL     hw 7011   0.037   5.121   1.242  0.2224  0.2006  1.1525
 1753SOL     vw 7012   0.014   5.037   1.246 -0.2830  0.2558 -0.0544
 1754SOL     ow 7013   5.849   5.533   2.858 -0.5391 -0.4069  0.2441
 1754SOL     hw 7014   5.788   5.470   2.898 -1.9393  1.5006  1.2686
 1754SOL     hw 7015   5.824   5.533   2.765  1.7551 -3.7697 -0.5689
 1754SOL     vw 7016   5.837   5.524   2.851 -0.4210 -0.5987  0.2719
 1755SOL     ow 7017   2.409   3.355   6.707 -0.3604  0.5683 -0.0299
 1755SOL     hw 7018   2.471   3.348   6.780 -0.5485  2.2420  0.3468
 1755SOL     hw 7019   2.362   3.272   6.707  1.1279 -0.3206  0.3596
 1755SOL     vw 7020   2.411   3.343   6.717 -0.1888  0.6717  0.0713
 1756SOL     ow 7021   4.980   5.548   1.787  0.1131 -0.0156 -0.2360
 1756SOL     hw 7022   4.921   5.563   1.713  1.2848  0.5914 -1.0929
 1756SOL     hw 7023   4.949   5.606   1.856  0.8266  1.7727 -1.3499
 1756SOL     vw 7024   4.968   5.558   1.786  0.3619  0.3004 -0.4960
 1757SOL     ow 7025   2.048   5.897   2.853 -0.6662 -0.3218  0.1896
 1757SOL     hw 7026   2.123   5.846   2.823 -0.1760  1.2367 -1.4255
 1757SOL     hw 7027   2.085   5.983   2.874 -1.7594 -0.0160  0.9691
 1757SOL     vw 7028   2.063   5.902   2.852 -0.7458 -0.0758  0.0793
 1758SOL     ow 7029   3.521   6.128   6.586 -0.0276 -0.5244 -0.0761
 1758SOL     hw 7030   3.480   6.088   6.663 -2.1533  0.9004 -0.3911
 1758SOL     hw 7031   3.496   6.220   6.591  4.1345  0.7910  0.2739
 1758SOL     vw 7032   3.512   6.135   6.597  0.2409 -0.1626 -0.0715
 1759SOL     ow 7033   0.581   2.755   1.652 -0.1802 -0.5674 -0.4773
 1759SOL     hw 7034   0.564   2.826   1.590 -0.6541 -1.5788 -1.5227
 1759SOL     hw 7035   0.553   2.790   1.736 -0.0263  0.6301 -0.9049
 1759SOL     vw 7036   0.575   2.769   1.655 -0.2224 -0.5429 -0.6717
 1760SOL     ow 7037   0.224   4.514   2.353 -0.4759 -0.5489 -0.2217
 1760SOL     hw 7038   0.273   4.534   2.432 -0.8683  2.7540 -0.6831
 1760SOL     hw 7039   0.288   4.476   2.293  0.8718  0.9711  0.1957
 1760SOL     vw 7040   0.239   4.512   2.355 -0.3498  0.0873 -0.2275
 1761SOL     ow 7041   5.135   3.321   6.989 -0.2500 -0.3535 -0.0516
 1761SOL     hw 7042   5.069   3.263   6.951 -0.1576 -0.7833  0.4294
 1761SOL     hw 7043   5.102   3.343   7.075 -0.7171  1.0650 -0.5604
 1761SOL     vw 7044   5.122   3.316   6.995 -0.2995 -0.2230 -0.0548
 1762SOL     ow 7045   1.264   1.698   4.277 -0.2772  0.5149 -0.1807
 1762SOL     hw 7046   1.286   1.692   4.370  0.3736 -1.6712 -0.4184
 1762SOL     hw 7047   1.173   1.668   4.272  0.1624 -0.8568 -0.3821
 1762SOL     vw 7048   1.255   1.693   4.289 -0.1334  0.0455 -0.2387
 1763SOL     ow 7049   2.875   6.429   0.530 -0.6282  0.5659  0.4670
 1763SOL     hw 7050   2.899   6.354   0.475 -0.9314  1.1903 -0.5445
 1763SOL     hw 7051   2.947   6.436   0.593 -0.3735 -0.2984  0.2929
 1763SOL     vw 7052   2.888   6.420   0.531 -0.6344  0.5341  0.3105
 1764SOL     ow 7053   7.139   2.036   2.807  0.1839 -0.1025  0.1830
 1764SOL     hw 7054   7.093   2.117   2.826  0.3494  0.7420 -2.6458
 1764SOL     hw 7055   7.083   1.990   2.744  0.0947 -2.2409  1.7196
 1764SOL     vw 7056   7.126   2.040   2.801  0.1938 -0.2732  0.0125
 1765SOL     ow 7057   5.188   1.862   0.395  0.7825  0.0371  0.5980
 1765SOL     hw 7058   5.261   1.852   0.456  0.5142 -2.0919  0.6371
 1765SOL     hw 7059   5.113   1.824   0.441 -0.2362  1.5242  0.2704
 1765SOL     vw 7060   5.188   1.856   0.409  0.6125 -0.0476  0.5600
 1766SOL     ow 7061   4.564   2.150   1.582 -0.1394  0.0360 -0.7265
 1766SOL     hw 7062   4.654   2.178   1.560  0.6362 -3.0747 -2.0202
 1766SOL     hw 7063   4.569   2.055   1.585 -2.4593 -0.1743  3.7266
 1766SOL     vw 7064   4.577   2.141   1.579 -0.3433 -0.4022 -0.3096
 1767SOL     ow 7065   0.040   3.398   5.573 -0.1351 -1.2620  0.1718
 1767SOL     hw 7066  -0.013   3.459   5.624  0.4125 -1.5381  1.0974
 1767SOL     hw 7067   0.036   3.432   5.483  0.8101  0.6369  0.7850
 1767SOL     vw 7068   0.033   3.411   5.568  0.0620 -1.0478  0.3746
 1768SOL     ow 7069   7.075   5.493   5.377  0.2073  0.0509 -0.3295
 1768SOL     hw 7070   7.029   5.556   5.321 -1.1490 -1.0538 -0.5098
 1768SOL     hw 7071   7.104   5.424   5.317  0.7029 -0.0533  0.0215
 1768SOL     vw 7072   7.073   5.492   5.362  0.0935 -0.1090 -0.3068
 1769SOL     ow 7073   0.059   3.214   7.091 -0.0111  0.2151 -0.2276
 1769SOL     hw 7074   0.088   3.287   7.035 -1.2512  0.6854 -0.2814
 1769SOL     hw 7075   0.022   3.256   7.168 -0.1829 -0.3822  0.0226
 1769SOL     vw 7076   0.058   3.229   7.093 -0.1974  0.1984 -0.2017
 1770SOL     ow 7077   5.333   5.841   4.276 -0.3657 -0.0639 -0.3722
 1770SOL     hw 7078   5.280   5.761   4.273 -0.0989 -0.3059  0.8144
 1770SOL     hw 7079   5.367   5.843   4.365  0.2662  0.9729 -0.6281
 1770SOL     vw 7080   5.331   5.831   4.287 -0.2472  0.0408 -0.2494
 1771SOL     ow 7081   3.333   4.860   7.112 -0.5759  0.1982 -0.1386
 1771SOL     hw 7082   3.381   4.900   7.184  1.1140 -0.2074 -0.9951
 1771SOL     hw 7083   3.382   4.780   7.092 -1.7932 -0.3929 -0.8567
 1771SOL     vw 7084   3.346   4.855   7.119 -0.5136  0.0665 -0.3462
 1772SOL     ow 7085   0.052   2.948   2.904  0.2168 -0.0840 -0.3173
 1772SOL     hw 7086   0.067   3.010   2.976  1.5653  1.3461 -1.7350
 1772SOL     hw 7087   0.135   2.947   2.856 -0.4945 -1.3575 -1.5863
 1772SOL     vw 7088   0.065   2.956   2.907  0.3009 -0.0633 -0.6717
 1773SOL     ow 7089   0.808   6.733   4.354 -0.4077  0.5616  0.0298
 1773SOL     hw 7090   0.889   6.712   4.309  0.4567  2.7539  0.4442
 1773SOL     hw 7091   0.836   6.767   4.439 -1.8637 -0.3943  0.9472
 1773SOL     vw 7092   0.822   6.735   4.360 -0.4858  0.7248  0.2055
 1774SOL     ow 7093   4.538   3.395   0.925 -0.1093  0.9576 -0.2022
 1774SOL     hw 7094   4.569   3.336   0.857 -1.6527 -0.7417  0.4952
 1774SOL     hw 7095   4.449   3.420   0.898  0.1876  2.2913 -0.0462
 1774SOL     vw 7096   4.530   3.391   0.913 -0.2739  0.9092 -0.0896
 1775SOL     ow 7097   0.813   0.801   2.603 -0.6834 -0.2579 -0.0466
 1775SOL     hw 7098   0.754   0.837   2.537 -0.9825 -1.1854 -0.3046
 1775SOL     hw 7099   0.885   0.763   2.552 -0.8623 -0.8808  0.1544
 1775SOL     vw 7100   0.815   0.801   2.587 -0.7465 -0.4625 -0.0540
 1776SOL     ow 7101   4.859   5.310   0.222  0.5018 -0.0181  0.7455
 1776SOL     hw 7102   4.918   5.249   0.265  1.6364  0.3172 -0.2689
 1776SOL     hw 7103   4.831   5.370   0.291  2.1675  0.4265  1.0676
 1776SOL     vw 7104   4.863   5.310   0.237  0.8712  0.0851  0.6542
 1777SOL     ow 7105   6.517   4.222   0.542 -0.7614  0.0010  0.1971
 1777SOL     hw 7106   6.577   4.186   0.607  1.7872  2.2046 -0.7185
 1777SOL     hw 7107   6.497   4.148   0.485  2.0129 -0.6902 -0.0413
 1777SOL     vw 7108   6.522   4.208   0.543 -0.0591  0.2005  0.0448
 1778SOL     ow 7109   1.821   5.853   2.999  0.2165  0.3873  0.3200
 1778SOL     hw 7110   1.908   5.854   2.960  0.6697  0.6235  1.3053
 1778SOL     hw 7111   1.830   5.903   3.080 -0.8157  0.3413  0.4821
 1778SOL     vw 7112   1.834   5.860   3.005  0.1401  0.4122  0.4715
 1779SOL     ow 7113   6.287   3.301   4.182 -0.1261 -0.4333  0.2031
 1779SOL     hw 7114   6.323   3.236   4.121  2.1284 -0.4705  1.4414
 1779SOL     hw 7115   6.352   3.306   4.252 -2.5646 -0.3854  2.6323
 1779SOL     vw 7116   6.300   3.293   4.183 -0.1504 -0.4319  0.6869
 1780SOL     ow 7117   1.651   4.907   0.785  0.0922  0.1199 -0.3358
 1780SOL     hw 7118   1.562   4.891   0.753 -0.1584 -0.2067  0.4867
 1780SOL     hw 7119   1.705   4.841   0.741 -0.3063 -0.5620  0.1857
 1780SOL     vw 7120   1.646   4.896   0.775  0.0066 -0.0131 -0.1585
 1781SOL     ow 7121   2.650   2.032   1.449  0.1045  0.2138 -0.8515
 1781SOL     hw 7122   2.593   2.102   1.480  1.8055  1.7305 -0.9884
 1781SOL     hw 7123   2.735   2.051   1.489  0.4678 -2.1986 -0.3334
 1781SOL     vw 7124   2.654   2.044   1.458  0.3769  0.0955 -0.8013
 1782SOL     ow 7125   2.487   1.746   3.325 -0.4234 -0.1338 -0.2876
 1782SOL     hw 7126   2.500   1.838   3.303  0.6792 -0.5875 -1.7141
 1782SOL     hw 7127   2.525   1.736   3.412 -2.1804  1.1039  0.6837
 1782SOL     vw 7128   2.494   1.757   3.333 -0.5097 -0.0304 -0.3477
 1783SOL     ow 7129   6.205   7.125   6.308 -0.3413  0.3287 -0.0959
 1783SOL     hw 7130   6.184   7.135   6.215 -0.1171 -2.2165 -0.4961
 1783SOL     hw 7131   6.300   7.121   6.311 -0.3283  0.8375  0.3159
 1783SOL     vw 7132   6.214   7.126   6.297 -0.3099  0.0603 -0.0942
 1784SOL     ow 7133   1.252   5.158   2.106  0.1861  0.3052 -0.1128
 1784SOL     hw 7134   1.233   5.242   2.148 -0.4942  0.7967 -1.3355
 1784SOL     hw 7135   1.295   5.182   2.023  1.5470 -0.6297  0.2866
 1784SOL     vw 7136   1.255   5.172   2.100  0.2759  0.2468 -0.2214
 1785SOL     ow 7137   3.808   1.891   1.200 -0.5118  0.8757 -0.5072
 1785SOL     hw 7138   3.819   1.981   1.232 -0.4914  0.7438 -0.1331
 1785SOL     hw 7139   3.713   1.881   1.190 -0.7817  0.0493  2.1572
 1785SOL     vw 7140   3.797   1.901   1.203 -0.5447  0.7492 -0.1063
 1786SOL     ow 7141   0.466   3.694   3.612 -0.1816  0.9648 -0.0036
 1786SOL     hw 7142   0.378   3.659   3.601  0.3126  0.2810 -2.1836
 1786SOL     hw 7143   0.521   3.616   3.622  0.2585  1.3784  1.0212
 1786SOL     vw 7144   0.462   3.679   3.612 -0.0583  0.9292 -0.1559
 1787SOL     ow 7145   1.150   6.096   6.770 -0.0923 -0.3939  0.7409
 1787SOL     hw 7146   1.143   6.041   6.692 -2.2124 -0.4037  0.8943
 1787SOL     hw 7147   1.159   6.185   6.736 -0.0296 -0.4956  0.4894
 1787SOL     vw 7148   1.151   6.100   6.755 -0.3638 -0.4084  0.7279
 1788SOL     ow 7149   2.767   0.262   3.960  0.0168 -0.1774 -0.1437
 1788SOL     hw 7150   2.778   0.266   3.865 -1.9500 -1.1914 -0.4766
 1788SOL     hw 7151   2.852   0.232   3.993  0.8051  0.4150 -1.5491
 1788SOL     vw 7152   2.780   0.258   3.951 -0.1388 -0.2331 -0.3729
 1789SOL     ow 7153   5.152   1.557   3.459  0.9152 -0.4020 -0.0974
 1789SOL     hw 7154   5.129   1.547   3.551  0.7338 -1.9665 -0.2925
 1789SOL     hw 7155   5.121   1.477   3.417 -1.5049  1.4091 -2.0796
 1789SOL     vw 7156   5.145   1.545   3.466  0.5720 -0.3694 -0.3847
 1790SOL     ow 7157   6.537   0.961   3.918  0.9445  0.4730 -0.8052
 1790SOL     hw 7158   6.526   0.960   3.823 -0.1015  0.1275 -0.6937
 1790SOL     hw 7159   6.450   0.944   3.952  0.8400  2.7840  0.2550
 1790SOL     vw 7160   6.524   0.959   3.910  0.7927  0.7324 -0.6505
 1791SOL     ow 7161   1.742   1.132   5.651 -0.4290 -0.5676  0.3727
 1791SOL     hw 7162   1.686   1.054   5.649  1.3921 -1.9222 -0.0082
 1791SOL     hw 7163   1.799   1.119   5.726  3.0995 -2.0711 -2.2726
 1791SOL     vw 7164   1.742   1.120   5.660  0.2768 -0.9447 -0.0267
 1792SOL     ow 7165   6.773   4.388   4.556 -0.3945  0.2517 -0.6401
 1792SOL     hw 7166   6.758   4.370   4.649  2.1985 -1.4597 -0.4481
 1792SOL     hw 7167   6.732   4.314   4.510 -2.8020  1.7356 -1.0469
 1792SOL     vw 7168   6.766   4.376   4.562 -0.3700  0.2217 -0.6685
 1793SOL     ow 7169   0.440   2.009   4.054  0.4296  0.1671  0.3721
 1793SOL     hw 7170   0.372   2.053   4.002  1.0236 -1.1719 -1.6491
 1793SOL     hw 7171   0.512   2.071   4.056  1.2171 -0.5203 -2.3561
 1793SOL     vw 7172   0.440   2.023   4.047  0.6119 -0.1004 -0.2544
 1794SOL     ow 7173   3.271   4.676   1.402  0.1387 -0.2315 -0.1255
 1794SOL     hw 7174   3.229   4.598   1.366 -0.2764 -0.8595  1.6208
 1794SOL     hw 7175   3.345   4.693   1.343  1.5027 -3.1926  0.5992
 1794SOL     vw 7176   3.275   4.668   1.389  0.2639 -0.7052  0.2006
 1795SOL     ow 7177   6.106   2.208   0.828  0.1490  0.0350  0.3944
 1795SOL     hw 7178   6.181   2.241   0.877  0.2779  1.2259 -0.5693
 1795SOL     hw 7179   6.036   2.202   0.893 -0.8633  5.2629  0.2109
 1795SOL     vw 7180   6.107   2.211   0.843  0.0324  0.8819  0.2430
 1796SOL     ow 7181   6.746   0.771   6.324  0.3552 -0.1505 -0.2444
 1796SOL     hw 7182   6.770   0.841   6.263 -1.7467  1.1016  0.2583
 1796SOL     hw 7183   6.698   0.708   6.270 -0.7827  0.5531 -0.0990
 1796SOL     vw 7184   6.743   0.772   6.309 -0.0725  0.1075 -0.1590
 1797SOL     ow 7185   4.780   5.539   0.041  0.2032 -0.2955 -0.7350
 1797SOL     hw 7186   4.727   5.617   0.024  0.9032 -0.0532 -1.9348
 1797SOL     hw 7187   4.849   5.570   0.100 -1.4855 -0.8388  1.6792
 1797SOL     vw 7188   4.782   5.554   0.047  0.0727 -0.3352 -0.5748
 1798SOL     ow 7189   5.899   3.170   1.256 -0.3794 -0.1467 -0.4743
 1798SOL     hw 7190   5.824   3.120   1.289 -0.1667  0.1396  0.4622
 1798SOL     hw 7191   5.919   3.130   1.171 -3.2055  1.3714 -2.0330
 1798SOL     vw 7192   5.891   3.158   1.249 -0.7243  0.0914 -0.5564
 1799SOL     ow 7193   3.746   6.605   2.491  0.1582  0.1305 -0.2798
 1799SOL     hw 7194   3.798   6.585   2.414 -0.6241 -0.5078 -0.6537
 1799SOL     hw 7195   3.797   6.572   2.565  0.1399 -0.7815 -0.6702
 1799SOL     vw 7196   3.759   6.598   2.491  0.0526 -0.0741 -0.3805
 1800SOL     ow 7197   1.208   3.280   5.071  0.5522 -0.3701 -0.1232
 1800SOL     hw 7198   1.150   3.210   5.100 -1.3195  0.7142 -1.0301
 1800SOL     hw 7199   1.292   3.261   5.113 -0.7727 -1.3090  2.2858
 1800SOL     vw 7200   1.212   3.268   5.080  0.1304 -0.3508  0.0749
 1801SOL     ow 7201   0.974   1.357   1.562 -0.6610 -0.0674 -0.7328
 1801SOL     hw 7202   0.999   1.382   1.473 -0.2227  0.4710 -0.4678
 1801SOL     hw 7203   1.029   1.412   1.618  0.1824 -1.5038 -0.1100
 1801SOL     vw 7204   0.985   1.368   1.558 -0.4919 -0.1858 -0.6157
 1802SOL     ow 7205   3.024   3.229   1.083 -0.3252 -0.0886  0.0481
 1802SOL     hw 7206   2.944   3.280   1.094 -0.3730  0.3655 -1.9094
 1802SOL     hw 7207   3.092   3.296   1.069  0.0169 -0.5137 -0.3344
 1802SOL     vw 7208   3.023   3.245   1.083 -0.2865 -0.0849 -0.2607
 1803SOL     ow 7209   6.248   6.272   5.232 -0.1881  0.1312 -0.1897
 1803SOL     hw 7210   6.155   6.275   5.207 -0.2960 -0.2866  0.1380
 1803SOL     hw 7211   6.271   6.363   5.251 -1.1983  0.0080  2.0699
 1803SOL     vw 7212   6.238   6.284   5.232 -0.3357  0.0598  0.1516
 1804SOL     ow 7213   6.950   4.266   1.734 -0.0520  0.0433  0.0479
 1804SOL     hw 7214   6.865   4.251   1.693 -0.1281 -1.4976  0.7273
 1804SOL     hw 7215   7.004   4.193   1.705  0.9773  0.8491 -0.1330
 1804SOL     vw 7216   6.946   4.255   1.725  0.0739 -0.0536  0.1137
 1805SOL     ow 7217   1.050   6.674   5.249  0.7588 -0.7153  0.2661
 1805SOL     hw 7218   1.030   6.588   5.213  1.5793 -0.2969 -1.2976
 1805SOL     hw 7219   1.145   6.677   5.254  0.8440  0.6002 -1.1583
 1805SOL     vw 7220   1.060   6.663   5.245  0.8782 -0.4864 -0.1280
 1806SOL     ow 7221   4.510   4.435   1.527 -0.0847  0.0343  0.3439
 1806SOL     hw 7222   4.591   4.481   1.546  0.1217  0.6000 -1.6522
 1806SOL     hw 7223   4.458   4.497   1.476 -1.5833 -0.4856  1.1824
 1806SOL     vw 7224   4.514   4.449   1.523 -0.2553  0.0403  0.1912
 1807SOL     ow 7225   4.835   1.681   2.756 -0.3705 -0.6843 -0.5064
 1807SOL     hw 7226   4.749   1.640   2.749 -0.0034 -1.2815 -1.8718
 1807SOL     hw 7227   4.896   1.616   2.720  0.3885  0.5345 -1.4961
 1807SOL     vw 7228   4.832   1.667   2.751 -0.2220 -0.6023 -0.8172
 1808SOL     ow 7229   5.120   0.051   3.755  0.7179  0.1390 -0.4405
 1808SOL     hw 7230   5.178   0.042   3.831  0.0737 -2.0389 -0.1368
 1808SOL     hw 7231   5.158  -0.007   3.689 -1.1861 -1.5507 -0.1376
 1808SOL     vw 7232   5.133   0.042   3.757  0.3817 -0.3713 -0.3605
 1809SOL     ow 7233   0.091   3.396   1.957  0.6479  0.5959 -0.0266
 1809SOL     hw 7234   0.120   3.431   1.872  2.9201 -2.6813 -0.7795
 1809SOL     hw 7235   0.124   3.460   2.021  1.3952  1.6926 -1.4425
 1809SOL     vw 7236   0.099   3.409   1.954  1.0463  0.3080 -0.3128
 1810SOL     ow 7237   6.896   4.508   5.707 -0.7981 -0.0597  0.8702
 1810SOL     hw 7238   6.969   4.567   5.688  0.1582 -1.5922 -0.4716
 1810SOL     hw 7239   6.922   4.462   5.787  0.0487 -1.0489  0.0582
 1810SOL     vw 7240   6.909   4.510   5.715 -0.5603 -0.3922  0.5858
 1811SOL     ow 7241   0.228   2.679   0.106  0.4333 -0.4796 -0.4071
 1811SOL     hw 7242   0.305   2.635   0.071  0.8400  0.3357 -0.5719
 1811SOL     hw 7243   0.185   2.613   0.160  0.5308 -1.3393 -1.3583
 1811SOL     vw 7244   0.233   2.665   0.109  0.4998 -0.4854 -0.5544
 1812SOL     ow 7245   6.755   2.254   6.370  0.1333  0.1964 -0.7685
 1812SOL     hw 7246   6.817   2.187   6.342  0.4812  0.1622  0.0478
 1812SOL     hw 7247   6.773   2.265   6.464 -2.6895 -1.4927  0.0714
 1812SOL     vw 7248   6.766   2.247   6.379 -0.1934 -0.0310 -0.5500
 1813SOL     ow 7249   0.802   7.023   1.223 -0.5260  0.5916  0.3068
 1813SOL     hw 7250   0.837   7.014   1.311  0.8342  0.2148 -0.2466
 1813SOL     hw 7251   0.767   7.112   1.220  1.0428  1.2616  0.6847
 1813SOL     vw 7252   0.802   7.034   1.234 -0.1396  0.6304  0.2836
 1814SOL     ow 7253   1.540   6.175   5.999  0.4021 -0.3929 -0.0547
 1814SOL     hw 7254   1.452   6.165   5.961  0.9156 -1.1988 -1.0689
 1814SOL     hw 7255   1.524   6.217   6.084 -0.8663  0.5161 -0.6988
 1814SOL     vw 7256   1.526   6.179   6.005  0.3024 -0.3791 -0.2735
 1815SOL     ow 7257   5.879   6.507   3.762 -0.1839 -0.4632 -0.1126
 1815SOL     hw 7258   5.787   6.531   3.773 -0.0538  0.6060 -1.1353
 1815SOL     hw 7259   5.885   6.418   3.795 -1.2415  0.0267  1.5105
 1815SOL     vw 7260   5.868   6.499   3.768 -0.3061 -0.2575 -0.0334
 1816SOL     ow 7261   3.198   5.679   4.241  0.0847 -0.7995  0.5376
 1816SOL     hw 7262   3.133   5.748   4.249  0.9741 -0.0435  1.6043
 1816SOL     hw 7263   3.282   5.726   4.237  0.5377 -1.7149 -1.4848
 1816SOL     vw 7264   3.201   5.694   4.242  0.2617 -0.8206  0.4115
 1817SOL     ow 7265   5.883   0.813   2.231  0.0052 -0.1338 -0.6310
 1817SOL     hw 7266   5.912   0.896   2.193 -0.8909 -0.1874 -1.4608
 1817SOL     hw 7267   5.788   0.821   2.239  0.1502 -0.1176  1.6929
 1817SOL     vw 7268   5.874   0.825   2.227 -0.0939 -0.1387 -0.4338
 1818SOL     ow 7269   3.752   0.039   6.330  0.0798 -0.4369 -0.3774
 1818SOL     hw 7270   3.659   0.061   6.323 -0.2402 -1.4936  0.4095
 1818SOL     hw 7271   3.782   0.085   6.408  0.2895  0.0712 -0.7449
 1818SOL     vw 7272   3.744   0.048   6.339  0.0652 -0.5093 -0.3221
 1819SOL     ow 7273   0.265   4.115   7.070 -0.0436 -0.0808  0.5522
 1819SOL     hw 7274   0.188   4.062   7.046 -0.0538  0.1434  0.0988
 1819SOL     hw 7275   0.323   4.109   6.995  0.5142 -0.4832  1.0114
 1819SOL     vw 7276   0.262   4.107   7.057  0.0287 -0.1044  0.5529
 1820SOL     ow 7277   6.305   6.098   2.698 -0.1502  0.3911 -0.0105
 1820SOL     hw 7278   6.398   6.083   2.682 -0.2804 -1.1676  0.5351
 1820SOL     hw 7279   6.302   6.139   2.785 -0.0398 -0.8609  0.5948
 1820SOL     vw 7280   6.317   6.102   2.708 -0.1528  0.0203  0.1414
 1821SOL     ow 7281   4.725   6.436   1.396  0.4175 -0.1266 -0.0061
 1821SOL     hw 7282   4.809   6.438   1.350 -0.6299 -1.8111 -2.1576
 1821SOL     hw 7283   4.676   6.366   1.354 -1.5639 -0.1695  2.1577
 1821SOL     vw 7284   4.730   6.427   1.384  0.0181 -0.3545 -0.0044
 1822SOL     ow 7285   5.449   1.720   5.938 -0.1319  0.1329  0.3950
 1822SOL     hw 7286   5.460   1.698   5.846 -0.4677 -0.5913  0.5236
 1822SOL     hw 7287   5.404   1.805   5.937  0.3134  0.3689 -0.0995
 1822SOL     vw 7288   5.444   1.729   5.926 -0.1173  0.0685  0.3467
 1823SOL     ow 7289   4.104   7.135   3.730  0.0829  0.4332  0.9663
 1823SOL     hw 7290   4.033   7.081   3.764  1.1883 -2.3116 -0.7373
 1823SOL     hw 7291   4.087   7.139   3.636 -0.0837  3.4226  1.0301
 1823SOL     vw 7292   4.092   7.128   3.722  0.2067  0.4652  0.7497
 1824SOL     ow 7293   6.071   6.226   0.032  0.6828  0.1616 -0.0808
 1824SOL     hw 7294   6.030   6.140   0.030  2.1817 -0.6545 -3.0446
 1824SOL     hw 7295   6.157   6.211   0.072  0.4527  0.5709  0.5778
 1824SOL     vw 7296   6.077   6.213   0.037  0.8504  0.1078 -0.3849
 1825SOL     ow 7297   5.000   2.025   0.229 -0.4195  0.5512 -0.1164
 1825SOL     hw 7298   4.911   1.994   0.242 -0.4414  0.4507 -0.5062
 1825SOL     hw 7299   5.055   1.960   0.273 -0.5430  0.6691  0.2124
 1825SOL     vw 7300   4.996   2.012   0.237 -0.4387  0.5536 -0.1244
 1826SOL     ow 7301   1.158   4.345   2.824  0.4289 -0.6593  0.3314
 1826SOL     hw 7302   1.203   4.383   2.749  0.8077  0.8305  1.2742
 1826SOL     hw 7303   1.186   4.397   2.899  0.0455 -2.0811  1.5314
 1826SOL     vw 7304   1.168   4.357   2.824  0.4284 -0.6504  0.6140
 1827SOL     ow 7305   5.067   3.486   4.347 -0.1138 -0.1305  0.0554
 1827SOL     hw 7306   5.101   3.446   4.428  1.9430  0.0317 -0.6609
 1827SOL     hw 7307   4.977   3.453   4.340  0.9155 -3.4237  0.3409
 1827SOL     vw 7308   5.060   3.476   4.357  0.2933 -0.5436 -0.0014
 1828SOL     ow 7309   5.082   6.451   3.041 -0.1078 -0.3874 -0.4443
 1828SOL     hw 7310   5.056   6.497   2.961 -1.5001  1.2541  0.8625
 1828SOL     hw 7311   5.089   6.359   3.014 -2.7567 -0.2650 -2.0074
 1828SOL     vw 7312   5.079   6.445   3.027 -0.6409 -0.1545 -0.4781
 1829SOL     ow 7313   4.834   1.038   4.005  0.0552 -0.5254 -0.8785
 1829SOL     hw 7314   4.884   1.012   3.928 -0.1294 -0.3777 -1.0473
 1829SOL     hw 7315   4.745   1.010   3.987  0.5643 -3.5501  0.6711
 1829SOL     vw 7316   4.829   1.031   3.992  0.0980 -0.9050 -0.6964
 1830SOL     ow 7317   5.873   0.952   2.725 -0.2900  0.2738 -0.2807
 1830SOL     hw 7318   5.925   1.026   2.755  0.7823 -1.2830  2.0955
 1830SOL     hw 7319   5.794   0.955   2.779 -0.7317  0.2864 -0.9239
 1830SOL     vw 7320   5.870   0.962   2.736 -0.2069  0.0701 -0.0521
 1831SOL     ow 7321   4.765   1.934   2.679  0.3259 -0.0444 -0.4067
 1831SOL     hw 7322   4.789   1.842   2.685  1.5776  0.3342  0.7234
 1831SOL     hw 7323   4.805   1.964   2.597 -0.3599 -0.5661 -0.9420
 1831SOL     vw 7324   4.773   1.926   2.669  0.4003 -0.0632 -0.3282
 1832SOL     ow 7325   0.310   6.010   3.594 -0.2802 -0.3048 -1.0590
 1832SOL     hw 7326   0.243   5.942   3.589  1.1022 -1.7018 -1.5711
 1832SOL     hw 7327   0.345   6.016   3.505 -0.3108  1.0359 -0.9998
 1832SOL     vw 7328   0.306   6.002   3.582 -0.1018 -0.3121 -1.1187
 1833SOL     ow 7329   4.389   3.923   5.757 -0.3958  0.2661 -0.7093
 1833SOL     hw 7330   4.405   3.888   5.669  0.0581 -0.5957 -0.3078
 1833SOL     hw 7331   4.428   4.010   5.755  2.6077 -0.9186 -0.4517
 1833SOL     vw 7332   4.396   3.930   5.745  0.0603 -0.0039 -0.6225
 1834SOL     ow 7333   2.571   4.861   0.169  0.0743 -0.2467 -0.3609
 1834SOL     hw 7334   2.605   4.920   0.102  0.5974 -0.9049 -0.6982
 1834SOL     hw 7335   2.603   4.897   0.252 -1.6501  1.3012 -0.3105
 1834SOL     vw 7336   2.580   4.873   0.171 -0.0842 -0.1295 -0.3987
 1835SOL     ow 7337   4.129   1.877   1.194  0.6144 -0.3018  0.0784
 1835SOL     hw 7338   4.124   1.972   1.205 -1.6816 -0.3907  0.4950
 1835SOL     hw 7339   4.205   1.850   1.246  1.5668  1.3187 -0.4123
 1835SOL     vw 7340   4.138   1.886   1.203  0.4375 -0.0998  0.0687
 1836SOL     ow 7341   0.928   2.439   0.894  0.3287  0.0033  0.1571
 1836SOL     hw 7342   0.967   2.448   0.807  0.5606  1.8020  0.3939
 1836SOL     hw 7343   0.995   2.473   0.954 -0.7344  1.1014  0.7780
 1836SOL     vw 7344   0.942   2.445   0.890  0.2190  0.3855  0.2703
 1837SOL     ow 7345   3.703   6.517   0.027  0.7630  0.4304 -0.3889
 1837SOL     hw 7346   3.683   6.530   0.119  1.2596 -0.0369 -0.2104
 1837SOL     hw 7347   3.655   6.587  -0.018  0.9975  1.0229  0.2673
 1837SOL     vw 7348   3.694   6.528   0.033  0.8596  0.4470 -0.2787
 1838SOL     ow 7349   6.005   5.126   1.255 -0.3586 -0.1697 -0.1035
 1838SOL     hw 7350   5.959   5.086   1.329 -1.4655  1.1553 -0.0357
 1838SOL     hw 7351   6.026   5.214   1.285 -0.4180  0.2371 -1.2228
 1838SOL     vw 7352   6.002   5.132   1.269 -0.5126  0.0589 -0.2422
 1839SOL     ow 7353   2.971   1.889   4.442 -0.1219  0.0846  0.0122
 1839SOL     hw 7354   3.019   1.905   4.360 -1.4223  0.3393 -0.7309
 1839SOL     hw 7355   2.938   1.800   4.433 -0.8733  0.3624 -0.0804
 1839SOL     vw 7356   2.973   1.880   4.430 -0.3926  0.1549 -0.0982
 1840SOL     ow 7357   4.519   0.259   4.736 -0.2532  0.3270  0.1268
 1840SOL     hw 7358   4.487   0.277   4.647 -0.3936  0.0295  0.1156
 1840SOL     hw 7359   4.439   0.247   4.788 -0.1790  0.9142  0.3817
 1840SOL     vw 7360   4.504   0.260   4.731 -0.2620  0.3652  0.1590
 1841SOL     ow 7361   3.195   5.777   5.359  0.5734  0.1988  0.3871
 1841SOL     hw 7362   3.181   5.691   5.399  3.6396 -0.5453  0.1791
 1841SOL     hw 7363   3.133   5.834   5.403 -1.2212 -2.0094  0.9030
 1841SOL     vw 7364   3.185   5.773   5.370  0.7411 -0.1905  0.4282
 1842SOL     ow 7365   3.598   5.747   4.967 -0.5270 -0.1098  0.2819
 1842SOL     hw 7366   3.612   5.664   4.922 -1.5796 -0.0915 -0.1035
 1842SOL     hw 7367   3.622   5.814   4.903  0.2239 -0.1069  0.5578
 1842SOL     vw 7368   3.603   5.745   4.953 -0.5668 -0.1070  0.2675
 1843SOL     ow 7369   3.191   2.347   6.395  0.3010  0.1251 -0.3712
 1843SOL     hw 7370   3.282   2.344   6.426  0.1911 -1.1662 -0.0956
 1843SOL     hw 7371   3.157   2.259   6.414 -1.3025  0.8739  0.3969
 1843SOL     vw 7372   3.199   2.335   6.402  0.0750  0.0535 -0.2337
 1844SOL     ow 7373   2.004   2.256   0.182 -0.2578  0.4438 -0.5832
 1844SOL     hw 7374   2.000   2.196   0.256 -1.1194 -0.1133 -1.0708
 1844SOL     hw 7375   2.013   2.200   0.105 -3.4892  0.7130 -1.2960
 1844SOL     vw 7376   2.005   2.241   0.181 -0.7979  0.4059 -0.7416
 1845SOL     ow 7377   1.883   3.127   6.247  0.2630  0.2304 -0.7371
 1845SOL     hw 7378   1.943   3.110   6.175 -1.2728 -0.8311 -1.8106
 1845SOL     hw 7379   1.856   3.218   6.234  3.4322  1.6459  1.2189
 1845SOL     vw 7380   1.887   3.137   6.236  0.4785  0.2772 -0.6206
 1846SOL     ow 7381   1.886   3.942   3.824 -0.1764 -0.0328  0.5052
 1846SOL     hw 7382   1.901   3.853   3.857  0.3327  0.0326  0.4573
 1846SOL     hw 7383   1.966   3.964   3.777 -0.0409  0.6965  1.0688
 1846SOL     vw 7384   1.899   3.933   3.822 -0.0914  0.0719  0.5733
 1847SOL     ow 7385   3.262   3.102   5.239  0.1130  0.0282  0.3802
 1847SOL     hw 7386   3.203   3.035   5.204  0.5548 -0.9646  1.4458
 1847SOL     hw 7387   3.218   3.185   5.220 -1.4666 -0.6554  0.8465
 1847SOL     vw 7388   3.248   3.104   5.232 -0.0371 -0.1929  0.5822
 1848SOL     ow 7389   5.663   4.124   5.216 -0.0776 -0.3668  0.7207
 1848SOL     hw 7390   5.701   4.199   5.262  1.1920 -1.2870  1.2444
 1848SOL     hw 7391   5.609   4.081   5.282  0.8619 -1.0617  1.0660
 1848SOL     vw 7392   5.661   4.128   5.231  0.2136 -0.5798  0.8357
 1849SOL     ow 7393   3.302   6.895   4.337  0.0101  0.5665 -0.4538
 1849SOL     hw 7394   3.239   6.844   4.388  1.4841 -1.1399 -0.1910
 1849SOL     hw 7395   3.276   6.881   4.246 -1.3428  1.8283 -0.2909
 1849SOL     vw 7396   3.291   6.886   4.332  0.0260  0.5076 -0.3977
 1850SOL     ow 7397   4.628   5.185   6.422 -0.0551  0.7404 -0.3809
 1850SOL     hw 7398   4.606   5.229   6.340  1.0355  1.5640 -0.2481
 1850SOL     hw 7399   4.623   5.253   6.489 -1.3742 -0.0166  0.3526
 1850SOL     vw 7400   4.624   5.200   6.420 -0.0854  0.7491 -0.2666
 1851SOL     ow 7401   5.203   6.386   4.458 -0.5495  0.5962 -0.2347
 1851SOL     hw 7402   5.165   6.418   4.376 -0.9231  0.5378 -0.0872
 1851SOL     hw 7403   5.142   6.318   4.487  0.1215 -0.1150 -0.4411
 1851SOL     vw 7404   5.190   6.381   4.451 -0.5105  0.4945 -0.2425
 1852SOL     ow 7405   4.005   6.867   0.575 -0.0332 -0.6253  0.0130
 1852SOL     hw 7406   3.983   6.839   0.664 -0.2118 -0.6857 -0.0493
 1852SOL     hw 7407   4.100   6.874   0.574  0.0876 -2.0252 -0.2028
 1852SOL     vw 7408   4.015   6.864   0.586 -0.0408 -0.8180 -0.0237
 1853SOL     ow 7409   4.442   5.554   6.878 -0.1895  0.2271 -0.2165
 1853SOL     hw 7410   4.520   5.587   6.922 -0.7698  0.4062  0.6971
 1853SOL     hw 7411   4.442   5.599   6.794 -1.2234  3.0167  1.1659
 1853SOL     vw 7412   4.453   5.564   6.873 -0.4027  0.6187  0.0865
 1854SOL     ow 7413   0.576   3.595   6.576  0.3749 -0.3390 -0.3163
 1854SOL     hw 7414   0.647   3.630   6.630 -0.5858  1.0056  0.1215
 1854SOL     hw 7415   0.573   3.652   6.499 -0.1369 -0.4522 -0.3884
 1854SOL     vw 7416   0.585   3.607   6.573  0.1806 -0.1767 -0.2680
 1855SOL     ow 7417   5.244   0.943   1.866  0.2540  0.3105 -0.2228
 1855SOL     hw 7418   5.295   0.898   1.933 -0.7197 -0.4497  0.0424
 1855SOL     hw 7419   5.197   0.872   1.821 -0.0140  0.9218 -0.9156
 1855SOL     vw 7420   5.244   0.928   1.869  0.0901  0.2908 -0.2793
 1856SOL     ow 7421   4.038   0.506   5.520 -0.3398 -0.0788  0.1795
 1856SOL     hw 7422   4.122   0.508   5.565 -0.1252 -1.2099 -0.1257
 1856SOL     hw 7423   4.040   0.582   5.461  0.0695  0.4389  0.8553
 1856SOL     vw 7424   4.049   0.516   5.518 -0.2573 -0.1597  0.2284
 1857SOL     ow 7425   2.480   0.805   4.152  0.4536  0.0639 -0.1962
 1857SOL     hw 7426   2.547   0.757   4.104 -0.7364 -0.5559 -1.2794
 1857SOL     hw 7427   2.429   0.850   4.085  0.8649  2.0222  0.7277
 1857SOL     vw 7428   2.482   0.805   4.137  0.3510  0.2405 -0.2170
 1858SOL     ow 7429   3.710   6.005   2.066  0.1206  0.0525  0.1316
 1858SOL     hw 7430   3.747   5.920   2.091  1.1364  0.8925  1.6607
 1858SOL     hw 7431   3.615   5.992   2.069  0.2497 -1.3891 -1.0443
 1858SOL     vw 7432   3.702   5.992   2.070  0.2717 -0.0269  0.1783
 1859SOL     ow 7433   0.852   4.650   6.927 -0.0277  0.3022  0.1224
 1859SOL     hw 7434   0.840   4.708   6.852  0.4214  1.5257  0.9650
 1859SOL     hw 7435   0.838   4.706   7.003  1.8348 -0.3336  1.0042
 1859SOL     vw 7436   0.848   4.665   6.927  0.2773  0.3796  0.3500
 1860SOL     ow 7437   6.429   5.306   4.124 -0.1659 -0.2547 -0.0592
 1860SOL     hw 7438   6.478   5.323   4.044 -0.4445 -0.2590 -0.2337
 1860SOL     hw 7439   6.351   5.259   4.094 -0.3776 -0.0629  0.1922
 1860SOL     vw 7440   6.425   5.302   4.109 -0.2306 -0.2298 -0.0491
 1861SOL     ow 7441   2.544   5.550   5.168  0.1565  0.0736  0.0307
 1861SOL     hw 7442   2.466   5.596   5.199  1.8151  0.9006  3.4392
 1861SOL     hw 7443   2.523   5.457   5.181 -0.9943  0.1395 -1.1471
 1861SOL     vw 7444   2.531   5.544   5.174  0.2235  0.1915  0.3250
 1862SOL     ow 7445   6.086   2.099   0.540 -0.5620  0.0766  0.3833
 1862SOL     hw 7446   6.166   2.046   0.544 -0.3477  0.4555  1.3425
 1862SOL     hw 7447   6.037   2.062   0.466  1.3325  1.0341 -1.4437
 1862SOL     vw 7448   6.090   2.087   0.531 -0.2835  0.2530  0.2688
 1863SOL     ow 7449   1.884   5.354   5.171  0.2942  0.6867  0.4595
 1863SOL     hw 7450   1.923   5.270   5.146 -0.5748  0.4297 -0.0869
 1863SOL     hw 7451   1.869   5.347   5.265 -2.7601 -1.1037 -0.0370
 1863SOL     vw 7452   1.887   5.342   5.180 -0.2234  0.4165  0.3221
 1864SOL     ow 7453   1.860   0.016   4.607 -0.1817 -0.6122 -0.3486
 1864SOL     hw 7454   1.826  -0.066   4.571  0.2035 -1.1487  0.4807
 1864SOL     hw 7455   1.923  -0.012   4.673 -0.2009  0.3631  0.0883
 1864SOL     vw 7456   1.864   0.001   4.611 -0.1335 -0.5543 -0.1814
 1865SOL     ow 7457   1.950   3.688   3.898  0.1648 -0.2640  0.6341
 1865SOL     hw 7458   1.983   3.725   3.980  0.8099 -0.0337  0.2757
 1865SOL     hw 7459   2.028   3.673   3.845 -0.3124  0.7337 -0.4142
 1865SOL     vw 7460   1.965   3.691   3.902  0.1870 -0.1018  0.4485
 1866SOL     ow 7461   1.546   2.378   5.465 -0.1238  0.5314 -0.3286
 1866SOL     hw 7462   1.507   2.320   5.530 -1.0354 -2.8174 -3.5055
 1866SOL     hw 7463   1.474   2.434   5.436 -0.5043 -0.0356 -0.4951
 1866SOL     vw 7464   1.531   2.378   5.470 -0.2942  0.0148 -0.7699
 1867SOL     ow 7465   4.289   1.757   5.967 -0.0351  0.2298  0.1363
 1867SOL     hw 7466   4.332   1.672   5.978 -0.8525 -0.3216 -0.7868
 1867SOL     hw 7467   4.198   1.742   5.993 -0.1594  0.8611  0.0944
 1867SOL     vw 7468   4.282   1.744   5.972 -0.1593  0.2403  0.0088
 1868SOL     ow 7469   5.472   4.454   0.436  0.0256  0.4258  0.0502
 1868SOL     hw 7470   5.557   4.494   0.453 -0.1415  1.6690 -1.7823
 1868SOL     hw 7471   5.475   4.428   0.344 -0.0054 -3.6513  1.0204
 1868SOL     vw 7472   5.483   4.456   0.426 -0.0005  0.0517 -0.0635
 1869SOL     ow 7473   0.322   3.990   3.913  0.1610 -0.2728  0.1765
 1869SOL     hw 7474   0.251   3.950   3.962 -0.2000  0.6487  0.4344
 1869SOL     hw 7475   0.396   3.991   3.974  0.1694 -0.5357  0.1710
 1869SOL     vw 7476   0.323   3.985   3.928  0.1145 -0.1858  0.2097
 1870SOL     ow 7477   0.683   0.776   3.531  0.2267 -0.6714 -0.4318
 1870SOL     hw 7478   0.757   0.790   3.472 -0.2004 -0.1040 -0.8379
 1870SOL     hw 7479   0.613   0.830   3.495 -0.2432 -0.8407  0.2166
 1870SOL     vw 7480   0.684   0.785   3.519  0.1084 -0.6189 -0.3997
 1871SOL     ow 7481   2.079   1.509   0.322  0.4287  0.3721  0.2603
 1871SOL     hw 7482   2.015   1.441   0.301  0.3595  1.0324 -1.9005
 1871SOL     hw 7483   2.115   1.483   0.407  0.2728 -2.2514 -0.3942
 1871SOL     vw 7484   2.075   1.497   0.330  0.3990  0.1131 -0.1112
 1872SOL     ow 7485   2.551   0.193   0.455 -0.2459 -0.4716 -0.5338
 1872SOL     hw 7486   2.585   0.283   0.457 -0.2058 -0.4881  1.3731
 1872SOL     hw 7487   2.474   0.196   0.513 -0.3990 -1.6034 -0.6609
 1872SOL     vw 7488   2.545   0.206   0.463 -0.2607 -0.6231 -0.2990
 1873SOL     ow 7489   6.536   4.425   6.411 -0.0291  0.6273  0.3036
 1873SOL     hw 7490   6.450   4.383   6.417  0.2509  0.2147  2.1819
 1873SOL     hw 7491   6.536   4.489   6.482  1.3425  0.3653  0.5697
 1873SOL     vw 7492   6.525   4.428   6.421  0.1888  0.5386  0.5865
 1874SOL     ow 7493   6.773   3.303   4.786  0.0994 -0.4524  0.0926
 1874SOL     hw 7494   6.736   3.380   4.830  0.8332 -0.2090  0.2973
 1874SOL     hw 7495   6.866   3.306   4.807  0.6684  0.1781 -2.1828
 1874SOL     vw 7496   6.780   3.313   4.795  0.2713 -0.3371 -0.1805
 1875SOL     ow 7497   5.913   6.366   4.826  0.2186 -0.0868 -0.5972
 1875SOL     hw 7498   5.942   6.318   4.904 -2.6798 -0.4361  0.3797
 1875SOL     hw 7499   5.929   6.305   4.753 -0.6036 -1.3601  0.2440
 1875SOL     vw 7500   5.919   6.351   4.827 -0.2723 -0.3009 -0.3574
 1876SOL     ow 7501   4.637   2.879   5.812 -0.2247 -0.0732 -0.3272
 1876SOL     hw 7502   4.682   2.951   5.768 -1.6859  0.9333 -0.2650
 1876SOL     hw 7503   4.561   2.861   5.757  1.0449 -2.8791 -1.3298
 1876SOL     vw 7504   4.633   2.886   5.799 -0.2501 -0.3108 -0.4513
 1877SOL     ow 7505   3.282   6.338   6.217  0.4631 -0.0234 -0.1042
 1877SOL     hw 7506   3.323   6.392   6.150  1.1029 -0.1413  0.1833
 1877SOL     hw 7507   3.226   6.398   6.266  0.5093  0.2013 -0.3279
 1877SOL     vw 7508   3.280   6.353   6.215  0.5536 -0.0091 -0.0958
 1878SOL     ow 7509   4.834   6.500   1.715 -0.2319 -0.1569 -0.8971
 1878SOL     hw 7510   4.856   6.593   1.717  0.4009 -0.2365  2.2197
 1878SOL     hw 7511   4.908   6.458   1.759 -1.6740 -1.7982  0.0748
 1878SOL     vw 7512   4.847   6.507   1.721 -0.3388 -0.3841 -0.3576
 1879SOL     ow 7513   1.739   0.167   5.762  0.1271 -0.5665 -0.1338
 1879SOL     hw 7514   1.715   0.077   5.784 -1.2845 -0.4203 -0.9215
 1879SOL     hw 7515   1.787   0.199   5.838  0.7940 -2.0325  0.0944
 1879SOL     vw 7516   1.742   0.159   5.775  0.0288 -0.7406 -0.2074
 1880SOL     ow 7517   2.022   0.281   2.697  0.9670 -0.4323 -0.3711
 1880SOL     hw 7518   2.047   0.368   2.667  1.4292 -0.6206 -0.5429
 1880SOL     hw 7519   2.060   0.221   2.633 -1.1015 -0.6978 -1.4515
 1880SOL     vw 7520   2.030   0.284   2.685  0.7551 -0.4922 -0.5363
 1881SOL     ow 7521   1.158   4.573   6.784  0.3066 -0.8354  0.6056
 1881SOL     hw 7522   1.205   4.517   6.722 -0.3444  0.1820 -0.8713
 1881SOL     hw 7523   1.201   4.658   6.777 -1.2079 -0.0774 -0.2488
 1881SOL     vw 7524   1.170   4.577   6.775  0.0209 -0.6013  0.2983
 1882SOL     ow 7525   1.890   3.437   4.004  0.1782  0.0385 -0.0235
 1882SOL     hw 7526   1.844   3.385   3.938  1.5015 -0.8150 -0.3242
 1882SOL     hw 7527   1.919   3.515   3.957 -1.0613  0.6601  0.2078
 1882SOL     vw 7528   1.888   3.440   3.989  0.1892  0.0079 -0.0328
 1883SOL     ow 7529   1.220   0.749   6.486 -0.1875 -0.3365 -0.1769
 1883SOL     hw 7530   1.288   0.812   6.510 -0.2128 -0.0955 -0.7099
 1883SOL     hw 7531   1.156   0.801   6.436  0.3592 -0.9939 -1.6210
 1883SOL     vw 7532   1.220   0.764   6.482 -0.1187 -0.3914 -0.4375
 1884SOL     ow 7533   4.598   5.060   6.690 -0.7554  0.5137 -0.0479
 1884SOL     hw 7534   4.565   4.975   6.720  2.0702 -1.2220 -1.3883
 1884SOL     hw 7535   4.604   5.113   6.769  1.6917 -2.1342  1.7307
 1884SOL     vw 7536   4.594   5.055   6.704 -0.0598 -0.0646  0.0103
 1885SOL     ow 7537   1.546   4.833   4.897 -0.4001  0.1388 -0.4223
 1885SOL     hw 7538   1.521   4.750   4.858  0.3231 -0.1766 -0.2389
 1885SOL     hw 7539   1.464   4.881   4.907 -0.9871 -1.0286  0.5959
 1885SOL     vw 7540   1.532   4.828   4.893 -0.3822 -0.0570 -0.2637
 1886SOL     ow 7541   2.042   2.015   2.362  0.2896 -0.3724 -0.1563
 1886SOL     hw 7542   2.130   2.046   2.340 -0.1844  1.5489  0.4354
 1886SOL     hw 7543   2.049   1.985   2.453  0.2030  0.3834  0.1040
 1886SOL     vw 7544   2.055   2.015   2.371  0.2156 -0.0192 -0.0440
 1887SOL     ow 7545   3.771   1.180   5.927 -0.3591 -0.2201 -0.0878
 1887SOL     hw 7546   3.769   1.157   6.020 -0.1534 -0.3354 -0.1102
 1887SOL     hw 7547   3.805   1.269   5.924 -0.6859 -0.0926 -0.0310
 1887SOL     vw 7548   3.775   1.189   5.939 -0.3749 -0.2185 -0.0832
 1888SOL     ow 7549   5.701   4.025   6.005  0.2841 -0.1940 -0.2400
 1888SOL     hw 7550   5.707   3.944   5.953 -0.0465 -0.8801  0.7721
 1888SOL     hw 7551   5.614   4.060   5.983  0.4283 -0.0982 -0.6806
 1888SOL     vw 7552   5.690   4.019   5.995  0.2594 -0.2718 -0.1645
 1889SOL     ow 7553   2.608   4.846   2.135  0.0707 -0.1110  0.1122
 1889SOL     hw 7554   2.553   4.872   2.208 -0.3075  3.0396 -1.1511
 1889SOL     hw 7555   2.546   4.811   2.070 -0.5216  2.7910 -1.0322
 1889SOL     vw 7556   2.592   4.845   2.136 -0.0573  0.6876 -0.2055
 1890SOL     ow 7557   2.351   4.963   6.572  0.4871 -0.1086 -0.1681
 1890SOL     hw 7558   2.378   5.026   6.639 -1.0191 -1.8088  2.2236
 1890SOL     hw 7559   2.255   4.964   6.575  0.2987  0.4620 -3.1085
 1890SOL     vw 7560   2.342   4.971   6.581  0.2637 -0.2577 -0.2406
 1891SOL     ow 7561   0.721   2.012   4.424  0.5030 -0.1810 -0.2404
 1891SOL     hw 7562   0.797   1.961   4.453  0.1767 -1.7620 -1.9793
 1891SOL     hw 7563   0.665   1.949   4.379 -2.7756  0.4938  2.4290
 1891SOL     vw 7564   0.724   1.997   4.422  0.0274 -0.3006 -0.1173
 1892SOL     ow 7565   1.005   2.197   2.441  0.1809  0.4758 -0.4214
 1892SOL     hw 7566   1.085   2.145   2.452 -1.0547 -0.9359  3.7018
 1892SOL     hw 7567   1.025   2.281   2.481  0.1033  0.7253 -0.9035
 1892SOL     vw 7568   1.018   2.201   2.448  0.0076  0.3223  0.0589
 1893SOL     ow 7569   4.088   1.744   6.750 -0.0375  0.2691 -0.4378
 1893SOL     hw 7570   4.093   1.713   6.840  0.6029 -3.7046 -1.6327
 1893SOL     hw 7571   4.173   1.782   6.733  0.5194 -0.6604  0.1617
 1893SOL     vw 7572   4.100   1.745   6.759  0.1206 -0.3778 -0.5164
 1894SOL     ow 7573   5.080   6.327   1.566  0.1862  0.3880 -0.4101
 1894SOL     hw 7574   5.033   6.245   1.578  1.7151 -0.6045 -0.9781
 1894SOL     hw 7575   5.042   6.365   1.486 -0.7490  0.4215  0.0357
 1894SOL     vw 7576   5.068   6.321   1.557  0.2644  0.2615 -0.4264
 1895SOL     ow 7577   1.111   6.380   2.505 -0.2381  0.4580 -0.5112
 1895SOL     hw 7578   1.069   6.453   2.551  0.7571  0.5969  0.2242
 1895SOL     hw 7579   1.200   6.379   2.539 -0.0739 -0.7649 -0.9189
 1895SOL     vw 7580   1.117   6.389   2.516 -0.0851  0.3147 -0.4680
 1896SOL     ow 7581   1.605   2.636   0.041 -0.4139  0.5565  0.6869
 1896SOL     hw 7582   1.653   2.719   0.050 -0.1114  0.5182 -0.3983
 1896SOL     hw 7583   1.534   2.656  -0.020 -1.6009  0.5159  1.9887
 1896SOL     vw 7584   1.602   2.650   0.034 -0.5306  0.5462  0.7155
 1897SOL     ow 7585   5.828   2.600   6.263 -0.2781  0.5168  0.6436
 1897SOL     hw 7586   5.921   2.623   6.273  0.5567 -1.2206 -1.9789
 1897SOL     hw 7587   5.824   2.508   6.289 -1.0578  0.3121 -0.1757
 1897SOL     vw 7588   5.840   2.591   6.268 -0.2706  0.2606  0.1895
 1898SOL     ow 7589   4.461   3.545   1.281 -0.2150  0.7911 -0.2908
 1898SOL     hw 7590   4.422   3.534   1.368  0.4366  0.3540 -0.0532
 1898SOL     hw 7591   4.392   3.517   1.221 -0.0645 -0.6230  0.1532
 1898SOL     vw 7592   4.446   3.540   1.285 -0.1092  0.5469 -0.2008
 1899SOL     ow 7593   0.714   2.264   4.405 -0.2915  0.1465  0.1686
 1899SOL     hw 7594   0.702   2.172   4.427  0.0475  0.0443 -0.0718
 1899SOL     hw 7595   0.803   2.270   4.372 -0.4124  0.5030 -0.1074
 1899SOL     vw 7596   0.724   2.253   4.403 -0.2627  0.1801  0.1006
 1900SOL     ow 7597   5.684   6.517   4.350  0.0376 -0.5775  0.0007
 1900SOL     hw 7598   5.771   6.541   4.318  0.3593  1.0347  1.9077
 1900SOL     hw 7599   5.698   6.436   4.399  0.6579  0.1379  1.0347
 1900SOL     vw 7600   5.697   6.510   4.352  0.1619 -0.2701  0.3884
 1901SOL     ow 7601   6.208   2.114   6.867  0.3877  0.2539  0.4216
 1901SOL     hw 7602   6.284   2.089   6.920  1.6561  1.1204 -0.9063
 1901SOL     hw 7603   6.242   2.121   6.778 -1.5016 -0.3250 -0.3888
 1901SOL     vw 7604   6.223   2.112   6.863  0.3059  0.2918  0.1395
 1902SOL     ow 7605   1.093   3.103   4.879 -0.1669 -0.6391 -0.0117
 1902SOL     hw 7606   1.067   3.059   4.797 -0.8561  0.9833 -0.7186
 1902SOL     hw 7607   1.086   3.035   4.946 -1.9119 -1.4565 -0.9355
 1902SOL     vw 7608   1.088   3.088   4.877 -0.4880 -0.5330 -0.2270
 1903SOL     ow 7609   0.428   2.011   2.869 -0.5639  0.0524  0.3741
 1903SOL     hw 7610   0.507   2.058   2.897 -0.6980 -0.2114  1.2367
 1903SOL     hw 7611   0.448   1.919   2.886 -0.5671 -0.1536 -0.6507
 1903SOL     vw 7612   0.441   2.005   2.875 -0.5821 -0.0097  0.3525
 1904SOL     ow 7613   0.144   4.350   1.483 -0.7549 -0.4543  0.4783
 1904SOL     hw 7614   0.223   4.337   1.535 -1.0557 -1.9933  0.5972
 1904SOL     hw 7615   0.161   4.430   1.433  0.6448 -0.4547  0.9123
 1904SOL     vw 7616   0.157   4.359   1.483 -0.6099 -0.6576  0.5512
 1905SOL     ow 7617   0.804   4.655   4.740 -0.5016 -0.5434 -0.3185
 1905SOL     hw 7618   0.881   4.664   4.796 -2.6391 -0.3648  2.8845
 1905SOL     hw 7619   0.817   4.573   4.693  0.7119 -1.6318  1.7806
 1905SOL     vw 7620   0.816   4.645   4.741 -0.6235 -0.6635  0.3808
 1906SOL     ow 7621   6.997   2.981   1.409 -0.2609  0.1466 -0.4049
 1906SOL     hw 7622   6.955   3.060   1.376  0.8228  2.2309  2.7577
 1906SOL     hw 7623   7.078   2.974   1.359  0.0238  1.5550 -0.1818
 1906SOL     vw 7624   7.002   2.990   1.399 -0.0801  0.6074  0.0418
 1907SOL     ow 7625   4.369   2.361   1.806 -0.1214 -0.5073  0.4228
 1907SOL     hw 7626   4.364   2.451   1.776  0.9085 -0.3567  0.6757
 1907SOL     hw 7627   4.314   2.359   1.884  1.7714  0.5410  1.8683
 1907SOL     vw 7628   4.361   2.372   1.812  0.2642 -0.3493  0.6469
 1908SOL     ow 7629   6.786   0.738   4.590 -0.5209  0.1110 -0.9635
 1908SOL     hw 7630   6.800   0.832   4.577  0.5997 -0.0456 -0.9983
 1908SOL     hw 7631   6.735   0.711   4.513 -1.5559  0.8302 -0.5470
 1908SOL     vw 7632   6.781   0.747   4.578 -0.5095  0.1852 -0.9131
 1909SOL     ow 7633   1.434   6.342   4.410  0.5542  0.0269  0.4303
 1909SOL     hw 7634   1.463   6.417   4.358 -0.8350 -0.5431 -1.2617
 1909SOL     hw 7635   1.364   6.302   4.358  0.6579 -1.9420  1.6854
 1909SOL     vw 7636   1.428   6.346   4.396  0.3846 -0.3083  0.3729
 1910SOL     ow 7637   1.394   5.433   5.941  0.0364  0.1189  0.3815
 1910SOL     hw 7638   1.400   5.465   5.851  1.3002  2.2817  1.1730
 1910SOL     hw 7639   1.336   5.495   5.985  1.2719  0.4602  1.5901
 1910SOL     vw 7640   1.387   5.445   5.935  0.3662  0.4494  0.6454
 1911SOL     ow 7641   0.057   0.474   1.909  0.0666 -0.1898 -0.1958
 1911SOL     hw 7642   0.047   0.442   1.819  0.9147 -1.4339  0.1337
 1911SOL     hw 7643   0.149   0.462   1.929  0.0206  0.7056  0.6344
 1911SOL     vw 7644   0.068   0.468   1.900  0.1724 -0.2358 -0.0427
 1912SOL     ow 7645   1.721   4.633   5.111  0.2131  0.1938 -0.5824
 1912SOL     hw 7646   1.781   4.579   5.060 -1.6447 -0.6755 -1.9821
 1912SOL     hw 7647   1.641   4.580   5.118 -0.7106  1.6349  0.4527
 1912SOL     vw 7648   1.718   4.619   5.105 -0.1539  0.2692 -0.6306
 1913SOL     ow 7649   4.437   6.693   4.534 -0.6893 -1.1897 -0.6827
 1913SOL     hw 7650   4.373   6.632   4.572  0.0922 -0.7453  1.5167
 1913SOL     hw 7651   4.391   6.733   4.460 -2.3972 -2.0250 -0.1217
 1913SOL     vw 7652   4.422   6.690   4.529 -0.8113 -1.2414 -0.3185
 1914SOL     ow 7653   1.063   1.602   2.667 -0.5812  0.3808  0.4550
 1914SOL     hw 7654   1.074   1.511   2.692 -1.4769  0.5042  1.3824
 1914SOL     hw 7655   1.075   1.651   2.748 -1.4149  0.9693  0.2425
 1914SOL     vw 7656   1.066   1.597   2.681 -0.8094  0.4746  0.5492
 1915SOL     ow 7657   6.566   5.869   5.308 -0.3507 -0.4356  0.3858
 1915SOL     hw 7658   6.578   5.845   5.216 -2.6946 -1.2140  0.2081
 1915SOL     hw 7659   6.580   5.963   5.311  1.1961 -0.5989 -0.4443
 1915SOL     vw 7660   6.570   5.878   5.296 -0.4559 -0.5596  0.2530
 1916SOL     ow 7661   5.675   5.663   3.503  0.0816  0.1803 -0.1055
 1916SOL     hw 7662   5.632   5.749   3.505 -1.2924 -0.4996  1.5460
 1916SOL     hw 7663   5.766   5.683   3.485 -0.6131  1.7875 -2.3768
 1916SOL     vw 7664   5.681   5.677   3.501 -0.1912  0.3030 -0.1873
 1917SOL     ow 7665   4.393   3.507   0.584 -0.0159  0.0092  0.4276
 1917SOL     hw 7666   4.338   3.468   0.516  2.0143 -1.7745 -0.2974
 1917SOL     hw 7667   4.338   3.504   0.663 -1.9748  0.9956 -0.8222
 1917SOL     vw 7668   4.379   3.501   0.585 -0.0067 -0.0961  0.1670
 1918SOL     ow 7669   3.586   2.545   3.122 -0.3102 -0.0266 -0.4423
 1918SOL     hw 7670   3.542   2.628   3.143  0.3241  0.2615 -0.2104
 1918SOL     hw 7671   3.530   2.504   3.057 -0.4351  0.7866 -0.8710
 1918SOL     vw 7672   3.573   2.551   3.116 -0.2428  0.1186 -0.4683
 1919SOL     ow 7673   2.647   0.071   2.789 -0.3024 -0.2405 -0.2280
 1919SOL     hw 7674   2.740   0.086   2.807 -0.1771 -0.8374 -0.3503
 1919SOL     hw 7675   2.601   0.114   2.861  0.1454 -1.5435  0.8855
 1919SOL     vw 7676   2.653   0.078   2.801 -0.2269 -0.4912 -0.0972
 1920SOL     ow 7677   0.732   5.177   3.421 -0.3054 -0.2259 -0.2343
 1920SOL     hw 7678   0.773   5.134   3.346  0.3940 -0.2885  0.1796
 1920SOL     hw 7679   0.685   5.106   3.465  0.0172 -0.3688 -0.1165
 1920SOL     vw 7680   0.731   5.162   3.417 -0.1705 -0.2527 -0.1642
 1921SOL     ow 7681   5.760   5.256   0.020  0.9865 -0.4588 -0.1594
 1921SOL     hw 7682   5.672   5.292   0.007  1.0167 -0.6172 -0.8318
 1921SOL     hw 7683   5.775   5.264   0.115  0.1571 -0.6406 -0.0036
 1921SOL     vw 7684   5.750   5.262   0.031  0.8810 -0.5033 -0.2275
 1922SOL     ow 7685   1.709   5.750   6.614  0.2766  0.6729  0.5980
 1922SOL     hw 7686   1.627   5.706   6.637  1.2951 -1.7597 -0.0926
 1922SOL     hw 7687   1.771   5.724   6.681  0.7979  1.5861  0.4981
 1922SOL     vw 7688   1.706   5.741   6.626  0.4798  0.4723  0.4940
 1923SOL     ow 7689   1.698   1.292   3.085  0.0409 -1.0742  0.1252
 1923SOL     hw 7690   1.661   1.206   3.104 -3.8650  0.7918  2.2102
 1923SOL     hw 7691   1.653   1.321   3.006 -0.6312 -0.0350  0.8515
 1923SOL     vw 7692   1.687   1.285   3.077 -0.5631 -0.6909  0.4960
 1924SOL     ow 7693   3.121   5.120   3.746 -0.2388 -0.1817 -0.0873
 1924SOL     hw 7694   3.140   5.048   3.686  2.1691 -0.3483  0.7662
 1924SOL     hw 7695   3.068   5.079   3.816  1.1435 -1.1744  0.4172
 1924SOL     vw 7696   3.116   5.105   3.748  0.2613 -0.3350  0.0919
 1925SOL     ow 7697   1.015   5.813   4.781 -0.9577 -0.0861 -0.2858
 1925SOL     hw 7698   1.104   5.804   4.815 -1.1083 -0.8833 -0.0849
 1925SOL     hw 7699   1.023   5.873   4.707 -0.1529 -0.6596 -0.6747
 1925SOL     vw 7700   1.028   5.820   4.776 -0.8714 -0.2666 -0.3104
 1926SOL     ow 7701   6.032   3.118   0.169 -0.4319 -0.9426  0.6567
 1926SOL     hw 7702   6.124   3.109   0.193 -0.0837  0.6137  0.0308
 1926SOL     hw 7703   5.998   3.186   0.227 -1.0979 -1.2393  0.6285
 1926SOL     vw 7704   6.040   3.126   0.179 -0.4737 -0.7764  0.5704
 1927SOL     ow 7705   3.951   0.975   2.321 -0.0301 -0.1154  0.0797
 1927SOL     hw 7706   3.868   1.022   2.316  0.9841  2.0437  1.7766
 1927SOL     hw 7707   3.945   0.923   2.400 -0.3792 -1.3354 -0.7221
 1927SOL     vw 7708   3.940   0.975   2.330  0.0578  0.0085  0.1976
 1928SOL     ow 7709   1.708   6.754   0.738 -0.0741 -0.0199 -0.0235
 1928SOL     hw 7710   1.713   6.675   0.792  2.7963 -0.8342 -1.2959
 1928SOL     hw 7711   1.795   6.792   0.742 -0.1874  0.7615 -2.7536
 1928SOL     vw 7712   1.720   6.748   0.746  0.2896 -0.0243 -0.5516
 1929SOL     ow 7713   4.611   5.062   5.757  0.2121  0.3256  0.0105
 1929SOL     hw 7714   4.665   5.011   5.818 -0.8072 -0.3462  0.3866
 1929SOL     hw 7715   4.567   5.126   5.813 -1.9064 -1.2706  0.3060
 1929SOL     vw 7716   4.612   5.064   5.773 -0.2017  0.0265  0.0992
 1930SOL     ow 7717   4.990   3.834   4.269 -0.1520 -0.1978 -0.5102
 1930SOL     hw 7718   5.027   3.901   4.212  1.7851 -0.2679  0.5749
 1930SOL     hw 7719   5.064   3.777   4.290 -0.7837 -0.2448  1.9490
 1930SOL     vw 7720   5.004   3.835   4.264  0.0205 -0.2133 -0.0424
 1931SOL     ow 7721   2.565   2.881   2.311 -0.2754  0.0943 -0.1187
 1931SOL     hw 7722   2.515   2.908   2.388 -0.7832  1.5825 -0.9189
 1931SOL     hw 7723   2.506   2.821   2.265  0.3945 -1.5581  1.0719
 1931SOL     vw 7724   2.550   2.876   2.315 -0.2540  0.0725 -0.0672
 1932SOL     ow 7725   4.772   0.243   4.823  0.0599 -0.2260  0.1657
 1932SOL     hw 7726   4.748   0.279   4.909 -0.0677  2.3202 -0.8270
 1932SOL     hw 7727   4.688   0.236   4.777  0.3979  3.0025 -1.2690
 1932SOL     vw 7728   4.757   0.247   4.828  0.0880  0.5359 -0.1545
 1933SOL     ow 7729   2.205   0.099   6.834 -0.4601  0.1509  0.2487
 1933SOL     hw 7730   2.253   0.166   6.883 -1.3953  0.6851  0.4528
 1933SOL     hw 7731   2.113   0.123   6.844 -0.6957  0.1748 -1.6350
 1933SOL     vw 7732   2.199   0.111   6.842 -0.6145  0.2245  0.0272
 1934SOL     ow 7733   0.061   0.958   1.686  0.3525 -0.2801  0.0302
 1934SOL     hw 7734   0.024   1.038   1.723 -0.3692  0.5602 -2.3285
 1934SOL     hw 7735  -0.012   0.915   1.643  0.9324 -1.7599  0.4552
 1934SOL     vw 7736   0.047   0.963   1.685  0.3338 -0.3645 -0.2249
 1935SOL     ow 7737   1.454   6.413   3.274  0.0415  0.1665  0.2123
 1935SOL     hw 7738   1.519   6.444   3.211 -1.0518  1.6645 -0.2217
 1935SOL     hw 7739   1.471   6.465   3.353  0.1120 -0.2798  0.4952
 1935SOL     vw 7740   1.465   6.424   3.276 -0.0935  0.3052  0.1922
 1936SOL     ow 7741   4.073   1.724   5.712 -0.0013  0.3062 -0.4701
 1936SOL     hw 7742   4.000   1.700   5.655 -0.1768  0.6553 -0.3985
 1936SOL     hw 7743   4.055   1.678   5.794 -0.0474  0.2497 -0.5115
 1936SOL     vw 7744   4.061   1.715   5.716 -0.0303  0.3448 -0.4659
 1937SOL     ow 7745   1.523   0.283   4.000  0.2978 -0.1245  0.2075
 1937SOL     hw 7746   1.492   0.371   4.020  0.4455 -0.2721  1.1472
 1937SOL     hw 7747   1.444   0.233   3.981  0.3667  0.8858 -3.4256
 1937SOL     vw 7748   1.509   0.288   4.000  0.3265 -0.0106 -0.1478
 1938SOL     ow 7749   0.896   1.055   1.444 -0.2643  0.0650 -0.4799
 1938SOL     hw 7750   0.936   1.079   1.360 -1.8937  0.7287 -1.1100
 1938SOL     hw 7751   0.877   0.962   1.435 -1.5369  0.3843 -1.3690
 1938SOL     vw 7752   0.899   1.046   1.432 -0.6472  0.1947 -0.6803
 1939SOL     ow 7753   1.107   6.916   1.082  0.1247  0.3914  0.4627
 1939SOL     hw 7754   1.117   7.011   1.089  1.2857  0.3270 -0.1638
 1939SOL     hw 7755   1.188   6.881   1.118  0.1501 -0.3293 -0.2873
 1939SOL     vw 7756   1.119   6.924   1.088  0.2813  0.2878  0.2810
 1940SOL     ow 7757   5.484   3.503   4.334  0.1086 -0.0330  0.4878
 1940SOL     hw 7758   5.460   3.411   4.345  1.1551 -0.0697  3.6852
 1940SOL     hw 7759   5.570   3.510   4.375  0.0808  2.3724  0.2755
 1940SOL     vw 7760   5.492   3.492   4.341  0.2429  0.2797  0.8819
 1941SOL     ow 7761   0.066   6.712   2.645  0.4358  0.2285  0.0614
 1941SOL     hw 7762   0.099   6.649   2.709 -0.9223 -1.6222 -0.9451
 1941SOL     hw 7763   0.121   6.699   2.568 -1.7609 -2.1395 -1.2618
 1941SOL     vw 7764   0.077   6.702   2.644 -0.0333 -0.3281 -0.2459
 1942SOL     ow 7765   2.124   2.525   1.294  0.3211 -0.5557  0.0383
 1942SOL     hw 7766   2.169   2.479   1.366 -0.6304 -2.1066 -0.3040
 1942SOL     hw 7767   2.086   2.603   1.335  0.7886 -0.7970  0.9605
 1942SOL     vw 7768   2.125   2.529   1.309  0.2571 -0.7923  0.1147
 1943SOL     ow 7769   6.613   2.484   0.882 -0.1250  0.4689 -0.0293
 1943SOL     hw 7770   6.646   2.395   0.875 -0.2035  0.4555 -0.2532
 1943SOL     hw 7771   6.527   2.475   0.923 -0.4347  0.3747 -0.6949
 1943SOL     vw 7772   6.606   2.471   0.887 -0.1762  0.4547 -0.1467
 1944SOL     ow 7773   4.335   4.540   1.350 -0.4678  0.1771 -0.2818
 1944SOL     hw 7774   4.240   4.539   1.360 -0.5638  1.6385 -0.7827
 1944SOL     hw 7775   4.350   4.538   1.256  0.1028 -2.3481 -0.2025
 1944SOL     vw 7776   4.325   4.540   1.339 -0.4053  0.0365 -0.3374
 1945SOL     ow 7777   0.855   5.337   2.022 -0.0570 -0.6829  0.2230
 1945SOL     hw 7778   0.794   5.327   1.949 -0.7829  0.8231  0.5845
 1945SOL     hw 7779   0.805   5.384   2.089  0.6217 -1.9546  1.6671
 1945SOL     vw 7780   0.840   5.342   2.021 -0.0632 -0.6521  0.4612
 1946SOL     ow 7781   5.887   3.001   3.282  0.0865  0.7264 -0.5851
 1946SOL     hw 7782   5.915   2.923   3.234 -2.3845  0.8376 -2.3853
 1946SOL     hw 7783   5.818   2.968   3.341  1.3381  1.0422  1.1403
 1946SOL     vw 7784   5.882   2.986   3.284 -0.0746  0.7827 -0.5951
 1947SOL     ow 7785   5.761   4.131   2.831  0.1071  0.0903 -0.1509
 1947SOL     hw 7786   5.748   4.180   2.750 -1.9186  0.2280  0.2128
 1947SOL     hw 7787   5.799   4.194   2.892 -1.1088  0.8140 -0.1254
 1947SOL     vw 7788   5.765   4.146   2.828 -0.3207  0.2041 -0.0995
 1948SOL     ow 7789   4.386   6.761   1.428 -0.0255  0.1421 -0.0510
 1948SOL     hw 7790   4.377   6.689   1.366 -0.0218 -1.8312  2.0951
 1948SOL     hw 7791   4.303   6.763   1.475  0.8090 -0.0784  1.5188
 1948SOL     vw 7792   4.374   6.752   1.426  0.0849 -0.1473  0.4393
 1949SOL     ow 7793   0.006   5.296   1.134  0.0377  0.5734 -0.0115
 1949SOL     hw 7794   0.100   5.301   1.147  0.0038  0.9362  0.0955
 1949SOL     hw 7795  -0.017   5.375   1.086 -0.1745  0.3567 -0.2733
 1949SOL     vw 7796   0.015   5.307   1.130  0.0053  0.5927 -0.0319
 1950SOL     ow 7797   2.713   5.589   4.897  0.4226 -0.8691  0.1242
 1950SOL     hw 7798   2.800   5.556   4.875  0.5052  0.4165 -1.6886
 1950SOL     hw 7799   2.656   5.551   4.831 -0.2710 -0.9954  0.7802
 1950SOL     vw 7800   2.717   5.579   4.886  0.3421 -0.7160 -0.0286
 1951SOL     ow 7801   3.409   0.508   2.264  0.1548 -0.3912 -0.3570
 1951SOL     hw 7802   3.316   0.488   2.279  0.0033  0.2539 -0.4106
 1951SOL     hw 7803   3.455   0.431   2.297 -0.2834  0.0672  1.4524
 1951SOL     vw 7804   3.403   0.495   2.270  0.0771 -0.2456 -0.1253
 1952SOL     ow 7805   6.591   4.050   6.740  0.2166 -0.0278  0.3496
 1952SOL     hw 7806   6.616   3.976   6.796 -1.0118  0.3598  1.4543
 1952SOL     hw 7807   6.581   4.124   6.800  1.3326  1.0508 -0.7222
 1952SOL     vw 7808   6.593   4.050   6.755  0.2022  0.1655  0.3538
 1953SOL     ow 7809   3.909   2.019   5.623  0.2763 -0.0672  0.3394
 1953SOL     hw 7810   3.857   1.979   5.693 -2.0584 -0.3230 -1.4176
 1953SOL     hw 7811   3.959   1.947   5.586  1.8440  0.1414  1.9088
 1953SOL     vw 7812   3.909   2.004   5.628  0.1750 -0.0734  0.3145
 1954SOL     ow 7813   4.887   2.557   0.238 -0.1541  0.2993 -0.4202
 1954SOL     hw 7814   4.842   2.566   0.322 -1.7055  0.2024 -1.2017
 1954SOL     hw 7815   4.914   2.647   0.216 -0.5685  0.4731 -0.2408
 1954SOL     vw 7816   4.884   2.570   0.246 -0.4134  0.3093 -0.4996
 1955SOL     ow 7817   4.989   7.107   0.648  0.0669  0.1671  0.0356
 1955SOL     hw 7818   4.960   7.192   0.682 -1.1782 -0.2009 -0.0578
 1955SOL     hw 7819   4.935   7.043   0.694  0.6919 -0.5578 -0.2158
 1955SOL     vw 7820   4.978   7.110   0.659 -0.0148  0.0231 -0.0099
 1956SOL     ow 7821   3.603   2.595   6.313 -0.0780  0.4812  0.4867
 1956SOL     hw 7822   3.639   2.604   6.225  1.9637  1.0513  1.3419
 1956SOL     hw 7823   3.631   2.509   6.343  0.0288  0.6671  0.9330
 1956SOL     vw 7824   3.611   2.585   6.305  0.2054  0.5810  0.6583
 1957SOL     ow 7825   3.792   5.852   5.194  0.0267  0.0098  0.7283
 1957SOL     hw 7826   3.749   5.810   5.120 -0.3413  0.7914  0.4915
 1957SOL     hw 7827   3.827   5.779   5.246  0.3611 -0.5358 -0.2490
 1957SOL     vw 7828   3.790   5.837   5.191  0.0223  0.0410  0.5682
 1958SOL     ow 7829   4.619   6.215   2.500  0.4525  0.2020  0.7994
 1958SOL     hw 7830   4.638   6.123   2.480 -1.5307  0.2955 -2.2079
 1958SOL     hw 7831   4.530   6.228   2.469  0.8561  3.2668  0.6603
 1958SOL     vw 7832   4.610   6.204   2.493  0.2441  0.6189  0.3843
 1959SOL     ow 7833   2.421   5.900   0.781 -0.0110 -0.1757  0.4472
 1959SOL     hw 7834   2.389   5.831   0.724 -2.0125  2.2580 -1.5815
 1959SOL     hw 7835   2.470   5.959   0.723  2.1060 -0.0507  2.2040
 1959SOL     vw 7836   2.423   5.899   0.766  0.0043  0.1619  0.4113
 1960SOL     ow 7837   1.195   5.205   3.532  0.5219  0.0959  0.2542
 1960SOL     hw 7838   1.211   5.111   3.537  0.9248  0.1838  0.6510
 1960SOL     hw 7839   1.236   5.232   3.450  0.0114 -0.1474 -0.0883
 1960SOL     vw 7840   1.203   5.196   3.522  0.5077  0.0753  0.2614
 1961SOL     ow 7841   4.519   4.891   3.894  0.3636 -0.5162  0.4150
 1961SOL     hw 7842   4.445   4.952   3.886  0.5326 -0.4040 -0.3631
 1961SOL     hw 7843   4.506   4.830   3.821  3.3689  2.0223 -2.6026
 1961SOL     vw 7844   4.507   4.891   3.883  0.7820 -0.1667 -0.0857
 1962SOL     ow 7845   4.083   2.202   2.630 -0.7214  0.7018 -0.0077
 1962SOL     hw 7846   4.086   2.106   2.621  1.2242  0.1926  3.8718
 1962SOL     hw 7847   4.148   2.233   2.567 -1.5206 -0.4415 -1.4791
 1962SOL     vw 7848   4.092   2.193   2.621 -0.5701  0.4840  0.3101
 1963SOL     ow 7849   3.929   0.302   5.724  0.2833  0.5445 -0.2839
 1963SOL     hw 7850   3.873   0.329   5.797  1.7470  2.8926  0.0434
 1963SOL     hw 7851   3.967   0.219   5.753 -0.3979  0.6227  0.9030
 1963SOL     vw 7852   3.926   0.294   5.737  0.3865  0.8646 -0.0842
 1964SOL     ow 7853   3.004   4.137   6.375  0.1438  0.4090 -0.3955
 1964SOL     hw 7854   2.930   4.114   6.431  1.8256 -2.5886  0.8555
 1964SOL     hw 7855   2.991   4.085   6.295 -0.0521  1.3399 -0.9786
 1964SOL     vw 7856   2.993   4.127   6.372  0.3399  0.1361 -0.3076
 1965SOL     ow 7857   2.911   6.809   5.542 -0.2010  0.0102 -0.4937
 1965SOL     hw 7858   2.947   6.796   5.629 -0.6927  2.3523  0.1076
 1965SOL     hw 7859   2.884   6.721   5.514 -0.3329 -0.7423  1.8351
 1965SOL     vw 7860   2.912   6.795   5.549 -0.2831  0.2201 -0.1068
 1966SOL     ow 7861   4.708   2.312   0.210  0.2528  0.7940 -0.0638
 1966SOL     hw 7862   4.701   2.325   0.305 -0.6007  0.4102 -0.0678
 1966SOL     hw 7863   4.631   2.260   0.187 -0.1032  1.7351 -1.1216
 1966SOL     vw 7864   4.697   2.307   0.219  0.0932  0.8676 -0.2039
 1967SOL     ow 7865   0.319   3.444   6.717  0.1452  0.3066 -0.3877
 1967SOL     hw 7866   0.255   3.446   6.646 -0.0789  0.6785 -0.1737
 1967SOL     hw 7867   0.294   3.516   6.775  0.5273  0.2154 -0.1042
 1967SOL     vw 7868   0.307   3.454   6.715  0.1660  0.3436 -0.3221
 1968SOL     ow 7869   6.892   1.221   6.300  0.0275 -0.4282  0.5327
 1968SOL     hw 7870   6.860   1.160   6.234 -0.0618 -1.4336  1.4866
 1968SOL     hw 7871   6.907   1.168   6.378  0.0361  0.7435  1.3655
 1968SOL     vw 7872   6.890   1.206   6.302  0.0167 -0.4063  0.7684
 1969SOL     ow 7873   1.262   0.564   4.616 -0.6541  0.2741  0.3711
 1969SOL     hw 7874   1.326   0.498   4.642  2.3819  1.6245 -2.8657
 1969SOL     hw 7875   1.186   0.513   4.587 -0.3231 -1.4914  2.3219
 1969SOL     vw 7876   1.260   0.548   4.616 -0.2099  0.2194  0.2015
 1970SOL     ow 7877   2.541   0.835   4.456  0.5633  0.4507 -0.3684
 1970SOL     hw 7878   2.450   0.825   4.484  0.3017 -0.2042 -1.3871
 1970SOL     hw 7879   2.587   0.865   4.535 -0.6365  1.4478 -0.0086
 1970SOL     vw 7880   2.535   0.837   4.470  0.3704  0.4958 -0.4554
 1971SOL     ow 7881   0.606   2.187   2.981  0.0166  0.0832 -0.1063
 1971SOL     hw 7882   0.590   2.253   3.049  0.8580  0.7975 -0.5717
 1971SOL     hw 7883   0.616   2.239   2.900 -0.8975 -0.7398 -0.7700
 1971SOL     vw 7884   0.605   2.203   2.979  0.0070  0.0688 -0.2552
 1972SOL     ow 7885   0.341   5.827   2.574  0.4860  0.3454  0.0652
 1972SOL     hw 7886   0.365   5.846   2.664  0.8577 -0.3112  0.1126
 1972SOL     hw 7887   0.353   5.732   2.565 -0.0317  0.3248 -0.5274
 1972SOL     vw 7888   0.346   5.817   2.585  0.4667  0.2561 -0.0067
 1973SOL     ow 7889   1.861   4.747   4.203  0.0373 -0.1455  0.4640
 1973SOL     hw 7890   1.815   4.760   4.286  0.7780 -1.0712  1.0395
 1973SOL     hw 7891   1.804   4.689   4.153 -0.0894 -0.1432  0.6051
 1973SOL     vw 7892   1.848   4.741   4.207  0.1183 -0.2675  0.5581
 1974SOL     ow 7893   3.229   0.468   1.128  0.5545  0.0751 -0.4031
 1974SOL     hw 7894   3.292   0.492   1.060 -0.0100 -0.5465 -1.1625
 1974SOL     hw 7895   3.186   0.390   1.095  2.0058 -1.7957  1.7755
 1974SOL     vw 7896   3.232   0.461   1.115  0.6716 -0.2537 -0.2159
 1975SOL     ow 7897   3.875   6.110   1.840 -0.3031  0.0433  0.1260
 1975SOL     hw 7898   3.966   6.101   1.868  0.0197  1.6024 -0.3275
 1975SOL     hw 7899   3.862   6.038   1.778 -0.1294 -1.6094  1.9245
 1975SOL     vw 7900   3.885   6.099   1.835 -0.2377  0.0312  0.3034
 1976SOL     ow 7901   0.444   5.526   5.587  0.3636 -0.0113  0.4698
 1976SOL     hw 7902   0.434   5.490   5.498 -0.2546  1.0360  0.0979
 1976SOL     hw 7903   0.380   5.478   5.639  0.2536 -0.1684  0.1939
 1976SOL     vw 7904   0.434   5.515   5.582  0.2675  0.1061  0.3843
 1977SOL     ow 7905   6.667   1.851   5.618  0.0942  0.0455 -0.0263
 1977SOL     hw 7906   6.710   1.925   5.662  0.1813  0.2050 -0.3705
 1977SOL     hw 7907   6.684   1.866   5.525 -2.5984  1.3418 -0.4046
 1977SOL     vw 7908   6.675   1.863   5.611 -0.2494  0.2377 -0.1216
 1978SOL     ow 7909   7.112   3.552   0.840 -0.0667  0.1246  0.3786
 1978SOL     hw 7910   7.064   3.502   0.907  2.6899 -2.8261  0.4153
 1978SOL     hw 7911   7.071   3.526   0.758 -0.4197 -0.0027  0.5894
 1978SOL     vw 7912   7.100   3.542   0.838  0.2503 -0.2816  0.4112
 1979SOL     ow 7913   0.907   2.890   3.553 -0.2013 -0.3271  0.2483
 1979SOL     hw 7914   0.964   2.849   3.619 -0.3896 -2.6619 -0.9304
 1979SOL     hw 7915   0.822   2.849   3.566 -1.6240  2.7447  1.6435
 1979SOL     vw 7916   0.904   2.879   3.563 -0.4138 -0.2298  0.2769
 1980SOL     ow 7917   6.754   0.268   1.327  0.2047  0.3348  0.5958
 1980SOL     hw 7918   6.706   0.189   1.300 -0.8134  0.8240  0.8973
 1980SOL     hw 7919   6.831   0.235   1.373 -0.0294 -0.4816  0.4220
 1980SOL     vw 7920   6.758   0.253   1.329  0.0393  0.2916  0.6126
 1981SOL     ow 7921   3.772   0.426   5.484 -0.2341  0.6077  0.1186
 1981SOL     hw 7922   3.744   0.468   5.402 -0.6376  1.3115  0.6086
 1981SOL     hw 7923   3.692   0.415   5.535  0.0328  0.2883  0.4749
 1981SOL     vw 7924   3.758   0.430   5.480 -0.2521  0.6584  0.2303
 1982SOL     ow 7925   0.802   2.721   1.183 -0.8451 -0.3729  0.5152
 1982SOL     hw 7926   0.736   2.788   1.202 -0.1441  0.1910  1.0407
 1982SOL     hw 7927   0.885   2.769   1.181 -0.3230 -1.2265  0.9364
 1982SOL     vw 7928   0.804   2.736   1.185 -0.6837 -0.4110  0.6401
 1983SOL     ow 7929   2.460   5.867   3.319  0.4551 -0.8780  0.5186
 1983SOL     hw 7930   2.485   5.939   3.261  1.1720 -1.0496  0.6083
 1983SOL     hw 7931   2.433   5.797   3.260 -1.9411  0.0272  0.4398
 1983SOL     vw 7932   2.460   5.867   3.303  0.2335 -0.7813  0.5200
 1984SOL     ow 7933   1.995   2.747   1.382  0.2278  0.2408 -0.1771
 1984SOL     hw 7934   1.973   2.700   1.463 -1.3595 -0.2075 -0.8207
 1984SOL     hw 7935   2.018   2.835   1.410  0.4230 -0.1168  0.8171
 1984SOL     vw 7936   1.995   2.752   1.396  0.0441  0.1345 -0.1308
 1985SOL     ow 7937   6.276   1.369   2.293 -0.9689 -0.4449  0.7393
 1985SOL     hw 7938   6.357   1.414   2.316  0.6634 -1.8034 -1.8837
 1985SOL     hw 7939   6.290   1.279   2.325 -1.4432 -0.6852  0.2794
 1985SOL     vw 7940   6.288   1.363   2.300 -0.8161 -0.6558  0.3325
 1986SOL     ow 7941   5.132   4.942   3.283  0.8347 -0.5790  0.1343
 1986SOL     hw 7942   5.187   4.865   3.296  1.1458 -0.4132 -0.1878
 1986SOL     hw 7943   5.110   4.971   3.371  0.1761 -1.4185  0.2560
 1986SOL     vw 7944   5.136   4.936   3.296  0.7885 -0.6678  0.1078
 1987SOL     ow 7945   5.944   2.864   1.098 -1.0612  0.0020  0.2591
 1987SOL     hw 7946   6.035   2.869   1.069 -1.7713 -2.8920 -3.0976
 1987SOL     hw 7947   5.937   2.780   1.143 -2.2158 -0.1648 -0.1928
 1987SOL     vw 7948   5.955   2.854   1.100 -1.3070 -0.4019 -0.2434
 1988SOL     ow 7949   2.236   5.828   7.067  0.0831  0.0534 -0.6651
 1988SOL     hw 7950   2.306   5.893   7.071 -0.0826  0.2206 -0.5061
 1988SOL     hw 7951   2.226   5.796   7.156  0.1529 -0.1795 -0.7402
 1988SOL     vw 7952   2.244   5.832   7.079  0.0702  0.0446 -0.6540
 1989SOL     ow 7953   0.717   1.199   6.761  0.4746 -0.1724  0.1154
 1989SOL     hw 7954   0.767   1.224   6.838 -0.3084  0.6615  0.3643
 1989SOL     hw 7955   0.780   1.153   6.705  1.3791  0.4154  0.6427
 1989SOL     vw 7956   0.732   1.196   6.764  0.4906  0.0152  0.2174
 1990SOL     ow 7957   2.323   1.711   7.102 -0.0733 -0.0815 -0.2195
 1990SOL     hw 7958   2.374   1.780   7.060 -3.3601  1.8145 -1.5609
 1990SOL     hw 7959   2.343   1.632   7.052  1.8396  0.4331 -0.3328
 1990SOL     vw 7960   2.332   1.710   7.090 -0.2544  0.2366 -0.4115
 1991SOL     ow 7961   6.757   4.671   2.564  0.2559  0.6307 -0.3934
 1991SOL     hw 7962   6.723   4.752   2.603 -0.6515 -0.4155  1.0577
 1991SOL     hw 7963   6.681   4.630   2.523  0.2228 -0.5543  0.7954
 1991SOL     vw 7964   6.743   4.676   2.564  0.1318  0.3362 -0.0451
 1992SOL     ow 7965   0.210   1.857   2.108  0.1084  0.2981  0.1923
 1992SOL     hw 7966   0.234   1.926   2.045 -0.9424 -0.0004 -0.5655
 1992SOL     hw 7967   0.120   1.835   2.086 -0.6702  0.8971  2.5058
 1992SOL     vw 7968   0.202   1.863   2.096 -0.1329  0.3377  0.3976
 1993SOL     ow 7969   1.922   0.206   3.653 -0.5084  0.0447 -0.1837
 1993SOL     hw 7970   1.868   0.129   3.666 -1.7024  0.9035  0.1186
 1993SOL     hw 7971   1.923   0.219   3.558 -0.3119 -0.3301 -0.2344
 1993SOL     vw 7972   1.915   0.198   3.642 -0.6400  0.1086 -0.1506
 1994SOL     ow 7973   0.570   3.475   4.359  0.1677  0.6648 -0.5518
 1994SOL     hw 7974   0.562   3.562   4.398 -1.0562  0.2300  0.2558
 1994SOL     hw 7975   0.490   3.430   4.388  0.5337 -0.5457 -1.3931
 1994SOL     vw 7976   0.558   3.481   4.368  0.0546  0.4476 -0.5560
 1995SOL     ow 7977   1.980   6.131   4.419 -0.3198  0.1601 -0.2524
 1995SOL     hw 7978   1.971   6.128   4.324  0.5965 -1.2037 -0.3278
 1995SOL     hw 7979   1.940   6.050   4.450 -1.9781  1.2891  0.6890
 1995SOL     vw 7980   1.974   6.120   4.410 -0.4177  0.1292 -0.1380
 1996SOL     ow 7981   6.455   5.312   4.429 -0.5978 -0.0429 -0.5989
 1996SOL     hw 7982   6.461   5.304   4.524 -2.0417  0.0792 -0.4669
 1996SOL     hw 7983   6.441   5.223   4.398 -0.7750 -0.0093 -0.6216
 1996SOL     vw 7984   6.454   5.299   4.438 -0.8118 -0.0226 -0.5844
 1997SOL     ow 7985   1.604   4.691   5.996  0.2424 -0.0333 -0.0636
 1997SOL     hw 7986   1.596   4.741   5.915 -1.0498  0.9141  0.6196
 1997SOL     hw 7987   1.692   4.653   5.992  0.2321  0.0501 -1.8597
 1997SOL     vw 7988   1.615   4.693   5.984  0.0706  0.1025 -0.2105
 1998SOL     ow 7989   1.340   3.084   3.672 -0.4290 -0.2449 -0.1132
 1998SOL     hw 7990   1.326   3.065   3.579  0.3439  0.2655 -0.3376
 1998SOL     hw 7991   1.343   3.179   3.676  1.9278 -0.2707  0.0563
 1998SOL     vw 7992   1.338   3.094   3.660 -0.0161 -0.1811 -0.1206
 1999SOL     ow 7993   0.492   1.400   6.833 -0.1897 -0.0965 -0.9156
 1999SOL     hw 7994   0.505   1.493   6.848  0.3086 -0.0736 -1.4381
 1999SOL     hw 7995   0.501   1.360   6.919 -0.7574  0.3709 -0.6333
 1999SOL     vw 7996   0.495   1.407   6.846 -0.1988 -0.0318 -0.9475
 2000SOL     ow 7997   1.959   6.747   2.319  0.2125  0.3071 -0.1663
 2000SOL     hw 7998   1.967   6.756   2.224  0.5348  1.2742 -0.0631
 2000SOL     hw 7999   1.905   6.822   2.346 -0.9426 -0.6440  0.2882
 2000SOL     vw 8000   1.953   6.758   2.310  0.1026  0.3095 -0.0926
 2001SOL     ow 8001   4.395   1.807   5.725 -0.0498  0.6171 -0.0488
 2001SOL     hw 8002   4.352   1.814   5.810  0.4290  0.8111  0.1857
 2001SOL     hw 8003   4.418   1.897   5.702  1.6291  0.3847  0.5836
 2001SOL     vw 8004   4.393   1.820   5.733  0.2351  0.6120  0.0656
 2002SOL     ow 8005   0.120   4.082   5.076 -0.2257  0.3140 -0.4109
 2002SOL     hw 8006   0.110   4.100   4.983 -1.2602  0.9420 -0.1997
 2002SOL     hw 8007   0.201   4.030   5.083  0.3286  0.9967 -1.5507
 2002SOL     vw 8008   0.129   4.077   5.065 -0.2891  0.4871 -0.5331
 2003SOL     ow 8009   6.541   1.813   3.445 -0.7615  0.1152  0.3832
 2003SOL     hw 8010   6.610   1.748   3.438 -1.8327 -1.1247  0.8970
 2003SOL     hw 8011   6.481   1.793   3.373 -1.7467 -0.3001  1.2856
 2003SOL     vw 8012   6.542   1.802   3.434 -1.0326 -0.1032  0.5699
 2004SOL     ow 8013   5.046   3.859   0.696  0.2080 -0.3979 -0.2630
 2004SOL     hw 8014   5.048   3.838   0.602  0.3035 -0.5826 -0.2198
 2004SOL     hw 8015   4.992   3.938   0.701 -2.8393 -2.3351 -0.0975
 2004SOL     vw 8016   5.039   3.867   0.684 -0.1812 -0.6777 -0.2355
 2005SOL     ow 8017   4.682   6.185   6.237  0.5619  0.2162 -0.5825
 2005SOL     hw 8018   4.711   6.276   6.244  1.3136  0.0207 -0.9750
 2005SOL     hw 8019   4.624   6.172   6.312  1.1143  0.7734 -0.0479
 2005SOL     vw 8020   4.678   6.196   6.248  0.7339  0.2639 -0.5636
 2006SOL     ow 8021   3.601   6.059   5.108  0.4579  0.0537 -0.0683
 2006SOL     hw 8022   3.555   6.131   5.066  0.7002  0.0564 -0.3401
 2006SOL     hw 8023   3.536   6.016   5.163 -0.5009 -1.3217 -2.1415
 2006SOL     vw 8024   3.587   6.063   5.110  0.3635 -0.1273 -0.3774
 2007SOL     ow 8025   2.669   6.637   3.215  0.7280 -0.6558 -0.5306
 2007SOL     hw 8026   2.758   6.602   3.222  1.2735  0.6554 -0.7351
 2007SOL     hw 8027   2.676   6.727   3.245 -0.4693 -0.4266 -0.8897
 2007SOL     vw 8028   2.682   6.644   3.220  0.6421 -0.4528 -0.6049
 2008SOL     ow 8029   2.673   4.856   3.437 -0.2593  0.7551 -0.4481
 2008SOL     hw 8030   2.689   4.784   3.376  3.0720  0.8818  0.1110
 2008SOL     hw 8031   2.642   4.813   3.517 -0.2226  0.1477 -0.7555
 2008SOL     vw 8032   2.671   4.841   3.440  0.1849  0.6917 -0.4148
 2009SOL     ow 8033   4.282   0.948   6.039 -0.8151  0.3404  0.1816
 2009SOL     hw 8034   4.264   0.856   6.019 -1.3902  0.7770 -1.4524
 2009SOL     hw 8035   4.377   0.955   6.037 -0.7917 -0.0725 -0.4814
 2009SOL     vw 8036   4.292   0.937   6.036 -0.8879  0.3435 -0.1216
 2010SOL     ow 8037   2.070   1.764   0.162  0.1213 -0.1698 -1.0065
 2010SOL     hw 8038   2.012   1.779   0.236  0.6559 -0.1348 -0.5895
 2010SOL     hw 8039   2.116   1.847   0.150  1.2093 -0.6624 -0.3396
 2010SOL     vw 8040   2.068   1.777   0.170  0.3352 -0.2301 -0.8635
 2011SOL     ow 8041   4.135   2.225   3.026 -0.0497 -0.4782  0.6719
 2011SOL     hw 8042   4.101   2.216   3.116 -2.8031 -1.7521 -0.3749
 2011SOL     hw 8043   4.126   2.137   2.989  0.7788  0.1012 -0.9650
 2011SOL     vw 8044   4.129   2.212   3.033 -0.3033 -0.5697  0.3179
 2012SOL     ow 8045   5.747   1.771   4.681  0.4073 -0.0776 -0.1017
 2012SOL     hw 8046   5.669   1.814   4.717  1.2514 -0.5232  2.3887
 2012SOL     hw 8047   5.723   1.679   4.675 -0.0468  0.0994 -1.7360
 2012SOL     vw 8048   5.733   1.765   4.685  0.4587 -0.1131  0.0112
 2013SOL     ow 8049   5.589   3.979   3.004  0.7396 -0.0179  0.5067
 2013SOL     hw 8050   5.512   3.932   3.038  0.6653 -1.2017 -1.1416
 2013SOL     hw 8051   5.647   3.989   3.079 -0.1017 -1.0637  1.3219
 2013SOL     vw 8052   5.586   3.974   3.018  0.6189 -0.3121  0.3968
 2014SOL     ow 8053   7.044   4.305   4.434  0.0224 -0.1428 -0.2889
 2014SOL     hw 8054   7.010   4.217   4.416  1.2402 -0.5385 -0.7836
 2014SOL     hw 8055   7.078   4.335   4.350 -0.9411  1.0713 -0.2629
 2014SOL     vw 8056   7.044   4.297   4.421  0.0560 -0.0348 -0.3507
 2015SOL     ow 8057   4.573   1.008   5.303 -0.1820  0.2227  0.2547
 2015SOL     hw 8058   4.598   1.094   5.337  0.5689 -0.1014  0.5457
 2015SOL     hw 8059   4.494   1.024   5.251 -0.2454  1.0284  0.5938
 2015SOL     vw 8060   4.566   1.021   5.301 -0.0913  0.2862  0.3376
 2016SOL     ow 8061   3.893   6.061   5.011  0.2438 -0.4605  0.2804
 2016SOL     hw 8062   3.987   6.057   4.993  0.2238  1.0441 -0.3779
 2016SOL     hw 8063   3.859   6.120   4.943 -1.3982 -1.9550 -0.2721
 2016SOL     vw 8064   3.901   6.069   4.999  0.0247 -0.4590  0.1206
 2017SOL     ow 8065   5.781   5.314   5.773 -0.3755 -0.7293  1.0132
 2017SOL     hw 8066   5.812   5.345   5.858 -0.3323 -0.0655  0.7646
 2017SOL     hw 8067   5.702   5.365   5.756 -0.0725 -0.4570  0.4031
 2017SOL     vw 8068   5.775   5.325   5.782 -0.3297 -0.6056  0.9003
 2018SOL     ow 8069   3.091   4.119   5.516 -0.2317 -0.3632  0.1053
 2018SOL     hw 8070   3.125   4.074   5.439 -1.3692 -2.7848  0.9373
 2018SOL     hw 8071   3.163   4.174   5.546  1.1554 -1.4514 -1.1185
 2018SOL     vw 8072   3.105   4.121   5.510 -0.1987 -0.8261  0.0541
 2019SOL     ow 8073   3.116   6.993   1.579  0.3669  0.0773 -0.7773
 2019SOL     hw 8074   3.148   7.024   1.494  1.2937  0.8997 -0.1480
 2019SOL     hw 8075   3.158   7.050   1.643 -0.1217 -0.6915  0.2604
 2019SOL     vw 8076   3.125   7.005   1.576  0.4246  0.0844 -0.5573
 2020SOL     ow 8077   2.701   6.430   4.170 -0.5136 -0.4021 -0.6773
 2020SOL     hw 8078   2.795   6.412   4.179 -0.7557 -2.4596 -1.6320
 2020SOL     hw 8079   2.691   6.458   4.079 -0.9424 -1.3343 -0.9334
 2020SOL     vw 8080   2.712   6.431   4.159 -0.6021 -0.7966 -0.8371
 2021SOL     ow 8081   5.432   6.581   4.425  0.3388 -0.0460 -0.2584
 2021SOL     hw 8082   5.527   6.571   4.415  0.0888 -1.0784 -2.1525
 2021SOL     hw 8083   5.409   6.648   4.360 -0.0406  1.5218  1.4239
 2021SOL     vw 8084   5.441   6.589   4.415  0.2556  0.0243 -0.2863
 2022SOL     ow 8085   6.748   4.523   3.975 -0.3838 -0.5422 -0.0597
 2022SOL     hw 8086   6.749   4.481   4.061 -0.4231 -0.5159 -0.0466
 2022SOL     hw 8087   6.661   4.562   3.968 -0.9728 -1.8936 -0.7623
 2022SOL     vw 8088   6.737   4.522   3.986 -0.4668 -0.7172 -0.1507
 2023SOL     ow 8089   0.745   2.105   2.439 -0.5795  0.3270  0.2335
 2023SOL     hw 8090   0.726   2.018   2.402  2.1015 -0.5981  0.7950
 2023SOL     hw 8091   0.790   2.086   2.521  2.9150  2.1037 -1.0797
 2023SOL     vw 8092   0.748   2.091   2.445  0.2352  0.4393  0.1342
 2024SOL     ow 8093   1.483   5.856   0.902 -0.1947 -0.3908 -0.1096
 2024SOL     hw 8094   1.406   5.803   0.919  0.6446 -1.9176 -0.9143
 2024SOL     hw 8095   1.471   5.888   0.813 -0.1463 -0.1810 -0.0416
 2024SOL     vw 8096   1.471   5.854   0.893 -0.0775 -0.5646 -0.2068
 2025SOL     ow 8097   3.843   3.692   1.315  0.2300  0.7932 -0.1414
 2025SOL     hw 8098   3.830   3.597   1.318  0.5578  0.6955 -1.3126
 2025SOL     hw 8099   3.932   3.705   1.346  0.1896  0.7203  0.0088
 2025SOL     vw 8100   3.853   3.681   1.319  0.2681  0.7707 -0.2761
 2026SOL     ow 8101   2.590   1.739   1.328 -0.0590  0.6749 -0.1252
 2026SOL     hw 8102   2.538   1.671   1.284  0.8369 -0.1319  0.0147
 2026SOL     hw 8103   2.673   1.695   1.348 -1.1420  0.2361  4.4327
 2026SOL     vw 8104   2.594   1.724   1.325 -0.0837  0.5106  0.4946
 2027SOL     ow 8105   4.482   5.364   5.736  0.0081 -0.3838 -0.3161
 2027SOL     hw 8106   4.434   5.310   5.800 -1.8614  0.3232 -1.0425
 2027SOL     hw 8107   4.432   5.445   5.732  1.6407  0.6229 -0.7292
 2027SOL     vw 8108   4.469   5.367   5.744 -0.0231 -0.1578 -0.4663
 2028SOL     ow 8109   0.737   5.813   5.233 -0.4749  0.3932 -0.5735
 2028SOL     hw 8110   0.672   5.853   5.176 -0.4859  1.0854 -0.0922
 2028SOL     hw 8111   0.686   5.776   5.305 -0.4039  0.1658 -0.6396
 2028SOL     vw 8112   0.722   5.814   5.235 -0.4670  0.4547 -0.5190
 2029SOL     ow 8113   2.697   2.628   0.703 -0.4375  0.5608 -0.2188
 2029SOL     hw 8114   2.658   2.664   0.623 -2.3078 -0.4406  0.1739
 2029SOL     hw 8115   2.730   2.542   0.676  0.8384  1.0722 -0.3571
 2029SOL     vw 8116   2.696   2.621   0.689 -0.5159  0.4961 -0.1853
 2030SOL     ow 8117   2.619   1.739   5.674  0.2141 -0.0887  0.4496
 2030SOL     hw 8118   2.536   1.786   5.681 -0.8637 -2.0371  2.5788
 2030SOL     hw 8119   2.605   1.677   5.602  0.0807  0.0880  0.3234
 2030SOL     vw 8120   2.606   1.737   5.666  0.0544 -0.3225  0.7141
 2031SOL     ow 8121   3.048   3.549   3.351 -0.3982 -0.6952  0.5379
 2031SOL     hw 8122   3.000   3.557   3.268  0.4159 -1.3020 -0.0016
 2031SOL     hw 8123   3.136   3.523   3.326  0.0868 -0.1005  1.5551
 2031SOL     vw 8124   3.053   3.547   3.337 -0.2269 -0.6967  0.6009
 2032SOL     ow 8125   0.833   3.293   1.183  0.6867 -0.1979  0.3242
 2032SOL     hw 8126   0.786   3.221   1.141  1.2370  0.0526 -0.7484
 2032SOL     hw 8127   0.833   3.363   1.118 -1.0520  1.3188  1.8594
 2032SOL     vw 8128   0.827   3.293   1.169  0.5299  0.0353  0.3851
 2033SOL     ow 8129   1.431   1.595   0.824  0.3616 -0.0556 -0.0890
 2033SOL     hw 8130   1.397   1.673   0.780  0.5616 -0.3495 -0.7695
 2033SOL     hw 8131   1.461   1.627   0.909 -0.6885  0.3860  0.1372
 2033SOL     vw 8132   1.430   1.610   0.830  0.2494 -0.0361 -0.1489
 2034SOL     ow 8133   1.260   0.198   6.632  0.3675  0.2921  0.2027
 2034SOL     hw 8134   1.214   0.114   6.620  2.0990 -0.6249 -0.3839
 2034SOL     hw 8135   1.299   0.192   6.719  2.9695 -0.8563 -0.9425
 2034SOL     vw 8136   1.259   0.186   6.642  0.9393  0.0196 -0.0262
 2035SOL     ow 8137   1.915   4.753   2.914 -0.4060 -0.4715  0.0604
 2035SOL     hw 8138   1.980   4.780   2.980 -0.0826 -1.8227  0.3289
 2035SOL     hw 8139   1.920   4.819   2.846  2.1241 -1.1405 -0.4939
 2035SOL     vw 8140   1.924   4.765   2.914 -0.0295 -0.7379  0.0228
 2036SOL     ow 8141   2.713   3.171   2.330  0.0674 -0.1554  0.0949
 2036SOL     hw 8142   2.713   3.222   2.249  0.6201  0.5710  0.5343
 2036SOL     hw 8143   2.795   3.196   2.374 -0.7280  0.2784  1.3754
 2036SOL     vw 8144   2.724   3.181   2.325  0.0355 -0.0023  0.3219
 2037SOL     ow 8145   6.536   2.037   3.671 -0.1679  0.0505 -0.0435
 2037SOL     hw 8146   6.443   2.054   3.657 -0.4032 -0.1194  1.2028
 2037SOL     hw 8147   6.547   2.041   3.766  1.5196  2.3522 -0.2439
 2037SOL     vw 8148   6.525   2.040   3.681  0.0234  0.3316  0.0945
 2038SOL     ow 8149   1.482   0.451   4.284  0.3150 -0.2271  0.1214
 2038SOL     hw 8150   1.545   0.516   4.317  1.1955 -0.8259 -0.3410
 2038SOL     hw 8151   1.458   0.484   4.197 -1.1640  0.7712  0.8645
 2038SOL     vw 8152   1.487   0.464   4.277  0.2360 -0.1744  0.1583
 2039SOL     ow 8153   1.781   1.478   3.773  0.8628  0.3687 -0.2013
 2039SOL     hw 8154   1.721   1.411   3.804 -0.7439  2.6823  2.1543
 2039SOL     hw 8155   1.840   1.494   3.847  1.6500  1.0994 -0.9517
 2039SOL     vw 8156   1.781   1.471   3.787  0.7546  0.7704  0.0106
 2040SOL     ow 8157   7.172   6.185   3.389 -0.5126  0.1061  0.0394
 2040SOL     hw 8158   7.142   6.245   3.321  1.9624  3.3099  1.4981
 2040SOL     hw 8159   7.256   6.221   3.417  1.3449 -4.2873  0.9241
 2040SOL     vw 8160   7.179   6.198   3.384  0.0591 -0.0510  0.3486
 2041SOL     ow 8161   4.273   6.319   4.065 -0.3672  0.1308  0.3380
 2041SOL     hw 8162   4.190   6.272   4.071  0.1245 -0.9527 -0.8374
 2041SOL     hw 8163   4.275   6.352   3.975  0.4664  0.1562  0.3608
 2041SOL     vw 8164   4.262   6.317   4.054 -0.1922 -0.0091  0.1860
 2042SOL     ow 8165   4.791   7.033   4.429  0.0938  0.2151 -0.2136
 2042SOL     hw 8166   4.728   7.104   4.439 -0.7741 -0.0460 -2.9583
 2042SOL     hw 8167   4.780   7.004   4.339  1.9259 -2.0037  0.1830
 2042SOL     vw 8168   4.781   7.038   4.419  0.2210 -0.1121 -0.5236
 2043SOL     ow 8169   5.741   5.471   4.616  0.0877 -0.2499  0.2276
 2043SOL     hw 8170   5.674   5.540   4.613 -0.3832 -0.6715  0.7866
 2043SOL     hw 8171   5.815   5.510   4.662  0.0258  0.0480  0.0757
 2043SOL     vw 8172   5.742   5.485   4.622  0.0176 -0.2666  0.2813
 2044SOL     ow 8173   2.580   3.694   1.211 -0.0624 -0.4043 -0.5597
 2044SOL     hw 8174   2.594   3.670   1.302 -3.7628  0.8766  0.4986
 2044SOL     hw 8175   2.668   3.715   1.178  1.7641 -3.6066  1.7712
 2044SOL     vw 8176   2.594   3.694   1.219 -0.3096 -0.6577 -0.1126
 2045SOL     ow 8177   4.233   0.049   0.430 -0.1743  0.2449  0.1106
 2045SOL     hw 8178   4.308   0.106   0.418 -0.8279  1.0551 -0.1834
 2045SOL     hw 8179   4.271  -0.037   0.451  0.9246 -0.1049 -2.8872
 2045SOL     vw 8180   4.248   0.045   0.431 -0.1154  0.3056 -0.3237
 2046SOL     ow 8181   6.913   5.603   5.646 -0.7308  0.4670  0.2627
 2046SOL     hw 8182   6.857   5.653   5.586 -0.3390 -1.6087 -2.0119
 2046SOL     hw 8183   6.853   5.569   5.713 -2.1633 -1.0301 -1.6588
 2046SOL     vw 8184   6.898   5.605   5.647 -0.8681 -0.0043 -0.2911
 2047SOL     ow 8185   3.141   4.012   4.265  0.7077 -0.6860 -0.2391
 2047SOL     hw 8186   3.145   4.053   4.351  2.6312 -1.1614 -0.0554
 2047SOL     hw 8187   3.231   3.985   4.247  0.1178 -1.7422 -1.8466
 2047SOL     vw 8188   3.154   4.013   4.274  0.8837 -0.8881 -0.4270
 2048SOL     ow 8189   4.352   5.446   2.894 -0.1966 -0.3548 -0.8384
 2048SOL     hw 8190   4.360   5.351   2.891  2.2590 -0.2464 -0.4793
 2048SOL     hw 8191   4.337   5.472   2.803  0.5656 -1.0270 -1.1692
 2048SOL     vw 8192   4.351   5.437   2.882  0.2279 -0.4292 -0.8346
 2049SOL     ow 8193   6.973   3.355   2.041  0.3477  0.3030 -0.7970
 2049SOL     hw 8194   6.898   3.336   2.096 -0.4799  1.1424 -1.6034
 2049SOL     hw 8195   6.938   3.408   1.969  1.8099  1.2540 -0.8542
 2049SOL     vw 8196   6.959   3.359   2.039  0.4315  0.5393 -0.9110
 2050SOL     ow 8197   6.382   0.121   1.198 -0.9865  0.5625  0.0354
 2050SOL     hw 8198   6.326   0.138   1.122 -2.3086 -0.0902  0.8291
 2050SOL     hw 8199   6.345   0.176   1.268 -0.8547 -0.1363  0.6641
 2050SOL     vw 8200   6.370   0.131   1.197 -1.1435  0.3842  0.2231
 2051SOL     ow 8201   6.165   0.431   6.639  0.6559 -0.1040  0.4286
 2051SOL     hw 8202   6.225   0.504   6.622  0.2632  0.2597  0.5917
 2051SOL     hw 8203   6.171   0.417   6.733  1.0475 -0.5640  0.3391
 2051SOL     vw 8204   6.174   0.439   6.649  0.6557 -0.1167  0.4382
 2052SOL     ow 8205   5.526   6.658   0.792  0.2261  0.1134  0.4802
 2052SOL     hw 8206   5.535   6.574   0.837 -0.5287 -0.7668 -0.9728
 2052SOL     hw 8207   5.616   6.684   0.771  0.6274  0.6209  2.5196
 2052SOL     vw 8208   5.539   6.651   0.795  0.1795  0.0644  0.5575
 2053SOL     ow 8209   5.644   5.850   0.197 -0.4638 -0.2085  0.1522
 2053SOL     hw 8210   5.644   5.798   0.277 -1.4205  1.9485  1.6575
 2053SOL     hw 8211   5.617   5.789   0.129 -0.0786 -2.0095  1.5396
 2053SOL     vw 8212   5.640   5.835   0.199 -0.5391 -0.1614  0.5338
 2054SOL     ow 8213   5.782   0.073   4.899 -0.5025  0.0514  0.3133
 2054SOL     hw 8214   5.734   0.019   4.962 -0.9760  0.5060  0.3511
 2054SOL     hw 8215   5.718   0.091   4.830 -0.4065  0.7085  0.3908
 2054SOL     vw 8216   5.767   0.069   4.899 -0.5524  0.1981  0.3283
 2055SOL     ow 8217   7.026   4.530   3.901 -0.2347  0.5596  0.7177
 2055SOL     hw 8218   6.944   4.542   3.949  0.7350 -0.2603  2.7413
 2055SOL     hw 8219   7.067   4.454   3.943  0.4084 -0.6892 -1.9419
 2055SOL     vw 8220   7.020   4.522   3.913 -0.0217  0.2868  0.6337
 2056SOL     ow 8221   2.278   6.476   3.319  0.1271  0.1683 -0.1129
 2056SOL     hw 8222   2.240   6.480   3.231 -1.5064  1.3672  0.5786
 2056SOL     hw 8223   2.370   6.453   3.305  0.1015  1.0791 -2.1957
 2056SOL     vw 8224   2.285   6.474   3.306 -0.0919  0.4468 -0.2964
 2057SOL     ow 8225   2.952   3.047   0.840 -0.3977 -0.1770 -0.6647
 2057SOL     hw 8226   2.981   3.133   0.870 -0.1438  0.1878 -1.9215
 2057SOL     hw 8227   2.954   3.052   0.745 -0.4332 -1.5564 -0.7634
 2057SOL     vw 8228   2.956   3.059   0.832 -0.3688 -0.3109 -0.8435
 2058SOL     ow 8229   2.488   1.882   6.977  0.0655 -0.5510  0.1402
 2058SOL     hw 8230   2.438   1.902   6.898  0.6239 -1.2512 -0.3987
 2058SOL     hw 8231   2.544   1.809   6.953 -0.5717 -1.5508  1.5217
 2058SOL     vw 8232   2.488   1.875   6.964  0.0552 -0.7753  0.2515
 2059SOL     ow 8233   0.815   5.025   6.192 -0.0255 -0.3729  0.4227
 2059SOL     hw 8234   0.797   5.012   6.285  1.0561  0.4212  0.7584
 2059SOL     hw 8235   0.802   4.938   6.153  0.7307 -0.9996  1.5199
 2059SOL     vw 8236   0.811   5.012   6.199  0.2170 -0.3505  0.6115
 2060SOL     ow 8237   1.970   6.850   2.738  0.0368 -0.1958  0.1879
 2060SOL     hw 8238   2.011   6.928   2.701  0.0267  0.1921  0.9594
 2060SOL     hw 8239   1.950   6.875   2.828 -0.5913 -0.8626  0.2407
 2060SOL     vw 8240   1.973   6.864   2.745 -0.0474 -0.2325  0.2967
 2061SOL     ow 8241   4.375   3.059   2.789 -0.0919  0.2387 -0.1418
 2061SOL     hw 8242   4.298   3.039   2.843 -0.9812  0.3386 -1.3396
 2061SOL     hw 8243   4.381   2.986   2.728  1.0600 -0.0035  0.2373
 2061SOL     vw 8244   4.366   3.047   2.788 -0.0572  0.2198 -0.2499
 2062SOL     ow 8245   6.173   3.082   2.153 -0.2395 -0.1955  0.3729
 2062SOL     hw 8246   6.146   3.164   2.193 -0.8618 -0.1297 -0.1748
 2062SOL     hw 8247   6.141   3.014   2.212  0.3240 -0.0578  0.8553
 2062SOL     vw 8248   6.165   3.084   2.166 -0.2472 -0.1686  0.3642
 2063SOL     ow 8249   5.949   3.702   1.296 -0.0707  0.0007  0.2561
 2063SOL     hw 8250   5.957   3.698   1.391  0.5433  1.6519  0.2947
 2063SOL     hw 8251   6.038   3.719   1.265  0.0125 -1.9686 -0.7456
 2063SOL     vw 8252   5.962   3.703   1.304  0.0212 -0.0414  0.1290
 2064SOL     ow 8253   5.189   5.673   1.686 -0.7142  0.5077  0.1334
 2064SOL     hw 8254   5.121   5.607   1.701 -1.1563  0.9448  0.0673
 2064SOL     hw 8255   5.191   5.684   1.591  0.9479 -1.0617 -0.0639
 2064SOL     vw 8256   5.180   5.665   1.676 -0.5534  0.3583  0.0986
 2065SOL     ow 8257   4.662   5.042   1.892 -0.1470  0.2913  0.0443
 2065SOL     hw 8258   4.611   5.056   1.971  0.3904  0.3563  0.3836
 2065SOL     hw 8259   4.606   4.988   1.836  0.2709 -1.5286  1.3038
 2065SOL     vw 8260   4.648   5.036   1.895 -0.0207  0.0598  0.2552
 2066SOL     ow 8261   3.162   2.932   0.992 -0.4279  0.0923  1.0485
 2066SOL     hw 8262   3.129   2.977   0.915 -1.7303  0.2434  1.6583
 2066SOL     hw 8263   3.257   2.931   0.982 -0.6043 -2.1669 -1.8524
 2066SOL     vw 8264   3.170   2.938   0.981 -0.6227 -0.1857  0.7462
 2067SOL     ow 8265   5.968   3.359   3.817 -0.1401 -0.4261  0.2800
 2067SOL     hw 8266   6.030   3.375   3.746  0.3588 -0.4898  0.6947
 2067SOL     hw 8267   5.916   3.284   3.788  0.2881 -0.6650  0.1337
 2067SOL     vw 8268   5.969   3.351   3.803 -0.0179 -0.4661  0.3153
 2068SOL     ow 8269   2.936   2.605   6.343  0.5944 -0.2768  0.2443
 2068SOL     hw 8270   2.845   2.621   6.369  1.2589  0.7824  2.1222
 2068SOL     hw 8271   2.953   2.670   6.275  0.5780  1.0494  1.4671
 2068SOL     vw 8272   2.926   2.616   6.337  0.6800  0.0380  0.6535
 2069SOL     ow 8273   0.385   2.239   2.352  0.0291  0.3298  0.9354
 2069SOL     hw 8274   0.441   2.259   2.277  0.9011 -0.1229  1.4467
 2069SOL     hw 8275   0.349   2.324   2.379  1.1960  0.7743  1.1538
 2069SOL     vw 8276   0.387   2.253   2.346  0.2981  0.3288  1.0316
 2070SOL     ow 8277   0.855   5.710   4.971  0.3560  0.0447 -0.2990
 2070SOL     hw 8278   0.902   5.737   4.892  0.6160 -2.9604 -1.3048
 2070SOL     hw 8279   0.774   5.670   4.939  0.4278 -1.1723  0.9284
 2070SOL     vw 8280   0.851   5.708   4.956  0.3998 -0.5126 -0.2697
 2071SOL     ow 8281   0.069   5.092   3.878 -0.2051  0.5957 -0.0212
 2071SOL     hw 8282   0.036   5.182   3.871  1.3266  1.0892 -1.8681
 2071SOL     hw 8283   0.145   5.090   3.821  0.3156 -1.6805  0.6390
 2071SOL     vw 8284   0.075   5.104   3.870  0.0657  0.3605 -0.1777
 2072SOL     ow 8285   2.749   5.090   4.546  0.0057 -0.4825 -0.4163
 2072SOL     hw 8286   2.665   5.125   4.575 -1.7425 -0.7930 -4.4185
 2072SOL     hw 8287   2.788   5.053   4.625 -3.9279 -0.9756  1.5535
 2072SOL     vw 8288   2.743   5.090   4.560 -0.7440 -0.5884 -0.6843
 2073SOL     ow 8289   0.175   4.883   1.449  0.0540 -0.0213  0.0730
 2073SOL     hw 8290   0.259   4.922   1.427  0.6325 -1.0563  0.3634
 2073SOL     hw 8291   0.119   4.901   1.374  0.1070  1.8617  0.4513
 2073SOL     vw 8292   0.179   4.890   1.436  0.1373  0.0906  0.1613
 2074SOL     ow 8293   3.346   1.383   4.568 -0.0636  0.0382  0.1162
 2074SOL     hw 8294   3.353   1.290   4.589  0.7833 -0.1673 -0.9875
 2074SOL     hw 8295   3.379   1.390   4.478 -0.9672  1.2751 -0.1432
 2074SOL     vw 8296   3.351   1.371   4.559 -0.0712  0.1743 -0.0637
 2075SOL     ow 8297   1.972   6.998   4.178  0.4577 -0.2173  0.4409
 2075SOL     hw 8298   1.887   6.960   4.154  0.3908  0.1163  0.1300
 2075SOL     hw 8299   2.029   6.923   4.191  0.5669 -0.4304 -1.0643
 2075SOL     vw 8300   1.968   6.983   4.176  0.4632 -0.2015  0.2015
 2076SOL     ow 8301   6.957   6.891   4.510 -0.2421  0.1607 -0.6286
 2076SOL     hw 8302   7.012   6.909   4.434  2.0021 -0.2008  0.8111
 2076SOL     hw 8303   6.897   6.965   4.515  1.1152  1.3662 -1.4307
 2076SOL     vw 8304   6.956   6.903   4.500  0.2332  0.2720 -0.5445
 2077SOL     ow 8305   0.864   0.331   3.685  0.5696  0.2196 -0.5316
 2077SOL     hw 8306   0.894   0.325   3.776 -1.1361  0.9222  0.0964
 2077SOL     hw 8307   0.938   0.370   3.638  0.7226  1.7616  0.9396
 2077SOL     vw 8308   0.878   0.335   3.691  0.3648  0.5157 -0.2546
 2078SOL     ow 8309   4.400   7.047   1.431  0.4231 -0.6887 -0.2448
 2078SOL     hw 8310   4.434   7.037   1.520  0.6300 -0.6031 -0.3154
 2078SOL     hw 8311   4.350   7.128   1.433  3.9669  1.7676 -1.2950
 2078SOL     vw 8312   4.398   7.056   1.443  0.9179 -0.3531 -0.3927
 2079SOL     ow 8313   4.079   2.885   1.389  0.3328 -0.4438 -0.3384
 2079SOL     hw 8314   4.153   2.915   1.441 -0.4669  0.4272  0.3452
 2079SOL     hw 8315   4.014   2.858   1.453 -0.4145 -0.0007 -0.8775
 2079SOL     vw 8316   4.080   2.886   1.404  0.1287 -0.2705 -0.3194
 2080SOL     ow 8317   3.307   6.698   5.189  0.2452  0.2762  0.0465
 2080SOL     hw 8318   3.311   6.604   5.175 -1.7616  0.5137 -3.0764
 2080SOL     hw 8319   3.374   6.715   5.255  1.0830 -3.2290  0.3021
 2080SOL     vw 8320   3.316   6.688   5.196  0.0910 -0.1547 -0.3319
 2081SOL     ow 8321   6.928   1.368   5.287 -0.6768  0.7464  0.0627
 2081SOL     hw 8322   6.944   1.430   5.358  0.5331  1.7737 -1.0545
 2081SOL     hw 8323   6.838   1.383   5.261 -0.4545  1.9265 -0.0719
 2081SOL     vw 8324   6.918   1.378   5.293 -0.4878  1.0377 -0.1025
 2082SOL     ow 8325   0.984   2.809   6.132 -0.5662 -0.2709 -0.8162
 2082SOL     hw 8326   1.005   2.894   6.092 -0.1114  0.4070  0.7787
 2082SOL     hw 8327   1.068   2.764   6.138 -0.0329  0.8436  1.9556
 2082SOL     vw 8328   0.997   2.814   6.128 -0.4358 -0.0345 -0.2398
 2083SOL     ow 8329   2.763   0.995   0.468  0.7638  0.0311  0.3349
 2083SOL     hw 8330   2.734   1.087   0.466 -0.0363 -0.2276 -1.4782
 2083SOL     hw 8331   2.808   0.987   0.552 -0.6745  1.6188  1.3338
 2083SOL     vw 8332   2.765   1.006   0.479  0.4686  0.2065  0.2275
 2084SOL     ow 8333   0.599   2.451   1.585 -0.0913 -0.0163  0.2665
 2084SOL     hw 8334   0.632   2.388   1.649  0.6326  0.4687  0.3929
 2084SOL     hw 8335   0.570   2.398   1.511  1.6090 -0.4503 -0.1308
 2084SOL     vw 8336   0.599   2.436   1.584  0.2286 -0.0097  0.2307
 2085SOL     ow 8337   5.444   1.663   3.194 -0.5037 -1.2552 -0.4610
 2085SOL     hw 8338   5.423   1.590   3.135  0.0376  1.3850 -4.3407
 2085SOL     hw 8339   5.375   1.727   3.178  0.6275  0.2779  0.5130
 2085SOL     vw 8340   5.432   1.661   3.184 -0.2828 -0.7046 -0.8445
 2086SOL     ow 8341   4.071   0.626   6.264 -0.6876 -0.2432 -0.0053
 2086SOL     hw 8342   4.071   0.531   6.251 -2.8082 -0.3937  0.6232
 2086SOL     hw 8343   4.129   0.660   6.196 -0.1208 -1.9581 -0.4351
 2086SOL     vw 8344   4.079   0.618   6.253 -0.8926 -0.4893  0.0210
 2087SOL     ow 8345   5.892   5.973   6.943 -0.3371 -0.3677 -0.0815
 2087SOL     hw 8346   5.876   5.969   6.849 -0.0979  1.8152 -0.2693
 2087SOL     hw 8347   5.966   5.915   6.957  0.2473  0.0171 -1.4231
 2087SOL     vw 8348   5.900   5.965   6.932 -0.2282 -0.0288 -0.2832
 2088SOL     ow 8349   3.711   3.608   2.279  0.4868 -0.4296  0.0456
 2088SOL     hw 8350   3.650   3.681   2.268 -0.9272 -1.4306  0.8868
 2088SOL     hw 8351   3.795   3.650   2.298 -0.8339  1.0530  3.4324
 2088SOL     vw 8352   3.714   3.623   2.280  0.1260 -0.3661  0.6036
 2089SOL     ow 8353   2.831   4.077   4.218 -0.0562 -0.6600 -0.1859
 2089SOL     hw 8354   2.793   4.086   4.305  0.4774 -1.3572  0.1360
 2089SOL     hw 8355   2.800   4.153   4.170  1.5115  1.0091  1.3086
 2089SOL     vw 8356   2.822   4.088   4.223  0.2210 -0.5319  0.0536
 2090SOL     ow 8357   4.864   1.506   6.891 -0.2253  0.2015 -0.6681
 2090SOL     hw 8358   4.873   1.597   6.920  0.8519  0.1317 -0.7381
 2090SOL     hw 8359   4.840   1.458   6.970 -0.2665  0.4642 -0.5173
 2090SOL     vw 8360   4.862   1.512   6.905 -0.0889  0.2269 -0.6576
 2091SOL     ow 8361   6.315   2.276   0.993  1.3849  0.6369  0.0330
 2091SOL     hw 8362   6.271   2.344   1.044 -0.2067 -1.4616  1.6618
 2091SOL     hw 8363   6.363   2.224   1.059  0.9577 -0.9456 -0.8500
 2091SOL     vw 8364   6.316   2.278   1.009  1.1189  0.1514  0.1314
 2092SOL     ow 8365   6.002   5.815   2.907  0.7804 -0.5248  0.6947
 2092SOL     hw 8366   5.920   5.864   2.911  1.5731  0.7655  1.7500
 2092SOL     hw 8367   6.063   5.865   2.961  3.1085  0.1587 -2.2890
 2092SOL     vw 8368   6.000   5.828   2.914  1.1921 -0.2646  0.4404
 2093SOL     ow 8369   6.767   0.506   2.177  0.6434  0.0361  0.3909
 2093SOL     hw 8370   6.821   0.529   2.252  1.0812  1.8783 -0.4402
 2093SOL     hw 8371   6.769   0.583   2.121 -0.2730 -1.0148 -1.1766
 2093SOL     vw 8372   6.774   0.519   2.179  0.5803  0.1405  0.0745
 2094SOL     ow 8373   0.914   4.282   1.677  1.0133  0.0780 -0.2058
 2094SOL     hw 8374   1.007   4.275   1.700  1.0389  1.0181  0.0138
 2094SOL     hw 8375   0.874   4.324   1.753  0.1702 -1.4244  0.2224
 2094SOL     vw 8376   0.921   4.287   1.690  0.9055  0.0038 -0.1203
 2095SOL     ow 8377   0.958   3.060   0.532 -0.9518 -0.1833 -0.4193
 2095SOL     hw 8378   0.880   3.081   0.481 -0.4415 -0.2470 -1.2413
 2095SOL     hw 8379   0.929   3.066   0.623 -1.7932  0.2587 -0.7020
 2095SOL     vw 8380   0.944   3.064   0.537 -0.9955 -0.1335 -0.5651
 2096SOL     ow 8381   3.802   5.847   2.895 -0.3670  0.3168  0.3582
 2096SOL     hw 8382   3.840   5.919   2.945 -0.2785  1.1285 -0.8419
 2096SOL     hw 8383   3.817   5.870   2.803  0.0719 -1.4528 -0.0607
 2096SOL     vw 8384   3.809   5.859   2.889 -0.2974  0.1907  0.1447
 2097SOL     ow 8385   4.007   4.240   0.284 -0.2889 -0.3939  0.1394
 2097SOL     hw 8386   4.100   4.242   0.306 -0.1596 -0.5970 -0.3574
 2097SOL     hw 8387   3.966   4.302   0.345  0.1897 -0.2008  0.2712
 2097SOL     vw 8388   4.014   4.249   0.295 -0.2086 -0.3948  0.0913
 2098SOL     ow 8389   2.835   0.266   5.150  0.2951  0.5304  0.4660
 2098SOL     hw 8390   2.814   0.223   5.067 -0.7127 -2.4456  2.0944
 2098SOL     hw 8391   2.929   0.280   5.147  1.0107 -3.2209  0.2528
 2098SOL     vw 8392   2.845   0.262   5.138  0.2565 -0.3572  0.6528
 2099SOL     ow 8393   1.670   4.654   4.026  0.0488 -0.6149 -0.4219
 2099SOL     hw 8394   1.660   4.693   3.939  0.8632 -0.1378 -0.3089
 2099SOL     hw 8395   1.581   4.647   4.059 -0.3173 -1.2278 -1.4795
 2099SOL     vw 8396   1.657   4.658   4.019  0.1079 -0.6328 -0.5469
 2100SOL     ow 8397   5.705   0.810   5.669  0.2386 -0.1245 -0.3508
 2100SOL     hw 8398   5.708   0.889   5.724  1.2655  1.4756 -2.5672
 2100SOL     hw 8399   5.765   0.829   5.597  2.3972 -3.9185  0.1996
 2100SOL     vw 8400   5.713   0.823   5.667  0.6590 -0.4140 -0.5703
 2101SOL     ow 8401   3.531   2.108   6.931 -0.8600  0.3575 -0.1593
 2101SOL     hw 8402   3.577   2.127   6.849  0.2633 -3.0629 -0.4657
 2101SOL     hw 8403   3.576   2.161   6.997  1.8860 -0.8797 -0.9036
 2101SOL     vw 8404   3.543   2.118   6.929 -0.3494 -0.2570 -0.2980
 2102SOL     ow 8405   6.329   5.412   2.168 -0.5406  0.1450  0.3560
 2102SOL     hw 8406   6.250   5.368   2.201 -0.5634 -1.4348 -1.6006
 2102SOL     hw 8407   6.400   5.375   2.220 -0.5406 -2.5060 -1.3446
 2102SOL     vw 8408   6.328   5.401   2.179 -0.5434 -0.4132 -0.1265
 2103SOL     ow 8409   3.830   6.780   0.299  0.6788  0.0463 -0.3699
 2103SOL     hw 8410   3.877   6.858   0.269 -0.8464  1.4137  0.6369
 2103SOL     hw 8411   3.740   6.809   0.313  0.4882 -1.3771  1.9878
 2103SOL     vw 8412   3.824   6.794   0.297  0.4525  0.0391  0.0740
 2104SOL     ow 8413   6.653   0.166   5.698  0.4320 -0.4489 -0.8243
 2104SOL     hw 8414   6.636   0.255   5.666 -0.6182 -0.4995 -0.4506
 2104SOL     hw 8415   6.646   0.173   5.793 -1.4620 -1.2452 -0.8570
 2104SOL     vw 8416   6.650   0.179   5.706  0.0436 -0.5607 -0.7794
 2105SOL     ow 8417   4.304   2.293   0.213 -0.1641 -0.0201  0.0779
 2105SOL     hw 8418   4.247   2.255   0.280 -0.4983  0.4246  0.0490
 2105SOL     hw 8419   4.339   2.217   0.166 -1.2012 -0.2879 -0.2968
 2105SOL     vw 8420   4.301   2.278   0.215 -0.3452  0.0032  0.0247
 2106SOL     ow 8421   6.222   4.303   2.273 -0.4007 -0.0818  0.1679
 2106SOL     hw 8422   6.214   4.209   2.286  0.6756 -0.0519  1.2163
 2106SOL     hw 8423   6.315   4.317   2.258 -0.6355  0.7523 -0.5417
 2106SOL     vw 8424   6.233   4.293   2.273 -0.2899  0.0319  0.2127
 2107SOL     ow 8425   0.041   0.018   4.459  0.6785 -0.9489 -0.5994
 2107SOL     hw 8426  -0.022   0.079   4.421 -0.4271 -1.8657 -0.3135
 2107SOL     hw 8427   0.123   0.035   4.412  0.4894  0.9447 -0.2964
 2107SOL     vw 8428   0.043   0.028   4.448  0.5076 -0.8201 -0.5217
 2108SOL     ow 8429   3.172   4.321   6.208  0.3449  0.2823  0.5247
 2108SOL     hw 8430   3.141   4.359   6.126 -0.9357  1.2604  1.4330
 2108SOL     hw 8431   3.261   4.292   6.189  1.1508  3.0722 -0.4438
 2108SOL     vw 8432   3.180   4.322   6.195  0.2823  0.7796  0.5169
 2109SOL     ow 8433   4.726   6.795   4.525 -0.6998 -0.0669 -0.1768
 2109SOL     hw 8434   4.745   6.880   4.486  0.9439  0.0722  0.8162
 2109SOL     hw 8435   4.787   6.734   4.483 -1.1212 -0.5449 -0.1077
 2109SOL     vw 8436   4.736   6.798   4.515 -0.5383 -0.1116 -0.0367
 2110SOL     ow 8437   3.262   4.514   1.641 -0.1381  0.2267  0.3712
 2110SOL     hw 8438   3.235   4.467   1.562  0.7140 -1.0290  0.7816
 2110SOL     hw 8439   3.215   4.471   1.712 -2.7687  2.8790  0.4179
 2110SOL     vw 8440   3.253   4.502   1.640 -0.3728  0.4113  0.4315
 2111SOL     ow 8441   6.577   4.852   1.285 -0.1324  0.3764 -0.3509
 2111SOL     hw 8442   6.538   4.828   1.201  0.4581  0.8825 -0.7726
 2111SOL     hw 8443   6.563   4.774   1.340 -1.3640  0.3900 -0.6063
 2111SOL     vw 8444   6.570   4.838   1.282 -0.2172  0.4449 -0.4402
 2112SOL     ow 8445   5.160   5.786   0.695  0.1893  0.3077  1.1087
 2112SOL     hw 8446   5.132   5.697   0.675 -0.3116  0.5806  0.5656
 2112SOL     hw 8447   5.121   5.839   0.626  1.0788  0.8554  1.0088
 2112SOL     vw 8448   5.151   5.781   0.683  0.2406  0.4158  1.0239
 2113SOL     ow 8449   0.793   3.771   0.677 -0.2239  0.7409  0.2357
 2113SOL     hw 8450   0.765   3.682   0.697  0.0963  0.1106 -1.9275
 2113SOL     hw 8451   0.796   3.815   0.763  0.1671 -1.4590  1.4167
 2113SOL     vw 8452   0.790   3.765   0.691 -0.1301  0.3675  0.1061
 2114SOL     ow 8453   6.963   3.018   6.848 -0.2865  0.6965 -1.0779
 2114SOL     hw 8454   7.006   3.003   6.932 -1.5607  0.3701 -0.4561
 2114SOL     hw 8455   6.903   2.945   6.838 -2.0177  2.0361 -1.0183
 2114SOL     vw 8456   6.960   3.007   6.858 -0.6831  0.8301 -0.9880
 2115SOL     ow 8457   0.480   1.611   4.428 -0.2879 -0.1112  0.4772
 2115SOL     hw 8458   0.410   1.558   4.391 -0.5266  1.5485 -1.6237
 2115SOL     hw 8459   0.451   1.701   4.418  1.8666  0.6162  0.0843
 2115SOL     vw 8460   0.467   1.616   4.422 -0.0352  0.2038  0.1483
 2116SOL     ow 8461   0.970   5.245   4.833 -0.3870  0.3923  0.1324
 2116SOL     hw 8462   1.010   5.193   4.904  0.3543 -0.2387 -0.7231
 2116SOL     hw 8463   0.947   5.180   4.766 -1.7538  0.8947  0.0831
 2116SOL     vw 8464   0.972   5.229   4.834 -0.4695  0.3753  0.0131
 2117SOL     ow 8465   3.955   5.656   2.969 -0.2080  0.0134  0.1134
 2117SOL     hw 8466   3.971   5.600   2.893  0.4173 -0.7740  0.8149
 2117SOL     hw 8467   3.891   5.720   2.938 -2.5835 -2.3074 -0.1486
 2117SOL     vw 8468   3.948   5.657   2.955 -0.4388 -0.3970  0.1714
 2118SOL     ow 8469   4.296   6.398   5.383 -0.2083  0.2720 -0.0802
 2118SOL     hw 8470   4.332   6.314   5.355  0.4791  0.8527 -1.0104
 2118SOL     hw 8471   4.262   6.382   5.471 -1.1701 -1.2760 -0.6965
 2118SOL     vw 8472   4.297   6.385   5.391 -0.2446  0.1440 -0.2840
 2119SOL     ow 8473   4.263   2.261   2.454 -0.7601  0.2229 -0.1106
 2119SOL     hw 8474   4.282   2.172   2.427 -2.4161 -0.4448  0.7994
 2119SOL     hw 8475   4.252   2.309   2.372  2.9294  0.3411 -0.7017
 2119SOL     vw 8476   4.264   2.256   2.439 -0.4919  0.1503 -0.0685
 2120SOL     ow 8477   5.957   6.919   6.594 -0.7705 -0.3612  0.1663
 2120SOL     hw 8478   5.979   6.914   6.501  1.5460 -1.9455  0.7147
 2120SOL     hw 8479   5.951   6.828   6.623 -1.5424  0.0975  1.5636
 2120SOL     vw 8480   5.959   6.907   6.586 -0.5667 -0.5100  0.4230
 2121SOL     ow 8481   2.636   3.766   6.148  0.2580 -0.3845 -0.3608
 2121SOL     hw 8482   2.693   3.693   6.171  0.5649  0.4072  1.6031
 2121SOL     hw 8483   2.564   3.726   6.098  0.0083 -2.1637  1.3181
 2121SOL     vw 8484   2.634   3.751   6.144  0.2656 -0.5147  0.1197
 2122SOL     ow 8485   6.965   2.287   5.293 -0.3546 -0.0265  0.0913
 2122SOL     hw 8486   6.905   2.347   5.248 -0.5282  0.2823  0.7296
 2122SOL     hw 8487   6.933   2.283   5.383 -0.7063 -1.5543 -0.0815
 2122SOL     vw 8488   6.953   2.294   5.299 -0.4239 -0.1874  0.1526
 2123SOL     ow 8489   1.732   1.944   2.396 -0.5805 -0.1558  0.5180
 2123SOL     hw 8490   1.637   1.953   2.398 -0.4275  2.0401  2.2648
 2123SOL     hw 8491   1.755   1.923   2.487  0.7318  2.1687  0.8028
 2123SOL     vw 8492   1.722   1.943   2.409 -0.3871  0.4406  0.7861
 2124SOL     ow 8493   4.447   5.374   4.482  0.3154 -0.4001 -0.0076
 2124SOL     hw 8494   4.461   5.452   4.429  1.7444 -2.0738 -2.3110
 2124SOL     hw 8495   4.356   5.348   4.463  0.4677 -0.3675 -0.7990
 2124SOL     vw 8496   4.437   5.381   4.472  0.5238 -0.6168 -0.4158
 2125SOL     ow 8497   2.638   5.460   4.660 -0.3061 -0.0840 -0.6090
 2125SOL     hw 8498   2.600   5.546   4.645 -1.1591 -0.4491 -0.6278
 2125SOL     hw 8499   2.733   5.474   4.660 -0.4525  1.0367  0.4797
 2125SOL     vw 8500   2.645   5.473   4.658 -0.4380  0.0155 -0.4680
 2126SOL     ow 8501   2.375   1.924   1.406 -0.0341  0.0538  0.7180
 2126SOL     hw 8502   2.324   1.892   1.332  3.7040 -1.5919 -1.4732
 2126SOL     hw 8503   2.362   1.857   1.474  0.3244 -1.1736 -0.3663
 2126SOL     vw 8504   2.367   1.911   1.405  0.5064 -0.3254  0.2858
 2127SOL     ow 8505   1.370   3.399   2.711  0.1358  0.3081 -0.3027
 2127SOL     hw 8506   1.317   3.321   2.728 -0.2724  0.4248 -1.0297
 2127SOL     hw 8507   1.352   3.422   2.620  2.5803 -0.5513 -1.0875
 2127SOL     vw 8508   1.361   3.392   2.702  0.4044  0.2099 -0.5021
 2128SOL     ow 8509   5.768   3.264   3.394 -0.3036 -0.0466  0.5685
 2128SOL     hw 8510   5.783   3.357   3.381  2.0024 -0.3515  0.5702
 2128SOL     hw 8511   5.720   3.258   3.477 -1.5877  1.1582 -0.0532
 2128SOL     vw 8512   5.764   3.275   3.404 -0.1686  0.0722  0.4867
 2129SOL     ow 8513   6.228   6.058   2.388 -0.1539  0.1267 -0.4206
 2129SOL     hw 8514   6.213   6.112   2.311 -1.2984  0.5575  0.0788
 2129SOL     hw 8515   6.322   6.038   2.385  0.2793  1.9816 -0.7321
 2129SOL     vw 8516   6.238   6.062   2.378 -0.2480  0.4284 -0.3957
 2130SOL     ow 8517   3.725   1.298   4.994  0.2970  0.0108 -0.0616
 2130SOL     hw 8518   3.747   1.211   4.961  1.1959 -0.0410  0.6598
 2130SOL     hw 8519   3.809   1.341   5.007 -0.1006  0.6093  0.5797
 2130SOL     vw 8520   3.739   1.292   4.991  0.3631  0.0830  0.1183
 2131SOL     ow 8521   4.551   5.425   1.477 -0.1085  0.3531  0.3351
 2131SOL     hw 8522   4.592   5.354   1.427 -1.3705 -1.0114  1.1347
 2131SOL     hw 8523   4.507   5.478   1.411  0.7300  0.3174 -0.2700
 2131SOL     vw 8524   4.550   5.422   1.461 -0.1643  0.1683  0.3607
 2132SOL     ow 8525   7.132   1.339   2.862 -0.4396  0.5701 -0.1422
 2132SOL     hw 8526   7.057   1.383   2.823 -1.1401  0.5420  1.1181
 2132SOL     hw 8527   7.195   1.409   2.878 -0.7460  0.8061  0.0415
 2132SOL     vw 8528   7.130   1.354   2.859 -0.5722  0.5975  0.0483
 2133SOL     ow 8529   6.647   3.623   2.957 -0.0480  0.1323  0.1616
 2133SOL     hw 8530   6.561   3.666   2.956 -1.4700 -2.4955 -0.3907
 2133SOL     hw 8531   6.701   3.679   3.012 -2.0781  1.9608  0.4361
 2133SOL     vw 8532   6.643   3.636   2.965 -0.5035  0.0268  0.1251
 2134SOL     ow 8533   2.735   5.781   6.156  0.0156 -0.3445 -0.3897
 2134SOL     hw 8534   2.817   5.804   6.114 -0.4980  0.1106 -1.1711
 2134SOL     hw 8535   2.753   5.786   6.250  0.6393  0.6290 -0.5503
 2134SOL     vw 8536   2.748   5.785   6.163  0.0299 -0.1559 -0.5140
 2135SOL     ow 8537   3.243   0.894   3.763  0.0796  0.3517  0.2051
 2135SOL     hw 8538   3.312   0.911   3.827  0.5308  0.4750 -0.3120
 2135SOL     hw 8539   3.279   0.826   3.706 -0.1128  0.6211 -0.2414
 2135SOL     vw 8540   3.257   0.887   3.764  0.1137  0.4035  0.0780
 2136SOL     ow 8541   0.159   6.463   0.899  0.3527  0.6195 -0.6258
 2136SOL     hw 8542   0.187   6.407   0.827  2.5546 -0.8177  1.2194
 2136SOL     hw 8543   0.235   6.520   0.916  0.2510  0.3160  1.0706
 2136SOL     vw 8544   0.173   6.463   0.892  0.6298  0.3901 -0.1585
 2137SOL     ow 8545   2.270   5.664   5.002 -0.3078  0.5841  0.0029
 2137SOL     hw 8546   2.227   5.618   4.931  0.5594 -0.3607  0.0636
 2137SOL     hw 8547   2.210   5.657   5.076 -1.8359  2.7138 -0.9188
 2137SOL     vw 8548   2.256   5.657   5.003 -0.3949  0.7405 -0.1106
 2138SOL     ow 8549   0.258   5.347   5.993  0.4418 -0.1696 -0.2128
 2138SOL     hw 8550   0.296   5.410   6.055 -0.3968  1.0913 -0.9307
 2138SOL     hw 8551   0.319   5.273   5.993  0.9925  0.2547  1.3247
 2138SOL     vw 8552   0.271   5.346   6.001  0.4038  0.0529 -0.1049
 2139SOL     ow 8553   5.346   1.636   6.249 -0.9718  0.1220  0.7705
 2139SOL     hw 8554   5.393   1.629   6.332  0.7668  0.4618 -0.1511
 2139SOL     hw 8555   5.283   1.707   6.263 -0.1410  0.7257  1.5515
 2139SOL     vw 8556   5.344   1.645   6.262 -0.6328  0.2465  0.7520
 2140SOL     ow 8557   6.952   0.576   1.379  0.9681 -0.4524 -0.5467
 2140SOL     hw 8558   6.967   0.662   1.418  3.0867  0.1229 -2.4562
 2140SOL     hw 8559   7.039   0.537   1.372  0.8202 -0.3957 -4.8410
 2140SOL     vw 8560   6.965   0.582   1.384  1.2281 -0.3690 -1.3652
 2141SOL     ow 8561   3.119   5.328   3.939 -0.1635 -0.1924  0.0156
 2141SOL     hw 8562   3.030   5.295   3.923  0.0471 -0.8596  0.2128
 2141SOL     hw 8563   3.124   5.336   4.034 -0.6462  1.6472 -0.0644
 2141SOL     vw 8564   3.108   5.325   3.949 -0.1993 -0.0377  0.0311
 2142SOL     ow 8565   6.974   6.731   2.805 -0.4417 -0.5382 -0.4302
 2142SOL     hw 8566   7.027   6.686   2.871  0.8229 -1.4405 -1.9741
 2142SOL     hw 8567   6.884   6.723   2.836  0.2614  1.0375  2.2856
 2142SOL     vw 8568   6.969   6.724   2.817 -0.1822 -0.4492 -0.2757
 2143SOL     ow 8569   5.441   5.909   4.019  0.5046  0.2612 -0.0036
 2143SOL     hw 8570   5.458   5.910   3.925 -0.2392 -1.7872 -0.2195
 2143SOL     hw 8571   5.511   5.855   4.056  0.5178  0.6471  0.5402
 2143SOL     vw 8572   5.452   5.902   4.012  0.4079  0.0420  0.0393
 2144SOL     ow 8573   4.560   5.769   3.166  0.0442 -0.3414  0.5185
 2144SOL     hw 8574   4.582   5.799   3.077  1.5699  1.5375  1.4492
 2144SOL     hw 8575   4.566   5.674   3.161 -0.8329 -0.3556 -1.5917
 2144SOL     vw 8576   4.564   5.760   3.153  0.1302 -0.0956  0.3629
 2145SOL     ow 8577   6.337   6.695   5.788  0.4597 -0.0106 -0.1657
 2145SOL     hw 8578   6.340   6.601   5.805 -0.3328  0.3263  2.1427
 2145SOL     hw 8579   6.329   6.702   5.693  0.4191 -2.2688 -0.3750
 2145SOL     vw 8580   6.336   6.684   5.778  0.3500 -0.2639  0.1113
 2146SOL     ow 8581   4.945   4.832   3.712 -0.3783  0.1690 -0.6350
 2146SOL     hw 8582   4.980   4.799   3.629  0.1939  1.0192 -0.7426
 2146SOL     hw 8583   4.963   4.926   3.710  0.3981  0.0748  0.8265
 2146SOL     vw 8584   4.952   4.840   3.701 -0.2003  0.2692 -0.4562
 2147SOL     ow 8585   0.688   3.751   2.308 -0.5326 -0.5770 -0.1835
 2147SOL     hw 8586   0.670   3.739   2.215 -1.3246 -1.8919  0.1164
 2147SOL     hw 8587   0.742   3.676   2.332  0.0068 -0.0333  0.3375
 2147SOL     vw 8588   0.693   3.740   2.299 -0.5659 -0.6788 -0.0752
 2148SOL     ow 8589   0.842   1.422   2.461  0.1529  0.5596 -0.3718
 2148SOL     hw 8590   0.849   1.518   2.461 -1.2475  0.7032  0.8679
 2148SOL     hw 8591   0.770   1.403   2.401  0.5348  0.2667 -0.7393
 2148SOL     vw 8592   0.833   1.432   2.453  0.0185  0.5398 -0.2568
 2149SOL     ow 8593   1.108   6.161   2.690  0.2735  0.4644 -0.2155
 2149SOL     hw 8594   1.202   6.166   2.705  0.2291  0.6604  0.0121
 2149SOL     hw 8595   1.069   6.177   2.776  0.0592 -1.2882  0.0469
 2149SOL     vw 8596   1.115   6.164   2.703  0.2394  0.2589 -0.1508
 2150SOL     ow 8597   3.792   2.220   2.573  0.5550 -0.5634  0.1560
 2150SOL     hw 8598   3.818   2.141   2.526  1.3146 -0.4824  0.4278
 2150SOL     hw 8599   3.708   2.197   2.613  0.8721 -1.3184  0.4144
 2150SOL     vw 8600   3.784   2.206   2.572  0.6970 -0.6523  0.2259
 2151SOL     ow 8601   0.587   5.939   1.023 -0.2629  0.1136 -0.0039
 2151SOL     hw 8602   0.672   5.924   0.982  0.2582  1.7292  0.4186
 2151SOL     hw 8603   0.524   5.933   0.951  0.0513 -2.1437 -0.1548
 2151SOL     vw 8604   0.590   5.936   1.008 -0.1527  0.0288  0.0319
 2152SOL     ow 8605   2.186   7.075   1.473  0.4202  0.3215  0.4184
 2152SOL     hw 8606   2.149   7.113   1.552  1.6273 -0.4718  1.4053
 2152SOL     hw 8607   2.175   6.980   1.484  0.6572  0.2015 -0.3182
 2152SOL     vw 8608   2.180   7.067   1.485  0.6108  0.2012  0.4514
 2153SOL     ow 8609   2.807   6.782   2.000  0.3806 -0.0629  0.1365
 2153SOL     hw 8610   2.877   6.731   2.040  1.3837  1.2043  0.0788
 2153SOL     hw 8611   2.819   6.871   2.035  1.2529  1.0924 -2.8009
 2153SOL     vw 8612   2.818   6.787   2.010  0.6280  0.2570 -0.2587
 2154SOL     ow 8613   5.564   4.911   3.900  0.6544 -0.2014  0.3709
 2154SOL     hw 8614   5.539   4.851   3.831 -1.3559  0.4679  0.4593
 2154SOL     hw 8615   5.489   4.915   3.958  1.9484 -0.0400  2.1217
 2154SOL     vw 8616   5.551   4.904   3.899  0.5598 -0.0920  0.6136
 2155SOL     ow 8617   4.962   0.578   2.780  0.1006 -0.3577  0.3027
 2155SOL     hw 8618   5.042   0.559   2.829  1.6245  1.6449 -1.2449
 2155SOL     hw 8619   4.919   0.648   2.829  0.5517  0.1990 -0.0773
 2155SOL     vw 8620   4.967   0.585   2.793  0.3614 -0.0200  0.0484
 2156SOL     ow 8621   3.393   6.734   0.792 -0.5995  0.2889  0.0349
 2156SOL     hw 8622   3.428   6.749   0.704  0.5862 -2.3629 -0.0471
 2156SOL     hw 8623   3.420   6.645   0.814  0.7821  1.4053  3.8442
 2156SOL     vw 8624   3.401   6.725   0.784 -0.2608  0.0865  0.5267
 2157SOL     ow 8625   2.257   5.468   2.833 -0.6592 -0.1454 -0.6226
 2157SOL     hw 8626   2.278   5.561   2.826 -0.6227 -0.1571 -0.6748
 2157SOL     hw 8627   2.212   5.447   2.751 -0.8317 -0.1311 -0.5311
 2157SOL     vw 8628   2.254   5.477   2.821 -0.6772 -0.1450 -0.6174
 2158SOL     ow 8629   3.982   1.291   5.479  0.1443  0.4579 -0.1764
 2158SOL     hw 8630   3.979   1.374   5.431 -0.1275  1.2017  1.0800
 2158SOL     hw 8631   3.996   1.224   5.411  0.4579  1.5298 -1.1985
 2158SOL     vw 8632   3.983   1.293   5.464  0.1498  0.6974 -0.1454
 2159SOL     ow 8633   2.365   1.024   4.308 -0.2275  0.4070 -0.0475
 2159SOL     hw 8634   2.277   1.018   4.343  0.0480  1.2218  0.8214
 2159SOL     hw 8635   2.361   1.094   4.243 -0.3395  0.0640 -0.4163
 2159SOL     vw 8636   2.353   1.032   4.304 -0.2059  0.4692  0.0186
 2160SOL     ow 8637   7.120   2.330   1.458  0.0628 -0.2687  0.1248
 2160SOL     hw 8638   7.090   2.382   1.532 -1.8732  0.4973 -1.1144
 2160SOL     hw 8639   7.163   2.393   1.400  1.3238 -0.8108  0.4395
 2160SOL     vw 8640   7.121   2.345   1.460 -0.0265 -0.2391  0.0028
 2161poe    c31 8641   6.231   5.468   6.691  0.0418  0.2703  0.5213
 2161poe     o2 8642   6.130   5.557   6.649 -0.3983 -0.3963  0.1457
 2161poe    c23 8643   6.042   5.602   6.750 -0.2170  0.3567 -0.0248
 2161poe    c23 8644   5.937   5.499   6.794  0.7355 -0.5690  0.1450
 2161poe     o2 8645   5.878   5.451   6.675 -0.1515  0.3340  0.2020
 2161poe    c23 8646   5.764   5.369   6.691  0.0829 -0.1107 -0.3808
 2161poe    c23 8647   5.717   5.326   6.551  0.0655 -0.4161 -0.2817
 2161poe     o2 8648   5.746   5.429   6.459 -0.3597 -0.4241 -0.4260
 2161poe    c23 8649   5.675   5.399   6.341 -0.3794 -0.9656 -0.2810
 2161poe    c23 8650   5.656   5.531   6.264  0.3158 -0.7255 -0.0466
 2161poe     o2 8651   5.770   5.611   6.289 -0.1479 -0.1483  0.2681
 2161poe    c31 8652   5.751   5.713   6.194  0.7549 -0.4499 -0.2481
 2162poe    c31 8653   0.959   4.159   0.224 -0.0526 -0.7744 -0.4090
 2162poe     o2 8654   0.970   4.058   0.321  0.2895 -0.1190  0.2426
 2162poe    c23 8655   1.096   3.997   0.304  0.3129  0.1097 -0.4242
 2162poe    c23 8656   1.118   3.884   0.406 -0.1793 -0.0520 -0.4957
 2162poe     o2 8657   1.040   3.766   0.394 -0.3576  0.0604 -0.4473
 2162poe    c23 8658   1.115   3.647   0.406 -0.1772  0.2252  0.0784
 2162poe    c23 8659   1.013   3.532   0.417 -0.0478  0.0861 -0.1802
 2162poe     o2 8660   0.928   3.555   0.528  0.0940 -0.3748  0.0293
 2162poe    c23 8661   0.869   3.438   0.578  0.2221 -0.4118  0.0955
 2162poe    c23 8662   0.717   3.454   0.600  0.3178 -0.1328  0.5791
 2162poe     o2 8663   0.675   3.558   0.685  0.1867  0.2271  0.0771
 2162poe    c31 8664   0.536   3.555   0.706  0.1135 -0.2878 -0.4676
 2163poe    c31 8665   6.815   2.401   1.244 -0.4188  0.1739 -0.5143
 2163poe     o2 8666   6.919   2.497   1.250  0.0485 -0.3407 -0.2318
 2163poe    c23 8667   7.030   2.467   1.168  0.3271 -0.3362  0.1420
 2163poe    c23 8668   7.152   2.556   1.199  0.3500 -0.2043 -0.3159
 2163poe     o2 8669   7.222   2.529   1.318 -0.5789  0.3255  0.3650
 2163poe    c23 8670   7.359   2.550   1.294 -0.4819 -1.3206 -0.6800
 2163poe    c23 8671   7.427   2.505   1.425  0.5862  0.2249 -0.6641
 2163poe     o2 8672   7.363   2.565   1.535  0.5457 -0.0766 -0.5232
 2163poe    c23 8673   7.451   2.563   1.646 -0.3578 -0.5300  0.2047
 2163poe    c23 8674   7.399   2.613   1.781  0.1713  0.1589  0.1562
 2163poe     o2 8675   7.283   2.542   1.821  0.4930 -0.4837 -0.0445
 2163poe    c31 8676   7.259   2.592   1.951 -0.0631  0.3554 -0.4640
 2164poe    c31 8677   4.677   0.496   2.710  0.0371  0.1674 -0.1526
 2164poe     o2 8678   4.690   0.415   2.595  0.3912  0.3538 -0.2447
 2164poe    c23 8679   4.776   0.305   2.611 -0.6446 -0.3684  0.3995
 2164poe    c23 8680   4.764   0.224   2.481  0.7080  0.3474 -0.1898
 2164poe     o2 8681   4.797   0.291   2.361  0.4180  0.1719 -0.3697
 2164poe    c23 8682   4.785   0.205   2.250 -0.2609 -0.1297 -0.0699
 2164poe    c23 8683   4.804   0.287   2.121  0.4407 -0.1025  0.0473
 2164poe     o2 8684   4.922   0.362   2.138 -0.0184  0.5877  0.2818
 2164poe    c23 8685   4.958   0.446   2.032 -0.0680  0.8742  0.4921
 2164poe    c23 8686   5.061   0.556   2.066  0.5075  0.3808  0.3734
 2164poe     o2 8687   5.033   0.580   2.202 -0.5887  0.3460  0.1699
 2164poe    c31 8688   5.115   0.692   2.226  0.0354 -0.1257  0.2909
 2165poe    c31 8689   4.666   5.045   2.602  0.6997 -0.2054 -0.3911
 2165poe     o2 8690   4.696   5.154   2.518  0.1162  0.1039 -0.2000
 2165poe    c23 8691   4.607   5.165   2.409  0.1384 -0.4920 -0.2799
 2165poe    c23 8692   4.672   5.266   2.312 -0.0551  0.0709  0.1672
 2165poe     o2 8693   4.731   5.364   2.394  0.4031 -0.1110  0.0584
 2165poe    c23 8694   4.810   5.446   2.311  0.0641  0.0413 -0.1169
 2165poe    c23 8695   4.899   5.541   2.394 -0.4221  0.2118  0.2126
 2165poe     o2 8696   4.973   5.452   2.475 -0.1505  0.3019  0.0651
 2165poe    c23 8697   5.067   5.533   2.542 -0.2443  0.1306  0.4080
 2165poe    c23 8698   5.178   5.445   2.602 -0.0167  0.3552  0.3217
 2165poe     o2 8699   5.141   5.360   2.708  0.7012  0.0482  0.3313
 2165poe    c31 8700   5.224   5.252   2.746  0.7340 -0.1587 -0.3132
 2166poe    c31 8701   2.332   5.561   0.693 -0.0755 -0.1079 -0.4626
 2166poe     o2 8702   2.268   5.687   0.701  0.4548  0.1514 -0.2878
 2166poe    c23 8703   2.170   5.704   0.601  0.1652  0.9177  0.1190
 2166poe    c23 8704   2.097   5.839   0.592 -0.1449  0.7358 -0.1085
 2166poe     o2 8705   2.195   5.940   0.580  0.2236  0.4019  0.0794
 2166poe    c23 8706   2.118   6.052   0.614 -0.1215 -0.0293  0.7409
 2166poe    c23 8707   2.193   6.186   0.595 -0.3247 -0.0777 -0.4212
 2166poe     o2 8708   2.206   6.214   0.457  0.2538  0.0561 -0.3410
 2166poe    c23 8709   2.269   6.339   0.438  0.1355  0.1824  0.0790
 2166poe    c23 8710   2.210   6.469   0.496 -0.2556  0.0817 -0.0868
 2166poe     o2 8711   2.310   6.568   0.493 -0.2713  0.0982 -0.0651
 2166poe    c31 8712   2.282   6.670   0.586 -0.7485 -0.4668  0.4168
 2167poe    c31 8713   4.449   3.885   0.250 -0.1184 -0.2055 -0.1617
 2167poe     o2 8714   4.407   3.780   0.335 -0.1975 -0.0916 -0.0592
 2167poe    c23 8715   4.376   3.810   0.469  0.1022 -0.3228  0.0622
 2167poe    c23 8716   4.500   3.854   0.548 -0.2743  0.2239  0.3515
 2167poe     o2 8717   4.589   3.746   0.566 -0.1783  0.2625  0.1092
 2167poe    c23 8718   4.652   3.751   0.692  0.4469 -0.1141 -0.1840
 2167poe    c23 8719   4.757   3.639   0.682  0.1655 -0.3523 -0.4926
 2167poe     o2 8720   4.693   3.518   0.645 -0.4010 -0.1097 -0.3273
 2167poe    c23 8721   4.792   3.419   0.658 -0.0117  0.3969  0.6191
 2167poe    c23 8722   4.744   3.273   0.653 -0.1194  0.4736 -0.6922
 2167poe     o2 8723   4.645   3.230   0.744  0.1383 -0.3050 -0.7736
 2167poe    c31 8724   4.612   3.096   0.715  0.3087 -0.3422 -0.7960
 2168poe    c31 8725   1.290   0.635   1.334  0.1711  0.2278  0.3762
 2168poe     o2 8726   1.409   0.640   1.409 -0.0332  0.4604  0.6866
 2168poe    c23 8727   1.476   0.747   1.346 -0.1382  0.0957 -0.0621
 2168poe    c23 8728   1.628   0.755   1.370 -0.0473 -0.4168 -0.4587
 2168poe     o2 8729   1.695   0.678   1.273 -0.0139 -0.5605 -0.3211
 2168poe    c23 8730   1.828   0.725   1.274 -0.2413  0.0921  0.2226
 2168poe    c23 8731   1.904   0.652   1.161 -0.2751 -0.0130  0.2675
 2168poe     o2 8732   1.857   0.676   1.031  0.1146  0.0077  0.1300
 2168poe    c23 8733   1.960   0.647   0.940 -0.3499  0.0819 -0.4281
 2168poe    c23 8734   1.919   0.698   0.801  0.0370 -0.0634 -0.5989
 2168poe     o2 8735   1.799   0.626   0.779  0.0860 -0.3668  0.1179
 2168poe    c31 8736   1.766   0.628   0.642 -0.7093  0.4250  0.3083
 2169poe    c31 8737   0.564   0.835   0.065 -0.4710  0.3092  0.0965
 2169poe     o2 8738   0.693   0.863   0.016 -0.1967 -0.3934  0.4119
 2169poe    c23 8739   0.774   0.918   0.118  0.3125 -0.3023 -0.0388
 2169poe    c23 8740   0.878   0.820   0.173  0.1346 -0.4629  0.0123
 2169poe     o2 8741   0.981   0.811   0.077  0.3245  0.4138  0.1224
 2169poe    c23 8742   1.083   0.738   0.143  0.3748 -0.0738 -0.4808
 2169poe    c23 8743   1.203   0.746   0.047  0.4977 -0.1888 -0.3370
 2169poe     o2 8744   1.158   0.753  -0.087  0.6479  0.4332 -0.3587
 2169poe    c23 8745   1.262   0.786  -0.175  0.8356  0.4854 -0.1189
 2169poe    c23 8746   1.208   0.785  -0.319  0.2123  0.6305  0.1087
 2169poe     o2 8747   1.074   0.827  -0.310  0.1483  0.5299 -0.3217
 2169poe    c31 8748   1.009   0.820  -0.435 -0.1881 -0.3421 -0.1029
 2170poe    c31 8749   2.893   6.459   5.450 -1.0635  0.4327  0.1057
 2170poe     o2 8750   2.879   6.595   5.416 -0.0026  0.3847 -0.5642
 2170poe    c23 8751   2.875   6.610   5.276  0.2653  0.1854 -0.5963
 2170poe    c23 8752   2.837   6.748   5.219 -0.3026  0.2414 -0.0955
 2170poe     o2 8753   2.899   6.866   5.266 -0.1558 -0.0058  0.3347
 2170poe    c23 8754   2.821   6.979   5.236  0.2203  0.1514 -0.0596
 2170poe    c23 8755   2.913   7.097   5.273  0.2546  0.0837  0.0713
 2170poe     o2 8756   2.945   7.077   5.409  0.0340  0.2111  0.1444
 2170poe    c23 8757   3.020   7.177   5.475  0.2903  0.5687 -0.6766
 2170poe    c23 8758   3.090   7.128   5.603  0.3368  0.3963 -0.7684
 2170poe     o2 8759   3.172   7.022   5.558  0.3493  0.1055 -0.0697
 2170poe    c31 8760   3.275   6.984   5.646  0.2910  0.9424  0.3754
 2171poe    c31 8761   6.922   4.801   2.267 -0.3157  0.0003  0.7386
 2171poe     o2 8762   7.043   4.738   2.233 -0.2933  0.2403  0.3716
 2171poe    c23 8763   7.085   4.747   2.098 -0.6681  0.5971  0.2793
 2171poe    c23 8764   7.202   4.651   2.072 -0.7972  0.3610  0.5545
 2171poe     o2 8765   7.164   4.516   2.068  0.2029  0.0873 -0.5734
 2171poe    c23 8766   7.271   4.430   2.037  0.6913  0.3900  0.2479
 2171poe    c23 8767   7.233   4.293   1.978  0.1897  0.4923  0.3253
 2171poe     o2 8768   7.175   4.223   2.085 -0.1102 -0.6326 -0.5571
 2171poe    c23 8769   7.144   4.090   2.050  0.4489 -0.7716 -0.5284
 2171poe    c23 8770   7.119   4.018   2.184  0.1219 -0.2041 -0.2795
 2171poe     o2 8771   7.006   4.065   2.253  0.1558 -0.2027 -0.2242
 2171poe    c31 8772   6.981   3.990   2.369 -0.0531 -0.1507 -0.2344
 2172poe    c31 8773   7.049   4.514   1.337 -0.0857  0.2139  0.4730
 2172poe     o2 8774   7.049   4.610   1.234  0.1695 -0.2755  0.0115
 2172poe    c23 8775   6.918   4.626   1.186 -0.0237  0.1900  0.6756
 2172poe    c23 8776   6.925   4.749   1.093 -0.1594 -0.0569  0.3354
 2172poe     o2 8777   7.032   4.721   1.005 -0.3354  0.3033  0.0074
 2172poe    c23 8778   7.039   4.815   0.900 -0.4652  0.2594 -0.0417
 2172poe    c23 8779   7.118   4.761   0.779 -0.1519  0.1314  0.2190
 2172poe     o2 8780   7.249   4.722   0.816 -0.2124  0.1227  0.4274
 2172poe    c23 8781   7.298   4.615   0.738 -0.4983  0.0025  0.4080
 2172poe    c23 8782   7.450   4.619   0.765 -0.4047 -0.0334 -0.1033
 2172poe     o2 8783   7.476   4.537   0.877 -0.0634 -0.1643 -0.2785
 2172poe    c31 8784   7.611   4.498   0.861  0.0677  0.1468  0.0525
 2173poe    c31 8785   6.436   6.571   2.611  0.6601 -0.2698 -0.0899
 2173poe     o2 8786   6.448   6.704   2.564 -0.1603 -0.1322  0.0878
 2173poe    c23 8787   6.319   6.751   2.532  0.0140  0.4054  0.1681
 2173poe    c23 8788   6.314   6.895   2.478 -0.5976  0.2775 -0.1319
 2173poe     o2 8789   6.377   6.983   2.570  0.2599 -0.3261 -0.1277
 2173poe    c23 8790   6.375   7.121   2.540  0.1980 -0.2692  0.1375
 2173poe    c23 8791   6.238   7.189   2.531  0.4281  0.2494  0.5259
 2173poe     o2 8792   6.168   7.155   2.648  0.0811 -0.3164  0.1563
 2173poe    c23 8793   6.029   7.167   2.624  0.2182  0.3122 -0.3245
 2173poe    c23 8794   5.954   7.061   2.707  0.6533  0.2912  0.0464
 2173poe     o2 8795   6.026   7.054   2.828  0.2775  0.3675  0.2738
 2173poe    c31 8796   5.986   6.945   2.908 -0.6352  0.6172  0.1667
 2174poe    c31 8797   0.317   6.876   4.548 -0.3055 -0.2563 -0.0373
 2174poe     o2 8798   0.269   7.008   4.559  0.2445 -0.0504 -0.0453
 2174poe    c23 8799   0.327   7.071   4.671 -0.4991 -1.0165  0.9156
 2174poe    c23 8800   0.266   7.202   4.724  0.4286 -0.2898  0.2417
 2174poe     o2 8801   0.129   7.188   4.756  0.3602  0.1730  0.1510
 2174poe    c23 8802   0.069   7.314   4.773 -0.1186  0.0202 -0.3666
 2174poe    c23 8803  -0.080   7.286   4.800 -0.1517 -0.3230 -0.9004
 2174poe     o2 8804  -0.142   7.219   4.693 -0.4279 -0.7253 -0.4938
 2174poe    c23 8805  -0.277   7.194   4.727 -0.4147 -0.3916 -0.1884
 2174poe    c23 8806  -0.381   7.180   4.615 -0.2860  0.7093 -0.4531
 2174poe     o2 8807  -0.362   7.096   4.503 -0.4976  0.1809 -0.0955
 2174poe    c31 8808  -0.478   7.091   4.423 -0.0565 -0.8114 -0.6881
 2175poe    c31 8809   5.719   0.712   2.540  0.5356  0.6647  0.7037
 2175poe     o2 8810   5.840   0.660   2.592  0.4657 -0.0802  0.1292
 2175poe    c23 8811   5.903   0.554   2.523  0.3130  0.1956 -0.4400
 2175poe    c23 8812   6.038   0.531   2.594  0.2914 -0.0694 -0.4841
 2175poe     o2 8813   6.095   0.659   2.609  0.0367  0.0223 -0.3043
 2175poe    c23 8814   6.221   0.671   2.670  0.1069  0.4343 -0.5291
 2175poe    c23 8815   6.283   0.811   2.654  0.3253  0.4338  0.2522
 2175poe     o2 8816   6.204   0.911   2.714 -0.0603  0.3020 -0.0321
 2175poe    c23 8817   6.256   1.041   2.710  0.1445  0.2242  0.0809
 2175poe    c23 8818   6.178   1.141   2.797  0.2659  0.4067 -0.0177
 2175poe     o2 8819   6.049   1.150   2.743  0.0817 -0.4073  0.2693
 2175poe    c31 8820   5.986   1.266   2.792  1.0120 -0.0130  0.5563
 2176poe    c31 8821   0.742   0.285   0.388  0.1927  0.2693 -0.4903
 2176poe     o2 8822   0.804   0.294   0.514 -0.2011  0.0266 -0.2792
 2176poe    c23 8823   0.934   0.349   0.522  0.1120 -0.7476  0.0685
 2176poe    c23 8824   0.996   0.341   0.662  0.2281  0.4534  0.0899
 2176poe     o2 8825   0.918   0.391   0.768  0.1377 -0.0742  0.2714
 2176poe    c23 8826   0.972   0.343   0.889 -0.6234 -0.2083  0.5621
 2176poe    c23 8827   0.914   0.419   1.010  0.0489  0.2451  0.6052
 2176poe     o2 8828   0.780   0.449   0.979  0.1070  0.2104  0.3235
 2176poe    c23 8829   0.698   0.494   1.084 -0.2464 -0.2750  0.2589
 2176poe    c23 8830   0.559   0.534   1.030  0.0424  0.3543 -0.0211
 2176poe     o2 8831   0.580   0.604   0.909 -0.0127 -0.0250 -0.2540
 2176poe    c31 8832   0.454   0.643   0.860  0.0822 -0.4705 -0.8505
 2177poe    c31 8833   3.753   4.681   6.704  0.8086  0.3784 -0.6492
 2177poe     o2 8834   3.808   4.736   6.822  0.2934  0.5357 -0.4772
 2177poe    c23 8835   3.945   4.710   6.797  0.2154  0.5195 -0.9090
 2177poe    c23 8836   4.010   4.773   6.922 -0.8057 -0.1081 -0.0407
 2177poe     o2 8837   3.933   4.732   7.033  0.0123  0.3064  0.6973
 2177poe    c23 8838   3.961   4.606   7.089 -0.1602  0.0162  0.1412
 2177poe    c23 8839   3.912   4.607   7.235  0.3767 -0.0977  0.3259
 2177poe     o2 8840   3.771   4.611   7.233  0.3728 -0.2839  0.2436
 2177poe    c23 8841   3.708   4.569   7.352 -0.1344 -0.0619  0.0556
 2177poe    c23 8842   3.694   4.667   7.470  0.0426 -0.3082  0.2833
 2177poe     o2 8843   3.815   4.695   7.536 -0.1273  0.1541  0.4010
 2177poe    c31 8844   3.822   4.833   7.566  0.6270  0.0154  0.8869
 2178poe    c31 8845   5.627   5.280   2.937 -0.0566  0.3353 -0.0203
 2178poe     o2 8846   5.716   5.376   2.991  0.1548  0.0767  0.0956
 2178poe    c23 8847   5.678   5.420   3.119 -0.1716 -0.1769  0.0871
 2178poe    c23 8848   5.790   5.492   3.196 -0.2466 -0.0603  0.0868
 2178poe     o2 8849   5.803   5.621   3.140  0.1123 -0.1663 -0.0777
 2178poe    c23 8850   5.705   5.717   3.174  0.4420 -0.0036  0.4306
 2178poe    c23 8851   5.730   5.856   3.114 -0.0648 -0.0350  0.1381
 2178poe     o2 8852   5.747   5.861   2.974 -0.2819  0.6069  0.1310
 2178poe    c23 8853   5.626   5.866   2.902 -0.1822  0.1609 -0.0735
 2178poe    c23 8854   5.634   5.944   2.769 -0.0324 -0.0177 -0.1693
 2178poe     o2 8855   5.672   5.872   2.654  0.4806 -0.5085  0.2996
 2178poe    c31 8856   5.559   5.824   2.584  0.6109  0.0513 -0.3040
 2179poe    c31 8857   3.856   1.984   1.668  0.2292  0.8034  0.3927
 2179poe     o2 8858   3.805   1.983   1.536 -0.5094 -0.1480  0.6725
 2179poe    c23 8859   3.724   2.091   1.497 -0.4754 -0.4680 -0.3227
 2179poe    c23 8860   3.805   2.185   1.406  0.4951 -0.5624  0.4290
 2179poe     o2 8861   3.840   2.140   1.277 -0.5745 -0.2852  0.0351
 2179poe    c23 8862   3.896   2.225   1.180 -0.3630  0.0688  0.4630
 2179poe    c23 8863   4.037   2.271   1.220 -0.2965  0.3363 -0.0677
 2179poe     o2 8864   4.121   2.158   1.227 -0.4834  0.2504  1.0515
 2179poe    c23 8865   4.240   2.212   1.280 -0.1430  0.0199  0.5323
 2179poe    c23 8866   4.360   2.121   1.312 -0.1965 -0.2855 -0.1156
 2179poe     o2 8867   4.434   2.087   1.197  0.2339  0.7936 -0.1668
 2179poe    c31 8868   4.542   2.005   1.237 -0.6175 -0.1443  0.2559
 2180poe    c31 8869   6.822   3.087   0.058 -0.2202  0.0968  0.1756
 2180poe     o2 8870   6.762   3.153  -0.051 -0.4720 -0.3112  0.0601
 2180poe    c23 8871   6.653   3.083  -0.104 -0.2460 -0.3308 -0.3808
 2180poe    c23 8872   6.606   3.139  -0.240 -0.0181 -0.2879 -0.4414
 2180poe     o2 8873   6.712   3.158  -0.331  0.2619  0.0039 -0.0600
 2180poe    c23 8874   6.664   3.225  -0.446  0.1254  0.1709  0.0932
 2180poe    c23 8875   6.762   3.245  -0.563 -0.3869 -0.3386 -0.4266
 2180poe     o2 8876   6.886   3.273  -0.503 -0.3788 -0.0263 -0.5895
 2180poe    c23 8877   6.980   3.317  -0.599  0.1328 -0.4011 -0.2648
 2180poe    c23 8878   7.098   3.349  -0.506 -0.2663  0.2826  0.0110
 2180poe     o2 8879   7.123   3.240  -0.420 -0.2862 -0.2662 -0.6733
 2180poe    c31 8880   7.250   3.181  -0.437  0.0459  0.2894 -0.1796
 2181poe    c31 8881   6.987   0.511   3.520 -0.2563  0.0663  0.5197
 2181poe     o2 8882   6.974   0.383   3.576  0.3329 -0.1055  0.2698
 2181poe    c23 8883   6.886   0.301   3.503 -0.0023  0.1813  0.3503
 2181poe    c23 8884   6.863   0.163   3.568 -0.0762  0.0229 -0.0091
 2181poe     o2 8885   6.976   0.079   3.550  0.2549  0.4046  0.2717
 2181poe    c23 8886   6.977  -0.029   3.641  0.7384 -0.2514 -0.5022
 2181poe    c23 8887   7.033  -0.160   3.582  0.1490 -0.9141  0.3993
 2181poe     o2 8888   7.172  -0.140   3.576 -0.0398  0.3985 -0.0079
 2181poe    c23 8889   7.245  -0.260   3.564 -0.0088  0.3745  0.4143
 2181poe    c23 8890   7.381  -0.248   3.634  0.0469 -0.1714  0.4055
 2181poe     o2 8891   7.461  -0.153   3.567 -0.0244 -0.3713  0.0359
 2181poe    c31 8892   7.599  -0.161   3.593  0.0854  0.4167 -0.2831
 2182poe    c31 8893   5.917   6.599   0.732  0.6166  0.0334 -0.1777
 2182poe     o2 8894   5.848   6.694   0.811  0.0348 -0.0291 -0.6004
 2182poe    c23 8895   5.900   6.822   0.782  0.8541 -0.2967 -0.3504
 2182poe    c23 8896   5.830   6.917   0.881  0.1275 -0.3348 -0.8243
 2182poe     o2 8897   5.695   6.938   0.846 -0.0831 -0.1958  0.0510
 2182poe    c23 8898   5.640   7.045   0.920 -0.1861  0.2051 -0.6000
 2182poe    c23 8899   5.502   7.061   0.853 -0.2394 -0.7968 -0.7429
 2182poe     o2 8900   5.414   6.961   0.899 -0.1765 -0.5227 -0.0220
 2182poe    c23 8901   5.282   7.006   0.883  0.0388  0.0390 -0.2336
 2182poe    c23 8902   5.197   6.892   0.942  0.1881 -0.0529 -0.1964
 2182poe     o2 8903   5.222   6.768   0.879 -0.1805 -0.2653  0.0684
 2182poe    c31 8904   5.109   6.688   0.903 -0.4664  0.0032 -0.3594
 2183poe    c31 8905   5.179   4.072   0.255  0.2606  0.1759 -0.0318
 2183poe     o2 8906   5.297   4.111   0.322  0.2236  0.5300 -0.1704
 2183poe    c23 8907   5.403   4.018   0.318 -0.4290 -0.1890 -1.4837
 2183poe    c23 8908   5.540   4.073   0.361 -0.6175 -0.3268 -0.6901
 2183poe     o2 8909   5.537   4.112   0.496  0.0563 -0.5092 -0.6144
 2183poe    c23 8910   5.665   4.154   0.538 -0.3492 -0.1817  0.3309
 2183poe    c23 8911   5.656   4.216   0.679  0.4193 -0.0865  0.3405
 2183poe     o2 8912   5.545   4.302   0.685  0.2193 -0.3153 -0.0166
 2183poe    c23 8913   5.520   4.360   0.811 -1.0504 -0.5776 -0.1237
 2183poe    c23 8914   5.460   4.502   0.799  0.5274  0.0873 -0.4730
 2183poe     o2 8915   5.360   4.486   0.701  0.0938  0.3809 -0.0822
 2183poe    c31 8916   5.283   4.604   0.698 -0.2766  0.1564  0.4320
 2184poe    c31 8917   5.357   2.028   3.449 -0.3912 -0.1884 -0.2735
 2184poe     o2 8918   5.470   2.025   3.365 -0.1701  0.2770  0.0050
 2184poe    c23 8919   5.469   2.133   3.275  0.6957  0.1965 -0.1170
 2184poe    c23 8920   5.579   2.107   3.171  0.4429  0.6396 -0.4977
 2184poe     o2 8921   5.529   2.020   3.072 -0.3124  0.2079  0.2512
 2184poe    c23 8922   5.634   1.955   3.004 -0.6557  0.0031 -0.0845
 2184poe    c23 8923   5.598   1.885   2.872 -0.6192  0.5762 -0.3983
 2184poe     o2 8924   5.599   1.979   2.767 -0.1240  0.7405 -0.2487
 2184poe    c23 8925   5.597   1.901   2.649 -0.0831 -0.3746  0.4732
 2184poe    c23 8926   5.551   1.977   2.523 -0.3430  0.2618  0.9459
 2184poe     o2 8927   5.412   1.995   2.504 -0.3114 -0.5352 -0.1712
 2184poe    c31 8928   5.408   2.120   2.439 -0.1286 -0.1324  0.5751
 2185poe    c31 8929   5.027   5.568   1.018  0.4062 -1.0128  0.2769
 2185poe     o2 8930   5.086   5.542   0.893 -0.1033  0.0969 -0.2060
 2185poe    c23 8931   5.047   5.421   0.832 -0.2556  0.2662 -0.4510
 2185poe    c23 8932   5.029   5.451   0.682 -0.1529  0.3451 -0.4474
 2185poe     o2 8933   5.135   5.514   0.615  0.0992 -0.1381 -0.5015
 2185poe    c23 8934   5.243   5.432   0.576  0.5421  0.1941  0.0070
 2185poe    c23 8935   5.356   5.517   0.515 -0.1512  0.7477 -0.5320
 2185poe     o2 8936   5.397   5.619   0.603  0.0966  0.4061 -0.2466
 2185poe    c23 8937   5.485   5.713   0.547  0.1267  0.2976 -0.3825
 2185poe    c23 8938   5.541   5.799   0.662 -0.3567 -0.2514  0.2658
 2185poe     o2 8939   5.449   5.870   0.743 -0.2553  0.2555 -0.0652
 2185poe    c31 8940   5.437   6.005   0.702  0.3875  0.2412 -0.3214
 2186poe    c31 8941   5.809   4.814   1.110  0.3699 -0.0974  0.2668
 2186poe     o2 8942   5.869   4.919   1.037 -0.7554  0.4531  0.1191
 2186poe    c23 8943   5.799   4.958   0.921  0.0235 -0.5711 -0.7085
 2186poe    c23 8944   5.899   5.039   0.836 -0.0832  0.3088 -0.0155
 2186poe     o2 8945   5.980   5.119   0.918  0.0226  0.3681 -0.1772
 2186poe    c23 8946   6.016   5.234   0.845  0.2777  0.4748  0.1152
 2186poe    c23 8947   6.170   5.232   0.831  0.2529 -0.2381 -0.0771
 2186poe     o2 8948   6.242   5.277   0.943 -0.2786 -0.1807  0.2454
 2186poe    c23 8949   6.375   5.302   0.905 -0.4979  0.3712 -0.1597
 2186poe    c23 8950   6.468   5.368   1.008 -0.2646 -0.0763 -0.0806
 2186poe     o2 8951   6.500   5.282   1.115  0.4902 -0.1989 -0.4020
 2186poe    c31 8952   6.617   5.321   1.184  0.2632 -0.0776 -0.0847
 2187poe    c31 8953   1.247   2.142   6.336 -0.0260 -0.2035  1.0278
 2187poe     o2 8954   1.152   2.222   6.401 -0.3433  0.2462  0.0377
 2187poe    c23 8955   1.220   2.327   6.467  0.1782 -0.2539  0.3003
 2187poe    c23 8956   1.155   2.356   6.603  0.2014  0.2725  0.2031
 2187poe     o2 8957   1.159   2.244   6.690 -0.0591 -0.1272 -0.2960
 2187poe    c23 8958   1.109   2.281   6.816 -0.0704 -0.2067 -0.2772
 2187poe    c23 8959   1.034   2.167   6.888 -0.0233 -0.2910 -0.3625
 2187poe     o2 8960   1.126   2.074   6.941  0.1005 -0.1326 -0.2999
 2187poe    c23 8961   1.063   1.986   7.031 -0.0614  0.1993 -0.0860
 2187poe    c23 8962   1.167   1.874   7.050 -0.3940 -0.0546  0.2560
 2187poe     o2 8963   1.292   1.903   7.110 -0.4722 -0.0839  0.4336
 2187poe    c31 8964   1.300   1.842   7.237  0.0725 -0.3040  0.2941
 2188poe    c31 8965   6.082   1.056   7.126  0.0338  0.3110 -0.5201
 2188poe     o2 8966   6.147   1.180   7.109 -0.4702  0.6731  0.1245
 2188poe    c23 8967   6.110   1.232   6.983  0.9224 -0.2948 -0.7210
 2188poe    c23 8968   6.189   1.356   6.937  0.4432  0.3702  0.1868
 2188poe     o2 8969   6.138   1.465   7.010 -0.0484  0.1389  0.1913
 2188poe    c23 8970   6.216   1.580   6.988  0.0263 -0.0010 -0.2770
 2188poe    c23 8971   6.136   1.693   7.054 -0.3521 -0.4721  0.0750
 2188poe     o2 8972   6.128   1.658   7.190  0.1309  0.2220  0.2893
 2188poe    c23 8973   6.059   1.760   7.258 -0.3769 -0.0135  0.1333
 2188poe    c23 8974   6.016   1.681   7.382 -0.1226 -0.0324  0.2097
 2188poe     o2 8975   5.934   1.578   7.329  0.0929 -0.0981  0.0030
 2188poe    c31 8976   5.843   1.550   7.433  0.3410  0.1444  0.2893
 2189poe    c31 8977   4.285   3.960   4.940 -0.4934  0.4281 -0.2178
 2189poe     o2 8978   4.381   4.037   4.871 -0.1963  0.0410 -0.2352
 2189poe    c23 8979   4.337   4.095   4.751 -0.5943  0.5554  0.1585
 2189poe    c23 8980   4.442   4.174   4.670  0.0425 -0.0555  0.3806
 2189poe     o2 8981   4.542   4.096   4.609 -0.0449  0.1512 -0.0309
 2189poe    c23 8982   4.654   4.176   4.576 -0.4637  0.2785 -1.1899
 2189poe    c23 8983   4.760   4.082   4.516 -0.0036  0.1218 -0.1618
 2189poe     o2 8984   4.792   3.982   4.610  0.0520  0.0759 -0.2289
 2189poe    c23 8985   4.915   3.917   4.587  0.1234  0.0623  0.1755
 2189poe    c23 8986   4.931   3.820   4.705 -0.5612 -0.4767 -0.1662
 2189poe     o2 8987   4.808   3.752   4.721 -0.7060 -0.2139 -0.1537
 2189poe    c31 8988   4.829   3.653   4.818 -0.0631 -0.0219 -0.0874
 2190poe    c31 8989   1.614   5.578   7.067 -0.1837 -0.0573  0.8169
 2190poe     o2 8990   1.694   5.687   7.108  0.3847 -0.1282 -0.0897
 2190poe    c23 8991   1.688   5.708   7.247  0.3527 -1.1147  0.0651
 2190poe    c23 8992   1.816   5.785   7.282  0.1270 -0.2630 -0.9453
 2190poe     o2 8993   1.838   5.906   7.212  0.4470  0.1268 -0.1863
 2190poe    c23 8994   1.933   5.993   7.268  0.4238 -0.1059  0.2220
 2190poe    c23 8995   1.967   6.100   7.162 -0.1518 -0.3339 -0.1972
 2190poe     o2 8996   2.041   6.047   7.055 -0.2808 -0.1122 -0.3993
 2190poe    c23 8997   2.042   6.140   6.950 -0.4391  0.0735 -0.2353
 2190poe    c23 8998   2.132   6.081   6.840 -0.3913  0.0147 -0.1639
 2190poe     o2 8999   2.105   5.945   6.819 -0.0607  0.0118 -0.5914
 2190poe    c31 9000   2.171   5.898   6.704  0.5487 -0.0904 -0.2057
 2191poe    c31 9001   0.844   4.411   6.685 -0.0031  1.1611  0.3692
 2191poe     o2 9002   0.932   4.404   6.795  0.6425 -0.5430 -0.2162
 2191poe    c23 9003   0.939   4.278   6.858  0.1238 -0.9427 -0.9396
 2191poe    c23 9004   1.076   4.281   6.928 -0.3559  0.6456 -0.0121
 2191poe     o2 9005   1.073   4.403   6.998  0.3412  0.8020 -0.2463
 2191poe    c23 9006   1.171   4.411   7.099  0.1149  0.3089  0.0163
 2191poe    c23 9007   1.144   4.549   7.160 -0.8501  0.2215 -0.2032
 2191poe     o2 9008   1.148   4.650   7.061  0.9993 -0.1899 -0.5671
 2191poe    c23 9009   1.201   4.770   7.111  0.1923  0.0534 -0.2848
 2191poe    c23 9010   1.165   4.877   7.006 -0.6595 -0.0408 -0.0952
 2191poe     o2 9011   1.193   4.828   6.877 -0.0096 -0.4324  0.1891
 2191poe    c31 9012   1.163   4.937   6.793 -0.4391 -0.5308  0.2170
 2192poe    c31 9013   5.056   1.312   5.938  0.7281  1.0030 -0.1852
 2192poe     o2 9014   5.146   1.313   6.046 -0.0253 -0.2198  0.4744
 2192poe    c23 9015   5.067   1.254   6.147 -0.3779 -0.3925  0.1004
 2192poe    c23 9016   5.142   1.248   6.282 -0.1848  0.2269  0.0234
 2192poe     o2 9017   5.244   1.151   6.278 -0.4846 -0.1036  0.4699
 2192poe    c23 9018   5.343   1.196   6.368  0.1127  0.4150 -0.4429
 2192poe    c23 9019   5.351   1.098   6.486 -0.4430  0.1980 -0.5802
 2192poe     o2 9020   5.382   0.971   6.434 -0.3774 -0.1241  0.2304
 2192poe    c23 9021   5.360   0.867   6.527  0.2594 -0.4890 -0.0190
 2192poe    c23 9022   5.222   0.802   6.508  0.1521 -0.3182  0.1620
 2192poe     o2 9023   5.109   0.886   6.514  0.1420 -0.3824  0.8799
 2192poe    c31 9024   5.006   0.806   6.568 -0.6682 -0.1769 -0.3262
 2193poe    c31 9025   2.071   4.031   3.515 -0.3793  0.2344  0.3926
 2193poe     o2 9026   2.060   4.038   3.656  0.0642 -0.5150  0.4719
 2193poe    c23 9027   2.110   4.162   3.697  0.0832 -0.4353  0.2117
 2193poe    c23 9028   2.151   4.154   3.846  0.5501 -0.4019  0.0876
 2193poe     o2 9029   2.032   4.167   3.921  0.0457 -0.0898 -0.7494
 2193poe    c23 9030   2.062   4.156   4.058  0.1090  0.2634 -0.7341
 2193poe    c23 9031   1.934   4.190   4.135  0.4365 -0.4083  0.1218
 2193poe     o2 9032   1.835   4.109   4.075 -0.1941  0.3233  0.1533
 2193poe    c23 9033   1.713   4.118   4.143 -0.1189 -0.3853  0.3861
 2193poe    c23 9034   1.624   4.003   4.093 -0.0944 -0.2588  0.0521
 2193poe     o2 9035   1.629   4.006   3.952  0.1194 -0.3999  0.0575
 2193poe    c31 9036   1.531   3.918   3.902 -0.2053 -0.0442  0.0607
 2194poe    c31 9037   0.776   4.303   5.025 -0.2788  0.4163 -0.0208
 2194poe     o2 9038   0.808   4.434   5.066 -0.1635  0.4304 -0.1547
 2194poe    c23 9039   0.711   4.477   5.159  0.1446 -0.2105  0.4738
 2194poe    c23 9040   0.732   4.624   5.199 -0.3510  0.0574 -0.2346
 2194poe     o2 9041   0.700   4.724   5.105  0.3845  0.4853 -0.0353
 2194poe    c23 9042   0.796   4.828   5.115  0.6715  0.2221 -0.0353
 2194poe    c23 9043   0.797   4.898   4.979  0.2469  0.5005  0.1006
 2194poe     o2 9044   0.663   4.911   4.937  0.1700 -0.4337  0.0450
 2194poe    c23 9045   0.640   5.009   4.839 -0.1010 -0.4947  0.0454
 2194poe    c23 9046   0.710   5.000   4.702 -0.0787 -0.5287  0.0595
 2194poe     o2 9047   0.843   5.045   4.708 -0.2647  0.0638 -0.2851
 2194poe    c31 9048   0.922   4.955   4.632 -0.1499  0.0332 -0.1292
 2195poe    c31 9049   5.013   2.432   4.199  0.5468 -0.0176  0.2553
 2195poe     o2 9050   4.902   2.515   4.177  0.0535 -0.8360 -0.4360
 2195poe    c23 9051   4.887   2.583   4.299 -0.1597 -0.6986 -0.5376
 2195poe    c23 9052   4.839   2.727   4.277 -0.0252 -0.5972 -0.1788
 2195poe     o2 9053   4.730   2.733   4.187 -0.0656 -0.4760 -0.1224
 2195poe    c23 9054   4.655   2.852   4.200  0.1788 -0.3633  0.3070
 2195poe    c23 9055   4.509   2.824   4.157  0.3958 -0.7757 -0.1739
 2195poe     o2 9056   4.521   2.754   4.035 -0.0731 -0.4150 -0.4277
 2195poe    c23 9057   4.401   2.745   3.961 -0.1943  0.1101 -0.2970
 2195poe    c23 9058   4.447   2.681   3.829 -0.3730 -0.4818 -0.0722
 2195poe     o2 9059   4.528   2.575   3.876  0.2491  0.0385  0.0524
 2195poe    c31 9060   4.535   2.470   3.781  0.5867 -0.4997  0.6646
 2196poe    c31 9061   0.053   5.600   6.279  0.0895  0.8480 -0.7842
 2196poe     o2 9062   0.048   5.540   6.151  0.3165 -0.2745 -0.2759
 2196poe    c23 9063  -0.061   5.573   6.068  0.2781  0.0848 -0.0868
 2196poe    c23 9064  -0.143   5.447   6.033 -0.4222  0.4219  0.3117
 2196poe     o2 9065  -0.064   5.342   5.981 -0.1723  0.6729  0.1848
 2196poe    c23 9066  -0.135   5.234   5.926  0.5585  0.4496 -0.3350
 2196poe    c23 9067  -0.033   5.140   5.858  0.0671  0.0748 -0.5641
 2196poe     o2 9068   0.088   5.126   5.930 -0.2813  0.0374  0.0182
 2196poe    c23 9069   0.176   5.022   5.898 -0.1259  0.2888 -0.3755
 2196poe    c23 9070   0.287   5.008   6.004 -0.4886  0.2317 -0.0023
 2196poe     o2 9071   0.372   5.120   6.017  0.1000 -0.1251 -0.7402
 2196poe    c31 9072   0.466   5.114   6.121 -0.5468  0.3195 -0.1285
 2197poe    c31 9073   6.295   2.538   1.986  0.5197  0.0826  0.1959
 2197poe     o2 9074   6.214   2.629   2.056  0.5059 -0.2581  0.6257
 2197poe    c23 9075   6.077   2.603   2.033  0.6717 -0.4617 -0.1632
 2197poe    c23 9076   6.006   2.735   1.998  0.5899 -0.4095  0.1969
 2197poe     o2 9077   6.034   2.789   1.871 -0.2364  0.4911  0.3844
 2197poe    c23 9078   6.012   2.928   1.855 -0.0935  0.4254 -0.4314
 2197poe    c23 9079   6.125   3.018   1.802  0.4598  0.0112  0.0324
 2197poe     o2 9080   6.247   3.031   1.871  0.1385 -0.0004  0.6128
 2197poe    c23 9081   6.322   3.132   1.807  0.1413 -0.1941  0.3086
 2197poe    c23 9082   6.459   3.142   1.877  0.1638  0.4878  0.1785
 2197poe     o2 9083   6.439   3.102   2.011 -0.0181  0.5781  0.1784
 2197poe    c31 9084   6.560   3.079   2.080 -0.3970 -0.2944  0.5616
 2198poe    c31 9085   6.807   5.410   3.318 -0.2642 -0.0318 -0.4959
 2198poe     o2 9086   6.731   5.292   3.317 -0.0745 -0.1555 -0.4307
 2198poe    c23 9087   6.805   5.192   3.249  0.2748  0.0152 -0.2994
 2198poe    c23 9088   6.774   5.052   3.305 -0.1031  0.0949 -0.3109
 2198poe     o2 9089   6.640   5.007   3.308  0.0308 -0.2762  0.1784
 2198poe    c23 9090   6.608   4.919   3.202 -0.3974 -0.0037  0.0813
 2198poe    c23 9091   6.477   4.851   3.244 -0.5043 -0.3270 -0.7514
 2198poe     o2 9092   6.398   4.943   3.316  0.1593 -0.4378  0.1422
 2198poe    c23 9093   6.259   4.922   3.329  0.1264 -0.0897  0.3785
 2198poe    c23 9094   6.208   5.041   3.411 -0.0569 -0.1313  0.3249
 2198poe     o2 9095   6.301   5.069   3.513 -0.0228 -0.1295  0.2932
 2198poe    c31 9096   6.240   5.142   3.617 -0.5358 -0.4160  0.1966
 2199poe    c31 9097   2.319   5.006   7.071 -0.1806  0.4111  0.2069
 2199poe     o2 9098   2.344   4.897   7.156 -0.3865  0.0774 -0.1592
 2199poe    c23 9099   2.324   4.778   7.082  0.2021  0.0310 -0.2506
 2199poe    c23 9100   2.380   4.658   7.160 -0.3337  0.0118  0.1119
 2199poe     o2 9101   2.330   4.666   7.292 -0.2446  0.4329  0.1228
 2199poe    c23 9102   2.395   4.565   7.366  0.0951  0.2033 -0.4798
 2199poe    c23 9103   2.383   4.591   7.517  0.0871  0.2707 -0.4921
 2199poe     o2 9104   2.412   4.728   7.528  0.0208  0.2386  0.1127
 2199poe    c23 9105   2.411   4.764   7.665 -0.4563  0.1605  0.1288
 2199poe    c23 9106   2.462   4.908   7.682  0.1182 -0.0111 -0.1343
 2199poe     o2 9107   2.598   4.916   7.644  0.2276 -0.4820  0.1452
 2199poe    c31 9108   2.668   4.980   7.748  0.2731 -0.8719  0.3573
 2200poe    c31 9109   2.197   2.985   1.535  0.5482 -0.6243 -0.3927
 2200poe     o2 9110   2.088   2.969   1.447 -0.0436  0.2008  0.1856
 2200poe    c23 9111   2.098   3.074   1.353  0.1085  0.0108 -0.0093
 2200poe    c23 9112   2.035   3.045   1.215  0.3689 -0.5937 -0.0025
 2200poe     o2 9113   1.895   3.054   1.219  0.4061 -0.1413  0.3584
 2200poe    c23 9114   1.839   3.009   1.098 -0.3191  0.0395  0.6213
 2200poe    c23 9115   1.696   2.952   1.113 -0.5230  0.1678 -0.7110
 2200poe     o2 9116   1.613   3.051   1.170  0.3800  0.4708  0.1087
 2200poe    c23 9117   1.477   3.014   1.167  0.5810 -0.3188  0.4796
 2200poe    c23 9118   1.389   3.132   1.211  0.0935 -0.7132  0.5716
 2200poe     o2 9119   1.407   3.158   1.348  0.0063  0.8481  0.3085
 2200poe    c31 9120   1.281   3.203   1.393 -0.6245 -0.1603 -0.3995
 2201poe    c31 9121   5.896   6.551   0.061 -0.4175 -0.0043 -0.0267
 2201poe     o2 9122   5.895   6.522  -0.077 -0.4143  0.0878 -0.0465
 2201poe    c23 9123   5.836   6.637  -0.132  0.2629  0.1440 -0.6668
 2201poe    c23 9124   5.840   6.652  -0.286  0.0039  0.6290 -0.6271
 2201poe     o2 9125   5.749   6.563  -0.348  0.4723 -0.2476 -0.0713
 2201poe    c23 9126   5.734   6.610  -0.480  0.3814 -0.2010 -0.0452
 2201poe    c23 9127   5.839   6.575  -0.587  0.1816 -0.1808 -0.2466
 2201poe     o2 9128   5.962   6.642  -0.572 -0.2484  0.6842 -0.5237
 2201poe    c23 9129   6.065   6.572  -0.637 -0.1834  0.2147  0.0757
 2201poe    c23 9130   6.210   6.625  -0.627 -0.1845  0.2121  0.1048
 2201poe     o2 9131   6.213   6.734  -0.716 -0.2960 -0.1662 -0.3709
 2201poe    c31 9132   6.351   6.759  -0.730 -0.1958  0.0335  0.8275
 2202poe    c31 9133   3.437   5.716   1.142 -0.0638 -0.0026  0.1657
 2202poe     o2 9134   3.491   5.814   1.056  0.0436 -0.2427 -0.0421
 2202poe    c23 9135   3.396   5.916   1.034  0.2208 -0.2232 -0.7262
 2202poe    c23 9136   3.454   6.048   0.981  0.0449  0.1171 -0.0845
 2202poe     o2 9137   3.583   6.050   1.037 -0.2664  0.2155  0.6349
 2202poe    c23 9138   3.642   6.177   1.027 -0.2002  0.1318 -0.1005
 2202poe    c23 9139   3.779   6.189   1.096 -0.1223 -0.4086 -0.1571
 2202poe     o2 9140   3.889   6.121   1.040  0.2243  0.3484 -0.4163
 2202poe    c23 9141   4.020   6.136   1.091 -0.0224  0.2394  0.2601
 2202poe    c23 9142   4.098   6.025   1.018  0.0427  0.2365  0.3328
 2202poe     o2 9143   4.052   5.896   1.054  0.0167  0.0176 -0.4652
 2202poe    c31 9144   4.152   5.796   1.058 -0.3942 -0.3732  0.0637
 2203poe    c31 9145   3.125   3.756   6.387  0.4447 -0.4961 -0.1108
 2203poe     o2 9146   3.108   3.806   6.256 -0.1338  0.6127  0.3711
 2203poe    c23 9147   3.240   3.808   6.205 -0.1794 -0.4768  0.1920
 2203poe    c23 9148   3.238   3.772   6.055  0.4070 -0.4412  0.1742
 2203poe     o2 9149   3.167   3.877   5.994  0.4354 -0.7386 -0.3807
 2203poe    c23 9150   3.158   3.856   5.855  0.0507 -0.3404 -0.4199
 2203poe    c23 9151   3.116   3.987   5.786  0.3499  0.0857  0.1984
 2203poe     o2 9152   2.991   4.026   5.838  0.1622  0.1406 -0.2924
 2203poe    c23 9153   2.957   4.155   5.795  0.1396  0.1673 -0.1948
 2203poe    c23 9154   2.817   4.198   5.844 -0.1509 -0.4855 -0.4433
 2203poe     o2 9155   2.835   4.177   5.982  0.3032  0.2814 -0.3796
 2203poe    c31 9156   2.737   4.245   6.057  0.3151  0.3169 -0.3967
 2204poe    c31 9157   0.080   1.081   1.110 -0.0840 -0.0439 -0.1012
 2204poe     o2 9158   0.064   1.082   1.250  0.3688 -0.0278 -0.0459
 2204poe    c23 9159   0.034   1.209   1.304 -0.1019  0.0404 -0.4540
 2204poe    c23 9160   0.049   1.202   1.457  0.2071  0.1531 -0.4784
 2204poe     o2 9161   0.177   1.161   1.498  0.0810 -0.0297 -0.2661
 2204poe    c23 9162   0.244   1.259   1.573  0.2497 -0.7175  0.5040
 2204poe    c23 9163   0.367   1.195   1.640  0.6185  0.2601  0.7828
 2204poe     o2 9164   0.322   1.093   1.726  0.2230 -0.1214  0.1348
 2204poe    c23 9165   0.410   1.076   1.835  0.4076 -0.4712 -0.0698
 2204poe    c23 9166   0.346   0.974   1.933 -0.3004  0.3953  0.3870
 2204poe     o2 9167   0.312   0.869   1.845  0.0527  0.1389  0.5543
 2204poe    c31 9168   0.299   0.745   1.911 -0.1316 -0.3512 -0.3890
 2205poe    c31 9169   6.206   3.802   0.037 -0.1057 -0.6059 -0.1595
 2205poe     o2 9170   6.335   3.756   0.070  0.1233  0.0286 -0.1419
 2205poe    c23 9171   6.432   3.843   0.016  0.1506  0.1826  0.1532
 2205poe    c23 9172   6.579   3.811   0.048  0.1751 -0.2865 -0.4181
 2205poe     o2 9173   6.605   3.850   0.181  0.0719 -0.6258 -0.2969
 2205poe    c23 9174   6.732   3.799   0.215  0.3161  0.0075 -0.2386
 2205poe    c23 9175   6.748   3.804   0.368 -0.1779 -0.1126 -0.1784
 2205poe     o2 9176   6.640   3.763   0.448  0.0183  0.5224  0.4175
 2205poe    c23 9177   6.671   3.787   0.584  0.7829 -0.6003  0.4524
 2205poe    c23 9178   6.558   3.722   0.667  0.1893 -0.2562 -0.0752
 2205poe     o2 9179   6.432   3.779   0.638  0.3978  0.3997  0.2844
 2205poe    c31 9180   6.326   3.693   0.672  0.0026  0.4004 -0.8724
 2206poe    c31 9181   2.819   4.016   0.765 -0.3836  0.4297  0.1309
 2206poe     o2 9182   2.942   4.066   0.717 -0.1050 -0.3738 -0.0174
 2206poe    c23 9183   3.046   3.983   0.764  0.4430  0.2122 -0.1853
 2206poe    c23 9184   3.180   4.055   0.743  0.4316  0.2901  0.0076
 2206poe     o2 9185   3.154   4.191   0.770 -0.2736  0.1331  0.1315
 2206poe    c23 9186   3.278   4.257   0.756 -0.3333  0.3150  0.4520
 2206poe    c23 9187   3.277   4.407   0.726 -0.3908  0.1818 -0.2193
 2206poe     o2 9188   3.188   4.432   0.620 -0.2472 -0.2122 -0.4353
 2206poe    c23 9189   3.173   4.570   0.594  0.1742 -0.1670 -0.4421
 2206poe    c23 9190   3.081   4.621   0.481 -0.3413  0.5141  0.2772
 2206poe     o2 9191   2.948   4.583   0.504 -0.4265  0.7087  0.1106
 2206poe    c31 9192   2.854   4.654   0.426 -0.2322  0.4567 -0.3590
 2207poe    c31 9193   2.419   1.697   4.065 -0.2765 -0.1439  0.3011
 2207poe     o2 9194   2.438   1.827   4.014  0.6295 -0.3240  0.1542
 2207poe    c23 9195   2.452   1.918   4.120  0.0581 -0.1608  0.0928
 2207poe    c23 9196   2.457   2.060   4.059  0.3466 -0.1646  0.1087
 2207poe     o2 9197   2.336   2.082   3.990  0.0313 -0.8131  0.4402
 2207poe    c23 9198   2.347   2.220   3.961 -0.2407 -0.9648 -0.3871
 2207poe    c23 9199   2.252   2.277   3.854 -0.0068  0.4082  0.1280
 2207poe     o2 9200   2.134   2.219   3.903  0.4481 -1.1329 -0.5412
 2207poe    c23 9201   2.028   2.238   3.812  0.0156  0.4722  0.2645
 2207poe    c23 9202   2.015   2.124   3.710  0.2989  0.2471  0.4808
 2207poe     o2 9203   2.028   2.008   3.789 -0.3126 -0.2048 -0.0698
 2207poe    c31 9204   1.970   1.895   3.728  0.0498 -0.2670 -0.3065
 2208poe    c31 9205   5.659   6.982   6.694 -0.0594  0.0769 -0.2877
 2208poe     o2 9206   5.665   7.095   6.779 -0.0653 -0.0742 -0.0841
 2208poe    c23 9207   5.542   7.126   6.839  0.0696  0.1694  0.0647
 2208poe    c23 9208   5.576   7.257   6.913 -0.5943  0.3741  0.0140
 2208poe     o2 9209   5.696   7.242   6.984 -0.3320  0.5049 -0.3978
 2208poe    c23 9210   5.741   7.357   7.053  0.5994  0.2520 -0.5663
 2208poe    c23 9211   5.882   7.355   7.113  0.0733  0.5744  0.7090
 2208poe     o2 9212   5.969   7.362   7.002 -0.3860  0.3147  0.3328
 2208poe    c23 9213   6.105   7.342   7.033 -0.3613 -0.0508  0.0023
 2208poe    c23 9214   6.204   7.357   6.917 -0.2636 -0.2611  0.0584
 2208poe     o2 9215   6.171   7.258   6.821 -0.2729  0.0520 -0.2626
 2208poe    c31 9216   6.276   7.260   6.727  0.1771 -0.0328  0.2301
 2209poe    c31 9217   4.374   1.164   6.636  0.6189  0.3437 -0.0627
 2209poe     o2 9218   4.298   1.233   6.732  0.8490  0.3855  0.0888
 2209poe    c23 9219   4.236   1.345   6.671  0.0521 -0.0651  0.0620
 2209poe    c23 9220   4.136   1.417   6.763 -0.6066  0.1267 -0.7874
 2209poe     o2 9221   4.022   1.338   6.793 -0.2885 -0.1250 -0.2101
 2209poe    c23 9222   3.918   1.419   6.842  0.0319 -0.0212  0.3079
 2209poe    c23 9223   3.923   1.492   6.977 -0.2554  0.0119  0.3023
 2209poe     o2 9224   4.028   1.585   6.991 -0.1223 -0.1732  0.5525
 2209poe    c23 9225   4.060   1.606   7.126 -0.0221 -0.1730  0.5297
 2209poe    c23 9226   4.193   1.683   7.116 -0.2310  0.1026 -0.1667
 2209poe     o2 9227   4.299   1.602   7.072 -0.3288 -0.1536  0.0667
 2209poe    c31 9228   4.424   1.655   7.111 -0.4199 -0.0436  0.2101
 2210poe    c31 9229   0.860   2.913   2.508 -0.0323 -0.4397  0.7633
 2210poe     o2 9230   0.797   2.978   2.400  0.0953 -0.7663  0.4926
 2210poe    c23 9231   0.659   2.949   2.389 -0.1696  0.3939  0.6322
 2210poe    c23 9232   0.591   3.036   2.282 -0.4607 -0.2164  0.3146
 2210poe     o2 9233   0.638   3.168   2.301 -0.1278 -0.2754 -0.0824
 2210poe    c23 9234   0.531   3.260   2.295  0.0274 -0.1050 -0.2834
 2210poe    c23 9235   0.583   3.404   2.293  0.1715 -0.1467  0.3323
 2210poe     o2 9236   0.638   3.455   2.174 -0.1334 -0.5163  0.0337
 2210poe    c23 9237   0.538   3.531   2.110  0.2161 -0.2513 -0.1995
 2210poe    c23 9238   0.581   3.615   1.988  0.5070  0.1150  0.1516
 2210poe     o2 9239   0.652   3.725   2.039 -0.0661  0.5606 -0.0112
 2210poe    c31 9240   0.656   3.826   1.940 -0.4456 -0.2146 -0.8317
 2211poe    c31 9241   6.601   7.011   6.620  0.2626 -0.1487 -0.0759
 2211poe     o2 9242   6.734   7.006   6.665  0.0795  0.0105  0.4928
 2211poe    c23 9243   6.766   7.122   6.738 -0.0690  0.3275  0.0585
 2211poe    c23 9244   6.919   7.107   6.750 -0.1013 -0.1035 -0.0577
 2211poe     o2 9245   6.939   6.979   6.805  0.5556 -0.1859 -0.4768
 2211poe    c23 9246   7.077   6.957   6.823  0.5303 -0.4869 -0.6366
 2211poe    c23 9247   7.097   6.805   6.809  0.5806 -0.5062 -0.3603
 2211poe     o2 9248   7.009   6.775   6.703  0.3183  0.3685 -0.4022
 2211poe    c23 9249   7.018   6.643   6.654 -0.0400  0.1323  0.1489
 2211poe    c23 9250   6.905   6.639   6.549  0.2442 -0.3364 -0.1440
 2211poe     o2 9251   6.800   6.724   6.589  0.1664 -0.4780 -0.0439
 2211poe    c31 9252   6.671   6.674   6.561 -0.2675  0.4767  0.1972
 2212poe    c31 9253   5.984   6.687   1.220  0.7947 -0.2468 -0.4326
 2212poe     o2 9254   5.930   6.814   1.195 -0.1802 -0.5795 -0.0709
 2212poe    c23 9255   5.798   6.812   1.246 -0.0235  0.1997  0.3827
 2212poe    c23 9256   5.755   6.954   1.287  0.0774  0.2765  0.2251
 2212poe     o2 9257   5.833   7.017   1.385  0.5922  0.1295 -0.0879
 2212poe    c23 9258   5.892   7.136   1.337 -0.0476  0.3027 -0.4510
 2212poe    c23 9259   5.987   7.215   1.429  0.0157  0.8853 -1.0065
 2212poe     o2 9260   5.953   7.269   1.555 -0.0428 -0.7234 -0.2962
 2212poe    c23 9261   5.939   7.181   1.663  0.0058 -0.5696 -0.1641
 2212poe    c23 9262   5.897   7.246   1.796  0.1159 -0.4961 -0.1646
 2212poe     o2 9263   5.758   7.256   1.820  0.2370  0.5163  0.1499
 2212poe    c31 9264   5.708   7.326   1.932 -0.2047 -0.0447  0.3049
 2213poe    c31 9265   1.744   2.071   4.054 -0.4686 -0.1673 -0.1675
 2213poe     o2 9266   1.701   2.188   4.118 -0.2535  0.0061 -0.3381
 2213poe    c23 9267   1.676   2.170   4.256 -0.2970  0.3407 -0.2996
 2213poe    c23 9268   1.617   2.291   4.330 -0.5963 -0.0368  0.0865
 2213poe     o2 9269   1.701   2.404   4.327 -0.0541 -0.4274  0.3521
 2213poe    c23 9270   1.638   2.519   4.380 -0.0653 -0.0474 -0.4790
 2213poe    c23 9271   1.742   2.625   4.423  0.2546 -0.5023 -0.1258
 2213poe     o2 9272   1.802   2.681   4.309 -0.3899 -0.3017 -0.3735
 2213poe    c23 9273   1.931   2.638   4.269 -0.3959 -0.3758 -0.3125
 2213poe    c23 9274   1.968   2.706   4.136  0.4644  0.3148  0.2692
 2213poe     o2 9275   1.892   2.682   4.020 -0.1899 -0.3367  0.8253
 2213poe    c31 9276   1.955   2.737   3.907 -0.1616 -0.6119  0.7050
 2214poe    c31 9277   4.322   3.222   5.074 -0.4756  0.1274 -0.4489
 2214poe     o2 9278   4.354   3.119   4.984 -0.1437 -0.1911  0.0330
 2214poe    c23 9279   4.434   3.167   4.878 -0.1079  0.2452  0.2557
 2214poe    c23 9280   4.444   3.058   4.770 -0.2448  0.3089  0.1791
 2214poe     o2 9281   4.316   3.000   4.758 -0.0463 -0.1108  0.0563
 2214poe    c23 9282   4.315   2.913   4.647  0.0923 -0.3371  0.2330
 2214poe    c23 9283   4.195   2.822   4.677 -0.5121  0.4237  0.1376
 2214poe     o2 9284   4.178   2.790   4.813  0.4314 -0.0055  0.1579
 2214poe    c23 9285   4.064   2.709   4.828  0.3513  0.1766  0.5521
 2214poe    c23 9286   4.073   2.621   4.954 -0.4622 -0.3493  0.2489
 2214poe     o2 9287   4.082   2.699   5.071 -0.0693 -0.2224  0.1347
 2214poe    c31 9288   4.126   2.622   5.180  0.1975  0.1679  0.3030
 2215poe    c31 9289   6.702   4.706   5.867 -0.7032  0.4990 -0.3067
 2215poe     o2 9290   6.671   4.710   6.005 -0.0599 -0.2063 -0.1343
 2215poe    c23 9291   6.775   4.775   6.074 -0.4666 -0.2024  0.4828
 2215poe    c23 9292   6.735   4.814   6.217 -0.4218  0.1051  0.4129
 2215poe     o2 9293   6.598   4.842   6.231 -0.5013  0.2646 -0.6350
 2215poe    c23 9294   6.575   4.903   6.356 -0.1678 -0.1552 -0.3670
 2215poe    c23 9295   6.515   5.045   6.351 -0.2290 -0.1751 -0.2205
 2215poe     o2 9296   6.597   5.143   6.291  0.1468 -0.1073  0.3991
 2215poe    c23 9297   6.549   5.275   6.294  0.4295  0.0112 -0.2324
 2215poe    c23 9298   6.594   5.344   6.424 -0.0537 -0.0410 -0.0376
 2215poe     o2 9299   6.733   5.369   6.430 -0.0655  0.0560 -0.1695
 2215poe    c31 9300   6.757   5.422   6.558 -0.1157 -0.6419  0.1327
 2216poe    c31 9301   1.965   0.653   2.104  0.0913 -0.6421  0.6442
 2216poe     o2 9302   2.046   0.733   2.020 -0.6744  0.0107  0.5136
 2216poe    c23 9303   1.977   0.845   1.968  0.3774  0.4735  0.0940
 2216poe    c23 9304   2.046   0.927   1.857  0.2563  0.1929 -0.1907
 2216poe     o2 9305   2.158   1.003   1.895  0.0160  0.0607  0.8200
 2216poe    c23 9306   2.174   1.109   1.803 -0.3157 -0.0656  0.6147
 2216poe    c23 9307   2.254   1.224   1.868  0.1591  0.1884 -0.4143
 2216poe     o2 9308   2.359   1.173   1.947 -0.6373 -0.3439  0.3077
 2216poe    c23 9309   2.445   1.276   1.992 -0.2624 -0.3632 -0.3634
 2216poe    c23 9310   2.395   1.363   2.108 -0.3232 -0.4326 -0.3371
 2216poe     o2 9311   2.348   1.289   2.218  0.3596 -0.2323  0.0997
 2216poe    c31 9312   2.303   1.377   2.319 -1.0267 -0.0147 -0.6856
 2217poe    c31 9313   0.060   3.207   3.180 -0.1472  0.5309 -0.3662
 2217poe     o2 9314  -0.012   3.096   3.129  0.5271 -0.2193  0.2774
 2217poe    c23 9315  -0.090   3.020   3.218  0.1111 -0.6318 -0.4352
 2217poe    c23 9316  -0.160   2.893   3.166 -1.1310 -0.2818  0.3391
 2217poe     o2 9317  -0.245   2.928   3.059 -0.4521  0.5455  0.0618
 2217poe    c23 9318  -0.348   2.832   3.061 -0.2037  0.2875  0.7343
 2217poe    c23 9319  -0.474   2.860   2.976  0.3795  0.1072 -0.1919
 2217poe     o2 9320  -0.425   2.909   2.853 -0.0227  0.9403 -0.0250
 2217poe    c23 9321  -0.510   2.873   2.746 -0.4554  0.1485  0.5742
 2217poe    c23 9322  -0.468   2.944   2.616 -0.3797  0.0845  0.5643
 2217poe     o2 9323  -0.347   2.873   2.594 -0.5451  0.1416 -0.5603
 2217poe    c31 9324  -0.298   2.883   2.462  0.3615  0.6891 -0.1843
 2218poe    c31 9325   6.679   1.949   6.724  0.0144  0.2779 -0.2970
 2218poe     o2 9326   6.560   1.957   6.648 -0.1365 -0.5383 -0.1547
 2218poe    c23 9327   6.532   2.086   6.597 -0.1404 -0.4280  0.1255
 2218poe    c23 9328   6.413   2.084   6.501  0.3994  0.2463 -0.5649
 2218poe     o2 9329   6.289   2.099   6.567  0.4798  0.4054 -0.4506
 2218poe    c23 9330   6.186   2.121   6.473 -0.0687 -0.4432 -0.0657
 2218poe    c23 9331   6.068   2.201   6.531 -0.0187 -0.3871 -0.0412
 2218poe     o2 9332   6.017   2.155   6.654  0.3155  0.0750  0.2742
 2218poe    c23 9333   5.884   2.192   6.679  0.2541  0.1251 -0.1246
 2218poe    c23 9334   5.833   2.118   6.804  0.2420  0.1340 -0.1243
 2218poe     o2 9335   5.901   2.149   6.924 -0.3920  0.0455  0.2613
 2218poe    c31 9336   5.819   2.093   7.024 -0.4110  0.1435  0.3018
 2219poe    c31 9337   4.106   1.524   1.624 -0.1313  0.5877  0.1483
 2219poe     o2 9338   4.040   1.516   1.500 -0.2800 -0.1267  0.2674
 2219poe    c23 9339   4.007   1.381   1.481  0.0057 -0.2024  0.3079
 2219poe    c23 9340   3.934   1.356   1.347 -0.0565 -0.1250  0.3271
 2219poe     o2 9341   3.817   1.434   1.354 -0.4364 -0.6965  0.4637
 2219poe    c23 9342   3.767   1.468   1.226  0.0176  0.2752  0.5319
 2219poe    c23 9343   3.626   1.528   1.244 -0.2655 -0.1219 -0.2925
 2219poe     o2 9344   3.620   1.596   1.368  0.4114  0.0032 -0.3248
 2219poe    c23 9345   3.491   1.652   1.367  0.3150 -0.2123  0.0020
 2219poe    c23 9346   3.484   1.767   1.469  0.4762  0.0797 -0.3156
 2219poe     o2 9347   3.484   1.727   1.604 -0.1331 -0.1614 -0.3860
 2219poe    c31 9348   3.490   1.839   1.689 -0.2049 -0.5246  0.1065
 2220poe    c31 9349   6.819   1.890   3.732  0.7028 -0.1098 -0.4862
 2220poe     o2 9350   6.779   1.892   3.597  0.0707  0.0996 -0.3006
 2220poe    c23 9351   6.870   1.817   3.519 -0.2221 -0.4237 -0.1489
 2220poe    c23 9352   6.857   1.668   3.484  0.0960 -0.4371 -0.2112
 2220poe     o2 9353   6.727   1.656   3.431  0.1945 -0.6027 -0.4197
 2220poe    c23 9354   6.705   1.531   3.370 -0.0139 -0.4638 -0.6300
 2220poe    c23 9355   6.567   1.529   3.301 -0.1449  0.1378 -0.3896
 2220poe     o2 9356   6.549   1.637   3.211 -1.0597  0.5675  0.2915
 2220poe    c23 9357   6.429   1.618   3.141 -0.7878  0.1523 -0.0707
 2220poe    c23 9358   6.383   1.762   3.110  0.4665  0.4766 -0.4740
 2220poe     o2 9359   6.359   1.838   3.226 -0.1256  0.2747 -0.4631
 2220poe    c31 9360   6.316   1.969   3.197 -0.2145  0.3229 -0.1231
 2221poe    c31 9361   1.251   3.699   6.667 -0.2314 -0.0461 -0.5461
 2221poe     o2 9362   1.287   3.702   6.530  0.5296  0.1954 -0.3481
 2221poe    c23 9363   1.413   3.765   6.523  0.1850  0.9275 -0.1415
 2221poe    c23 9364   1.458   3.780   6.376 -0.2779 -0.2498 -0.4146
 2221poe     o2 9365   1.337   3.809   6.309 -0.2891 -0.1965 -0.3721
 2221poe    c23 9366   1.371   3.827   6.173  0.2572 -0.1303 -0.2277
 2221poe    c23 9367   1.239   3.879   6.113 -0.0556 -0.6205  0.0357
 2221poe     o2 9368   1.139   3.783   6.138 -0.5057 -0.1844 -0.0908
 2221poe    c23 9369   1.037   3.818   6.047  0.0442  0.3188 -0.5251
 2221poe    c23 9370   0.921   3.716   6.052  0.0470  0.3294 -0.1639
 2221poe     o2 9371   0.872   3.671   6.176  0.0956 -0.4740 -0.4315
 2221poe    c31 9372   0.737   3.629   6.170  0.1727 -0.7205 -0.4426
 2222poe    c31 9373   6.187   1.774   0.511  0.2843 -0.2395  0.2230
 2222poe     o2 9374   6.284   1.874   0.489 -0.0257 -0.0328 -0.2271
 2222poe    c23 9375   6.378   1.864   0.594 -0.2454  0.1489 -0.0116
 2222poe    c23 9376   6.463   1.991   0.579  0.3924 -0.3019 -0.2362
 2222poe     o2 9377   6.384   2.108   0.585  0.9963  0.1128 -0.2884
 2222poe    c23 9378   6.460   2.208   0.649  0.1094  0.3280  0.4486
 2222poe    c23 9379   6.507   2.308   0.542 -0.5161  0.0366 -0.1044
 2222poe     o2 9380   6.391   2.367   0.487 -0.6596  0.0867  0.2490
 2222poe    c23 9381   6.444   2.477   0.417  0.4193 -0.5449  0.0516
 2222poe    c23 9382   6.348   2.523   0.306  0.1821 -0.3606  0.3331
 2222poe     o2 9383   6.250   2.604   0.367  0.0398  0.1277 -0.5263
 2222poe    c31 9384   6.145   2.622   0.275 -0.1127  0.1153 -0.3561
 2223poe    c31 9385   4.593   2.339   1.046  0.2341 -0.0380  0.1809
 2223poe     o2 9386   4.472   2.275   1.011 -0.0966  0.1967  0.8801
 2223poe    c23 9387   4.410   2.358   0.915  0.1922 -0.6235 -0.0269
 2223poe    c23 9388   4.269   2.298   0.924 -0.1049  0.1555  0.5274
 2223poe     o2 9389   4.279   2.158   0.917  0.0388  0.1914  0.0404
 2223poe    c23 9390   4.152   2.096   0.922  0.2380 -0.2275 -0.0643
 2223poe    c23 9391   4.153   1.954   0.861  0.3724 -0.3121  0.1327
 2223poe     o2 9392   4.254   1.885   0.930  0.5157 -0.2889 -0.0546
 2223poe    c23 9393   4.274   1.755   0.878 -0.4755 -0.5035  0.0902
 2223poe    c23 9394   4.377   1.697   0.976  0.0592 -0.1153 -0.2346
 2223poe     o2 9395   4.505   1.756   0.972 -0.1568  0.3999  0.3473
 2223poe    c31 9396   4.590   1.651   1.014  0.1127  0.4851  0.0159
 2224poe    c31 9397   3.480   6.188   3.059  0.1998  0.0487 -0.0080
 2224poe     o2 9398   3.505   6.103   2.949 -0.3663 -0.0211 -0.0856
 2224poe    c23 9399   3.578   6.162   2.844 -0.8518  0.2551 -0.2748
 2224poe    c23 9400   3.611   6.069   2.726  0.0956  0.4377 -0.1652
 2224poe     o2 9401   3.493   6.026   2.662  0.3186  0.3873 -0.5413
 2224poe    c23 9402   3.528   5.922   2.573  0.1696 -0.1527  0.0279
 2224poe    c23 9403   3.413   5.897   2.473  0.0696 -0.1060  0.1303
 2224poe     o2 9404   3.300   5.907   2.557 -0.4722 -0.0528 -0.5985
 2224poe    c23 9405   3.185   5.854   2.496 -0.5193  0.1335 -0.6717
 2224poe    c23 9406   3.072   5.841   2.600  0.4884  0.0814  0.4288
 2224poe     o2 9407   3.027   5.968   2.643  0.1268  0.1373 -0.1099
 2224poe    c31 9408   2.941   5.948   2.754  0.5477  0.6789  0.3184
 2225poe    c31 9409   2.013   6.332   2.460  0.2957  0.2312 -0.1344
 2225poe     o2 9410   2.136   6.400   2.479  0.1975  0.3855 -0.0496
 2225poe    c23 9411   2.199   6.337   2.588  0.3269 -0.2206 -0.4653
 2225poe    c23 9412   2.333   6.405   2.624  0.0144  0.3115 -0.2904
 2225poe     o2 9413   2.333   6.529   2.690  0.5128  0.0441  0.2222
 2225poe    c23 9414   2.464   6.581   2.693  0.6138 -0.2344  0.7566
 2225poe    c23 9415   2.490   6.715   2.763  0.3305 -0.0316  0.4730
 2225poe     o2 9416   2.503   6.719   2.904  0.0736 -0.1693  0.5022
 2225poe    c23 9417   2.470   6.850   2.944 -0.0043 -0.0657  0.1089
 2225poe    c23 9418   2.598   6.936   2.948 -0.3120  0.3727  0.5786
 2225poe     o2 9419   2.669   6.896   3.064 -0.0366 -0.0303  0.2731
 2225poe    c31 9420   2.738   6.999   3.132  0.3409 -0.1848  0.1246
 2226poe    c31 9421   0.689   2.220   6.685  0.2516  0.2846  0.1008
 2226poe     o2 9422   0.726   2.308   6.581 -0.1923  0.0748 -0.2382
 2226poe    c23 9423   0.688   2.439   6.615  0.3866  0.1780  0.0273
 2226poe    c23 9424   0.777   2.531   6.529  0.3160  0.3568  0.1435
 2226poe     o2 9425   0.767   2.483   6.396 -0.6172  0.4505  0.1760
 2226poe    c23 9426   0.847   2.549   6.301 -0.4488  0.4136  0.2918
 2226poe    c23 9427   0.831   2.471   6.168 -0.1235  0.0927  0.4373
 2226poe     o2 9428   0.857   2.333   6.179 -0.5734 -0.0866 -0.6481
 2226poe    c23 9429   0.887   2.280   6.052  0.3387 -0.1396 -0.4221
 2226poe    c23 9430   0.790   2.163   6.030 -0.0392  0.0490  0.2133
 2226poe     o2 9431   0.654   2.184   6.062 -0.2262  0.1071 -0.5938
 2226poe    c31 9432   0.560   2.150   5.962 -0.7172 -0.0425 -0.0841
 2227poe    c31 9433   0.787   3.148   0.250  0.5219 -0.5966  0.4427
 2227poe     o2 9434   0.740   3.167   0.382 -0.2082  0.5677  0.0359
 2227poe    c23 9435   0.627   3.084   0.392  0.1488  0.1358  0.5528
 2227poe    c23 9436   0.578   3.093   0.538 -0.2490  0.2071  0.4168
 2227poe     o2 9437   0.669   3.017   0.615  0.1328  0.5753  0.3288
 2227poe    c23 9438   0.688   3.069   0.744  0.0170  0.1575  0.5139
 2227poe    c23 9439   0.805   3.032   0.838  0.0208 -0.0154  0.4411
 2227poe     o2 9440   0.928   3.070   0.780 -0.0401 -0.5218 -0.0241
 2227poe    c23 9441   1.039   3.090   0.863 -0.4184  1.0193  0.1382
 2227poe    c23 9442   1.163   3.137   0.784 -0.0734 -0.2381 -0.0849
 2227poe     o2 9443   1.207   3.043   0.688 -0.1271 -0.3667  0.0148
 2227poe    c31 9444   1.345   3.066   0.672 -0.1070 -0.6300 -0.2019
 2228poe    c31 9445   0.496   1.770   0.951  0.2165 -0.5164  0.1088
 2228poe     o2 9446   0.391   1.698   0.891  0.1682 -0.4474  0.1094
 2228poe    c23 9447   0.321   1.627   0.992 -0.3306  0.0553  0.1193
 2228poe    c23 9448   0.222   1.529   0.928  0.0022 -0.0345 -0.2595
 2228poe     o2 9449   0.297   1.446   0.841  0.3750 -0.0522  0.0750
 2228poe    c23 9450   0.211   1.335   0.823 -0.0708  0.2490  0.3052
 2228poe    c23 9451   0.256   1.236   0.714 -0.1905  0.1468  0.3498
 2228poe     o2 9452   0.197   1.277   0.592  0.9641  0.5866 -0.0773
 2228poe    c23 9453   0.270   1.248   0.475  1.1332 -0.0715  0.1864
 2228poe    c23 9454   0.247   1.354   0.367 -0.1647 -0.8648 -0.3384
 2228poe     o2 9455   0.118   1.371   0.311 -0.0236 -0.4840 -0.5557
 2228poe    c31 9456   0.124   1.436   0.186 -0.1161  1.2998  0.3416
 2229poe    c31 9457   4.366   4.853   5.890 -0.2372  0.3176 -0.1618
 2229poe     o2 9458   4.403   4.935   5.998  0.0809  0.2743 -0.2375
 2229poe    c23 9459   4.324   4.888   6.105  0.6556  0.1007  0.1109
 2229poe    c23 9460   4.378   4.942   6.239 -0.3468  0.5410  0.3432
 2229poe     o2 9461   4.501   4.882   6.275 -0.4661 -0.0648 -0.2319
 2229poe    c23 9462   4.491   4.806   6.393 -0.3467  0.0082 -0.1759
 2229poe    c23 9463   4.631   4.763   6.441 -0.1722  0.3600 -0.3652
 2229poe     o2 9464   4.716   4.869   6.481  0.0742  0.0304 -0.0092
 2229poe    c23 9465   4.844   4.826   6.521  0.2798 -0.0015 -0.7036
 2229poe    c23 9466   4.950   4.936   6.503 -0.2178  0.3744 -1.3798
 2229poe     o2 9467   4.883   5.054   6.543 -0.1886 -0.0461 -0.0592
 2229poe    c31 9468   4.981   5.143   6.590 -0.3459  0.3283 -0.4383
 2230poe    c31 9469   6.841   4.940   7.009  0.1899  0.5698  0.0956
 2230poe     o2 9470   6.834   4.966   7.147  0.0091  0.1547  0.1656
 2230poe    c23 9471   6.899   4.851   7.198 -0.4646 -0.2084 -0.0401
 2230poe    c23 9472   6.859   4.844   7.347 -0.3640 -0.1350 -0.0095
 2230poe     o2 9473   6.890   4.962   7.418  0.0327 -0.0434 -0.3308
 2230poe    c23 9474   6.866   4.953   7.556  0.0990 -0.4689 -0.3455
 2230poe    c23 9475   6.879   5.102   7.591 -0.3683 -0.3650 -0.6135
 2230poe     o2 9476   6.815   5.190   7.501 -0.6000 -0.1615 -0.2517
 2230poe    c23 9477   6.768   5.291   7.587 -0.0464 -0.1626  0.0562
 2230poe    c23 9478   6.700   5.407   7.512 -0.3067  0.0190  0.5636
 2230poe     o2 9479   6.794   5.471   7.428 -0.8265 -0.1952 -0.1948
 2230poe    c31 9480   6.763   5.600   7.379  0.7962  0.5538  0.6674
 2231poe    c31 9481   6.450   1.786   4.653  0.2688 -0.0929  0.2505
 2231poe     o2 9482   6.358   1.721   4.738 -0.3212  0.1322 -0.2084
 2231poe    c23 9483   6.369   1.753   4.875 -0.4143  0.2085 -0.2184
 2231poe    c23 9484   6.282   1.674   4.975 -0.1169 -0.2107 -0.2870
 2231poe     o2 9485   6.290   1.534   4.986  0.1785 -0.1605  0.1395
 2231poe    c23 9486   6.181   1.479   5.056 -0.0507  0.0555 -0.0470
 2231poe    c23 9487   6.174   1.326   5.051 -0.8983  0.0844  0.1768
 2231poe     o2 9488   6.147   1.270   4.924 -0.1388 -0.2153  0.1424
 2231poe    c23 9489   6.190   1.136   4.913 -0.5649 -0.3279 -0.1623
 2231poe    c23 9490   6.154   1.078   4.775 -0.2260  0.0009 -0.3910
 2231poe     o2 9491   6.156   1.183   4.681  0.3459  0.0972 -0.2736
 2231poe    c31 9492   6.131   1.142   4.549 -0.7702  0.1512 -0.0882
 2232poe    c31 9493   7.126   1.900   3.117 -0.5121  0.3321  0.0809
 2232poe     o2 9494   7.048   1.793   3.070 -0.0924  0.0181  0.0904
 2232poe    c23 9495   6.911   1.802   3.104 -0.2555  0.1603 -0.5949
 2232poe    c23 9496   6.834   1.720   2.999 -0.8928  0.1163 -0.0984
 2232poe     o2 9497   6.852   1.751   2.863  0.5833 -0.5188 -0.0712
 2232poe    c23 9498   6.804   1.880   2.832  0.0229 -0.7409 -0.1477
 2232poe    c23 9499   6.825   1.908   2.682 -0.5209 -0.2259 -0.1335
 2232poe     o2 9500   6.958   1.936   2.644 -0.4512 -0.1996  0.1297
 2232poe    c23 9501   6.999   1.842   2.547 -0.4081  0.1873 -0.2302
 2232poe    c23 9502   7.131   1.888   2.483 -0.2503 -0.0488 -0.0806
 2232poe     o2 9503   7.130   2.023   2.440 -0.4997 -0.0444 -0.0625
 2232poe    c31 9504   7.258   2.032   2.382 -0.3025  0.0137  0.3793
 2233poe    c31 9505   5.079   1.548   1.694 -0.2655 -0.0561 -0.5605
 2233poe     o2 9506   5.102   1.653   1.785 -0.4192 -0.2030 -0.3522
 2233poe    c23 9507   5.237   1.692   1.794 -0.5177  0.1777 -0.5162
 2233poe    c23 9508   5.258   1.824   1.871 -0.0157  0.0744 -0.4702
 2233poe     o2 9509   5.210   1.787   1.998 -0.0837  0.0688 -0.4973
 2233poe    c23 9510   5.237   1.887   2.094 -0.1718 -0.3916  0.0099
 2233poe    c23 9511   5.185   1.830   2.228 -0.0816 -0.1921  0.1304
 2233poe     o2 9512   5.059   1.767   2.223  0.0363 -0.4251  0.1096
 2233poe    c23 9513   5.018   1.719   2.349  0.7096 -0.2959  0.3817
 2233poe    c23 9514   4.880   1.655   2.323  0.5766  0.0729  0.1709
 2233poe     o2 9515   4.881   1.535   2.251  0.0748  0.1146  0.0967
 2233poe    c31 9516   4.748   1.488   2.238 -0.1088  0.3181  1.2027
 2234poe    c31 9517   2.288   5.655   2.470 -0.2091 -0.0155 -0.4267
 2234poe     o2 9518   2.178   5.735   2.432 -0.4365  0.0940  0.4218
 2234poe    c23 9519   2.167   5.847   2.517 -0.5518 -0.1508  0.7295
 2234poe    c23 9520   2.040   5.923   2.476 -0.2147  0.2455  0.4043
 2234poe     o2 9521   2.050   5.934   2.336 -0.2622  0.4294  0.4152
 2234poe    c23 9522   1.926   5.963   2.275 -0.0026 -0.4096 -0.5433
 2234poe    c23 9523   1.957   5.989   2.127 -0.5391 -0.2503 -0.6307
 2234poe     o2 9524   2.051   5.893   2.085  0.7762  0.8262 -0.2531
 2234poe    c23 9525   2.027   5.852   1.952 -0.0655  0.4962 -0.0104
 2234poe    c23 9526   2.140   5.906   1.862 -0.4236  0.2172 -0.6300
 2234poe     o2 9527   2.270   5.874   1.904 -0.5293  0.3140 -0.2208
 2234poe    c31 9528   2.361   5.916   1.805 -0.1768 -0.3774 -0.2000
 2235poe    c31 9529   3.589   1.037   3.877 -0.4356  0.2723  0.2138
 2235poe     o2 9530   3.462   1.005   3.928 -0.6157  0.7023  0.0380
 2235poe    c23 9531   3.463   0.999   4.068 -0.9186  0.2108  0.0249
 2235poe    c23 9532   3.439   0.852   4.108  0.5580 -0.0386  0.0726
 2235poe     o2 9533   3.305   0.813   4.083  0.4900  0.0517  0.2968
 2235poe    c23 9534   3.285   0.674   4.093  0.1300  0.0614 -0.2572
 2235poe    c23 9535   3.148   0.624   4.044  0.4256 -0.5773 -0.4400
 2235poe     o2 9536   3.126   0.656   3.909 -0.0340  0.0054 -0.2295
 2235poe    c23 9537   3.029   0.562   3.868 -0.0654 -0.1237  0.1346
 2235poe    c23 9538   3.014   0.572   3.715  0.4119 -0.0965  0.0902
 2235poe     o2 9539   2.998   0.709   3.685  0.7539 -0.0470  0.1228
 2235poe    c31 9540   2.975   0.735   3.549  0.1343 -0.4104  0.1540
 2236poe    c31 9541   5.264   0.104   1.917 -0.1364 -0.4189  0.4966
 2236poe     o2 9542   5.212  -0.024   1.948  0.0364 -0.6508 -0.1480
 2236poe    c23 9543   5.071  -0.027   1.942 -0.0363  0.5672  0.5285
 2236poe    c23 9544   5.001  -0.054   2.076 -0.3639 -0.0290  0.2378
 2236poe     o2 9545   5.013  -0.182   2.134 -0.0335 -0.0607  0.1002
 2236poe    c23 9546   4.946  -0.195   2.257  0.4908  0.4772  0.4506
 2236poe    c23 9547   4.960  -0.340   2.308  0.2688  0.2386 -0.1618
 2236poe     o2 9548   5.098  -0.361   2.325  0.2176  0.2353  0.2630
 2236poe    c23 9549   5.124  -0.492   2.368 -0.0537 -0.0719 -0.4955
 2236poe    c23 9550   5.278  -0.503   2.366 -0.0368  0.0760  0.0426
 2236poe     o2 9551   5.310  -0.463   2.235  0.2903  0.1845  0.1538
 2236poe    c31 9552   5.425  -0.532   2.191 -0.0097 -0.2268 -0.0009
 2237poe    c31 9553   2.099   4.496   4.081  0.1036 -0.7289  0.3606
 2237poe     o2 9554   2.190   4.417   4.155  0.4870 -0.6718 -0.0463
 2237poe    c23 9555   2.323   4.437   4.113  0.3267  0.6678  0.0227
 2237poe    c23 9556   2.426   4.331   4.158 -0.2996  0.0488  0.0224
 2237poe     o2 9557   2.478   4.350   4.288 -0.4662  0.2827  0.0565
 2237poe    c23 9558   2.393   4.322   4.396 -0.2531  0.1424  0.1887
 2237poe    c23 9559   2.461   4.334   4.534  0.5166 -0.0595 -0.1693
 2237poe     o2 9560   2.460   4.466   4.582  0.6208 -0.2109  0.2513
 2237poe    c23 9561   2.576   4.481   4.660  0.7597  0.5017 -0.0861
 2237poe    c23 9562   2.575   4.620   4.726  0.1214  0.3521  0.2277
 2237poe     o2 9563   2.577   4.722   4.629  0.3524 -0.2056 -0.3613
 2237poe    c31 9564   2.706   4.773   4.605  0.2133  0.2499 -0.1603
 2238poe    c31 9565   2.739   0.156   2.429 -0.0944 -0.1590  0.1725
 2238poe     o2 9566   2.643   0.259   2.421  0.2272  0.1445  0.1639
 2238poe    c23 9567   2.611   0.316   2.546  0.0980 -0.1272  0.2555
 2238poe    c23 9568   2.471   0.378   2.531  0.1926  0.0288  0.0061
 2238poe     o2 9569   2.480   0.465   2.420 -0.4552 -0.0165 -0.0871
 2238poe    c23 9570   2.361   0.539   2.404 -0.4911 -0.0820 -0.1273
 2238poe    c23 9571   2.360   0.609   2.267 -0.3598 -0.2734 -0.2248
 2238poe     o2 9572   2.401   0.511   2.174  0.2915  0.1767 -0.4213
 2238poe    c23 9573   2.409   0.568   2.045 -0.3974  0.4490 -0.3457
 2238poe    c23 9574   2.458   0.477   1.931 -0.1455  0.5278 -0.3021
 2238poe     o2 9575   2.594   0.451   1.953 -0.4371 -0.6674  0.1813
 2238poe    c31 9576   2.666   0.422   1.835  0.5144  0.2969  0.5073
 2239poe    c31 9577   3.150   2.605   4.687  0.7651 -0.1928  0.5153
 2239poe     o2 9578   3.200   2.485   4.743  0.8305 -0.6377 -0.4692
 2239poe    c23 9579   3.191   2.492   4.884 -0.3335  0.1638 -0.5701
 2239poe    c23 9580   3.252   2.365   4.944 -0.3216  0.2614 -0.3745
 2239poe     o2 9581   3.380   2.356   4.885 -0.0641 -0.3188  0.2605
 2239poe    c23 9582   3.452   2.236   4.908  0.1031 -0.2842 -0.0794
 2239poe    c23 9583   3.591   2.233   4.843  0.1726 -0.0671  0.0580
 2239poe     o2 9584   3.579   2.227   4.703 -0.3917 -0.5833  0.1261
 2239poe    c23 9585   3.695   2.163   4.655 -0.3552 -0.0187 -0.5624
 2239poe    c23 9586   3.668   2.060   4.544  0.3496 -0.5899 -0.2139
 2239poe     o2 9587   3.610   2.098   4.421  0.3411  0.0073 -0.0303
 2239poe    c31 9588   3.617   1.998   4.321  0.4876 -0.0695  0.0554
 2240poe    c31 9589   3.422   4.841   5.880 -0.4805 -0.2918  0.1440
 2240poe     o2 9590   3.442   4.975   5.842 -0.3166 -0.2712  0.3004
 2240poe    c23 9591   3.333   5.056   5.879  0.0473  0.0978  0.5771
 2240poe    c23 9592   3.354   5.208   5.860  0.0633 -0.0290 -0.4936
 2240poe     o2 9593   3.454   5.263   5.943  0.3781 -0.4106 -0.6160
 2240poe    c23 9594   3.466   5.402   5.920  0.3627 -0.1227  0.9826
 2240poe    c23 9595   3.590   5.460   5.990  0.7439  0.1502  0.0923
 2240poe     o2 9596   3.699   5.371   5.975  0.6450  0.1363 -0.5893
 2240poe    c23 9597   3.809   5.446   6.022  0.1565  0.4046  0.1522
 2240poe    c23 9598   3.927   5.349   6.002 -0.2787 -0.0472 -0.2625
 2240poe     o2 9599   3.924   5.279   5.879  0.0757 -0.4530 -0.0423
 2240poe    c31 9600   4.045   5.207   5.866  0.3562  0.1603 -0.9036
 2241poe    c31 9601   1.305   4.279   3.560  0.3910 -0.3901  0.1354
 2241poe     o2 9602   1.291   4.228   3.691 -0.1555 -0.1723  0.1669
 2241poe    c23 9603   1.318   4.336   3.778  0.2011  0.0748 -0.2477
 2241poe    c23 9604   1.366   4.266   3.906 -0.2435  0.4469  0.1229
 2241poe     o2 9605   1.285   4.166   3.963 -0.0173  0.1669 -0.0475
 2241poe    c23 9606   1.181   4.209   4.048  0.1259  0.4858 -0.0338
 2241poe    c23 9607   1.114   4.090   4.119 -0.5797  0.9564  0.1047
 2241poe     o2 9608   1.048   4.017   4.018  0.1352  0.3423  0.0720
 2241poe    c23 9609   0.940   3.953   4.082  0.4481 -0.3236 -0.0580
 2241poe    c23 9610   0.868   3.875   3.970  0.3853 -0.1944 -0.1068
 2241poe     o2 9611   0.868   3.944   3.847  0.4425 -0.1435 -0.0785
 2241poe    c31 9612   0.769   3.896   3.759 -0.1001  0.8665 -0.0222
 2242poe    c31 9613   6.157   1.004   1.046 -0.0060  0.2593 -0.0020
 2242poe     o2 9614   6.074   0.944   0.950  0.2830 -0.2841  0.0816
 2242poe    c23 9615   6.162   0.923   0.842  0.3330 -0.2497  0.1157
 2242poe    c23 9616   6.091   0.859   0.720  0.5084 -0.0772 -0.0759
 2242poe     o2 9617   6.033   0.731   0.733  0.1318  0.1255  0.2602
 2242poe    c23 9618   6.100   0.634   0.656 -0.3915  0.1148 -0.1802
 2242poe    c23 9619   5.993   0.527   0.626 -0.1427 -0.2499  0.2277
 2242poe     o2 9620   5.888   0.540   0.719 -0.0235  0.0427  0.3213
 2242poe    c23 9621   5.779   0.461   0.676  0.1838  0.0624 -0.2429
 2242poe    c23 9622   5.691   0.463   0.802  0.1981 -0.2106 -0.2282
 2242poe     o2 9623   5.685   0.594   0.853  0.4870 -0.3409  0.1422
 2242poe    c31 9624   5.562   0.609   0.920  0.3499  0.3009 -0.2469
 2243poe    c31 9625   0.881   5.186   7.091 -0.2547 -0.3655  0.6099
 2243poe     o2 9626   0.993   5.261   7.133 -0.5615  0.0402  0.7165
 2243poe    c23 9627   1.099   5.182   7.183 -0.0764  0.3692  0.2157
 2243poe    c23 9628   1.208   5.284   7.223  0.1458  0.2593 -0.1145
 2243poe     o2 9629   1.145   5.391   7.288 -0.0509 -0.1238  0.3293
 2243poe    c23 9630   1.235   5.482   7.348 -0.0940  0.0901  0.0725
 2243poe    c23 9631   1.168   5.584   7.443  0.4481 -0.1424  0.7102
 2243poe     o2 9632   1.043   5.634   7.403  0.4717 -0.1303  0.6514
 2243poe    c23 9633   0.993   5.734   7.489 -0.0180  0.2380 -0.0557
 2243poe    c23 9634   0.841   5.724   7.516 -0.0548  0.0041 -0.3439
 2243poe     o2 9635   0.805   5.599   7.570  0.0793 -0.1978 -0.7180
 2243poe    c31 9636   0.666   5.581   7.577  0.1209 -0.1482  0.6316
 2244poe    c31 9637   2.214   2.493   6.043  0.6403 -0.6174 -0.5731
 2244poe     o2 9638   2.101   2.411   6.062  0.2013  0.2199  0.5674
 2244poe    c23 9639   2.119   2.311   6.159  0.4458 -0.1079  0.1907
 2244poe    c23 9640   2.008   2.206   6.134  0.2751  0.1064  0.0484
 2244poe     o2 9641   2.005   2.146   6.007 -0.3243  0.0980  0.0658
 2244poe    c23 9642   1.884   2.074   6.001  0.4425 -1.2289  0.1633
 2244poe    c23 9643   1.870   2.015   5.859  0.2889  0.0952 -0.3949
 2244poe     o2 9644   1.893   2.096   5.747 -0.0940 -0.2314 -0.7153
 2244poe    c23 9645   1.784   2.185   5.732  0.0648  0.1446  0.2659
 2244poe    c23 9646   1.795   2.290   5.620 -0.0398 -0.2380 -0.1084
 2244poe     o2 9647   1.803   2.236   5.490 -0.1903 -0.5068 -0.0073
 2244poe    c31 9648   1.930   2.207   5.437 -0.0720 -0.1585  0.0832
 2245poe    c31 9649   4.393   2.928   2.479  0.0346  0.7999 -0.1394
 2245poe     o2 9650   4.378   2.877   2.610 -0.7078  0.0134 -0.5131
 2245poe    c23 9651   4.387   2.737   2.623 -0.2196  0.1075  0.2050
 2245poe    c23 9652   4.391   2.700   2.773 -0.9252  0.0202  0.2022
 2245poe     o2 9653   4.491   2.763   2.849 -0.3956 -0.1356 -0.3525
 2245poe    c23 9654   4.474   2.728   2.985  0.5362  0.1097 -0.1640
 2245poe    c23 9655   4.609   2.693   3.051  0.1726  0.3109  0.6959
 2245poe     o2 9656   4.714   2.781   3.016  0.2935 -0.2297 -0.3511
 2245poe    c23 9657   4.809   2.814   3.115  0.1937  0.6158 -0.5243
 2245poe    c23 9658   4.920   2.892   3.043  0.4664 -0.0315 -0.8096
 2245poe     o2 9659   4.862   3.014   3.003  0.0290 -0.1202 -0.4471
 2245poe    c31 9660   4.949   3.125   2.997 -0.6184  0.4195  0.0621
 2246poe    c31 9661   6.253   6.095   4.756  0.0651 -1.1176 -0.5455
 2246poe     o2 9662   6.372   6.050   4.817  0.5325  0.3620 -0.3215
 2246poe    c23 9663   6.404   5.933   4.746 -0.1162 -0.0913  0.1177
 2246poe    c23 9664   6.539   5.939   4.672 -0.3494 -0.5019 -0.3513
 2246poe     o2 9665   6.646   5.925   4.764 -0.3157 -0.1976 -0.3431
 2246poe    c23 9666   6.771   5.912   4.700 -0.3863 -0.6139 -0.3961
 2246poe    c23 9667   6.881   5.880   4.803 -0.6245 -0.0141  0.0486
 2246poe     o2 9668   6.907   5.984   4.895  0.2011 -0.0268 -0.1637
 2246poe    c23 9669   7.036   5.958   4.946 -0.1552 -0.2738  0.6312
 2246poe    c23 9670   7.060   6.019   5.086  0.5760 -0.0206  0.4038
 2246poe     o2 9671   6.974   5.959   5.180 -0.1713  0.8025  0.2600
 2246poe    c31 9672   7.021   5.987   5.309  0.0734 -0.0067  0.3534
 2247poe    c31 9673   6.181   1.881   4.346 -0.1297  0.6398  0.3000
 2247poe     o2 9674   6.104   1.785   4.415 -0.2527  0.1177 -0.5479
 2247poe    c23 9675   6.121   1.654   4.365 -0.2426 -0.0686 -0.0649
 2247poe    c23 9676   5.990   1.573   4.353 -0.1407 -0.3428  0.6357
 2247poe     o2 9677   5.916   1.537   4.468 -0.1892  0.1754  0.7743
 2247poe    c23 9678   5.780   1.512   4.443 -0.1752  0.3552  0.5161
 2247poe    c23 9679   5.703   1.451   4.561 -0.2506 -0.4471  0.0571
 2247poe     o2 9680   5.674   1.533   4.672  0.0271 -0.3970  0.0928
 2247poe    c23 9681   5.577   1.474   4.754  0.3065 -0.3360  0.4691
 2247poe    c23 9682   5.517   1.563   4.865  0.0266  0.4384 -0.2967
 2247poe     o2 9683   5.607   1.599   4.967 -0.2289 -0.2046  0.1634
 2247poe    c31 9684   5.539   1.675   5.063 -0.1402 -0.3636  0.3537
 2248poe    c31 9685   3.908   6.083   5.405 -0.4816 -0.7304 -0.2735
 2248poe     o2 9686   3.883   6.145   5.282  0.4798  0.2376 -0.0036
 2248poe    c23 9687   3.871   6.283   5.306  0.6999  0.3566 -0.5496
 2248poe    c23 9688   3.868   6.368   5.178  0.5544 -0.0283 -0.8011
 2248poe     o2 9689   3.742   6.361   5.116  0.0594  0.1057  0.1821
 2248poe    c23 9690   3.739   6.437   4.997 -0.1654 -0.1650  0.0162
 2248poe    c23 9691   3.702   6.343   4.880 -0.4501 -0.0127 -0.0180
 2248poe     o2 9692   3.799   6.247   4.843 -0.2532  0.0695  0.2751
 2248poe    c23 9693   3.756   6.156   4.744 -0.2122 -0.1200  0.4331
 2248poe    c23 9694   3.792   6.196   4.600 -0.4109  0.1317  0.4536
 2248poe     o2 9695   3.732   6.136   4.488  0.1022 -0.2368  0.3752
 2248poe    c31 9696   3.763   6.001   4.463 -0.0889 -0.0556 -0.9244
 2249poe    c31 9697   3.471   2.317   1.702 -0.2368 -0.3550 -0.3199
 2249poe     o2 9698   3.470   2.281   1.838 -0.3791  0.1597 -0.1822
 2249poe    c23 9699   3.552   2.370   1.910 -0.3863  0.0969 -0.0963
 2249poe    c23 9700   3.552   2.342   2.062  0.3383 -0.4026 -0.1859
 2249poe     o2 9701   3.416   2.324   2.092  0.3307  0.1663  0.1333
 2249poe    c23 9702   3.404   2.318   2.232  0.2808 -0.0492  0.1206
 2249poe    c23 9703   3.369   2.175   2.276 -0.2525 -0.0563 -0.3171
 2249poe     o2 9704   3.256   2.108   2.224 -0.3952 -0.1741  0.1345
 2249poe    c23 9705   3.249   1.976   2.271 -0.4215 -0.0639  0.4441
 2249poe    c23 9706   3.148   1.917   2.170  0.2659 -0.3387 -0.0895
 2249poe     o2 9707   3.206   1.905   2.042  0.2743  0.0187 -0.1226
 2249poe    c31 9708   3.121   1.825   1.962 -0.0906  0.4196 -0.1371
 2250poe    c31 9709   0.231   2.518   4.227 -0.0821 -0.1220 -0.0790
 2250poe     o2 9710   0.369   2.536   4.248 -0.1199  0.0478  0.0240
 2250poe    c23 9711   0.432   2.555   4.123 -0.1721  0.6421  0.0839
 2250poe    c23 9712   0.580   2.565   4.162 -0.1009  0.2028 -0.0716
 2250poe     o2 9713   0.592   2.648   4.274 -0.0555 -0.4954  0.4498
 2250poe    c23 9714   0.719   2.654   4.334  0.0218 -0.5213  0.2873
 2250poe    c23 9715   0.717   2.754   4.451  0.2954 -0.1338 -0.0360
 2250poe     o2 9716   0.626   2.721   4.553  0.3881 -0.0896  0.0618
 2250poe    c23 9717   0.616   2.819   4.654  0.2923 -0.3215  0.2807
 2250poe    c23 9718   0.549   2.772   4.784 -0.4009 -0.0142  0.0474
 2250poe     o2 9719   0.428   2.701   4.768 -0.4574  0.1369 -0.1996
 2250poe    c31 9720   0.386   2.660   4.896 -0.2302 -0.2978 -0.2625
 2251poe    c31 9721   1.209   4.359   1.823  0.4582 -0.1368 -0.0981
 2251poe     o2 9722   1.137   4.249   1.773  0.3173 -0.0416 -0.1068
 2251poe    c23 9723   1.190   4.131   1.830 -0.1085  0.1000  0.6042
 2251poe    c23 9724   1.076   4.030   1.849  0.5826 -0.8141  0.0208
 2251poe     o2 9725   1.006   4.000   1.730  0.3469 -0.1258 -0.0194
 2251poe    c23 9726   0.961   3.867   1.722 -0.1397  0.0365 -0.0146
 2251poe    c23 9727   0.856   3.850   1.611  0.0285 -0.5141 -0.0955
 2251poe     o2 9728   0.767   3.956   1.585 -0.6062 -0.8920  0.5080
 2251poe    c23 9729   0.716   3.956   1.453  0.1338 -0.0875  0.2052
 2251poe    c23 9730   0.643   4.089   1.429 -0.3778 -0.3221  0.4240
 2251poe     o2 9731   0.739   4.192   1.444 -0.2097 -0.4586  0.2920
 2251poe    c31 9732   0.684   4.318   1.414  1.1348 -0.0667 -0.5966
 2252poe    c31 9733   6.385   1.767   2.107  0.1345 -0.1158 -0.2409
 2252poe     o2 9734   6.456   1.711   1.998  0.1442 -0.0788 -0.2533
 2252poe    c23 9735   6.578   1.663   2.051 -0.3782 -0.2198  0.8618
 2252poe    c23 9736   6.671   1.596   1.948 -0.7144  0.2767  0.2241
 2252poe     o2 9737   6.720   1.703   1.871  0.2712 -0.2821  0.0571
 2252poe    c23 9738   6.749   1.660   1.740 -0.3809  0.0020 -0.1856
 2252poe    c23 9739   6.755   1.775   1.638  0.6689 -0.0265 -0.1650
 2252poe     o2 9740   6.847   1.877   1.668  0.3639  0.1819  0.0551
 2252poe    c23 9741   6.804   1.992   1.598  0.6153 -0.1534 -0.6562
 2252poe    c23 9742   6.854   2.116   1.674 -0.4597  0.0834 -0.3153
 2252poe     o2 9743   6.992   2.090   1.691 -0.4895  0.2059  0.1451
 2252poe    c31 9744   7.068   2.183   1.764 -0.0286 -0.3002  0.3122
 2253poe    c31 9745   3.296   4.923   4.418 -0.1850 -0.1667  0.0597
 2253poe     o2 9746   3.300   5.006   4.531  0.2244 -0.2588  0.1177
 2253poe    c23 9747   3.198   4.969   4.621 -0.0959  0.2956 -0.0075
 2253poe    c23 9748   3.176   5.065   4.739  0.3442  0.7404 -0.2850
 2253poe     o2 9749   3.264   5.059   4.849  0.0205 -0.2215 -0.0649
 2253poe    c23 9750   3.284   5.183   4.915  0.2691  0.2844 -1.0762
 2253poe    c23 9751   3.396   5.174   5.020 -0.5517  0.5115 -0.1669
 2253poe     o2 9752   3.353   5.151   5.152  0.4550  0.2385  0.1232
 2253poe    c23 9753   3.454   5.094   5.232  0.1163 -0.6189 -0.0519
 2253poe    c23 9754   3.389   5.069   5.370 -0.1735  0.3685 -0.0032
 2253poe     o2 9755   3.300   4.960   5.372  0.8624 -0.4912  0.0513
 2253poe    c31 9756   3.250   4.957   5.503 -0.1448 -0.3511 -0.3205
 2254poe    c31 9757   3.545   1.779   6.967  0.1716  0.6133  0.0529
 2254poe     o2 9758   3.417   1.836   6.959 -0.1842 -0.1708 -0.0040
 2254poe    c23 9759   3.321   1.734   6.969 -0.1397 -0.1788  0.3495
 2254poe    c23 9760   3.178   1.766   6.922 -0.0257 -0.1655  0.0103
 2254poe     o2 9761   3.111   1.852   7.012  0.1588  0.1358 -0.1389
 2254poe    c23 9762   2.983   1.891   6.967  0.1589  0.2063 -0.0783
 2254poe    c23 9763   2.930   1.981   7.080  0.1578 -0.0991  0.1658
 2254poe     o2 9764   2.997   2.102   7.106  0.2382 -0.0867 -0.1046
 2254poe    c23 9765   2.962   2.149   7.234 -0.2741  0.4332 -0.4288
 2254poe    c23 9766   2.830   2.226   7.248 -0.5091 -0.1506  0.7250
 2254poe     o2 9767   2.714   2.147   7.259 -0.5321 -0.1346  0.6058
 2254poe    c31 9768   2.594   2.199   7.206  0.0059 -0.0064 -0.5143
 2255poe    c31 9769   4.149   2.174   5.923  0.1565 -0.4068  0.0121
 2255poe     o2 9770   4.017   2.126   5.926 -0.0062  0.0604  0.5238
 2255poe    c23 9771   4.001   1.992   5.969  0.3459 -0.1103  0.1362
 2255poe    c23 9772   3.854   1.945   5.977  0.2890  0.0514  0.0628
 2255poe     o2 9773   3.799   1.949   5.847  0.1853  0.0890  0.1088
 2255poe    c23 9774   3.658   1.950   5.857  0.2123  0.3752  0.4965
 2255poe    c23 9775   3.601   1.976   5.716  0.1613 -0.4384  0.3574
 2255poe     o2 9776   3.629   2.100   5.655 -0.2279 -0.5355 -0.0189
 2255poe    c23 9777   3.541   2.129   5.549 -0.4347 -0.0997  0.2637
 2255poe    c23 9778   3.595   2.260   5.490  0.4875 -0.4500  0.3114
 2255poe     o2 9779   3.734   2.253   5.470  0.4932 -0.1290  0.2283
 2255poe    c31 9780   3.775   2.371   5.405 -0.3756 -0.0943 -0.2646
 2256poe    c31 9781   1.042   0.856   5.630 -0.6620  0.2211 -0.4238
 2256poe     o2 9782   1.008   0.974   5.700 -0.0339  0.1058  0.0850
 2256poe    c23 9783   0.889   1.035   5.653  0.0181 -0.2980 -0.5880
 2256poe    c23 9784   0.914   1.170   5.583 -0.1251 -0.1019 -0.2649
 2256poe     o2 9785   0.927   1.278   5.672 -0.2235 -0.4416  0.1652
 2256poe    c23 9786   0.935   1.394   5.592  0.6538 -0.2598  0.5071
 2256poe    c23 9787   0.976   1.528   5.658 -0.0216  0.2521 -0.1008
 2256poe     o2 9788   1.091   1.518   5.738 -0.3896 -0.0276  0.4010
 2256poe    c23 9789   1.111   1.625   5.827 -0.0803 -0.0378  0.3451
 2256poe    c23 9790   1.239   1.585   5.903  0.2121  0.2238 -0.0078
 2256poe     o2 9791   1.225   1.467   5.979 -0.0870  0.4968  0.3656
 2256poe    c31 9792   1.299   1.480   6.098 -0.1895  0.0566  0.4810
 2257poe    c31 9793   4.276   3.430   7.062 -0.1539 -0.3052 -0.4390
 2257poe     o2 9794   4.366   3.323   7.078  0.6368  0.3830 -0.1936
 2257poe    c23 9795   4.473   3.327   6.986  0.8671  0.3528  0.0720
 2257poe    c23 9796   4.559   3.200   6.996  0.7557  0.2550 -0.2047
 2257poe     o2 9797   4.590   3.191   7.133 -0.5092 -0.2324  0.0579
 2257poe    c23 9798   4.677   3.086   7.170 -0.2847 -0.2495 -0.5062
 2257poe    c23 9799   4.682   3.099   7.324  0.0886 -0.9319 -0.4584
 2257poe     o2 9800   4.553   3.109   7.381  0.3001 -0.1093 -0.1221
 2257poe    c23 9801   4.555   3.072   7.517  0.1685  0.0989 -0.0622
 2257poe    c23 9802   4.427   3.123   7.586  0.1391  0.1228 -0.1332
 2257poe     o2 9803   4.320   3.058   7.523 -0.0431  0.4383 -0.1461
 2257poe    c31 9804   4.250   2.979   7.616  0.3727 -0.0156 -0.2181
 2258poe    c31 9805   6.900   2.247   6.702  0.4283  0.5114  0.4893
 2258poe     o2 9806   6.867   2.329   6.593  0.0535 -0.0085  0.2055
 2258poe    c23 9807   6.920   2.457   6.621 -0.0988  0.1349 -0.1516
 2258poe    c23 9808   7.034   2.484   6.521  0.0792  0.0958  0.0401
 2258poe     o2 9809   6.993   2.459   6.389 -0.1224 -0.0280  0.1261
 2258poe    c23 9810   7.094   2.494   6.297  0.3097  0.1136  0.6532
 2258poe    c23 9811   7.176   2.368   6.263  0.3327  0.3846 -0.3340
 2258poe     o2 9812   7.078   2.290   6.198  0.1540  0.0860  0.2792
 2258poe    c23 9813   7.119   2.156   6.183  0.0969  0.1006 -0.0045
 2258poe    c23 9814   7.013   2.045   6.178  0.0217  0.1569  0.3173
 2258poe     o2 9815   6.914   2.057   6.277 -0.6214  0.1769 -0.3157
 2258poe    c31 9816   6.946   1.979   6.390 -0.4688  0.4711 -0.1559
 2259poe    c31 9817   0.210   5.650   3.952  0.1748 -0.1521  0.3238
 2259poe     o2 9818   0.274   5.772   3.982  0.0783 -0.1236  0.4131
 2259poe    c23 9819   0.276   5.797   4.121  0.1312  0.0349  0.3836
 2259poe    c23 9820   0.359   5.921   4.160 -0.2571  0.5395 -0.3640
 2259poe     o2 9821   0.491   5.914   4.112 -0.1771 -0.1384 -0.0590
 2259poe    c23 9822   0.554   6.028   4.167  0.2400 -0.3311 -0.1359
 2259poe    c23 9823   0.700   6.030   4.119  0.3952 -0.5014  0.3220
 2259poe     o2 9824   0.703   6.006   3.980  0.1608 -0.3829  0.2963
 2259poe    c23 9825   0.836   5.984   3.939  0.1940 -0.5022  0.4668
 2259poe    c23 9826   0.839   5.985   3.785  0.0687  0.4381  0.4666
 2259poe     o2 9827   0.710   5.932   3.760  0.5788 -0.6771  0.1277
 2259poe    c31 9828   0.681   5.984   3.633  0.0365 -0.6993  0.2395
 2260poe    c31 9829   7.113   6.429   2.443  0.3693 -0.4426 -0.1775
 2260poe     o2 9830   7.082   6.354   2.328 -0.1120 -0.5661  0.0281
 2260poe    c23 9831   6.951   6.364   2.277 -0.0656 -0.1783 -0.0135
 2260poe    c23 9832   6.918   6.265   2.164  0.1147  0.0502 -0.2700
 2260poe     o2 9833   6.945   6.311   2.034  0.2248  0.1749 -0.2034
 2260poe    c23 9834   6.912   6.214   1.937  0.4844  0.2471 -0.3662
 2260poe    c23 9835   6.953   6.270   1.799 -0.2071  0.6733 -0.4082
 2260poe     o2 9836   7.090   6.252   1.770 -0.0146  0.4367  0.5952
 2260poe    c23 9837   7.094   6.326   1.650  0.0410 -0.2133  0.1912
 2260poe    c23 9838   7.201   6.275   1.552 -0.3367 -0.4712 -0.0936
 2260poe     o2 9839   7.176   6.141   1.516 -0.2218 -0.6549  0.5004
 2260poe    c31 9840   7.268   6.091   1.422 -0.1135  0.5120 -0.0315
 2261poe    c31 9841   0.508   1.388   6.019 -0.4239  0.6644  0.0702
 2261poe     o2 9842   0.455   1.283   5.940 -0.1879 -0.1691  0.9961
 2261poe    c23 9843   0.315   1.289   5.938 -0.1581  0.4632  0.3058
 2261poe    c23 9844   0.269   1.185   6.042  0.3334  0.0868  0.1493
 2261poe     o2 9845   0.303   1.053   6.008 -0.0476 -0.0313  0.2185
 2261poe    c23 9846   0.264   0.959   6.106 -0.5566  0.0617  0.1052
 2261poe    c23 9847   0.264   0.826   6.027  0.2079  0.0155  0.1731
 2261poe     o2 9848   0.389   0.812   5.964  0.1880  0.0809  0.1207
 2261poe    c23 9849   0.379   0.691   5.892  0.0226  0.4217 -0.4444
 2261poe    c23 9850   0.490   0.680   5.786  0.1615 -0.0318 -0.2551
 2261poe     o2 9851   0.619   0.683   5.843 -0.1487  0.3124  0.4454
 2261poe    c31 9852   0.705   0.615   5.754 -0.1935  0.0213  0.6229
 2262poe    c31 9853   5.009   0.052   4.615  0.2536  0.0701  0.4087
 2262poe     o2 9854   4.955  -0.008   4.730 -0.8752 -0.2228 -0.2647
 2262poe    c23 9855   5.053  -0.106   4.756 -0.5712  0.2434  0.3751
 2262poe    c23 9856   5.057  -0.169   4.897  0.1042 -0.3562  0.0925
 2262poe     o2 9857   4.928  -0.209   4.935 -0.1493  0.2566 -0.1045
 2262poe    c23 9858   4.928  -0.285   5.054 -0.2586  0.5480  0.0841
 2262poe    c23 9859   4.863  -0.221   5.178  0.2010  0.5355  0.3370
 2262poe     o2 9860   4.724  -0.201   5.159  0.1762 -0.2611 -0.3907
 2262poe    c23 9861   4.671  -0.136   5.272  0.3242 -0.1356 -0.3932
 2262poe    c23 9862   4.547  -0.067   5.211  0.0962 -0.2949 -0.1085
 2262poe     o2 9863   4.578   0.040   5.125 -0.2096 -0.1119  0.0111
 2262poe    c31 9864   4.470   0.128   5.102 -0.1412 -0.1002 -0.2624
 2263poe    c31 9865   6.692   0.891   5.486  0.0930  0.4779 -0.0542
 2263poe     o2 9866   6.675   1.028   5.518 -0.1332  0.3115  0.5669
 2263poe    c23 9867   6.800   1.087   5.549 -0.0033  0.2098  0.2407
 2263poe    c23 9868   6.758   1.225   5.602 -0.0916 -0.0120  0.7546
 2263poe     o2 9869   6.659   1.279   5.517  0.1387 -0.1088  0.4217
 2263poe    c23 9870   6.679   1.415   5.486 -0.2534 -0.2785 -0.6212
 2263poe    c23 9871   6.610   1.472   5.361  0.3805  0.3149 -0.7018
 2263poe     o2 9872   6.682   1.439   5.244  0.1128  0.0125 -0.7816
 2263poe    c23 9873   6.617   1.502   5.135 -1.2242  0.0422  0.0158
 2263poe    c23 9874   6.650   1.419   5.010  0.8967 -0.5887  0.9479
 2263poe     o2 9875   6.613   1.284   5.027 -0.3119 -0.4831 -0.6423
 2263poe    c31 9876   6.604   1.199   4.915 -0.2284 -0.3588 -0.7441
 2264poe    c31 9877   6.185   4.081   4.758  0.5041  0.1573  0.1988
 2264poe     o2 9878   6.237   4.168   4.660  0.2921 -0.0780 -0.1298
 2264poe    c23 9879   6.360   4.222   4.704  0.3276 -0.4801  0.2715
 2264poe    c23 9880   6.408   4.319   4.594  0.4297 -0.0076  0.7292
 2264poe     o2 9881   6.299   4.401   4.560  0.5815  0.1490  0.6202
 2264poe    c23 9882   6.342   4.502   4.471 -0.3634  0.4097  0.4500
 2264poe    c23 9883   6.231   4.604   4.440 -0.5328  0.1715  0.2684
 2264poe     o2 9884   6.120   4.547   4.374  0.1519 -0.4830 -0.3352
 2264poe    c23 9885   6.128   4.544   4.233 -0.5602  0.0200 -0.3929
 2264poe    c23 9886   5.994   4.505   4.168 -0.7714 -0.1184  0.1196
 2264poe     o2 9887   5.961   4.369   4.186  0.6455 -0.5361 -0.3005
 2264poe    c31 9888   5.854   4.317   4.111  0.1644  0.0192 -0.0026
 2265poe    c31 9889   2.170   1.280   5.037 -0.0037  0.3573  0.3982
 2265poe     o2 9890   2.092   1.298   4.921  0.4194 -0.0424  0.0469
 2265poe    c23 9891   1.988   1.207   4.891  0.2553  0.0491  0.3353
 2265poe    c23 9892   1.928   1.269   4.763  0.3713 -0.0914  0.2126
 2265poe     o2 9893   1.940   1.410   4.763 -0.2592 -0.0348 -0.4519
 2265poe    c23 9894   1.882   1.468   4.648 -0.2207  0.3665 -0.2706
 2265poe    c23 9895   1.907   1.619   4.632  0.1438  0.2865 -0.4675
 2265poe     o2 9896   2.046   1.628   4.653  0.1786  0.2765 -0.6870
 2265poe    c23 9897   2.083   1.764   4.637 -0.4837  0.5491  0.0470
 2265poe    c23 9898   2.085   1.852   4.763  0.1968  0.0458  0.3946
 2265poe     o2 9899   2.190   1.825   4.854  0.2124  0.1302  0.4018
 2265poe    c31 9900   2.223   1.953   4.904  0.1125  0.1519  0.4134
 2266poe    c31 9901   6.246   1.897   3.966 -0.0220 -0.2925  0.0985
 2266poe     o2 9902   6.303   2.012   3.908 -0.8213 -0.0527 -0.2115
 2266poe    c23 9903   6.214   2.122   3.918 -0.1619  0.4531  0.2111
 2266poe    c23 9904   6.169   2.155   3.774  0.7760  0.2388 -0.1445
 2266poe     o2 9905   6.285   2.173   3.697  0.8026  0.8241  0.0244
 2266poe    c23 9906   6.250   2.210   3.565 -0.0393  0.4176  0.1237
 2266poe    c23 9907   6.355   2.289   3.484 -0.0790  0.2261 -0.1130
 2266poe     o2 9908   6.449   2.200   3.428 -0.0801  0.3090 -0.2463
 2266poe    c23 9909   6.536   2.261   3.335  0.3042  0.0046 -0.0886
 2266poe    c23 9910   6.640   2.151   3.306  0.5358  0.1742  0.0872
 2266poe     o2 9911   6.713   2.091   3.410 -0.0257 -0.2831  0.2264
 2266poe    c31 9912   6.828   2.163   3.448 -0.1779 -0.4896  1.1050
 2267poe    c31 9913   1.838   7.115   2.131 -0.6818 -0.0391 -0.0493
 2267poe     o2 9914   1.754   7.004   2.153 -0.0538 -0.4850  0.1069
 2267poe    c23 9915   1.702   6.964   2.028  0.1280  0.3571 -0.2435
 2267poe    c23 9916   1.623   6.834   2.050 -0.2056  0.5730 -0.1519
 2267poe     o2 9917   1.496   6.860   2.104 -0.3443 -0.3170 -0.0350
 2267poe    c23 9918   1.416   6.752   2.062  0.0291 -0.4373 -0.4465
 2267poe    c23 9919   1.263   6.768   2.079  0.1765  0.2053  0.3269
 2267poe     o2 9920   1.213   6.753   2.210 -0.3448  0.4708  0.1612
 2267poe    c23 9921   1.092   6.682   2.202 -0.3015  0.4222 -0.0705
 2267poe    c23 9922   0.960   6.754   2.170 -0.4938  0.0030 -0.2269
 2267poe     o2 9923   0.907   6.833   2.273 -0.0441 -0.2822  0.2291
 2267poe    c31 9924   0.803   6.777   2.350 -0.5650  0.3645  0.0120
 2268poe    c31 9925   0.836   3.016   3.200 -0.1526  0.2627  0.2921
 2268poe     o2 9926   0.934   2.936   3.263 -0.0450  0.2021  0.0476
 2268poe    c23 9927   0.986   2.835   3.179 -0.0159  0.3764 -0.1461
 2268poe    c23 9928   1.071   2.726   3.247  0.2288  0.0284 -1.0013
 2268poe     o2 9929   1.122   2.790   3.363 -0.0981 -0.4749 -0.5779
 2268poe    c23 9930   1.215   2.719   3.442 -0.1583  0.2961  0.1970
 2268poe    c23 9931   1.243   2.771   3.584 -0.6319  0.2668  0.3024
 2268poe     o2 9932   1.137   2.747   3.674 -0.4986 -0.2819  0.3151
 2268poe    c23 9933   1.163   2.804   3.800 -0.2555  0.8051 -0.2085
 2268poe    c23 9934   1.040   2.792   3.893  0.0975 -0.1462  0.1517
 2268poe     o2 9935   0.932   2.856   3.828  0.0054 -0.4491  0.0018
 2268poe    c31 9936   0.812   2.834   3.898  0.5341 -0.4353  0.9263
 2269poe    c31 9937   0.582   1.751   2.547  0.1797 -0.2293 -0.1642
 2269poe     o2 9938   0.447   1.714   2.566  0.0287  0.2216 -0.3393
 2269poe    c23 9939   0.456   1.576   2.597 -0.2349  0.4310  0.7126
 2269poe    c23 9940   0.315   1.513   2.606 -0.0957  0.0327  0.1710
 2269poe     o2 9941   0.237   1.530   2.490  0.1530 -0.6245 -0.0963
 2269poe    c23 9942   0.118   1.454   2.494 -0.3783  0.2229  0.4540
 2269poe    c23 9943   0.048   1.448   2.357 -0.1154 -0.2112  0.3377
 2269poe     o2 9944   0.015   1.573   2.299  0.7398 -0.4696 -0.7355
 2269poe    c23 9945  -0.071   1.556   2.189  0.1034 -0.0189 -0.3093
 2269poe    c23 9946  -0.125   1.690   2.137 -0.1310 -0.0491 -0.1482
 2269poe     o2 9947  -0.025   1.772   2.080 -0.2726  0.1485 -0.1121
 2269poe    c31 9948  -0.100   1.877   2.023 -0.7575 -0.1097  0.0387
 2270poe    c31 9949   2.701   4.431   2.423 -0.2599 -0.0544 -0.2621
 2270poe     o2 9950   2.738   4.302   2.380  0.3302 -0.0253  0.1387
 2270poe    c23 9951   2.779   4.213   2.482 -0.0967 -0.2885  0.0839
 2270poe    c23 9952   2.737   4.068   2.452 -0.0665 -0.3014  0.1024
 2270poe     o2 9953   2.740   4.044   2.314  0.2788 -0.1232  0.0786
 2270poe    c23 9954   2.752   3.906   2.287 -0.2547 -0.1743  0.0863
 2270poe    c23 9955   2.744   3.880   2.135 -0.4120  0.4308 -0.0104
 2270poe     o2 9956   2.861   3.920   2.068 -0.5044  0.9959  0.1560
 2270poe    c23 9957   2.839   3.885   1.933 -0.8405 -0.0619  0.4760
 2270poe    c23 9958   2.818   4.014   1.851  0.1992 -0.1675  0.0321
 2270poe     o2 9959   2.703   4.092   1.872  0.1674 -0.2684  0.2330
 2270poe    c31 9960   2.668   4.176   1.765  0.4790 -0.1031  0.2611
 2271poe    c31 9961   4.121   0.823   1.103 -0.2523 -0.3270  0.1958
 2271poe     o2 9962   4.202   0.884   1.202  0.2256  0.2860 -0.5663
 2271poe    c23 9963   4.177   1.021   1.224  0.1425  0.1925 -0.0781
 2271poe    c23 9964   4.218   1.051   1.370 -0.5214  0.2352  0.1042
 2271poe     o2 9965   4.331   0.971   1.395 -0.4049  0.2931 -0.2235
 2271poe    c23 9966   4.398   1.008   1.514  0.0104 -0.0915 -0.3321
 2271poe    c23 9967   4.522   0.917   1.518 -0.1132 -0.2616 -0.3074
 2271poe     o2 9968   4.481   0.787   1.551  0.0385 -0.4304 -0.7750
 2271poe    c23 9969   4.589   0.698   1.568  0.3285  0.0714  0.0307
 2271poe    c23 9970   4.542   0.553   1.588  1.0798 -0.3128 -0.9405
 2271poe     o2 9971   4.485   0.505   1.468 -0.4168 -0.0596 -0.3504
 2271poe    c31 9972   4.447   0.369   1.478 -0.1649 -0.1037  0.0239
 2272poe    c31 9973   6.942   0.858   0.232 -0.4940 -0.4298 -0.0726
 2272poe     o2 9974   6.842   0.955   0.211  0.1702  0.2450 -0.1458
 2272poe    c23 9975   6.726   0.896   0.158  0.0390  0.2638  0.1170
 2272poe    c23 9976   6.599   0.975   0.194 -0.0050  0.1369  0.2450
 2272poe     o2 9977   6.580   0.971   0.333  0.1027 -0.9553  0.2343
 2272poe    c23 9978   6.472   1.045   0.386  0.5016 -0.1124 -0.1192
 2272poe    c23 9979   6.483   1.107   0.526  0.9218  0.0608 -0.2259
 2272poe     o2 9980   6.551   1.230   0.537  0.4859  0.3066 -0.2786
 2272poe    c23 9981   6.561   1.274   0.670 -0.0144 -0.4826  0.0277
 2272poe    c23 9982   6.588   1.426   0.681 -0.5772 -0.4127  0.4912
 2272poe     o2 9983   6.727   1.442   0.662 -0.7495  0.0628 -0.4152
 2272poe    c31 9984   6.778   1.563   0.714  0.7819 -0.5090 -0.5340
 2273poe    c31 9985   4.767   2.334   5.039  0.1310  0.1800  0.0934
 2273poe     o2 9986   4.783   2.202   4.992  0.0253  0.2105 -0.0305
 2273poe    c23 9987   4.758   2.199   4.854 -0.6940 -0.2804  0.0989
 2273poe    c23 9988   4.762   2.051   4.814  0.3709 -0.2908  0.1931
 2273poe     o2 9989   4.666   1.983   4.893  0.1088 -0.2147 -0.0560
 2273poe    c23 9990   4.631   1.858   4.837  0.9494 -0.5025  0.0349
 2273poe    c23 9991   4.546   1.782   4.941  0.3535  0.0455 -0.0452
 2273poe     o2 9992   4.628   1.759   5.053 -0.1581 -0.2651  0.2684
 2273poe    c23 9993   4.560   1.692   5.157  0.1262 -0.9892 -0.0046
 2273poe    c23 9994   4.655   1.670   5.276  0.0376 -0.4841  0.1617
 2273poe     o2 9995   4.688   1.786   5.349 -1.0509 -0.1339  0.1079
 2273poe    c31 9996   4.723   1.752   5.481  0.3597 -0.0618 -0.2358
 2274poe    c31 9997   0.514   4.786   2.713  0.0127  0.3702 -0.7952
 2274poe     o2 9998   0.506   4.876   2.821  0.3304 -0.1336 -0.3530
 2274poe    c23 9999   0.397   4.848   2.906  0.0257  0.6708 -0.4714
 2274poe    c2310000   0.421   4.908   3.045 -0.2433  0.3717 -0.2928
 2274poe     o210001   0.473   5.038   3.028  0.1970  0.2062 -0.2303
 2274poe    c2310002   0.512   5.107   3.145 -0.7365 -0.2164  0.3388
 2274poe    c2310003   0.540   5.251   3.100 -0.1381 -0.3133  0.3953
 2274poe     o210004   0.634   5.250   2.995 -0.3718  0.4429  0.1744
 2274poe    c2310005   0.671   5.379   2.951 -0.4831  0.4668  0.1509
 2274poe    c2310006   0.727   5.390   2.808  0.0547  0.8585  0.3855
 2274poe     o210007   0.833   5.301   2.780 -0.3165  0.6701 -0.4526
 2274poe    c3110008   0.912   5.322   2.665 -0.2247  0.1060 -0.4953
 2275poe    c3110009   3.681   0.042   3.186  0.1963  0.0337 -0.2822
 2275poe     o210010   3.708   0.021   3.323 -0.3227  0.3101 -0.1339
 2275poe    c2310011   3.709   0.144   3.392  0.0299  0.3585 -0.2233
 2275poe    c2310012   3.787   0.114   3.521 -0.6072 -0.4406 -0.0196
 2275poe     o210013   3.729   0.009   3.597 -0.5906 -0.2880  0.2037
 2275poe    c2310014   3.770   0.032   3.730  0.4614 -0.3117 -0.1077
 2275poe    c2310015   3.752  -0.103   3.802 -0.8758 -0.2338 -0.2778
 2275poe     o210016   3.862  -0.181   3.760 -0.0358  0.5443  0.4443
 2275poe    c2310017   3.841  -0.312   3.807 -0.4021  0.1675 -0.7545
 2275poe    c2310018   3.925  -0.417   3.731 -0.1950 -0.2692  0.0679
 2275poe     o210019   3.880  -0.418   3.598  0.2165  0.2050 -0.0793
 2275poe    c3110020   3.899  -0.545   3.539 -0.1462  0.2593 -0.3198
 2276poe    c3110021   2.029   5.479   0.881  0.6811  0.2733 -0.2318
 2276poe     o210022   2.058   5.605   0.935 -0.3113  0.1974  0.5208
 2276poe    c2310023   1.958   5.703   0.952 -0.3529  0.2264  0.1282
 2276poe    c2310024   1.872   5.698   1.080 -0.0611 -0.1505  0.3137
 2276poe     o210025   1.781   5.799   1.118 -0.3900 -0.2025 -0.3152
 2276poe    c2310026   1.699   5.750   1.221  0.0776  0.4145  0.3643
 2276poe    c2310027   1.634   5.863   1.303  0.3644  0.4460  0.5505
 2276poe     o210028   1.565   5.947   1.213  0.6356 -0.2187 -0.2971
 2276poe    c2310029   1.539   6.070   1.277 -0.4244 -0.4491 -0.2656
 2276poe    c2310030   1.455   6.153   1.178 -0.0019  0.2568 -0.0364
 2276poe     o210031   1.503   6.136   1.047 -0.3120  0.2706 -0.1531
 2276poe    c3110032   1.417   6.194   0.952 -0.0608  0.2836 -0.3763
 2277poe    c3110033   0.096   7.112   1.029 -0.3359 -0.1194 -0.2694
 2277poe     o210034   0.102   7.059   0.898 -0.0561 -0.7651  0.0027
 2277poe    c2310035   0.225   6.995   0.873 -0.0152 -0.8623  0.4355
 2277poe    c2310036   0.217   6.945   0.728 -0.3471 -0.3585  0.2764
 2277poe     o210037   0.133   6.832   0.719 -0.4150 -0.3068  0.2595
 2277poe    c2310038   0.118   6.775   0.591 -0.1940 -0.2528  0.2098
 2277poe    c2310039  -0.010   6.690   0.582 -0.0933 -0.3251 -0.5739
 2277poe     o210040  -0.009   6.580   0.670  0.0066 -0.4054 -0.6745
 2277poe    c2310041  -0.129   6.509   0.647 -0.3208  0.0903 -0.5137
 2277poe    c2310042  -0.136   6.376   0.724  0.1692  0.2614 -0.1706
 2277poe     o210043  -0.132   6.408   0.861  0.5064 -0.2215 -0.0645
 2277poe    c3110044  -0.140   6.290   0.938  1.1165 -0.0648  0.2427
 2278poe    c3110045   1.628   1.764   1.430 -0.1251 -0.2473  0.0136
 2278poe     o210046   1.565   1.817   1.544 -0.6843  0.0278 -0.4161
 2278poe    c2310047   1.658   1.882   1.628 -0.2940 -0.0921 -0.7534
 2278poe    c2310048   1.635   2.033   1.648  0.0101 -0.1286 -0.0693
 2278poe     o210049   1.503   2.069   1.684 -0.0627 -0.0620 -0.3953
 2278poe    c2310050   1.513   2.208   1.709 -0.2061 -0.0420 -0.4519
 2278poe    c2310051   1.373   2.251   1.756 -0.0786  0.4772 -0.5486
 2278poe     o210052   1.274   2.239   1.656 -0.0674 -0.1958 -0.4812
 2278poe    c2310053   1.143   2.257   1.704  0.0382  0.0883 -0.3002
 2278poe    c2310054   1.043   2.297   1.594 -0.4802 -0.0834  0.1061
 2278poe     o210055   1.043   2.204   1.488 -0.7714 -0.6180  0.5682
 2278poe    c3110056   0.932   2.212   1.401 -0.4513 -0.3273  0.1828
 2279poe    c3110057   6.320   2.426   4.176  0.2975 -0.7177 -0.0012
 2279poe     o210058   6.441   2.416   4.249  0.3216 -0.0104  0.0587
 2279poe    c2310059   6.436   2.336   4.365 -0.2730  0.4698  0.3713
 2279poe    c2310060   6.567   2.317   4.443  0.0161 -0.2802 -0.2739
 2279poe     o210061   6.661   2.264   4.353  0.3459  0.1243 -0.1757
 2279poe    c2310062   6.778   2.234   4.425 -0.0007 -0.2090  0.2586
 2279poe    c2310063   6.877   2.169   4.326  0.2441  0.5328  0.0097
 2279poe     o210064   6.896   2.248   4.210  0.2853  0.1541 -0.2437
 2279poe    c2310065   7.020   2.225   4.147  0.1116  0.0205 -0.5354
 2279poe    c2310066   7.010   2.335   4.040  0.2753  0.2784 -0.2843
 2279poe     o210067   6.884   2.332   3.977 -0.4369  0.8287  1.0574
 2279poe    c3110068   6.861   2.452   3.906 -0.0155  0.2058 -0.1650
 2280poe    c3110069   5.510   3.232   1.730 -0.5811 -0.0188  0.2191
 2280poe     o210070   5.582   3.238   1.851 -0.0320  0.0458 -0.1122
 2280poe    c2310071   5.651   3.115   1.863  0.1698  0.1219 -0.4538
 2280poe    c2310072   5.612   3.052   1.999  0.7942 -0.0069 -0.3336
 2280poe     o210073   5.664   3.141   2.095 -0.0940  0.0285  0.1181
 2280poe    c2310074   5.711   3.063   2.203  0.0821  0.0460  0.0543
 2280poe    c2310075   5.752   3.144   2.327  0.1245 -0.1913  0.1959
 2280poe     o210076   5.863   3.229   2.310  0.5396 -0.8049 -0.2317
 2280poe    c2310077   5.922   3.262   2.434 -0.5693  0.5693 -0.0373
 2280poe    c2310078   6.038   3.361   2.409  0.0909 -0.1335  0.2140
 2280poe     o210079   6.148   3.317   2.333  0.0818 -0.0307  0.1410
 2280poe    c3110080   6.269   3.384   2.358  0.0243  0.1190  0.0167
 2281poe    c3110081   2.902   5.541   1.647  0.4620 -0.9053  0.3245
 2281poe     o210082   2.767   5.508   1.672  0.1191  0.1524 -0.0950
 2281poe    c2310083   2.707   5.590   1.770  0.3708 -0.0625  0.2388
 2281poe    c2310084   2.599   5.515   1.850  0.2473  0.1261  0.2492
 2281poe     o210085   2.495   5.457   1.775 -0.0710 -0.0623  0.8323
 2281poe    c2310086   2.395   5.408   1.862 -0.2403 -0.3199  0.4958
 2281poe    c2310087   2.430   5.265   1.904 -0.0518 -0.3523  0.2288
 2281poe     o210088   2.430   5.188   1.785  0.0790 -0.4124  0.2672
 2281poe    c2310089   2.472   5.058   1.818 -0.1677 -0.4450  0.4485
 2281poe    c2310090   2.435   4.969   1.697 -0.2800  0.4463 -0.1803
 2281poe     o210091   2.509   5.035   1.597 -0.4864  0.5975 -0.2320
 2281poe    c3110092   2.508   4.961   1.477  0.4170  0.5912 -0.2399
 2282poe    c3110093   1.520   0.107   6.105  0.1185 -0.2376  0.1385
 2282poe     o210094   1.540   0.197   6.213  0.1405 -0.4942  0.3487
 2282poe    c2310095   1.632   0.298   6.181 -0.2226 -0.1587  0.3604
 2282poe    c2310096   1.727   0.341   6.294  0.4075 -0.0413 -0.2042
 2282poe     o210097   1.665   0.412   6.398 -0.6650 -0.4012 -0.5847
 2282poe    c2310098   1.664   0.551   6.371 -0.6521 -0.2250  0.2892
 2282poe    c2310099   1.681   0.638   6.497  0.3730 -0.0741  0.0523
 2282poe     o210100   1.561   0.635   6.570  0.1153  0.0477 -0.3610
 2282poe    c2310101   1.549   0.744   6.658 -0.2185 -0.1630 -0.1418
 2282poe    c2310102   1.550   0.890   6.608  0.1820 -0.1874 -0.2014
 2282poe     o210103   1.432   0.922   6.539  0.2131  0.8310  0.2106
 2282poe    c3110104   1.436   1.042   6.465  0.0497  0.3603 -0.5672
 2283poe    c3110105   0.521   7.009   6.276  0.0583  0.3833 -0.1183
 2283poe     o210106   0.617   6.990   6.377  0.2315 -0.2621 -0.3997
 2283poe    c2310107   0.586   7.059   6.496 -0.0966 -0.1055 -0.5748
 2283poe    c2310108   0.699   7.038   6.599 -0.6368  0.2475  0.0939
 2283poe     o210109   0.828   7.074   6.556 -0.7507  0.0248 -0.4527
 2283poe    c2310110   0.929   7.079   6.655 -0.5404 -1.0920 -0.6014
 2283poe    c2310111   1.075   7.069   6.607 -0.4866  0.0498 -0.7039
 2283poe     o210112   1.113   7.190   6.545 -0.3661  0.1843 -0.3684
 2283poe    c2310113   1.058   7.220   6.419 -0.7255  0.2876 -0.1907
 2283poe    c2310114   1.116   7.159   6.290 -0.0591 -0.0094  0.2445
 2283poe     o210115   1.101   7.019   6.299 -0.0633 -0.0114  0.2041
 2283poe    c3110116   1.184   6.949   6.209 -0.1909 -0.0663  0.1293
 2284poe    c3110117   4.461   2.040   2.309 -0.0206 -0.3474 -0.5358
 2284poe     o210118   4.354   2.020   2.399  0.2275  0.0600 -0.1468
 2284poe    c2310119   4.365   1.900   2.471 -0.2711  0.0601 -0.0642
 2284poe    c2310120   4.251   1.898   2.574  0.1353  0.2272  0.3881
 2284poe     o210121   4.119   1.933   2.539  0.0821 -0.3790 -0.0237
 2284poe    c2310122   4.052   1.855   2.442  0.1816 -0.1928 -0.2434
 2284poe    c2310123   3.929   1.928   2.386 -0.0366 -0.0280  0.4447
 2284poe     o210124   3.831   1.952   2.485 -0.4501  0.4683 -0.0807
 2284poe    c2310125   3.742   1.849   2.523 -0.0501  0.0439 -0.2911
 2284poe    c2310126   3.692   1.852   2.668 -0.1138 -0.4678 -0.2974
 2284poe     o210127   3.603   1.960   2.683  0.2478 -0.2305  0.1857
 2284poe    c3110128   3.583   1.993   2.819 -0.0036  0.6844 -0.0640
 2285poe    c3110129   4.845   0.646   0.596  0.2247 -0.2104 -0.1006
 2285poe     o210130   4.954   0.719   0.545 -0.2995  0.4335 -0.3027
 2285poe    c2310131   5.046   0.638   0.476  0.3740  0.6573  0.3266
 2285poe    c2310132   5.179   0.715   0.470  0.2617  0.8821  0.6906
 2285poe     o210133   5.143   0.846   0.430 -0.0640  0.5068 -0.2782
 2285poe    c2310134   5.264   0.917   0.420 -0.0954  0.6143  0.0953
 2285poe    c2310135   5.221   1.062   0.388 -0.1172  0.4861 -0.4537
 2285poe     o210136   5.115   1.086   0.477 -0.1854 -0.1399 -0.3632
 2285poe    c2310137   5.079   1.221   0.489  0.5577  0.0293  0.0138
 2285poe    c2310138   4.952   1.264   0.566 -0.1550 -0.3225 -0.9508
 2285poe     o210139   4.835   1.215   0.504 -0.3621 -0.7401 -0.2473
 2285poe    c3110140   4.720   1.218   0.585 -0.3476  0.1807 -0.2452
 2286poe    c3110141   5.760   2.704   4.700 -0.2073  0.3737  0.0578
 2286poe     o210142   5.644   2.680   4.625 -0.0399 -0.0225 -0.0807
 2286poe    c2310143   5.582   2.806   4.613 -0.3624 -0.1851 -0.1391
 2286poe    c2310144   5.438   2.794   4.561 -0.4952  0.2716  0.1123
 2286poe     o210145   5.454   2.722   4.441  0.2884  0.3455  0.1700
 2286poe    c2310146   5.327   2.702   4.382  0.5164 -0.2432 -0.1285
 2286poe    c2310147   5.352   2.654   4.238  0.1405 -0.3655 -0.1537
 2286poe     o210148   5.455   2.558   4.253 -0.1501 -0.6664 -0.0673
 2286poe    c2310149   5.487   2.505   4.126  0.3326 -0.4423 -0.0416
 2286poe    c2310150   5.549   2.364   4.129  0.1015 -0.5442  0.0033
 2286poe     o210151   5.689   2.370   4.138  0.0658  0.0288  0.2269
 2286poe    c3110152   5.749   2.242   4.149 -0.0633 -0.0434  0.0921
 2287poe    c3110153   4.829   5.330   5.697  0.7889 -0.3811 -0.1673
 2287poe     o210154   4.846   5.196   5.656  0.1634 -0.4917 -0.0757
 2287poe    c2310155   4.976   5.166   5.611  0.0011 -0.0424 -0.8553
 2287poe    c2310156   4.977   5.014   5.588  0.2415 -0.2109  0.2052
 2287poe     o210157   4.844   4.975   5.560  0.1823  0.1785 -0.0661
 2287poe    c2310158   4.844   4.849   5.496  0.1060  0.2447 -0.1954
 2287poe    c2310159   4.722   4.829   5.404  0.0746  0.0732 -0.1162
 2287poe     o210160   4.622   4.835   5.504 -0.1376  0.7329 -0.3662
 2287poe    c2310161   4.502   4.816   5.432 -0.2498  0.0894 -0.0115
 2287poe    c2310162   4.396   4.904   5.501 -0.1875  0.2750 -0.1542
 2287poe     o210163   4.379   5.040   5.464  0.0614  0.3876  0.1453
 2287poe    c3110164   4.259   5.096   5.513 -0.2339  0.3641 -0.5480
 2288poe    c3110165   0.032   4.673   2.859 -0.0326  0.0388  0.4644
 2288poe     o210166  -0.020   4.788   2.796 -0.0146 -0.3805 -0.3258
 2288poe    c2310167  -0.161   4.789   2.784  0.0186  0.2797 -0.7231
 2288poe    c2310168  -0.218   4.930   2.760 -0.2290  0.3017 -0.0039
 2288poe     o210169  -0.140   4.976   2.652 -0.0423 -0.3751 -0.1631
 2288poe    c2310170  -0.191   5.103   2.616 -0.0795 -0.2863  0.2007
 2288poe    c2310171  -0.140   5.146   2.478  0.2677 -0.1566  0.3685
 2288poe     o210172  -0.004   5.182   2.474  0.2769 -0.2406 -0.1223
 2288poe    c2310173   0.047   5.199   2.343 -0.4029 -0.3574 -0.4059
 2288poe    c2310174   0.196   5.162   2.336 -0.2401  0.2872 -0.4218
 2288poe     o210175   0.216   5.025   2.361 -0.0183  0.3401 -0.2984
 2288poe    c3110176   0.352   4.989   2.350 -0.1834 -0.1586 -0.7408
 2289poe    c3110177   6.343   4.941   6.037  0.2898 -0.0117  0.1493
 2289poe     o210178   6.393   4.815   5.997 -0.3132 -0.2123  0.0251
 2289poe    c2310179   6.316   4.766   5.890  0.3067  0.1858 -0.6108
 2289poe    c2310180   6.356   4.632   5.824  0.3786  0.0566 -0.3041
 2289poe     o210181   6.367   4.542   5.932  0.0011  0.4359  0.0595
 2289poe    c2310182   6.461   4.437   5.919 -0.3623  0.1062  0.0636
 2289poe    c2310183   6.434   4.323   5.820  0.1182 -0.4963  0.6220
 2289poe     o210184   6.325   4.240   5.855 -0.1849 -0.2030  0.3763
 2289poe    c2310185   6.293   4.150   5.752  0.0411  0.3568 -0.1862
 2289poe    c2310186   6.159   4.187   5.685 -0.1528  0.1085  0.0632
 2289poe     o210187   6.046   4.158   5.764  0.0454  0.2575  0.4032
 2289poe    c3110188   5.983   4.033   5.750  0.1968  0.1962  0.2703
 2290poe    c3110189   5.574   1.834   0.256 -0.0441 -0.0041 -0.3825
 2290poe     o210190   5.470   1.806   0.165 -0.1391  0.0909 -0.3042
 2290poe    c2310191   5.442   1.923   0.091  0.4162  0.4099 -0.0202
 2290poe    c2310192   5.320   1.909  -0.002  0.3017  0.3545  0.1383
 2290poe     o210193   5.340   1.780  -0.055  0.1648  0.5053 -0.2788
 2290poe    c2310194   5.235   1.754  -0.145  0.2033 -0.0007 -0.1802
 2290poe    c2310195   5.256   1.603  -0.168  0.2060 -0.0328  0.0366
 2290poe     o210196   5.285   1.534  -0.048 -0.2238  0.2219  0.2876
 2290poe    c2310197   5.282   1.397  -0.082 -0.0788  0.1753  0.4627
 2290poe    c2310198   5.313   1.310   0.041  0.1656 -0.2327  0.1108
 2290poe     o210199   5.444   1.331   0.091 -0.0431 -0.2733  0.6832
 2290poe    c3110200   5.494   1.232   0.177 -0.4062 -0.8587  0.2351
 2291poe    c3110201   5.341   5.543   3.528 -0.5952  0.6701 -0.2359
 2291poe     o210202   5.429   5.548   3.638 -0.2893  0.1920 -0.4571
 2291poe    c2310203   5.355   5.585   3.752  0.4970  0.3035  0.0231
 2291poe    c2310204   5.391   5.511   3.883 -0.1543 -0.2396 -0.1031
 2291poe     o210205   5.509   5.554   3.947 -0.2658 -0.2641  0.1201
 2291poe    c2310206   5.504   5.539   4.087  0.4108 -1.2537  0.0497
 2291poe    c2310207   5.616   5.606   4.168 -0.1122 -0.0895 -0.1590
 2291poe     o210208   5.638   5.745   4.155  0.0128 -0.1482 -0.5956
 2291poe    c2310209   5.748   5.798   4.226  0.1051  0.0279 -0.8717
 2291poe    c2310210   5.751   5.951   4.207  0.5317  0.1419  0.0704
 2291poe     o210211   5.799   5.993   4.081  0.1129  0.2582 -0.0516
 2291poe    c3110212   5.814   6.132   4.061  0.3360  0.2005 -0.2866
 2292poe    c3110213   2.200   3.115   3.743 -0.6327 -0.0251  0.4184
 2292poe     o210214   2.218   3.004   3.659 -0.3058  0.2079  0.1798
 2292poe    c2310215   2.170   3.009   3.526 -0.4224 -0.7409  0.1748
 2292poe    c2310216   2.221   2.905   3.426 -0.0889 -0.0050 -0.4307
 2292poe     o210217   2.361   2.905   3.407  0.0084  0.2046  0.2677
 2292poe    c2310218   2.401   2.820   3.302  0.0052 -0.0860  0.5003
 2292poe    c2310219   2.540   2.841   3.240 -0.2501  0.0916 -0.0165
 2292poe     o210220   2.645   2.813   3.330  0.4544  0.0089 -0.8504
 2292poe    c2310221   2.682   2.922   3.410 -0.3139 -0.2483 -0.1298
 2292poe    c2310222   2.795   2.880   3.506 -0.5495  0.2320  0.3654
 2292poe     o210223   2.778   2.787   3.611  0.1202  0.2332  0.4805
 2292poe    c3110224   2.736   2.855   3.727  0.0247  0.4623  0.3119
 2293poe    c3110225   4.160   6.800   5.300  0.4271  0.2269 -0.3573
 2293poe     o210226   4.163   6.660   5.322  0.0186  0.2814  0.0530
 2293poe    c2310227   4.043   6.601   5.366  0.0099  0.1895 -0.0963
 2293poe    c2310228   4.026   6.624   5.518 -0.4755  0.1043 -0.1348
 2293poe     o210229   4.123   6.538   5.573 -0.4640  0.1060 -0.1520
 2293poe    c2310230   4.100   6.494   5.705  0.7594 -0.4261 -0.0999
 2293poe    c2310231   4.083   6.341   5.692  0.0716 -0.2817 -0.9548
 2293poe     o210232   4.193   6.288   5.622  0.5512 -0.2440 -0.2414
 2293poe    c2310233   4.188   6.148   5.605 -0.6078 -0.2026 -0.3251
 2293poe    c2310234   4.307   6.078   5.537 -0.2403 -0.1575  0.2620
 2293poe     o210235   4.334   6.141   5.413  0.2191 -0.3717  0.2515
 2293poe    c3110236   4.423   6.065   5.335  0.1166 -0.4318  0.1943
 2294poe    c3110237   3.197   5.734   5.004 -0.4377 -0.1023 -0.2419
 2294poe     o210238   3.282   5.685   5.104  0.1213 -0.1183 -0.7194
 2294poe    c2310239   3.321   5.552   5.081  0.3418 -0.2613  0.4310
 2294poe    c2310240   3.427   5.504   5.183  0.4572  0.0961  0.4826
 2294poe     o210241   3.414   5.584   5.299  0.6666  0.5214  0.2105
 2294poe    c2310242   3.522   5.579   5.390  0.2815  0.3112  0.6565
 2294poe    c2310243   3.475   5.633   5.526 -0.4128  0.2166  0.4597
 2294poe     o210244   3.436   5.768   5.518 -0.6401  0.1358  0.1868
 2294poe    c2310245   3.526   5.856   5.581 -0.1049 -0.4989  0.3170
 2294poe    c2310246   3.492   6.006   5.568  0.8169 -0.3393 -0.3442
 2294poe     o210247   3.496   6.067   5.442  0.4413  0.1048 -0.1427
 2294poe    c3110248   3.503   6.206   5.468  0.3900 -0.0999  0.9834
 2295poe    c3110249   3.654   6.975   6.629 -0.1617 -0.0328 -0.3851
 2295poe     o210250   3.627   6.942   6.495  0.2653 -0.4766 -0.3678
 2295poe    c2310251   3.502   6.989   6.451  0.4310  0.4258  0.0933
 2295poe    c2310252   3.482   6.935   6.308 -0.3001  0.1759  0.2838
 2295poe     o210253   3.562   7.016   6.225 -0.4544  0.1429  0.1019
 2295poe    c2310254   3.538   7.007   6.086  0.4475 -0.1962 -0.0419
 2295poe    c2310255   3.622   7.116   6.018 -0.4663  0.2869 -0.4060
 2295poe     o210256   3.754   7.080   6.052 -0.5704  0.6429  0.4097
 2295poe    c2310257   3.845   7.177   6.006 -0.1758 -0.0464 -0.3008
 2295poe    c2310258   3.987   7.153   6.061 -0.3896  0.4473  0.4758
 2295poe     o210259   3.975   7.119   6.198  0.1463 -0.3490  0.3297
 2295poe    c3110260   4.103   7.113   6.256  0.3330  0.2994 -0.0101
 2296poe    c3110261   6.661   4.586   1.475 -0.4761 -0.3659  0.2080
 2296poe     o210262   6.546   4.668   1.465 -0.0356  0.2402  0.1252
 2296poe    c2310263   6.507   4.706   1.594  0.8344  0.5510  0.3044
 2296poe    c2310264   6.367   4.765   1.569  0.8095  0.4060  0.1041
 2296poe     o210265   6.355   4.887   1.500  0.1252  0.3207  0.0596
 2296poe    c2310266   6.235   4.944   1.546 -0.0430 -0.1422  0.2021
 2296poe    c2310267   6.260   5.094   1.570 -0.5777 -0.0327  0.0700
 2296poe     o210268   6.248   5.164   1.448  0.3147  0.4437  0.2521
 2296poe    c2310269   6.232   5.303   1.466 -0.0706  0.4162  0.1230
 2296poe    c2310270   6.225   5.401   1.347  0.1805  0.2018 -0.0674
 2296poe     o210271   6.118   5.374   1.258  0.0020  0.1843  0.1513
 2296poe    c3110272   6.111   5.462   1.148 -0.2401 -0.8660 -0.6855
 2297poe    c3110273   0.517   4.339   0.058 -0.6240  0.4638 -0.3448
 2297poe     o210274   0.496   4.224  -0.022 -0.2820  0.0941  0.0925
 2297poe    c2310275   0.565   4.251  -0.142  0.1043  0.2923  0.3539
 2297poe    c2310276   0.572   4.121  -0.224 -0.1836  0.8630 -0.5925
 2297poe     o210277   0.450   4.085  -0.284 -0.1228  0.1625 -0.3062
 2297poe    c2310278   0.457   3.974  -0.371 -0.2973  0.2586 -0.4431
 2297poe    c2310279   0.376   3.976  -0.502  0.1279  0.1398 -0.7086
 2297poe     o210280   0.413   4.083  -0.587  0.4180  0.2900 -0.3978
 2297poe    c2310281   0.351   4.059  -0.711 -0.3113  0.5579 -0.0940
 2297poe    c2310282   0.365   4.176  -0.811  0.3276  0.0490 -0.6148
 2297poe     o210283   0.266   4.274  -0.793  0.2561 -0.0311 -0.5705
 2297poe    c3110284   0.259   4.365  -0.900  0.1235  0.6553  0.0138
 2298poe    c3110285   1.621   6.375   6.725 -0.0268  0.4899  0.7032
 2298poe     o210286   1.546   6.260   6.754  0.3496  0.0344 -0.1219
 2298poe    c2310287   1.633   6.154   6.788 -0.0904 -0.1703  0.3775
 2298poe    c2310288   1.558   6.023   6.821  0.4038 -0.4669  0.3303
 2298poe     o210289   1.473   6.046   6.931 -0.3555  0.3338 -0.4019
 2298poe    c2310290   1.432   5.930   7.000 -0.7802  0.5312 -0.3194
 2298poe    c2310291   1.350   5.960   7.127  0.0209 -0.0010  0.3342
 2298poe     o210292   1.237   6.029   7.079  0.3294  0.1630 -0.1647
 2298poe    c2310293   1.154   6.045   7.191  0.2993 -0.0963 -0.1484
 2298poe    c2310294   1.031   6.124   7.141  0.0300 -0.2849  0.2088
 2298poe     o210295   1.062   6.192   7.022  0.2071  0.2107  0.5347
 2298poe    c3110296   0.977   6.304   7.000 -0.1811 -0.2983 -0.6661
 2299poe    c3110297   2.990   1.560   4.334  0.0304  0.2112  0.3104
 2299poe     o210298   2.881   1.640   4.375 -0.1170  0.1952 -0.0458
 2299poe    c2310299   2.785   1.575   4.456 -0.0436  0.0982 -0.0370
 2299poe    c2310300   2.661   1.657   4.496 -0.0592  0.1532 -0.1985
 2299poe     o210301   2.714   1.746   4.591  0.6062 -0.3037 -0.1334
 2299poe    c2310302   2.618   1.849   4.604  0.7035 -0.2769  0.4020
 2299poe    c2310303   2.675   1.948   4.708  0.0017  0.3755  0.1748
 2299poe     o210304   2.777   2.029   4.656  0.6467 -0.2358  0.4665
 2299poe    c2310305   2.831   2.120   4.750  0.0253  0.5436  0.0851
 2299poe    c2310306   2.973   2.159   4.703  0.2454 -0.4052 -0.0761
 2299poe     o210307   2.973   2.169   4.563 -0.1802 -0.0067 -0.0519
 2299poe    c3110308   3.106   2.191   4.521 -0.1130 -0.0053  0.1592
 2300poe    c3110309   5.696   6.894   3.460  0.1306  0.4588  0.2354
 2300poe     o210310   5.732   6.758   3.465  0.1209  0.4423 -0.1193
 2300poe    c2310311   5.645   6.683   3.384 -0.0312  0.3551  0.1226
 2300poe    c2310312   5.547   6.599   3.468  0.0234  0.2066  0.0389
 2300poe     o210313   5.609   6.500   3.547 -0.5385  0.0347  0.2689
 2300poe    c2310314   5.539   6.422   3.641  0.7637 -0.9149  0.4811
 2300poe    c2310315   5.488   6.496   3.766  0.5677  0.0154 -0.1394
 2300poe     o210316   5.594   6.556   3.836  0.1258 -0.1546  0.6883
 2300poe    c2310317   5.534   6.651   3.922  0.1874  0.1469  0.3987
 2300poe    c2310318   5.642   6.700   4.020  0.2507  0.4749  0.1695
 2300poe     o210319   5.725   6.798   3.962  0.0577  0.2941 -0.4212
 2300poe    c3110320   5.796   6.846   4.074 -0.5390 -0.3286  0.2336
 2301poe    c3110321   0.788   5.301   0.979  0.1786 -0.3353 -0.4298
 2301poe     o210322   0.739   5.378   0.871  0.0609 -0.4287 -0.4442
 2301poe    c2310323   0.758   5.515   0.899 -0.1635 -0.4964  0.0584
 2301poe    c2310324   0.624   5.587   0.919  0.1423  0.1766 -0.2625
 2301poe     o210325   0.533   5.571   0.812 -0.1864 -0.0971  0.0552
 2301poe    c2310326   0.395   5.571   0.843 -0.0995  0.5383  0.4592
 2301poe    c2310327   0.352   5.437   0.905  0.3781 -0.1026 -0.5704
 2301poe     o210328   0.361   5.325   0.818  0.6314 -0.4413 -0.1120
 2301poe    c2310329   0.281   5.219   0.866 -0.2973  0.0887 -0.4576
 2301poe    c2310330   0.351   5.086   0.831 -0.1441  0.0378  0.0418
 2301poe     o210331   0.400   5.112   0.702  0.0214  0.0109  0.0993
 2301poe    c3110332   0.416   4.990   0.634 -0.2839 -0.1329  0.2865
 2302poe    c3110333   3.485   6.978   0.011 -0.6214 -0.8919 -0.1187
 2302poe     o210334   3.526   7.052  -0.101  0.3016  0.0041  0.7850
 2302poe    c2310335   3.582   7.177  -0.067 -0.2132  0.4648 -0.0147
 2302poe    c2310336   3.643   7.259  -0.182 -0.0539 -0.2974 -0.4871
 2302poe     o210337   3.544   7.295  -0.275  0.1858  0.0561 -0.6094
 2302poe    c2310338   3.597   7.401  -0.351  0.5735  0.3913  0.1271
 2302poe    c2310339   3.524   7.440  -0.480 -0.1645  0.2539  0.4971
 2302poe     o210340   3.386   7.457  -0.457 -0.4294 -0.6477 -0.3173
 2302poe    c2310341   3.313   7.519  -0.560 -0.7857 -0.0385  0.2904
 2302poe    c2310342   3.260   7.409  -0.654 -0.5789  0.1349 -0.0344
 2302poe     o210343   3.214   7.309  -0.566  0.8618  0.2425  0.8749
 2302poe    c3110344   3.166   7.205  -0.648 -0.4760  0.6523  1.1069
 2303poe    c3110345   4.454   1.997   6.365  0.0856  0.7954  0.2294
 2303poe     o210346   4.568   1.918   6.342 -0.1518  0.5361 -0.0796
 2303poe    c2310347   4.539   1.810   6.257 -0.3075  0.1399  0.4708
 2303poe    c2310348   4.657   1.711   6.264  0.0249  0.4839 -0.1772
 2303poe     o210349   4.787   1.754   6.232  0.1768  0.3923  0.3113
 2303poe    c2310350   4.870   1.640   6.223  0.6723  0.6592  1.2859
 2303poe    c2310351   5.015   1.652   6.171  0.0969  0.9097 -0.3436
 2303poe     o210352   5.102   1.728   6.251  0.5544  0.0154  0.0220
 2303poe    c2310353   5.110   1.868   6.235  0.5039 -0.0325 -0.4220
 2303poe    c2310354   5.194   1.923   6.352  0.2592 -0.0907 -0.2175
 2303poe     o210355   5.313   1.850   6.369  0.2077 -0.0308  0.4015
 2303poe    c3110356   5.372   1.880   6.494  0.4355 -0.2971  0.3612
 2304poe    c3110357   0.964   3.529   2.221  0.4200 -0.2719  0.1979
 2304poe     o210358   0.894   3.569   2.337  0.2702  0.2940 -0.0889
 2304poe    c2310359   0.979   3.596   2.446  0.0131  0.0042  0.1867
 2304poe    c2310360   0.899   3.597   2.577 -0.1966 -0.6897  0.0711
 2304poe     o210361   0.781   3.671   2.556  0.1758 -0.0282  0.2789
 2304poe    c2310362   0.701   3.673   2.672  0.0593 -0.0461  0.1990
 2304poe    c2310363   0.551   3.655   2.640  0.0177 -0.1240  0.4345
 2304poe     o210364   0.514   3.761   2.555  0.2613 -0.0683  0.3967
 2304poe    c2310365   0.396   3.725   2.488  0.6234  0.3859 -0.5052
 2304poe    c2310366   0.344   3.864   2.447 -0.0398  0.2270 -0.2108
 2304poe     o210367   0.450   3.934   2.387 -0.0938  0.9157  0.4898
 2304poe    c3110368   0.403   4.050   2.321  0.4572  0.4249 -0.7926
 2305poe    c3110369   2.171   4.866   3.993  0.5432 -0.1630 -0.2138
 2305poe     o210370   2.045   4.924   4.021  0.3496 -0.5188 -0.3366
 2305poe    c2310371   2.009   4.977   3.895 -0.1050  0.7725  0.3189
 2305poe    c2310372   1.883   5.065   3.909 -0.8101 -0.2195  0.2900
 2305poe     o210373   1.801   5.006   4.008 -0.3674 -0.2856  0.6206
 2305poe    c2310374   1.683   5.084   4.013 -0.1037  0.1639 -0.0132
 2305poe    c2310375   1.589   5.025   4.119 -0.1242  0.1177 -0.0566
 2305poe     o210376   1.660   5.027   4.240 -0.4956  0.5289  0.1559
 2305poe    c2310377   1.580   4.948   4.326  0.2542 -0.3301  0.0782
 2305poe    c2310378   1.646   4.888   4.451  0.0522  0.0594  0.3729
 2305poe     o210379   1.717   4.769   4.423 -0.0660  0.0323  0.1902
 2305poe    c3110380   1.764   4.702   4.538  0.1644 -0.0060  0.0741
 2306poe    c3110381   4.014   0.780   2.601 -0.2346  0.2073 -0.3259
 2306poe     o210382   3.961   0.907   2.568 -0.0131  0.3443 -0.1580
 2306poe    c2310383   4.003   0.999   2.666  0.2807  0.0243  0.0180
 2306poe    c2310384   3.952   1.139   2.628 -0.3626  0.0056  0.8037
 2306poe     o210385   4.012   1.188   2.510 -1.1254 -0.5479  0.1775
 2306poe    c2310386   3.996   1.327   2.493  0.3061 -0.3770  0.1372
 2306poe    c2310387   4.082   1.397   2.386 -0.3600  0.2778  0.0179
 2306poe     o210388   4.094   1.305   2.280  0.1084 -0.1029  0.3962
 2306poe    c2310389   4.209   1.327   2.203 -0.4177  0.9398 -0.1086
 2306poe    c2310390   4.206   1.221   2.090 -0.2788  0.8718 -0.0489
 2306poe     o210391   4.181   1.093   2.143  0.0103  0.6621 -0.4189
 2306poe    c3110392   4.171   0.998   2.039 -0.3371  0.2745 -0.0372
 2307poe    c3110393   4.565   3.344   1.857 -0.2238 -0.1944  0.1257
 2307poe     o210394   4.646   3.404   1.758 -0.3328  0.5448  0.4816
 2307poe    c2310395   4.754   3.481   1.807  0.4484 -0.3023  0.1307
 2307poe    c2310396   4.882   3.442   1.732  0.2881 -0.3393 -0.1233
 2307poe     o210397   4.911   3.304   1.745 -0.2742 -0.4810 -0.3225
 2307poe    c2310398   5.022   3.281   1.661 -0.2624 -0.4724 -0.3092
 2307poe    c2310399   5.091   3.144   1.672  0.5656 -0.0161  0.2243
 2307poe     o210400   5.124   3.114   1.806  0.3652  0.3589  0.3573
 2307poe    c2310401   5.179   2.986   1.826  0.1831  0.2189 -0.0402
 2307poe    c2310402   5.073   2.882   1.868  0.6328 -0.2248  0.0049
 2307poe     o210403   4.998   2.911   1.983 -0.0685 -0.1409 -0.4690
 2307poe    c3110404   4.906   2.809   2.015 -0.1008  0.0949  0.2132
 2308poe    c3110405   0.792   2.088   3.268  0.4797 -0.1621 -0.1547
 2308poe     o210406   0.759   2.065   3.403  0.1842  0.5768 -0.0949
 2308poe    c2310407   0.639   2.133   3.431 -0.1744 -0.0906  0.0090
 2308poe    c2310408   0.581   2.074   3.560 -0.5563  0.2120 -0.0228
 2308poe     o210409   0.675   2.073   3.665 -0.1557 -0.4259 -0.3807
 2308poe    c2310410   0.650   2.178   3.756  0.1245 -0.1545 -0.6135
 2308poe    c2310411   0.780   2.252   3.791 -0.1197 -0.0198  0.0230
 2308poe     o210412   0.830   2.307   3.671  0.3455  0.7041  0.5431
 2308poe    c2310413   0.947   2.383   3.694  0.9920 -0.1479  0.1231
 2308poe    c2310414   1.016   2.420   3.562  0.1183  0.5077 -0.1552
 2308poe     o210415   1.052   2.313   3.477  0.1027  0.5443 -0.2072
 2308poe    c3110416   1.062   2.366   3.346 -0.8659  0.1522 -0.4459
 2309poe    c3110417   5.315   5.502   4.414 -0.0820 -0.2912  0.2708
 2309poe     o210418   5.246   5.583   4.322 -0.0098 -0.3559  0.1599
 2309poe    c2310419   5.146   5.518   4.247  0.1944 -0.2200 -0.2327
 2309poe    c2310420   5.053   5.630   4.195  0.3554 -0.2553 -0.5986
 2309poe     o210421   5.137   5.703   4.108  0.5467  0.1641 -0.0663
 2309poe    c2310422   5.073   5.788   4.015  0.7713  0.0311 -0.3440
 2309poe    c2310423   5.024   5.927   4.060  0.0776 -0.2746 -0.1385
 2309poe     o210424   5.136   6.000   4.106  0.1133 -0.1416 -0.4290
 2309poe    c2310425   5.095   6.134   4.121  0.1986 -0.1647  0.0457
 2309poe    c2310426   5.207   6.210   4.195  0.1769  0.5823 -0.6689
 2309poe     o210427   5.331   6.149   4.167  0.0431  0.1880 -0.4083
 2309poe    c3110428   5.422   6.211   4.255  0.0014 -0.3218  0.0024
 2310poe    c3110429   1.129   4.762   6.385  0.2934  0.2343  0.6083
 2310poe     o210430   1.135   4.869   6.293 -0.4866 -0.5296 -0.3425
 2310poe    c2310431   1.136   4.990   6.365  0.4809 -0.3052 -0.7072
 2310poe    c2310432   1.168   5.122   6.293  0.0197  0.1932 -0.0050
 2310poe     o210433   1.064   5.164   6.208  0.3072  0.1401 -0.3810
 2310poe    c2310434   1.110   5.292   6.172  0.1104  0.2639 -0.1957
 2310poe    c2310435   0.986   5.353   6.105 -0.3857 -0.0059  0.4705
 2310poe     o210436   0.936   5.265   6.007  0.3210  0.1008  0.0115
 2310poe    c2310437   0.825   5.325   5.944  0.6262  0.1965 -0.4455
 2310poe    c2310438   0.751   5.243   5.836 -0.0067  0.1424  0.0224
 2310poe     o210439   0.717   5.113   5.878  0.2644  0.0280 -0.1095
 2310poe    c3110440   0.610   5.056   5.805 -0.1831  0.6367  0.0545
 2311poe    c3110441   1.538   3.396   6.517 -0.4511  0.3825 -0.0349
 2311poe     o210442   1.474   3.290   6.450 -0.0375  0.0617  0.0719
 2311poe    c2310443   1.390   3.338   6.347  0.2573 -0.1391 -0.2669
 2311poe    c2310444   1.254   3.372   6.412  0.3148 -0.2530 -0.0844
 2311poe     o210445   1.214   3.264   6.493 -0.2448 -0.2400 -0.3376
 2311poe    c2310446   1.075   3.259   6.511 -0.2156 -0.1067 -0.0668
 2311poe    c2310447   1.043   3.129   6.587  0.0327  0.1452  0.4656
 2311poe     o210448   1.125   3.116   6.701  0.4628 -0.1303  0.1238
 2311poe    c2310449   1.109   2.993   6.768  0.0425 -0.0108  0.2402
 2311poe    c2310450   1.211   3.000   6.883  0.0322  0.5411  0.2201
 2311poe     o210451   1.336   3.046   6.836  0.2699  0.4921  0.7974
 2311poe    c3110452   1.440   3.051   6.932  0.2429 -0.1392  0.8633
 2312poe    c3110453   3.309   2.658   6.283  0.3532  0.3280  0.0424
 2312poe     o210454   3.200   2.578   6.242  0.4744  0.4064 -0.4260
 2312poe    c2310455   3.221   2.562   6.103  0.0369  0.1211 -0.4626
 2312poe    c2310456   3.146   2.436   6.057 -0.1704  0.0553  0.0541
 2312poe     o210457   3.017   2.439   6.116 -0.0158  0.3381  0.3809
 2312poe    c2310458   2.943   2.323   6.087 -0.0564  0.4713 -0.0732
 2312poe    c2310459   2.861   2.311   6.217  0.4310 -0.5487  0.1514
 2312poe     o210460   2.928   2.337   6.338  0.1692  0.0748  0.1645
 2312poe    c2310461   2.832   2.323   6.440 -0.1192 -0.0329 -0.1224
 2312poe    c2310462   2.892   2.314   6.582  0.2284  0.2183 -0.2535
 2312poe     o210463   2.979   2.203   6.590 -0.3271 -0.1519  0.8728
 2312poe    c3110464   3.051   2.208   6.711  0.2478  0.1548  0.5237
 2313poe    c3110465   1.826   4.593   0.183 -0.1464 -0.2937  0.2403
 2313poe     o210466   1.862   4.674   0.074  0.5600 -0.7466  0.1346
 2313poe    c2310467   1.931   4.791   0.114 -0.0410 -0.4034  0.1840
 2313poe    c2310468   1.984   4.878  -0.002 -0.0051 -0.6875 -0.0150
 2313poe     o210469   1.876   4.901  -0.088  0.0227  0.0007  0.1255
 2313poe    c2310470   1.893   4.991  -0.195  0.1676 -0.0961  0.0681
 2313poe    c2310471   1.761   5.009  -0.272 -0.0162 -0.1732  0.3665
 2313poe     o210472   1.679   4.895  -0.290 -0.3082  0.1084 -0.1016
 2313poe    c2310473   1.562   4.919  -0.365 -0.4736  0.0708  0.1445
 2313poe    c2310474   1.520   4.791  -0.440  0.2038 -0.1438  0.1219
 2313poe     o210475   1.485   4.682  -0.358 -0.2268  0.0114  0.1499
 2313poe    c3110476   1.501   4.562  -0.430  0.1354  0.3336 -0.3147
 2314poe    c3110477   5.443   3.638   0.580  0.2210 -0.3906  0.0570
 2314poe     o210478   5.365   3.726   0.658  0.1102 -0.2527 -0.2061
 2314poe    c2310479   5.430   3.843   0.702  0.2433 -0.4393  0.1031
 2314poe    c2310480   5.342   3.961   0.749  0.1146 -0.5655  0.1785
 2314poe     o210481   5.296   3.959   0.882 -0.2175  0.1038  0.0743
 2314poe    c2310482   5.218   4.075   0.903 -0.2216  0.1392 -0.1360
 2314poe    c2310483   5.103   4.053   1.003 -0.2193  0.1040 -0.1410
 2314poe     o210484   5.030   3.939   0.963 -0.7043  0.3217  0.1015
 2314poe    c2310485   4.926   3.898   1.048 -0.2448 -0.1280  0.4545
 2314poe    c2310486   4.967   3.759   1.100  0.3122  0.0154  0.4007
 2314poe     o210487   5.016   3.684   0.992 -0.2453  0.1432  0.0559
 2314poe    c3110488   5.033   3.548   1.027  0.0843  0.1728  0.0152
 2315poe    c3110489   4.476   4.605   3.205  0.2714 -0.3218  0.1956
 2315poe     o210490   4.365   4.643   3.283 -0.0741  0.1656 -0.5254
 2315poe    c2310491   4.286   4.534   3.325  0.1257  0.4061  0.4984
 2315poe    c2310492   4.135   4.561   3.311 -0.0646 -0.4692  0.8238
 2315poe     o210493   4.113   4.681   3.382  0.0404  0.3305 -0.4562
 2315poe    c2310494   3.979   4.722   3.393 -0.0301 -0.0170  0.0319
 2315poe    c2310495   3.981   4.833   3.499  0.2703  0.4466 -0.4503
 2315poe     o210496   4.049   4.955   3.485  0.6248  0.3583  0.4139
 2315poe    c2310497   3.967   5.065   3.517 -0.0295  0.0615 -0.2238
 2315poe    c2310498   4.018   5.183   3.433  0.0489  0.5339  0.4794
 2315poe     o210499   4.154   5.199   3.465 -0.0026  0.1748  0.8805
 2315poe    c3110500   4.205   5.310   3.394 -0.3460 -0.1021  0.1951
 2316poe    c3110501   2.185   3.437   2.625  0.1341 -0.9238  0.3248
 2316poe     o210502   2.183   3.404   2.488 -0.0308  0.2099  0.0487
 2316poe    c2310503   2.140   3.273   2.462  0.0580  0.1201  0.3520
 2316poe    c2310504   2.157   3.266   2.309  0.2972  0.6690  0.3512
 2316poe     o210505   2.099   3.383   2.256 -0.6021 -0.0052 -0.1867
 2316poe    c2310506   2.041   3.354   2.130 -0.1772  0.3513 -0.4698
 2316poe    c2310507   1.954   3.467   2.072 -0.6181 -0.0553 -0.6078
 2316poe     o210508   1.860   3.531   2.156  0.0760  0.0668  0.0874
 2316poe    c2310509   1.777   3.623   2.088 -0.1025 -0.1581  0.0018
 2316poe    c2310510   1.724   3.705   2.207  0.2046  0.3560 -0.2133
 2316poe     o210511   1.825   3.741   2.299 -0.3524  0.0642  0.5263
 2316poe    c3110512   1.780   3.852   2.373 -0.4796 -0.1631  0.7922
 2317poe    c3110513   3.885   5.131   1.034  0.2746 -0.2245  0.1520
 2317poe     o210514   3.900   5.243   0.949 -0.5835  0.2890  0.6660
 2317poe    c2310515   4.016   5.318   0.974  0.2161 -0.5621 -0.3494
 2317poe    c2310516   4.037   5.430   0.871 -0.0641  0.1416  0.3433
 2317poe     o210517   3.951   5.542   0.869  0.3334  0.4569  0.7460
 2317poe    c2310518   3.996   5.643   0.781  0.0562  0.0206  0.0952
 2317poe    c2310519   4.001   5.608   0.631  0.3901  0.3933  0.0174
 2317poe     o210520   3.869   5.585   0.586  0.4538 -0.0636  0.0646
 2317poe    c2310521   3.860   5.576   0.446 -0.5671  0.5957  0.0760
 2317poe    c2310522   3.721   5.533   0.397 -0.4083  0.1307  0.0264
 2317poe     o210523   3.663   5.409   0.429 -0.4371  0.1783  0.1598
 2317poe    c3110524   3.704   5.303   0.346 -0.1367  0.4599 -0.0524
 2318poe    c3110525   2.939   1.263   6.379  0.5470 -0.4384 -0.2840
 2318poe     o210526   2.801   1.264   6.407  0.5518  0.2799 -0.2700
 2318poe    c2310527   2.757   1.379   6.477  0.1317 -0.1942  0.2541
 2318poe    c2310528   2.605   1.380   6.505  0.2093  0.2429  0.6565
 2318poe     o210529   2.550   1.394   6.376  0.0061 -1.0161  0.6019
 2318poe    c2310530   2.420   1.446   6.393  0.1575 -0.4194 -0.0135
 2318poe    c2310531   2.349   1.477   6.260  0.0816  0.0262  0.1282
 2318poe     o210532   2.317   1.358   6.191 -0.5572 -0.0267  0.5040
 2318poe    c2310533   2.271   1.401   6.065  0.1284  0.1376  0.3004
 2318poe    c2310534   2.310   1.313   5.945  0.3527  0.0976  0.4026
 2318poe     o210535   2.447   1.304   5.914  0.2639  0.4255 -0.0995
 2318poe    c3110536   2.482   1.231   5.799  0.1585  0.4790 -0.1650
 2319poe    c3110537   4.240   0.283   0.664  0.2912 -0.7129  0.5723
 2319poe     o210538   4.129   0.196   0.669  0.2433 -0.6719  0.2116
 2319poe    c2310539   4.051   0.222   0.783 -0.0095  0.4815 -0.2148
 2319poe    c2310540   3.949   0.336   0.759 -0.4319  0.3666  0.9558
 2319poe     o210541   3.870   0.316   0.644  0.2755  0.1649  0.4972
 2319poe    c2310542   3.752   0.392   0.656  0.2852  0.2191  0.2448
 2319poe    c2310543   3.664   0.377   0.530 -0.2148  0.3758  0.5720
 2319poe     o210544   3.722   0.446   0.421  0.1729 -0.1607  0.4321
 2319poe    c2310545   3.664   0.407   0.299  0.0337  0.4039  0.3153
 2319poe    c2310546   3.749   0.376   0.174  0.2578  0.5252  0.4368
 2319poe     o210547   3.838   0.268   0.181 -0.6515 -0.2485  0.2656
 2319poe    c3110548   3.925   0.278   0.070 -0.8728  0.1238  0.1279
 2320poe    c3110549   1.130   0.717   2.518 -0.3858 -0.5244 -0.0216
 2320poe     o210550   1.012   0.725   2.441 -0.0091 -0.6798 -0.6279
 2320poe    c2310551   1.036   0.818   2.338  0.5934  0.3461  0.4122
 2320poe    c2310552   0.910   0.851   2.255  0.5594  0.4357  0.4982
 2320poe     o210553   0.819   0.919   2.338 -0.0966  0.5507 -0.3031
 2320poe    c2310554   0.690   0.925   2.283  0.2982  0.8226 -1.2204
 2320poe    c2310555   0.590   1.006   2.368 -0.2600 -0.6665 -0.4368
 2320poe     o210556   0.589   0.949   2.497 -0.3254  0.0597 -0.1124
 2320poe    c2310557   0.519   1.041   2.578 -0.4049  0.0478 -0.1680
 2320poe    c2310558   0.509   0.982   2.720  0.6089  0.1037 -0.0657
 2320poe     o210559   0.628   0.972   2.795  0.4414 -0.1269  0.1735
 2320poe    c3110560   0.596   0.928   2.925 -0.0771 -0.3070 -0.0130
 2321poe    c3110561   4.141   4.051   4.372  0.0316 -0.3385  0.0949
 2321poe     o210562   4.221   3.987   4.275  0.2880  0.0773  0.0254
 2321poe    c2310563   4.342   3.934   4.323  0.1135 -0.2993  0.0581
 2321poe    c2310564   4.456   3.968   4.225  0.1960 -0.5917  0.0503
 2321poe     o210565   4.446   3.914   4.095 -0.2820  0.1604 -0.2330
 2321poe    c2310566   4.360   3.978   4.004 -0.6967  0.4632  0.3664
 2321poe    c2310567   4.390   3.930   3.861 -0.3966  0.3928  0.4527
 2321poe     o210568   4.351   3.799   3.828  0.7398  0.1840 -0.1170
 2321poe    c2310569   4.378   3.768   3.693  0.2839 -0.0624 -0.1529
 2321poe    c2310570   4.354   3.617   3.669  0.3084 -0.0732 -0.1070
 2321poe     o210571   4.223   3.587   3.712  0.3748 -0.0706  0.1019
 2321poe    c3110572   4.169   3.479   3.639  0.2066  0.0374  0.0658
 2322poe    c3110573   2.510   5.475   4.049  0.4800 -0.0473 -0.4609
 2322poe     o210574   2.613   5.398   4.105  0.4174  0.1697 -0.0422
 2322poe    c2310575   2.625   5.403   4.245 -0.4174 -0.1273  0.0445
 2322poe    c2310576   2.680   5.532   4.308 -0.3461 -0.0292 -0.2169
 2322poe     o210577   2.583   5.633   4.328 -0.0940  0.1800 -0.0295
 2322poe    c2310578   2.641   5.761   4.336  0.3368 -0.0258  0.1937
 2322poe    c2310579   2.535   5.870   4.356 -0.3274 -0.6958  0.3675
 2322poe     o210580   2.474   5.870   4.484  0.2632 -0.0322  0.6578
 2322poe    c2310581   2.369   5.965   4.475  0.2395 -0.0652  0.5897
 2322poe    c2310582   2.292   5.938   4.605 -0.8995  0.1870 -0.0251
 2322poe     o210583   2.208   5.825   4.600 -0.2889 -0.2726  0.0967
 2322poe    c3110584   2.081   5.867   4.645 -0.0298 -0.0468  0.6390
 2323poe    c3110585   0.665   0.071   3.808  0.3708 -0.3714 -0.1664
 2323poe     o210586   0.638   0.153   3.697 -0.3634  0.4352  0.5844
 2323poe    c2310587   0.517   0.216   3.731 -0.4353  0.4776  0.2554
 2323poe    c2310588   0.487   0.284   3.596 -0.2399  0.5669  0.2564
 2323poe     o210589   0.602   0.357   3.559 -0.1421  0.4959  0.4187
 2323poe    c2310590   0.584   0.427   3.438 -0.3254  0.9013  0.6781
 2323poe    c2310591   0.724   0.476   3.396 -0.3117  0.2161 -0.0931
 2323poe     o210592   0.808   0.363   3.392 -0.4611  0.1159 -0.4937
 2323poe    c2310593   0.935   0.387   3.334 -0.1560  0.1247  0.1710
 2323poe    c2310594   1.041   0.460   3.418  0.2274  0.4736 -0.6073
 2323poe     o210595   1.090   0.378   3.522 -0.1714  0.4448 -0.4377
 2323poe    c3110596   1.212   0.433   3.567 -0.1775  0.2337 -0.1629
 2324poe    c3110597   1.445   6.328   0.280 -0.0512  0.2105 -1.0485
 2324poe     o210598   1.315   6.273   0.283  0.0743 -0.0709 -0.5083
 2324poe    c2310599   1.284   6.231   0.413  0.2733 -0.5534 -0.6138
 2324poe    c2310600   1.146   6.163   0.422  0.0727 -0.0916 -0.1101
 2324poe     o210601   1.052   6.258   0.376  0.0459  0.1099  0.3594
 2324poe    c2310602   0.923   6.203   0.376  0.2351 -0.3342  0.1125
 2324poe    c2310603   0.828   6.315   0.422  0.2470 -0.1676 -0.2702
 2324poe     o210604   0.849   6.431   0.344 -0.3193  0.2100  0.1283
 2324poe    c2310605   0.765   6.445   0.232  0.1448 -0.5482 -0.3253
 2324poe    c2310606   0.793   6.587   0.181  0.1857 -0.6161 -0.4911
 2324poe     o210607   0.925   6.590   0.131  0.2406 -0.2287 -0.3289
 2324poe    c3110608   0.951   6.719   0.081  0.5632 -0.0899  0.1790
 2325poe    c3110609   1.783   2.350   1.384 -0.2207  0.0036 -0.0559
 2325poe     o210610   1.776   2.227   1.314 -0.0989 -0.0698  0.0586
 2325poe    c2310611   1.899   2.222   1.245 -0.2689 -0.6491 -0.2098
 2325poe    c2310612   1.888   2.153   1.108  0.1297 -0.1583 -0.4910
 2325poe     o210613   1.806   2.224   1.018 -0.2078 -0.3869 -0.3670
 2325poe    c2310614   1.744   2.147   0.918 -0.2510 -0.0659 -0.5907
 2325poe    c2310615   1.625   2.057   0.956 -0.1074 -0.1617 -0.3633
 2325poe     o210616   1.658   1.944   1.033 -0.4807 -0.1987 -0.2545
 2325poe    c2310617   1.699   1.834   0.955 -1.0338  0.3564 -1.3472
 2325poe    c2310618   1.691   1.703   1.035 -0.2889  0.9588 -0.2590
 2325poe     o210619   1.556   1.667   1.053 -0.0693  0.1926 -0.0930
 2325poe    c3110620   1.557   1.559   1.143 -0.1484  0.2236 -0.0549
 2326poe    c3110621   5.317   2.559   6.914  0.2647  0.1386  0.5721
 2326poe     o210622   5.363   2.437   6.969  0.0991 -0.1351  0.1110
 2326poe    c2310623   5.452   2.371   6.881  0.3005 -0.0032  0.2148
 2326poe    c2310624   5.590   2.437   6.859 -0.0240  0.6367  0.0774
 2326poe     o210625   5.582   2.558   6.787 -0.1689  0.5046 -0.1296
 2326poe    c2310626   5.702   2.609   6.734  0.3868 -0.8184 -0.1912
 2326poe    c2310627   5.794   2.536   6.634  0.5213 -0.8509 -0.0444
 2326poe     o210628   5.925   2.531   6.683  0.4932 -0.7108  0.0460
 2326poe    c2310629   6.025   2.578   6.595 -0.0196  0.4051  0.0470
 2326poe    c2310630   6.161   2.611   6.660  0.2649 -0.4371 -0.1208
 2326poe     o210631   6.233   2.492   6.686  0.2601 -0.2504  0.7586
 2326poe    c3110632   6.360   2.505   6.629  0.1516 -0.1325  0.5455
 2327poe    c3110633   2.994   4.699   0.966  0.0674  0.5970  0.1030
 2327poe     o210634   2.885   4.740   1.046 -0.3593 -0.2499 -0.0224
 2327poe    c2310635   2.930   4.768   1.177 -0.2815 -0.2611 -0.0464
 2327poe    c2310636   2.802   4.749   1.261 -0.5655 -0.1466 -0.4494
 2327poe     o210637   2.740   4.627   1.225  0.0070 -0.4872 -0.2876
 2327poe    c2310638   2.625   4.616   1.305 -0.6595  0.1276 -1.1471
 2327poe    c2310639   2.545   4.495   1.255 -0.1939 -0.4210 -0.5724
 2327poe     o210640   2.505   4.507   1.120  0.1985 -0.1383 -0.6646
 2327poe    c2310641   2.429   4.394   1.084  0.5973 -0.5245 -0.3143
 2327poe    c2310642   2.415   4.398   0.930 -0.0960 -0.6944 -0.2574
 2327poe     o210643   2.536   4.444   0.875 -0.1828  0.1061  0.1979
 2327poe    c3110644   2.518   4.456   0.736  0.2743 -0.4451  0.0866
 2328poe    c3110645   6.131   5.253   5.789  0.1114  0.2573 -0.3567
 2328poe     o210646   6.096   5.291   5.658 -0.3430 -0.3690 -0.4201
 2328poe    c2310647   6.205   5.315   5.572 -0.2079 -0.0654 -0.1651
 2328poe    c2310648   6.145   5.344   5.433  0.0841  0.1160 -0.2540
 2328poe     o210649   6.059   5.455   5.422 -0.3873 -0.2286 -0.0936
 2328poe    c2310650   6.049   5.500   5.289  0.0271  0.2274  0.0220
 2328poe    c2310651   6.157   5.600   5.246 -0.2480  0.3893 -0.2878
 2328poe     o210652   6.154   5.705   5.340  0.2713  0.0372  0.1259
 2328poe    c2310653   6.234   5.816   5.306  0.3450 -0.0197  0.1167
 2328poe    c2310654   6.153   5.919   5.225 -0.8594 -0.6353  0.5158
 2328poe     o210655   6.128   5.870   5.095 -0.1669 -0.3498  0.2707
 2328poe    c3110656   6.054   5.967   5.024  0.4910 -0.0525 -0.0240
 2329poe    c3110657   2.406   6.044   6.425 -0.4822 -0.1520  0.0844
 2329poe     o210658   2.510   6.140   6.424 -0.4502 -0.1903 -0.3225
 2329poe    c2310659   2.460   6.256   6.360  0.2650  0.0949 -0.3766
 2329poe    c2310660   2.568   6.361   6.329  0.3472  0.1418  0.0624
 2329poe     o210661   2.668   6.331   6.235  0.3409 -0.5501  0.2720
 2329poe    c2310662   2.737   6.454   6.234 -0.2318 -0.2238 -0.0780
 2329poe    c2310663   2.793   6.481   6.093 -0.2588 -0.1457 -0.0739
 2329poe     o210664   2.704   6.476   5.984 -0.2753 -0.4043 -0.0506
 2329poe    c2310665   2.784   6.476   5.867 -0.2007 -0.0456 -0.0015
 2329poe    c2310666   2.689   6.511   5.751 -0.2342 -0.2791 -0.0444
 2329poe     o210667   2.562   6.472   5.798 -0.0129 -0.3538  0.4985
 2329poe    c3110668   2.485   6.481   5.681  0.3454 -0.2880  0.2661
 2330poe    c3110669   2.999   1.803   0.912 -0.1494 -0.1117  0.1827
 2330poe     o210670   3.039   1.766   0.781  0.1313 -0.6621  0.4212
 2330poe    c2310671   3.149   1.678   0.788  0.3176 -0.4322  0.3988
 2330poe    c2310672   3.216   1.645   0.653  0.3492 -0.3902  0.4041
 2330poe     o210673   3.131   1.602   0.549  0.8415 -0.2785 -0.0408
 2330poe    c2310674   3.201   1.619   0.427  0.1505  0.2683 -0.3664
 2330poe    c2310675   3.122   1.584   0.299 -0.4654  0.2685  0.0086
 2330poe     o210676   3.006   1.664   0.290 -0.1885  0.7257  0.4008
 2330poe    c2310677   2.912   1.608   0.201  0.6171 -0.4711  0.2702
 2330poe    c2310678   2.813   1.725   0.181  0.0640 -0.9357  0.2906
 2330poe     o210679   2.769   1.772   0.306  0.1451  0.4525 -0.1891
 2330poe    c3110680   2.707   1.899   0.305  0.1933  0.4767 -0.0961
 2331poe    c3110681   4.264   0.371   5.295 -1.0663 -0.2587  0.8373
 2331poe     o210682   4.202   0.474   5.222  0.1437  0.0277  0.1797
 2331poe    c2310683   4.247   0.594   5.281 -0.3958  0.2906  0.0653
 2331poe    c2310684   4.151   0.713   5.264 -0.4899  0.0712 -1.0168
 2331poe     o210685   4.043   0.711   5.355  0.0025  0.1297 -0.4241
 2331poe    c2310686   3.960   0.820   5.320 -0.3760  0.0390  0.1767
 2331poe    c2310687   3.905   0.880   5.451 -0.1531  0.3177  0.1421
 2331poe     o210688   3.986   0.962   5.533  0.0606  0.3158 -0.0653
 2331poe    c2310689   4.075   0.895   5.618  0.2546  0.4743 -0.1427
 2331poe    c2310690   4.016   0.807   5.729  0.2041  0.3777 -0.2452
 2331poe     o210691   3.968   0.876   5.843  0.1485 -0.2489  0.1181
 2331poe    c3110692   3.869   0.808   5.916  0.3020 -0.2512  0.3239
 2332poe    c3110693   7.145   5.415   0.400  0.0760  0.0779 -0.4146
 2332poe     o210694   7.150   5.508   0.294 -0.4812  0.9398  0.3030
 2332poe    c2310695   7.243   5.457   0.202 -0.5949  0.5915  0.3772
 2332poe    c2310696   7.248   5.540   0.073 -1.0071 -0.2999 -0.2210
 2332poe     o210697   7.278   5.678   0.072 -0.1815 -0.4745  0.3272
 2332poe    c2310698   7.402   5.713   0.131 -0.1279 -0.3101  0.1153
 2332poe    c2310699   7.406   5.866   0.148 -0.5897 -0.2967  0.1046
 2332poe     o210700   7.287   5.914   0.207 -0.5552 -0.3453  0.2129
 2332poe    c2310701   7.308   6.042   0.262  0.3977 -0.2064 -0.4483
 2332poe    c2310702   7.179   6.081   0.336  0.4575 -0.2323 -0.3294
 2332poe     o210703   7.074   6.017   0.266  0.1060 -0.1899  0.1527
 2332poe    c3110704   6.960   6.074   0.326 -0.1198 -0.5948  0.1099
 2333poe    c3110705   3.075   0.675   2.148 -0.0040  0.4343  0.2495
 2333poe     o210706   3.119   0.804   2.184 -0.0054  0.5266 -0.0721
 2333poe    c2310707   3.017   0.900   2.168 -0.6566 -0.2096 -0.4023
 2333poe    c2310708   3.050   1.038   2.228  0.1747 -0.4144 -0.3826
 2333poe     o210709   3.178   1.079   2.185  0.2423 -0.2387 -0.0122
 2333poe    c2310710   3.204   1.201   2.252  0.5511 -0.0034 -0.5545
 2333poe    c2310711   3.322   1.282   2.195  0.0719  1.0275 -0.0958
 2333poe     o210712   3.294   1.325   2.063  0.0256 -0.3263 -0.5398
 2333poe    c2310713   3.414   1.379   2.011  0.1753 -0.0105  0.1140
 2333poe    c2310714   3.412   1.382   1.857 -0.5937 -0.3387  0.1094
 2333poe     o210715   3.373   1.262   1.794  0.4117 -0.7585  0.2710
 2333poe    c3110716   3.234   1.271   1.775  0.5738 -0.2014 -0.6720
 2334poe    c3110717   3.995   6.094   6.170 -0.1441 -0.5466 -0.2320
 2334poe     o210718   4.119   6.141   6.122 -0.4229 -0.0776 -0.4948
 2334poe    c2310719   4.213   6.036   6.121  0.1981  0.4538  0.1416
 2334poe    c2310720   4.318   6.071   6.015  0.0048  0.1404 -0.1573
 2334poe     o210721   4.352   6.207   6.032 -0.4025  0.1631  0.5052
 2334poe    c2310722   4.413   6.269   5.921 -0.4065 -0.4850  0.1350
 2334poe    c2310723   4.446   6.417   5.949  1.1691 -0.8982  0.5530
 2334poe     o210724   4.343   6.461   6.035  1.2574  0.2509  0.0922
 2334poe    c2310725   4.342   6.601   6.021  0.9028  0.2553  0.1662
 2334poe    c2310726   4.270   6.674   6.136  0.3529 -0.3913  0.2388
 2334poe     o210727   4.143   6.623   6.171  0.0388  0.2062 -0.0201
 2334poe    c3110728   4.114   6.676   6.298 -0.2300 -0.5005  0.2187
 2335poe    c3110729   7.056   6.632   5.782  0.0465 -0.3642  0.4046
 2335poe     o210730   7.137   6.618   5.668  0.1723  0.3627  0.4049
 2335poe    c2310731   7.097   6.523   5.572  0.3416  0.3250  0.3702
 2335poe    c2310732   7.218   6.459   5.503 -0.0151  0.2697 -0.2097
 2335poe     o210733   7.295   6.372   5.583 -0.4662  0.0294 -0.0366
 2335poe    c2310734   7.230   6.248   5.603 -0.0691 -0.1742 -0.0028
 2335poe    c2310735   7.263   6.180   5.737  0.7481  0.9026  0.3619
 2335poe     o210736   7.196   6.249   5.839 -0.0918  0.2713  0.2487
 2335poe    c2310737   7.244   6.212   5.967  0.1127 -0.2029  0.0368
 2335poe    c2310738   7.160   6.287   6.072 -0.5155 -0.0377 -0.5737
 2335poe     o210739   7.182   6.426   6.057 -0.1502 -0.0382 -0.0784
 2335poe    c3110740   7.124   6.502   6.160 -0.5527 -0.1132 -0.2482
 2336poe    c3110741   3.174   3.968   2.102  0.6857 -0.0040  0.0389
 2336poe     o210742   3.131   4.091   2.047 -0.3349 -0.1812  0.4237
 2336poe    c2310743   3.153   4.111   1.909 -0.2904  0.0125  0.4585
 2336poe    c2310744   3.102   4.248   1.860  0.0476 -0.1233 -0.2845
 2336poe     o210745   3.194   4.354   1.858  0.1820 -0.2446 -0.5673
 2336poe    c2310746   3.237   4.395   1.986 -0.8312 -0.0418 -0.2828
 2336poe    c2310747   3.293   4.539   1.980 -0.4432 -0.1750  0.0740
 2336poe     o210748   3.290   4.587   2.112 -0.2845  0.0445 -0.0025
 2336poe    c2310749   3.316   4.726   2.110 -0.6524  0.1080 -0.5801
 2336poe    c2310750   3.324   4.779   2.254 -0.9702 -0.0899 -0.4891
 2336poe     o210751   3.196   4.793   2.313 -1.0407 -0.3681 -0.5732
 2336poe    c3110752   3.191   4.736   2.442 -0.1672  0.3940 -0.1823
 2337poe    c3110753   1.268   3.112   2.838  0.4026 -0.4766 -0.0930
 2337poe     o210754   1.238   3.178   2.717  0.2199 -0.1217  0.1452
 2337poe    c2310755   1.182   3.080   2.633  0.2798  0.1898 -0.2597
 2337poe    c2310756   1.221   3.081   2.484 -0.3659 -0.5544 -0.4404
 2337poe     o210757   1.165   3.190   2.415  0.2606  0.1521  0.1599
 2337poe    c2310758   1.247   3.249   2.316  0.0674 -0.2119 -0.2222
 2337poe    c2310759   1.295   3.394   2.337 -0.1911 -0.1204 -0.2584
 2337poe     o210760   1.391   3.386   2.440 -0.0126  0.4887 -0.3687
 2337poe    c2310761   1.517   3.434   2.400  0.2748  0.0202 -0.0465
 2337poe    c2310762   1.644   3.387   2.473  0.5794  0.5997 -0.1983
 2337poe     o210763   1.656   3.429   2.607  0.2492 -0.1999  0.0867
 2337poe    c3110764   1.770   3.371   2.665  0.1902 -0.7758 -0.3565
 2338poe    c3110765   6.405   5.013   5.003  0.8229  0.0770  0.2223
 2338poe     o210766   6.544   5.030   4.984  0.8370 -0.1327  0.1462
 2338poe    c2310767   6.578   5.145   5.057  0.0790  0.2700 -0.1207
 2338poe    c2310768   6.714   5.186   4.998  0.0498  0.4405 -0.0695
 2338poe     o210769   6.791   5.068   4.993  0.1346  0.5112 -0.4420
 2338poe    c2310770   6.922   5.120   4.994  0.1204  0.5452 -0.1963
 2338poe    c2310771   7.035   5.018   4.969 -0.3540 -0.1422  0.4031
 2338poe     o210772   7.042   4.890   5.026 -0.2415 -0.2516  0.1455
 2338poe    c2310773   7.074   4.884   5.163 -0.2150 -0.1002  0.1456
 2338poe    c2310774   7.026   4.764   5.246 -0.0365 -0.1881  0.1228
 2338poe     o210775   6.889   4.730   5.249 -0.0774 -0.0273  0.0589
 2338poe    c3110776   6.855   4.693   5.380 -0.1054 -0.1809  0.0081
 2339poe    c3110777   6.453   6.173   3.191 -0.0547  0.0539 -0.6563
 2339poe     o210778   6.589   6.138   3.204 -0.2351 -0.4070  0.0908
 2339poe    c2310779   6.600   6.023   3.123 -0.8497 -0.3587 -0.0642
 2339poe    c2310780   6.749   5.990   3.106 -0.4844  0.8553  0.6953
 2339poe     o210781   6.803   5.917   3.215  0.5374  0.7194  0.1148
 2339poe    c2310782   6.944   5.917   3.213  0.5372  0.9439  0.0547
 2339poe    c2310783   6.988   5.822   3.326  0.3874  0.3385 -0.3915
 2339poe     o210784   6.944   5.853   3.456  0.5992  0.1481 -0.2735
 2339poe    c2310785   6.828   5.776   3.481  0.6869  0.0718 -0.0967
 2339poe    c2310786   6.774   5.812   3.621  0.2360 -0.2712 -0.1806
 2339poe     o210787   6.739   5.947   3.642 -0.6585 -0.4818 -0.2958
 2339poe    c3110788   6.627   5.994   3.571 -0.2642  0.1404 -0.5087
 2340poe    c3110789   0.318   6.689   6.192 -0.2431 -0.3707 -0.1783
 2340poe     o210790   0.357   6.571   6.125  0.1237  0.0566 -0.7318
 2340poe    c2310791   0.348   6.468   6.220  0.4327  0.5762 -0.1335
 2340poe    c2310792   0.465   6.373   6.191 -0.0356  0.0821 -0.4291
 2340poe     o210793   0.460   6.358   6.051 -0.2318 -0.4450 -0.3676
 2340poe    c2310794   0.535   6.249   6.001 -0.1561 -0.6724  0.2266
 2340poe    c2310795   0.511   6.236   5.849 -0.2538 -0.3711  0.2155
 2340poe     o210796   0.500   6.366   5.796  0.2454 -0.4353 -0.0473
 2340poe    c2310797   0.514   6.349   5.657 -0.3052  0.6055 -0.2426
 2340poe    c2310798   0.544   6.482   5.584 -0.6923  0.2921 -0.9837
 2340poe     o210799   0.464   6.593   5.619 -0.0528  0.3274  0.4413
 2340poe    c3110800   0.385   6.629   5.508 -0.1599 -0.5015  0.2392
 2341poe    c3110801   3.824   6.368   3.975  0.1017 -0.0550  0.1374
 2341poe     o210802   3.800   6.391   3.839  0.3450  0.3345  0.1583
 2341poe    c2310803   3.853   6.290   3.755 -0.0376  0.4719 -0.2568
 2341poe    c2310804   3.806   6.277   3.609 -0.3882  0.0069 -0.1065
 2341poe     o210805   3.667   6.295   3.624 -0.3549  0.0327  0.1776
 2341poe    c2310806   3.613   6.353   3.508  0.0704 -0.1642 -0.1181
 2341poe    c2310807   3.474   6.412   3.535  0.0195 -0.0810 -0.5559
 2341poe     o210808   3.389   6.311   3.587 -0.0132 -0.0098 -0.4716
 2341poe    c2310809   3.255   6.353   3.597  0.0728  0.1341  0.1741
 2341poe    c2310810   3.200   6.239   3.684  0.2644 -0.4074 -0.4092
 2341poe     o210811   3.289   6.210   3.789  0.2439 -0.6875 -0.4660
 2341poe    c3110812   3.222   6.138   3.889  0.7320 -0.2092  0.2159
 2342poe    c3110813   5.860   2.691   1.650  0.0754  0.2900  0.3174
 2342poe     o210814   5.789   2.573   1.622  0.5560  0.1558 -0.3666
 2342poe    c2310815   5.685   2.603   1.531  0.4531  0.7381 -0.0640
 2342poe    c2310816   5.596   2.481   1.499  0.7319  0.4011  0.4150
 2342poe     o210817   5.530   2.423   1.609 -0.2328  0.8506  0.0807
 2342poe    c2310818   5.409   2.494   1.624 -0.4384  0.6545 -0.6020
 2342poe    c2310819   5.314   2.401   1.703  0.5059 -0.4260 -0.7113
 2342poe     o210820   5.392   2.343   1.805 -0.1158  0.2443  0.1674
 2342poe    c2310821   5.321   2.248   1.880  0.7010 -0.1494  0.4570
 2342poe    c2310822   5.428   2.209   1.983  0.4807  0.0181  0.7496
 2342poe     o210823   5.535   2.167   1.901  0.1229 -0.4603  0.5265
 2342poe    c3110824   5.639   2.115   1.982  0.7094  0.2477  0.2403
 2343poe    c3110825   5.303   5.032   5.410 -0.5424  0.0863 -0.3274
 2343poe     o210826   5.329   4.894   5.413 -0.1476  0.1711  0.2962
 2343poe    c2310827   5.232   4.818   5.345  0.1716 -0.2865  0.3433
 2343poe    c2310828   5.255   4.671   5.381  0.6530 -0.1944  0.4200
 2343poe     o210829   5.208   4.647   5.512  0.1093 -0.6528  0.1468
 2343poe    c2310830   5.258   4.519   5.548  0.9007 -0.2512  0.5039
 2343poe    c2310831   5.214   4.477   5.690 -0.7616  0.7889  0.3396
 2343poe     o210832   5.256   4.580   5.776 -0.0096  0.5823  0.2319
 2343poe    c2310833   5.172   4.578   5.890 -0.0367  0.2458  0.2070
 2343poe    c2310834   5.182   4.704   5.977 -0.7885  0.3707  0.1157
 2343poe     o210835   5.156   4.808   5.885  0.7899  0.7413  0.0610
 2343poe    c3110836   5.088   4.913   5.949 -0.3738  0.2918 -0.4204
 2344poe    c3110837   0.317   4.419   3.679 -0.4522  0.8632 -0.0407
 2344poe     o210838   0.322   4.379   3.543 -0.1831  0.6308  0.0362
 2344poe    c2310839   0.437   4.424   3.476  0.2984  0.0441  0.4597
 2344poe    c2310840   0.444   4.370   3.332 -0.2527 -0.2785  0.5525
 2344poe     o210841   0.415   4.232   3.335  0.0221 -0.3501  0.0099
 2344poe    c2310842   0.515   4.175   3.254  0.1603 -0.1428  0.0325
 2344poe    c2310843   0.500   4.024   3.283 -0.1504 -0.1203 -0.0077
 2344poe     o210844   0.362   3.998   3.288 -0.1560 -0.0240  0.3956
 2344poe    c2310845   0.340   3.865   3.330  0.2818 -0.1002  0.3820
 2344poe    c2310846   0.193   3.849   3.289  0.3984 -0.0025 -0.0883
 2344poe     o210847   0.125   3.965   3.332  0.6767  0.1406 -0.0332
 2344poe    c3110848  -0.013   3.972   3.305  0.8063 -0.1230 -0.7729
 2345poe    c3110849   5.049   6.757   5.762  0.1609 -0.3857 -0.1924
 2345poe     o210850   5.054   6.858   5.664 -0.5799  0.0261  0.1871
 2345poe    c2310851   5.038   6.990   5.711 -0.0234  0.1343  0.0833
 2345poe    c2310852   5.002   7.096   5.605  0.1346  0.0655 -0.0404
 2345poe     o210853   5.107   7.082   5.512 -0.2842 -0.4305 -0.4550
 2345poe    c2310854   5.105   7.169   5.401 -0.2255 -0.2060 -0.2808
 2345poe    c2310855   5.230   7.148   5.313 -0.1985 -0.1381 -0.2585
 2345poe     o210856   5.215   7.018   5.260 -0.2485 -0.1129 -0.3071
 2345poe    c2310857   5.335   6.967   5.207  0.0354  0.2883 -0.0542
 2345poe    c2310858   5.436   6.905   5.306 -0.3569 -0.2927 -0.0189
 2345poe     o210859   5.380   6.791   5.367 -0.4428 -0.1482  0.1692
 2345poe    c3110860   5.481   6.739   5.451 -0.1252 -0.0332 -0.1413
 2346poe    c3110861   1.905   0.264   3.280 -0.2032  0.4443  0.3752
 2346poe     o210862   1.976   0.234   3.399 -0.2247  0.2758  0.3449
 2346poe    c2310863   2.111   0.204   3.371 -0.1574  0.5910  0.3228
 2346poe    c2310864   2.208   0.140   3.472  0.0644  0.3200 -0.0595
 2346poe     o210865   2.249   0.213   3.585 -0.1466 -0.1594  0.3298
 2346poe    c2310866   2.327   0.131   3.671 -0.2609  0.0510  0.6343
 2346poe    c2310867   2.410   0.215   3.770  0.3746  0.1546  0.0196
 2346poe     o210868   2.329   0.259   3.876 -0.0232  0.1952 -0.3015
 2346poe    c2310869   2.408   0.334   3.964  0.2147 -0.1870 -0.1884
 2346poe    c2310870   2.325   0.439   4.040 -0.0150 -0.1355 -0.5091
 2346poe     o210871   2.274   0.537   3.953 -0.5232 -0.1075 -0.1811
 2346poe    c3110872   2.220   0.653   4.014 -0.2081  0.1703 -0.4259
 2347poe    c3110873   6.373   5.576   2.934  0.0534 -0.5708 -0.5347
 2347poe     o210874   6.372   5.588   2.794 -0.1735  0.0036 -0.4850
 2347poe    c2310875   6.277   5.691   2.775 -0.1822  0.1094  0.1056
 2347poe    c2310876   6.257   5.697   2.622  0.1465 -0.4754  0.0378
 2347poe     o210877   6.241   5.565   2.573  0.2188 -0.3791 -0.2478
 2347poe    c2310878   6.144   5.558   2.471  0.8821 -0.0619 -0.9074
 2347poe    c2310879   6.084   5.416   2.466 -0.1370  0.3031  0.3567
 2347poe     o210880   6.167   5.326   2.394 -0.5622  0.4426 -0.3151
 2347poe    c2310881   6.141   5.190   2.419 -0.4047  0.5501  0.4456
 2347poe    c2310882   6.210   5.085   2.330 -0.4390  0.1630  0.8729
 2347poe     o210883   6.351   5.088   2.326 -0.4576 -0.1370 -0.0234
 2347poe    c3110884   6.410   4.983   2.252 -0.6021 -0.2184 -0.0255
 2348poe    c3110885   7.062   3.313   4.973 -0.0763  0.0418 -0.0081
 2348poe     o210886   7.026   3.247   4.854  0.0455  0.0144 -0.0301
 2348poe    c2310887   7.135   3.190   4.785 -0.3249 -0.0549 -0.5645
 2348poe    c2310888   7.090   3.126   4.652 -0.0535 -0.7601 -0.3215
 2348poe     o210889   7.061   3.232   4.564 -0.4722 -0.3946  0.2472
 2348poe    c2310890   7.146   3.228   4.451 -0.4419 -0.4170  0.2712
 2348poe    c2310891   7.134   3.360   4.374 -0.9927  0.0218  1.0849
 2348poe     o210892   7.015   3.376   4.301 -0.4014 -0.2977  0.0191
 2348poe    c2310893   7.001   3.499   4.234  0.3626 -0.1365  0.1502
 2348poe    c2310894   6.877   3.483   4.144  0.3425 -0.8985  0.3077
 2348poe     o210895   6.765   3.444   4.220 -0.4077 -0.1921 -0.4127
 2348poe    c3110896   6.644   3.501   4.176 -0.2294  0.2305 -0.3571
 2349poe    c3110897   2.218   6.701   1.467  0.2721  0.3707  0.2412
 2349poe     o210898   2.125   6.806   1.472 -0.2648 -0.1309  1.2050
 2349poe    c2310899   2.006   6.775   1.402  0.6934  0.2008 -0.6468
 2349poe    c2310900   1.899   6.884   1.427  0.0947 -0.4527 -0.3091
 2349poe     o210901   1.934   7.000   1.355 -0.3418 -0.2191 -0.1413
 2349poe    c2310902   1.852   7.106   1.399  0.2511  0.2009 -0.0456
 2349poe    c2310903   1.873   7.235   1.317 -0.0787  0.1924 -0.1434
 2349poe     o210904   2.009   7.266   1.296 -0.1927  0.6287 -0.2570
 2349poe    c2310905   2.044   7.391   1.242 -0.1717  0.8346  0.2301
 2349poe    c2310906   2.185   7.401   1.303 -0.0614 -0.3234  0.1781
 2349poe     o210907   2.253   7.280   1.279  0.2692 -0.0632 -0.2107
 2349poe    c3110908   2.389   7.318   1.269  0.1842  0.3419  0.1707
 2350poe    c3110909   6.285   0.297   3.531  0.1324  0.3557  0.0522
 2350poe     o210910   6.295   0.167   3.582  0.2550  0.0546 -0.7255
 2350poe    c2310911   6.185   0.085   3.549  0.0485  0.0309  0.0053
 2350poe    c2310912   6.196  -0.052   3.619 -0.6833 -0.2934 -0.5034
 2350poe     o210913   6.174  -0.023   3.755 -0.1348 -0.4171 -0.3858
 2350poe    c2310914   6.150  -0.140   3.831 -0.1734 -0.4896 -0.5102
 2350poe    c2310915   6.129  -0.132   3.983 -0.0130  0.5702 -0.5377
 2350poe     o210916   6.251  -0.078   4.030  0.1478 -0.0877 -0.1867
 2350poe    c2310917   6.261  -0.084   4.171 -0.5733  0.2977 -0.1112
 2350poe    c2310918   6.393  -0.005   4.184 -0.0771 -0.5302 -0.0076
 2350poe     o210919   6.406   0.103   4.094 -0.2200 -0.2205  0.3381
 2350poe    c3110920   6.533   0.158   4.123 -0.1893  0.0974 -0.4024
 2351poe    c3110921   3.971   4.767   2.331 -0.4602  0.0747 -0.1035
 2351poe     o210922   3.966   4.814   2.464  0.1860 -0.1192 -0.0068
 2351poe    c2310923   4.041   4.933   2.474  0.0523 -0.0506  0.1679
 2351poe    c2310924   4.073   4.973   2.620 -0.2346 -0.1712  0.2647
 2351poe     o210925   3.946   4.984   2.682 -0.3234 -0.5193  0.1483
 2351poe    c2310926   3.958   5.050   2.806  1.0167 -0.1579 -0.1548
 2351poe    c2310927   3.833   5.010   2.887  0.8421  0.1416 -0.2753
 2351poe     o210928   3.831   4.870   2.904 -0.1985  0.1880  0.0041
 2351poe    c2310929   3.739   4.833   3.005 -0.0073 -0.0230  0.1029
 2351poe    c2310930   3.789   4.693   3.045  0.0315  0.1215  0.5623
 2351poe     o210931   3.823   4.612   2.935  0.2322  0.3341  0.4655
 2351poe    c3110932   3.818   4.481   2.988 -0.0856  0.4940  0.8324
 2352poe    c3110933   5.177   6.383   3.417 -0.0867 -0.3019 -0.5541
 2352poe     o210934   5.240   6.390   3.291  0.2560 -0.4148 -0.3883
 2352poe    c2310935   5.336   6.286   3.290  0.5705 -0.1297 -0.0961
 2352poe    c2310936   5.423   6.289   3.164 -0.7917 -0.0082 -1.0540
 2352poe     o210937   5.512   6.398   3.153  0.1836 -0.7090 -0.2759
 2352poe    c2310938   5.624   6.375   3.072  0.2762  0.3279 -0.4514
 2352poe    c2310939   5.676   6.512   3.024  0.1986  0.5210  0.0188
 2352poe     o210940   5.574   6.593   2.971 -0.5485 -0.1515  0.4159
 2352poe    c2310941   5.620   6.725   2.955  0.2626 -0.5038 -0.1848
 2352poe    c2310942   5.513   6.831   2.923  0.1439 -0.5550  0.0398
 2352poe     o210943   5.401   6.812   3.007  0.2295  0.0145  0.2859
 2352poe    c3110944   5.344   6.936   3.042  0.0222 -0.0669  0.2353
 2353poe    c3110945   6.582   3.184   3.961  0.1725  0.4907  0.3326
 2353poe     o210946   6.487   3.149   4.060 -0.2178  0.1846 -0.1457
 2353poe    c2310947   6.472   3.012   4.089 -0.1881  0.0719 -0.6423
 2353poe    c2310948   6.384   2.975   4.210  0.2591  0.2665 -0.2515
 2353poe     o210949   6.455   3.012   4.326  0.9594 -0.3292 -0.4793
 2353poe    c2310950   6.422   2.940   4.442 -0.0244  0.5546 -0.1930
 2353poe    c2310951   6.491   2.990   4.571  0.0191  0.3421 -0.1343
 2353poe     o210952   6.443   3.120   4.592  0.6022  0.4464  0.5748
 2353poe    c2310953   6.426   3.139   4.731 -0.2494  0.0900  0.5238
 2353poe    c2310954   6.407   3.288   4.767  0.6708  0.4200 -0.3103
 2353poe     o210955   6.277   3.326   4.731  0.3220 -0.4723 -0.0104
 2353poe    c3110956   6.237   3.457   4.762 -0.1038 -0.6198  0.0800
 2354poe    c3110957   1.908   3.535   0.374 -0.4204 -0.1084  0.3506
 2354poe     o210958   1.797   3.594   0.310  0.1252  0.2702 -0.2514
 2354poe    c2310959   1.669   3.557   0.355  0.2807  0.5506  0.4431
 2354poe    c2310960   1.556   3.594   0.257  0.1423  0.0428  0.4082
 2354poe     o210961   1.550   3.731   0.227  0.5163  0.0365  0.2888
 2354poe    c2310962   1.446   3.758   0.136  0.3194  0.2066  0.5595
 2354poe    c2310963   1.471   3.884   0.050  0.0901 -0.1225  0.0020
 2354poe     o210964   1.597   3.862  -0.010 -0.0612  0.1031 -0.4036
 2354poe    c2310965   1.609   3.950  -0.119  0.0882  0.9190  0.2550
 2354poe    c2310966   1.755   3.938  -0.167 -0.1278 -0.4634 -0.1014
 2354poe     o210967   1.822   3.964  -0.046 -0.1695  0.3129 -0.2433
 2354poe    c3110968   1.959   3.992  -0.061 -0.0307  0.1076  0.6115
 2355poe    c3110969   3.326   3.581   0.445  0.0075 -0.0074  0.1796
 2355poe     o210970   3.282   3.624   0.318 -0.2259 -0.7080  0.0244
 2355poe    c2310971   3.375   3.720   0.274 -0.6187 -0.2135  0.2656
 2355poe    c2310972   3.348   3.738   0.124 -0.4620 -0.0882  0.2520
 2355poe     o210973   3.216   3.788   0.119 -0.3391  0.2573  0.4218
 2355poe    c2310974   3.182   3.775  -0.017 -0.0841 -0.6623  0.4373
 2355poe    c2310975   3.035   3.820  -0.024  0.2035  0.2312 -0.1238
 2355poe     o210976   2.970   3.755   0.083  0.2124 -0.0318 -0.2755
 2355poe    c2310977   2.839   3.798   0.054  0.0186 -0.4189  0.0119
 2355poe    c2310978   2.738   3.771   0.167  0.1754 -0.2322  0.1984
 2355poe     o210979   2.788   3.796   0.296 -0.0901 -0.0484  0.2662
 2355poe    c3110980   2.680   3.809   0.386 -0.0089 -0.3725  0.4096
 2356poe    c3110981   6.806   2.329   5.016  0.1053 -0.4253 -0.0306
 2356poe     o210982   6.885   2.421   5.087  0.1185 -0.1507 -0.3947
 2356poe    c2310983   6.991   2.472   5.010  0.2006  0.4509  0.1068
 2356poe    c2310984   7.112   2.525   5.090 -0.0645 -0.0492  0.8429
 2356poe     o210985   7.193   2.424   5.145  0.1399 -0.2787  0.1372
 2356poe    c2310986   7.286   2.461   5.244  0.3790 -0.4311 -0.0300
 2356poe    c2310987   7.366   2.342   5.302  0.6373 -0.1363  0.2187
 2356poe     o210988   7.267   2.247   5.334  0.0077  0.3563 -0.2558
 2356poe    c2310989   7.332   2.127   5.367 -0.1600  0.2031 -0.4756
 2356poe    c2310990   7.228   2.022   5.409  0.1503  0.2020  0.3091
 2356poe     o210991   7.139   2.027   5.299  0.7055 -0.7598 -0.1928
 2356poe    c3110992   7.052   1.918   5.284  0.1387 -0.3225 -0.1154
 2357poe    c3110993   5.584   2.960   2.903 -0.2718 -0.5382 -0.0457
 2357poe     o210994   5.600   3.051   3.010 -0.0954 -0.2875 -0.2827
 2357poe    c2310995   5.506   3.154   2.991  0.1825  0.1069  0.4674
 2357poe    c2310996   5.434   3.191   3.122  0.1017 -0.0864  0.4779
 2357poe     o210997   5.387   3.080   3.194 -0.2456 -0.4124 -0.2451
 2357poe    c2310998   5.344   3.131   3.318 -0.0543  0.5349 -0.5650
 2357poe    c2310999   5.260   3.021   3.385  0.9961 -0.1751 -0.3853
 2357poe     o211000   5.349   2.913   3.368  0.5133 -0.7439  0.6558
 2357poe    c2311001   5.303   2.800   3.439 -0.9065 -0.3901  0.3229
 2357poe    c2311002   5.421   2.702   3.451 -0.4496  0.1321  0.1052
 2357poe     o211003   5.470   2.673   3.323  0.0363  0.2903  0.2526
 2357poe    c3111004   5.516   2.541   3.301 -0.6140  0.1775 -0.4869
 2358poe    c3111005   1.904   6.366   0.318 -0.2646 -0.1777  0.0799
 2358poe     o211006   1.808   6.402   0.414 -0.5577 -0.0910 -0.2444
 2358poe    c2311007   1.842   6.375   0.548 -0.0909 -0.3754 -0.4180
 2358poe    c2311008   1.712   6.354   0.628  0.0146  0.2471 -0.0783
 2358poe     o211009   1.634   6.469   0.648 -0.1041  0.1566 -0.0183
 2358poe    c2311010   1.496   6.444   0.667 -0.1670  0.5824  0.1097
 2358poe    c2311011   1.435   6.577   0.714  0.5144  0.6271  0.8826
 2358poe     o211012   1.457   6.678   0.618 -0.1595  0.1563  0.2289
 2358poe    c2311013   1.392   6.796   0.658  0.3152  0.4865  0.0328
 2358poe    c2311014   1.433   6.898   0.550  0.0815 -0.4099 -0.9224
 2358poe     o211015   1.573   6.891   0.542  0.2098 -0.0694  0.6571
 2358poe    c3111016   1.636   7.002   0.480 -0.2420 -0.1648  0.0133
 2359poe    c3111017   6.651   4.480   4.894  0.3050 -0.0567  0.3108
 2359poe     o211018   6.713   4.372   4.828 -0.3397 -0.0586 -0.3040
 2359poe    c2311019   6.779   4.282   4.915 -0.2069 -0.5421 -0.8939
 2359poe    c2311020   6.813   4.157   4.833 -0.3861 -0.8847 -0.4485
 2359poe     o211021   6.948   4.161   4.791 -0.0543 -0.1453  0.6281
 2359poe    c2311022   7.000   4.032   4.766 -0.2775 -0.0104 -0.5972
 2359poe    c2311023   7.148   4.032   4.724 -0.1406  0.4475 -0.1208
 2359poe     o211024   7.245   4.084   4.812  0.2752 -0.1050 -0.2486
 2359poe    c2311025   7.370   4.059   4.752 -0.1282 -0.7831 -0.8166
 2359poe    c2311026   7.472   4.174   4.753 -0.1314 -0.7841  0.0525
 2359poe     o211027   7.501   4.213   4.886  0.6386 -0.5235 -0.1863
 2359poe    c3111028   7.573   4.334   4.894  0.5079 -0.4588  0.0023
 2360poe    c3111029   6.428   0.184   1.628 -0.0787 -0.2707  0.0833
 2360poe     o211030   6.371   0.302   1.577 -0.0133 -0.2384  0.0855
 2360poe    c2311031   6.253   0.280   1.503  0.2623 -0.3486 -0.3229
 2360poe    c2311032   6.131   0.348   1.568  0.2299 -0.3873 -0.3436
 2360poe     o211033   6.134   0.489   1.575  0.2078 -0.4278  0.5328
 2360poe    c2311034   6.008   0.538   1.612  0.0094 -0.2440 -0.3805
 2360poe    c2311035   6.022   0.675   1.681 -0.3953 -0.4105  0.0376
 2360poe     o211036   6.063   0.671   1.815  0.4795 -0.0411 -0.2128
 2360poe    c2311037   6.007   0.575   1.902  0.4310  0.4636  0.3252
 2360poe    c2311038   6.032   0.606   2.050  0.0328 -0.4474  0.5928
 2360poe     o211039   6.165   0.650   2.067  0.0479 -0.3589  0.2352
 2360poe    c3111040   6.192   0.669   2.204 -0.4798  1.2524  0.1396
 2361poe    c3111041   5.644   6.515   1.489  0.1728 -0.4522  0.5471
 2361poe     o211042   5.717   6.519   1.610  0.2311 -0.2586  0.5059
 2361poe    c2311043   5.855   6.498   1.588  0.2235  0.2569 -0.0619
 2361poe    c2311044   5.933   6.493   1.720  0.0107  0.2385  0.0637
 2361poe     o211045   5.927   6.612   1.796 -0.8781 -0.0879  0.5289
 2361poe    c2311046   6.008   6.588   1.909  0.1767  0.1799 -0.1497
 2361poe    c2311047   6.003   6.714   1.997 -0.0616 -0.1044  0.2468
 2361poe     o211048   5.867   6.749   2.012  0.0722  0.3987  0.3046
 2361poe    c2311049   5.857   6.874   2.074  0.1688  0.4928  0.1335
 2361poe    c2311050   5.713   6.925   2.049  0.0495 -0.0557 -0.3193
 2361poe     o211051   5.676   6.894   1.917 -0.1906  0.0153 -0.2693
 2361poe    c3111052   5.572   6.981   1.881  0.1743  0.6892  0.2682
 2362poe    c3111053   6.717   2.973   4.888  0.4408 -0.2495 -0.1730
 2362poe     o211054   6.662   2.865   4.959 -0.0891  0.1160 -0.0215
 2362poe    c2311055   6.631   2.754   4.877  0.3972 -0.1261  0.1148
 2362poe    c2311056   6.606   2.620   4.948 -0.1681 -0.1701 -0.1599
 2362poe     o211057   6.496   2.627   5.036 -0.1719 -0.2243 -0.1599
 2362poe    c2311058   6.472   2.499   5.090  0.4084 -0.1936  0.1819
 2362poe    c2311059   6.393   2.490   5.222  0.0364  0.4048  0.0017
 2362poe     o211060   6.444   2.579   5.319  0.3855  0.6115 -0.3672
 2362poe    c2311061   6.491   2.510   5.433  0.0771  0.3323 -0.4078
 2362poe    c2311062   6.493   2.603   5.556 -0.6719 -0.1036 -0.0607
 2362poe     o211063   6.540   2.729   5.515 -0.5558 -0.1851 -0.1781
 2362poe    c3111064   6.603   2.806   5.615  0.6243 -0.8044 -0.4247
 2363poe    c3111065   7.037   5.859   1.967  0.1589  0.2403 -0.1825
 2363poe     o211066   7.138   5.761   1.955  0.3008  0.3840 -0.1647
 2363poe    c2311067   7.107   5.650   1.874  0.3486  0.1977  0.0723
 2363poe    c2311068   7.235   5.575   1.833  0.2105  0.1522 -0.2826
 2363poe     o211069   7.327   5.651   1.759  0.3673  0.4630  0.2225
 2363poe    c2311070   7.452   5.589   1.735 -0.0195 -0.1983 -0.1057
 2363poe    c2311071   7.558   5.693   1.693 -0.2311  0.1731  0.2788
 2363poe     o211072   7.562   5.786   1.799  0.5127  0.0474  0.3676
 2363poe    c2311073   7.660   5.887   1.788  0.3541  0.2031  0.3598
 2363poe    c2311074   7.643   5.972   1.915 -0.1011  0.9352 -0.1884
 2363poe     o211075   7.530   6.056   1.906 -0.5705  0.4181  0.7528
 2363poe    c3111076   7.567   6.186   1.867  0.1085  0.1992  0.6544
 2364poe    c3111077   0.135   7.028   1.474  0.3601 -0.3743  0.0316
 2364poe     o211078   0.063   7.094   1.576  0.2592  0.4189 -0.5400
 2364poe    c2311079   0.136   7.116   1.695 -0.2557  0.1491 -0.1671
 2364poe    c2311080   0.047   7.083   1.815  0.0193 -0.0855 -0.0267
 2364poe     o211081  -0.034   6.968   1.811 -0.0666  0.0023 -0.8603
 2364poe    c2311082   0.035   6.844   1.819 -0.0912  0.0823  0.8878
 2364poe    c2311083  -0.076   6.738   1.832  0.1313 -0.1903  0.5745
 2364poe     o211084  -0.164   6.758   1.724  0.3841 -0.1980  0.3682
 2364poe    c2311085  -0.256   6.651   1.726 -0.1597  0.2555 -0.1446
 2364poe    c2311086  -0.378   6.688   1.640 -0.1507  0.0023 -0.2675
 2364poe     o211087  -0.429   6.812   1.683  0.7393  0.4218 -0.3922
 2364poe    c3111088  -0.549   6.828   1.610  0.3524 -0.4319  0.0387
 2365poe    c3111089   3.802   4.287   6.798 -0.3480 -0.0741  0.0013
 2365poe     o211090   3.779   4.225   6.674  0.2687  0.2208 -0.2629
 2365poe    c2311091   3.885   4.137   6.642  0.0416 -0.3287  0.4733
 2365poe    c2311092   3.896   4.093   6.495 -0.0904  0.2649  0.2811
 2365poe     o211093   3.929   4.197   6.406 -0.1719  0.0714  0.0246
 2365poe    c2311094   3.891   4.165   6.273  0.2267  0.5751 -0.2114
 2365poe    c2311095   3.949   4.270   6.176  0.0889  0.2507 -0.6445
 2365poe     o211096   3.918   4.405   6.201  0.1633  0.0823  0.3852
 2365poe    c2311097   3.998   4.466   6.300  0.3409  0.4587  0.0113
 2365poe    c2311098   3.957   4.612   6.328 -0.7252  0.0722  0.5014
 2365poe     o211099   3.994   4.706   6.230 -0.7007 -0.3709  0.0791
 2365poe    c3111100   3.946   4.832   6.272 -0.3711  0.0304 -0.7421
 2366poe    c3111101   0.623   0.895   0.628 -0.5093 -0.3706 -0.0256
 2366poe     o211102   0.635   0.882   0.768  0.4535  0.1085 -0.0551
 2366poe    c2311103   0.614   0.994   0.850  0.6938  0.4327 -0.4318
 2366poe    c2311104   0.673   0.971   0.991  0.3508  0.0014 -0.3584
 2366poe     o211105   0.808   0.933   0.979  0.3781 -0.1170  0.3022
 2366poe    c2311106   0.862   0.870   1.093  0.4374 -0.3209  0.1614
 2366poe    c2311107   1.006   0.820   1.074  0.5494 -0.0167  0.2076
 2366poe     o211108   1.034   0.712   0.987  0.2054 -0.1193  0.2246
 2366poe    c2311109   1.169   0.695   0.953  0.2760 -0.4398  0.6674
 2366poe    c2311110   1.202   0.735   0.808 -0.2184 -0.1822  0.6263
 2366poe     o211111   1.161   0.645   0.707  0.6653  0.2727 -0.1501
 2366poe    c3111112   1.253   0.647   0.600  0.5344 -0.9019 -0.3021
 2367poe    c3111113   1.618   2.823   3.962  0.9469 -0.2736  0.7398
 2367poe     o211114   1.545   2.703   3.948 -0.3830  0.6080 -0.0977
 2367poe    c2311115   1.458   2.678   4.056 -0.2427 -1.0198 -0.3347
 2367poe    c2311116   1.369   2.557   4.020 -0.4470 -1.0758  0.3288
 2367poe     o211117   1.447   2.468   3.943  0.2567 -0.0805 -0.1414
 2367poe    c2311118   1.380   2.345   3.962 -0.1322  0.2185  0.4329
 2367poe    c2311119   1.414   2.248   3.848  0.0917  0.4936  0.2625
 2367poe     o211120   1.395   2.331   3.736 -0.3795 -0.2590 -0.2266
 2367poe    c2311121   1.446   2.265   3.622  0.3798 -0.1304  0.0325
 2367poe    c2311122   1.440   2.336   3.485  0.2674 -0.0893  0.0585
 2367poe     o211123   1.514   2.453   3.461 -0.3330  0.2215 -0.2864
 2367poe    c3111124   1.533   2.478   3.324 -0.4449  0.5795 -0.2383
 2368poe    c3111125   2.841   0.478   1.113  0.1745  0.0859  0.6640
 2368poe     o211126   2.917   0.555   1.022 -0.1335 -0.4373 -0.0433
 2368poe    c2311127   2.876   0.507   0.896  0.1794 -0.6193 -0.0766
 2368poe    c2311128   2.920   0.616   0.796  0.1683  0.0579  0.6527
 2368poe     o211129   3.057   0.611   0.765  0.0965  0.1994  0.3069
 2368poe    c2311130   3.051   0.551   0.637  0.3179  1.2393 -0.1989
 2368poe    c2311131   3.179   0.557   0.552  0.0848  0.0410 -0.6559
 2368poe     o211132   3.200   0.680   0.487 -0.0029  0.4395  0.0553
 2368poe    c2311133   3.331   0.677   0.433  0.1759  0.1821  0.4925
 2368poe    c2311134   3.358   0.785   0.326 -0.8090 -0.1587 -0.1181
 2368poe     o211135   3.360   0.916   0.377 -0.2208 -0.3629  0.3914
 2368poe    c3111136   3.399   1.009   0.278  0.5154 -0.7439  0.3153
 2369poe    c3111137   2.633   2.293   1.024  0.3410  0.3345 -0.2669
 2369poe     o211138   2.640   2.398   1.117 -0.7413  0.0735  0.1215
 2369poe    c2311139   2.664   2.358   1.250 -0.6093 -0.1627  0.0268
 2369poe    c2311140   2.668   2.476   1.348 -0.2197  0.1558 -0.3744
 2369poe     o211141   2.771   2.566   1.311 -0.3763  0.5066  0.0215
 2369poe    c2311142   2.818   2.647   1.416 -0.5135 -0.0939  0.5488
 2369poe    c2311143   2.726   2.765   1.452 -0.4825  0.0479  0.1668
 2369poe     o211144   2.738   2.866   1.354 -0.1918 -0.1642 -0.0162
 2369poe    c2311145   2.670   2.980   1.402  0.2606 -0.1754  0.6647
 2369poe    c2311146   2.757   3.079   1.482  0.5753  0.0063  0.0997
 2369poe     o211147   2.867   3.134   1.413  0.8080 -0.7412 -0.1324
 2369poe    c3111148   2.906   3.255   1.473  0.4336 -0.5603 -0.2547
 2370poe    c3111149   3.809   4.822   4.636 -0.4496  0.3483 -0.6745
 2370poe     o211150   3.794   4.821   4.495  0.2103 -0.1228 -0.7428
 2370poe    c2311151   3.737   4.936   4.437  0.5604  0.3612 -0.1439
 2370poe    c2311152   3.750   4.923   4.284  0.6456 -0.6068 -0.0653
 2370poe     o211153   3.714   4.802   4.222 -0.4310 -0.3009 -0.0663
 2370poe    c2311154   3.733   4.821   4.084  0.2837  0.6321  0.1496
 2370poe    c2311155   3.758   4.681   4.024 -0.3968  0.3541  0.5040
 2370poe     o211156   3.879   4.624   4.068 -0.1902  0.2860 -0.1493
 2370poe    c2311157   3.890   4.498   4.005  0.7235  0.4255 -0.2925
 2370poe    c2311158   3.993   4.402   4.067  0.1755  0.2787  0.4148
 2370poe     o211159   4.127   4.440   4.044  0.1838 -0.0817 -0.1676
 2370poe    c3111160   4.211   4.389   4.145 -0.0117  0.1434  0.1102
 2371poe    c3111161   4.405   2.946   0.981 -0.8156 -0.2145 -0.0367
 2371poe     o211162   4.427   3.004   1.107 -0.6217  0.5748 -0.4238
 2371poe    c2311163   4.532   3.095   1.089  0.4211 -0.5617 -0.2337
 2371poe    c2311164   4.616   3.122   1.216  0.6613  0.2023 -0.5460
 2371poe     o211165   4.682   3.005   1.260  0.4028  0.0968 -0.4358
 2371poe    c2311166   4.784   3.028   1.355 -0.3303 -0.3471  0.4718
 2371poe    c2311167   4.750   3.043   1.505 -0.0164 -0.2100  0.5310
 2371poe     o211168   4.693   2.940   1.582 -1.0047 -0.0905 -0.0233
 2371poe    c2311169   4.656   2.996   1.706  0.3301  0.4928  0.1212
 2371poe    c2311170   4.555   2.912   1.786  0.1625  0.6709  0.0998
 2371poe     o211171   4.429   2.904   1.723  0.3644 -0.7845 -0.1752
 2371poe    c3111172   4.338   2.856   1.819  0.3333 -0.6814 -0.1527
 2372poe    c3111173   7.127   5.694   2.367 -0.5425 -0.6772  0.1929
 2372poe     o211174   7.146   5.822   2.423 -0.0292 -0.6464 -0.0382
 2372poe    c2311175   7.116   5.835   2.560  0.2872  1.0063 -0.1047
 2372poe    c2311176   7.136   5.982   2.601 -0.4188  0.9001  0.6663
 2372poe     o211177   7.270   6.024   2.584 -0.2775  0.1785 -0.0517
 2372poe    c2311178   7.284   6.161   2.613  0.7534  0.0767 -0.0510
 2372poe    c2311179   7.432   6.201   2.628  0.7196  0.0227  0.4577
 2372poe     o211180   7.490   6.137   2.516 -0.0302  0.2645 -0.0760
 2372poe    c2311181   7.628   6.164   2.503  0.0731 -0.1701  0.1185
 2372poe    c2311182   7.671   6.110   2.365 -0.3167 -0.1135 -0.0260
 2372poe     o211183   7.618   5.980   2.369 -0.6701  0.0191 -0.3215
 2372poe    c3111184   7.675   5.893   2.273  0.3901  0.0719  0.2462
 2373poe    c3111185   3.452   3.875   4.479 -0.3533  0.0221  0.7456
 2373poe     o211186   3.494   3.994   4.543 -0.0185  0.5624 -0.4416
 2373poe    c2311187   3.393   4.042   4.629  0.3242  0.2032  0.1722
 2373poe    c2311188   3.421   4.173   4.706 -0.4028  0.6638 -0.3315
 2373poe     o211189   3.546   4.162   4.770 -0.5143  0.0678 -0.2068
 2373poe    c2311190   3.563   4.256   4.874  0.1206 -0.5317  0.2386
 2373poe    c2311191   3.714   4.248   4.903  0.1880  0.1368  0.0895
 2373poe     o211192   3.793   4.285   4.792  0.1655 -0.2787 -0.0676
 2373poe    c2311193   3.930   4.268   4.820  0.1786 -0.6995 -0.3730
 2373poe    c2311194   4.012   4.359   4.727 -0.1003  0.1765  0.2269
 2373poe     o211195   3.971   4.339   4.594  0.6134 -0.1261  0.0504
 2373poe    c3111196   4.041   4.422   4.504  0.6240 -0.1046  0.0784
 2374poe    c3111197   3.089   3.148   0.041 -0.2905  0.8221 -0.1681
 2374poe     o211198   3.026   3.034  -0.012 -0.3296  0.6128  0.3285
 2374poe    c2311199   2.885   3.034   0.002 -0.3413  0.0995  0.2390
 2374poe    c2311200   2.837   2.888   0.005 -0.5569  0.1606 -0.1345
 2374poe     o211201   2.915   2.816  -0.088  0.5179  0.2047  0.7129
 2374poe    c2311202   2.866   2.688  -0.121  0.7942  0.1909  0.3480
 2374poe    c2311203   2.943   2.643  -0.247 -0.1968 -0.0715 -0.1748
 2374poe     o211204   2.934   2.726  -0.360 -0.0940 -0.0843 -0.1925
 2374poe    c2311205   2.816   2.739  -0.437 -0.4301  0.6066  0.4280
 2374poe    c2311206   2.857   2.829  -0.555  0.4243 -0.0415  0.2149
 2374poe     o211207   2.921   2.952  -0.528  0.1570  0.1655 -0.0844
 2374poe    c3111208   2.960   3.024  -0.643 -0.1096  0.6314  0.1155
 2375poe    c3111209   2.870   1.757   5.196  0.2673  0.4945  0.7474
 2375poe     o211210   2.959   1.690   5.282  0.0899  0.2345  0.7301
 2375poe    c2311211   2.944   1.748   5.410  0.2993  1.0614  0.3862
 2375poe    c2311212   3.079   1.719   5.478  0.0353  0.3065  0.5894
 2375poe     o211213   3.120   1.585   5.498 -0.8301 -0.1274 -0.4253
 2375poe    c2311214   3.035   1.517   5.587  0.1967 -0.0457  0.6534
 2375poe    c2311215   3.112   1.393   5.637  0.3712 -0.2131 -0.0208
 2375poe     o211216   3.149   1.313   5.527 -0.4139 -0.6110 -0.0073
 2375poe    c2311217   3.210   1.193   5.569  0.1218 -0.1961  0.4265
 2375poe    c2311218   3.209   1.109   5.440  0.6709 -0.1876  0.4175
 2375poe     o211219   3.248   1.184   5.327  0.7454 -0.4338  0.2787
 2375poe    c3111220   3.251   1.106   5.210  0.0679  0.0531 -0.0718
 2376poe    c3111221   1.962   2.280   4.954 -0.1021 -0.0360 -0.6071
 2376poe     o211222   1.966   2.355   4.835 -0.3732  0.6576 -0.1868
 2376poe    c2311223   1.874   2.301   4.743  0.1324  0.6682 -0.7068
 2376poe    c2311224   1.720   2.297   4.750  0.1748  0.1775  0.1628
 2376poe     o211225   1.660   2.421   4.720 -0.1592 -0.1209 -0.4195
 2376poe    c2311226   1.520   2.414   4.738 -0.1685 -0.1863 -0.5141
 2376poe    c2311227   1.465   2.557   4.725 -0.3964 -0.1647  0.5489
 2376poe     o211228   1.511   2.643   4.827 -0.2591  0.1635  0.2129
 2376poe    c2311229   1.421   2.752   4.821  0.0992  0.4292 -0.4868
 2376poe    c2311230   1.458   2.873   4.909 -0.8588  0.0614  0.4372
 2376poe     o211231   1.566   2.953   4.867 -0.4130 -0.6029  0.2943
 2376poe    c3111232   1.550   3.070   4.943 -0.0084 -0.2542 -0.1519
 2377poe    c3111233   5.454   3.910   6.204  0.0080 -0.2913 -0.8082
 2377poe     o211234   5.333   3.844   6.236  0.2212 -0.2806  0.0387
 2377poe    c2311235   5.255   3.905   6.336 -0.0841  0.1839 -0.4845
 2377poe    c2311236   5.104   3.872   6.327  0.0305 -0.3654 -0.4124
 2377poe     o211237   5.042   3.914   6.208 -0.4116  0.3809  0.0737
 2377poe    c2311238   4.904   3.884   6.211 -0.3531  0.1446  0.4780
 2377poe    c2311239   4.828   3.968   6.106 -0.4522 -0.1455  0.3132
 2377poe     o211240   4.897   3.944   5.986 -0.8217 -0.6410  0.1991
 2377poe    c2311241   4.825   4.018   5.891 -0.1642  0.0449  0.2276
 2377poe    c2311242   4.853   3.991   5.742 -0.3579 -0.6096  0.3095
 2377poe     o211243   4.807   3.871   5.683  0.7097 -0.7775 -0.2173
 2377poe    c3111244   4.839   3.873   5.546  0.0274 -0.3066 -0.3791
 2378poe    c3111245   0.148   1.544   1.844  0.2081  0.3402  1.2090
 2378poe     o211246   0.175   1.670   1.788  0.1820  0.0062  0.4406
 2378poe    c2311247   0.308   1.689   1.743  0.0140 -0.1091 -0.1117
 2378poe    c2311248   0.336   1.827   1.681 -0.1446 -0.2581 -0.5194
 2378poe     o211249   0.227   1.857   1.597 -0.3325 -0.0289 -0.1931
 2378poe    c2311250   0.258   1.980   1.537 -0.4017 -0.3317 -0.8515
 2378poe    c2311251   0.144   2.022   1.442 -0.8216 -0.1226 -0.2605
 2378poe     o211252   0.093   1.905   1.382 -0.2704 -0.2201 -0.5390
 2378poe    c2311253  -0.020   1.943   1.308 -0.5317  0.4042  0.1721
 2378poe    c2311254  -0.073   1.821   1.231  0.3944 -0.1194  0.3528
 2378poe     o211255  -0.105   1.722   1.327  0.4252 -0.2897  0.1887
 2378poe    c3111256  -0.149   1.606   1.261  0.3110  0.0475 -0.3360
 2379poe    c3111257   5.504   3.462   4.019  0.7931  0.3657  0.1057
 2379poe     o211258   5.467   3.598   4.019  0.2406  0.2182  0.1904
 2379poe    c2311259   5.563   3.666   3.941  0.4476  0.6841  0.8392
 2379poe    c2311260   5.526   3.808   3.892 -0.4555  0.2382  0.1861
 2379poe     o211261   5.518   3.890   4.007 -0.1433  0.4627  0.0500
 2379poe    c2311262   5.546   4.023   3.972 -0.6499  0.5131 -0.1748
 2379poe    c2311263   5.584   4.104   4.097  0.1038  0.4302 -0.3474
 2379poe     o211264   5.480   4.125   4.190  0.0235 -0.4827 -0.2292
 2379poe    c2311265   5.528   4.160   4.318 -0.4079  0.3496 -0.2929
 2379poe    c2311266   5.437   4.118   4.435 -0.1299 -0.1572 -0.2565
 2379poe     o211267   5.407   3.981   4.425 -0.0469 -0.1858 -0.1176
 2379poe    c3111268   5.324   3.940   4.532  0.3954 -0.8639 -0.0267
 2380poe    c3111269   0.806   1.969   0.715  0.1083  0.1030 -0.6423
 2380poe     o211270   0.687   1.976   0.640 -0.0151  0.0327 -0.4530
 2380poe    c2311271   0.587   2.037   0.718  0.1836  0.1959 -0.3269
 2380poe    c2311272   0.460   2.068   0.637 -0.4129 -0.2033  0.4332
 2380poe     o211273   0.394   1.952   0.592 -0.0997  0.1559 -1.0398
 2380poe    c2311274   0.276   1.977   0.519 -0.3975  0.2287 -0.5401
 2380poe    c2311275   0.212   1.845   0.474  0.1838 -0.1423 -0.2864
 2380poe     o211276   0.185   1.759   0.582 -0.2339  0.6598  0.2600
 2380poe    c2311277   0.075   1.677   0.547  0.0988  0.3049  0.0319
 2380poe    c2311278  -0.014   1.625   0.661 -0.1961 -0.3057 -0.4688
 2380poe     o211279  -0.102   1.725   0.710  0.4035 -0.0391  0.0877
 2380poe    c3111280  -0.055   1.786   0.828  0.1901  0.4413 -0.0749
 2381poe    c3111281   2.171   3.212   6.069  0.1672 -0.6183  0.3567
 2381poe     o211282   2.095   3.098   6.103 -0.0219 -0.3113  0.9833
 2381poe    c2311283   2.137   2.991   6.021 -0.1149  0.2151  0.2474
 2381poe    c2311284   2.035   2.878   6.042  0.1164 -0.0488 -0.0342
 2381poe     o211285   2.031   2.849   6.180  0.1681 -0.2630 -0.0780
 2381poe    c2311286   1.929   2.754   6.201  0.0812 -0.2003 -0.2141
 2381poe    c2311287   1.911   2.741   6.354  0.1554 -0.3330 -0.2165
 2381poe     o211288   1.867   2.860   6.414 -0.1807 -0.2075 -0.7032
 2381poe    c2311289   1.850   2.849   6.554 -0.4457  0.1534 -0.7061
 2381poe    c2311290   1.799   2.991   6.586 -0.2031  0.1410 -0.2589
 2381poe     o211291   1.890   3.083   6.530  1.0277 -0.2891  0.9761
 2381poe    c3111292   1.862   3.213   6.577  0.3485 -0.0768  0.0191
 2382poe    c3111293   6.721   0.705   3.846  0.0781 -0.1937 -0.4859
 2382poe     o211294   6.787   0.807   3.917 -0.2384 -0.0624 -0.3799
 2382poe    c2311295   6.872   0.874   3.828 -0.2839  0.2719 -0.1737
 2382poe    c2311296   6.950   0.956   3.933  0.1130 -0.0392 -0.2205
 2382poe     o211297   6.855   1.024   4.012  0.2379  0.5545 -0.5771
 2382poe    c2311298   6.917   1.121   4.094 -0.0478 -0.1043  0.4268
 2382poe    c2311299   6.803   1.215   4.138 -0.2210 -0.4035  0.6257
 2382poe     o211300   6.690   1.143   4.181 -0.4332 -0.3066  0.2300
 2382poe    c2311301   6.627   1.192   4.297  0.0158  0.3060  0.2186
 2382poe    c2311302   6.528   1.093   4.361  0.1997 -0.3084 -0.4397
 2382poe     o211303   6.565   0.990   4.450 -0.4018  0.4454  0.7072
 2382poe    c3111304   6.458   0.943   4.528 -0.7487 -0.1917 -0.1382
 2383poe    c3111305   6.700   1.390   5.966  0.7675 -0.1903  0.1983
 2383poe     o211306   6.738   1.461   6.082  0.0311  0.6452 -0.0646
 2383poe    c2311307   6.623   1.486   6.160  0.0737  0.3544  0.0956
 2383poe    c2311308   6.626   1.622   6.233 -0.5690  0.0669  0.6683
 2383poe     o211309   6.630   1.739   6.154  0.3983 -0.6558 -0.3941
 2383poe    c2311310   6.619   1.848   6.242 -0.5778 -0.4402 -0.7703
 2383poe    c2311311   6.611   1.988   6.178  0.0593  0.3053  0.7309
 2383poe     o211312   6.490   2.014   6.110  0.3776  0.0506  0.0581
 2383poe    c2311313   6.481   2.146   6.062 -0.2717  0.0080  0.0546
 2383poe    c2311314   6.342   2.166   5.999 -0.1760  0.3396 -0.0561
 2383poe     o211315   6.320   2.098   5.877 -0.1978 -0.5177  0.4168
 2383poe    c3111316   6.187   2.124   5.839 -0.0545 -0.2367  0.1004
 2384poe    c3111317   2.592   5.335   2.837 -0.1401 -0.2587 -0.0519
 2384poe     o211318   2.467   5.271   2.852 -0.1740 -0.2192 -0.1642
 2384poe    c2311319   2.443   5.183   2.744  0.2685 -0.9639  0.3379
 2384poe    c2311320   2.319   5.099   2.782 -0.1888 -0.1609  0.6592
 2384poe     o211321   2.236   5.196   2.843 -0.0311  0.5945 -0.3079
 2384poe    c2311322   2.126   5.128   2.898  0.2610 -0.1570 -0.6241
 2384poe    c2311323   2.042   5.250   2.941  0.1902 -0.3584 -0.1845
 2384poe     o211324   2.116   5.329   3.031 -0.5647 -0.0475  0.1786
 2384poe    c2311325   2.042   5.427   3.099 -0.4940  0.0331  0.1403
 2384poe    c2311326   1.981   5.384   3.234 -0.0564 -0.8948  0.0453
 2384poe     o211327   1.851   5.330   3.222 -0.6864  0.5667  0.0640
 2384poe    c3111328   1.789   5.278   3.338 -0.3113  0.0573  0.0412
 2385poe    c3111329   4.753   5.462   4.572  0.2046  0.0090  1.2322
 2385poe     o211330   4.691   5.352   4.635 -0.4450 -0.3203  0.0409
 2385poe    c2311331   4.770   5.237   4.613 -0.0143 -0.0408  0.1311
 2385poe    c2311332   4.702   5.134   4.705 -0.2332 -0.2579 -0.2762
 2385poe     o211333   4.564   5.154   4.683 -0.1667  0.1694 -0.3111
 2385poe    c2311334   4.493   5.087   4.785  0.3692  0.2293  0.1087
 2385poe    c2311335   4.346   5.106   4.741  0.2566 -0.3271  0.2352
 2385poe     o211336   4.317   5.234   4.690  0.5266 -0.3555  0.0031
 2385poe    c2311337   4.177   5.247   4.672  0.4713 -0.5212  0.3104
 2385poe    c2311338   4.142   5.373   4.590 -0.2413 -0.3135  0.9239
 2385poe     o211339   4.186   5.358   4.457 -0.2750  0.0273  0.8733
 2385poe    c3111340   4.123   5.445   4.366  0.2030  0.0043  0.5179
 2386poe    c3111341   5.053   2.152   1.021  0.0645  0.0621  0.6323
 2386poe     o211342   5.069   2.030   0.953 -0.8663  0.4671 -0.3420
 2386poe    c2311343   4.945   1.984   0.904 -0.5254 -0.5707 -0.2722
 2386poe    c2311344   4.940   1.830   0.903 -0.5451 -0.5703 -0.1773
 2386poe     o211345   5.067   1.775   0.876 -0.2624 -0.0555  0.0854
 2386poe    c2311346   5.074   1.634   0.872  0.0676 -0.0331 -0.1646
 2386poe    c2311347   5.223   1.600   0.858  0.2348  0.5889  0.0333
 2386poe     o211348   5.272   1.665   0.973  0.4657  0.7318 -0.1454
 2386poe    c2311349   5.361   1.575   1.036 -0.9951 -0.1563  0.7082
 2386poe    c2311350   5.409   1.620   1.175  0.1418 -0.2559  0.3610
 2386poe     o211351   5.491   1.734   1.182 -0.1510 -0.0082 -0.2256
 2386poe    c3111352   5.534   1.746   1.315 -0.2965  0.1496 -0.1928
 2387poe    c3111353   2.112   1.376   0.672  0.1989  0.4130 -0.0523
 2387poe     o211354   2.177   1.398   0.549  0.1838 -0.1708 -0.1668
 2387poe    c2311355   2.303   1.335   0.565  0.2165 -0.1699 -0.4254
 2387poe    c2311356   2.368   1.349   0.426 -0.3691  0.2662 -0.6608
 2387poe     o211357   2.347   1.229   0.354 -0.3091 -0.0867 -0.0972
 2387poe    c2311358   2.369   1.258   0.218  0.0123  0.2492  0.0214
 2387poe    c2311359   2.298   1.147   0.137 -0.0637  0.3410 -0.0386
 2387poe     o211360   2.157   1.150   0.128 -0.0701 -0.0060 -0.0876
 2387poe    c2311361   2.089   1.122   0.248 -0.2341  0.1168 -0.1512
 2387poe    c2311362   1.946   1.178   0.266 -0.3828 -0.3279  0.0602
 2387poe     o211363   1.927   1.307   0.319 -0.3402 -0.5596  0.6424
 2387poe    c3111364   1.797   1.308   0.374 -0.4231 -0.2872  0.4429
 2388poe    c3111365   1.526   6.480   2.271  0.1019  0.0986 -0.0420
 2388poe     o211366   1.586   6.434   2.153 -0.0881 -0.0516 -0.0801
 2388poe    c2311367   1.727   6.446   2.150 -0.0678 -0.2806 -0.1045
 2388poe    c2311368   1.782   6.424   2.008 -0.0992  0.1729 -0.1909
 2388poe     o211369   1.755   6.527   1.915 -0.6440  0.2251  0.0203
 2388poe    c2311370   1.829   6.515   1.796  0.3712  0.1604  0.6445
 2388poe    c2311371   1.773   6.614   1.692  0.0497 -0.1697  0.5039
 2388poe     o211372   1.642   6.572   1.659 -0.1149  0.3266  0.5220
 2388poe    c2311373   1.582   6.619   1.540 -0.2652 -0.2897  0.3527
 2388poe    c2311374   1.514   6.757   1.545  0.1160 -0.0913  0.0576
 2388poe     o211375   1.587   6.877   1.550 -0.3944  0.2054  0.4281
 2388poe    c3111376   1.514   6.995   1.575 -0.9888 -0.1364  0.3023
 2389poe    c3111377   1.765   4.989   1.123  0.6708 -0.6898 -0.6721
 2389poe     o211378   1.676   5.047   1.030  0.4651 -0.1995 -0.1735
 2389poe    c2311379   1.587   5.138   1.091  0.5689 -0.5852  0.5622
 2389poe    c2311380   1.485   5.169   0.980  0.5856 -0.1410  0.6717
 2389poe     o211381   1.564   5.207   0.869 -0.3413  0.7698  0.3116
 2389poe    c2311382   1.485   5.264   0.767 -0.4824  0.7448  0.4060
 2389poe    c2311383   1.549   5.282   0.628 -0.1563 -0.1550  0.4318
 2389poe     o211384   1.664   5.362   0.645  0.2183 -0.6125  0.0679
 2389poe    c2311385   1.711   5.400   0.518  0.3526 -0.0553  0.2809
 2389poe    c2311386   1.839   5.486   0.518  0.5673 -0.3573 -0.5215
 2389poe     o211387   1.954   5.428   0.575  0.3285 -0.0052  0.3505
 2389poe    c3111388   2.015   5.328   0.495  0.2293  0.0532  0.2011
 2390poe    c3111389   6.587   3.922   6.158 -0.6269 -0.1156  0.2745
 2390poe     o211390   6.519   4.037   6.202  0.1951  0.4764  0.0192
 2390poe    c2311391   6.391   4.037   6.142  0.2904  0.7649 -0.1848
 2390poe    c2311392   6.304   4.159   6.177 -0.4398  0.2989 -0.3536
 2390poe     o211393   6.275   4.167   6.315 -0.0046 -0.3099 -0.2224
 2390poe    c2311394   6.199   4.279   6.352  0.3869 -0.1630  0.1384
 2390poe    c2311395   6.193   4.313   6.503  0.5949  0.0496  0.0985
 2390poe     o211396   6.316   4.352   6.561  0.5415  0.3164  0.0347
 2390poe    c2311397   6.293   4.420   6.683 -0.1457  0.1518  0.0049
 2390poe    c2311398   6.427   4.452   6.754 -0.0254 -0.7679  0.2091
 2390poe     o211399   6.508   4.534   6.674  0.3880 -0.6214  0.7778
 2390poe    c3111400   6.547   4.650   6.745 -0.0180  0.3116 -0.4850
 2391poe    c3111401   2.415   3.905   1.954  0.6730  0.3300  0.0928
 2391poe     o211402   2.307   3.990   1.984  0.2716 -0.0643 -0.2248
 2391poe    c2311403   2.279   4.081   1.880  0.3500 -0.1403 -0.3126
 2391poe    c2311404   2.147   4.153   1.914  0.2316 -0.3720 -0.2808
 2391poe     o211405   2.036   4.069   1.936  0.2470 -0.2113  0.4351
 2391poe    c2311406   1.959   4.090   2.052 -0.2609  0.2071  0.0252
 2391poe    c2311407   1.816   4.041   2.024 -0.0442 -0.4838  0.1157
 2391poe     o211408   1.763   4.106   1.911 -0.2643 -0.6035  0.1479
 2391poe    c2311409   1.664   4.037   1.838 -0.0344 -0.3936 -0.3717
 2391poe    c2311410   1.553   4.136   1.800  0.3274  0.3409  0.4425
 2391poe     o211411   1.595   4.245   1.721  0.3217 -0.0049 -0.0464
 2391poe    c3111412   1.642   4.219   1.591 -0.0379 -0.0915 -0.1607
 2392poe    c3111413   0.446   4.426   6.711 -0.4308 -0.3201 -0.5438
 2392poe     o211414   0.333   4.490   6.765  0.1831 -0.0116  0.4020
 2392poe    c2311415   0.298   4.611   6.701  0.1237  0.0249  0.5038
 2392poe    c2311416   0.166   4.654   6.768  0.0283 -0.0092  0.3362
 2392poe     o211417   0.053   4.578   6.730  0.0137  0.0135  0.3344
 2392poe    c2311418  -0.063   4.625   6.794 -0.4143  0.3748 -0.6879
 2392poe    c2311419  -0.191   4.562   6.736 -0.1837 -0.2108 -0.5672
 2392poe     o211420  -0.169   4.424   6.716 -0.1312 -0.3542  0.4367
 2392poe    c2311421  -0.274   4.339   6.757 -0.1892 -0.3026  0.3953
 2392poe    c2311422  -0.217   4.200   6.725  0.0762 -0.0946 -0.0383
 2392poe     o211423  -0.135   4.215   6.611  0.3859  0.4203  0.2518
 2392poe    c3111424  -0.139   4.095   6.538  0.2202  0.6745 -0.1613
 2393poe    c3111425   5.589   6.087   1.900  0.0573 -0.7666  0.0314
 2393poe     o211426   5.613   6.037   1.770 -0.2362  0.0859 -0.3570
 2393poe    c2311427   5.699   6.124   1.700 -0.1075  0.3271  0.0950
 2393poe    c2311428   5.705   6.088   1.550 -0.0432  0.0399  0.1664
 2393poe     o211429   5.589   6.128   1.480  0.2203  0.2559 -0.1491
 2393poe    c2311430   5.566   6.068   1.355 -0.1618 -0.3283  0.1965
 2393poe    c2311431   5.540   5.916   1.368  0.0635 -0.4173 -0.3556
 2393poe     o211432   5.416   5.868   1.414 -0.0367 -0.1991 -0.3954
 2393poe    c2311433   5.287   5.891   1.364 -0.0784 -0.0125 -0.2076
 2393poe    c2311434   5.218   5.759   1.324  0.2398 -0.3486  0.3368
 2393poe     o211435   5.187   5.681   1.437 -0.4060 -0.1803  0.2824
 2393poe    c3111436   5.122   5.563   1.395 -0.0816 -0.7128  1.2314
 2394poe    c3111437   4.917   3.319   5.261 -0.2675 -0.1229 -0.2219
 2394poe     o211438   4.873   3.185   5.249  0.0434 -0.2154 -0.3541
 2394poe    c2311439   4.746   3.182   5.187  0.0558 -0.3348 -0.3728
 2394poe    c2311440   4.712   3.041   5.136  0.3287 -0.4234 -0.3105
 2394poe     o211441   4.660   2.964   5.242  0.0145  0.1490 -0.0479
 2394poe    c2311442   4.612   2.848   5.178 -0.4464 -0.0411  0.6267
 2394poe    c2311443   4.580   2.744   5.286  0.1238 -0.6598  0.2083
 2394poe     o211444   4.465   2.780   5.360  0.0002 -0.3875 -0.1128
 2394poe    c2311445   4.446   2.699   5.474 -0.6313 -0.3486 -0.1883
 2394poe    c2311446   4.349   2.745   5.584 -0.0026 -0.2943  0.3483
 2394poe     o211447   4.397   2.853   5.661 -0.3633  0.0591  0.0788
 2394poe    c3111448   4.300   2.903   5.750 -0.3843  0.4843 -0.1798
 2395poe    c3111449   3.472   3.611   2.598 -0.3572  0.0490  0.2316
 2395poe     o211450   3.524   3.510   2.515 -0.1540 -0.0470  0.4756
 2395poe    c2311451   3.513   3.384   2.577 -0.5367 -0.4702 -0.4335
 2395poe    c2311452   3.637   3.305   2.530 -0.3169 -0.3017 -0.1375
 2395poe     o211453   3.646   3.304   2.390  0.1314  0.0904 -0.1153
 2395poe    c2311454   3.688   3.182   2.332 -0.1424 -0.0703  0.0205
 2395poe    c2311455   3.770   3.211   2.205  0.1362 -0.6018  0.0779
 2395poe     o211456   3.709   3.319   2.139 -0.2725 -0.9642 -0.1492
 2395poe    c2311457   3.754   3.323   2.005 -0.3542 -0.1960 -0.1624
 2395poe    c2311458   3.703   3.447   1.931 -0.2558 -0.2150 -0.2606
 2395poe     o211459   3.563   3.442   1.915 -0.2910 -0.2836  0.0807
 2395poe    c3111460   3.518   3.527   1.813  0.1710  0.0809  0.1800
 2396poe    c3111461   7.074   2.583   0.597  0.3408  0.3867 -0.3691
 2396poe     o211462   7.057   2.468   0.517 -0.2786  0.4139 -0.2790
 2396poe    c2311463   7.095   2.356   0.594 -0.9569  0.2630 -0.1528
 2396poe    c2311464   7.054   2.215   0.546  0.1125  0.0772 -0.5545
 2396poe     o211465   7.132   2.193   0.431  0.9648 -0.1171  0.0501
 2396poe    c2311466   7.115   2.057   0.399 -0.7731  0.1917 -0.4640
 2396poe    c2311467   7.132   2.026   0.249  0.3995  0.2075 -0.3472
 2396poe     o211468   7.260   2.056   0.200  0.8406 -0.6499  0.2493
 2396poe    c2311469   7.287   1.990   0.078  0.1218  0.1682 -0.3691
 2396poe    c2311470   7.411   2.055   0.014  0.0467  0.4584 -0.2185
 2396poe     o211471   7.527   2.054   0.094 -0.0385 -0.1201 -0.1014
 2396poe    c3111472   7.612   1.944   0.066 -0.4078 -0.3393 -0.3668
 2397poe    c3111473   0.601   6.801   3.990 -0.2137  0.4828  0.5698
 2397poe     o211474   0.709   6.724   4.038 -0.2745 -0.3425 -0.5906
 2397poe    c2311475   0.835   6.738   3.977 -0.0013 -0.3473 -0.0344
 2397poe    c2311476   0.931   6.646   4.054  0.2273  0.1735  0.3053
 2397poe     o211477   1.012   6.719   4.144  0.5486  0.0771  0.0945
 2397poe    c2311478   1.115   6.632   4.187 -0.2968 -0.6154  0.7434
 2397poe    c2311479   1.191   6.692   4.306  0.5441  0.1051 -0.1355
 2397poe     o211480   1.114   6.689   4.424  0.5663  0.3725 -0.1149
 2397poe    c2311481   1.125   6.815   4.487 -0.5418  0.2489  0.3669
 2397poe    c2311482   1.045   6.841   4.615 -0.0921  0.4779  0.6039
 2397poe     o211483   0.911   6.851   4.571  0.0669  1.0194  0.2426
 2397poe    c3111484   0.820   6.871   4.676  0.4740  0.5210  0.6974
 2398poe    c3111485   2.064   0.800   3.209  0.0918 -0.2729 -0.3418
 2398poe     o211486   2.121   0.904   3.132  0.0887 -0.1576 -0.1898
 2398poe    c2311487   2.115   1.026   3.203  0.0060 -0.2594 -0.0213
 2398poe    c2311488   2.209   1.135   3.151  0.6098 -0.6678  0.2040
 2398poe     o211489   2.159   1.189   3.031  0.0786 -0.4535  0.5176
 2398poe    c2311490   2.251   1.258   2.950 -0.3639 -0.3778  0.0770
 2398poe    c2311491   2.307   1.391   3.004  0.1885 -0.2089 -0.8848
 2398poe     o211492   2.198   1.478   3.029  0.3614 -0.1629 -0.2761
 2398poe    c2311493   2.232   1.568   3.131 -0.0438 -0.1575 -0.1455
 2398poe    c2311494   2.135   1.683   3.166 -0.0007 -0.1633 -0.0041
 2398poe     o211495   2.030   1.651   3.254  0.2726 -0.3997  0.2386
 2398poe    c3111496   1.961   1.767   3.296  0.8822 -0.1661  0.6179
 2399poe    c3111497   5.696   3.212   4.534 -0.2527  0.3706 -0.5894
 2399poe     o211498   5.678   3.249   4.669 -0.0525 -0.5890 -0.2960
 2399poe    c2311499   5.785   3.308   4.740 -0.8192 -0.0245  0.4024
 2399poe    c2311500   5.734   3.391   4.859 -0.0061 -0.0355  0.7651
 2399poe     o211501   5.676   3.302   4.952  0.0855 -0.4837  0.3947
 2399poe    c2311502   5.615   3.374   5.056 -0.2718 -0.3104  0.0695
 2399poe    c2311503   5.574   3.283   5.173  0.5159 -0.2366  0.4120
 2399poe     o211504   5.487   3.190   5.112  0.0701  0.1605  0.4319
 2399poe    c2311505   5.442   3.096   5.207  0.1272 -0.6696 -0.3413
 2399poe    c2311506   5.351   2.993   5.138 -0.0754 -0.5260 -0.2913
 2399poe     o211507   5.403   2.965   5.010  0.4730 -0.4484 -0.0873
 2399poe    c3111508   5.318   2.883   4.933  0.0113  0.2946 -0.3688
 2400poe    c3111509   3.724   1.037   1.069 -0.6998  0.4216  0.1031
 2400poe     o211510   3.637   1.014   1.177 -0.3594  0.0014  0.2901
 2400poe    c2311511   3.676   0.909   1.262  0.1559 -0.3499 -0.3729
 2400poe    c2311512   3.603   0.914   1.398  0.1434 -0.0669 -0.3886
 2400poe     o211513   3.464   0.895   1.391  0.1673 -0.3903 -0.0726
 2400poe    c2311514   3.399   0.922   1.514  0.0606 -0.0107 -0.2087
 2400poe    c2311515   3.257   0.979   1.505  0.1985  0.2651 -0.7202
 2400poe     o211516   3.162   0.909   1.428 -0.0453 -0.2820  0.0594
 2400poe    c2311517   3.044   0.988   1.430  0.2944  0.2432 -0.3892
 2400poe    c2311518   2.932   0.943   1.335  0.2454 -0.6668  0.0892
 2400poe     o211519   2.949   0.949   1.195 -0.1911 -0.4930  0.0412
 2400poe    c3111520   2.833   0.980   1.121  0.1061 -0.4295 -0.4047
 2401poe    c3111521   5.391   4.358   6.920 -0.1098  0.3049  0.8803
 2401poe     o211522   5.390   4.394   7.057  0.8877  0.4130  0.8657
 2401poe    c2311523   5.295   4.311   7.120 -0.2454  0.3555 -0.8567
 2401poe    c2311524   5.186   4.396   7.188 -0.0355 -0.3543  0.3978
 2401poe     o211525   5.224   4.454   7.311 -0.1982  0.3082  0.1442
 2401poe    c2311526   5.132   4.557   7.340 -0.5623 -0.1263  0.5378
 2401poe    c2311527   5.181   4.641   7.459  0.0254  0.3226 -0.0158
 2401poe     o211528   5.296   4.709   7.415 -0.0160  0.3079 -0.1454
 2401poe    c2311529   5.364   4.767   7.525  0.3280  0.0474 -0.2192
 2401poe    c2311530   5.510   4.806   7.497  0.2640  0.4075 -0.0572
 2401poe     o211531   5.532   4.907   7.401 -0.5490 -0.0432 -0.7311
 2401poe    c3111532   5.670   4.927   7.387 -0.4046 -0.3745  0.1821
 2402poe    c3111533   5.963   5.149   6.297 -0.1702 -0.5711  0.1439
 2402poe     o211534   5.883   5.209   6.197  0.3902  0.2524  0.1758
 2402poe    c2311535   5.800   5.109   6.143  0.4065  0.2240  0.2033
 2402poe    c2311536   5.681   5.149   6.053  0.6728  0.0582 -0.2237
 2402poe     o211537   5.569   5.177   6.133  0.4209 -0.2185 -0.4749
 2402poe    c2311538   5.443   5.146   6.078  0.3655 -0.2506 -0.3301
 2402poe    c2311539   5.318   5.166   6.167  0.3442  0.0232 -0.4192
 2402poe     o211540   5.320   5.079   6.278 -0.4550  0.3549 -0.1432
 2402poe    c2311541   5.419   5.100   6.375 -0.6906  0.0909  0.1562
 2402poe    c2311542   5.511   4.976   6.371  0.0898  0.6692  0.0021
 2402poe     o211543   5.592   4.974   6.487 -0.0598  0.4890  0.1023
 2402poe    c3111544   5.726   4.944   6.456 -0.1871  0.0846 -0.0580
 2403poe    c3111545   0.647   5.622   6.793  0.0071  0.7718  1.1901
 2403poe     o211546   0.591   5.504   6.739  0.4770  0.9449  0.3062
 2403poe    c2311547   0.579   5.537   6.603  0.1976 -0.0953  0.0647
 2403poe    c2311548   0.517   5.412   6.539  0.3772 -0.3536  0.3993
 2403poe     o211549   0.381   5.390   6.570  0.3117 -0.6290 -0.0720
 2403poe    c2311550   0.330   5.281   6.497 -0.8923 -0.1073 -0.0315
 2403poe    c2311551   0.177   5.294   6.493 -0.9293 -0.6195 -0.3766
 2403poe     o211552   0.127   5.329   6.620 -0.4435 -0.2353 -0.2880
 2403poe    c2311553  -0.014   5.339   6.619 -0.4975 -0.8145  0.4375
 2403poe    c2311554  -0.082   5.365   6.755  0.3817  0.2849  0.6783
 2403poe     o211555  -0.026   5.480   6.815  0.6594  0.5264 -0.0330
 2403poe    c3111556  -0.103   5.512   6.929  0.2835  0.7648 -0.3452
 2404poe    c3111557   5.848   6.777   5.692 -0.1394  0.1602  0.6236
 2404poe     o211558   5.883   6.654   5.751 -0.0096 -0.3584 -0.4996
 2404poe    c2311559   6.001   6.613   5.684  0.0725 -0.2996 -0.3927
 2404poe    c2311560   6.025   6.489   5.771 -0.3257 -0.3150 -0.3009
 2404poe     o211561   5.911   6.415   5.808 -0.5120  0.4620  0.7354
 2404poe    c2311562   5.953   6.325   5.908 -0.3791  0.0668  0.3247
 2404poe    c2311563   5.831   6.250   5.963 -0.6525  0.0540 -0.2949
 2404poe     o211564   5.732   6.341   6.008 -0.7602  0.0011 -0.4222
 2404poe    c2311565   5.647   6.267   6.093 -0.0848 -0.1251  0.1534
 2404poe    c2311566   5.549   6.368   6.155  0.1514  0.0034  0.3202
 2404poe     o211567   5.476   6.429   6.051 -0.2287 -0.5952  0.2278
 2404poe    c3111568   5.390   6.531   6.097 -0.0912 -0.3203 -0.1217
 2405poe    c3111569   4.330   6.187   1.397 -0.2745  0.3198 -0.1702
 2405poe     o211570   4.190   6.194   1.383 -0.3274 -0.4086 -0.0029
 2405poe    c2311571   4.134   6.174   1.511  0.2448 -0.8725  0.1780
 2405poe    c2311572   3.984   6.207   1.516  0.3786 -0.2361  0.0282
 2405poe     o211573   3.914   6.101   1.455  0.3424 -0.1047 -0.1582
 2405poe    c2311574   3.777   6.102   1.487  0.3558 -0.4676 -0.0865
 2405poe    c2311575   3.725   5.964   1.532 -0.4583 -0.2292 -0.2684
 2405poe     o211576   3.806   5.920   1.639 -0.3221 -0.1538 -0.3403
 2405poe    c2311577   3.800   5.785   1.678  0.7231 -0.0477  0.2319
 2405poe    c2311578   3.844   5.687   1.567 -0.1071 -0.9003  0.6417
 2405poe     o211579   3.981   5.705   1.538 -0.3603 -0.0946 -0.1055
 2405poe    c3111580   4.016   5.673   1.406  0.5713 -0.0205  0.1173
 2406poe    c3111581   6.966   2.626   5.412  0.3835  0.0406  0.5816
 2406poe     o211582   6.959   2.766   5.427 -0.2942  0.0454  0.2665
 2406poe    c2311583   6.982   2.833   5.306  0.1882 -0.4349  0.0895
 2406poe    c2311584   6.963   2.986   5.307  0.3362 -0.4077 -0.6156
 2406poe     o211585   6.824   3.007   5.300  0.3965 -0.0037 -0.6147
 2406poe    c2311586   6.789   3.143   5.308 -0.4598 -0.2687  0.3166
 2406poe    c2311587   6.638   3.163   5.283 -0.4684 -0.4442  0.2329
 2406poe     o211588   6.561   3.138   5.398 -0.4149 -0.3006  0.3007
 2406poe    c2311589   6.431   3.186   5.369 -0.3661 -0.4420 -0.1611
 2406poe    c2311590   6.340   3.189   5.493 -0.8780 -0.3297 -0.5387
 2406poe     o211591   6.347   3.064   5.557 -0.3365 -0.3952 -0.7223
 2406poe    c3111592   6.247   3.051   5.655  0.2068 -0.5772 -0.1839
 2407poe    c3111593   4.827   2.762   6.082  0.4277  0.7677 -0.2664
 2407poe     o211594   4.754   2.880   6.107 -0.1696  0.3073  0.1853
 2407poe    c2311595   4.825   2.967   6.192 -0.4059  0.5205  0.1662
 2407poe    c2311596   4.748   2.996   6.323  0.3294  0.0039  0.7233
 2407poe     o211597   4.697   2.884   6.390 -0.3486  0.1089  0.3916
 2407poe    c2311598   4.556   2.890   6.397 -0.3291  0.0725  0.8735
 2407poe    c2311599   4.498   2.751   6.428 -0.4615 -0.0685  0.0248
 2407poe     o211600   4.519   2.657   6.324  0.4921 -0.2138  0.3325
 2407poe    c2311601   4.482   2.523   6.344  0.4391 -0.2032  0.3076
 2407poe    c2311602   4.533   2.421   6.241  0.0551 -0.1730  0.0852
 2407poe     o211603   4.522   2.496   6.122  0.6030 -0.6263 -0.2575
 2407poe    c3111604   4.519   2.420   6.003  0.1201 -0.0712 -0.6078
 2408poe    c3111605   6.121   3.695   6.349  0.7005  0.0271 -0.4787
 2408poe     o211606   6.168   3.563   6.363  0.2647 -0.1532 -0.6982
 2408poe    c2311607   6.186   3.515   6.495  0.2852  0.4853 -0.4671
 2408poe    c2311608   6.195   3.362   6.508  0.6944  0.5791  0.4121
 2408poe     o211609   6.290   3.314   6.416  0.0239  0.3117 -0.1466
 2408poe    c2311610   6.314   3.176   6.438 -0.4838  0.2192 -0.1477
 2408poe    c2311611   6.211   3.090   6.364  0.0093 -0.3538 -0.1801
 2408poe     o211612   6.208   3.108   6.224 -0.3329  0.4809 -0.0700
 2408poe    c2311613   6.130   3.013   6.155  0.1472  0.0123  0.0335
 2408poe    c2311614   6.064   3.075   6.031  0.0629 -0.6344 -0.2500
 2408poe     o211615   5.952   3.157   6.060  0.4383  0.0612 -0.7197
 2408poe    c3111616   5.906   3.217   5.942 -0.4569  0.9712  0.0751
 2409poe    c3111617   3.222   2.919   0.371  0.4873  0.4175  0.0791
 2409poe     o211618   3.205   3.005   0.480 -0.2379  0.1272  0.1961
 2409poe    c2311619   3.187   3.139   0.439 -0.7702  0.0331  0.1059
 2409poe    c2311620   3.183   3.242   0.555 -0.0509  0.0825  0.0917
 2409poe     o211621   3.314   3.245   0.608 -0.3021 -0.4101  0.7413
 2409poe    c2311622   3.321   3.318   0.729  0.2544  0.1302  0.3829
 2409poe    c2311623   3.470   3.351   0.749  0.2530  0.4267 -0.0912
 2409poe     o211624   3.567   3.249   0.746  0.1461  0.3225  0.0449
 2409poe    c2311625   3.679   3.278   0.827  0.2111 -0.0178  0.0784
 2409poe    c2311626   3.778   3.160   0.819  0.1855 -0.0473  0.1876
 2409poe     o211627   3.835   3.130   0.693 -0.3155 -0.5640  0.0814
 2409poe    c3111628   3.930   3.030   0.718  0.0992 -0.0709  0.4952
 2410poe    c3111629   4.698   1.861   3.803  0.0374 -0.0156 -0.4250
 2410poe     o211630   4.836   1.842   3.825 -0.0848 -0.0354  0.3703
 2410poe    c2311631   4.902   1.868   3.703  0.3322 -0.3529  0.5229
 2410poe    c2311632   5.056   1.867   3.703  0.3379 -0.4591 -0.2314
 2410poe     o211633   5.119   1.741   3.709  0.6762 -0.2645  0.3685
 2410poe    c2311634   5.113   1.673   3.833 -0.5867 -0.1974  0.3591
 2410poe    c2311635   5.170   1.531   3.822  0.3887  0.2671 -0.8276
 2410poe     o211636   5.097   1.483   3.711  0.5809 -0.7066 -0.5476
 2410poe    c2311637   5.058   1.349   3.731 -1.0173 -0.1704  0.0902
 2410poe    c2311638   5.027   1.284   3.595 -0.3551  0.4508 -0.3630
 2410poe     o211639   5.119   1.293   3.488 -0.2241 -0.3499 -0.3247
 2410poe    c3111640   5.191   1.173   3.468 -0.2333 -0.3355 -0.4452
 2411poe    c3111641   3.440   2.127   0.664 -0.2625 -0.8337 -0.0916
 2411poe     o211642   3.393   2.063   0.548 -0.2873 -0.1203 -0.4797
 2411poe    c2311643   3.279   2.126   0.493 -0.5891  0.2146  0.5184
 2411poe    c2311644   3.237   2.036   0.376  0.3520 -0.2542  0.5257
 2411poe     o211645   3.344   2.015   0.286 -0.2139 -0.3947 -0.1266
 2411poe    c2311646   3.314   1.946   0.167  0.0323  0.1897 -0.5275
 2411poe    c2311647   3.455   1.951   0.104  0.2040  0.1703 -0.1496
 2411poe     o211648   3.552   1.962   0.205 -0.1183  1.0638  0.0684
 2411poe    c2311649   3.684   1.958   0.156 -0.2034  0.0485 -0.0918
 2411poe    c2311650   3.769   1.831   0.173 -0.0402  0.1690 -0.0123
 2411poe     o211651   3.796   1.822   0.311  0.0449  0.1722 -0.0283
 2411poe    c3111652   3.890   1.719   0.333 -0.0239  0.0534 -0.2881
 2412poe    c3111653   1.538   4.361   5.043 -0.0099 -0.1549  0.3234
 2412poe     o211654   1.524   4.484   5.112  0.3081  0.0994 -0.0588
 2412poe    c2311655   1.409   4.488   5.193  0.0241  0.1735 -0.4603
 2412poe    c2311656   1.425   4.539   5.337 -0.0998 -0.9066 -0.0531
 2412poe     o211657   1.499   4.452   5.419  0.7160 -0.0932  0.0974
 2412poe    c2311658   1.636   4.451   5.385  0.7244 -0.0347  0.1307
 2412poe    c2311659   1.701   4.342   5.472  0.4654 -0.0580  0.2988
 2412poe     o211660   1.664   4.212   5.430 -0.5090  0.2962  0.0593
 2412poe    c2311661   1.738   4.175   5.316 -0.4024 -0.1244  0.2644
 2412poe    c2311662   1.734   4.028   5.272  0.2394 -0.0564 -0.0305
 2412poe     o211663   1.794   3.936   5.360  0.7170 -0.1800 -0.4760
 2412poe    c3111664   1.699   3.849   5.419  0.2348  0.6617  0.0007
 2413poe    c3111665   5.140   2.593   6.522  0.2230 -0.6193 -0.1522
 2413poe     o211666   5.092   2.545   6.398 -0.7315  0.1734 -0.0984
 2413poe    c2311667   5.159   2.629   6.307  0.2396 -0.0718  0.3720
 2413poe    c2311668   5.197   2.552   6.180  0.4406  0.4722  0.0984
 2413poe     o211669   5.101   2.487   6.100  0.3635  0.4714  0.1937
 2413poe    c2311670   5.158   2.438   5.981  0.1285  0.1240  0.2236
 2413poe    c2311671   5.072   2.341   5.898  0.1599  0.3970 -0.1269
 2413poe     o211672   5.051   2.221   5.969  0.5787  0.1282 -0.4517
 2413poe    c2311673   5.001   2.122   5.882 -0.1574  0.3232 -0.2530
 2413poe    c2311674   4.923   2.005   5.946 -0.1865  0.3331 -0.2695
 2413poe     o211675   4.790   2.045   5.970 -0.2521  0.1374 -0.3083
 2413poe    c3111676   4.715   1.934   5.925  0.0261 -0.1849  0.0199
 2414poe    c3111677   5.520   5.764   5.340  0.3673  0.0577 -0.0876
 2414poe     o211678   5.407   5.846   5.319  0.2020 -0.1097  0.1523
 2414poe    c2311679   5.409   5.910   5.194  0.3295  0.0413  0.2317
 2414poe    c2311680   5.268   5.968   5.178  0.3615  0.2196  0.5860
 2414poe     o211681   5.243   6.054   5.287  0.0765  0.5451  0.2684
 2414poe    c2311682   5.109   6.095   5.274 -0.1940 -0.3952  0.0424
 2414poe    c2311683   5.120   6.220   5.364 -0.4851 -0.2564 -0.1105
 2414poe     o211684   5.148   6.163   5.490 -0.5071 -0.2062 -0.0831
 2414poe    c2311685   5.115   6.256   5.590 -0.5089 -0.3800  0.0778
 2414poe    c2311686   5.163   6.218   5.732 -0.2562  0.6920  0.2881
 2414poe     o211687   5.301   6.234   5.755 -0.0984 -0.4805  0.2330
 2414poe    c3111688   5.352   6.143   5.849  0.3396 -0.2236  0.2458
 2415poe    c3111689   2.237   3.336   5.132  0.1419  0.3465 -0.8012
 2415poe     o211690   2.356   3.306   5.061  0.0001 -0.0179 -0.8868
 2415poe    c2311691   2.466   3.303   5.149 -0.2078  0.8365 -0.5859
 2415poe    c2311692   2.598   3.313   5.070  0.0315 -0.3722 -0.3648
 2415poe     o211693   2.584   3.207   4.979 -0.0635 -0.7262  0.0593
 2415poe    c2311694   2.653   3.223   4.857  0.2950 -0.6261  0.2721
 2415poe    c2311695   2.698   3.090   4.794  0.6393 -0.1986 -0.4054
 2415poe     o211696   2.589   3.002   4.808  0.6678 -0.1793 -0.0535
 2415poe    c2311697   2.612   2.867   4.774 -0.0279 -0.3018 -0.0526
 2415poe    c2311698   2.477   2.794   4.790 -0.0986 -0.1016  0.2852
 2415poe     o211699   2.419   2.785   4.918 -0.5021  0.2947  0.1312
 2415poe    c3111700   2.326   2.679   4.909  0.0410 -0.2008  0.2914
 2416poe    c3111701   1.643   5.163   5.431  0.6446  0.3619  0.6905
 2416poe     o211702   1.695   5.034   5.403 -0.0382  0.3180 -0.4328
 2416poe    c2311703   1.824   5.021   5.457 -0.0445 -0.2033 -0.5359
 2416poe    c2311704   1.897   4.898   5.400  0.2164 -0.3454  0.0912
 2416poe     o211705   1.934   4.933   5.268 -0.2746 -0.3465 -0.0493
 2416poe    c2311706   2.073   4.952   5.263 -0.2490 -0.6305 -0.5541
 2416poe    c2311707   2.111   4.977   5.116  0.7394 -0.0708 -0.2165
 2416poe     o211708   2.079   5.110   5.081 -0.2998 -0.1523  0.3789
 2416poe    c2311709   2.113   5.127   4.946 -0.3554  0.1342  0.4011
 2416poe    c2311710   1.997   5.201   4.876 -0.0701  0.4831  0.2960
 2416poe     o211711   1.875   5.130   4.884  0.1025  0.0666 -0.5998
 2416poe    c3111712   1.767   5.173   4.805 -0.1649 -0.2890 -0.4257
 2417poe    c3111713   5.185   7.064   0.180 -0.2132 -0.6383  0.1045
 2417poe     o211714   5.080   7.101   0.093  0.2004 -0.0423 -0.1463
 2417poe    c2311715   5.101   7.037  -0.031  0.1959  0.1128 -0.2272
 2417poe    c2311716   4.983   7.038  -0.130 -0.0150 -0.0616  0.0189
 2417poe     o211717   4.969   7.166  -0.188 -0.3426  0.1075  0.4683
 2417poe    c2311718   4.836   7.191  -0.227 -0.1133  0.7112  0.0621
 2417poe    c2311719   4.819   7.327  -0.298 -0.4765  0.3933 -0.4656
 2417poe     o211720   4.862   7.431  -0.214  0.3997  0.0259 -0.4496
 2417poe    c2311721   4.816   7.559  -0.251  0.1427 -0.0639 -0.4385
 2417poe    c2311722   4.850   7.642  -0.126  0.0601  0.0551 -0.4945
 2417poe     o211723   4.985   7.621  -0.090 -0.1503 -0.0192  0.2726
 2417poe    c3111724   5.044   7.741  -0.045 -0.3202  0.0699  0.2590
 2418poe    c3111725   2.775   2.225   2.927 -0.8592 -0.0505  0.6991
 2418poe     o211726   2.807   2.362   2.929  0.2856 -0.2750 -0.4890
 2418poe    c2311727   2.831   2.404   3.062 -0.1109  0.1248 -0.5423
 2418poe    c2311728   2.815   2.557   3.068 -0.0124  0.1219 -0.1756
 2418poe     o211729   2.893   2.594   2.956  0.9201 -0.4121  0.2880
 2418poe    c2311730   2.893   2.735   2.955  0.0653 -0.4077  0.3597
 2418poe    c2311731   2.990   2.767   2.840 -0.5406  0.2694  0.0297
 2418poe     o211732   2.960   2.692   2.725 -0.2156  0.3392 -0.1014
 2418poe    c2311733   3.042   2.724   2.615  0.0151  0.0766 -0.0059
 2418poe    c2311734   3.010   2.629   2.498  0.0183  0.1291 -0.0495
 2418poe     o211735   2.871   2.635   2.477 -0.1043 -0.2822  0.5909
 2418poe    c3111736   2.838   2.573   2.355 -0.4495  0.3382  0.3614
 2419poe    c3111737   6.124   2.573   0.841  0.4701  0.6792  0.0888
 2419poe     o211738   6.209   2.624   0.941  0.5085  0.2231  0.2879
 2419poe    c2311739   6.258   2.753   0.913 -0.4383  0.5997  0.3372
 2419poe    c2311740   6.312   2.808   1.046 -0.0067 -0.0015  0.4144
 2419poe     o211741   6.217   2.874   1.126 -0.1019  0.1727  0.1579
 2419poe    c2311742   6.268   2.903   1.254 -0.5285  0.1228  0.3418
 2419poe    c2311743   6.167   2.909   1.370 -0.5411  0.3584  0.3205
 2419poe     o211744   6.131   2.783   1.423 -0.1549 -0.2889 -0.9101
 2419poe    c2311745   6.230   2.726   1.506 -0.4710 -0.4757 -0.6574
 2419poe    c2311746   6.216   2.578   1.544 -0.0787 -0.2489  0.4050
 2419poe     o211747   6.242   2.503   1.427  0.3805  0.3596  0.1122
 2419poe    c3111748   6.182   2.376   1.430  0.4507  0.3221 -0.0767
 2420poe    c3111749   4.024   0.568   0.383  0.1300 -0.2588 -0.0823
 2420poe     o211750   4.040   0.703   0.346 -0.0681 -0.2505 -0.1397
 2420poe    c2311751   4.013   0.781   0.460  0.0471  0.0287 -0.3003
 2420poe    c2311752   4.142   0.839   0.519 -0.1968  0.1560  0.1168
 2420poe     o211753   4.234   0.750   0.579  0.0475  0.5964  0.4013
 2420poe    c2311754   4.363   0.808   0.573  0.1267  0.3594 -0.2745
 2420poe    c2311755   4.456   0.693   0.618 -0.5733 -0.1344 -0.0596
 2420poe     o211756   4.455   0.680   0.758 -0.4165 -0.2045 -0.0653
 2420poe    c2311757   4.518   0.558   0.789 -0.6166 -0.3873 -0.3730
 2420poe    c2311758   4.508   0.512   0.936  0.1262 -0.2928 -0.2874
 2420poe     o211759   4.594   0.583   1.023  0.2209 -0.5930 -0.1363
 2420poe    c3111760   4.610   0.513   1.145 -0.3779 -0.1963  0.1762
 2421poe    c3111761   6.045   0.830   6.275  0.4558  0.3432 -0.3075
 2421poe     o211762   6.099   0.738   6.367  0.3035 -0.0231 -0.5812
 2421poe    c2311763   6.239   0.741   6.350  0.3910  0.2180  0.1576
 2421poe    c2311764   6.317   0.619   6.404 -0.3183 -0.3457 -0.0652
 2421poe     o211765   6.337   0.605   6.543  0.4093  0.2735 -0.0975
 2421poe    c2311766   6.448   0.673   6.596 -0.0791  0.6743  0.4179
 2421poe    c2311767   6.577   0.591   6.614 -0.3104  0.2397  0.0999
 2421poe     o211768   6.654   0.571   6.498 -0.2189  0.2238  0.1635
 2421poe    c2311769   6.723   0.447   6.504 -0.1893  0.2225 -0.1970
 2421poe    c2311770   6.833   0.435   6.396  0.1031  0.2063  0.1033
 2421poe     o211771   6.914   0.549   6.417 -0.0508  0.2473  0.4940
 2421poe    c3111772   7.018   0.536   6.323  0.0220  0.3382  0.5622
 2422poe    c3111773   1.733   4.959   3.071  0.6068 -0.0550  0.0799
 2422poe     o211774   1.679   5.041   2.971  0.0443 -0.2439  0.2218
 2422poe    c2311775   1.549   4.992   2.947  0.0402 -0.3002  0.3619
 2422poe    c2311776   1.450   5.080   2.868  0.5189 -0.0484  0.0369
 2422poe     o211777   1.415   5.191   2.948  0.2198 -0.1914  0.1057
 2422poe    c2311778   1.304   5.248   2.884  0.1755 -0.3269  0.0606
 2422poe    c2311779   1.299   5.396   2.927 -0.0424 -0.2943 -0.0708
 2422poe     o211780   1.421   5.456   2.888 -0.2950 -0.1358 -0.6181
 2422poe    c2311781   1.411   5.585   2.834  0.3003  0.1100 -0.1529
 2422poe    c2311782   1.517   5.591   2.722  0.3660  0.2421 -0.0848
 2422poe     o211783   1.638   5.557   2.786  0.2227 -0.1401 -0.0128
 2422poe    c3111784   1.740   5.597   2.697  0.0680  0.8897  0.2663
 2423poe    c3111785   5.152   4.122   4.187  0.3726  0.7594 -0.9672
 2423poe     o211786   5.125   4.004   4.114 -0.1265  0.1446  0.1766
 2423poe    c2311787   5.197   3.995   3.993  0.2468 -0.7203  0.4577
 2423poe    c2311788   5.163   3.909   3.870 -0.0474  0.0700 -0.0172
 2423poe     o211789   5.199   3.776   3.897 -0.5225 -0.0546  0.0053
 2423poe    c2311790   5.154   3.702   3.785  0.8602  0.1775 -0.7268
 2423poe    c2311791   5.180   3.550   3.790 -0.4473 -0.0420 -0.3571
 2423poe     o211792   5.144   3.488   3.912  0.2011  0.2092 -0.0357
 2423poe    c2311793   5.160   3.348   3.904 -0.0613  0.1402  0.5851
 2423poe    c2311794   5.078   3.271   4.009 -0.1751 -0.3494  0.1382
 2423poe     o211795   4.940   3.256   3.985 -0.2368  0.4084  0.0248
 2423poe    c3111796   4.905   3.139   3.915 -0.2363  0.7970 -0.6329
 2424poe    c3111797   6.688   3.360   6.251 -0.0956  0.1099 -0.1725
 2424poe     o211798   6.579   3.334   6.166  0.2329 -0.1274 -0.5239
 2424poe    c2311799   6.574   3.205   6.108 -0.1061 -0.2168 -0.3012
 2424poe    c2311800   6.680   3.173   6.001  0.3805  0.2165  0.0440
 2424poe     o211801   6.658   3.244   5.882 -0.1214 -0.5213 -0.3121
 2424poe    c2311802   6.767   3.234   5.793  0.3898  0.5914  0.1762
 2424poe    c2311803   6.782   3.352   5.694  0.0976  0.0204 -0.5593
 2424poe     o211804   6.813   3.478   5.748 -0.6183  0.0833 -0.2788
 2424poe    c2311805   6.734   3.541   5.846  0.4101  0.3662  0.3956
 2424poe    c2311806   6.797   3.641   5.945 -0.2790  0.8967  0.3059
 2424poe     o211807   6.889   3.572   6.026  0.0311  0.6192 -0.2752
 2424poe    c3111808   6.959   3.649   6.121 -0.1864  0.5092 -0.0272
 2425poe    c3111809   5.485   4.768   3.245  0.5017 -0.4375  0.1389
 2425poe     o211810   5.422   4.891   3.216  0.4514 -0.5427 -0.2029
 2425poe    c2311811   5.478   4.987   3.304 -0.2562 -0.1066 -0.2229
 2425poe    c2311812   5.458   5.135   3.269 -0.3457 -0.1626 -0.4096
 2425poe     o211813   5.323   5.175   3.254 -0.3192  0.0525 -0.0792
 2425poe    c2311814   5.300   5.305   3.205  0.0245  0.1451 -0.0010
 2425poe    c2311815   5.155   5.308   3.152  0.1456 -0.0571 -0.3482
 2425poe     o211816   5.117   5.202   3.068 -0.2551 -0.3432  0.1908
 2425poe    c2311817   4.987   5.229   3.020 -0.3650 -0.2160  0.5612
 2425poe    c2311818   4.946   5.095   2.956  0.4566 -0.1674 -0.0779
 2425poe     o211819   4.965   4.978   3.032 -0.4633  0.0669  0.5329
 2425poe    c3111820   4.889   4.879   2.967 -0.1649  0.0196  0.2536
 2426poe    c3111821   2.960   3.086   5.939  0.7095 -0.3377 -0.2655
 2426poe     o211822   2.875   2.975   5.915 -0.4758  0.5166 -0.1184
 2426poe    c2311823   2.952   2.906   5.820 -0.0176 -0.0073  0.6226
 2426poe    c2311824   2.908   2.758   5.826  0.0271 -0.0341  0.3306
 2426poe     o211825   2.804   2.721   5.740  0.0050  0.0645  0.3147
 2426poe    c2311826   2.856   2.696   5.611  0.1942 -0.4327  0.4834
 2426poe    c2311827   2.732   2.688   5.519  0.3962 -0.1607  0.1848
 2426poe     o211828   2.633   2.783   5.552  0.2212 -0.3017  0.0641
 2426poe    c2311829   2.530   2.752   5.462  0.2230 -0.3749  0.0866
 2426poe    c2311830   2.450   2.884   5.453 -0.0530 -0.5746 -0.4345
 2426poe     o211831   2.417   2.897   5.589 -0.4801  0.0280 -0.5913
 2426poe    c3111832   2.291   2.960   5.594 -0.3718  0.1931  0.1821
 2427poe    c3111833   6.630   2.787   0.499  0.6390 -1.0958 -0.4286
 2427poe     o211834   6.725   2.857   0.576 -0.1886 -0.1350 -0.2629
 2427poe    c2311835   6.768   2.968   0.500  0.4672 -0.2200 -0.0204
 2427poe    c2311836   6.838   3.061   0.601 -0.1712  0.1052  0.1230
 2427poe     o211837   6.905   2.978   0.693  0.2210  0.1768 -0.0988
 2427poe    c2311838   7.006   3.056   0.755  0.0624  0.3804 -0.0929
 2427poe    c2311839   7.063   2.978   0.875 -0.3712 -0.2236 -0.2765
 2427poe     o211840   6.946   2.960   0.953 -0.3892 -0.6133 -0.3885
 2427poe    c2311841   6.973   2.880   1.066  0.2257  0.4921  0.2631
 2427poe    c2311842   6.856   2.853   1.162 -0.5918  0.3161 -0.7612
 2427poe     o211843   6.758   2.776   1.096 -0.7937  0.1317 -0.2515
 2427poe    c3111844   6.666   2.723   1.189  0.5120 -0.2271  0.8604
 2428poe    c3111845   6.890   5.126   1.207  0.4972  0.2117  0.0819
 2428poe     o211846   6.954   5.021   1.276  0.3629 -0.1588 -0.3504
 2428poe    c2311847   6.916   4.992   1.408  0.0908  0.1923 -0.3476
 2428poe    c2311848   6.951   5.078   1.530  0.3767 -0.0455 -0.2599
 2428poe     o211849   7.085   5.062   1.570  0.2308  0.0503  0.2834
 2428poe    c2311850   7.105   5.130   1.692 -0.3924  0.2464  0.2768
 2428poe    c2311851   7.255   5.121   1.725 -0.3467  0.2680  0.0775
 2428poe     o211852   7.296   4.986   1.734 -0.2630  0.3169  0.4333
 2428poe    c2311853   7.426   4.974   1.786 -0.3151 -0.2640  0.4356
 2428poe    c2311854   7.450   4.827   1.828  0.6587 -0.2471 -0.0440
 2428poe     o211855   7.430   4.751   1.711  0.2346 -0.2439  0.0249
 2428poe    c3111856   7.444   4.612   1.733 -0.2088 -0.3248 -0.1975
 2429poe    c3111857   2.605   3.673   1.557 -1.0677  0.1808 -0.3728
 2429poe     o211858   2.595   3.590   1.444 -0.2006 -0.1769 -0.1897
 2429poe    c2311859   2.489   3.498   1.455 -0.3158 -0.0386 -0.1556
 2429poe    c2311860   2.499   3.385   1.352  0.2183 -0.3147  0.1972
 2429poe     o211861   2.471   3.431   1.222  0.0888 -0.3598  0.2089
 2429poe    c2311862   2.557   3.361   1.135  0.2888 -0.0086  0.1253
 2429poe    c2311863   2.494   3.383   0.996  0.1879  0.7447  0.2839
 2429poe     o211864   2.494   3.520   0.962 -0.3279  0.6510 -0.1041
 2429poe    c2311865   2.420   3.539   0.843 -0.6818 -0.4202 -0.0674
 2429poe    c2311866   2.433   3.690   0.819 -0.5681 -0.3379  0.4842
 2429poe     o211867   2.413   3.755   0.942  0.6309 -0.1086  0.5670
 2429poe    c3111868   2.432   3.894   0.929 -0.5338  0.0398  0.3489
 2430poe    c3111869   6.264   3.319   1.377  0.6109 -0.5221 -0.6300
 2430poe     o211870   6.160   3.319   1.283  0.1044 -0.1020 -0.0751
 2430poe    c2311871   6.225   3.302   1.159 -0.4625 -0.4747 -0.3289
 2430poe    c2311872   6.133   3.318   1.037  0.1991 -0.1772 -0.7944
 2430poe     o211873   6.048   3.207   1.015 -0.0919 -0.1969  0.3786
 2430poe    c2311874   5.958   3.257   0.919 -0.4885 -0.8068  0.4354
 2430poe    c2311875   5.891   3.147   0.834  0.1476 -0.6061 -0.3271
 2430poe     o211876   5.827   3.041   0.901  0.0553 -0.2079  0.2147
 2430poe    c2311877   5.796   2.954   0.795 -0.3866 -0.1403  0.2837
 2430poe    c2311878   5.669   2.874   0.829 -0.7269  0.4921  0.5188
 2430poe     o211879   5.689   2.818   0.957 -0.1688  0.1405  0.2837
 2430poe    c3111880   5.581   2.731   0.982  0.0199 -0.1038  0.2500
 2431poe    c3111881   6.621   5.964   0.689 -0.1144  0.1089 -0.0526
 2431poe     o211882   6.581   5.964   0.824 -0.0107 -0.1897 -0.0193
 2431poe    c2311883   6.650   5.863   0.893  0.0685  0.2276  0.5245
 2431poe    c2311884   6.786   5.893   0.958  0.1399  0.2148  0.3817
 2431poe     o211885   6.782   5.980   1.069  0.0711 -0.3438  0.8244
 2431poe    c2311886   6.909   5.990   1.129  0.4677  0.0950 -0.0794
 2431poe    c2311887   6.900   6.083   1.251  0.3395 -0.0479  0.0197
 2431poe     o211888   6.834   6.201   1.211  0.4323 -0.0734 -0.2119
 2431poe    c2311889   6.828   6.301   1.311 -0.0063 -0.0862 -0.2239
 2431poe    c2311890   6.723   6.399   1.256  0.1735  0.3534  0.2110
 2431poe     o211891   6.616   6.331   1.194  0.7215 -0.3286  0.0017
 2431poe    c3111892   6.513   6.422   1.160  0.0753 -0.9583  0.2562
 2432poe    c3111893   6.013   3.944   6.111 -0.4329 -0.7560  0.4440
 2432poe     o211894   5.935   4.032   6.189 -0.1916 -0.2312  0.0998
 2432poe    c2311895   5.877   3.965   6.299  0.3005  0.2413  0.6540
 2432poe    c2311896   5.778   4.056   6.374 -0.5450 -0.1838  0.0691
 2432poe     o211897   5.709   4.138   6.282  0.3018  0.3322 -0.1187
 2432poe    c2311898   5.641   4.252   6.330 -0.0892 -0.1578  0.5132
 2432poe    c2311899   5.558   4.293   6.207  0.4828 -0.3762  0.0473
 2432poe     o211900   5.610   4.274   6.077 -0.1581 -0.3055 -0.2269
 2432poe    c2311901   5.541   4.344   5.976  0.2106  0.4220  0.0185
 2432poe    c2311902   5.597   4.306   5.838 -0.7592  0.2900 -0.3425
 2432poe     o211903   5.564   4.174   5.798  0.0154 -0.0383  0.0940
 2432poe    c3111904   5.647   4.146   5.688 -0.2615 -0.3478 -0.0348
 2433poe    c3111905   3.608   0.189   4.227  0.4401 -0.3065  0.1639
 2433poe     o211906   3.524   0.163   4.117 -0.1903  0.6175  0.4198
 2433poe    c2311907   3.496   0.283   4.049 -0.2233  0.2985 -0.1268
 2433poe    c2311908   3.438   0.274   3.906  0.0039 -0.2770 -0.1853
 2433poe     o211909   3.314   0.207   3.892 -0.5352  0.7210 -0.2256
 2433poe    c2311910   3.308   0.146   3.766 -0.0283  0.1714  0.0087
 2433poe    c2311911   3.173   0.081   3.729 -0.1659  0.0759  0.6667
 2433poe     o211912   3.070   0.177   3.725 -0.2596 -0.0398  0.1926
 2433poe    c2311913   2.945   0.114   3.707 -0.0171 -0.5238  0.1888
 2433poe    c2311914   2.865   0.211   3.618  0.7856  0.1825  0.2169
 2433poe     o211915   2.773   0.280   3.699  0.4840  0.1337 -0.0785
 2433poe    c3111916   2.710   0.376   3.617  0.6420  0.2397 -0.0769
 2434poe    c3111917   6.301   6.705   1.012  1.2414  0.1158  0.2028
 2434poe     o211918   6.304   6.795   0.904  0.0230 -0.2961 -0.1998
 2434poe    c2311919   6.261   6.927   0.930 -0.0556 -0.2666 -0.4783
 2434poe    c2311920   6.313   7.032   0.830  0.4001  0.0254  0.0565
 2434poe     o211921   6.275   6.995   0.699  0.4391 -0.1561  0.0974
 2434poe    c2311922   6.295   7.108   0.618 -0.1197  0.0800  0.2790
 2434poe    c2311923   6.205   7.088   0.495 -0.1174  0.2980  0.2422
 2434poe     o211924   6.228   6.981   0.406  0.3214  0.1954  0.4767
 2434poe    c2311925   6.142   6.978   0.294  0.1832  0.3300  0.5793
 2434poe    c2311926   6.177   6.855   0.210  0.2759  0.3434  0.5987
 2434poe     o211927   6.199   6.751   0.303  0.0500 -0.2339  0.0212
 2434poe    c3111928   6.221   6.621   0.255  0.9268  0.0402 -0.3241
 2435poe    c3111929   6.275   0.460   5.596  0.1620  0.2504 -0.7764
 2435poe     o211930   6.200   0.385   5.689  0.6215  0.3848 -0.2907
 2435poe    c2311931   6.095   0.340   5.607  0.3037 -0.0243  0.3379
 2435poe    c2311932   6.003   0.222   5.646  0.0475  0.2390  0.5376
 2435poe     o211933   5.915   0.254   5.751 -0.6842  0.4492 -0.1294
 2435poe    c2311934   5.860   0.138   5.808  0.1567  0.1471  0.0740
 2435poe    c2311935   5.811   0.163   5.952 -0.1687  0.6723 -0.1273
 2435poe     o211936   5.905   0.172   6.056 -0.1979 -0.0425 -0.0353
 2435poe    c2311937   5.851   0.220   6.177  0.0944 -0.1741  0.1498
 2435poe    c2311938   5.953   0.204   6.291 -0.6683 -0.0376  0.8575
 2435poe     o211939   6.067   0.269   6.241 -0.7234 -0.5462  0.0540
 2435poe    c3111940   6.163   0.300   6.341 -0.3372  0.1610 -0.5258
 2436poe    c3111941   4.761   1.471   4.028  0.0112 -0.5868 -0.4413
 2436poe     o211942   4.897   1.434   4.032  0.0541 -0.3519  0.3599
 2436poe    c2311943   4.923   1.402   4.167  0.0280  0.4508  0.5616
 2436poe    c2311944   5.062   1.336   4.174  0.1030  0.4408 -0.7172
 2436poe     o211945   5.064   1.202   4.133  0.4762  0.2792 -0.1789
 2436poe    c2311946   5.187   1.152   4.180  0.0423 -0.5704  0.0843
 2436poe    c2311947   5.206   1.003   4.144  0.3510 -0.3085 -0.8673
 2436poe     o211948   5.088   0.929   4.164 -0.0067  0.5295  0.2758
 2436poe    c2311949   5.093   0.795   4.119 -0.4866  0.3133  0.8521
 2436poe    c2311950   4.946   0.752   4.106 -0.2950 -0.1579  0.2102
 2436poe     o211951   4.884   0.825   4.210  0.2062  0.2357  0.2365
 2436poe    c3111952   4.753   0.774   4.223  0.0596  0.5664  0.0466
 2437poe    c3111953   4.374   2.609   1.511  0.2099  1.1663  0.0108
 2437poe     o211954   4.465   2.564   1.609  0.5776  0.1365 -0.7824
 2437poe    c2311955   4.604   2.562   1.583  0.6359  0.2946 -0.4823
 2437poe    c2311956   4.684   2.510   1.704 -0.2959 -0.0344 -0.0001
 2437poe     o211957   4.643   2.384   1.754 -0.6101  0.1659  0.2524
 2437poe    c2311958   4.739   2.351   1.853 -0.1349 -0.3429 -0.3694
 2437poe    c2311959   4.660   2.263   1.951 -0.1985  0.3265  0.1910
 2437poe     o211960   4.588   2.155   1.896 -0.1596  0.0820  0.6164
 2437poe    c2311961   4.532   2.059   1.984 -0.5149 -0.3018 -0.0212
 2437poe    c2311962   4.433   1.977   1.899 -0.5634 -0.3932  0.1250
 2437poe     o211963   4.374   2.060   1.802  0.1954 -0.2630 -0.2326
 2437poe    c3111964   4.283   1.989   1.722  0.0861 -0.1369 -0.2211
 2438poe    c3111965   5.701   1.020   4.498 -0.5170 -0.5305 -0.4700
 2438poe     o211966   5.682   0.891   4.445 -0.1725 -0.6238 -0.3699
 2438poe    c2311967   5.753   0.869   4.325  0.3213  0.0757 -0.2089
 2438poe    c2311968   5.764   0.719   4.293  0.0894 -0.0175  0.1501
 2438poe     o211969   5.637   0.670   4.329 -0.0669  0.1743 -0.1409
 2438poe    c2311970   5.621   0.537   4.282  0.1949  0.2392 -0.4169
 2438poe    c2311971   5.468   0.530   4.263  0.1255  0.8813 -0.1611
 2438poe     o211972   5.394   0.580   4.371 -0.0979 -0.3300  0.2682
 2438poe    c2311973   5.256   0.565   4.346 -0.1564  0.0204  0.3697
 2438poe    c2311974   5.165   0.602   4.465 -0.2777 -0.2175  0.3519
 2438poe     o211975   5.192   0.736   4.502  0.2122 -0.0987 -0.4138
 2438poe    c3111976   5.079   0.792   4.563  0.0657 -0.2992 -0.5005
 2439poe    c3111977   5.615   1.799   6.215  0.5919 -0.0077 -0.2695
 2439poe     o211978   5.615   1.666   6.168  0.6605  0.1206 -0.6310
 2439poe    c2311979   5.734   1.602   6.205  0.1810 -0.4678 -0.0864
 2439poe    c2311980   5.779   1.476   6.127  0.1174 -0.1404 -0.6552
 2439poe     o211981   5.706   1.360   6.161 -0.0989  0.1244 -0.2075
 2439poe    c2311982   5.773   1.240   6.130  0.1609  0.3036 -0.3423
 2439poe    c2311983   5.716   1.120   6.206  0.4616  0.2517 -0.1949
 2439poe     o211984   5.765   1.103   6.337 -0.4242  0.0970  0.1235
 2439poe    c2311985   5.741   0.982   6.405  0.7733 -0.5011 -0.4929
 2439poe    c2311986   5.794   1.013   6.546 -0.2230  0.3161 -0.2806
 2439poe     o211987   5.931   1.046   6.541 -0.1182 -0.0837 -0.1509
 2439poe    c3111988   5.991   1.019   6.666  0.3391  0.6922 -0.1934
 2440poe    c3111989   0.655   5.559   3.425  0.1503  0.3533  0.1061
 2440poe     o211990   0.762   5.467   3.421  0.1886  0.4122 -0.3614
 2440poe    c2311991   0.855   5.522   3.331 -0.2940  1.1624 -0.4074
 2440poe    c2311992   0.976   5.436   3.291 -0.9203  0.1259 -0.1004
 2440poe     o211993   0.925   5.325   3.221 -0.0244  0.0448 -0.6408
 2440poe    c2311994   1.033   5.235   3.229 -0.0376  0.0761 -0.0178
 2440poe    c2311995   0.987   5.108   3.155 -0.5295  0.0494  0.3297
 2440poe     o211996   0.895   5.031   3.229 -0.0338 -0.6345  0.2482
 2440poe    c2311997   0.840   4.933   3.144 -0.5635  0.2252 -0.4168
 2440poe    c2311998   0.768   4.817   3.214  0.0590  0.0336 -0.0878
 2440poe     o211999   0.632   4.838   3.244 -0.0018  0.0410 -0.3687
 2440poe    c3112000   0.586   4.765   3.356  0.1148  0.1381 -0.2568
 2441poe    c3112001   2.629   0.608   3.888  0.3079 -0.5199  0.0838
 2441poe     o212002   2.656   0.652   4.019 -0.5576 -0.7367  0.3422
 2441poe    c2312003   2.744   0.564   4.084  0.6104  0.0431 -0.1480
 2441poe    c2312004   2.761   0.607   4.231  0.2414  0.2629 -0.1708
 2441poe     o212005   2.872   0.691   4.253  0.1385  0.4425 -0.3290
 2441poe    c2312006   2.897   0.700   4.391  0.8685 -0.4853 -0.3860
 2441poe    c2312007   3.035   0.762   4.419  0.4648  0.4266 -0.3804
 2441poe     o212008   3.036   0.891   4.363 -0.2724  0.6720  0.1585
 2441poe    c2312009   3.159   0.958   4.379  0.1296 -0.0546  0.1151
 2441poe    c2312010   3.159   1.092   4.304  0.8200 -0.0321  0.1529
 2441poe     o212011   3.117   1.091   4.169 -0.2124 -0.0625  0.4713
 2441poe    c3112012   3.143   1.218   4.114 -0.2882 -0.0957  0.3590
 2442poe    c3112013   5.033   2.182   5.298 -0.1084 -0.0685 -0.0547
 2442poe     o212014   5.047   2.141   5.164  0.0407  0.1402 -0.1039
 2442poe    c2312015   5.046   2.002   5.139 -0.7014  0.1550 -0.2012
 2442poe    c2312016   5.100   1.962   5.001  0.3727  0.0068  0.2496
 2442poe     o212017   5.239   1.973   4.982  0.4131  0.0406  0.5634
 2442poe    c2312018   5.287   1.908   4.866 -0.5701  0.1392  0.0990
 2442poe    c2312019   5.429   1.955   4.830 -0.3299 -0.3740  0.3693
 2442poe     o212020   5.497   1.893   4.723  0.2066 -0.0724  0.5350
 2442poe    c2312021   5.424   1.914   4.604  0.8275 -0.5957  0.0536
 2442poe    c2312022   5.495   1.867   4.476  0.4314  0.0258 -0.3949
 2442poe     o212023   5.602   1.954   4.442 -0.0291  0.6437 -0.2760
 2442poe    c3112024   5.674   1.915   4.328  0.4521 -0.1534  0.2878
 2443poe    c3112025   5.652   4.795   4.650  0.2367  0.1872 -0.0722
 2443poe     o212026   5.767   4.869   4.681  0.0423  0.4591  0.0043
 2443poe    c2312027   5.864   4.853   4.580  0.1914 -1.1469  0.3798
 2443poe    c2312028   6.004   4.911   4.608 -0.2876  0.3176 -0.2049
 2443poe     o212029   6.005   5.052   4.606 -0.3417  0.3211  0.0870
 2443poe    c2312030   6.134   5.103   4.633 -0.0364 -0.2478 -0.2814
 2443poe    c2312031   6.128   5.254   4.665  0.0234 -0.3322  0.1351
 2443poe     o212032   6.060   5.318   4.558  0.1565  0.2957  0.4232
 2443poe    c2312033   6.064   5.459   4.549  0.4009  0.2643  0.0179
 2443poe    c2312034   6.072   5.480   4.397 -0.0341  0.5048  0.0278
 2443poe     o212035   5.972   5.559   4.336 -0.3321  0.1647  0.0765
 2443poe    c3112036   6.027   5.575   4.207  0.4214  0.0692  0.3827
 2444poe    c3112037   5.434   0.905   5.854  0.1318  0.5513  0.3031
 2444poe     o212038   5.294   0.891   5.865  0.0954  0.5996 -0.1132
 2444poe    c2312039   5.250   0.868   5.733  0.2117  0.2006 -0.0834
 2444poe    c2312040   5.100   0.835   5.719  0.3563 -0.3790 -0.2842
 2444poe     o212041   5.068   0.754   5.830  0.0548 -0.1031 -0.1682
 2444poe    c2312042   4.958   0.673   5.795 -0.1049  0.0189  0.0513
 2444poe    c2312043   4.918   0.561   5.893 -0.1617  0.2393  0.2815
 2444poe     o212044   5.028   0.477   5.923 -0.5471 -0.3348  0.1018
 2444poe    c2312045   5.050   0.372   5.832 -0.2443 -0.4867  0.3477
 2444poe    c2312046   5.198   0.333   5.836 -0.1679 -0.2471 -0.0018
 2444poe     o212047   5.236   0.266   5.955 -0.2094 -0.4798 -0.1185
 2444poe    c3112048   5.373   0.236   5.965 -0.3220 -0.6622  1.0120
 2445poe    c3112049   0.162   6.888   3.057 -0.0773 -0.2037 -0.1332
 2445poe     o212050   0.134   7.005   2.984  0.1883 -0.1366 -0.1277
 2445poe    c2312051   0.214   7.010   2.868 -0.7767  0.0277 -0.8046
 2445poe    c2312052   0.192   7.135   2.781  0.1995  0.7481 -0.0487
 2445poe     o212053   0.060   7.176   2.754 -0.1656 -0.0330  0.5100
 2445poe    c2312054   0.052   7.311   2.714 -0.1315 -0.0650  0.3945
 2445poe    c2312055  -0.094   7.360   2.722  0.0351  0.4304  0.4503
 2445poe     o212056  -0.141   7.335   2.853  0.0096 -0.2384  0.3143
 2445poe    c2312057  -0.166   7.451   2.929 -0.3974  0.1992 -0.4672
 2445poe    c2312058  -0.205   7.431   3.077  0.1811 -0.0939 -0.3455
 2445poe     o212059  -0.112   7.362   3.156  0.0156 -0.0289 -0.0932
 2445poe    c3112060   0.002   7.434   3.195  0.0036  0.4155 -0.8583
 2446poe    c3112061   1.656   3.612   3.636  0.1874  0.0324  0.1359
 2446poe     o212062   1.601   3.706   3.546  0.2236  0.0327  0.1138
 2446poe    c2312063   1.463   3.729   3.563  0.1465 -0.1834 -0.2209
 2446poe    c2312064   1.418   3.837   3.464 -0.0926 -0.0217  0.0611
 2446poe     o212065   1.485   3.796   3.347 -0.2965 -0.2173  0.0133
 2446poe    c2312066   1.465   3.874   3.231  0.1953 -0.1513 -0.0260
 2446poe    c2312067   1.533   3.811   3.108  0.1185  0.4290 -0.3682
 2446poe     o212068   1.672   3.809   3.131  0.0257 -0.0821  0.1600
 2446poe    c2312069   1.731   3.770   3.008 -0.0515  0.2632  0.0122
 2446poe    c2312070   1.883   3.750   3.022 -0.1079 -0.0121  0.2557
 2446poe     o212071   1.912   3.656   3.123 -0.2260 -0.4802 -0.1413
 2446poe    c3112072   2.038   3.601   3.090  0.0623  0.3303 -0.4286
 2447poe    c3112073   5.619   4.445   1.707 -0.3405 -0.3280 -0.5313
 2447poe     o212074   5.514   4.466   1.799 -0.2179  0.2771 -0.5270
 2447poe    c2312075   5.449   4.344   1.828  0.5135  0.0616  0.2313
 2447poe    c2312076   5.310   4.380   1.882  0.4800  0.2543  0.0185
 2447poe     o212077   5.338   4.483   1.974 -0.1723  0.4746 -0.0233
 2447poe    c2312078   5.255   4.493   2.087 -0.2359 -0.5121  0.0233
 2447poe    c2312079   5.289   4.636   2.133  0.1168 -0.3659 -0.6745
 2447poe     o212080   5.426   4.662   2.118  0.1800 -0.3154 -0.0590
 2447poe    c2312081   5.443   4.767   2.211  0.0603  0.0385 -0.4315
 2447poe    c2312082   5.568   4.855   2.190 -0.1352  0.5987  0.6905
 2447poe     o212083   5.686   4.791   2.234 -0.0167  0.2750 -0.0708
 2447poe    c3112084   5.787   4.887   2.256  0.7140 -0.6525  0.6968
 2448poe    c3112085   2.463   4.465   5.465  0.1623  0.2568 -0.3726
 2448poe     o212086   2.512   4.379   5.365 -0.7046 -0.0761 -0.5174
 2448poe    c2312087   2.577   4.458   5.268 -0.7276  0.1648 -0.3379
 2448poe    c2312088   2.598   4.382   5.136 -0.0500  0.1487 -0.2254
 2448poe     o212089   2.675   4.264   5.144 -0.3312 -0.0451 -0.3800
 2448poe    c2312090   2.635   4.175   5.041  0.2253 -0.4428 -0.2552
 2448poe    c2312091   2.731   4.056   5.055  0.4366 -0.2893 -0.3723
 2448poe     o212092   2.689   3.986   5.171 -0.0034 -0.0467 -0.3844
 2448poe    c2312093   2.761   3.865   5.179  0.1327  0.0923  0.7220
 2448poe    c2312094   2.742   3.826   5.326 -0.1734 -0.6640  0.4845
 2448poe     o212095   2.769   3.937   5.408  0.8691 -0.5297 -0.0257
 2448poe    c3112096   2.751   3.909   5.545  0.0625  0.4128  0.0746
 2449poe    c3112097   5.469   1.039   5.286 -0.5300  0.1304 -0.1105
 2449poe     o212098   5.331   1.033   5.315 -0.4192 -0.7170  0.2957
 2449poe    c2312099   5.280   1.098   5.430 -0.8456  0.3266 -0.4589
 2449poe    c2312100   5.240   1.245   5.410 -0.0849  0.5404 -0.4360
 2449poe     o212101   5.118   1.266   5.344 -0.4795 -0.3695 -0.0195
 2449poe    c2312102   5.092   1.401   5.310 -0.1395 -0.4084 -0.4494
 2449poe    c2312103   5.138   1.431   5.167  0.4963 -0.5397 -0.2759
 2449poe     o212104   5.045   1.380   5.074  0.0833  0.0623 -0.1975
 2449poe    c2312105   5.082   1.378   4.937 -0.0194 -0.4459 -0.2195
 2449poe    c2312106   5.064   1.520   4.879  0.3356 -0.2526  0.1344
 2449poe     o212107   4.924   1.537   4.879  0.3395 -0.2214 -0.0379
 2449poe    c3112108   4.903   1.656   4.806 -0.1155 -0.2329  0.0687
 2450poe    c3112109   4.429   4.433   5.482 -0.5606  0.5134 -0.4871
 2450poe     o212110   4.530   4.340   5.449 -0.3660  0.4857  0.1800
 2450poe    c2312111   4.480   4.209   5.434  0.1780  0.2997 -0.0486
 2450poe    c2312112   4.581   4.115   5.367 -0.3991  0.0806 -0.6226
 2450poe     o212113   4.647   4.174   5.257  0.1416  0.2578 -0.2051
 2450poe    c2312114   4.735   4.089   5.188  0.1711  0.2791 -0.1945
 2450poe    c2312115   4.751   4.177   5.063  0.5241  0.1295 -0.2577
 2450poe     o212116   4.798   4.306   5.094 -0.0459  0.1226  0.6775
 2450poe    c2312117   4.832   4.375   4.975 -0.7263 -0.4688  0.1346
 2450poe    c2312118   4.900   4.508   5.010  0.0801 -0.7703 -0.2611
 2450poe     o212119   4.819   4.612   5.060  0.1507 -1.0102  0.3571
 2450poe    c3112120   4.764   4.680   4.949  0.1951  0.1103  1.0033
 2451poe    c3112121   1.926   1.112   6.646  0.0447  0.3258  0.1989
 2451poe     o212122   2.039   1.136   6.565 -0.3379 -0.7174 -0.6619
 2451poe    c2312123   2.143   1.079   6.641 -0.4171  0.2790  0.2303
 2451poe    c2312124   2.275   1.074   6.561 -0.3852 -0.2819  0.3144
 2451poe     o212125   2.286   0.972   6.464  0.5151 -0.0435  0.1615
 2451poe    c2312126   2.279   0.835   6.498  0.1417 -0.1721 -0.4240
 2451poe    c2312127   2.390   0.776   6.586 -0.5070  0.3360  0.7565
 2451poe     o212128   2.519   0.800   6.534 -0.4184  0.0894  0.8626
 2451poe    c2312129   2.613   0.737   6.619  0.1817 -0.0992  0.0687
 2451poe    c2312130   2.732   0.835   6.615 -0.3786  0.5926  0.0070
 2451poe     o212131   2.790   0.871   6.491  0.3202 -0.1430  0.1123
 2451poe    c3112132   2.931   0.876   6.501  0.2523 -0.1129  1.1195
 2452poe    c3112133   0.484   1.490   4.984 -0.1116 -0.2125  0.1163
 2452poe     o212134   0.355   1.514   4.933 -0.1437  0.0280  0.3070
 2452poe    c2312135   0.367   1.631   4.856 -0.3019 -0.2800 -0.1937
 2452poe    c2312136   0.246   1.648   4.762 -0.4134 -0.2563 -0.0466
 2452poe     o212137   0.234   1.541   4.671  0.6165 -0.0370 -0.4560
 2452poe    c2312138   0.152   1.590   4.568  0.1497 -0.0990 -0.1173
 2452poe    c2312139   0.136   1.483   4.458 -0.3160 -0.2888  0.1303
 2452poe     o212140   0.254   1.454   4.386 -0.2814 -0.0510  0.0882
 2452poe    c2312141   0.219   1.356   4.291  0.0255 -0.8094  0.7391
 2452poe    c2312142   0.331   1.300   4.202 -0.4988 -0.2656 -0.2884
 2452poe     o212143   0.371   1.393   4.104 -0.5397  0.0860  0.0255
 2452poe    c3112144   0.454   1.331   4.008 -0.5356  0.1444 -0.0088
 2453poe    c3112145   4.358   1.105   3.037  0.4210  0.5466  0.1373
 2453poe     o212146   4.389   1.045   3.161 -0.5836 -0.7283 -0.2067
 2453poe    c2312147   4.478   0.936   3.149 -0.1374 -0.3576 -0.2701
 2453poe    c2312148   4.500   0.870   3.286 -0.2708  0.2191  0.0327
 2453poe     o212149   4.467   0.967   3.383 -0.0136  0.0039  0.3343
 2453poe    c2312150   4.496   0.920   3.513  0.0990 -0.2601  0.2159
 2453poe    c2312151   4.529   1.041   3.602 -0.2088 -0.3687  0.4824
 2453poe     o212152   4.418   1.127   3.607  0.0643  0.0071  0.1845
 2453poe    c2312153   4.341   1.129   3.725  0.1857 -0.2030  0.2673
 2453poe    c2312154   4.249   1.252   3.738 -0.1726 -0.4203 -0.1966
 2453poe     o212155   4.141   1.240   3.648 -0.0943 -0.0947 -0.3370
 2453poe    c3112156   4.034   1.313   3.703  0.2690  0.5359 -0.4599
 2454poe    c3112157   5.261   0.294   0.243  0.3250 -0.6133  0.5696
 2454poe     o212158   5.123   0.269   0.256  0.1749 -0.1138 -0.0453
 2454poe    c2312159   5.089   0.264   0.392 -0.2929 -0.2389 -0.1655
 2454poe    c2312160   4.965   0.175   0.414 -0.3691 -0.0711  0.0893
 2454poe     o212161   4.970   0.041   0.371 -0.0903  0.0123 -0.1428
 2454poe    c2312162   4.837  -0.006   0.362 -0.0168 -0.1849 -0.1978
 2454poe    c2312163   4.854  -0.154   0.324 -0.2144 -0.4128  0.5716
 2454poe     o212164   4.972  -0.198   0.386  0.1079 -0.2311  0.0919
 2454poe    c2312165   4.991  -0.338   0.389 -0.4954 -0.3135  0.2142
 2454poe    c2312166   5.095  -0.364   0.500 -0.0718 -0.0923 -0.1295
 2454poe     o212167   5.215  -0.294   0.473 -0.0726  0.1083  0.3850
 2454poe    c3112168   5.320  -0.375   0.522 -0.4089 -0.1419  0.6972
 2455poe    c3112169   6.334   6.384   3.515  0.4879 -0.4473  0.1635
 2455poe     o212170   6.414   6.273   3.549  0.4955 -0.5869 -0.3069
 2455poe    c2312171   6.339   6.190   3.635 -0.3277  0.6812  0.2259
 2455poe    c2312172   6.380   6.175   3.783 -0.0366  0.0986  0.0870
 2455poe     o212173   6.499   6.101   3.798 -0.0131  0.0683 -0.2361
 2455poe    c2312174   6.570   6.118   3.919  0.1995 -0.3593 -0.2968
 2455poe    c2312175   6.613   6.265   3.939  0.1853 -0.4068  0.1007
 2455poe     o212176   6.743   6.300   3.896  0.1115 -0.1835  0.0577
 2455poe    c2312177   6.779   6.430   3.936  0.8641 -0.5216  0.4936
 2455poe    c2312178   6.920   6.484   3.901  0.4993  0.0297 -0.1561
 2455poe     o212179   6.945   6.465   3.764  0.4172 -0.1958 -0.1407
 2455poe    c3112180   7.071   6.508   3.717  0.2953  0.5243  0.1836
 2456poe    c3112181   3.617   2.652   5.187  0.3103  0.4600 -0.1231
 2456poe     o212182   3.539   2.674   5.303  0.4340  0.7982 -0.1048
 2456poe    c2312183   3.405   2.702   5.269  0.0355 -0.2133  0.6238
 2456poe    c2312184   3.328   2.740   5.397  0.0582 -0.6131  0.7586
 2456poe     o212185   3.363   2.864   5.454  0.1446 -0.0888 -0.4174
 2456poe    c2312186   3.264   2.890   5.550 -0.1317  0.2911 -0.7979
 2456poe    c2312187   3.229   3.039   5.554  0.3355  0.3925 -0.4185
 2456poe     o212188   3.313   3.105   5.646 -0.1734 -0.1003  0.4124
 2456poe    c2312189   3.253   3.215   5.711  0.0720  0.2928 -0.0222
 2456poe    c2312190   3.315   3.260   5.844 -0.3492  0.3016  0.1753
 2456poe     o212191   3.453   3.290   5.831 -0.3991  0.4693  0.0254
 2456poe    c3112192   3.503   3.360   5.942 -0.1154  0.0008  0.1949
 2457poe    c3112193   2.812   0.027   6.108 -0.1966  0.3550  0.1832
 2457poe     o212194   2.709   0.016   6.204 -0.6383 -0.6668 -0.3913
 2457poe    c2312195   2.641   0.138   6.221  0.4188 -0.1038 -0.0573
 2457poe    c2312196   2.521   0.130   6.317 -0.1948  0.3087 -0.7701
 2457poe     o212197   2.428   0.028   6.289 -0.4509  0.4594 -0.4830
 2457poe    c2312198   2.314   0.023   6.371 -0.6835  0.0464 -0.8225
 2457poe    c2312199   2.259  -0.120   6.363  0.5496 -0.4785 -0.0796
 2457poe     o212200   2.251  -0.166   6.230 -0.4120 -0.0533 -0.1718
 2457poe    c2312201   2.223  -0.304   6.228 -0.1428 -0.1177  0.4816
 2457poe    c2312202   2.172  -0.362   6.095  0.3894  0.2101  0.1285
 2457poe     o212203   2.265  -0.368   5.990  0.3229 -0.4485  0.1001
 2457poe    c3112204   2.217  -0.405   5.863 -0.1550 -0.4735  0.2862
 2458poe    c3112205   0.256   5.960   1.044 -0.1184  0.2740  0.3118
 2458poe     o212206   0.357   6.057   1.061  0.1033  0.0759  0.1335
 2458poe    c2312207   0.328   6.190   1.025 -0.2931 -0.2228 -0.6793
 2458poe    c2312208   0.457   6.273   1.036 -0.4264 -0.0771 -0.1657
 2458poe     o212209   0.531   6.240   1.151  0.1769  0.0105 -0.5227
 2458poe    c2312210   0.645   6.323   1.164 -0.2123  0.4853 -0.1048
 2458poe    c2312211   0.729   6.292   1.290 -0.1936 -0.8670 -0.4325
 2458poe     o212212   0.767   6.157   1.285 -0.0297 -0.8240 -0.3485
 2458poe    c2312213   0.823   6.120   1.409  0.0626 -0.1062 -0.1752
 2458poe    c2312214   0.858   5.971   1.418  0.2119 -0.0371  0.4702
 2458poe     o212215   0.757   5.874   1.403  0.2157  0.0353 -0.0580
 2458poe    c3112216   0.796   5.738   1.406  0.4060  0.0908 -0.0590
 2459poe    c3112217   4.576   1.666   6.720  0.2051 -0.2194 -0.0218
 2459poe     o212218   4.714   1.657   6.691  0.2042 -0.2884 -0.0046
 2459poe    c2312219   4.764   1.770   6.623  0.0691 -0.1720  0.0883
 2459poe    c2312220   4.907   1.746   6.571 -0.2254 -0.0599 -0.7974
 2459poe     o212221   4.958   1.628   6.630 -0.0868  0.4760  0.1754
 2459poe    c2312222   5.085   1.584   6.588 -0.2399  0.0356  0.1701
 2459poe    c2312223   5.140   1.450   6.641  0.1227  0.1858  0.1822
 2459poe     o212224   5.037   1.354   6.642 -0.2349  0.5665  0.4198
 2459poe    c2312225   5.067   1.238   6.717  0.1749  0.1877 -0.3292
 2459poe    c2312226   4.966   1.129   6.677  0.0358  0.6815 -1.3817
 2459poe     o212227   4.836   1.173   6.709  0.1614 -0.3460  0.7850
 2459poe    c3112228   4.759   1.074   6.772 -0.5609 -0.1245  0.2562
 2460poe    c3112229   3.400   1.572   5.936 -0.2421 -0.4198 -0.3939
 2460poe     o212230   3.429   1.502   5.817 -0.5307  0.1806 -0.8241
 2460poe    c2312231   3.546   1.554   5.759  0.0542 -0.2509 -0.0408
 2460poe    c2312232   3.611   1.476   5.643  0.4871 -0.1412  0.1239
 2460poe     o212233   3.663   1.351   5.680  0.7870 -0.0550 -0.0024
 2460poe    c2312234   3.663   1.276   5.560  0.4560 -0.0077 -0.0328
 2460poe    c2312235   3.705   1.131   5.587 -0.0892 -0.1122  0.2660
 2460poe     o212236   3.606   1.076   5.671 -0.3337 -0.1015 -0.0114
 2460poe    c2312237   3.616   0.935   5.676  0.0447 -0.0687  0.2026
 2460poe    c2312238   3.534   0.890   5.798  0.2897 -0.4037  0.2461
 2460poe     o212239   3.567   0.962   5.914  0.1956 -0.2899  0.2029
 2460poe    c3112240   3.512   0.922   6.037  0.0938 -0.0842  0.2247
 2461poe    c3112241   1.128   5.461   4.278  0.4420  0.3242 -0.1903
 2461poe     o212242   1.255   5.402   4.263  0.0950 -0.5868  0.3679
 2461poe    c2312243   1.350   5.473   4.339 -0.1135  0.4908 -0.3679
 2461poe    c2312244   1.492   5.424   4.308 -0.1000  0.1972  0.1607
 2461poe     o212245   1.504   5.462   4.173  0.1380 -0.3204  0.0352
 2461poe    c2312246   1.639   5.461   4.131  0.1731  0.4627  0.1157
 2461poe    c2312247   1.639   5.469   3.977 -0.6904  0.4797  0.1089
 2461poe     o212248   1.569   5.362   3.917  0.6338 -0.4375  0.1327
 2461poe    c2312249   1.558   5.371   3.777 -0.1063 -0.6701  0.1705
 2461poe    c2312250   1.541   5.227   3.724  0.6779 -0.6440 -0.1727
 2461poe     o212251   1.434   5.155   3.782  0.4107 -0.0125  0.1296
 2461poe    c3112252   1.438   5.020   3.741 -0.3398  0.0186 -0.0726
 2462poe    c3112253   3.364   0.619   0.885 -0.3703 -0.4446  0.4472
 2462poe     o212254   3.420   0.508   0.952  0.4677 -0.2621  0.0653
 2462poe    c2312255   3.547   0.526   1.009  0.3652  0.3551  0.1045
 2462poe    c2312256   3.559   0.438   1.135 -0.0887 -0.3633 -0.3526
 2462poe     o212257   3.524   0.512   1.249  0.5647 -0.8106  0.1460
 2462poe    c2312258   3.516   0.419   1.355  0.2507 -0.6959  0.2247
 2462poe    c2312259   3.480   0.479   1.492  0.2586  0.0704 -0.1044
 2462poe     o212260   3.356   0.539   1.522  0.3531  0.2576 -0.0805
 2462poe    c2312261   3.353   0.571   1.659  0.4710  0.0729 -0.0351
 2462poe    c2312262   3.209   0.547   1.706  0.3731 -0.4106 -0.5756
 2462poe     o212263   3.111   0.630   1.647 -0.2346 -0.8000 -0.1297
 2462poe    c3112264   2.982   0.609   1.699 -0.2150  0.2232  0.3650
 2463poe    c3112265   2.120   1.508   6.883 -0.2828  0.0040 -0.2918
 2463poe     o212266   2.031   1.581   6.964 -0.4064 -0.2250 -0.2223
 2463poe    c2312267   1.983   1.698   6.902  0.0045 -0.0228 -0.1625
 2463poe    c2312268   1.833   1.728   6.918  0.2205  0.8993  0.1992
 2463poe     o212269   1.771   1.743   7.044 -0.1004  0.6304  0.0779
 2463poe    c2312270   1.723   1.631   7.115 -0.3333  0.2739 -0.6367
 2463poe    c2312271   1.624   1.540   7.040 -0.0372 -0.1275 -0.5440
 2463poe     o212272   1.511   1.615   7.000 -0.2914 -0.1853  0.0514
 2463poe    c2312273   1.408   1.528   6.959 -0.1556 -0.0133 -0.6666
 2463poe    c2312274   1.331   1.598   6.846 -0.2020 -0.0565 -0.6613
 2463poe     o212275   1.407   1.582   6.729  0.4615  0.4274 -0.2995
 2463poe    c3112276   1.372   1.666   6.621 -0.3408  0.1952 -0.2238
 2464poe    c3112277   0.933   3.502   0.939  0.2719 -0.3059  0.4299
 2464poe     o212278   0.830   3.492   1.035  0.2739 -0.0204  0.4625
 2464poe    c2312279   0.757   3.612   1.025 -0.0656 -0.2429  0.2377
 2464poe    c2312280   0.650   3.604   1.135  0.4398 -0.0300  0.7555
 2464poe     o212281   0.698   3.582   1.265  0.3616 -0.3569  0.7302
 2464poe    c2312282   0.602   3.577   1.368 -0.3549  0.6523  0.1320
 2464poe    c2312283   0.660   3.554   1.509 -0.1604  0.4206  0.0156
 2464poe     o212284   0.747   3.446   1.482 -0.6098 -0.0648  0.5071
 2464poe    c2312285   0.787   3.393   1.607 -0.3835 -0.3346  0.3208
 2464poe    c2312286   0.780   3.243   1.570 -0.3323 -0.3022  0.1763
 2464poe     o212287   0.860   3.224   1.456 -0.1119  0.4562  0.1980
 2464poe    c3112288   0.905   3.092   1.438 -0.3051  0.3444  0.5248
 2465poe    c3112289   3.974   1.279   4.618 -0.1257  0.1552 -0.2730
 2465poe     o212290   4.041   1.397   4.582  0.4511  0.0543  0.4454
 2465poe    c2312291   4.073   1.373   4.447  0.8800 -0.0343  0.5603
 2465poe    c2312292   4.104   1.506   4.376  0.2393 -0.0805  0.1839
 2465poe     o212293   4.114   1.601   4.480  0.1071  0.0194  0.1067
 2465poe    c2312294   4.081   1.733   4.444 -0.1919 -0.1171 -0.1199
 2465poe    c2312295   4.158   1.836   4.529  0.0505 -0.4425  0.0576
 2465poe     o212296   4.147   1.798   4.664  0.6041  0.5121  0.3804
 2465poe    c2312297   4.190   1.902   4.749  0.0752  0.5010  0.6705
 2465poe    c2312298   4.126   1.876   4.887 -0.3964 -0.6076  0.2538
 2465poe     o212299   4.167   1.756   4.948  0.0072 -0.5932  0.0154
 2465poe    c3112300   4.134   1.759   5.085 -0.7219  0.3957 -0.1680
 2466poe    c3112301   1.412   5.209   3.277  0.1068  0.3092 -0.5365
 2466poe     o212302   1.349   5.307   3.356 -0.0124 -0.2330  0.0503
 2466poe    c2312303   1.374   5.442   3.326 -0.7750 -0.1122 -0.0770
 2466poe    c2312304   1.366   5.519   3.460  0.5351  0.0214 -0.0563
 2466poe     o212305   1.239   5.546   3.514  0.3785 -0.9123  0.0683
 2466poe    c2312306   1.244   5.670   3.582 -0.0918 -0.6009 -0.4520
 2466poe    c2312307   1.109   5.684   3.656  0.4156 -0.1049  0.4039
 2466poe     o212308   1.105   5.606   3.773 -0.1031 -0.1968  0.3278
 2466poe    c2312309   0.982   5.604   3.842 -0.2706 -0.0591  0.0319
 2466poe    c2312310   0.974   5.486   3.940  0.1083 -0.0614  0.0626
 2466poe     o212311   0.962   5.355   3.888  0.1436 -0.0968  0.1431
 2466poe    c3112312   0.939   5.273   4.000 -0.8379 -0.2385 -0.1594
 2467poe    c3112313   3.722   5.099   0.693 -0.2786  0.0462  0.3694
 2467poe     o212314   3.588   5.128   0.726 -0.3774  0.3037 -0.2482
 2467poe    c2312315   3.539   5.034   0.819 -0.1481  0.1423 -0.2922
 2467poe    c2312316   3.393   5.064   0.855 -0.0206  0.0487  0.3091
 2467poe     o212317   3.387   5.204   0.868  0.4830  0.1122 -0.1369
 2467poe    c2312318   3.266   5.252   0.923  0.3759  0.3049 -0.5383
 2467poe    c2312319   3.269   5.404   0.949 -0.2758  0.2082  0.1308
 2467poe     o212320   3.299   5.459   0.822 -0.2795  0.2074  0.1296
 2467poe    c2312321   3.262   5.595   0.818 -0.1190  0.2592  0.3724
 2467poe    c2312322   3.318   5.663   0.691  0.4290 -0.1989  0.3643
 2467poe     o212323   3.454   5.697   0.676  0.3356  0.0501  0.0777
 2467poe    c3112324   3.476   5.790   0.572 -0.3748  0.1916  0.0467
 2468poe    c3112325   1.405   1.279   5.603  0.2524 -0.3501  0.0704
 2468poe     o212326   1.537   1.323   5.579  0.1035  0.0259 -0.0730
 2468poe    c2312327   1.532   1.464   5.586  0.2596  0.0828 -0.9942
 2468poe    c2312328   1.672   1.513   5.627 -0.0549  0.2151 -0.0629
 2468poe     o212329   1.760   1.457   5.533  0.1172  0.2239  0.0908
 2468poe    c2312330   1.898   1.461   5.561  0.1732 -0.1602 -0.1231
 2468poe    c2312331   1.979   1.382   5.455  0.1853 -0.1714 -0.1058
 2468poe     o212332   1.942   1.248   5.480 -0.6315  0.1223  0.3396
 2468poe    c2312333   2.003   1.157   5.390 -0.5322  0.3561  0.1699
 2468poe    c2312334   1.920   1.027   5.381 -0.2136  0.1102  0.7551
 2468poe     o212335   1.819   1.047   5.285  0.3637 -0.1255  0.0869
 2468poe    c3112336   1.746   0.927   5.275  0.0919  0.0289  0.2081
 2469poe    c3112337   3.965   0.308   4.173  0.1432  0.6092 -0.8176
 2469poe     o212338   3.974   0.435   4.235 -0.0558  0.2250  0.0095
 2469poe    c2312339   3.937   0.408   4.368  0.2680 -0.6900 -0.0773
 2469poe    c2312340   3.968   0.518   4.472  0.7654  0.2759 -1.2298
 2469poe     o212341   3.896   0.638   4.455 -0.3368 -0.1376  0.3448
 2469poe    c2312342   3.940   0.734   4.548 -0.5572 -0.6222  0.9583
 2469poe    c2312343   3.871   0.865   4.503  0.2701 -0.5951 -0.2843
 2469poe     o212344   3.918   0.912   4.379 -0.1558 -0.1587 -0.2810
 2469poe    c2312345   3.852   1.028   4.334 -0.0365  0.0353  0.0443
 2469poe    c2312346   3.910   1.074   4.199 -0.1868  0.0220 -0.0262
 2469poe     o212347   3.866   0.983   4.102  0.1461 -0.1300 -0.0371
 2469poe    c3112348   3.922   1.046   3.989 -0.9215  0.1018 -0.4564
 2470poe    c3112349   2.406   3.785   0.080  0.5202 -0.2382 -0.2158
 2470poe     o212350   2.367   3.691  -0.017 -0.0669 -0.1280 -0.0899
 2470poe    c2312351   2.330   3.751  -0.139  0.7004 -0.2038 -0.3614
 2470poe    c2312352   2.281   3.630  -0.220 -0.2415 -0.0030 -0.1042
 2470poe     o212353   2.221   3.531  -0.140 -0.1673 -0.0214 -0.0714
 2470poe    c2312354   2.196   3.408  -0.204 -0.7872  0.1630 -0.1930
 2470poe    c2312355   2.135   3.324  -0.090  0.2446  0.1010  0.3305
 2470poe     o212356   2.188   3.354   0.037  0.7908  0.1881  0.0824
 2470poe    c2312357   2.124   3.283   0.140  0.4426  0.2647 -0.0810
 2470poe    c2312358   2.210   3.250   0.264  0.6381 -0.6746 -0.4613
 2470poe     o212359   2.240   3.355   0.352 -0.2855 -0.4054 -0.4540
 2470poe    c3112360   2.279   3.291   0.472 -0.0296  0.1096 -0.2564
 2471poe    c3112361   3.707   1.479   3.542 -0.6401 -0.6707  0.0779
 2471poe     o212362   3.582   1.533   3.578 -0.3999  0.0148 -0.1089
 2471poe    c2312363   3.575   1.564   3.715 -0.0571  0.3904 -0.1733
 2471poe    c2312364   3.435   1.621   3.742 -0.2968 -0.4921  0.5128
 2471poe     o212365   3.330   1.528   3.745 -0.2338 -0.5777  0.0940
 2471poe    c2312366   3.207   1.592   3.769  0.1443  0.1193  0.1754
 2471poe    c2312367   3.098   1.484   3.764  0.0306  0.2620 -0.6575
 2471poe     o212368   3.112   1.398   3.653 -0.1932 -0.2417 -0.3030
 2471poe    c2312369   3.009   1.302   3.648  0.2973 -0.7725 -0.4053
 2471poe    c2312370   3.038   1.190   3.548  0.3592 -0.3891 -0.8178
 2471poe     o212371   3.175   1.191   3.511  0.4784  0.0035 -0.3682
 2471poe    c3112372   3.198   1.082   3.425  0.2969 -0.7731  0.5473
 2472poe    c3112373   2.013   4.283   2.380  0.5168  0.2322 -0.4106
 2472poe     o212374   2.083   4.402   2.347  0.6393  0.3288  0.1922
 2472poe    c2312375   2.212   4.378   2.295  0.3831  0.3196 -0.4448
 2472poe    c2312376   2.313   4.368   2.411 -0.1254 -0.3147 -0.0479
 2472poe     o212377   2.315   4.488   2.486 -0.0666 -0.4188  0.1164
 2472poe    c2312378   2.379   4.464   2.609  0.2950  0.3693  0.0867
 2472poe    c2312379   2.329   4.558   2.720 -0.0244  0.5064 -0.1714
 2472poe     o212380   2.212   4.501   2.775  0.2635 -0.2091 -0.2900
 2472poe    c2312381   2.186   4.539   2.908 -0.5110 -0.3685 -0.3929
 2472poe    c2312382   2.091   4.443   2.983 -0.5696  0.0521  0.0802
 2472poe     o212383   1.960   4.440   2.930 -0.2830 -0.2802 -0.6358
 2472poe    c3112384   1.926   4.314   2.877 -0.0165 -0.3922 -0.5434
 2473poe    c3112385   2.100   6.322   4.112 -0.0352  0.2324  0.3673
 2473poe     o212386   2.064   6.190   4.143 -0.4190  0.1864 -0.2377
 2473poe    c2312387   2.006   6.111   4.042  0.5535 -0.6050 -0.1979
 2473poe    c2312388   1.951   5.977   4.095 -0.4739 -0.2086 -0.2454
 2473poe     o212389   1.855   5.987   4.199 -0.6263  0.1578 -0.4187
 2473poe    c2312390   1.834   5.864   4.264  0.1690  0.3184  0.1606
 2473poe    c2312391   1.739   5.888   4.383 -0.0171  0.2205  0.0326
 2473poe     o212392   1.785   5.976   4.484  0.1283  0.6229 -0.3825
 2473poe    c2312393   1.677   5.998   4.572  0.0163  0.5558 -0.5004
 2473poe    c2312394   1.712   6.115   4.666  0.8846  0.1986 -0.3707
 2473poe     o212395   1.707   6.235   4.592 -0.2068  0.1289 -0.4266
 2473poe    c3112396   1.620   6.323   4.659 -0.0929 -0.1732  0.1191
 2474poe    c3112397   0.859   3.143   5.231  0.2030  0.1100 -0.4237
 2474poe     o212398   0.815   3.194   5.107  0.2601  0.3970 -0.3267
 2474poe    c2312399   0.728   3.100   5.048  0.4574  0.0758 -0.1111
 2474poe    c2312400   0.690   3.151   4.908  0.0063 -0.4024 -0.1678
 2474poe     o212401   0.799   3.160   4.820 -0.0018 -0.3162 -0.1700
 2474poe    c2312402   0.757   3.202   4.692 -0.4711  0.3733  0.2045
 2474poe    c2312403   0.877   3.213   4.595 -0.5136  0.2328  0.1356
 2474poe     o212404   0.973   3.296   4.655  0.4817 -0.8823  0.1209
 2474poe    c2312405   1.075   3.331   4.564 -0.0123 -0.0700 -0.1313
 2474poe    c2312406   1.204   3.382   4.633  0.3170 -0.5601 -0.3818
 2474poe     o212407   1.241   3.333   4.760 -0.2457  0.1175  0.0536
 2474poe    c3112408   1.366   3.391   4.790 -0.1317  0.1568 -0.4816
 2475poe    c3112409   3.333   1.859   4.515  0.5768  0.1421 -0.0670
 2475poe     o212410   3.249   1.776   4.592  0.2556  0.5294  0.0080
 2475poe    c2312411   3.246   1.803   4.730  0.0581  0.0173  0.1052
 2475poe    c2312412   3.359   1.758   4.824  0.2180  0.0255 -0.0815
 2475poe     o212413   3.347   1.619   4.844  0.1718  0.0750  0.2462
 2475poe    c2312414   3.434   1.563   4.940 -0.1791 -0.5238  0.2183
 2475poe    c2312415   3.384   1.420   4.968 -1.3633 -0.2197 -0.2472
 2475poe     o212416   3.352   1.360   4.844 -0.3876  0.1066 -0.6687
 2475poe    c2312417   3.324   1.222   4.859  0.2134  0.0307 -0.1567
 2475poe    c2312418   3.415   1.122   4.785  0.1523 -0.3526  0.2864
 2475poe     o212419   3.401   1.127   4.645  0.2717 -0.1800  0.2797
 2475poe    c3112420   3.514   1.097   4.567 -0.3436 -0.6007 -0.4668
 2476poe    c3112421   5.881   3.236   3.049 -0.2113 -0.3135  0.1139
 2476poe     o212422   5.944   3.283   3.165  0.0864 -0.1622 -0.1068
 2476poe    c2312423   6.084   3.287   3.159  0.0851 -0.2544 -0.1863
 2476poe    c2312424   6.127   3.311   3.305  0.0718 -0.7157 -0.1025
 2476poe     o212425   6.066   3.218   3.391  0.0855 -0.3933  0.2625
 2476poe    c2312426   6.125   3.237   3.517 -0.0447 -0.0590  0.2737
 2476poe    c2312427   6.076   3.125   3.611 -0.1506 -0.4674 -0.2654
 2476poe     o212428   5.941   3.154   3.638 -0.0689 -0.3505  0.0200
 2476poe    c2312429   5.876   3.031   3.661 -0.4416 -0.2281 -0.3763
 2476poe    c2312430   5.746   3.063   3.737 -0.0766 -0.7242  0.4731
 2476poe     o212431   5.676   3.155   3.656 -0.1113 -0.4584  0.8045
 2476poe    c3112432   5.549   3.194   3.703 -0.1857  0.3063 -0.0007
 2477poe    c3112433   4.722   4.807   5.972  0.1120 -0.0372  0.8924
 2477poe     o212434   4.776   4.937   5.982  0.1990  0.0387 -0.3771
 2477poe    c2312435   4.779   5.009   6.104  0.2039  0.1127 -0.4211
 2477poe    c2312436   4.821   5.157   6.101 -0.5745  0.3626  0.6625
 2477poe     o212437   4.955   5.189   6.074 -0.7606  0.4170 -0.2307
 2477poe    c2312438   4.985   5.326   6.087 -0.0186  0.2451 -0.0797
 2477poe    c2312439   4.990   5.383   6.230 -0.1150 -0.1328  0.0752
 2477poe     o212440   4.862   5.395   6.288 -0.2790  0.0663 -0.3252
 2477poe    c2312441   4.877   5.466   6.409 -0.5013 -0.0732 -0.2158
 2477poe    c2312442   4.739   5.501   6.468 -0.0080  0.5030  0.6148
 2477poe     o212443   4.686   5.397   6.547 -0.3068  0.2214  0.0448
 2477poe    c3112444   4.556   5.423   6.595 -0.3530  0.0425  0.0175
 2478poe    c3112445   2.116   6.963   4.715 -0.1804  0.2063 -0.7308
 2478poe     o212446   2.100   7.103   4.708 -0.6133  0.2157  0.2586
 2478poe    c2312447   2.226   7.166   4.712 -0.3855 -0.2654  0.7840
 2478poe    c2312448   2.202   7.298   4.787  0.6574  0.2315  0.2631
 2478poe     o212449   2.099   7.374   4.728  0.5568  0.0877  0.2555
 2478poe    c2312450   2.094   7.493   4.804 -0.5698 -0.1425  0.5670
 2478poe    c2312451   1.982   7.501   4.909 -0.2768 -0.1088  0.8771
 2478poe     o212452   2.002   7.431   5.031 -0.4386 -0.1480  0.8817
 2478poe    c2312453   1.884   7.361   5.061 -0.5794 -0.0263  0.6208
 2478poe    c2312454   1.899   7.207   5.065  0.4303  0.0560  0.2541
 2478poe     o212455   2.015   7.177   5.139  0.6624  0.1511 -0.0684
 2478poe    c3112456   2.037   7.038   5.151 -0.2021  0.0074 -0.1186
 2479poe    c3112457   6.404   4.772   4.755 -0.2870  0.2341 -0.0433
 2479poe     o212458   6.288   4.691   4.760 -0.1664  0.0394 -0.3579
 2479poe    c2312459   6.258   4.639   4.888 -0.1626  0.5404 -0.1496
 2479poe    c2312460   6.117   4.676   4.937 -0.1171 -0.0440  0.4298
 2479poe     o212461   6.025   4.575   4.901  0.3269 -0.3560  0.1697
 2479poe    c2312462   5.923   4.555   4.997 -0.1210  0.2775 -0.1708
 2479poe    c2312463   5.790   4.525   4.925 -0.1749 -0.3127  0.1690
 2479poe     o212464   5.807   4.416   4.838  0.1511  0.1212 -0.3221
 2479poe    c2312465   5.689   4.380   4.769 -0.3289  0.5986  0.2468
 2479poe    c2312466   5.731   4.342   4.626  0.4143  0.4318  0.5073
 2479poe     o212467   5.794   4.449   4.560 -0.0970  0.4119 -0.0201
 2479poe    c3112468   5.749   4.473   4.429  0.2686  0.0028 -0.2232
 2480poe    c3112469   2.209   2.821   2.394 -0.2945 -0.2237  0.1653
 2480poe     o212470   2.314   2.771   2.313 -0.5767 -0.1671 -0.2366
 2480poe    c2312471   2.278   2.736   2.181 -0.3289  0.0789 -0.3697
 2480poe    c2312472   2.384   2.648   2.113 -0.2257  0.0012 -0.1097
 2480poe     o212473   2.395   2.514   2.155 -0.2441  0.1098  0.2436
 2480poe    c2312474   2.524   2.484   2.206 -0.0769  0.0394 -0.2186
 2480poe    c2312475   2.556   2.335   2.222 -0.3144  0.0281  0.1581
 2480poe     o212476   2.508   2.262   2.333  0.4448 -0.2461  0.3143
 2480poe    c2312477   2.569   2.259   2.460  0.0129 -0.3015  0.5228
 2480poe    c2312478   2.706   2.188   2.471  0.2319  0.1411  0.6766
 2480poe     o212479   2.812   2.254   2.406 -0.0295  0.0747  0.1809
 2480poe    c3112480   2.936   2.220   2.463  0.1808 -0.4032 -0.5475
 2481poe    c3112481   6.239   0.957   1.554  0.3686 -0.4436  0.5639
 2481poe     o212482   6.257   1.096   1.544 -0.3017 -0.3717  0.2645
 2481poe    c2312483   6.377   1.108   1.470 -0.4050  0.0608  0.1667
 2481poe    c2312484   6.443   1.247   1.478  0.0103 -0.1543  0.5003
 2481poe     o212485   6.367   1.354   1.425  0.2996 -0.1757  0.0406
 2481poe    c2312486   6.461   1.446   1.372  0.1315  0.5973  1.0658
 2481poe    c2312487   6.404   1.573   1.307  0.3735  0.1725  0.0160
 2481poe     o212488   6.325   1.659   1.386  0.6057  0.2646  0.1485
 2481poe    c2312489   6.320   1.785   1.323 -0.1205  0.3319  0.3373
 2481poe    c2312490   6.195   1.854   1.381  0.1122  0.4862  0.6622
 2481poe     o212491   6.085   1.781   1.330  0.4727  0.1076  0.4222
 2481poe    c3112492   5.960   1.820   1.381  0.4262 -0.2810  0.6042
 2482poe    c3112493   2.302   6.056   5.794 -0.1900  0.6895 -0.0592
 2482poe     o212494   2.271   5.947   5.879  0.0754  0.1894 -0.6007
 2482poe    c2312495   2.157   5.885   5.823 -0.2359 -0.1195  0.3664
 2482poe    c2312496   2.055   5.834   5.926 -0.0826  0.0689  0.6121
 2482poe     o212497   2.100   5.737   6.018  0.2782  0.2031  0.5777
 2482poe    c2312498   2.011   5.628   6.018  0.3064  0.1781 -0.1883
 2482poe    c2312499   2.057   5.515   6.112 -0.3821  0.2464  0.2414
 2482poe     o212500   2.180   5.452   6.082 -0.3924  0.0816  0.5428
 2482poe    c2312501   2.213   5.356   6.180 -0.5750  0.2762  0.7963
 2482poe    c2312502   2.333   5.282   6.117 -0.7942  0.7154 -0.1666
 2482poe     o212503   2.457   5.347   6.129 -0.1094 -0.6781  0.5064
 2482poe    c3112504   2.573   5.273   6.098  0.0586  0.1089 -0.8043
 2483poe    c3112505   4.065   2.106   0.399 -1.1974  0.0734  0.7258
 2483poe     o212506   4.101   2.235   0.354 -0.3694 -0.3920  0.0245
 2483poe    c2312507   4.017   2.336   0.405 -0.1916 -0.2209 -0.0182
 2483poe    c2312508   3.995   2.455   0.310  0.5845  0.1493  0.2574
 2483poe     o212509   4.122   2.499   0.269  0.2227  0.3998 -0.6208
 2483poe    c2312510   4.166   2.606   0.350  0.2431 -0.3655  0.4075
 2483poe    c2312511   4.320   2.601   0.341  0.2678  0.3188  0.3487
 2483poe     o212512   4.360   2.566   0.210 -0.8320 -0.0298  0.0960
 2483poe    c2312513   4.500   2.578   0.199 -0.8458  0.1299  0.0891
 2483poe    c2312514   4.526   2.597   0.049  0.7638 -0.9363  0.2076
 2483poe     o212515   4.453   2.508  -0.033  0.3110 -0.2091 -0.1981
 2483poe    c3112516   4.501   2.514  -0.165  0.4342 -0.0728 -0.1483
 2484poe    c3112517   6.930   1.043   5.144  0.1789  0.1466 -0.2001
 2484poe     o212518   7.031   1.110   5.214  0.3949 -0.0001 -0.3703
 2484poe    c2312519   7.155   1.043   5.222  0.0818 -0.4596  0.8015
 2484poe    c2312520   7.241   1.131   5.316  0.9987  0.3017 -0.7156
 2484poe     o212521   7.210   1.258   5.264 -0.0853  0.2471 -0.2307
 2484poe    c2312522   7.304   1.357   5.297  0.3373 -0.0810 -0.4416
 2484poe    c2312523   7.297   1.444   5.170 -0.2963  0.2499 -0.1884
 2484poe     o212524   7.167   1.475   5.126 -0.5475 -0.4697  0.0285
 2484poe    c2312525   7.153   1.593   5.049 -0.1232 -0.1193  0.4843
 2484poe    c2312526   7.009   1.614   4.999 -0.1583 -0.2345  0.5365
 2484poe     o212527   6.970   1.530   4.893  0.4776  0.0401  0.0785
 2484poe    c3112528   6.984   1.591   4.767  0.1598  0.1281  0.0839
 2485poe    c3112529   6.255   6.182   0.651  0.4787 -0.5642 -0.2236
 2485poe     o212530   6.209   6.196   0.784  0.3232 -0.2508 -0.3076
 2485poe    c2312531   6.258   6.310   0.851  0.2213 -0.5370  0.2606
 2485poe    c2312532   6.191   6.331   0.987 -0.6107 -0.4106 -0.1640
 2485poe     o212533   6.216   6.211   1.057  0.2165 -0.3205 -0.3066
 2485poe    c2312534   6.145   6.224   1.178  0.2939 -0.4187 -0.2502
 2485poe    c2312535   6.137   6.086   1.247  0.0737 -0.0779  0.4085
 2485poe     o212536   6.105   6.001   1.140  0.4620 -0.1806  0.3732
 2485poe    c2312537   6.049   5.874   1.165  0.4999 -0.1919  0.4008
 2485poe    c2312538   5.897   5.890   1.185  0.4371  0.2379 -0.3801
 2485poe     o212539   5.848   5.931   1.060  0.0254  0.7288 -0.0633
 2485poe    c3112540   5.719   5.880   1.032 -0.0689  0.7037  0.4053
 2486poe    c3112541   5.639   2.671   5.164  0.2528  0.0597  0.0610
 2486poe     o212542   5.767   2.619   5.191  0.5306  0.6375 -0.1240
 2486poe    c2312543   5.828   2.605   5.064 -0.3283 -0.5011 -0.4255
 2486poe    c2312544   5.953   2.515   5.063  0.1317  0.1101  0.6918
 2486poe     o212545   5.916   2.385   5.102 -0.1387 -0.0020  0.0723
 2486poe    c2312546   6.024   2.316   5.160 -0.2011  0.1088  0.3232
 2486poe    c2312547   5.982   2.168   5.169 -0.4672  0.1192 -0.6792
 2486poe     o212548   5.876   2.151   5.260  0.2278 -0.0487  0.1086
 2486poe    c2312549   5.894   2.029   5.328  0.4187  0.2811  0.6541
 2486poe    c2312550   5.813   1.911   5.271  0.7308  0.1992  0.3800
 2486poe     o212551   5.852   1.869   5.142  0.1895  0.3862  0.1561
 2486poe    c3112552   5.929   1.752   5.136  0.1673  0.3649  0.2808
 2487poe    c3112553   6.182   5.116   4.274 -0.3793  0.6474  0.5773
 2487poe     o212554   6.198   5.182   4.151  0.1342 -0.0484  0.2655
 2487poe    c2312555   6.076   5.203   4.083  0.2200 -0.4560 -0.0246
 2487poe    c2312556   6.086   5.268   3.944 -0.3168  0.3728  0.3134
 2487poe     o212557   6.170   5.381   3.950 -0.1157  0.2561 -0.3040
 2487poe    c2312558   6.152   5.460   3.834 -0.4327  0.2516 -0.2574
 2487poe    c2312559   6.251   5.576   3.813  0.0128 -0.1423 -0.3335
 2487poe     o212560   6.239   5.660   3.925  0.3833 -0.2857 -0.1833
 2487poe    c2312561   6.320   5.775   3.925 -0.0797  0.0464 -0.1857
 2487poe    c2312562   6.286   5.865   4.045 -0.0823  0.1582 -0.2700
 2487poe     o212563   6.332   5.807   4.165 -0.0155  0.6763 -0.0442
 2487poe    c3112564   6.269   5.871   4.274 -0.1847  0.5161 -0.0478
 2488poe    c3112565   5.150   0.912   3.152  0.9752  0.4637 -0.3855
 2488poe     o212566   5.193   0.785   3.108  0.1688  0.0470 -0.0007
 2488poe    c2312567   5.171   0.777   2.969 -0.0976  0.2542  0.0289
 2488poe    c2312568   5.269   0.688   2.891 -0.0331  0.3208  0.0331
 2488poe     o212569   5.222   0.556   2.873  0.6989  0.0478  0.0999
 2488poe    c2312570   5.314   0.472   2.807  0.4549 -0.4121  0.3420
 2488poe    c2312571   5.254   0.341   2.752 -0.5129  0.0123  0.3644
 2488poe     o212572   5.184   0.260   2.843 -0.1732 -0.3900  0.2728
 2488poe    c2312573   5.147   0.131   2.799  0.0019 -0.4345  0.2572
 2488poe    c2312574   5.074   0.056   2.913  0.0019 -0.0577  0.5073
 2488poe     o212575   4.956   0.127   2.941  0.1140  0.3274  0.0241
 2488poe    c3112576   4.872   0.047   3.020  0.1463  0.0755 -0.1979
 2489poe    c3112577   3.254   1.065   1.141  0.0417  0.3955  0.2931
 2489poe     o212578   3.329   1.182   1.117  0.1622  0.2715  0.0540
 2489poe    c2312579   3.243   1.280   1.063 -0.4128 -0.1880  0.1247
 2489poe    c2312580   3.319   1.389   0.985  0.3512 -0.4330  0.5200
 2489poe     o212581   3.370   1.348   0.861  0.1395  0.6327  0.0733
 2489poe    c2312582   3.501   1.398   0.842  0.3348  0.0890 -0.0500
 2489poe    c2312583   3.584   1.329   0.733 -0.2405 -0.5201 -0.1063
 2489poe     o212584   3.605   1.191   0.756 -0.0008 -0.4358  0.1930
 2489poe    c2312585   3.641   1.137   0.630  0.3332 -0.0885  0.1371
 2489poe    c2312586   3.677   0.988   0.622 -0.1683 -0.1949 -0.1849
 2489poe     o212587   3.577   0.904   0.675  0.1043 -0.5269 -0.1882
 2489poe    c3112588   3.636   0.776   0.679 -0.2536 -0.6863  0.0572
 2490poe    c3112589   6.083   2.261   5.515  0.4319  0.4857 -0.0086
 2490poe     o212590   6.015   2.381   5.489 -0.0900  0.2552  0.2937
 2490poe    c2312591   6.105   2.489   5.494  0.0293  0.1758 -0.0848
 2490poe    c2312592   6.027   2.613   5.447  0.0362 -0.0177 -0.6187
 2490poe     o212593   5.909   2.613   5.525  0.5234  0.5160  0.1401
 2490poe    c2312594   5.824   2.720   5.491  0.1906  0.2278  0.0584
 2490poe    c2312595   5.705   2.700   5.587  0.0196  0.2555 -0.1471
 2490poe     o212596   5.652   2.570   5.588  0.0363  0.2495  0.7184
 2490poe    c2312597   5.530   2.562   5.659 -0.5352  0.0510 -0.2665
 2490poe    c2312598   5.455   2.429   5.674  0.0889 -0.2711  0.0560
 2490poe     o212599   5.540   2.342   5.745  0.3419 -0.1107 -0.0492
 2490poe    c3112600   5.477   2.253   5.835  0.4803  0.1718  0.3275
 2491poe    c3112601   5.846   1.346   3.852  0.3238 -0.9781  0.6100
 2491poe     o212602   5.936   1.420   3.772  0.2365 -0.3003  1.1220
 2491poe    c2312603   5.895   1.555   3.778  0.3678 -0.2002 -0.0247
 2491poe    c2312604   5.969   1.641   3.673  0.1041 -0.0227 -0.0642
 2491poe     o212605   6.103   1.651   3.715  0.1683  0.4044 -0.3667
 2491poe    c2312606   6.181   1.720   3.620 -0.0139  0.2568 -0.6249
 2491poe    c2312607   6.330   1.693   3.646 -0.0451  0.0870 -0.6252
 2491poe     o212608   6.376   1.561   3.627  0.2207  0.0230  0.3887
 2491poe    c2312609   6.488   1.550   3.711 -0.0700  0.3756  0.8277
 2491poe    c2312610   6.528   1.404   3.741  0.3290  0.2603 -0.2518
 2491poe     o212611   6.613   1.354   3.640 -0.3531 -0.2432 -0.5873
 2491poe    c3112612   6.653   1.220   3.660 -0.3690 -0.0318  0.9508
 2492poe    c3112613   3.945   7.121   2.740  0.6526  0.9581 -0.1350
 2492poe     o212614   3.811   7.102   2.701  0.7382  0.4410 -0.1901
 2492poe    c2312615   3.729   7.217   2.692  0.3066  0.1854  0.4198
 2492poe    c2312616   3.580   7.181   2.676  0.1984  0.4446  0.8286
 2492poe     o212617   3.545   7.111   2.794  0.0104  0.0730  0.5564
 2492poe    c2312618   3.408   7.125   2.826 -0.0613 -0.1377  0.3422
 2492poe    c2312619   3.369   7.014   2.926 -0.3632 -0.2363  0.1153
 2492poe     o212620   3.330   6.900   2.853  0.1326 -0.2555 -0.1250
 2492poe    c2312621   3.328   6.786   2.936 -0.1088 -0.2844 -0.1693
 2492poe    c2312622   3.285   6.663   2.853  0.0471 -0.1691 -0.4242
 2492poe     o212623   3.381   6.640   2.753  0.1879  0.0950 -0.3529
 2492poe    c3112624   3.419   6.505   2.742 -0.5565 -0.1752  0.2862
 2493poe    c3112625   7.125   0.149   5.972 -0.2362 -0.2133  0.2578
 2493poe     o212626   7.116   0.202   5.842  0.2231 -0.3789  0.1586
 2493poe    c2312627   6.982   0.196   5.798  0.2419  0.6763 -0.0691
 2493poe    c2312628   6.977   0.260   5.658  0.1522  0.4073 -0.1897
 2493poe     o212629   7.014   0.172   5.554 -1.6017 -0.2652 -0.2737
 2493poe    c2312630   7.067   0.244   5.445  0.1648 -0.1217  0.6451
 2493poe    c2312631   7.104   0.147   5.331 -0.1373  0.3114  0.1714
 2493poe     o212632   6.982   0.099   5.278  0.0826 -0.1881  0.1115
 2493poe    c2312633   6.992  -0.017   5.199  0.0256  0.2092 -0.4842
 2493poe    c2312634   6.861  -0.045   5.122 -0.0374  0.2333 -0.3844
 2493poe     o212635   6.772  -0.110   5.210 -0.0251  0.4804 -0.1866
 2493poe    c3112636   6.646  -0.133   5.151 -0.2139  0.2581  0.2946
 2494poe    c3112637   1.197   1.130   2.218 -0.7107  0.3053 -0.1735
 2494poe     o212638   1.217   1.269   2.209  1.0996  0.0823 -0.0236
 2494poe    c2312639   1.279   1.294   2.085  0.4113 -0.1150 -0.4090
 2494poe    c2312640   1.407   1.378   2.093  0.3704 -0.0932  0.0221
 2494poe     o212641   1.386   1.508   2.145 -0.1859 -0.3612  0.4775
 2494poe    c2312642   1.516   1.563   2.150 -0.1699 -0.4266  0.7665
 2494poe    c2312643   1.584   1.622   2.275  0.7429 -0.4443  0.2804
 2494poe     o212644   1.610   1.532   2.380  0.1115 -0.5634  0.3368
 2494poe    c2312645   1.676   1.609   2.479  0.5051 -0.1708 -0.2283
 2494poe    c2312646   1.755   1.526   2.582  0.2111 -0.0574  0.0878
 2494poe     o212647   1.851   1.446   2.518  0.1688  0.1083 -0.1857
 2494poe    c3112648   1.931   1.398   2.624 -0.0585  0.1198 -0.0079
 2495poe    c3112649   0.861   2.522   4.888 -0.1910 -0.0388  0.5946
 2495poe     o212650   0.910   2.393   4.859  0.1405  0.2336 -0.0765
 2495poe    c2312651   0.935   2.360   4.724  0.0986 -0.3603  0.0589
 2495poe    c2312652   0.961   2.211   4.695 -0.0682 -0.3292 -0.2434
 2495poe     o212653   1.098   2.195   4.720 -0.1100 -0.5215 -0.1365
 2495poe    c2312654   1.149   2.066   4.696  0.4087 -0.3361 -0.0610
 2495poe    c2312655   1.298   2.071   4.732  0.5742 -0.2765 -0.7320
 2495poe     o212656   1.345   2.026   4.857 -0.0655  0.5301 -0.1925
 2495poe    c2312657   1.312   1.894   4.894 -0.1240  0.5183 -0.2863
 2495poe    c2312658   1.364   1.861   5.035 -0.5065 -0.0449 -0.2753
 2495poe     o212659   1.287   1.898   5.147  0.4852 -0.3262  0.5158
 2495poe    c3112660   1.364   1.863   5.260  0.6862 -0.1291  0.4377
 2496poe    c3112661   4.643   6.930   6.722  1.0324 -0.0363  0.1348
 2496poe     o212662   4.666   6.969   6.589  0.0633 -0.4129 -0.1526
 2496poe    c2312663   4.546   6.991   6.519 -0.1180  0.0264  0.2883
 2496poe    c2312664   4.588   7.054   6.385 -0.2151 -0.0269  0.2326
 2496poe     o212665   4.636   7.186   6.392 -0.3190 -0.0002  0.4340
 2496poe    c2312666   4.535   7.283   6.376 -0.4183 -0.1861 -0.0880
 2496poe    c2312667   4.567   7.421   6.436 -0.2347 -0.2177 -0.1133
 2496poe     o212668   4.690   7.463   6.381 -0.0815 -0.2903  0.1741
 2496poe    c2312669   4.698   7.603   6.399 -0.6268 -0.1561 -0.5896
 2496poe    c2312670   4.832   7.660   6.349 -0.0793 -1.0084 -0.1334
 2496poe     o212671   4.943   7.605   6.415  0.2158 -0.3978 -0.1163
 2496poe    c3112672   5.065   7.647   6.356  0.0187 -0.4697 -0.5779
 2497poe    c3112673   2.547   1.503   2.748  0.3965 -0.3291  0.2764
 2497poe     o212674   2.678   1.468   2.788  0.5344  0.0038  0.1150
 2497poe    c2312675   2.728   1.349   2.732 -0.1863 -0.0362 -0.4547
 2497poe    c2312676   2.654   1.216   2.757 -0.3142  0.2096  0.4985
 2497poe     o212677   2.699   1.136   2.863  0.1271 -0.2385 -0.0223
 2497poe    c2312678   2.821   1.072   2.833  0.1026 -0.3677  0.1466
 2497poe    c2312679   2.882   0.992   2.950  0.4036  0.1250  0.3288
 2497poe     o212680   2.789   0.894   2.992  0.2611 -0.0305 -0.3355
 2497poe    c2312681   2.845   0.842   3.110  0.2514 -0.2906 -0.4451
 2497poe    c2312682   2.750   0.727   3.148 -0.1868  0.3652  0.4769
 2497poe     o212683   2.613   0.760   3.154 -0.1657  0.5433  0.0423
 2497poe    c3112684   2.556   0.729   3.280  0.4636  0.2355  0.2583
 2498poe    c3112685   2.391   3.868   5.549  0.5694  0.1449  0.0092
 2498poe     o212686   2.295   3.854   5.447  0.4402  0.2165  0.1202
 2498poe    c2312687   2.191   3.772   5.495  0.2063  0.2106 -0.3863
 2498poe    c2312688   2.083   3.756   5.387  0.0112 -0.0744 -0.1505
 2498poe     o212689   2.125   3.679   5.277  0.1833 -0.1550 -0.0285
 2498poe    c2312690   2.019   3.642   5.191 -0.3538  0.5663  0.3131
 2498poe    c2312691   1.968   3.754   5.098 -0.7872 -0.3037 -0.5067
 2498poe     o212692   2.072   3.816   5.027 -0.6004 -0.0106  0.0162
 2498poe    c2312693   2.039   3.949   4.991  0.4445  0.2348 -0.0598
 2498poe    c2312694   2.136   4.001   4.883  0.0609  0.9909 -0.0441
 2498poe     o212695   2.265   3.977   4.935 -0.0183  0.5650 -0.0431
 2498poe    c3112696   2.355   4.052   4.858  0.3296  0.2118  0.0150
 2499poe    c3112697   5.629   5.089   6.872  0.2960 -0.1088 -0.7539
 2499poe     o212698   5.745   5.051   6.942 -0.1981 -0.0716  0.1034
 2499poe    c2312699   5.735   4.918   6.988  0.2610 -0.2013 -0.1584
 2499poe    c2312700   5.879   4.883   7.031  0.2233 -0.1412  0.0170
 2499poe     o212701   5.917   4.988   7.118 -0.1750 -0.0010  0.0246
 2499poe    c2312702   6.030   4.946   7.191  0.0242 -0.0735 -0.3230
 2499poe    c2312703   6.060   5.039   7.309 -0.1912 -0.4418  0.0246
 2499poe     o212704   5.948   5.067   7.390 -0.5419  0.1915 -0.6691
 2499poe    c2312705   5.981   5.129   7.512 -0.6765  0.1567 -0.6147
 2499poe    c2312706   5.865   5.188   7.594 -0.2031  0.2309  0.0135
 2499poe     o212707   5.787   5.260   7.500 -0.1709 -0.1332 -0.2955
 2499poe    c3112708   5.720   5.360   7.573  0.3975 -0.2228  0.3631
 2500poe    c3112709   2.735   3.265   3.117  0.0566 -0.8851  0.1649
 2500poe     o212710   2.675   3.226   3.238  0.2728 -0.0428  0.5487
 2500poe    c2312711   2.593   3.334   3.278 -0.5600 -0.3383 -0.3209
 2500poe    c2312712   2.515   3.290   3.403  0.0137  0.0127  0.1652
 2500poe     o212713   2.578   3.314   3.527 -0.2503  0.0049  0.3025
 2500poe    c2312714   2.535   3.220   3.624  0.1013 -0.4824 -0.0056
 2500poe    c2312715   2.611   3.243   3.756  0.0833  0.2348 -0.1143
 2500poe     o212716   2.731   3.169   3.762 -0.4586 -0.6028  0.6745
 2500poe    c2312717   2.814   3.197   3.873 -0.0607 -0.5480  0.3676
 2500poe    c2312718   2.954   3.137   3.856  0.4622  0.6938  0.2369
 2500poe     o212719   3.034   3.200   3.758 -0.1910  0.2247 -0.6110
 2500poe    c3112720   3.149   3.123   3.730  0.3123  0.6267  0.3256
 2501poe    c3112721   6.508   1.465   0.214 -0.0956 -0.2411  0.6155
 2501poe     o212722   6.448   1.387   0.113  0.1332  0.1779  0.1517
 2501poe    c2312723   6.529   1.345   0.005  0.3366 -0.2087  0.4521
 2501poe    c2312724   6.616   1.446  -0.072 -0.1822  0.1995  0.3919
 2501poe     o212725   6.728   1.481   0.007 -0.2341  0.4845  0.3393
 2501poe    c2312726   6.804   1.565  -0.076  0.1274 -0.0932  0.0829
 2501poe    c2312727   6.951   1.584  -0.035  0.2663  0.1520 -0.5198
 2501poe     o212728   7.022   1.463  -0.025  0.3123  0.2218  0.0568
 2501poe    c2312729   7.078   1.419  -0.147 -0.0679 -0.0351 -0.0269
 2501poe    c2312730   7.130   1.274  -0.138 -0.4695 -0.2077 -0.4096
 2501poe     o212731   7.025   1.183  -0.114 -0.6583 -0.1475 -0.9960
 2501poe    c3112732   7.016   1.086  -0.215 -0.7111 -0.2647 -0.8782
 2502poe    c3112733   5.140   1.034   5.053 -0.1489  0.6851 -0.3462
 2502poe     o212734   5.127   0.938   4.951  0.1862  0.0653  0.1876
 2502poe    c2312735   5.221   0.834   4.963  0.2649  0.0478 -0.5020
 2502poe    c2312736   5.152   0.723   5.046 -0.0309  0.5648 -0.0464
 2502poe     o212737   5.014   0.725   5.019 -0.0140  0.1164 -0.1749
 2502poe    c2312738   4.962   0.597   4.995 -0.5777  0.3732 -0.3509
 2502poe    c2312739   4.818   0.590   4.941 -0.7869 -0.3439  0.2776
 2502poe     o212740   4.788   0.653   4.818 -0.5130 -0.1114  0.3292
 2502poe    c2312741   4.680   0.586   4.757 -0.2145  0.0113 -0.3426
 2502poe    c2312742   4.537   0.635   4.785 -0.0589  0.1378  0.2631
 2502poe     o212743   4.507   0.645   4.922  0.1862  0.0752  0.3207
 2502poe    c3112744   4.376   0.601   4.947 -0.1452  0.3078 -0.9541
 2503poe    c3112745   4.486   4.722   3.563  0.0347 -1.0365  0.4119
 2503poe     o212746   4.429   4.733   3.692  0.0865  0.1707  0.3428
 2503poe    c2312747   4.303   4.669   3.698  0.1114  0.0401 -0.4812
 2503poe    c2312748   4.214   4.707   3.817  0.0853  0.1302 -0.5296
 2503poe     o212749   4.199   4.848   3.815 -0.1321  0.1220  0.1722
 2503poe    c2312750   4.146   4.896   3.936 -0.1308  0.1378  0.1665
 2503poe    c2312751   4.178   5.046   3.948 -0.2237  0.1518  0.2364
 2503poe     o212752   4.316   5.067   3.968 -0.2431  0.2215  0.2973
 2503poe    c2312753   4.335   5.205   3.948 -0.5954  0.1972 -0.2382
 2503poe    c2312754   4.462   5.233   3.866 -0.6318  0.8998 -0.0598
 2503poe     o212755   4.452   5.184   3.734 -0.1225  0.4402  0.0695
 2503poe    c3112756   4.565   5.213   3.655 -0.3579 -0.2536 -0.5394
 2504poe    c3112757   1.161   1.847   2.872  0.3608  0.1310  0.2606
 2504poe     o212758   1.120   1.715   2.899 -0.4916  0.3963  0.2722
 2504poe    c2312759   1.194   1.654   3.002 -0.1883  0.3669  0.0378
 2504poe    c2312760   1.136   1.522   3.056  0.0164  0.2760  0.0368
 2504poe     o212761   1.180   1.405   2.989 -0.0425  0.0237  0.4372
 2504poe    c2312762   1.159   1.291   3.069 -0.2673 -0.3980 -0.2152
 2504poe    c2312763   1.230   1.165   3.015 -0.2379 -0.5072  0.0718
 2504poe     o212764   1.370   1.179   3.026 -0.2533 -0.3846  0.1174
 2504poe    c2312765   1.424   1.049   3.032  0.3318 -0.1475  0.0572
 2504poe    c2312766   1.471   1.014   3.174  0.0692  0.5029  0.3077
 2504poe     o212767   1.599   1.072   3.188  0.2422  0.0704  0.5247
 2504poe    c3112768   1.666   1.011   3.296  0.3480  0.6280  0.7776
 2505poe    c3112769   1.385   0.313   6.898  0.4654 -0.3914  0.8427
 2505poe     o212770   1.363   0.178   6.864  0.4140 -0.1554 -0.0871
 2505poe    c2312771   1.407   0.081   6.956  0.0960  0.0186  0.2499
 2505poe    c2312772   1.400  -0.060   6.896  0.3040  0.1370 -0.0550
 2505poe     o212773   1.442  -0.066   6.761  0.0711 -0.4329 -0.1076
 2505poe    c2312774   1.399  -0.192   6.716 -0.2830 -0.1229 -0.6455
 2505poe    c2312775   1.479  -0.254   6.601  0.1394 -0.3221 -0.2447
 2505poe     o212776   1.619  -0.240   6.618  0.2331 -0.2241 -1.0314
 2505poe    c2312777   1.683  -0.362   6.646  0.2825 -0.0782 -0.4998
 2505poe    c2312778   1.806  -0.313   6.725  0.0781 -0.1160 -0.1527
 2505poe     o212779   1.866  -0.206   6.656  0.2955 -0.4603 -0.5004
 2505poe    c3112780   1.998  -0.190   6.701 -0.0666  0.7363  0.1863
 2506poe    c3112781   4.604   5.771   4.384  0.2737 -0.4782 -0.0140
 2506poe     o212782   4.497   5.715   4.457  0.3214  0.0445  0.4663
 2506poe    c2312783   4.385   5.799   4.475 -0.0285 -0.2061 -0.4822
 2506poe    c2312784   4.274   5.734   4.559  0.0728  0.4966  0.2048
 2506poe     o212785   4.301   5.695   4.692  0.1464 -0.3046 -0.0397
 2506poe    c2312786   4.184   5.683   4.770  0.1957  0.1079  0.1003
 2506poe    c2312787   4.203   5.664   4.922  0.0639 -0.3094  0.0662
 2506poe     o212788   4.273   5.544   4.946 -0.2325 -0.4818  0.0678
 2506poe    c2312789   4.278   5.513   5.083  0.4117  0.5375  0.2849
 2506poe    c2312790   4.304   5.365   5.117 -0.0854  0.1727 -0.8906
 2506poe     o212791   4.441   5.341   5.092  0.1613  0.3646  0.2414
 2506poe    c3112792   4.528   5.365   5.200  0.0403  0.6001  0.2885
 2507poe    c3112793   1.400   5.096   5.941  0.1071 -0.2330 -0.6126
 2507poe     o212794   1.273   5.121   5.885 -0.0598  0.3218 -0.0013
 2507poe    c2312795   1.273   5.157   5.749  0.3049  0.2036 -0.0344
 2507poe    c2312796   1.134   5.135   5.687  0.5017 -0.1671 -0.3500
 2507poe     o212797   1.090   5.004   5.712 -0.1284  0.1432  0.1847
 2507poe    c2312798   0.957   4.982   5.668 -0.1070  0.1308  0.1266
 2507poe    c2312799   0.929   4.839   5.716 -0.4294  0.2781  0.3847
 2507poe     o212800   0.919   4.832   5.856  0.4418  0.3162  0.4536
 2507poe    c2312801   0.907   4.700   5.904  0.1680  0.4294  0.6995
 2507poe    c2312802   0.878   4.696   6.055 -0.3786 -0.3693  0.5819
 2507poe     o212803   0.781   4.791   6.093 -0.0354 -0.0268  0.6095
 2507poe    c3112804   0.653   4.733   6.108 -0.0855 -0.1126 -0.1263
 2508poe    c3112805   2.112   0.633   2.717  0.3498 -0.1183 -0.3222
 2508poe     o212806   2.048   0.540   2.633 -0.4014  0.3220 -0.2438
 2508poe    c2312807   1.967   0.608   2.540  0.0464  0.3550 -0.6151
 2508poe    c2312808   1.911   0.495   2.451  0.6129 -0.3170 -0.1283
 2508poe     o212809   1.812   0.419   2.517  0.3966 -0.1119 -0.2155
 2508poe    c2312810   1.777   0.304   2.445  0.5545 -0.1169 -0.2845
 2508poe    c2312811   1.669   0.230   2.526  0.8782 -0.1871  0.0855
 2508poe     o212812   1.738   0.170   2.633  0.9399  0.2076  0.2685
 2508poe    c2312813   1.660   0.065   2.688  0.5849  0.1887 -0.2657
 2508poe    c2312814   1.740  -0.002   2.801 -0.7936  0.1283  0.6899
 2508poe     o212815   1.824   0.099   2.854 -0.0268 -0.0859 -0.0920
 2508poe    c3112816   1.906   0.051   2.958 -0.4526  0.1369  0.3496
 2509poe    c3112817   4.195   4.202   1.491  0.8972 -0.8669 -0.6121
 2509poe     o212818   4.290   4.242   1.587  0.1983  0.1733 -0.3403
 2509poe    c2312819   4.238   4.329   1.685  0.0969 -0.0166 -0.2249
 2509poe    c2312820   4.332   4.325   1.806 -0.3762  0.5992  0.1680
 2509poe     o212821   4.464   4.291   1.769 -0.3274  0.3654  0.5471
 2509poe    c2312822   4.554   4.273   1.876  0.2845  0.1565  0.0029
 2509poe    c2312823   4.692   4.227   1.827  0.4541  0.5664  0.0916
 2509poe     o212824   4.740   4.342   1.762  0.3317  0.5932  0.0483
 2509poe    c2312825   4.862   4.329   1.693  0.1897 -0.0326 -0.0913
 2509poe    c2312826   4.918   4.465   1.644  0.4809 -0.3491 -0.6537
 2509poe     o212827   4.847   4.492   1.526 -0.3641 -0.0739 -0.0944
 2509poe    c3112828   4.866   4.621   1.472  0.1152  0.1800  0.6741
 2510poe    c3112829   1.536   1.745   4.544  0.3366 -0.1977  0.0110
 2510poe     o212830   1.520   1.612   4.498  0.2597 -0.3723  0.5399
 2510poe    c2312831   1.485   1.527   4.605 -0.3471 -0.4880  0.2500
 2510poe    c2312832   1.524   1.380   4.581 -0.4758 -0.4521 -0.1986
 2510poe     o212833   1.478   1.318   4.463 -0.0169  0.0787 -0.6622
 2510poe    c2312834   1.488   1.179   4.484  0.2167  0.2064  0.1106
 2510poe    c2312835   1.412   1.070   4.405  0.4941 -0.0704  0.2254
 2510poe     o212836   1.276   1.069   4.440  0.5398  0.3344  0.4227
 2510poe    c2312837   1.193   1.165   4.378 -0.0269 -0.3079  0.1657
 2510poe    c2312838   1.149   1.128   4.236 -0.0665 -0.0486  0.1096
 2510poe     o212839   1.259   1.144   4.149 -0.4201  0.3127 -0.2722
 2510poe    c3112840   1.216   1.141   4.014 -0.6389 -0.5758 -0.1861
 2511poe    c3112841   5.564   0.573   5.887  0.4998 -0.6725  0.2174
 2511poe     o212842   5.557   0.593   5.748  0.2126 -0.3455  0.2755
 2511poe    c2312843   5.490   0.495   5.671 -0.5345  0.0046  0.4809
 2511poe    c2312844   5.512   0.534   5.523 -0.2515 -0.4310  0.4085
 2511poe     o212845   5.649   0.563   5.506 -0.4087  0.1359  0.1029
 2511poe    c2312846   5.695   0.582   5.374 -0.3727  0.4285  0.1553
 2511poe    c2312847   5.848   0.586   5.390 -0.3790 -0.6139  0.5970
 2511poe     o212848   5.882   0.675   5.494  0.0454 -0.2741  0.1764
 2511poe    c2312849   6.021   0.694   5.511  0.1629 -0.5328 -0.4475
 2511poe    c2312850   6.035   0.771   5.644  0.6114 -0.4160 -0.5629
 2511poe     o212851   6.006   0.694   5.759 -0.6204  0.2666 -0.4035
 2511poe    c3112852   6.003   0.770   5.878  0.1866  0.0321 -0.2279
 2512poe    c3112853   5.872   6.109   0.320 -0.1005 -0.1166 -0.5477
 2512poe     o212854   5.752   6.091   0.248 -0.4706 -0.0089  0.0371
 2512poe    c2312855   5.688   6.207   0.200 -0.7466 -0.1649  0.0287
 2512poe    c2312856   5.572   6.172   0.104 -0.7377  0.0309 -0.0543
 2512poe     o212857   5.627   6.084   0.009 -0.1952  0.0824  0.2064
 2512poe    c2312858   5.526   6.031  -0.074 -0.2714  0.0062  0.3475
 2512poe    c2312859   5.596   5.914  -0.146  0.4118  0.3189  0.4953
 2512poe     o212860   5.653   5.821  -0.057 -0.7000 -0.6059  0.2653
 2512poe    c2312861   5.727   5.721  -0.125 -0.4358 -0.3092  0.1156
 2512poe    c2312862   5.796   5.620  -0.032  0.1291 -0.3064 -0.2954
 2512poe     o212863   5.912   5.682   0.018  0.0871 -0.3705 -0.1163
 2512poe    c3112864   5.978   5.605   0.116  0.9616  0.2776 -0.1804
 2513poe    c3112865   2.081   5.036   5.804  0.3353  0.1913  0.7723
 2513poe     o212866   2.203   5.039   5.734  0.0350 -0.3569  0.2082
 2513poe    c2312867   2.247   4.907   5.714 -0.3128 -0.5575  0.7309
 2513poe    c2312868   2.400   4.912   5.696 -0.3833  0.6227  0.3906
 2513poe     o212869   2.456   4.978   5.585  0.2821  0.1446  0.4380
 2513poe    c2312870   2.582   4.926   5.548  0.1155 -0.1530  0.2848
 2513poe    c2312871   2.645   5.018   5.441  0.4908 -0.1906  0.4723
 2513poe     o212872   2.643   5.147   5.498  0.1269  0.0881 -0.1621
 2513poe    c2312873   2.667   5.241   5.396  0.6829  0.3681  0.2218
 2513poe    c2312874   2.631   5.379   5.451 -0.5375  0.3324 -0.4506
 2513poe     o212875   2.516   5.377   5.534 -0.2556  0.1997 -0.0629
 2513poe    c3112876   2.478   5.509   5.565 -0.2403  0.0992  0.3922
 2514poe    c3112877   2.435   4.284   5.794 -1.0733 -0.2544  0.2031
 2514poe     o212878   2.468   4.216   5.913  0.1043 -0.1555 -0.0525
 2514poe    c2312879   2.360   4.141   5.964  0.1089  0.1485  0.4089
 2514poe    c2312880   2.400   4.064   6.091  0.5997 -0.2445  0.0185
 2514poe     o212881   2.393   4.136   6.213  0.0953 -0.3465  0.0543
 2514poe    c2312882   2.410   4.059   6.330  0.5262  0.5856  0.6155
 2514poe    c2312883   2.289   3.981   6.384  0.1307  0.6404 -0.1698
 2514poe     o212884   2.183   4.071   6.407  0.0581  0.4910  0.0843
 2514poe    c2312885   2.117   4.021   6.521 -0.6452 -0.0077 -0.5317
 2514poe    c2312886   2.002   4.119   6.555 -0.1865  0.3927 -0.1237
 2514poe     o212887   1.929   4.107   6.435  0.4492  0.0643 -0.4881
 2514poe    c3112888   1.806   4.177   6.436  0.3191 -0.1661 -0.3442
 2515poe    c3112889   5.144   2.265   3.710 -0.7252 -0.0636  0.1502
 2515poe     o212890   5.045   2.205   3.790 -0.3840 -1.0913 -0.1783
 2515poe    c2312891   4.923   2.277   3.792  0.4082  0.2953 -0.4342
 2515poe    c2312892   4.819   2.192   3.868 -0.2716  1.0778 -0.4795
 2515poe     o212893   4.829   2.189   4.009  0.0689 -0.2261 -0.5212
 2515poe    c2312894   4.708   2.142   4.063  0.3382 -0.5436 -0.1921
 2515poe    c2312895   4.713   2.134   4.217 -0.5865  0.2489 -0.1122
 2515poe     o212896   4.835   2.073   4.253 -0.5968  0.2535 -0.0704
 2515poe    c2312897   4.868   2.079   4.390 -0.1508 -0.2448 -0.1551
 2515poe    c2312898   4.998   1.997   4.395 -0.1221 -0.2180 -0.4281
 2515poe     o212899   5.079   2.036   4.286 -0.0796  0.2176 -0.2430
 2515poe    c3112900   5.208   1.979   4.285 -0.2594 -0.2145  0.2938
 2516poe    c3112901   5.558   6.921   4.466 -0.2549 -0.1457  0.3411
 2516poe     o212902   5.697   6.929   4.489 -0.1647  0.4419 -0.4007
 2516poe    c2312903   5.736   7.062   4.513  0.1290  0.2996 -0.0837
 2516poe    c2312904   5.888   7.080   4.499  0.1638  0.1576  0.1096
 2516poe     o212905   5.940   7.024   4.617 -0.1950 -0.2289  0.0867
 2516poe    c2312906   6.056   6.952   4.582  0.0409  0.1736  0.0335
 2516poe    c2312907   6.131   6.910   4.709  0.0309 -0.3862 -0.1427
 2516poe     o212908   6.051   6.833   4.795 -0.1791  0.1404  0.1418
 2516poe    c2312909   6.079   6.883   4.924  0.3381  0.0575  0.0671
 2516poe    c2312910   6.019   6.791   5.032  0.0947  0.0105 -0.1054
 2516poe     o212911   5.880   6.789   5.010  0.0811  0.2867 -0.0569
 2516poe    c3112912   5.817   6.727   5.120  0.5283 -0.0082  0.0376
 2517poe    c3112913   4.192   6.570   6.772  0.0260  0.0029  0.2389
 2517poe     o212914   4.094   6.667   6.738 -0.0662 -0.0447  0.3695
 2517poe    c2312915   4.138   6.774   6.819  0.1919  0.2877 -0.2101
 2517poe    c2312916   4.027   6.861   6.882  0.0525 -0.2132  0.2394
 2517poe     o212917   3.960   6.780   6.976  0.3965 -0.2680  0.4427
 2517poe    c2312918   3.847   6.836   7.039  0.1869 -0.1289 -0.0464
 2517poe    c2312919   3.715   6.823   6.960  0.2170  0.4753 -0.2019
 2517poe     o212920   3.659   6.696   6.984 -0.3819  0.7678 -0.0431
 2517poe    c2312921   3.569   6.671   6.879 -0.3139 -0.7923  0.2424
 2517poe    c2312922   3.439   6.602   6.925 -0.3468 -0.3453  0.8338
 2517poe     o212923   3.450   6.466   6.891 -0.1013 -0.2013  0.3332
 2517poe    c3112924   3.349   6.387   6.951 -0.2325  0.0527  0.4459
 2518poe    c3112925   2.738   5.734   1.375  0.0260 -0.2304 -0.3815
 2518poe     o212926   2.613   5.746   1.311 -0.2400  0.1328  0.1980
 2518poe    c2312927   2.531   5.636   1.345  0.5060 -0.3223  0.5408
 2518poe    c2312928   2.446   5.636   1.473 -0.4491 -0.1540 -0.0876
 2518poe     o212929   2.341   5.730   1.482 -0.2034  0.1634 -0.4703
 2518poe    c2312930   2.222   5.693   1.417 -0.3802 -0.4842  0.2053
 2518poe    c2312931   2.132   5.817   1.430 -0.5360 -0.5125 -0.5330
 2518poe     o212932   2.181   5.934   1.368 -0.0599 -0.3690  0.1043
 2518poe    c2312933   2.106   6.048   1.405  0.6148  0.0331  0.2414
 2518poe    c2312934   2.155   6.182   1.347 -0.0426  0.2926  0.2853
 2518poe     o212935   2.280   6.196   1.412  0.5169 -0.3601 -0.6334
 2518poe    c3112936   2.359   6.307   1.374  0.1571 -0.0868 -0.5954
 2519poe    c3112937   1.473   5.963   3.539  0.4837  0.0280 -0.7903
 2519poe     o212938   1.492   6.102   3.528 -0.3216  0.2478  0.3461
 2519poe    c2312939   1.590   6.150   3.617 -0.1936 -0.2618  0.4807
 2519poe    c2312940   1.618   6.301   3.602  0.2621 -0.3339  0.5731
 2519poe     o212941   1.509   6.385   3.634 -0.0607 -0.3521 -0.4335
 2519poe    c2312942   1.567   6.513   3.630 -0.1942 -0.2695  0.1786
 2519poe    c2312943   1.456   6.613   3.593  0.0739  0.0025  0.0956
 2519poe     o212944   1.394   6.589   3.468  0.5104  0.2969 -0.1792
 2519poe    c2312945   1.296   6.685   3.432 -0.0774 -0.2328 -0.0107
 2519poe    c2312946   1.241   6.638   3.296  0.5573 -0.1486 -0.3012
 2519poe     o212947   1.175   6.513   3.291  0.0030  0.1216  0.1722
 2519poe    c3112948   1.040   6.522   3.331 -0.0556  0.1824 -0.0401
 2520poe    c3112949   4.225   1.637   0.452 -0.4829  0.6681  0.5379
 2520poe     o212950   4.180   1.577   0.333  0.4755 -0.3203  0.6529
 2520poe    c2312951   4.260   1.466   0.299 -0.0332 -0.6038  0.3707
 2520poe    c2312952   4.201   1.367   0.197 -0.1637  0.1094 -0.2526
 2520poe     o212953   4.268   1.248   0.163 -0.2734  0.1593 -0.6471
 2520poe    c2312954   4.280   1.146   0.259  0.1146  0.3238 -0.5220
 2520poe    c2312955   4.404   1.058   0.233  0.1822  0.2020  0.2010
 2520poe     o212956   4.364   0.962   0.138  0.3706  0.4161 -0.0979
 2520poe    c2312957   4.482   0.907   0.085  0.6202  0.7959  0.0556
 2520poe    c2312958   4.462   0.775   0.007  0.3130  0.5356  0.5652
 2520poe     o212959   4.384   0.794  -0.109 -0.6545 -0.0632  1.1061
 2520poe    c3112960   4.340   0.672  -0.164  0.2332 -0.1415  0.5425
 2521poe    c3112961   1.093   4.503   1.451  0.5834 -0.2177  0.0672
 2521poe     o212962   1.075   4.538   1.316 -0.3491 -0.4723  0.1195
 2521poe    c2312963   1.145   4.446   1.235  0.6047 -0.4766  0.9354
 2521poe    c2312964   1.074   4.423   1.100  0.5613  0.4970  0.7905
 2521poe     o212965   1.032   4.527   1.015 -0.1704 -0.5168 -0.1054
 2521poe    c2312966   1.006   4.476   0.886 -0.0581  0.0853 -0.3734
 2521poe    c2312967   0.958   4.591   0.796  0.3303  0.3332 -0.2656
 2521poe     o212968   1.008   4.716   0.837  0.5334  0.1246  0.1182
 2521poe    c2312969   0.967   4.828   0.764  0.1186  0.2847  0.5896
 2521poe    c2312970   1.020   4.947   0.846  1.0602  0.1199  0.2371
 2521poe     o212971   1.019   4.913   0.983  0.3893 -0.2394  0.1505
 2521poe    c3112972   1.090   5.020   1.043 -0.2143 -0.1176  0.6503
 2522poe    c3112973   3.984   3.841   0.081  0.2894  0.0634 -0.8395
 2522poe     o212974   4.013   3.979   0.081 -0.3967  0.2200  0.2414
 2522poe    c2312975   4.089   4.015  -0.032  0.1193  0.3863  0.6363
 2522poe    c2312976   4.149   4.157  -0.025  0.4668  0.2743 -0.0300
 2522poe     o212977   4.205   4.178   0.103  0.5818 -0.3495  0.0278
 2522poe    c2312978   4.285   4.294   0.113 -0.0051  0.1188 -0.5798
 2522poe    c2312979   4.349   4.272   0.252 -0.5633 -0.5182 -0.4144
 2522poe     o212980   4.251   4.294   0.351 -0.1192 -0.0030 -0.0804
 2522poe    c2312981   4.308   4.264   0.476  0.5395  0.4849 -0.2560
 2522poe    c2312982   4.213   4.257   0.597 -0.0411  0.0427 -0.7272
 2522poe     o212983   4.122   4.152   0.571 -0.0913 -0.0731 -0.1176
 2522poe    c3112984   4.001   4.156   0.641  0.0901  0.0884  0.1888
 2523poe    c3112985   3.198   3.742   2.995  0.1862  0.5312 -0.4350
 2523poe     o212986   3.071   3.768   2.942  0.0263  0.2260 -0.2078
 2523poe    c2312987   3.030   3.704   2.823 -0.6010  0.2617 -0.0188
 2523poe    c2312988   2.877   3.699   2.823 -0.6163  0.6852  0.5969
 2523poe     o212989   2.827   3.583   2.887 -0.0095 -0.0785 -0.2867
 2523poe    c2312990   2.703   3.539   2.836 -0.3482  0.6586 -0.1129
 2523poe    c2312991   2.699   3.495   2.689  0.1014 -0.0830  0.0947
 2523poe     o212992   2.715   3.593   2.589  0.6132 -0.4178 -0.1577
 2523poe    c2312993   2.729   3.535   2.461  0.2181  0.1855 -0.4772
 2523poe    c2312994   2.880   3.539   2.431  0.2848 -0.4629 -0.2387
 2523poe     o212995   2.929   3.663   2.385  0.3774 -0.5618 -0.4063
 2523poe    c3112996   3.064   3.665   2.343  0.4965 -0.7783 -0.0361
 2524poe    c3112997   4.121   4.780   4.324  0.3752  0.0523 -0.5475
 2524poe     o212998   4.231   4.867   4.305  0.4049  0.0168 -0.5386
 2524poe    c2312999   4.204   5.001   4.340  0.4152 -0.1908  0.2902
 2524poe    c2313000   4.318   5.093   4.293  0.0146 -0.2283 -0.7939
 2524poe     o213001   4.433   5.013   4.306 -0.0116 -0.1200  0.2152
 2524poe    c2313002   4.542   5.102   4.313  0.2242 -0.3608 -0.3059
 2524poe    c2313003   4.680   5.035   4.298  0.7524  0.6131  0.0965
 2524poe     o213004   4.683   4.924   4.385  0.3625  0.5028 -0.0294
 2524poe    c2313005   4.774   4.822   4.351 -0.4611 -0.3131  0.1750
 2524poe    c2313006   4.803   4.752   4.485  0.5149 -0.5732 -0.1654
 2524poe     o213007   4.688   4.692   4.539  0.1417  0.4460  0.1965
 2524poe    c3113008   4.749   4.589   4.615 -0.4120 -0.0593 -0.0397
 2525poe    c3113009   6.977   3.632   2.675 -0.3055 -0.1953  0.2146
 2525poe     o213010   6.929   3.567   2.791 -0.3802 -0.0257  0.2795
 2525poe    c2313011   7.011   3.455   2.816 -0.1279  0.1528  0.2550
 2525poe    c2313012   6.983   3.402   2.958  0.0353 -0.2667  0.1341
 2525poe     o213013   6.842   3.392   2.967  0.0093  0.0340  0.0993
 2525poe    c2313014   6.813   3.315   3.081 -0.2121 -0.1876 -0.1064
 2525poe    c2313015   6.684   3.231   3.077 -0.4392  0.1697 -0.2880
 2525poe     o213016   6.590   3.310   3.007 -0.3529  0.5103 -0.0239
 2525poe    c2313017   6.455   3.269   3.020  0.0247 -0.7927 -0.0616
 2525poe    c2313018   6.410   3.176   2.905 -0.5160 -0.2499 -0.2943
 2525poe     o213019   6.420   3.251   2.786  0.0030  0.0582 -0.0626
 2525poe    c3113020   6.319   3.210   2.696  0.1219  0.7205 -0.5024
 2526poe    c3113021   1.245   0.067   4.717  0.0275  0.7108 -0.1236
 2526poe     o213022   1.146  -0.005   4.647 -0.0690  0.1807  0.5499
 2526poe    c2313023   1.025   0.065   4.666 -0.1723  0.0936  0.2265
 2526poe    c2313024   0.905   0.027   4.578 -0.0542 -0.2602  0.2162
 2526poe     o213025   0.936   0.048   4.442  0.3005 -0.3261  0.2853
 2526poe    c2313026   0.884  -0.047   4.352 -0.4079  0.6199 -0.3177
 2526poe    c2313027   0.951  -0.026   4.215  0.5122  0.6229  0.1269
 2526poe     o213028   1.091  -0.040   4.211  0.4444  0.0373 -0.3494
 2526poe    c2313029   1.137  -0.131   4.114  0.0306 -0.1631 -0.3608
 2526poe    c2313030   1.126  -0.066   3.974  0.0002  0.0849 -0.2441
 2526poe     o213031   1.233   0.022   3.949 -0.0388  0.3474  0.4839
 2526poe    c3113032   1.234   0.048   3.811 -0.2205  0.2437  0.4631
 2527poe    c3113033   1.524   6.815   2.848  0.2151  0.6246 -0.0900
 2527poe     o213034   1.530   6.820   2.707  0.3660  0.2621 -0.0968
 2527poe    c2313035   1.401   6.809   2.653  0.4257 -0.4451 -0.1123
 2527poe    c2313036   1.397   6.895   2.525  0.0763 -0.3661 -0.0511
 2527poe     o213037   1.400   7.036   2.535 -0.6862 -0.3438 -0.0872
 2527poe    c2313038   1.276   7.098   2.558 -0.3681  0.1813  0.2277
 2527poe    c2313039   1.297   7.247   2.525  0.7583 -0.0264 -0.0197
 2527poe     o213040   1.343   7.257   2.392  0.2031  0.2890 -0.1896
 2527poe    c2313041   1.329   7.393   2.356 -0.5280  0.2772  0.0322
 2527poe    c2313042   1.371   7.432   2.213 -0.0760 -0.3020  0.0007
 2527poe     o213043   1.505   7.392   2.196 -0.2174 -0.6678 -0.2419
 2527poe    c3113044   1.537   7.399   2.059  0.0752 -0.0710 -0.1423
 2528poe    c3113045   6.065   4.657   2.239 -0.1727  0.9050  0.4462
 2528poe     o213046   6.093   4.569   2.345 -0.0297  0.6650  0.2102
 2528poe    c2313047   6.079   4.643   2.464 -0.4342  0.5259  0.2513
 2528poe    c2313048   6.170   4.573   2.568  0.3432 -0.1015 -0.8303
 2528poe     o213049   6.155   4.433   2.563 -0.0962 -0.0852 -0.0931
 2528poe    c2313050   6.206   4.371   2.680 -0.1786  0.2394  0.1166
 2528poe    c2313051   6.150   4.228   2.683  0.1339  0.1135  0.0386
 2528poe     o213052   6.186   4.172   2.559 -0.2445 -0.1644  0.0496
 2528poe    c2313053   6.122   4.051   2.527 -0.2722 -0.0460 -0.3441
 2528poe    c2313054   6.191   3.992   2.403 -0.1063 -0.7166  0.0632
 2528poe     o213055   6.173   4.065   2.284 -0.0911  0.0677  0.5345
 2528poe    c3113056   6.217   3.977   2.183 -0.0254  0.6595  0.0412
 2529poe    c3113057   2.246   3.625   6.577  0.1460 -0.1166 -0.0734
 2529poe     o213058   2.345   3.557   6.503  0.5251  0.1984  0.1429
 2529poe    c2313059   2.292   3.478   6.399  0.2915  0.4123  0.0989
 2529poe    c2313060   2.407   3.410   6.323 -0.1176  0.2638 -0.3902
 2529poe     o213061   2.488   3.355   6.424 -0.5782  0.0425 -0.1356
 2529poe    c2313062   2.594   3.279   6.370 -0.1897  0.3139  0.2324
 2529poe    c2313063   2.668   3.219   6.491 -0.1030 -0.0331  0.0072
 2529poe     o213064   2.691   3.334   6.568  0.0757  0.2482 -0.4630
 2529poe    c2313065   2.785   3.318   6.672 -0.1850  0.1344 -0.2451
 2529poe    c2313066   2.723   3.288   6.810 -0.3497  0.2016 -0.3047
 2529poe     o213067   2.642   3.398   6.844 -0.2447  0.0805  0.3547
 2529poe    c3113068   2.657   3.413   6.983 -0.0403  0.9078  0.2510
 2530poe    c3113069   6.685   6.475   2.973 -0.2322  0.1312  0.1719
 2530poe     o213070   6.733   6.607   2.988  0.1266  0.1205 -0.8213
 2530poe    c2313071   6.623   6.693   2.977 -0.3729 -0.2629  0.8567
 2530poe    c2313072   6.669   6.840   2.984  0.6978 -0.5707  0.3950
 2530poe     o213073   6.715   6.881   2.857 -0.2372  0.1039  0.2645
 2530poe    c2313074   6.783   7.005   2.854  0.1322 -0.1132 -0.4518
 2530poe    c2313075   6.761   7.079   2.720  0.3740  0.6470 -0.0783
 2530poe     o213076   6.820   7.015   2.609  0.4201 -0.6342  0.6568
 2530poe    c2313077   6.746   7.033   2.491  0.9332 -0.8467  0.2973
 2530poe    c2313078   6.680   6.915   2.417 -0.3624 -0.0774  0.1832
 2530poe     o213079   6.766   6.839   2.336 -0.4010  0.4923 -0.4008
 2530poe    c3113080   6.709   6.741   2.252  0.3388 -0.7296  0.4795
 2531poe    c3113081   2.410   0.642   0.179  0.2956 -0.5314 -0.1793
 2531poe     o213082   2.533   0.630   0.112  0.2628 -0.2733 -0.2913
 2531poe    c2313083   2.531   0.666  -0.024 -0.1339  0.1150 -0.1823
 2531poe    c2313084   2.668   0.651  -0.093  0.0251  0.1508  0.1228
 2531poe     o213085   2.768   0.740  -0.049  0.1681  0.0376  0.0302
 2531poe    c2313086   2.866   0.747  -0.150  0.1134  0.0986 -0.0200
 2531poe    c2313087   2.984   0.829  -0.095  0.4039  0.0601 -0.5750
 2531poe     o213088   2.923   0.945  -0.041  0.5056 -0.1316 -0.0385
 2531poe    c2313089   2.974   1.069  -0.082 -0.1890  0.2159  0.1361
 2531poe    c2313090   2.877   1.177  -0.029  0.4871  0.7316  0.3477
 2531poe     o213091   2.832   1.170   0.104 -0.3973 -0.5632  0.0097
 2531poe    c3113092   2.936   1.166   0.200 -0.5758  0.3487  0.2546
 2532poe    c3113093   6.306   5.052   1.927 -0.4605 -0.0377 -0.1835
 2532poe     o213094   6.273   5.185   1.893 -0.6377 -0.0410 -0.0235
 2532poe    c2313095   6.139   5.207   1.932 -0.6564 -0.4248  0.1359
 2532poe    c2313096   6.080   5.342   1.886 -0.0478 -0.0643  0.3989
 2532poe     o213097   6.135   5.446   1.963  0.4219  0.0778 -0.1193
 2532poe    c2313098   6.044   5.554   1.960  0.2487 -0.0655  0.0423
 2532poe    c2313099   6.135   5.657   1.891 -0.2238  0.0977 -0.3437
 2532poe     o213100   6.265   5.628   1.937 -0.3281 -0.4972 -0.4109
 2532poe    c2313101   6.354   5.731   1.901 -0.4477 -0.3004 -0.1526
 2532poe    c2313102   6.477   5.718   1.992 -0.1046  0.0944 -0.5525
 2532poe     o213103   6.493   5.584   2.035 -0.5551  0.3069  0.3123
 2532poe    c3113104   6.621   5.561   2.088 -0.4720 -0.5009 -0.2248
 2533poe    c3113105   1.770   7.081   3.479  0.4479  0.2929 -0.3861
 2533poe     o213106   1.818   7.127   3.604  0.2742 -0.0662 -0.1839
 2533poe    c2313107   1.782   7.042   3.710 -0.3223  0.3334 -0.0602
 2533poe    c2313108   1.882   7.070   3.823 -0.4889 -0.0536  0.1871
 2533poe     o213109   1.877   7.201   3.876 -0.4653  0.0096  0.0341
 2533poe    c2313110   2.005   7.224   3.931 -0.3165 -0.2848 -0.1894
 2533poe    c2313111   2.008   7.357   4.008 -0.1230 -0.3816 -0.0274
 2533poe     o213112   1.954   7.458   3.924  0.7540 -0.2334 -0.4221
 2533poe    c2313113   1.877   7.548   4.000 -0.0783 -1.3738  0.1221
 2533poe    c2313114   1.781   7.621   3.904  0.6447 -0.6603 -0.0675
 2533poe     o213115   1.850   7.667   3.790  0.1352 -0.2930 -0.2318
 2533poe    c3113116   1.766   7.696   3.680 -0.3289  0.4331  0.3074
 2534poe    c3113117   5.126   6.572   4.770  0.4702 -0.2746  0.2201
 2534poe     o213118   5.254   6.564   4.712  0.4615 -0.0096  0.1633
 2534poe    c2313119   5.372   6.613   4.772  0.1149  0.5724  0.3754
 2534poe    c2313120   5.455   6.485   4.792  0.4185  0.7410  0.2015
 2534poe     o213121   5.481   6.435   4.663 -0.7794  0.0706  0.2053
 2534poe    c2313122   5.571   6.329   4.688 -0.8110 -0.0299 -0.1010
 2534poe    c2313123   5.611   6.249   4.563  0.1421 -0.1188  0.2550
 2534poe     o213124   5.701   6.314   4.475 -0.1364 -0.0100  0.0485
 2534poe    c2313125   5.799   6.220   4.441 -0.2081 -0.2269  0.4301
 2534poe    c2313126   5.941   6.279   4.440 -0.0880 -0.5080  0.5283
 2534poe     o213127   5.976   6.332   4.566 -0.0517 -0.0398  0.3256
 2534poe    c3113128   6.111   6.373   4.570  0.0272 -0.2568 -0.0756
 2535poe    c3113129   5.944   1.675   5.683  0.2872  0.4055 -0.3328
 2535poe     o213130   5.994   1.760   5.784  0.0137 -0.1762  0.2981
 2535poe    c2313131   6.105   1.694   5.842  0.3060  0.1155  0.0773
 2535poe    c2313132   6.154   1.774   5.964  0.5819 -0.1366  0.1301
 2535poe     o213133   6.062   1.770   6.071  0.1905 -0.2528 -0.2110
 2535poe    c2313134   6.135   1.829   6.176  0.2418 -0.6479 -0.0231
 2535poe    c2313135   6.054   1.849   6.305  0.0651 -0.2998 -0.1871
 2535poe     o213136   6.025   1.722   6.361  0.1119 -0.1831  0.1031
 2535poe    c2313137   5.989   1.722   6.497  0.0903  0.3034  0.1006
 2535poe    c2313138   6.100   1.767   6.594 -0.0810  0.3291  0.2842
 2535poe     o213139   6.203   1.675   6.620 -0.1868  0.1364  0.0292
 2535poe    c3113140   6.318   1.746   6.662  0.3578 -0.6218 -0.1554
 2536poe    c3113141   7.098   0.190   7.044 -0.1852  0.4259 -0.3727
 2536poe     o213142   7.056   0.298   6.963 -0.4042  0.1647 -0.6111
 2536poe    c2313143   7.131   0.418   6.960 -0.1321  0.0072 -0.2695
 2536poe    c2313144   7.273   0.421   6.902  0.3740  0.2012  0.9589
 2536poe     o213145   7.374   0.363   6.982  0.5671  0.0340  0.5982
 2536poe    c2313146   7.481   0.329   6.897 -0.3765  0.0053 -0.6013
 2536poe    c2313147   7.493   0.187   6.840  0.0233 -0.0823 -0.3032
 2536poe     o213148   7.548   0.093   6.929 -0.6359  0.0513  0.2482
 2536poe    c2313149   7.557  -0.027   6.857 -0.5201  0.0959  0.1872
 2536poe    c2313150   7.654  -0.108   6.945 -0.4747 -0.4344 -0.3433
 2536poe     o213151   7.596  -0.145   7.068 -0.2468 -0.2614 -0.1826
 2536poe    c3113152   7.685  -0.208   7.157 -0.1041 -0.4052 -0.4270
 2537poe    c3113153   4.619   5.744   4.793 -0.4601  0.4159  0.2392
 2537poe     o213154   4.700   5.718   4.905 -0.3704 -0.0495  0.0707
 2537poe    c2313155   4.616   5.693   5.016 -0.3380  0.0172  0.1113
 2537poe    c2313156   4.701   5.706   5.143 -0.2865 -0.2870  0.1089
 2537poe     o213157   4.820   5.636   5.116 -0.0618  0.2002 -0.1798
 2537poe    c2313158   4.907   5.645   5.226 -0.1122  0.6600 -0.1790
 2537poe    c2313159   5.005   5.526   5.225 -0.6217  0.2422 -0.7389
 2537poe     o213160   5.120   5.555   5.148  0.0581 -0.2560  0.0804
 2537poe    c2313161   5.214   5.450   5.144 -0.1233 -0.4168  0.0382
 2537poe    c2313162   5.288   5.483   5.013  0.1764  0.1082  0.3352
 2537poe     o213163   5.212   5.508   4.896  0.5841 -0.1938  0.0019
 2537poe    c3113164   5.290   5.523   4.780  0.1711 -0.0930 -0.2656
 2538poe    c3113165   0.295   5.956   2.881  0.2226  0.1818  0.3077
 2538poe     o213166   0.416   5.924   2.816  0.3480  0.1779  0.5439
 2538poe    c2313167   0.532   5.954   2.889  0.4702 -0.0556  0.4467
 2538poe    c2313168   0.617   6.075   2.844 -0.0390  0.0916 -0.1245
 2538poe     o213169   0.708   6.058   2.737  0.5566  0.7009  0.2832
 2538poe    c2313170   0.815   5.969   2.763  0.0235 -0.0193  0.0395
 2538poe    c2313171   0.837   5.899   2.628 -0.1177  0.7648 -0.4030
 2538poe     o213172   0.904   5.993   2.547  0.0781  0.5583 -0.4832
 2538poe    c2313173   0.934   5.924   2.428  0.4491 -0.4137  0.1633
 2538poe    c2313174   1.067   5.986   2.381  0.0455  0.2423 -0.1160
 2538poe     o213175   1.068   6.127   2.373  0.2964  0.2315 -0.2876
 2538poe    c3113176   1.045   6.169   2.240 -0.2283  0.4756 -0.1226
 2539poe    c3113177   3.236   3.264   3.282  0.2552  0.3355 -0.4336
 2539poe     o213178   3.289   3.395   3.291  0.2202  0.3122  0.1052
 2539poe    c2313179   3.351   3.432   3.171 -0.6007  0.3061 -0.3287
 2539poe    c2313180   3.446   3.550   3.201 -0.0574 -0.1950 -0.0650
 2539poe     o213181   3.378   3.668   3.239 -0.1782 -0.4245  0.4374
 2539poe    c2313182   3.457   3.756   3.316 -0.7259  0.2747  0.2050
 2539poe    c2313183   3.388   3.883   3.370 -0.2973  0.7009 -0.2417
 2539poe     o213184   3.288   3.857   3.466  0.5702 -0.1661  0.4533
 2539poe    c2313185   3.279   3.963   3.559  0.5678  0.4760 -0.2636
 2539poe    c2313186   3.154   3.939   3.645  0.7777  0.3817  0.0184
 2539poe     o213187   3.034   3.976   3.580  0.4770 -0.3015  0.1747
 2539poe    c3113188   2.928   3.962   3.671  0.5073 -0.4977  0.1796
 2540poe    c3113189   6.847   2.533   3.464 -0.8013  0.2931  0.2533
 2540poe     o213190   6.928   2.617   3.543  0.1304  0.1917 -0.5782
 2540poe    c2313191   7.064   2.579   3.534  0.1305  0.1898 -0.5716
 2540poe    c2313192   7.143   2.658   3.639  0.0077 -0.1211 -0.2450
 2540poe     o213193   7.090   2.788   3.631 -0.1482 -0.1593  0.1605
 2540poe    c2313194   7.165   2.883   3.703  0.1123 -0.1599 -0.1107
 2540poe    c2313195   7.113   3.024   3.671  0.3720 -0.1443 -0.4721
 2540poe     o213196   6.973   3.011   3.678  0.3486  0.3594  0.0869
 2540poe    c2313197   6.906   3.130   3.712 -0.5495 -0.2621  0.5622
 2540poe    c2313198   6.764   3.141   3.653 -0.2537  0.2839 -0.0649
 2540poe     o213199   6.774   3.124   3.514  0.1141 -0.1351  0.0121
 2540poe    c3113200   6.670   3.185   3.442  0.3245  0.1005 -0.0964
 2541poe    c3113201   2.751   6.152   1.986 -0.5990  0.0067  0.4627
 2541poe     o213202   2.751   6.182   1.848  0.4609  0.5425  0.5718
 2541poe    c2313203   2.647   6.268   1.808  0.2083 -0.2403 -0.5028
 2541poe    c2313204   2.676   6.351   1.682 -0.5860  0.0361 -0.5140
 2541poe     o213205   2.715   6.281   1.566 -0.5389 -0.4131 -0.2290
 2541poe    c2313206   2.785   6.364   1.476 -0.6612 -0.3728 -0.2867
 2541poe    c2313207   2.790   6.302   1.335 -0.1940 -0.5703 -0.1845
 2541poe     o213208   2.824   6.165   1.335  0.1994 -0.4770 -0.5120
 2541poe    c2313209   2.955   6.137   1.291  0.5620 -0.5268  0.5690
 2541poe    c2313210   3.001   5.992   1.313  0.7709 -0.5630 -0.1027
 2541poe     o213211   3.030   5.954   1.445  0.1799 -0.2470  0.1197
 2541poe    c3113212   3.072   5.820   1.456 -0.5750 -0.4216  1.0312
 2542poe    c3113213   3.952   2.360   4.377 -0.2474  0.2927  0.5471
 2542poe     o213214   3.851   2.446   4.328 -0.2458 -0.0979 -0.1579
 2542poe    c2313215   3.903   2.565   4.273  0.0971 -0.5869 -0.9070
 2542poe    c2313216   3.795   2.661   4.220 -0.1629 -0.1105  0.4582
 2542poe     o213217   3.758   2.620   4.091  0.5323  0.7199 -0.0167
 2542poe    c2313218   3.622   2.655   4.074  0.2131 -0.4341  0.0319
 2542poe    c2313219   3.557   2.670   3.936  0.4664 -0.1184 -0.0573
 2542poe     o213220   3.549   2.548   3.866  0.0156 -0.0451 -0.1370
 2542poe    c2313221   3.520   2.568   3.729  0.2703  0.0516 -0.1761
 2542poe    c2313222   3.438   2.453   3.669  0.5635 -0.1854 -0.1276
 2542poe     o213223   3.518   2.338   3.658  0.2313 -0.4852  0.4938
 2542poe    c3113224   3.447   2.223   3.619 -0.2116 -0.1284  0.2407
 2543poe    c3113225   2.239   1.763   5.663 -0.4621 -0.2496  0.5343
 2543poe     o213226   2.325   1.861   5.608 -0.5315 -0.3279  0.2885
 2543poe    c2313227   2.284   1.906   5.481 -0.2227 -0.0389  0.2910
 2543poe    c2313228   2.368   2.021   5.422 -0.3238 -0.2292 -0.2277
 2543poe     o213229   2.439   2.100   5.515 -0.7751 -0.0548 -0.0265
 2543poe    c2313230   2.388   2.230   5.533 -0.0002  0.1763  0.5618
 2543poe    c2313231   2.488   2.308   5.620  0.0706  0.5325  0.1652
 2543poe     o213232   2.508   2.256   5.750  0.7694 -0.4828 -0.3347
 2543poe    c2313233   2.560   2.350   5.842  0.0753 -0.0348 -0.3987
 2543poe    c2313234   2.597   2.281   5.974 -0.5922 -0.2268 -0.3076
 2543poe     o213235   2.494   2.190   6.009 -0.6988  0.0474  0.0989
 2543poe    c3113236   2.501   2.181   6.149  0.6524 -0.1332  0.0362
 2544poe    c3113237   1.503   1.614   1.802  0.0002 -1.0329 -0.5787
 2544poe     o213238   1.426   1.630   1.685  0.0271  0.1651 -0.4431
 2544poe    c2313239   1.374   1.508   1.635 -0.7866  0.3844 -0.1494
 2544poe    c2313240   1.245   1.457   1.702 -0.3639 -0.0519  0.3414
 2544poe     o213241   1.121   1.522   1.683 -0.5142 -0.3421  0.3285
 2544poe    c2313242   1.120   1.652   1.738 -0.7941 -0.3221  0.2780
 2544poe    c2313243   1.023   1.746   1.664  0.1902  0.2966 -0.2490
 2544poe     o213244   1.059   1.792   1.536 -0.3670  0.4399 -0.3559
 2544poe    c2313245   0.933   1.830   1.486 -0.9004 -0.1857  0.4736
 2544poe    c2313246   0.939   1.830   1.332  0.2889 -0.1547  0.5115
 2544poe     o213247   1.038   1.910   1.271  0.1841 -0.3212  0.1186
 2544poe    c3113248   1.007   1.934   1.135  0.1472  0.0050  0.1835
 2545poe    c3113249   4.609   3.298   2.666  0.3334 -0.2723  0.0822
 2545poe     o213250   4.599   3.270   2.804  0.4884 -0.3042  0.0867
 2545poe    c2313251   4.603   3.391   2.877  0.5323 -0.1312 -0.2008
 2545poe    c2313252   4.469   3.438   2.937  0.4724 -0.0575 -0.3934
 2545poe     o213253   4.449   3.361   3.053 -0.0048 -0.0838 -0.4905
 2545poe    c2313254   4.328   3.407   3.109  0.2808 -0.1149  0.1709
 2545poe    c2313255   4.280   3.300   3.209 -0.0697  0.4277  0.5868
 2545poe     o213256   4.356   3.279   3.325  0.4260  0.0543  0.1990
 2545poe    c2313257   4.307   3.190   3.422  0.1387 -0.1657 -0.1480
 2545poe    c2313258   4.388   3.179   3.552  0.4500  0.2874 -0.3048
 2545poe     o213259   4.503   3.099   3.532  0.6357  0.3181  0.5987
 2545poe    c3113260   4.553   3.036   3.648  0.1013 -0.9078  0.1737
 2546poe    c3113261   6.609   3.925   2.768 -0.6576  0.0490  0.2200
 2546poe     o213262   6.665   4.054   2.781  0.7180 -0.5751  0.5801
 2546poe    c2313263   6.707   4.103   2.656 -0.6843  0.2961  0.4303
 2546poe    c2313264   6.759   4.244   2.690  0.1313  0.3952 -1.1147
 2546poe     o213265   6.670   4.308   2.779  0.8902 -0.4461  0.2860
 2546poe    c2313266   6.700   4.443   2.806  0.4325 -0.3266  0.1952
 2546poe    c2313267   6.582   4.506   2.883  0.3015  0.1161 -0.3599
 2546poe     o213268   6.561   4.421   2.994 -0.6611  0.2691 -0.4179
 2546poe    c2313269   6.471   4.474   3.088 -0.6000 -0.9567  0.3500
 2546poe    c2313270   6.319   4.488   3.066 -0.4204  0.1560 -0.2446
 2546poe     o213271   6.272   4.355   3.062  0.2798 -0.0892 -0.4491
 2546poe    c3113272   6.141   4.365   3.113  0.5455  0.1695  0.1955
 2547poe    c3113273   0.665   6.744   0.836 -0.1235  0.0546  0.7393
 2547poe     o213274   0.753   6.647   0.886  0.1816 -0.0079  0.0932
 2547poe    c2313275   0.746   6.523   0.818 -0.1450 -0.0353  0.1720
 2547poe    c2313276   0.861   6.427   0.853  0.5994  0.7933  0.0539
 2547poe     o213277   0.997   6.459   0.837  0.5693  0.9324  0.0727
 2547poe    c2313278   1.076   6.382   0.926  0.0046  0.0457 -0.1754
 2547poe    c2313279   1.110   6.429   1.069 -0.3895  0.1439 -0.1125
 2547poe     o213280   1.212   6.526   1.069  0.1072 -0.3764 -0.1572
 2547poe    c2313281   1.215   6.583   1.198 -0.2861 -0.4653 -0.1078
 2547poe    c2313282   1.337   6.676   1.214 -0.3818 -0.3035 -0.3118
 2547poe     o213283   1.314   6.789   1.133  0.3531  0.2401  0.2344
 2547poe    c3113284   1.432   6.863   1.107  0.7125 -0.4627 -0.1632
 2548poe    c3113285   3.633   3.456   0.368  0.8172 -0.4007 -0.0624
 2548poe     o213286   3.591   3.325   0.337 -0.2358 -0.1796  0.4110
 2548poe    c2313287   3.587   3.306   0.197  0.1209 -0.4956  0.4444
 2548poe    c2313288   3.525   3.167   0.170 -0.6528 -0.0826  0.0754
 2548poe     o213289   3.598   3.067   0.237 -1.0225 -0.2295  0.2568
 2548poe    c2313290   3.617   2.944   0.170 -0.2739  0.0290 -0.0145
 2548poe    c2313291   3.664   2.829   0.260 -0.7762 -0.1363  0.0414
 2548poe     o213292   3.596   2.817   0.383  0.0543  0.1113  0.5292
 2548poe    c2313293   3.604   2.698   0.459 -0.7022 -0.3645 -0.1221
 2548poe    c2313294   3.583   2.720   0.610  0.2382 -0.4642  0.0276
 2548poe     o213295   3.448   2.711   0.651  0.1703  0.1730 -0.0528
 2548poe    c3113296   3.401   2.579   0.636  1.1017 -0.0883 -0.7989
 2549poe    c3113297   2.184   3.460   4.132 -0.2828  0.1455 -0.0436
 2549poe     o213298   2.094   3.367   4.188  0.3121 -0.4147 -0.0034
 2549poe    c2313299   2.086   3.398   4.326  0.3578  0.1769 -0.1293
 2549poe    c2313300   1.973   3.309   4.382  0.2626  0.1510 -0.3595
 2549poe     o213301   1.863   3.332   4.297 -0.4781 -0.1929  0.4912
 2549poe    c2313302   1.733   3.305   4.343 -0.5798  0.0780  0.3613
 2549poe    c2313303   1.631   3.304   4.228 -0.1026 -0.0077 -0.0630
 2549poe     o213304   1.657   3.211   4.126  0.8948  0.7931 -0.5581
 2549poe    c2313305   1.576   3.243   4.015 -0.2912 -0.1558  0.0147
 2549poe    c2313306   1.629   3.188   3.882  0.2910  0.2102  0.0934
 2549poe     o213307   1.756   3.247   3.866  0.2082  0.3627 -0.0041
 2549poe    c3113308   1.821   3.242   3.741 -0.0678  0.5244 -0.1534
 2550poe    c3113309   1.694   4.622   1.430 -0.1221 -0.0909  0.3492
 2550poe     o213310   1.795   4.657   1.337  0.0958 -0.1812  0.5521
 2550poe    c2313311   1.920   4.652   1.402  0.6112  0.0003 -0.4234
 2550poe    c2313312   2.032   4.687   1.301  0.8243 -0.1131 -0.2258
 2550poe     o213313   2.028   4.827   1.284 -0.0006 -0.0784  0.1698
 2550poe    c2313314   2.147   4.881   1.231 -0.0596  0.2551  0.3766
 2550poe    c2313315   2.142   5.029   1.274  0.1718  0.2422  0.4507
 2550poe     o213316   2.149   5.040   1.414  0.2000  0.1157  0.4599
 2550poe    c2313317   2.024   5.084   1.464  0.0824  0.1974  0.0964
 2550poe    c2313318   2.035   5.131   1.610 -0.1668 -0.0883  0.2073
 2550poe     o213319   2.104   5.254   1.604  0.0649 -0.2461 -0.4295
 2550poe    c3113320   2.024   5.370   1.595  0.0176 -0.1971  0.5442
 2551poe    c3113321   4.948   3.849   3.312  0.7455 -0.1936  0.3943
 2551poe     o213322   4.947   3.835   3.172  0.2788 -0.4077  0.4156
 2551poe    c2313323   4.870   3.723   3.135  0.0259  0.0190 -0.3759
 2551poe    c2313324   4.889   3.698   2.985  0.0521 -0.2791 -0.3246
 2551poe     o213325   4.858   3.819   2.919 -0.5080 -0.5456 -0.5540
 2551poe    c2313326   4.907   3.825   2.787  0.3222  0.5413 -0.2080
 2551poe    c2313327   4.843   3.956   2.738 -0.8638 -0.0018 -0.1363
 2551poe     o213328   4.872   4.068   2.819 -0.7024 -0.1205 -0.0302
 2551poe    c2313329   4.848   4.191   2.756 -0.3077 -0.2046 -0.3457
 2551poe    c2313330   4.710   4.255   2.783  0.1471  0.5954  0.1451
 2551poe     o213331   4.685   4.302   2.913  0.3326 -0.0740  0.4267
 2551poe    c3113332   4.547   4.326   2.934  0.2083 -0.2522 -0.1674
 2552poe    c3113333   5.647   4.442   5.331  0.0269  0.1263 -0.0585
 2552poe     o213334   5.750   4.351   5.360 -0.1083  0.1480  0.4901
 2552poe    c2313335   5.875   4.409   5.330 -0.3329  0.3039 -0.1571
 2552poe    c2313336   5.985   4.301   5.334 -0.4874  0.1692  0.6865
 2552poe     o213337   5.990   4.196   5.239  0.6299  0.6274  0.2180
 2552poe    c2313338   6.052   4.080   5.290  0.0580  0.0927 -0.2957
 2552poe    c2313339   6.059   3.970   5.182 -0.1056 -0.5171  0.3099
 2552poe     o213340   5.933   3.913   5.154 -0.4532  0.4132 -0.0437
 2552poe    c2313341   5.936   3.811   5.057  0.4075  0.2860  0.1137
 2552poe    c2313342   5.797   3.749   5.035  0.2504  0.5883  0.2492
 2552poe     o213343   5.691   3.841   5.025 -0.3542 -0.1001  0.2586
 2552poe    c3113344   5.575   3.774   4.981 -0.2009  0.2412 -0.6818
 2553poe    c3113345   2.561   5.753   6.710  0.3890 -0.1543 -0.6269
 2553poe     o213346   2.660   5.832   6.772 -0.2930  0.2191  0.0024
 2553poe    c2313347   2.672   5.774   6.900 -0.4346  0.5112  0.1478
 2553poe    c2313348   2.778   5.854   6.979  0.3658 -0.2350 -0.1538
 2553poe     o213349   2.759   5.993   6.965  0.3701 -0.2354 -0.1653
 2553poe    c2313350   2.867   6.058   7.028  0.0152 -0.1318  0.3481
 2553poe    c2313351   2.873   6.207   6.987 -0.4219 -0.0406  0.6177
 2553poe     o213352   2.842   6.203   6.849 -0.7255  0.1540  0.6799
 2553poe    c2313353   2.901   6.318   6.793 -0.4057 -0.2815  0.1153
 2553poe    c2313354   2.883   6.309   6.641  0.2288 -0.0416  0.0219
 2553poe     o213355   2.922   6.191   6.575 -0.2935 -0.1553 -0.0930
 2553poe    c3113356   3.061   6.181   6.552 -0.2594 -0.4739  0.2466
 2554poe    c3113357   5.158   5.824   7.104  0.2632  0.1467  0.0639
 2554poe     o213358   5.022   5.846   7.073  0.0351 -0.6597  0.4656
 2554poe    c2313359   4.971   5.771   6.965  0.0601  0.6641 -0.4844
 2554poe    c2313360   4.860   5.854   6.897 -0.2222  0.0578 -0.7746
 2554poe     o213361   4.917   5.963   6.826  0.4213  0.1392 -0.1474
 2554poe    c2313362   4.825   6.018   6.735  0.2344 -0.7306 -0.4951
 2554poe    c2313363   4.847   6.168   6.708  0.4911 -0.5124  0.8654
 2554poe     o213364   4.962   6.194   6.631  0.2271  0.0926  0.6686
 2554poe    c2313365   4.965   6.328   6.587  0.7001 -0.0018  0.4040
 2554poe    c2313366   5.103   6.354   6.525  0.1622  0.3941 -0.6469
 2554poe     o213367   5.210   6.339   6.615 -0.2664 -0.5195 -0.2740
 2554poe    c3113368   5.326   6.380   6.546 -0.4596 -0.2192 -0.4181
 2555poe    c3113369   1.621   2.846   2.685 -0.0966 -0.0501 -0.3528
 2555poe     o213370   1.718   2.755   2.730  0.2438  0.5976  0.2447
 2555poe    c2313371   1.658   2.652   2.806  0.2506  0.3444 -0.0900
 2555poe    c2313372   1.737   2.606   2.930 -0.3687  0.0406  0.1955
 2555poe     o213373   1.845   2.529   2.882 -0.9203 -0.5202 -0.1767
 2555poe    c2313374   1.946   2.551   2.978 -0.1251  0.3219 -1.1805
 2555poe    c2313375   2.056   2.444   2.966 -0.0782  0.2434 -0.1936
 2555poe     o213376   2.099   2.448   2.831  0.3542  0.1945 -0.0599
 2555poe    c2313377   2.200   2.355   2.800  0.1052 -0.0440 -0.1547
 2555poe    c2313378   2.242   2.367   2.652 -0.2125  0.1506 -0.2304
 2555poe     o213379   2.130   2.418   2.584 -0.4227 -0.1412 -0.0997
 2555poe    c3113380   2.170   2.419   2.449  0.2359  0.0015  0.0936
 2556poe    c3113381   6.533   4.546   3.436  0.7100 -0.0917 -0.7494
 2556poe     o213382   6.473   4.426   3.392  0.1714 -0.1636  0.1552
 2556poe    c2313383   6.358   4.406   3.471 -0.0276 -0.1336 -0.1252
 2556poe    c2313384   6.354   4.256   3.503  0.0767 -0.1435 -0.1597
 2556poe     o213385   6.372   4.170   3.392 -0.2817 -0.0509 -0.2898
 2556poe    c2313386   6.344   4.034   3.416  0.5352 -0.1209  0.2974
 2556poe    c2313387   6.414   3.950   3.308  0.1254  0.1717 -0.1996
 2556poe     o213388   6.550   3.986   3.295  0.1436 -0.0329 -0.5975
 2556poe    c2313389   6.604   3.893   3.204 -0.2241 -0.4729 -0.3706
 2556poe    c2313390   6.718   3.810   3.266 -0.0972 -0.1116 -0.1113
 2556poe     o213391   6.795   3.759   3.159 -0.1061  0.2676 -0.2992
 2556poe    c3113392   6.892   3.663   3.195 -0.1910  0.2173 -0.2035
 2557poe    c3113393   2.601   1.314   1.501  0.0170  0.0501 -0.5983
 2557poe     o213394   2.495   1.403   1.476  0.2252  0.3459 -0.4359
 2557poe    c2313395   2.494   1.507   1.571 -0.4456 -0.1604  0.1278
 2557poe    c2313396   2.368   1.595   1.587 -0.2963  0.0224  0.3102
 2557poe     o213397   2.341   1.670   1.470 -0.2161 -0.5455 -0.0789
 2557poe    c2313398   2.209   1.650   1.426 -0.1076 -0.1991 -0.5628
 2557poe    c2313399   2.180   1.667   1.276 -0.8246  0.1200 -0.3968
 2557poe     o213400   2.213   1.798   1.235 -0.5967  0.1008 -0.2802
 2557poe    c2313401   2.202   1.794   1.095  0.4910  0.1796 -0.3727
 2557poe    c2313402   2.192   1.938   1.041  0.3890  0.1535 -0.4227
 2557poe     o213403   2.317   2.001   1.055  0.5241 -0.2132  0.0666
 2557poe    c3113404   2.304   2.118   0.976 -0.0360 -0.4061 -0.1326
 2558poe    c3113405   0.281   2.731   5.943 -0.6967  1.0125 -0.1179
 2558poe     o213406   0.412   2.777   5.919 -0.5797  0.1443 -1.1965
 2558poe    c2313407   0.422   2.916   5.938  0.0789 -0.1303  0.6403
 2558poe    c2313408   0.574   2.935   5.953  0.0821  0.4808 -0.1097
 2558poe     o213409   0.623   2.863   5.842 -0.2528  0.2380 -0.1029
 2558poe    c2313410   0.756   2.893   5.808 -0.3715  0.6463 -0.2119
 2558poe    c2313411   0.795   2.843   5.667  0.2361 -0.0139  0.1878
 2558poe     o213412   0.792   2.702   5.668 -0.7586  0.0000  0.1234
 2558poe    c2313413   0.858   2.638   5.562 -0.2403  0.5285  0.1200
 2558poe    c2313414   0.772   2.516   5.522  0.2553  0.1983  0.0508
 2558poe     o213415   0.645   2.548   5.471  0.1394 -0.2497  0.0597
 2558poe    c3113416   0.642   2.528   5.332  0.1145  0.6027 -0.0663
 2559poe    c3113417   4.080   6.837   1.637 -0.5038 -0.3191  0.4567
 2559poe     o213418   4.153   6.759   1.545 -0.4084 -0.2703  0.4910
 2559poe    c2313419   4.079   6.643   1.515  0.4946 -0.7490  0.0638
 2559poe    c2313420   4.098   6.592   1.371 -0.4984 -0.3552 -0.2170
 2559poe     o213421   4.223   6.537   1.335 -0.1774  0.3914 -0.2608
 2559poe    c2313422   4.245   6.505   1.199  0.3842  0.4492 -0.1867
 2559poe    c2313423   4.394   6.527   1.171  0.2987  0.7236 -0.4241
 2559poe     o213424   4.440   6.660   1.180  0.1762  0.7198  0.2538
 2559poe    c2313425   4.561   6.668   1.109  0.0443  0.2691 -0.0280
 2559poe    c2313426   4.592   6.818   1.089 -0.7202  0.4256 -0.0531
 2559poe     o213427   4.574   6.895   1.206 -0.0561 -0.0768  0.3839
 2559poe    c3113428   4.671   6.997   1.210 -0.0490 -0.0839  0.3908
 2560poe    c3113429   6.292   3.751   1.239  0.2733  0.8318  0.2352
 2560poe     o213430   6.166   3.741   1.177  0.4591 -0.4327  0.0243
 2560poe    c2313431   6.168   3.855   1.093  0.4755 -0.3433  0.1461
 2560poe    c2313432   6.057   3.851   0.987  0.2637 -0.1096  0.3588
 2560poe     o213433   5.931   3.863   1.049  0.1165  0.0947  0.0217
 2560poe    c2313434   5.829   3.804   0.971  0.4694  0.5193 -0.7633
 2560poe    c2313435   5.693   3.864   1.010  0.5685  0.1727  0.1450
 2560poe     o213436   5.683   3.842   1.149 -0.2228  0.2978  0.1117
 2560poe    c2313437   5.567   3.904   1.200  0.1569  0.8751  0.2893
 2560poe    c2313438   5.572   3.868   1.349  0.3260 -0.1392  0.0430
 2560poe     o213439   5.710   3.876   1.378  0.3288  0.5555 -0.1658
 2560poe    c3113440   5.738   3.822   1.505  0.6613  0.2321 -0.3752
 2561poe    c3113441   1.688   4.934   5.776  0.4758 -0.0663 -0.0747
 2561poe     o213442   1.563   4.870   5.765  0.4635 -0.0817  0.1424
 2561poe    c2313443   1.542   4.783   5.656 -0.2729  0.2454  0.0187
 2561poe    c2313444   1.399   4.726   5.654 -0.2223  0.1205 -0.0314
 2561poe     o213445   1.380   4.670   5.783 -0.3303  0.4510  0.0971
 2561poe    c2313446   1.252   4.610   5.787  0.0501 -0.4050 -0.2983
 2561poe    c2313447   1.252   4.482   5.873 -0.1017 -0.0959  0.1679
 2561poe     o213448   1.277   4.519   6.006  0.4098  0.3152 -0.0430
 2561poe    c2313449   1.281   4.410   6.095  0.7733  0.2556 -0.1319
 2561poe    c2313450   1.337   4.445   6.234 -0.3888  0.2198  0.3524
 2561poe     o213451   1.438   4.543   6.230 -0.2840  0.0874 -0.2917
 2561poe    c3113452   1.505   4.565   6.352 -0.3350  0.1161 -0.2691
 2562poe    c3113453   4.589   6.885   4.146 -0.0449 -0.3594 -0.3436
 2562poe     o213454   4.593   6.980   4.251 -0.3032 -0.2728 -0.4105
 2562poe    c2313455   4.463   7.031   4.272  0.1800  0.9401 -0.3241
 2562poe    c2313456   4.463   7.076   4.419 -0.5747  0.0957 -0.0625
 2562poe     o213457   4.453   6.985   4.527  0.2383  0.0579 -0.0127
 2562poe    c2313458   4.426   7.062   4.641 -0.0906  0.0992 -0.1179
 2562poe    c2313459   4.388   6.965   4.754  0.0444 -0.0659 -0.2157
 2562poe     o213460   4.505   6.891   4.786 -0.2572 -0.5841 -0.2945
 2562poe    c2313461   4.507   6.811   4.902  0.1130 -0.6042 -0.3157
 2562poe    c2313462   4.646   6.744   4.893  0.3308 -0.2105  0.0640
 2562poe     o213463   4.667   6.667   4.776 -0.3491 -0.0980 -0.1356
 2562poe    c3113464   4.725   6.543   4.809 -0.0671  0.0912  0.0935
 2563poe    c3113465   4.128   6.135   0.145  0.5024  0.0872  0.0875
 2563poe     o213466   4.085   6.155   0.012  0.6803  0.3077  0.0629
 2563poe    c2313467   4.124   6.053  -0.078 -0.3899  0.3816 -0.5018
 2563poe    c2313468   4.062   6.082  -0.215  0.0186  0.0872 -0.7521
 2563poe     o213469   4.069   5.987  -0.319  0.7325  0.0379 -0.6625
 2563poe    c2313470   3.994   6.039  -0.427 -0.5987 -0.0387  0.1982
 2563poe    c2313471   4.022   5.968  -0.561  0.4377 -0.0190  0.3979
 2563poe     o213472   3.969   5.838  -0.574  0.0369  0.1651  0.1681
 2563poe    c2313473   3.979   5.800  -0.709 -0.2183  0.3355  0.1018
 2563poe    c2313474   3.892   5.683  -0.758 -0.4365  0.4291  0.2643
 2563poe     o213475   3.756   5.705  -0.788 -0.2791  0.0256 -0.7969
 2563poe    c3113476   3.698   5.577  -0.803 -0.1456 -0.1066 -0.2080
 2564poe    c3113477   3.111   5.554   2.259  0.4567  0.4573  0.3621
 2564poe     o213478   3.198   5.448   2.293 -0.3707 -0.0206  1.0515
 2564poe    c2313479   3.127   5.341   2.350 -0.4168 -0.6236 -0.0977
 2564poe    c2313480   3.243   5.250   2.395  0.4097  0.4193 -0.0648
 2564poe     o213481   3.352   5.243   2.306  0.3553  0.1490 -0.1129
 2564poe    c2313482   3.459   5.177   2.370  0.2461 -0.6042 -0.7008
 2564poe    c2313483   3.561   5.128   2.265  1.2133 -0.1065 -0.0074
 2564poe     o213484   3.504   5.033   2.177  0.0134  0.3485  0.2567
 2564poe    c2313485   3.609   5.007   2.086 -0.2890 -0.5074  0.1482
 2564poe    c2313486   3.628   4.869   2.020 -0.0143 -0.3024 -0.2050
 2564poe     o213487   3.649   4.767   2.115  0.3170 -0.4867 -0.4758
 2564poe    c3113488   3.706   4.649   2.062  0.5354 -0.4341 -0.3570
 2565poe    c3113489   3.242   5.806   0.229 -0.1607 -0.0929 -0.2391
 2565poe     o213490   3.113   5.759   0.262 -0.2001  0.4516  0.3990
 2565poe    c2313491   3.044   5.714   0.148 -0.0353  0.0806  0.4422
 2565poe    c2313492   2.896   5.674   0.162 -0.0800  0.1687  0.2334
 2565poe     o213493   2.866   5.564   0.246 -0.0147 -0.4451 -0.5407
 2565poe    c2313494   2.728   5.537   0.252 -0.0306 -0.2803 -0.1632
 2565poe    c2313495   2.714   5.426   0.359  0.0446 -0.2671 -0.1394
 2565poe     o213496   2.726   5.485   0.486  0.0855 -0.2874 -0.1341
 2565poe    c2313497   2.734   5.397   0.597  0.0912  0.1303  0.1994
 2565poe    c2313498   2.751   5.477   0.727 -0.2176  0.1185  0.2491
 2565poe     o213499   2.830   5.587   0.687  0.3990 -0.4312 -0.0685
 2565poe    c3113500   2.867   5.670   0.795 -0.3178  0.5048 -0.5273
 2566poe    c3113501   3.092   6.804   4.931 -0.5005 -0.5134 -0.3425
 2566poe     o213502   3.184   6.900   4.884 -1.2217 -0.0253 -0.7829
 2566poe    c2313503   3.170   7.018   4.959  0.2188 -0.0700 -0.4143
 2566poe    c2313504   3.259   7.120   4.887  0.4729 -0.1320 -0.1903
 2566poe     o213505   3.386   7.061   4.864  0.3846 -0.1808 -0.5593
 2566poe    c2313506   3.467   7.143   4.782 -0.1948  0.4813 -0.4854
 2566poe    c2313507   3.599   7.073   4.748 -0.1405  0.3689 -0.0511
 2566poe     o213508   3.570   6.937   4.723  0.4221  0.3324 -0.5437
 2566poe    c2313509   3.684   6.867   4.680  0.3850 -0.3962  0.5104
 2566poe    c2313510   3.668   6.717   4.648  0.1129 -0.1310 -0.6255
 2566poe     o213511   3.588   6.688   4.535 -0.1674  0.0929 -0.4846
 2566poe    c3113512   3.656   6.602   4.446 -0.0481  0.0747 -0.3758
 2567poe    c3113513   1.606   2.243   2.827  0.8431 -0.0753  0.7367
 2567poe     o213514   1.615   2.329   2.716 -0.3010 -0.0429  0.6544
 2567poe    c2313515   1.517   2.298   2.618  0.4409 -0.4155  0.0161
 2567poe    c2313516   1.492   2.409   2.515  0.2273  0.1631  0.6810
 2567poe     o213517   1.613   2.454   2.458 -0.0483 -0.1286 -0.1548
 2567poe    c2313518   1.580   2.484   2.325  0.0927 -0.3326 -0.2364
 2567poe    c2313519   1.687   2.534   2.226 -0.3253  0.1992 -0.4293
 2567poe     o213520   1.798   2.448   2.214 -0.6610 -0.2312 -0.4754
 2567poe    c2313521   1.882   2.500   2.113 -0.0662 -0.3235 -0.0323
 2567poe    c2313522   2.030   2.458   2.104  0.1517  0.1422  1.1407
 2567poe     o213523   2.055   2.320   2.090  0.1505  0.2303  0.2033
 2567poe    c3113524   2.192   2.287   2.085  0.1105  0.0958 -0.0433
 2568poe    c3113525   2.531   4.500   6.594  0.4913 -0.5408 -0.3766
 2568poe     o213526   2.500   4.540   6.463  0.0546 -0.0043 -0.1168
 2568poe    c2313527   2.471   4.428   6.382  0.4615 -0.0882 -0.1479
 2568poe    c2313528   2.452   4.470   6.235  0.2653 -0.8526 -0.3466
 2568poe     o213529   2.567   4.541   6.198 -0.1120 -0.1654 -0.2180
 2568poe    c2313530   2.524   4.626   6.094 -0.0411  0.4360  0.2411
 2568poe    c2313531   2.642   4.720   6.063  0.3433 -0.2601 -0.4305
 2568poe     o213532   2.697   4.798   6.167  0.4914 -0.8880 -0.0386
 2568poe    c2313533   2.770   4.905   6.113  0.0171 -0.2927  0.4726
 2568poe    c2313534   2.853   4.981   6.217  0.1639  0.0151  0.1328
 2568poe     o213535   2.765   5.061   6.292  0.1297  0.2647 -0.1716
 2568poe    c3113536   2.848   5.146   6.369  0.3005 -0.0750  0.0199
 2569poe    c3113537   3.002   6.656   1.716 -0.4453 -0.4024 -0.0667
 2569poe     o213538   2.987   6.743   1.606 -0.5542 -0.2004  0.1080
 2569poe    c2313539   2.972   6.674   1.484 -0.1609 -0.0891 -0.0033
 2569poe    c2313540   3.052   6.732   1.366 -0.7720 -0.3701 -0.5633
 2569poe     o213541   3.029   6.869   1.341 -0.0323 -0.1726 -0.1636
 2569poe    c2313542   3.107   6.918   1.234  0.1733  0.7046  0.3707
 2569poe    c2313543   3.149   7.065   1.251 -0.0959  0.8334 -0.0790
 2569poe     o213544   3.231   7.087   1.363 -0.2367 -0.3514  0.2713
 2569poe    c2313545   3.277   7.219   1.383 -0.2610 -0.2662 -0.2140
 2569poe    c2313546   3.411   7.237   1.310 -0.1633  0.0887  0.0509
 2569poe     o213547   3.524   7.162   1.349 -0.1294  0.1186  0.0108
 2569poe    c3113548   3.630   7.236   1.295 -0.7816  0.8006 -0.3500
 2570poe    c3113549   4.049   6.531   0.619 -0.7598  0.3138 -0.7811
 2570poe     o213550   4.032   6.580   0.488  0.2009  1.0556 -0.6357
 2570poe    c2313551   4.139   6.526   0.414  0.2496 -0.2457  0.3415
 2570poe    c2313552   4.147   6.604   0.281 -0.3377  0.0258  0.4629
 2570poe     o213553   4.139   6.738   0.323  0.5448  0.2311 -0.0103
 2570poe    c2313554   4.174   6.824   0.217 -0.1875  0.4633 -0.0718
 2570poe    c2313555   4.133   6.970   0.241 -0.2509  0.4635 -0.1805
 2570poe     o213556   3.992   6.979   0.238 -0.3378 -0.5304  0.7230
 2570poe    c2313557   3.938   7.105   0.210 -0.4714 -0.6876  0.2676
 2570poe    c2313558   3.789   7.130   0.238 -0.2856  0.6068  0.1958
 2570poe     o213559   3.785   7.130   0.379  0.4932 -0.0691  0.2240
 2570poe    c3113560   3.651   7.146   0.418  0.5186 -0.1328  0.3358
 2571poe    c3113561   3.787   2.977   5.180 -0.1829  0.4934  0.7795
 2571poe     o213562   3.880   3.083   5.194 -0.0611  0.3960  0.7124
 2571poe    c2313563   3.946   3.087   5.318  0.4406  0.4964  0.4416
 2571poe    c2313564   4.007   3.228   5.336  0.8793  0.3595  0.0512
 2571poe     o213565   3.912   3.331   5.348  0.1789 -0.2714  0.0365
 2571poe    c2313566   3.976   3.454   5.374 -0.7444  0.1409  0.4031
 2571poe    c2313567   3.884   3.577   5.359 -0.3167  0.3776 -0.3744
 2571poe     o213568   3.837   3.619   5.233  0.3916  0.0482 -0.7513
 2571poe    c2313569   3.755   3.733   5.241  0.5845  0.1506 -0.1504
 2571poe    c2313570   3.653   3.745   5.126 -0.0759 -0.5611  0.3532
 2571poe     o213571   3.728   3.724   5.008 -0.1775  0.0691  0.1752
 2571poe    c3113572   3.670   3.770   4.888  0.0408 -0.5256 -0.1585
 2572poe    c3113573   2.563   1.882   2.820 -0.2526  0.1390 -0.1657
 2572poe     o213574   2.585   1.945   2.944  0.0848 -0.0313 -0.1362
 2572poe    c2313575   2.470   1.939   3.025  0.1104 -0.6325 -0.1423
 2572poe    c2313576   2.458   2.026   3.151 -0.2822 -0.3277 -0.3896
 2572poe     o213577   2.534   1.981   3.261  0.3678  0.2345 -0.6015
 2572poe    c2313578   2.630   2.070   3.313  0.2019  0.0894 -0.0288
 2572poe    c2313579   2.718   2.005   3.421  0.0090 -0.4070 -0.1684
 2572poe     o213580   2.653   1.942   3.529  0.4853  0.5432  0.6907
 2572poe    c2313581   2.738   1.856   3.601  0.1730 -0.1823  0.2085
 2572poe    c2313582   2.646   1.751   3.665 -0.1567  0.1106  0.2186
 2572poe     o213583   2.587   1.663   3.573 -0.2266  0.3228  0.0596
 2572poe    c3113584   2.514   1.558   3.633  0.4033  0.1353  0.5011
 2573poe    c3113585   4.393   5.982   0.722  0.2245 -0.1626 -0.0332
 2573poe     o213586   4.471   6.099   0.714  0.2766 -0.2180 -0.4021
 2573poe    c2313587   4.382   6.209   0.701  0.6479  0.1609  0.1810
 2573poe    c2313588   4.457   6.343   0.701  0.3528  0.3255  0.3200
 2573poe     o213589   4.540   6.332   0.587  0.3194 -0.0954  0.3357
 2573poe    c2313590   4.645   6.425   0.575 -0.1007  0.3641  0.1444
 2573poe    c2313591   4.766   6.373   0.656  0.0244  0.3202 -0.0696
 2573poe     o213592   4.795   6.236   0.638  0.2492  0.3433  0.1213
 2573poe    c2313593   4.866   6.186   0.749 -0.1586 -0.3203  0.0861
 2573poe    c2313594   4.874   6.034   0.724 -0.0322 -0.2911 -0.0508
 2573poe     o213595   4.742   5.985   0.728 -0.1561  0.0196 -0.2809
 2573poe    c3113596   4.745   5.845   0.711 -0.3583 -0.0925  0.5766
 2574poe    c3113597   5.973   1.271   1.324 -0.5727 -0.3054  0.0233
 2574poe     o213598   5.895   1.377   1.274 -0.2492 -0.4428 -0.7908
 2574poe    c2313599   5.795   1.322   1.192 -0.9790 -0.2110 -0.0644
 2574poe    c2313600   5.712   1.439   1.135 -0.1890  0.0476 -0.7047
 2574poe     o213601   5.792   1.530   1.064  0.2781  0.0577 -0.1713
 2574poe    c2313602   5.707   1.607   0.983  0.2078 -0.2581 -0.3997
 2574poe    c2313603   5.759   1.752   0.979  0.3520 -0.3061 -0.2715
 2574poe     o213604   5.900   1.747   0.987  0.3419 -0.1641 -0.0197
 2574poe    c2313605   5.960   1.869   0.953  0.0978 -0.1019 -0.2315
 2574poe    c2313606   6.081   1.817   0.874  0.0256 -0.3496 -0.1791
 2574poe     o213607   6.135   1.704   0.938 -0.0420 -0.0580  0.3976
 2574poe    c3113608   6.267   1.691   0.890 -0.1792  0.3788 -0.0968
 2575poe    c3113609   3.089   4.453   3.977 -0.3459  0.1344 -0.9241
 2575poe     o213610   2.983   4.360   3.970 -0.3862  0.0845  0.1917
 2575poe    c2313611   2.866   4.437   3.988  0.0045  0.6403  0.4025
 2575poe    c2313612   2.759   4.363   3.906 -0.2684  0.8093  0.6051
 2575poe     o213613   2.732   4.233   3.955 -0.3410  0.4851 -0.2739
 2575poe    c2313614   2.633   4.170   3.877  0.0561  0.1173 -0.4864
 2575poe    c2313615   2.604   4.027   3.925 -0.1554  0.4400  0.3531
 2575poe     o213616   2.559   4.012   4.058 -0.0017  0.3783  0.3997
 2575poe    c2313617   2.523   3.881   4.096 -0.1622  0.4042  0.3401
 2575poe    c2313618   2.467   3.881   4.239  0.1323  0.6416  0.4564
 2575poe     o213619   2.329   3.907   4.232  0.1201  0.4689 -0.0069
 2575poe    c3113620   2.275   3.950   4.356  0.9373  0.9512  0.1895
 2576poe    c3113621   5.335   3.577   7.169 -0.6222 -0.1744  0.0680
 2576poe     o213622   5.367   3.502   7.055  0.3477  0.7893 -0.3101
 2576poe    c2313623   5.490   3.436   7.074 -0.2028 -0.2720 -0.3487
 2576poe    c2313624   5.531   3.370   6.941 -0.2205 -0.2299 -0.3754
 2576poe     o213625   5.414   3.322   6.877 -0.4263 -0.1485 -0.0638
 2576poe    c2313626   5.450   3.244   6.765 -0.2292 -0.0087 -0.0978
 2576poe    c2313627   5.322   3.188   6.701 -0.1419 -0.1181 -0.1778
 2576poe     o213628   5.237   3.296   6.668  0.0601  0.1973  0.3222
 2576poe    c2313629   5.124   3.255   6.593  0.2103  0.1522  0.1212
 2576poe    c2313630   5.091   3.362   6.487  0.2009 -0.1747 -0.2074
 2576poe     o213631   5.175   3.390   6.378  0.1913  0.0597 -0.1550
 2576poe    c3113632   5.125   3.476   6.277  0.0176 -0.2788 -0.3572
 2577poe    c3113633   5.903   0.772   3.707 -0.4724 -0.2588  0.4649
 2577poe     o213634   5.988   0.692   3.786  0.1952 -0.0548 -0.0331
 2577poe    c2313635   6.116   0.738   3.748  0.0219 -0.0013 -0.5536
 2577poe    c2313636   6.215   0.621   3.762  0.1871  0.2318  0.2765
 2577poe     o213637   6.237   0.596   3.899 -0.0963 -0.0720  0.2684
 2577poe    c2313638   6.363   0.540   3.929  0.0947  0.3200  0.2033
 2577poe    c2313639   6.403   0.521   4.076 -0.1102 -0.3181  0.1806
 2577poe     o213640   6.321   0.419   4.128 -0.0700 -0.5542 -0.2206
 2577poe    c2313641   6.273   0.454   4.255 -0.2525  0.2358 -0.5038
 2577poe    c2313642   6.191   0.348   4.332 -0.0751  0.5950  0.1958
 2577poe     o213643   6.068   0.339   4.264  0.1962  0.3847 -0.2739
 2577poe    c3113644   5.985   0.236   4.312  0.0117  0.5645 -0.2072
 2578poe    c3113645   2.529   6.968   0.498  0.0196  0.0085 -0.2463
 2578poe     o213646   2.623   7.060   0.446 -0.1667  0.3989  0.1013
 2578poe    c2313647   2.756   7.012   0.447 -0.3471 -0.1151  0.1383
 2578poe    c2313648   2.835   7.142   0.472 -0.2803 -0.1160 -0.0720
 2578poe     o213649   2.825   7.236   0.367  0.1220 -0.1898 -0.1753
 2578poe    c2313650   2.940   7.317   0.352 -0.1387  0.2934  0.3875
 2578poe    c2313651   2.907   7.434   0.257 -0.2815 -0.3581 -0.3848
 2578poe     o213652   2.783   7.474   0.311 -0.2357 -0.5383 -0.1437
 2578poe    c2313653   2.749   7.607   0.281 -0.4483 -0.4905  0.2982
 2578poe    c2313654   2.715   7.697   0.401  0.0805  0.6214 -0.3729
 2578poe     o213655   2.629   7.623   0.483  0.4122  0.4732 -0.1570
 2578poe    c3113656   2.621   7.678   0.613 -0.4609 -0.2842  0.1258
 2579poe    c3113657   2.884   7.092   4.164  0.5528 -0.4464 -0.4051
 2579poe     o213658   2.744   7.102   4.161  0.5476 -0.6298 -0.6806
 2579poe    c2313659   2.691   6.994   4.086  0.2804 -0.8607 -0.1675
 2579poe    c2313660   2.552   7.041   4.039  0.2229 -0.5704  0.2873
 2579poe     o213661   2.483   7.112   4.140  0.2289 -0.0558 -0.0664
 2579poe    c2313662   2.349   7.126   4.098  0.2543  1.3719  0.2789
 2579poe    c2313663   2.266   7.187   4.212 -0.3472  0.3891  0.3780
 2579poe     o213664   2.328   7.304   4.259 -0.1713  0.2833  0.4113
 2579poe    c2313665   2.257   7.354   4.371 -0.5225 -0.3788  0.4868
 2579poe    c2313666   2.352   7.444   4.452 -0.0741 -0.2948 -0.1222
 2579poe     o213667   2.391   7.561   4.385  0.2583 -0.1516  0.3165
 2579poe    c3113668   2.480   7.649   4.450  0.4349 -0.0869 -0.0096
 2580poe    c3113669   3.002   5.028   3.296 -0.8471  0.0993 -0.4061
 2580poe     o213670   2.866   5.064   3.295 -0.8522  0.0837 -0.2377
 2580poe    c2313671   2.837   5.104   3.163  0.5326  0.4848 -0.4406
 2580poe    c2313672   2.688   5.140   3.144  0.3829 -0.0377 -0.2729
 2580poe     o213673   2.616   5.044   3.218 -0.4254  0.5782 -0.2451
 2580poe    c2313674   2.485   5.037   3.166 -0.1988  0.6167 -0.8363
 2580poe    c2313675   2.401   4.960   3.270  0.1229  0.4321 -0.7095
 2580poe     o213676   2.350   5.056   3.360  0.8030 -0.1131  0.2766
 2580poe    c2313677   2.268   5.014   3.467  0.0284  0.4275 -0.0875
 2580poe    c2313678   2.244   5.105   3.589  0.1434  0.4294 -0.0649
 2580poe     o213679   2.362   5.156   3.646  0.2332  0.1555 -0.0032
 2580poe    c3113680   2.356   5.179   3.785 -0.3760 -0.2388  0.0411
 2581poe    c3113681   4.228   3.405   6.261  0.2462 -0.2197 -0.0931
 2581poe     o213682   4.218   3.527   6.332  0.2379 -0.1288 -0.2482
 2581poe    c2313683   4.264   3.637   6.258  0.8829  0.0453  0.4048
 2581poe    c2313684   4.186   3.758   6.311 -0.0160 -0.2406 -0.2499
 2581poe     o213685   4.172   3.746   6.451  0.0467  0.2520 -0.2007
 2581poe    c2313686   4.146   3.875   6.503 -0.4644  0.0715 -0.0060
 2581poe    c2313687   4.169   3.862   6.655 -0.4580 -0.1146 -0.0220
 2581poe     o213688   4.062   3.786   6.707 -0.1935 -0.1790  0.4346
 2581poe    c2313689   4.080   3.764   6.844 -0.1483  0.2917  0.5075
 2581poe    c2313690   3.985   3.666   6.917  0.5275 -0.4214  0.4487
 2581poe     o213691   4.004   3.529   6.893 -0.1903 -0.3847 -0.3585
 2581poe    c3113692   3.907   3.441   6.947  0.1313 -0.3835  0.2300
 2582poe    c3113693   0.140   5.626   3.507  0.1046 -0.1198  0.0145
 2582poe     o213694   0.251   5.710   3.484 -0.2759  0.3616 -0.0803
 2582poe    c2313695   0.265   5.721   3.345 -0.3633  0.0128 -0.1173
 2582poe    c2313696   0.387   5.813   3.323 -0.0637 -0.2994  0.2330
 2582poe     o213697   0.375   5.950   3.354  0.5045 -0.1940 -0.0058
 2582poe    c2313698   0.369   6.034   3.241  0.0430  0.1639  0.2817
 2582poe    c2313699   0.453   6.161   3.266 -0.5183  0.5506  0.2155
 2582poe     o213700   0.427   6.224   3.390 -0.1026 -0.4403  0.8209
 2582poe    c2313701   0.493   6.348   3.386 -0.2898 -0.3664 -0.2048
 2582poe    c2313702   0.465   6.430   3.514  0.0122 -0.4755 -0.0682
 2582poe     o213703   0.338   6.476   3.555  0.0918 -0.2705 -0.0539
 2582poe    c3113704   0.297   6.584   3.475  0.5524  0.6111  0.8659
 2583poe    c3113705   4.667   6.883   5.828 -0.4133  0.5373  0.1080
 2583poe     o213706   4.717   6.973   5.924 -0.2673  0.3745  0.1872
 2583poe    c2313707   4.678   7.107   5.900  0.3171  0.5782  0.3755
 2583poe    c2313708   4.697   7.208   6.015 -0.0887 -0.1165  1.0595
 2583poe     o213709   4.828   7.209   6.066  0.4473  0.0013 -0.2864
 2583poe    c2313710   4.838   7.301   6.172  0.2023 -0.1155 -0.1618
 2583poe    c2313711   4.983   7.332   6.214  0.1455  0.1151 -0.1365
 2583poe     o213712   5.025   7.203   6.253  0.1932  0.2470  0.2553
 2583poe    c2313713   5.144   7.203   6.329  0.2350  0.1952  0.1891
 2583poe    c2313714   5.165   7.055   6.367 -0.2211  0.0800 -0.0070
 2583poe     o213715   5.134   6.979   6.252 -0.4421 -0.0464  0.1364
 2583poe    c3113716   5.155   6.847   6.298 -0.5415 -0.0025  0.3124
 2584poe    c3113717   5.169   2.809   2.588  0.4404 -0.2868 -0.4794
 2584poe     o213718   5.205   2.741   2.707 -0.1533  0.0863 -0.0844
 2584poe    c2313719   5.126   2.624   2.703 -0.3448  0.1904  0.5275
 2584poe    c2313720   5.096   2.568   2.843 -0.0360  0.1075  0.5600
 2584poe     o213721   5.205   2.491   2.887  0.0572 -0.2610 -0.2898
 2584poe    c2313722   5.169   2.433   3.011  0.3450 -0.1417 -0.1491
 2584poe    c2313723   5.260   2.319   3.059 -0.2152 -0.3367  0.4576
 2584poe     o213724   5.245   2.200   2.985 -0.5908  0.0407 -0.0769
 2584poe    c2313725   5.319   2.186   2.866 -0.7693  0.5391 -0.2458
 2584poe    c2313726   5.247   2.098   2.761  0.1553 -0.2406 -0.2339
 2584poe     o213727   5.206   1.985   2.836  0.4448  0.1619  0.5465
 2584poe    c3113728   5.200   1.877   2.745 -0.4763  0.4760  0.2196
 2585poe    c3113729   6.865   2.521   2.112  0.0974  0.0953  0.1046
 2585poe     o213730   6.747   2.523   2.189  0.2314  0.3526  0.3045
 2585poe    c2313731   6.752   2.462   2.316 -0.3788  0.3683  0.3427
 2585poe    c2313732   6.621   2.475   2.395 -0.0942  0.2215  0.8423
 2585poe     o213733   6.532   2.390   2.326  0.0626  0.5299  0.2570
 2585poe    c2313734   6.407   2.394   2.391 -0.0881 -0.2100  0.0230
 2585poe    c2313735   6.334   2.260   2.369 -0.0835 -0.1484 -0.3606
 2585poe     o213736   6.383   2.147   2.437 -0.1864 -0.2501 -0.4559
 2585poe    c2313737   6.272   2.102   2.513 -0.2687  0.3987 -0.1886
 2585poe    c2313738   6.262   2.109   2.666  0.3479  0.0999 -0.1295
 2585poe     o213739   6.357   2.032   2.736 -0.1890 -0.1269  0.3613
 2585poe    c3113740   6.326   1.895   2.746 -0.2133 -0.1563 -0.0869
 2586poe    c3113741   5.345   6.092   2.654 -0.5615 -0.3261 -0.0500
 2586poe     o213742   5.313   6.202   2.735  0.0907  0.0470 -0.2983
 2586poe    c2313743   5.383   6.315   2.686  0.2809  0.1023  0.0989
 2586poe    c2313744   5.350   6.450   2.752  0.0940 -0.1677  0.5659
 2586poe     o213745   5.226   6.514   2.734  0.0864 -0.2852  0.2030
 2586poe    c2313746   5.228   6.639   2.800 -0.5388 -0.0507 -0.2110
 2586poe    c2313747   5.092   6.711   2.803 -0.6345 -0.2260 -0.3398
 2586poe     o213748   4.990   6.658   2.885 -0.3687 -0.2429 -0.0181
 2586poe    c2313749   4.889   6.751   2.919  0.1187  0.2767  0.0145
 2586poe    c2313750   4.809   6.730   3.049 -0.0915  0.3514 -0.1044
 2586poe     o213751   4.869   6.774   3.168  0.2409  0.4063 -0.2914
 2586poe    c3113752   4.785   6.862   3.238  0.4904  0.1970  0.2793
 2587poe    c3113753   2.877   5.610   5.155 -0.4260 -0.0082 -0.2384
 2587poe     o213754   2.792   5.716   5.116 -0.0323  0.2096 -0.5083
 2587poe    c2313755   2.818   5.819   5.209 -0.4327 -0.1167 -0.0313
 2587poe    c2313756   2.745   5.955   5.208 -0.2214 -0.0037 -0.2575
 2587poe     o213757   2.620   5.929   5.269 -0.1804  0.2419 -0.0638
 2587poe    c2313758   2.570   6.040   5.340  0.6927  0.1126  0.7705
 2587poe    c2313759   2.448   6.004   5.427  0.3985 -0.3724  0.1660
 2587poe     o213760   2.343   5.934   5.363 -0.4677  0.7236  0.3655
 2587poe    c2313761   2.213   5.959   5.411 -0.6047 -0.1389  0.4521
 2587poe    c2313762   2.157   6.100   5.388  0.6141  0.1944 -0.5666
 2587poe     o213763   2.184   6.175   5.504 -0.3311 -0.3672  0.0232
 2587poe    c3113764   2.153   6.312   5.498  0.1750 -0.2874 -1.0160
 2588poe    c3113765   6.688   3.906   4.545 -0.3669  0.5198 -0.6904
 2588poe     o213766   6.606   3.937   4.435 -0.4764 -0.3300 -0.8530
 2588poe    c2313767   6.471   3.962   4.466 -0.0337  0.4697  0.5052
 2588poe    c2313768   6.406   4.016   4.337 -0.3107  0.1061  0.4906
 2588poe     o213769   6.464   4.122   4.263 -0.6620 -0.2136 -0.2509
 2588poe    c2313770   6.423   4.144   4.130 -0.1817 -0.1326 -0.3878
 2588poe    c2313771   6.520   4.225   4.043 -0.2719  0.0772 -0.2943
 2588poe     o213772   6.618   4.126   4.016 -0.1127  0.2142 -0.2210
 2588poe    c2313773   6.672   4.151   3.889  0.3193 -0.3303 -0.1493
 2588poe    c2313774   6.716   4.025   3.813  0.0673 -0.3347 -0.2889
 2588poe     o213775   6.685   4.039   3.676 -0.1813  0.0463 -0.1940
 2588poe    c3113776   6.677   3.915   3.611 -0.7834  0.3511 -0.7176
 2589poe    c3113777   5.178   2.917   0.410  0.7780 -0.4568 -0.2751
 2589poe     o213778   5.158   2.837   0.524  0.0406 -0.1955 -0.2155
 2589poe    c2313779   5.273   2.755   0.533 -0.1521 -0.4425  0.0285
 2589poe    c2313780   5.238   2.631   0.617 -0.3552 -0.4863 -0.1205
 2589poe     o213781   5.214   2.674   0.749 -0.1438 -0.2181 -0.1684
 2589poe    c2313782   5.174   2.567   0.832  0.7405 -0.6314 -0.2627
 2589poe    c2313783   5.130   2.618   0.970  0.5321 -0.2511 -0.4689
 2589poe     o213784   5.038   2.723   0.952  0.3747 -0.2535  0.2674
 2589poe    c2313785   4.975   2.775   1.067 -0.7346 -0.4514 -0.2362
 2589poe    c2313786   4.905   2.903   1.018 -0.4496  0.1008  0.7821
 2589poe     o213787   4.990   3.006   0.971 -0.1965 -0.3421  0.2592
 2589poe    c3113788   4.933   3.134   0.961  0.1076 -0.2434 -0.1983
 2590poe    c3113789   0.396   4.032   5.900 -0.2087 -0.3739  0.6512
 2590poe     o213790   0.448   3.902   5.882  0.0498 -0.1446 -0.3557
 2590poe    c2313791   0.372   3.796   5.938  0.1218  0.0766  0.1689
 2590poe    c2313792   0.281   3.750   5.823  0.6206 -0.2916 -0.0814
 2590poe     o213793   0.362   3.713   5.713  0.9911 -0.9166  0.3949
 2590poe    c2313794   0.314   3.602   5.641  0.5147 -0.3596 -0.1565
 2590poe    c2313795   0.360   3.462   5.687  0.0610 -0.4639 -0.0168
 2590poe     o213796   0.496   3.440   5.659  0.1996  0.3614 -0.0255
 2590poe    c2313797   0.541   3.321   5.720  0.5967  0.5611  0.0694
 2590poe    c2313798   0.659   3.257   5.645 -0.0442 -0.3318 -0.1856
 2590poe     o213799   0.763   3.349   5.621 -0.1816 -0.0560  0.2644
 2590poe    c3113800   0.879   3.284   5.574 -0.3932 -0.0942 -0.2051
 2591poe    c3113801   1.892   4.500   1.034 -0.5284 -0.1998  0.5158
 2591poe     o213802   1.780   4.426   0.990 -0.1567 -0.2228 -0.4182
 2591poe    c2313803   1.713   4.378   1.105  0.5324  0.5026  0.3032
 2591poe    c2313804   1.591   4.303   1.048  0.9047 -0.1968  0.4206
 2591poe     o213805   1.626   4.224   0.937 -0.2504 -0.0767 -0.0423
 2591poe    c2313806   1.523   4.131   0.913 -0.4082 -0.0068  0.3638
 2591poe    c2313807   1.565   4.047   0.791  0.3315 -0.1691  0.7220
 2591poe     o213808   1.677   3.974   0.836  0.0371 -0.9219  0.2677
 2591poe    c2313809   1.762   3.942   0.728  0.1080  0.1610 -0.0181
 2591poe    c2313810   1.881   3.857   0.776 -0.6413 -0.6387  0.4664
 2591poe     o213811   1.918   3.782   0.662 -0.1620 -0.2159  0.3381
 2591poe    c3113812   2.034   3.707   0.692 -0.2354 -0.2101  0.6473
 2592poe    c3113813   0.642   6.717   1.711  0.4431  0.4149  1.3671
 2592poe     o213814   0.658   6.850   1.666 -0.3332  0.0745  0.0201
 2592poe    c2313815   0.548   6.885   1.586  0.2147  0.1171 -0.7217
 2592poe    c2313816   0.543   7.034   1.548 -0.1609  0.2114 -0.3160
 2592poe     o213817   0.497   7.106   1.659 -0.8190 -0.1003 -0.3835
 2592poe    c2313818   0.500   7.240   1.614  1.1372 -0.0426 -0.1363
 2592poe    c2313819   0.464   7.336   1.729  0.2706 -0.2887 -0.1944
 2592poe     o213820   0.539   7.301   1.844 -0.0422  0.1329  0.1431
 2592poe    c2313821   0.535   7.390   1.952  0.5252  0.5544 -0.1819
 2592poe    c2313822   0.650   7.365   2.052  0.1255 -0.3959  0.0514
 2592poe     o213823   0.667   7.226   2.070  0.0823 -0.4428 -0.2570
 2592poe    c3113824   0.728   7.204   2.195  0.0963  0.8197 -0.0299
 2593poe    c3113825   2.306   1.729   0.483  0.4391  0.0465 -0.7001
 2593poe     o213826   2.329   1.802   0.364  0.2697  0.2163 -0.6298
 2593poe    c2313827   2.294   1.938   0.371  0.3588  0.2021  0.2155
 2593poe    c2313828   2.294   2.006   0.233  0.2825 -0.5847 -0.1782
 2593poe     o213829   2.190   1.988   0.140  0.0161  0.1559 -0.0309
 2593poe    c2313830   2.234   2.050   0.021 -0.0539  0.7379  0.2448
 2593poe    c2313831   2.119   2.069  -0.079 -0.1653 -0.2333  0.1736
 2593poe     o213832   2.001   2.127  -0.029  0.4070  0.5265  0.6826
 2593poe    c2313833   1.893   2.099  -0.116  0.6319 -0.0713  0.5895
 2593poe    c2313834   1.885   2.195  -0.236  0.5772 -0.4419  0.2976
 2593poe     o213835   1.858   2.332  -0.219  0.1503 -0.5180  0.2600
 2593poe    c3113836   1.886   2.404  -0.337 -0.0180  0.2767  0.6983
 2594poe    c3113837   6.600   3.481   1.849  0.1167 -0.9688 -0.2130
 2594poe     o213838   6.651   3.526   1.726  0.2536 -0.4214  0.0422
 2594poe    c2313839   6.572   3.502   1.612  0.0639  0.4039 -0.0067
 2594poe    c2313840   6.635   3.545   1.478  0.5092  0.0659  0.0923
 2594poe     o213841   6.661   3.682   1.458  0.3170  0.1381  0.3188
 2594poe    c2313842   6.787   3.709   1.399 -0.1622  0.6981 -0.4637
 2594poe    c2313843   6.822   3.856   1.367 -0.2217  0.7387 -0.3421
 2594poe     o213844   6.783   3.941   1.472  0.1096  0.3008  0.1385
 2594poe    c2313845   6.779   4.077   1.433 -0.0642  0.2425 -0.0495
 2594poe    c2313846   6.662   4.143   1.509 -0.3997  0.1055 -0.4450
 2594poe     o213847   6.718   4.217   1.615 -0.0458  0.0562 -0.5948
 2594poe    c3113848   6.610   4.280   1.680  0.0831  0.1729 -0.4951
 2595poe    c3113849   5.397   5.241   1.487 -0.0726  0.0343  0.0801
 2595poe     o213850   5.365   5.196   1.617  0.1052  0.5016  0.2880
 2595poe    c2313851   5.371   5.057   1.635 -0.0138  0.5175  0.4505
 2595poe    c2313852   5.328   4.999   1.771 -0.3350 -0.3940 -0.0280
 2595poe     o213853   5.194   5.025   1.807 -0.3706  0.1525 -0.5446
 2595poe    c2313854   5.118   4.908   1.827  0.1519 -0.1505 -0.3137
 2595poe    c2313855   5.001   4.935   1.923  0.1397 -1.0961 -0.0498
 2595poe     o213856   5.063   4.964   2.046 -0.4723 -0.5048  0.1285
 2595poe    c2313857   5.008   5.076   2.111  0.2944  0.0737 -0.1980
 2595poe    c2313858   5.093   5.134   2.226  0.1866  0.1215 -0.1416
 2595poe     o213859   5.215   5.200   2.197  0.1926  0.4816  0.6980
 2595poe    c3113860   5.323   5.109   2.193 -0.1247  0.1345 -0.2938
 2596poe    c3113861   0.405   3.430   3.280 -0.3356  0.2394  0.2444
 2596poe     o213862   0.456   3.382   3.402 -0.0562  0.1667  0.0999
 2596poe    c2313863   0.593   3.416   3.395 -0.0270  0.0724  0.2170
 2596poe    c2313864   0.656   3.386   3.533  0.1687  0.3115  0.1807
 2596poe     o213865   0.629   3.483   3.632  0.9630  0.7072  0.0127
 2596poe    c2313866   0.682   3.447   3.758 -0.2033  0.3814  0.4206
 2596poe    c2313867   0.603   3.524   3.865 -0.2686  0.0059  0.6409
 2596poe     o213868   0.483   3.456   3.895 -0.4960  0.1722  0.1015
 2596poe    c2313869   0.426   3.502   4.016 -0.1176  0.6276  0.1094
 2596poe    c2313870   0.281   3.455   4.033  0.0267  0.2245  0.2463
 2596poe     o213871   0.270   3.343   3.948  0.1581  0.2879  0.1461
 2596poe    c3113872   0.165   3.258   3.988 -0.1723  0.4286 -0.4090
 2597poe    c3113873   5.193   2.182   0.585  0.1638  0.4340 -0.4274
 2597poe     o213874   5.312   2.156   0.657 -0.3196 -1.1137 -0.1504
 2597poe    c2313875   5.419   2.183   0.570  0.3161 -0.7801  0.7243
 2597poe    c2313876   5.562   2.151   0.618  0.9230  0.2838 -0.3006
 2597poe     o213877   5.601   2.017   0.598  0.1781  0.1514 -0.8958
 2597poe    c2313878   5.740   2.001   0.617  0.0043 -0.2361  0.0968
 2597poe    c2313879   5.792   1.863   0.574  1.1400 -0.0015  0.6906
 2597poe     o213880   5.727   1.766   0.654 -0.1976  0.1247 -0.2139
 2597poe    c2313881   5.736   1.634   0.607  0.9093  0.1535 -0.1091
 2597poe    c2313882   5.602   1.569   0.644  0.8218 -0.0304 -0.7344
 2597poe     o213883   5.501   1.615   0.557  0.2678  0.0121 -0.0813
 2597poe    c3113884   5.435   1.511   0.489  0.0214 -0.0349  0.2288
 2598poe    c3113885   4.515   4.164   3.489 -0.8242  0.7638 -0.3853
 2598poe     o213886   4.528   4.107   3.361 -0.0372  0.5165 -0.1979
 2598poe    c2313887   4.665   4.102   3.330 -0.0727 -0.1039 -0.2751
 2598poe    c2313888   4.672   4.095   3.176 -0.7685  0.0218 -0.3156
 2598poe     o213889   4.584   3.988   3.151 -0.3087 -0.3770 -0.2611
 2598poe    c2313890   4.591   3.948   3.016 -0.0672  0.1087 -0.3941
 2598poe    c2313891   4.510   3.818   3.002  0.0492 -0.0239  0.1469
 2598poe     o213892   4.382   3.856   3.047 -0.1708  0.2037 -0.6581
 2598poe    c2313893   4.283   3.782   2.980 -0.6558 -0.2896  0.5704
 2598poe    c2313894   4.148   3.848   3.016 -0.3778  0.5629  0.0689
 2598poe     o213895   4.132   3.841   3.155  0.3686  0.8656  0.1774
 2598poe    c3113896   3.999   3.854   3.202  0.1939  0.2186 -0.1364
 2599poe    c3113897   5.255   0.374   3.960 -0.2901 -0.1276 -0.5265
 2599poe     o213898   5.167   0.361   4.069 -0.1849  0.3048 -0.3847
 2599poe    c2313899   5.173   0.243   4.146  0.3261  0.5519 -0.0493
 2599poe    c2313900   5.037   0.186   4.190  0.1397  0.5519 -0.6263
 2599poe     o213901   4.981   0.108   4.086 -0.2067  0.3703 -0.3053
 2599poe    c2313902   4.923  -0.014   4.126  0.6293  0.2887  0.7157
 2599poe    c2313903   4.906  -0.103   4.001 -0.0933  0.4216  0.7128
 2599poe     o213904   4.849  -0.022   3.901  0.5214 -0.6304 -0.5186
 2599poe    c2313905   4.771  -0.097   3.810  0.2669 -0.5035 -0.4063
 2599poe    c2313906   4.734   0.005   3.701  0.0439  0.3424  0.4406
 2599poe     o213907   4.848   0.073   3.654  0.1549 -0.2411 -0.1445
 2599poe    c3113908   4.822   0.178   3.564 -0.5329  0.0571  0.3928
 2600poe    c3113909   4.000   3.894   5.702 -0.5560 -0.4477 -0.6738
 2600poe     o213910   4.059   4.014   5.747 -0.6306 -0.2583 -1.0827
 2600poe    c2313911   4.116   4.082   5.637  0.2799  0.1330 -0.3805
 2600poe    c2313912   4.182   4.210   5.693 -0.1115  0.2826 -0.2563
 2600poe     o213913   4.085   4.308   5.721 -0.2849  0.1407 -0.3514
 2600poe    c2313914   4.140   4.401   5.812 -0.3499 -0.6409  0.5024
 2600poe    c2313915   4.051   4.521   5.849  0.3023 -0.1165  0.4075
 2600poe     o213916   3.923   4.462   5.863  0.1233  0.1449 -0.0927
 2600poe    c2313917   3.833   4.545   5.934  0.2291  0.0498  0.1552
 2600poe    c2313918   3.695   4.479   5.943 -0.3047  1.0894 -0.2220
 2600poe     o213919   3.628   4.448   5.822 -0.0622 -0.2924 -0.0196
 2600poe    c3113920   3.495   4.404   5.837 -0.1647  0.1570  0.4263
 2601poe    c3113921   2.109   5.091   1.948 -0.3471 -0.0985  0.7754
 2601poe     o213922   1.980   5.037   1.932 -0.0744 -0.5641  0.0862
 2601poe    c2313923   1.902   5.103   2.030  0.2259 -0.0323 -0.0288
 2601poe    c2313924   1.779   5.011   2.035  0.2700 -0.0929 -0.0530
 2601poe     o213925   1.794   4.872   2.055  0.2816 -0.1359 -0.3502
 2601poe    c2313926   1.815   4.840   2.191 -0.6136 -0.1836 -0.2175
 2601poe    c2313927   1.792   4.690   2.218  0.0431 -0.1561  0.5259
 2601poe     o213928   1.834   4.623   2.101  0.1111  0.1688  0.3634
 2601poe    c2313929   1.800   4.486   2.103 -0.3170  0.2493 -0.5948
 2601poe    c2313930   1.853   4.446   1.964  0.3857 -0.0594 -0.2424
 2601poe     o213931   1.803   4.538   1.870 -0.6626 -0.0713  0.2851
 2601poe    c3113932   1.820   4.484   1.740 -0.1247  0.7265  0.0185
 2602poe    c3113933   1.888   6.526   4.341  0.2234 -0.1799 -0.1964
 2602poe     o213934   1.891   6.441   4.454  0.0109 -0.6716 -0.5582
 2602poe    c2313935   1.955   6.501   4.564  0.2824  0.0833 -1.1176
 2602poe    c2313936   2.050   6.411   4.645 -0.1905  0.6194  0.0553
 2602poe     o213937   1.993   6.307   4.722  0.1688  0.1674 -0.2769
 2602poe    c2313938   2.087   6.232   4.795 -0.4852 -0.0650  0.3472
 2602poe    c2313939   2.058   6.143   4.917 -0.2077  0.0310  0.4834
 2602poe     o213940   1.981   6.027   4.901 -0.2993  0.1052  0.3802
 2602poe    c2313941   2.013   5.923   4.991  0.3204  0.0920  0.1466
 2602poe    c2313942   1.916   5.804   4.984  0.1584  0.2158  0.2749
 2602poe     o213943   1.947   5.709   4.884 -0.4357  0.0231  0.2672
 2602poe    c3113944   1.820   5.657   4.853 -0.7585  0.4115  0.9199
 2603poe    c3113945   2.268   1.289   3.453 -0.1731  1.1269  0.0882
 2603poe     o213946   2.164   1.267   3.545  0.2206 -0.3039  0.2104
 2603poe    c2313947   2.139   1.128   3.550  0.1737 -0.3169 -0.2700
 2603poe    c2313948   2.047   1.106   3.672  0.2707  0.2343 -0.0928
 2603poe     o213949   1.919   1.151   3.633  0.4459  0.7325 -0.1001
 2603poe    c2313950   1.832   1.121   3.740  0.2824  0.2851 -0.3565
 2603poe    c2313951   1.681   1.120   3.710  0.2719 -0.3430 -0.3043
 2603poe     o213952   1.626   1.247   3.686 -0.3680 -0.4429  0.5751
 2603poe    c2313953   1.498   1.216   3.635 -0.0693  0.0696 -0.5255
 2603poe    c2313954   1.448   1.318   3.531 -0.2649  0.3748 -0.1312
 2603poe     o213955   1.559   1.328   3.445  0.1055  0.1092  0.3119
 2603poe    c3113956   1.498   1.372   3.326  0.6523  0.0956  0.0212
 2604poe    c3113957   2.915   4.522   6.334 -0.2839  0.0784  0.0168
 2604poe     o213958   2.992   4.473   6.442 -0.2492  0.2235  0.0583
 2604poe    c2313959   2.920   4.491   6.562 -0.0463 -0.1233  0.2311
 2604poe    c2313960   3.010   4.465   6.684 -0.0806 -0.1292  0.2545
 2604poe     o213961   3.049   4.330   6.695 -0.0433 -0.1072  0.4053
 2604poe    c2313962   3.153   4.316   6.789  0.4103  0.0210 -0.0714
 2604poe    c2313963   3.196   4.168   6.801  0.2618 -0.0192 -0.0320
 2604poe     o213964   3.207   4.099   6.679  0.7155 -0.0730  0.0374
 2604poe    c2313965   3.211   3.959   6.694 -0.1438 -0.1389 -0.2605
 2604poe    c2313966   3.333   3.910   6.775 -0.2603  0.8665  0.5493
 2604poe     o213967   3.437   3.922   6.680 -0.2018  0.1632  0.5152
 2604poe    c3113968   3.557   3.879   6.740 -0.2490 -0.5513  0.1136
 2605poe    c3113969   0.431   1.915   4.538  0.1416  0.1601  0.2740
 2605poe     o213970   0.387   1.856   4.418  0.2334  0.2362  0.2025
 2605poe    c2313971   0.291   1.942   4.361  0.0430 -0.4638 -0.5627
 2605poe    c2313972   0.185   1.870   4.276 -0.2828 -0.3844 -0.2266
 2605poe     o213973   0.215   1.866   4.138 -0.1923 -0.0756 -0.2179
 2605poe    c2313974   0.128   1.770   4.080 -0.4153 -0.2311  0.3625
 2605poe    c2313975   0.159   1.783   3.930  0.0332 -0.3361  0.4447
 2605poe     o213976   0.298   1.759   3.917  0.1409  0.6221 -0.2700
 2605poe    c2313977   0.342   1.728   3.787  0.1075 -0.4480 -0.0386
 2605poe    c2313978   0.496   1.716   3.791  0.0586 -0.9922  0.2097
 2605poe     o213979   0.540   1.802   3.893 -0.1067 -0.0156 -0.5305
 2605poe    c3113980   0.680   1.818   3.894 -0.1332  0.1950  0.0743
 2606poe    c3113981   1.993   2.465   0.531  0.0947  0.0633  0.6851
 2606poe     o213982   2.075   2.569   0.481  0.0647 -0.2481 -0.0171
 2606poe    c2313983   2.153   2.625   0.583  0.4399 -0.2014 -0.3282
 2606poe    c2313984   2.205   2.755   0.518 -0.3718  0.1768 -0.2346
 2606poe     o213985   2.255   2.706   0.395  0.5556 -0.1964  0.2786
 2606poe    c2313986   2.277   2.816   0.309  0.3643 -0.2466  0.1642
 2606poe    c2313987   2.297   2.775   0.162  0.1775 -0.0790  0.0921
 2606poe     o213988   2.209   2.667   0.141  0.2380 -0.1820  0.3612
 2606poe    c2313989   2.208   2.617   0.009 -0.5316  0.0310  0.2821
 2606poe    c2313990   2.130   2.706  -0.090  0.0485 -0.2786 -0.4616
 2606poe     o213991   1.993   2.703  -0.057  0.1204  0.1731 -0.1070
 2606poe    c3113992   1.921   2.778  -0.153 -0.0971 -0.8217 -0.7407
 2607poe    c3113993   6.548   0.324   0.755  0.2037  0.7230 -0.0175
 2607poe     o213994   6.684   0.311   0.790  0.0938  0.4751  0.3223
 2607poe    c2313995   6.702   0.284   0.927  0.6622  0.1297  0.1864
 2607poe    c2313996   6.847   0.250   0.966  0.4628 -0.4328  0.4415
 2607poe     o213997   6.933   0.360   0.948  0.1581 -0.2149  0.2983
 2607poe    c2313998   7.062   0.328   0.901  0.2400  0.1785  0.2544
 2607poe    c2313999   7.122   0.457   0.842  0.4863 -0.2919 -0.5387
 2607poe     o214000   7.032   0.497   0.741 -0.3923  0.1023  0.3817
 2607poe    c2314001   7.070   0.626   0.696  0.0369 -0.0686  0.2494
 2607poe    c2314002   6.964   0.682   0.599  0.3363  0.5604  0.2840
 2607poe     o214003   6.830   0.680   0.644  0.2125 -0.8809 -0.0923
 2607poe    c3114004   6.732   0.738   0.560  0.5551  0.0097  0.1027
 2608poe    c3114005   1.147   5.431   0.812 -0.3937  0.3536  0.0985
 2608poe     o214006   1.079   5.326   0.747  0.2866  0.2183 -0.4167
 2608poe    c2314007   1.015   5.378   0.633  0.3587 -0.0049 -0.5597
 2608poe    c2314008   0.981   5.268   0.531 -0.1560  0.0400 -0.4438
 2608poe     o214009   0.862   5.197   0.554 -0.0526 -0.0451 -0.1669
 2608poe    c2314010   0.832   5.077   0.486 -0.1673  0.0028 -0.2016
 2608poe    c2314011   0.825   5.086   0.333  0.0530  0.3385 -0.1932
 2608poe     o214012   0.726   5.171   0.281 -0.1329  0.1082 -0.2192
 2608poe    c2314013   0.595   5.120   0.286  0.0703 -0.4321 -0.3289
 2608poe    c2314014   0.494   5.210   0.211 -0.0953 -0.0834  0.3046
 2608poe     o214015   0.483   5.341   0.261 -0.0142  0.1902 -0.3733
 2608poe    c3114016   0.469   5.419   0.145  0.7470  0.4719 -0.2827
 2609poe    c3114017   4.620   1.608   3.510 -0.2371  0.6188  0.0345
 2609poe     o214018   4.500   1.613   3.437 -0.1299  0.4752 -0.1522
 2609poe    c2314019   4.382   1.580   3.508  0.1913 -0.7683 -0.1641
 2609poe    c2314020   4.259   1.578   3.416  0.0581 -0.3208  0.0015
 2609poe     o214021   4.277   1.491   3.306 -0.9967 -0.4189 -0.1106
 2609poe    c2314022   4.266   1.560   3.184 -0.2639  0.2770  0.2038
 2609poe    c2314023   4.347   1.489   3.074  0.1758  0.1418  0.6090
 2609poe     o214024   4.481   1.529   3.084  0.1168  0.4034  0.3758
 2609poe    c2314025   4.570   1.436   3.026 -0.2846  0.1454  0.1748
 2609poe    c2314026   4.691   1.391   3.109 -0.1152 -0.5302 -0.4289
 2609poe     o214027   4.666   1.302   3.216  0.1336  0.0202  0.0962
 2609poe    c3114028   4.779   1.220   3.231  0.4394  0.3956 -0.1130
 2610poe    c3114029   4.141   6.007   3.950 -0.1066  0.6540  0.1388
 2610poe     o214030   4.112   6.089   4.061  0.0387  0.4690  0.3168
 2610poe    c2314031   4.085   6.012   4.176 -0.5339  0.2938  0.0705
 2610poe    c2314032   4.100   6.091   4.307 -0.1979  0.4884 -0.0832
 2610poe     o214033   4.232   6.141   4.299  0.0595 -0.1385  0.1651
 2610poe    c2314034   4.254   6.230   4.406 -0.5065  0.5815 -0.3042
 2610poe    c2314035   4.398   6.267   4.445 -0.5179 -0.0867  0.3882
 2610poe     o214036   4.460   6.291   4.321 -0.4986 -0.0118  0.4119
 2610poe    c2314037   4.578   6.367   4.330 -0.2111 -0.4589  0.4269
 2610poe    c2314038   4.676   6.331   4.217 -0.0382 -0.1061  0.4641
 2610poe     o214039   4.592   6.318   4.104  0.2468  0.2686  0.2026
 2610poe    c3114040   4.677   6.294   3.994  0.1067 -0.5792  0.2749
 2611poe    c3114041   6.055   4.277   1.924 -0.3955  0.1098 -0.4311
 2611poe     o214042   5.954   4.197   1.982 -0.1798  0.1521  0.0087
 2611poe    c2314043   5.869   4.132   1.890  0.0757 -0.2678  0.0671
 2611poe    c2314044   5.770   4.048   1.973  0.3664  0.0762  0.7738
 2611poe     o214045   5.658   4.112   2.029 -0.3328 -0.0795 -0.4191
 2611poe    c2314046   5.565   4.033   2.099 -0.0558 -0.1125 -0.0870
 2611poe    c2314047   5.489   4.136   2.185  0.2190  0.8225 -0.9439
 2611poe     o214048   5.574   4.218   2.262  0.1476 -0.2420  0.2930
 2611poe    c2314049   5.506   4.327   2.320  0.4667 -0.0819  0.3658
 2611poe    c2314050   5.571   4.455   2.375  0.3606  0.4231 -0.6611
 2611poe     o214051   5.616   4.451   2.508  0.2733 -0.1707 -0.6477
 2611poe    c3114052   5.649   4.585   2.535 -0.3281 -0.1436 -0.0244
 2612poe    c3114053   4.155   5.335   1.979  0.4993 -0.4768  0.1100
 2612poe     o214054   4.132   5.350   1.841 -0.4436  0.4712  0.3513
 2612poe    c2314055   4.000   5.317   1.806 -0.0537 -0.8109  0.0210
 2612poe    c2314056   3.993   5.345   1.655 -0.2059  0.0211  0.1778
 2612poe     o214057   4.045   5.236   1.582  0.1187  0.2105  0.1245
 2612poe    c2314058   4.033   5.268   1.446 -0.0892  0.2880  0.1600
 2612poe    c2314059   4.028   5.145   1.353 -0.2789  0.1210  0.3901
 2612poe     o214060   4.146   5.073   1.381 -0.5982 -0.4191  0.3399
 2612poe    c2314061   4.165   4.959   1.300 -0.5203 -0.1797  0.0208
 2612poe    c2314062   4.298   4.898   1.348 -0.3423  0.0518 -0.1733
 2612poe     o214063   4.300   4.910   1.488  0.2843  0.0829 -0.1817
 2612poe    c3114064   4.312   4.782   1.545 -0.4851  0.2519  0.3796
 2613poe    c3114065   6.673   0.523   5.560  0.1337 -0.3338  0.1479
 2613poe     o214066   6.622   0.394   5.540 -0.0298 -0.2614  0.1018
 2613poe    c2314067   6.567   0.389   5.410 -0.3882 -0.3864  0.2539
 2613poe    c2314068   6.589   0.246   5.358 -0.1305 -0.3131  0.1537
 2613poe     o214069   6.536   0.151   5.448 -0.1367 -0.4155  0.0427
 2613poe    c2314070   6.420   0.088   5.398  0.0220 -0.8867  0.2664
 2613poe    c2314071   6.355   0.007   5.513 -0.5355 -0.4345  0.2746
 2613poe     o214072   6.464  -0.052   5.580 -0.0488  0.2369  0.0888
 2613poe    c2314073   6.420  -0.150   5.670 -0.1969 -0.6001 -0.8779
 2613poe    c2314074   6.545  -0.212   5.735 -0.4113  0.0822  0.2169
 2613poe     o214075   6.642  -0.113   5.760 -0.3862  0.0284  0.3302
 2613poe    c3114076   6.748  -0.170   5.834 -0.1161  0.3339  0.1807
 2614poe    c3114077   1.483   1.160   6.874 -0.0647 -0.0904  0.2298
 2614poe     o214078   1.346   1.129   6.864 -0.1215  0.0847  0.4553
 2614poe    c2314079   1.288   1.216   6.770  0.2824 -0.6401 -0.4879
 2614poe    c2314080   1.135   1.195   6.761  0.2477 -0.4874 -0.2751
 2614poe     o214081   1.055   1.232   6.870  0.0856 -0.6620 -0.3360
 2614poe    c2314082   0.994   1.359   6.859  0.0446 -0.6770 -0.2864
 2614poe    c2314083   0.908   1.408   6.977  0.5677 -0.2979 -0.0602
 2614poe     o214084   0.795   1.324   6.985  0.1570  0.2677  0.1027
 2614poe    c2314085   0.733   1.344   7.110 -0.5378 -0.1884 -0.1616
 2614poe    c2314086   0.615   1.251   7.143 -0.1666 -0.3318  0.8141
 2614poe     o214087   0.508   1.283   7.057  0.5344 -0.1819 -0.0212
 2614poe    c3114088   0.384   1.229   7.097  0.5290 -0.3363 -0.2446
 2615poe    c3114089   7.040   0.629   2.335 -0.3334  0.0107  0.0954
 2615poe     o214090   6.916   0.607   2.399 -0.3992  0.4470  0.1198
 2615poe    c2314091   6.912   0.620   2.539  0.1126 -1.1076  0.3020
 2615poe    c2314092   6.765   0.651   2.575  0.3476  0.1130  0.2653
 2615poe     o214093   6.704   0.767   2.524  0.0596 -0.0232  0.2944
 2615poe    c2314094   6.716   0.885   2.601 -0.5119  0.6561 -0.6291
 2615poe    c2314095   6.793   0.993   2.523  0.5389  0.2628 -0.1624
 2615poe     o214096   6.930   0.965   2.502  0.4004 -0.1820 -0.4879
 2615poe    c2314097   6.991   1.066   2.425  0.1423  0.2141 -0.1804
 2615poe    c2314098   7.144   1.056   2.444  0.1176 -0.2996 -0.2204
 2615poe     o214099   7.186   1.098   2.572 -0.5091  0.1553 -0.1552
 2615poe    c3114100   7.325   1.076   2.584 -0.5253 -0.0728 -0.3945
 2616poe    c3114101   7.163   3.896   0.634 -0.1252 -0.1429 -0.4469
 2616poe     o214102   7.136   3.838   0.760 -0.1101  0.0903 -0.3354
 2616poe    c2314103   7.102   3.938   0.853  0.6538 -0.1083  0.1712
 2616poe    c2314104   7.115   3.892   0.999  0.2783  0.3176  0.3404
 2616poe     o214105   7.222   3.801   1.011  0.1295  0.0810 -0.1449
 2616poe    c2314106   7.222   3.754   1.143 -0.5647 -0.3660 -0.2970
 2616poe    c2314107   7.364   3.697   1.159 -0.1998  0.3567 -0.9398
 2616poe     o214108   7.367   3.590   1.068  0.6841 -0.4651  0.0278
 2616poe    c2314109   7.422   3.471   1.120  0.4962 -0.5593  0.0108
 2616poe    c2314110   7.368   3.362   1.025  0.1583 -0.1901 -0.2220
 2616poe     o214111   7.393   3.393   0.890 -0.3836  0.5066 -0.1698
 2616poe    c3114112   7.350   3.285   0.809  0.5375 -0.0131  0.0232
 2617poe    c3114113   2.642   6.676   3.924 -0.4916  0.2504 -0.2131
 2617poe     o214114   2.709   6.553   3.911 -0.2511  0.3722 -0.1525
 2617poe    c2314115   2.818   6.577   3.825  0.0137 -0.0520  0.0608
 2617poe    c2314116   2.942   6.488   3.843  0.4764  0.4990 -0.3843
 2617poe     o214117   2.973   6.505   3.979 -0.0130  0.3219 -0.2496
 2617poe    c2314118   3.058   6.406   4.032 -0.1149  0.1554 -0.3948
 2617poe    c2314119   3.065   6.401   4.186  0.0045  0.5922 -0.3839
 2617poe     o214120   2.935   6.370   4.231  0.3172 -0.1901 -0.0128
 2617poe    c2314121   2.938   6.314   4.361  0.1466  0.1545  0.1403
 2617poe    c2314122   2.842   6.376   4.463 -0.2361  0.2739 -0.2881
 2617poe     o214123   2.708   6.332   4.454  0.0573 -0.7392  0.0802
 2617poe    c3114124   2.688   6.215   4.529 -0.3012 -0.5899  0.2208
 2618poe    c3114125   3.662   4.454   1.718  0.4537 -0.3922 -0.2183
 2618poe     o214126   3.736   4.545   1.641 -0.2325  0.4556  0.1136
 2618poe    c2314127   3.871   4.530   1.680 -0.2688 -0.1381  0.0131
 2618poe    c2314128   3.982   4.611   1.612  0.1770 -0.2969  0.5470
 2618poe     o214129   4.027   4.554   1.491  0.5368 -0.1485  0.6081
 2618poe    c2314130   3.940   4.556   1.379  0.8140 -0.3205  0.3878
 2618poe    c2314131   3.983   4.478   1.254 -0.1361  0.3579 -0.3749
 2618poe     o214132   4.105   4.521   1.197 -0.2124  0.5101 -0.4243
 2618poe    c2314133   4.154   4.447   1.087  0.6270  0.1341  0.1930
 2618poe    c2314134   4.258   4.533   1.013  0.1529  0.4274 -0.1402
 2618poe     o214135   4.373   4.531   1.094 -0.2010  0.2338  0.3580
 2618poe    c3114136   4.467   4.614   1.030 -0.2327  0.2732  0.3635
 2619poe    c3114137   6.773   0.350   0.277 -0.4570 -0.3886 -0.6623
 2619poe     o214138   6.794   0.225   0.339  0.1319  0.0478  0.0246
 2619poe    c2314139   6.694   0.133   0.303  0.4995 -0.3733  0.0734
 2619poe    c2314140   6.717   0.004   0.386  0.2854 -0.1736  0.4462
 2619poe     o214141   6.830  -0.074   0.357  0.3134  0.2124 -0.5322
 2619poe    c2314142   6.790  -0.185   0.279 -0.3951 -0.0285  0.1677
 2619poe    c2314143   6.900  -0.274   0.219  0.1831  0.3040  0.7227
 2619poe     o214144   6.987  -0.222   0.120 -0.5023  0.2796  0.1028
 2619poe    c2314145   7.040  -0.297   0.013 -0.6740  0.0580  0.1703
 2619poe    c2314146   7.160  -0.387   0.048 -0.1328  0.5456 -0.3897
 2619poe     o214147   7.263  -0.316   0.112  0.1060 -0.2893  0.1772
 2619poe    c3114148   7.346  -0.402   0.185  0.3798 -0.4104 -0.2782
 2620poe    c3114149   3.991   2.682   3.745 -1.2603 -0.4488 -0.0530
 2620poe     o214150   4.048   2.568   3.806 -0.1580  0.0663 -0.0828
 2620poe    c2314151   4.078   2.483   3.697  0.5987  0.3699 -0.1170
 2620poe    c2314152   4.114   2.338   3.735  0.7420  0.3984 -0.1431
 2620poe     o214153   4.016   2.255   3.794  0.4643  0.7497 -0.1009
 2620poe    c2314154   4.072   2.126   3.788 -0.0642  0.5207 -0.1787
 2620poe    c2314155   3.995   2.046   3.896  0.0237  0.3288 -0.2569
 2620poe     o214156   3.860   2.082   3.876 -0.0992 -0.0564 -0.1190
 2620poe    c2314157   3.765   2.024   3.962  0.0563  0.4000  0.3658
 2620poe    c2314158   3.625   2.089   3.955 -0.0188  0.2466  0.4254
 2620poe     o214159   3.630   2.230   3.964  0.0160  0.3284 -0.7287
 2620poe    c3114160   3.509   2.273   4.022  0.2581 -0.3915  0.3545
 2621poe    c3114161   4.844   5.598   3.420  0.1789  0.0774 -0.0962
 2621poe     o214162   4.714   5.648   3.439  0.1064 -0.0043 -0.3761
 2621poe    c2314163   4.608   5.555   3.442  0.0633  0.0396 -0.5345
 2621poe    c2314164   4.481   5.614   3.506  0.0809 -0.2424 -0.2422
 2621poe     o214165   4.440   5.725   3.429  0.4980  0.2769  0.2661
 2621poe    c2314166   4.342   5.804   3.492 -0.0104  0.4475 -0.7270
 2621poe    c2314167   4.264   5.878   3.381 -0.3205  0.1800 -0.6893
 2621poe     o214168   4.371   5.956   3.333  0.1315  0.2565  0.4101
 2621poe    c2314169   4.328   6.054   3.242 -0.0622  0.0474  0.2752
 2621poe    c2314170   4.455   6.138   3.217  0.0997 -0.2320  0.1568
 2621poe     o214171   4.563   6.047   3.213  0.2532 -0.0411  0.0058
 2621poe    c3114172   4.657   6.074   3.111  0.5478  0.2623  0.3563
 2622poe    c3114173   1.840   4.537   3.276  0.2555  0.4648 -0.2839
 2622poe     o214174   1.725   4.490   3.209  0.1625 -0.1873  0.3254
 2622poe    c2314175   1.666   4.395   3.295 -0.8397 -0.0636 -0.2200
 2622poe    c2314176   1.540   4.335   3.230 -0.9229  0.2366 -0.3388
 2622poe     o214177   1.582   4.241   3.134  0.1871  0.4182 -0.0424
 2622poe    c2314178   1.481   4.218   3.038 -0.2426  0.8286  0.3087
 2622poe    c2314179   1.543   4.186   2.900 -0.0545  0.1672  0.5460
 2622poe     o214180   1.588   4.053   2.901  0.1017  0.2041 -0.5256
 2622poe    c2314181   1.642   4.014   2.776  0.2768  0.2634 -0.4694
 2622poe    c2314182   1.544   3.972   2.666 -0.0496 -0.1781 -0.0157
 2622poe     o214183   1.485   3.844   2.668  0.1350 -0.2650 -0.1401
 2622poe    c3114184   1.386   3.842   2.567  0.0299 -0.2876 -0.0362
 2623poe    c3114185   5.406   0.423   1.709 -0.1876 -0.5967 -0.4798
 2623poe     o214186   5.488   0.419   1.594 -0.0613  0.5441 -0.4397
 2623poe    c2314187   5.548   0.292   1.587 -0.3467  0.3941 -0.1662
 2623poe    c2314188   5.603   0.276   1.444 -0.6639  0.2723 -0.2778
 2623poe     o214189   5.645   0.406   1.410 -0.2472  0.2338  0.0818
 2623poe    c2314190   5.691   0.404   1.277  0.7073  0.3030  0.4016
 2623poe    c2314191   5.769   0.534   1.251  0.6251  0.2151 -0.3150
 2623poe     o214192   5.718   0.643   1.325  0.4158  0.1729 -0.3982
 2623poe    c2314193   5.796   0.756   1.292  0.6005  0.1293 -0.1086
 2623poe    c2314194   5.759   0.874   1.384  0.7207  0.6509 -0.7217
 2623poe     o214195   5.780   0.860   1.522  0.1496  0.0728 -0.6878
 2623poe    c3114196   5.773   0.982   1.592  0.8272 -0.2916  0.0350
 2624poe    c3114197   0.321   0.485   5.474 -0.0115  0.1141 -0.4159
 2624poe     o214198   0.312   0.355   5.418  0.1874 -0.2228  0.3258
 2624poe    c2314199   0.441   0.299   5.425  0.2539 -0.0594  0.4122
 2624poe    c2314200   0.444   0.152   5.380 -0.4195  0.0021  0.1642
 2624poe     o214201   0.376   0.049   5.448 -0.2144  0.0424  0.4327
 2624poe    c2314202   0.411  -0.075   5.390 -0.2946  0.0275  0.4149
 2624poe    c2314203   0.329  -0.190   5.451  0.0650 -0.2863  0.3111
 2624poe     o214204   0.302  -0.147   5.583 -0.3870  0.5518 -0.0469
 2624poe    c2314205   0.210  -0.237   5.640  0.2837 -0.1012  0.0293
 2624poe    c2314206   0.239  -0.238   5.791 -0.2179 -0.1417  0.1270
 2624poe     o214207   0.228  -0.112   5.854  0.3484 -0.1668  0.2841
 2624poe    c3114208   0.264  -0.124   5.989  0.2564  0.7058  0.3917
 2625poe    c3114209   0.045   6.917   4.306  0.5271 -0.4706 -0.4410
 2625poe     o214210  -0.094   6.910   4.283  0.4420 -0.4990  0.0702
 2625poe    c2314211  -0.127   6.864   4.154  0.3115 -0.3921  0.0656
 2625poe    c2314212  -0.280   6.875   4.139  0.3336  0.2691  0.3130
 2625poe     o214213  -0.337   6.771   4.215 -0.0987  0.5612  0.3884
 2625poe    c2314214  -0.474   6.757   4.182  0.0549  0.5698 -0.2558
 2625poe    c2314215  -0.554   6.683   4.290  0.4700  0.2979 -0.1299
 2625poe     o214216  -0.579   6.778   4.391 -0.0340  0.3149 -0.2670
 2625poe    c2314217  -0.676   6.717   4.474 -0.0154  0.5236 -0.0913
 2625poe    c2314218  -0.686   6.802   4.602 -0.2985 -0.1529  0.3392
 2625poe     o214219  -0.585   6.779   4.697  0.5326  0.5497 -0.3624
 2625poe    c3114220  -0.590   6.863   4.810  0.2320 -0.0102  0.0480
 2626poe    c3114221   1.975   7.068   5.599 -0.0084  0.3301 -0.0401
 2626poe     o214222   1.927   7.186   5.538  0.0371  0.0565 -0.6066
 2626poe    c2314223   2.030   7.282   5.545 -0.0676  0.1104  0.3286
 2626poe    c2314224   2.009   7.404   5.454  0.0486  0.1267  0.3239
 2626poe     o214225   1.891   7.467   5.496 -0.6389 -0.7334 -0.2795
 2626poe    c2314226   1.882   7.598   5.443 -0.0758 -0.3585  0.5205
 2626poe    c2314227   1.771   7.667   5.524 -0.0925  0.1861  0.0396
 2626poe     o214228   1.668   7.572   5.541  0.0104  0.0781  0.0658
 2626poe    c2314229   1.537   7.620   5.561 -0.2779 -0.6901  0.0593
 2626poe    c2314230   1.449   7.496   5.538 -0.4266 -0.4466 -0.7139
 2626poe     o214231   1.507   7.381   5.593 -0.1430  0.1027  0.1596
 2626poe    c3114232   1.419   7.271   5.587  0.0715 -0.0879  0.4347
 2627poe    c3114233   7.134   1.137   3.370  0.1963 -0.5713  0.2015
 2627poe     o214234   7.007   1.129   3.308  0.4127 -0.4478 -0.2571
 2627poe    c2314235   6.987   1.226   3.207 -0.1289  0.1737  0.4350
 2627poe    c2314236   6.842   1.254   3.166 -0.0559 -0.1086 -0.0305
 2627poe     o214237   6.769   1.149   3.107  0.0211 -0.0999 -0.1404
 2627poe    c2314238   6.647   1.199   3.056 -0.0647 -0.3236 -0.1560
 2627poe    c2314239   6.565   1.082   3.000 -0.3851 -0.2028  0.0519
 2627poe     o214240   6.595   0.959   3.063  0.0345 -0.2113 -0.1602
 2627poe    c2314241   6.527   0.849   3.007  0.0669 -0.0873 -0.4457
 2627poe    c2314242   6.582   0.721   3.072  0.1047  0.1747  0.0416
 2627poe     o214243   6.722   0.731   3.055 -0.0280 -0.0115 -1.2880
 2627poe    c3114244   6.802   0.627   3.105 -0.0717  0.4643 -0.1919
 2628poe    c3114245   2.450   6.097   2.313  0.2582 -0.2456  0.0645
 2628poe     o214246   2.490   6.199   2.401  0.4380 -0.1195 -0.1654
 2628poe    c2314247   2.582   6.128   2.480  0.0619 -0.3668  0.0517
 2628poe    c2314248   2.658   6.218   2.580 -0.4896  0.2921 -0.1100
 2628poe     o214249   2.727   6.325   2.520 -0.2485  0.2241  0.0418
 2628poe    c2314250   2.857   6.347   2.571 -0.0270  0.5191 -0.6291
 2628poe    c2314251   2.861   6.429   2.701 -0.4788  0.0505 -0.3111
 2628poe     o214252   2.842   6.569   2.697  0.2783  0.1833  0.5661
 2628poe    c2314253   2.934   6.654   2.632  0.0624 -0.1003 -0.1108
 2628poe    c2314254   2.889   6.800   2.648  0.1505 -0.0985  0.1254
 2628poe     o214255   2.788   6.837   2.557 -0.4131 -0.1704  0.7183
 2628poe    c3114256   2.728   6.961   2.590  0.3262  0.2880  0.3491
 2629poe    c3114257   3.415   4.324   3.253 -0.4320  0.3189  0.0629
 2629poe     o214258   3.313   4.313   3.350 -0.3984  0.2196  0.0880
 2629poe    c2314259   3.335   4.402   3.457 -0.1699  0.3852 -0.0958
 2629poe    c2314260   3.207   4.410   3.542 -0.1779 -0.7797  0.0167
 2629poe     o214261   3.095   4.444   3.463  0.2288  0.0875 -0.1997
 2629poe    c2314262   2.976   4.419   3.535  0.3331  0.8550  0.2474
 2629poe    c2314263   2.854   4.414   3.441  0.0371 -0.0474  0.6726
 2629poe     o214264   2.857   4.294   3.366  0.7759  0.3536  0.0488
 2629poe    c2314265   2.768   4.306   3.257  0.6770 -0.0421  0.0840
 2629poe    c2314266   2.820   4.236   3.131  0.0341  0.2248 -0.3344
 2629poe     o214267   2.826   4.095   3.136  0.0682  0.2416  0.1623
 2629poe    c3114268   2.933   4.037   3.065 -0.0623 -0.3769  0.4675
 2630poe    c3114269   3.021   4.766   0.046 -0.0433  0.1554 -0.0885
 2630poe     o214270   2.935   4.824  -0.050 -0.0922  0.3634  0.0807
 2630poe    c2314271   2.808   4.762  -0.045  0.3054 -0.4791 -0.0663
 2630poe    c2314272   2.716   4.844  -0.137  0.1563 -0.2179  0.3104
 2630poe     o214273   2.795   4.887  -0.246  0.0791  1.4067  0.8734
 2630poe    c2314274   2.717   4.954  -0.342  0.1078  0.0089 -0.1637
 2630poe    c2314275   2.814   5.026  -0.437 -0.1549  0.7487  0.1162
 2630poe     o214276   2.901   5.086  -0.345  0.0496 -0.1371  0.5081
 2630poe    c2314277   2.960   5.195  -0.412  0.4649 -0.4179  0.4088
 2630poe    c2314278   2.913   5.326  -0.345  0.4591 -0.1288 -0.1514
 2630poe     o214279   2.961   5.336  -0.213  0.1651 -0.4213 -0.0206
 2630poe    c3114280   2.890   5.438  -0.145  0.1064 -0.4055 -0.1057
 2631poe    c3114281   2.877   0.562   2.866  0.3313 -0.1224 -0.2077
 2631poe     o214282   2.998   0.565   2.794  0.2082 -0.0816 -0.4133
 2631poe    c2314283   2.966   0.587   2.658 -0.2438  0.5257 -0.2083
 2631poe    c2314284   3.094   0.609   2.577 -0.2680  0.1303 -0.3526
 2631poe     o214285   3.174   0.718   2.616 -0.4654  0.1646 -0.0387
 2631poe    c2314286   3.289   0.704   2.535 -0.2336 -0.1298  0.3358
 2631poe    c2314287   3.389   0.806   2.594  0.1199 -0.0508 -0.3846
 2631poe     o214288   3.425   0.773   2.726 -0.3902 -0.4384 -0.3377
 2631poe    c2314289   3.550   0.829   2.759 -0.3105 -0.5716 -0.4139
 2631poe    c2314290   3.560   0.803   2.911 -0.0052 -0.0022 -0.3348
 2631poe     o214291   3.431   0.817   2.967 -0.1331 -0.7670 -0.4302
 2631poe    c3114292   3.449   0.780   3.102 -0.3420  0.8432  0.0565
 2632poe    c3114293   2.084   2.678   1.692  0.0395 -0.2538  0.8960
 2632poe     o214294   1.965   2.667   1.617  0.2212  0.4909  0.4974
 2632poe    c2314295   1.894   2.548   1.643 -0.1236  0.6278  0.1962
 2632poe    c2314296   1.767   2.568   1.728  0.0372  0.1987  0.5354
 2632poe     o214297   1.666   2.628   1.651 -0.3880 -1.2333 -0.0537
 2632poe    c2314298   1.529   2.621   1.687 -0.4338 -0.3161 -0.0384
 2632poe    c2314299   1.500   2.724   1.797  0.2033  0.0951 -0.2466
 2632poe     o214300   1.536   2.857   1.766  0.1775  0.0541 -0.4487
 2632poe    c2314301   1.450   2.959   1.811  0.1989 -0.0806 -0.1023
 2632poe    c2314302   1.513   3.092   1.855  0.3190 -0.2563  0.2583
 2632poe     o214303   1.582   3.168   1.759  0.2179 -0.2595  0.1831
 2632poe    c3114304   1.613   3.289   1.823  0.3258  0.0576 -0.4597
 2633poe    c3114305   5.965   3.690   2.194 -0.5909 -0.2084 -0.0472
 2633poe     o214306   5.835   3.726   2.233 -0.6737 -0.6796  0.1202
 2633poe    c2314307   5.835   3.745   2.373 -0.4148 -1.3565  0.2160
 2633poe    c2314308   5.697   3.798   2.416 -0.0017 -0.5063  0.5258
 2633poe     o214309   5.588   3.708   2.416 -0.5115  0.1041  0.0579
 2633poe    c2314310   5.535   3.695   2.286 -0.1925 -0.4008 -0.0221
 2633poe    c2314311   5.383   3.683   2.267 -0.2511 -0.1237  0.2692
 2633poe     o214312   5.307   3.795   2.307 -0.3413 -0.1821  0.2619
 2633poe    c2314313   5.233   3.838   2.195 -0.3474  0.3697  0.4763
 2633poe    c2314314   5.137   3.955   2.227 -0.5747  0.3842 -0.2439
 2633poe     o214315   5.202   4.061   2.293  0.1141 -0.0880 -0.1484
 2633poe    c3114316   5.124   4.176   2.271  0.1871 -0.0285 -0.0960
 2634poe    c3114317   0.664   1.848   6.216 -0.2427 -0.2387  0.2582
 2634poe     o214318   0.566   1.936   6.266 -0.1965 -0.3005  0.4588
 2634poe    c2314319   0.497   1.889   6.379 -0.3830 -0.0634  0.4447
 2634poe    c2314320   0.371   1.973   6.410 -0.5327 -0.0517 -0.1900
 2634poe     o214321   0.395   2.112   6.414  0.1176 -0.1660  0.0871
 2634poe    c2314322   0.285   2.183   6.466 -0.0621 -0.5594  0.2509
 2634poe    c2314323   0.308   2.326   6.520  0.8526 -0.5403 -0.1763
 2634poe     o214324   0.310   2.441   6.438  0.3768 -0.2671  0.1880
 2634poe    c2314325   0.340   2.560   6.507 -0.1444 -0.2723  0.4256
 2634poe    c2314326   0.327   2.689   6.425  0.2870 -0.1614  0.5263
 2634poe     o214327   0.438   2.710   6.340 -0.0250  0.5768  0.2885
 2634poe    c3114328   0.467   2.848   6.339  0.1715  0.5324 -0.0162
 2635poe    c3114329   6.230   6.511   4.921 -0.0336 -0.4493 -0.6428
 2635poe     o214330   6.341   6.434   4.883  0.0506 -0.8149  0.3101
 2635poe    c2314331   6.468   6.496   4.893 -0.2604 -0.1008 -0.0884
 2635poe    c2314332   6.581   6.419   4.823  0.1624  0.3050  0.1475
 2635poe     o214333   6.557   6.425   4.685 -0.2348 -0.3114  0.1854
 2635poe    c2314334   6.589   6.309   4.612 -0.1521  0.2703 -0.7264
 2635poe    c2314335   6.733   6.285   4.563  0.0792  0.5028 -0.1700
 2635poe     o214336   6.837   6.279   4.657  0.1912 -0.5673 -0.3504
 2635poe    c2314337   6.957   6.282   4.583  0.5816 -0.2751  0.2747
 2635poe    c2314338   7.083   6.273   4.670  0.1667  0.2550  0.9407
 2635poe     o214339   7.137   6.399   4.705 -0.0453  0.6794 -0.2214
 2635poe    c3114340   7.275   6.397   4.731  0.0288  0.2403 -0.6243
 2636poe    c3114341   2.847   0.689   4.925  0.1311 -0.5759  0.1301
 2636poe     o214342   2.871   0.714   5.061 -0.3842 -0.0559  0.1344
 2636poe    c2314343   3.010   0.733   5.080 -0.4827  0.6808  0.1111
 2636poe    c2314344   3.034   0.740   5.232  0.4613  0.5516 -0.0287
 2636poe     o214345   2.942   0.831   5.287  0.2542  0.2782  0.0785
 2636poe    c2314346   2.954   0.832   5.428 -0.0812 -0.2657  0.1147
 2636poe    c2314347   2.829   0.898   5.488 -0.3562  0.2614 -1.0075
 2636poe     o214348   2.726   0.804   5.471 -0.1125 -0.1144 -0.4197
 2636poe    c2314349   2.602   0.841   5.528  0.2537  0.1333  0.2274
 2636poe    c2314350   2.492   0.734   5.521  0.1982  0.1991  0.1046
 2636poe     o214351   2.507   0.643   5.627  0.3132 -0.3551 -0.3809
 2636poe    c3114352   2.434   0.529   5.587 -0.0061 -0.0243 -0.7540
 2637poe    c3114353   6.914   0.278   2.391 -0.1952 -0.5140  0.0018
 2637poe     o214354   6.862   0.258   2.262  0.0453  0.7741 -0.3105
 2637poe    c2314355   6.887   0.123   2.230 -0.5172  0.5126  0.3362
 2637poe    c2314356   6.844   0.094   2.084  0.1059 -0.3926  0.3225
 2637poe     o214357   6.894   0.205   2.013 -0.4313 -0.1246  0.3548
 2637poe    c2314358   6.842   0.199   1.882 -0.1963 -0.6730  0.2836
 2637poe    c2314359   6.885   0.330   1.814 -0.6710  0.0650  1.3727
 2637poe     o214360   6.836   0.438   1.890 -0.3397  0.7621  0.6126
 2637poe    c2314361   6.856   0.562   1.825  0.5150  0.1543 -0.3081
 2637poe    c2314362   6.891   0.684   1.912  0.1853 -0.3213  0.4980
 2637poe     o214363   6.803   0.727   2.013  0.1100 -0.1164  0.3449
 2637poe    c3114364   6.859   0.842   2.073 -0.1728  0.2160 -0.0213
 2638poe    c3114365   3.799   6.276   2.447  0.0939  0.0769  0.0278
 2638poe     o214366   3.885   6.192   2.373 -0.1239 -0.3099  0.2120
 2638poe    c2314367   3.961   6.112   2.461 -0.5486 -0.1056  0.7687
 2638poe    c2314368   4.071   6.025   2.398 -0.6914  0.5517 -0.4119
 2638poe     o214369   4.189   6.088   2.356 -0.1954 -0.3691 -0.4271
 2638poe    c2314370   4.280   6.012   2.280 -0.1308 -0.2554 -0.4639
 2638poe    c2314371   4.389   6.087   2.202  0.2406 -0.9224 -0.5952
 2638poe     o214372   4.343   6.168   2.096  0.2511  0.0913  0.1670
 2638poe    c2314373   4.442   6.251   2.040 -0.0143  0.3042  0.0130
 2638poe    c2314374   4.394   6.365   1.948 -0.0289 -0.0400 -0.4072
 2638poe     o214375   4.355   6.489   2.003  0.1938  0.1185 -0.6010
 2638poe    c3114376   4.360   6.589   1.905  0.8040  0.4954 -0.1970
 2639poe    c3114377   2.549   6.728   1.746  0.5222 -0.3192  0.7920
 2639poe     o214378   2.592   6.849   1.690 -0.6212 -0.2594  0.0043
 2639poe    c2314379   2.503   6.958   1.701 -0.0319  0.1817  0.5126
 2639poe    c2314380   2.499   7.033   1.835  0.5270  0.1192  0.5665
 2639poe     o214381   2.627   7.076   1.877  0.5078  0.6108  0.1301
 2639poe    c2314382   2.608   7.103   2.014 -0.0643  0.0886  0.1605
 2639poe    c2314383   2.741   7.136   2.085  0.0481  0.2847 -0.1409
 2639poe     o214384   2.813   7.017   2.108  0.4240  0.4701 -0.3546
 2639poe    c2314385   2.910   7.042   2.208 -0.6858 -0.4736  1.0016
 2639poe    c2314386   3.030   6.954   2.170 -0.4255  0.2938 -0.0189
 2639poe     o214387   3.069   6.967   2.035  0.1847 -0.3037  0.0924
 2639poe    c3114388   3.186   6.901   1.994 -0.0298 -0.5326 -0.1506
 2640poe    c3114389   5.859   3.801   2.853  0.0341 -0.0127  0.0185
 2640poe     o214390   5.725   3.820   2.814 -0.1328  0.0734  0.6280
 2640poe    c2314391   5.669   3.711   2.745  0.1453  0.4128 -0.1483
 2640poe    c2314392   5.516   3.698   2.738  0.0748  1.0267  0.2062
 2640poe     o214393   5.466   3.704   2.870 -0.4794  0.5729  0.0214
 2640poe    c2314394   5.332   3.747   2.875 -0.6067  0.2547 -0.5493
 2640poe    c2314395   5.259   3.758   3.010  0.0926  0.4401 -0.1824
 2640poe     o214396   5.314   3.878   3.059  0.2359  0.2405  0.1544
 2640poe    c2314397   5.269   3.896   3.191  0.1675  0.0807  0.1524
 2640poe    c2314398   5.319   4.029   3.251  0.1720  0.0269  0.2679
 2640poe     o214399   5.271   4.136   3.173  0.1748 -0.0911  0.1036
 2640poe    c3114400   5.376   4.228   3.151 -0.0282 -0.0281 -0.6047
 2641poe    c3114401   0.437   0.573   6.385 -0.4917 -0.5737  0.6479
 2641poe     o214402   0.568   0.523   6.366 -0.4787 -0.4424  0.3827
 2641poe    c2314403   0.622   0.563   6.242 -0.1417 -0.9290  0.3672
 2641poe    c2314404   0.753   0.485   6.227  0.5837  0.3464 -0.0651
 2641poe     o214405   0.813   0.497   6.354  0.7354  0.4136 -0.1419
 2641poe    c2314406   0.938   0.432   6.356  0.7955  0.5149 -0.4793
 2641poe    c2314407   0.987   0.442   6.502 -0.2367  0.0970 -0.0940
 2641poe     o214408   0.880   0.404   6.586 -0.2320  0.2228 -0.0306
 2641poe    c2314409   0.927   0.398   6.718  0.0131  0.4333 -0.1087
 2641poe    c2314410   0.815   0.389   6.823  0.0358 -0.3618 -0.1462
 2641poe     o214411   0.709   0.483   6.823  0.0058 -0.3945 -0.5675
 2641poe    c3114412   0.662   0.486   6.956 -0.1355  0.0070 -0.6279
 2642poe    c3114413   5.437   4.786   6.841  0.4297  0.1165 -0.1159
 2642poe     o214414   5.538   4.690   6.824  0.2038 -0.0978 -0.2637
 2642poe    c2314415   5.557   4.654   6.689  0.1465  0.1387 -0.3339
 2642poe    c2314416   5.698   4.596   6.666 -0.0474 -0.2277 -0.5996
 2642poe     o214417   5.719   4.478   6.740  0.3712 -0.0378 -0.4172
 2642poe    c2314418   5.851   4.427   6.733  0.2517 -0.3820 -0.1809
 2642poe    c2314419   5.846   4.314   6.837 -0.1970  0.0236  0.2446
 2642poe     o214420   5.798   4.356   6.963  0.8615  0.2226  0.5862
 2642poe    c2314421   5.859   4.294   7.074  0.5257 -0.1008  0.5895
 2642poe    c2314422   5.777   4.169   7.113  0.0718 -0.0339 -0.1345
 2642poe     o214423   5.647   4.196   7.160  0.1876  0.1598  0.0746
 2642poe    c3114424   5.568   4.079   7.159  0.1992  0.1482  0.3208
 2643poe    c3114425   0.850   6.046   6.073 -0.3555  0.1839 -0.5700
 2643poe     o214426   0.917   6.170   6.075 -0.1674  0.0772 -0.2446
 2643poe    c2314427   1.013   6.175   6.178 -0.1222 -0.0008 -0.2825
 2643poe    c2314428   1.085   6.310   6.190 -0.2718  0.1007 -0.5246
 2643poe     o214429   1.154   6.366   6.080 -0.4150  0.4023 -0.4626
 2643poe    c2314430   1.211   6.494   6.094  0.0025  0.1503  0.1893
 2643poe    c2314431   1.260   6.532   5.953 -0.1565 -0.2165  0.0327
 2643poe     o214432   1.171   6.523   5.845  0.0637 -0.4901 -0.1264
 2643poe    c2314433   1.209   6.568   5.717 -0.5092  0.0483 -0.1166
 2643poe    c2314434   1.088   6.578   5.622 -0.3577  0.0344 -0.3143
 2643poe     o214435   0.979   6.602   5.709 -0.0509  0.4130 -0.0345
 2643poe    c3114436   0.865   6.647   5.642 -0.0296  0.0484 -0.3172
 2644poe    c3114437   3.516   3.356   4.953  0.1484  0.2803  0.1557
 2644poe     o214438   3.426   3.259   4.904  0.5042  0.2279 -0.4021
 2644poe    c2314439   3.467   3.126   4.927  0.1751  0.2229  0.1729
 2644poe    c2314440   3.345   3.039   4.892  0.2126  0.4776 -0.6058
 2644poe     o214441   3.296   3.081   4.766 -0.2941  0.6446 -0.3581
 2644poe    c2314442   3.193   2.992   4.729 -0.0466  0.1318  0.1634
 2644poe    c2314443   3.129   3.031   4.594  0.3534 -0.0366 -0.0779
 2644poe     o214444   3.060   3.152   4.616 -0.1654 -0.4305  0.4819
 2644poe    c2314445   2.986   3.198   4.505 -0.2756  0.2946  0.8523
 2644poe    c2314446   2.942   3.346   4.501 -0.2943  0.2696 -0.1110
 2644poe     o214447   3.048   3.439   4.490  0.1630 -0.2802 -0.3950
 2644poe    c3114448   3.008   3.573   4.499 -0.3327 -0.4926  0.7929
 2645poe    c3114449   0.137   3.590   4.835 -0.3281  0.0622  0.3336
 2645poe     o214450   0.267   3.536   4.822 -0.2382  0.2551  0.4142
 2645poe    c2314451   0.326   3.579   4.702  0.4569 -0.7291  0.3911
 2645poe    c2314452   0.476   3.543   4.694  0.5682 -0.1819 -0.1510
 2645poe     o214453   0.549   3.560   4.814  0.0518  0.1706  0.1175
 2645poe    c2314454   0.689   3.554   4.800 -0.0236 -0.6768 -0.3149
 2645poe    c2314455   0.754   3.578   4.937 -0.1671 -0.2546 -0.3194
 2645poe     o214456   0.678   3.497   5.024 -0.1881 -0.1011 -0.1955
 2645poe    c2314457   0.720   3.513   5.158 -0.3921  0.0703 -0.1510
 2645poe    c2314458   0.630   3.432   5.253 -0.0625  0.2431  0.3136
 2645poe     o214459   0.497   3.470   5.226 -0.0922 -0.0729 -0.0020
 2645poe    c3114460   0.398   3.433   5.320 -0.6897  0.6124 -0.3533
 2646poe    c3114461   0.566   6.994   2.555 -0.0423  1.0420  0.4023
 2646poe     o214462   0.653   7.050   2.652  0.6378 -0.0779  0.4559
 2646poe    c2314463   0.609   7.014   2.780 -0.4291  0.4324  0.2444
 2646poe    c2314464   0.735   7.048   2.862 -0.5039  0.1329  0.4889
 2646poe     o214465   0.760   7.185   2.843  0.6945 -0.1516 -0.0959
 2646poe    c2314466   0.865   7.215   2.932  0.4311  0.4916  0.0054
 2646poe    c2314467   0.916   7.357   2.904  0.3568  0.5367  0.0971
 2646poe     o214468   0.938   7.371   2.765  0.5579  0.0849  0.0827
 2646poe    c2314469   0.959   7.505   2.727  0.1446  0.0343 -0.3307
 2646poe    c2314470   0.935   7.526   2.576 -0.6108  0.3691 -0.1681
 2646poe     o214471   0.996   7.436   2.486 -0.7099 -0.2599  0.3843
 2646poe    c3114472   0.966   7.500   2.363 -0.2361 -0.4943  0.1456
 2647poe    c3114473   4.099   0.115   1.696  0.1665 -0.2641 -0.1144
 2647poe     o214474   4.098   0.224   1.787 -0.0630 -0.1197 -0.2871
 2647poe    c2314475   4.176   0.339   1.764  0.2923 -0.3468 -0.2386
 2647poe    c2314476   4.210   0.421   1.889  0.0480 -0.5768 -0.0193
 2647poe     o214477   4.216   0.332   1.998 -0.5973  0.1492  0.6188
 2647poe    c2314478   4.343   0.296   2.047 -0.3290 -0.0213 -0.1888
 2647poe    c2314479   4.337   0.261   2.197 -0.4997  0.1205 -0.1616
 2647poe     o214480   4.261   0.146   2.227  0.2073 -0.1849  0.5235
 2647poe    c2314481   4.202   0.180   2.350 -0.2635  0.9130  0.0101
 2647poe    c2314482   4.114   0.063   2.397  0.8587  0.0200 -0.0833
 2647poe     o214483   4.046   0.015   2.284 -0.2785 -0.2417  0.6894
 2647poe    c3114484   3.951  -0.086   2.311 -0.1979 -0.5861 -0.2651
 2648poe    c3114485   3.389   5.907   3.295  0.2351 -0.1978 -0.1638
 2648poe     o214486   3.394   5.837   3.417 -0.1002  0.0587 -0.0018
 2648poe    c2314487   3.292   5.878   3.506 -0.2657 -0.2648 -0.0385
 2648poe    c2314488   3.264   5.773   3.614 -0.1530 -0.1818  0.0728
 2648poe     o214489   3.340   5.821   3.723 -0.0443  0.4200 -0.2657
 2648poe    c2314490   3.341   5.732   3.833 -0.7574  0.1776 -0.4453
 2648poe    c2314491   3.434   5.785   3.944 -0.5110  0.3545 -0.7331
 2648poe     o214492   3.380   5.890   4.020 -0.6158 -0.5760  0.5178
 2648poe    c2314493   3.466   5.937   4.121 -0.1452  0.4716 -0.3373
 2648poe    c2314494   3.406   5.971   4.259  1.2771 -0.4328  0.5300
 2648poe     o214495   3.364   5.850   4.319 -0.1435 -0.2642 -0.1002
 2648poe    c3114496   3.318   5.879   4.449 -0.2313  0.0818 -0.2062
 2649poe    c3114497   1.500   3.488   1.333  0.1073 -0.1286  0.3005
 2649poe     o214498   1.610   3.561   1.383  0.0452  0.0764  0.1395
 2649poe    c2314499   1.595   3.593   1.519 -0.1790 -0.0462  0.1442
 2649poe    c2314500   1.679   3.717   1.556 -0.2047  0.0588 -0.1489
 2649poe     o214501   1.815   3.679   1.554 -0.2550 -0.1207 -0.2591
 2649poe    c2314502   1.898   3.793   1.550  0.0964 -0.3658 -0.0308
 2649poe    c2314503   2.035   3.786   1.479  0.3886  0.6644  0.4158
 2649poe     o214504   2.132   3.707   1.545  0.0311  0.1263  0.3012
 2649poe    c2314505   2.185   3.744   1.670  0.2085  0.4010  0.1473
 2649poe    c2314506   2.249   3.614   1.724 -0.5557 -0.0385  0.0178
 2649poe     o214507   2.144   3.520   1.727 -0.8006  0.2034 -0.6926
 2649poe    c3114508   2.198   3.397   1.770 -0.5571  0.6954  0.4474
 2650poe    c3114509   4.454   4.271   1.230  0.4457  0.5432 -0.2128
 2650poe     o214510   4.557   4.177   1.249 -0.1290 -0.0469  0.0470
 2650poe    c2314511   4.669   4.258   1.281  0.0472 -0.2776  0.0152
 2650poe    c2314512   4.788   4.168   1.318  0.0239 -0.1959  0.2889
 2650poe     o214513   4.773   4.126   1.452  0.1101  0.0498  0.3748
 2650poe    c2314514   4.867   4.024   1.476 -0.0494 -0.1698  0.0620
 2650poe    c2314515   4.818   3.923   1.581  0.1744 -0.7693 -0.3999
 2650poe     o214516   4.701   3.853   1.544 -0.2415 -0.2263 -0.1244
 2650poe    c2314517   4.637   3.782   1.647  0.4566 -0.6444  0.0272
 2650poe    c2314518   4.492   3.754   1.603  0.1482  0.3961  0.3700
 2650poe     o214519   4.425   3.879   1.605  0.1222  0.3795  0.5552
 2650poe    c3114520   4.299   3.877   1.668 -0.2283 -0.6658 -0.1485
 2651poe    c3114521   5.147   5.117   0.283 -0.2277  0.1397  0.0802
 2651poe     o214522   5.032   5.165   0.349  0.1341  0.2435  0.6426
 2651poe    c2314523   4.967   5.072   0.433  0.7004 -0.0281  0.7870
 2651poe    c2314524   4.878   5.154   0.529  0.3169  0.1064  0.3162
 2651poe     o214525   4.781   5.211   0.443 -0.1114 -0.5956  0.3296
 2651poe    c2314526   4.698   5.294   0.521  0.4462  0.2469  0.0361
 2651poe    c2314527   4.657   5.427   0.457 -0.7110 -0.1396 -0.0419
 2651poe     o214528   4.776   5.493   0.421 -0.7305  0.1528  0.4279
 2651poe    c2314529   4.758   5.631   0.397  0.4147  0.1745 -0.3622
 2651poe    c2314530   4.902   5.674   0.364  0.6049  0.0706  0.3146
 2651poe     o214531   4.953   5.633   0.239  0.1281 -0.0514  0.1602
 2651poe    c3114532   5.089   5.601   0.258  0.0682 -0.3610  0.0855
 2652poe    c3114533   0.839   1.006   3.742 -0.3578  0.2058  0.2228
 2652poe     o214534   0.771   0.886   3.769 -0.3370  0.2232  0.3522
 2652poe    c2314535   0.847   0.824   3.870 -0.4837  0.4034  0.5747
 2652poe    c2314536   0.783   0.687   3.901  0.1352 -0.0871 -0.2752
 2652poe     o214537   0.644   0.695   3.925  0.1579 -0.4462 -0.0177
 2652poe    c2314538   0.599   0.752   4.046  0.0154 -0.0986 -0.2328
 2652poe    c2314539   0.447   0.734   4.065  0.1576 -0.3642  0.7096
 2652poe     o214540   0.375   0.799   3.963  0.1147 -0.4450  0.6885
 2652poe    c2314541   0.242   0.759   3.987 -0.2179  0.1274 -0.1668
 2652poe    c2314542   0.147   0.783   3.867  0.3186  0.7896 -0.4659
 2652poe     o214543   0.173   0.699   3.757  0.1931 -0.0645  0.1388
 2652poe    c3114544   0.117   0.749   3.638  0.8051 -0.0962 -0.1685
 2653poe    c3114545   2.577   0.248   7.139 -0.2032  0.0951 -0.1094
 2653poe     o214546   2.609   0.112   7.153  0.2960  0.1759 -0.4280
 2653poe    c2314547   2.648   0.050   7.033  0.2667  0.0248 -0.3609
 2653poe    c2314548   2.693  -0.094   7.063  0.4892  0.1095 -0.2824
 2653poe     o214549   2.598  -0.194   7.092  0.8636 -0.3054 -0.4842
 2653poe    c2314550   2.673  -0.304   7.140  0.2739 -0.1949  0.7108
 2653poe    c2314551   2.582  -0.427   7.160 -0.1787  0.0598  0.2524
 2653poe     o214552   2.476  -0.406   7.250  0.0775  0.3595  0.4840
 2653poe    c2314553   2.400  -0.524   7.258  0.4581  0.0691 -0.1131
 2653poe    c2314554   2.268  -0.498   7.334  0.3042  0.1531 -0.4041
 2653poe     o214555   2.185  -0.407   7.266 -0.3485 -0.1376 -0.0025
 2653poe    c3114556   2.074  -0.368   7.343 -0.1347  0.0144  0.2307
 2654poe    c3114557   1.694   6.056   5.708  0.0484  0.2244 -0.0769
 2654poe     o214558   1.653   5.976   5.817  0.2690  0.0692 -0.1067
 2654poe    c2314559   1.599   5.853   5.775  0.1561  0.1307 -0.1423
 2654poe    c2314560   1.569   5.769   5.901  0.0511  0.4398  0.0401
 2654poe     o214561   1.512   5.857   5.995 -0.4045  0.0899  0.0905
 2654poe    c2314562   1.471   5.791   6.113  0.3470 -0.3189  0.1293
 2654poe    c2314563   1.403   5.884   6.216  0.1838 -0.1018 -0.1748
 2654poe     o214564   1.481   5.995   6.252  0.0686  0.0340 -0.3431
 2654poe    c2314565   1.407   6.094   6.319  0.0097 -0.0811 -0.2375
 2654poe    c2314566   1.484   6.224   6.352 -0.0737 -0.2094  0.4928
 2654poe     o214567   1.519   6.294   6.235 -0.0802 -0.4869  0.3225
 2654poe    c3114568   1.544   6.425   6.283 -0.3730 -0.2645 -0.1224
 2655poe    c3114569   4.135   2.645   6.333 -0.2549  0.0182 -0.0057
 2655poe     o214570   4.057   2.761   6.309 -0.5248 -0.1608 -0.0050
 2655poe    c2314571   3.972   2.730   6.201  0.0055 -0.4871 -0.3337
 2655poe    c2314572   3.898   2.847   6.135 -0.0629 -0.1428  0.3501
 2655poe     o214573   3.997   2.943   6.105 -0.2260 -0.1080 -0.0834
 2655poe    c2314574   3.932   3.053   6.045 -0.3177 -0.1034  0.0246
 2655poe    c2314575   3.913   3.183   6.126  0.3377 -0.0026  0.0175
 2655poe     o214576   3.864   3.150   6.253  0.3124  0.0845  0.0305
 2655poe    c2314577   3.811   3.264   6.318 -0.2339 -0.0477 -0.1776
 2655poe    c2314578   3.729   3.220   6.440  0.1423 -0.0463  0.0788
 2655poe     o214579   3.808   3.216   6.556 -0.0322  0.3793  0.2143
 2655poe    c3114580   3.716   3.227   6.663  0.6569 -0.1715  0.8801
 2656poe    c3114581   3.428   3.179   1.090  0.0382  0.0176 -0.6262
 2656poe     o214582   3.443   3.044   1.052  0.3947 -0.0734 -0.1704
 2656poe    c2314583   3.512   2.959   1.141  0.5449  0.0399 -0.1771
 2656poe    c2314584   3.521   2.824   1.067  0.2921 -0.0159 -0.1091
 2656poe     o214585   3.407   2.742   1.075  0.2613  0.0213 -0.1676
 2656poe    c2314586   3.429   2.613   1.022  0.0401  0.3063 -0.9697
 2656poe    c2314587   3.304   2.525   1.009  0.0229  0.0011  0.9303
 2656poe     o214588   3.234   2.506   1.129 -0.1130 -0.1460  0.8288
 2656poe    c2314589   3.237   2.375   1.180  0.4991 -0.5363 -0.1899
 2656poe    c2314590   3.151   2.364   1.307  0.1419  0.2079 -0.3671
 2656poe     o214591   3.202   2.430   1.421  0.5626 -0.3412 -0.2396
 2656poe    c3114592   3.159   2.393   1.550 -0.2405  0.2323 -0.3425
 2657poe    c3114593   5.714   3.175   0.170 -0.3764 -0.4050  0.0761
 2657poe     o214594   5.753   3.077   0.076  0.4036  0.1103 -0.1437
 2657poe    c2314595   5.722   2.951   0.131 -0.6125  0.2754 -0.3110
 2657poe    c2314596   5.788   2.843   0.042  0.1279  0.3110  0.1801
 2657poe     o214597   5.923   2.880   0.031  0.0900  0.3984  0.0047
 2657poe    c2314598   5.993   2.768  -0.019 -0.1075 -0.0109  0.6292
 2657poe    c2314599   6.133   2.829  -0.039 -0.3608  0.3264 -0.1630
 2657poe     o214600   6.131   2.954  -0.104 -0.2714  0.3239 -0.1703
 2657poe    c2314601   6.263   3.002  -0.116 -0.2006  0.0677 -0.4375
 2657poe    c2314602   6.255   3.123  -0.211 -0.0165  0.3913 -0.0464
 2657poe     o214603   6.181   3.234  -0.164  0.0663  0.1971  0.5512
 2657poe    c3114604   6.255   3.346  -0.122  0.0288  0.3425  0.2298
 2658poe    c3114605   2.834   1.385   2.043  0.1376 -0.1280  0.3200
 2658poe     o214606   2.780   1.494   2.116  0.2276  0.1339 -0.0006
 2658poe    c2314607   2.724   1.462   2.241  0.1823  0.3189  0.0262
 2658poe    c2314608   2.688   1.588   2.322 -0.2479  0.0071  0.3280
 2658poe     o214609   2.565   1.637   2.273  0.0443  0.0794 -0.3491
 2658poe    c2314610   2.533   1.762   2.329  0.1349 -0.1705  0.2708
 2658poe    c2314611   2.438   1.841   2.236  0.3523 -0.1539  0.0618
 2658poe     o214612   2.500   1.884   2.117 -0.1619  0.1928 -0.0835
 2658poe    c2314613   2.422   1.958   2.026 -0.3778  0.0359 -0.0278
 2658poe    c2314614   2.511   2.054   1.945 -0.3907 -0.5498 -0.7459
 2658poe     o214615   2.634   1.989   1.926  0.3127  0.4017  0.3560
 2658poe    c3114616   2.714   2.063   1.836 -0.1247  0.3921 -0.0434
 2659poe    c3114617   4.215   4.940   0.854  0.1261  0.2044  0.1904
 2659poe     o214618   4.271   4.911   0.728  0.2107 -0.0195  0.2788
 2659poe    c2314619   4.193   4.806   0.674 -0.0337  0.2155  0.1718
 2659poe    c2314620   4.264   4.755   0.548  0.0733 -0.0422  0.3360
 2659poe     o214621   4.401   4.774   0.573  0.3064 -0.8365 -0.2995
 2659poe    c2314622   4.484   4.687   0.499  0.4500 -0.1728 -0.9291
 2659poe    c2314623   4.631   4.734   0.507  0.3232  0.1370 -0.3550
 2659poe     o214624   4.681   4.735   0.639  0.4137  0.8065 -0.3902
 2659poe    c2314625   4.819   4.750   0.662  0.4468  0.1296 -0.1136
 2659poe    c2314626   4.849   4.758   0.813 -0.4402 -0.2244  0.0895
 2659poe     o214627   4.767   4.848   0.884 -0.0408  0.0825  0.1611
 2659poe    c3114628   4.849   4.904   0.985  0.2870 -0.5810  0.2685
 2660poe    c3114629   0.854   1.908   2.703 -0.1425 -0.3875 -0.1923
 2660poe     o214630   0.818   2.036   2.657  0.6272 -0.2112 -0.3259
 2660poe    c2314631   0.847   2.131   2.757  0.2218  0.0090 -0.4131
 2660poe    c2314632   0.796   2.274   2.730 -0.3039 -0.2840 -0.9797
 2660poe     o214633   0.667   2.306   2.775  0.1883  0.2723  0.0606
 2660poe    c2314634   0.633   2.430   2.717  0.0436  0.0700 -0.2910
 2660poe    c2314635   0.667   2.558   2.797 -0.3760 -0.2574  0.4222
 2660poe     o214636   0.575   2.586   2.899 -0.5303 -0.4309  0.3317
 2660poe    c2314637   0.493   2.697   2.874 -0.6595 -0.6793 -0.3732
 2660poe    c2314638   0.385   2.716   2.983  0.0823 -0.1861  0.2856
 2660poe     o214639   0.294   2.611   3.006 -0.1027 -0.0924 -0.0115
 2660poe    c3114640   0.180   2.689   3.037  0.0828  0.3157 -0.3349
 2661poe    c3114641   4.722   4.405   6.504 -0.1804 -0.0493 -0.0250
 2661poe     o214642   4.776   4.344   6.619  0.2943  0.1999 -0.1154
 2661poe    c2314643   4.725   4.416   6.728 -0.8401 -0.4698 -0.1876
 2661poe    c2314644   4.759   4.343   6.859  0.2869  0.2341 -0.0756
 2661poe     o214645   4.869   4.256   6.842 -0.0319 -0.1894  0.0169
 2661poe    c2314646   4.928   4.224   6.966  0.4616 -0.2570 -0.2314
 2661poe    c2314647   4.980   4.080   6.969  0.2697 -0.3160  1.0422
 2661poe     o214648   5.069   4.076   6.859 -0.8485  0.7922  0.0690
 2661poe    c2314649   5.134   3.953   6.835 -0.5107  1.0078 -0.1290
 2661poe    c2314650   5.259   3.981   6.750 -0.1883  0.0625  0.0211
 2661poe     o214651   5.235   4.052   6.631  0.4218 -0.3446 -0.3442
 2661poe    c3114652   5.359   4.100   6.584  0.2230 -0.1591 -0.6855
 2662poe    c3114653   3.312   3.560   1.509  0.1847 -0.5299  0.1816
 2662poe     o214654   3.252   3.488   1.614 -0.3976 -0.4563 -0.0927
 2662poe    c2314655   3.128   3.547   1.645 -0.0603  0.1879  0.0621
 2662poe    c2314656   3.045   3.503   1.768 -0.0338 -0.0090  0.0106
 2662poe     o214657   3.082   3.558   1.892  0.1002  0.2080 -0.1236
 2662poe    c2314658   3.139   3.465   1.982 -0.5268  0.1156  0.1891
 2662poe    c2314659   3.068   3.342   2.041 -0.2443 -0.1141  0.0530
 2662poe     o214660   3.034   3.255   1.936  0.0784 -0.0217 -0.1300
 2662poe    c2314661   2.993   3.131   1.990  0.0736  0.1747  0.3166
 2662poe    c2314662   2.978   3.027   1.879  0.0750 -0.1664  0.6340
 2662poe     o214663   3.090   3.034   1.793 -0.1744 -0.6379  0.2652
 2662poe    c3114664   3.071   2.962   1.673 -0.2791 -0.0820 -0.0508
 2663poe    c3114665   2.985   4.600   5.241 -0.0415  0.1590 -1.0168
 2663poe     o214666   3.119   4.580   5.206  0.2529  0.1439  0.0636
 2663poe    c2314667   3.195   4.544   5.319  0.3945 -0.7326 -0.3026
 2663poe    c2314668   3.341   4.514   5.280  0.3037 -0.4717 -0.8512
 2663poe     o214669   3.413   4.614   5.211 -0.3437  0.4871 -0.1677
 2663poe    c2314670   3.548   4.588   5.179 -0.1118  0.7699  0.5724
 2663poe    c2314671   3.594   4.648   5.045 -0.6050  0.1044  0.0955
 2663poe     o214672   3.510   4.610   4.938 -0.4801  0.1903 -0.0330
 2663poe    c2314673   3.559   4.684   4.828 -0.3845  0.0208 -0.1032
 2663poe    c2314674   3.461   4.679   4.709 -0.0884 -0.1902 -0.3402
 2663poe     o214675   3.479   4.564   4.631 -0.2930 -0.0093 -0.6557
 2663poe    c3114676   3.373   4.533   4.543 -0.6868 -0.5045 -0.0208
 2664poe    c3114677   3.935   2.819   6.622 -0.1306 -0.5169 -0.7149
 2664poe     o214678   3.832   2.735   6.670 -0.3545 -0.2559 -0.7390
 2664poe    c2314679   3.891   2.631   6.745 -0.6483  0.1384  0.0479
 2664poe    c2314680   3.794   2.515   6.717 -0.0856 -0.1915 -0.5554
 2664poe     o214681   3.667   2.574   6.732  0.2157  0.3113  0.0321
 2664poe    c2314682   3.555   2.490   6.748  0.3030  0.2838  0.5278
 2664poe    c2314683   3.430   2.573   6.780  0.2290  0.3070  0.1881
 2664poe     o214684   3.426   2.686   6.696 -0.1986  0.0032 -0.2067
 2664poe    c2314685   3.296   2.738   6.711 -0.0868  0.1652  0.2100
 2664poe    c2314686   3.290   2.877   6.644  0.6486 -0.0192 -0.2537
 2664poe     o214687   3.332   2.982   6.727  0.4220  0.1530 -0.3535
 2664poe    c3114688   3.302   3.097   6.653  0.1532  0.0323 -0.4301
 2665poe    c3114689   7.039   4.316   0.278 -0.3383  0.5272  0.0482
 2665poe     o214690   7.176   4.313   0.312 -0.2844  0.2099 -0.1971
 2665poe    c2314691   7.179   4.282   0.449 -0.7129  0.1472 -0.2021
 2665poe    c2314692   7.318   4.293   0.513 -0.5860 -0.6695 -0.3267
 2665poe     o214693   7.407   4.210   0.441  0.4041  0.2420 -0.1955
 2665poe    c2314694   7.524   4.194   0.518  0.1839 -0.1706  0.0553
 2665poe    c2314695   7.627   4.124   0.427 -0.0288 -0.0665 -0.2667
 2665poe     o214696   7.602   3.997   0.371  0.3142 -0.1784 -0.1671
 2665poe    c2314697   7.618   3.894   0.465  0.1118  0.0392  0.1085
 2665poe    c2314698   7.573   3.755   0.416 -0.0777  0.3048 -0.4741
 2665poe     o214699   7.648   3.724   0.301 -0.2836  0.2347 -0.5902
 2665poe    c3114700   7.596   3.609   0.238  0.6319 -0.4279 -0.1597
 2666poe    c3114701   4.230   6.736   2.555 -0.1354 -0.0815  0.1610
 2666poe     o214702   4.136   6.707   2.454  0.0922 -0.3131  0.0138
 2666poe    c2314703   4.112   6.571   2.424  0.1723 -0.2665 -0.2623
 2666poe    c2314704   4.042   6.542   2.290  0.3967  0.1226 -0.4678
 2666poe     o214705   3.902   6.560   2.286  0.3548 -0.0853 -0.0711
 2666poe    c2314706   3.873   6.638   2.171  0.1670  0.7014  0.4975
 2666poe    c2314707   3.724   6.629   2.134  0.3103  0.0341  0.0689
 2666poe     o214708   3.695   6.493   2.109  0.0364  0.0315  0.4120
 2666poe    c2314709   3.573   6.478   2.040  0.4626 -0.5593 -0.2250
 2666poe    c2314710   3.520   6.337   2.004 -0.2079 -0.2602 -0.4306
 2666poe     o214711   3.611   6.264   1.925 -0.0407 -0.7003  0.1562
 2666poe    c3114712   3.547   6.206   1.813 -0.0230  0.1582 -0.3103
 2667poe    c3114713   0.118   2.409   7.043  0.4273 -0.0425  0.2534
 2667poe     o214714   0.239   2.481   7.043  0.0582  0.5849  0.6059
 2667poe    c2314715   0.341   2.398   7.093 -0.2370 -0.1760 -0.0323
 2667poe    c2314716   0.474   2.476   7.095 -0.0703 -0.4630  0.3522
 2667poe     o214717   0.457   2.582   7.187 -0.2719 -0.0483 -0.1545
 2667poe    c2314718   0.580   2.621   7.243  0.0213  0.0182 -0.8384
 2667poe    c2314719   0.569   2.710   7.368  0.6227  0.0456 -0.8003
 2667poe     o214720   0.514   2.619   7.461  0.1202  0.4962 -0.6533
 2667poe    c2314721   0.420   2.684   7.543  0.1885  0.2832 -0.4066
 2667poe    c2314722   0.331   2.599   7.635  0.5073 -0.0316 -0.3913
 2667poe     o214723   0.398   2.559   7.753 -0.0721  0.0674 -0.0248
 2667poe    c3114724   0.350   2.429   7.780 -0.4467  0.1874 -0.1045
 2668poe    c3114725   2.860   5.941   3.457 -0.6754 -0.8511 -0.4638
 2668poe     o214726   2.815   6.075   3.454 -0.3481 -0.7265  0.0162
 2668poe    c2314727   2.734   6.088   3.339  0.2110  0.4293 -0.2711
 2668poe    c2314728   2.679   6.231   3.349  0.3059  0.4344  0.2103
 2668poe     o214729   2.588   6.246   3.455  0.2962  0.1130  0.2470
 2668poe    c2314730   2.599   6.377   3.507  0.3917  0.2472 -0.1063
 2668poe    c2314731   2.522   6.415   3.635  0.2895  0.6492 -0.2857
 2668poe     o214732   2.382   6.417   3.614  0.1813  0.2352  0.3551
 2668poe    c2314733   2.311   6.423   3.736 -0.0287  0.4709  0.2215
 2668poe    c2314734   2.167   6.473   3.716 -0.3139 -0.4283 -0.0423
 2668poe     o214735   2.124   6.413   3.596  0.0636  0.2413 -0.5199
 2668poe    c3114736   1.985   6.390   3.609  0.1823  0.0206  0.3927
 2669poe    c3114737   0.897   5.088   2.373 -0.0043 -0.6559  0.7910
 2669poe     o214738   1.017   5.045   2.313 -0.1756  0.1249 -0.1329
 2669poe    c2314739   1.093   4.970   2.404 -0.0513  0.0670 -0.2845
 2669poe    c2314740   1.228   4.942   2.335  0.0472 -0.1390 -0.0128
 2669poe     o214741   1.200   4.915   2.199  0.3329  0.0193 -0.1048
 2669poe    c2314742   1.243   4.791   2.147  0.8274 -0.0211  0.3929
 2669poe    c2314743   1.215   4.785   1.996  0.3465 -0.2242  0.4863
 2669poe     o214744   1.083   4.826   1.969  0.5308  0.0978  0.0544
 2669poe    c2314745   1.047   4.849   1.835 -0.1555  0.1465  0.2434
 2669poe    c2314746   0.894   4.840   1.821 -0.1359 -0.0353  0.1550
 2669poe     o214747   0.821   4.925   1.907  0.0569  0.1596  0.1256
 2669poe    c3114748   0.684   4.908   1.880  0.0964 -0.2209  0.1555
 2670poe    c3114749   1.288   4.179   5.333  0.3477 -0.1807  0.0655
 2670poe     o214750   1.246   4.082   5.240 -0.1116  0.2124 -0.1387
 2670poe    c2314751   1.110   4.048   5.256  0.2398 -0.8895  0.5746
 2670poe    c2314752   1.026   3.980   5.147  0.6064 -0.1210 -0.2025
 2670poe     o214753   1.032   4.048   5.024 -0.2121 -0.1023 -0.2415
 2670poe    c2314754   0.982   3.960   4.925 -0.9388 -0.0134  0.0443
 2670poe    c2314755   1.016   3.991   4.778  0.6988 -0.2836  0.3405
 2670poe     o214756   1.154   4.007   4.759  0.5241  0.3294 -0.4887
 2670poe    c2314757   1.195   4.006   4.624  0.3407  0.0326 -0.5423
 2670poe    c2314758   1.349   4.012   4.624  0.3435  0.0336  0.0817
 2670poe     o214759   1.387   4.116   4.712 -0.1950  0.0572  0.2921
 2670poe    c3114760   1.526   4.137   4.707 -0.2037 -0.0396 -0.5155
 2671poe    c3114761   3.731   5.066   6.675  0.4327  0.1568  0.1863
 2671poe     o214762   3.657   5.115   6.784 -0.1711  0.2040 -0.2415
 2671poe    c2314763   3.519   5.103   6.757 -0.0766 -0.0289 -0.6117
 2671poe    c2314764   3.424   5.139   6.872  0.6816 -0.1044  0.0493
 2671poe     o214765   3.400   5.277   6.891  0.1333 -0.2841  0.7151
 2671poe    c2314766   3.304   5.295   6.993 -0.3748 -0.1281  0.2158
 2671poe    c2314767   3.306   5.443   7.033  0.1318 -0.1091  0.1335
 2671poe     o214768   3.441   5.482   7.048  0.3688 -0.9525  0.2650
 2671poe    c2314769   3.469   5.550   7.169 -0.1013  0.4059 -0.3643
 2671poe    c2314770   3.606   5.620   7.167  0.1531 -0.0807 -0.3027
 2671poe     o214771   3.720   5.538   7.166  0.3697  0.2082  0.2169
 2671poe    c3114772   3.838   5.615   7.154  0.3123  0.3291  0.4365
 2672poe    c3114773   1.259   4.855   3.458  0.5160  0.1256  0.1510
 2672poe     o214774   1.164   4.931   3.529  0.2659  0.2034 -0.2623
 2672poe    c2314775   1.045   4.857   3.541  0.6108 -0.2466  0.5085
 2672poe    c2314776   1.020   4.800   3.681  0.3195 -0.6223  0.3055
 2672poe     o214777   0.986   4.903   3.771 -0.6562 -0.0413 -0.7028
 2672poe    c2314778   0.870   4.868   3.844 -0.2814 -0.2100 -0.1803
 2672poe    c2314779   0.902   4.803   3.980  0.1521  0.2046 -0.0794
 2672poe     o214780   0.976   4.885   4.067 -0.0186  0.1805  0.0897
 2672poe    c2314781   1.035   4.825   4.180 -0.3028 -0.2527  0.0083
 2672poe    c2314782   1.066   4.936   4.282 -0.4255  0.0402 -0.2734
 2672poe     o214783   1.176   5.015   4.243  0.2260 -0.5154  0.4290
 2672poe    c3114784   1.228   5.095   4.347 -0.7586 -0.0696  0.5930
 2673poe    c3114785   0.751   6.251   6.520 -0.2755 -0.4082 -0.0855
 2673poe     o214786   0.658   6.217   6.621 -0.2790 -0.1524 -0.0011
 2673poe    c2314787   0.666   6.076   6.613  0.3649 -0.1085 -0.2575
 2673poe    c2314788   0.529   6.025   6.661  0.2622  0.4792  0.0891
 2673poe     o214789   0.472   6.121   6.747  0.3239  0.2199  0.4228
 2673poe    c2314790   0.334   6.097   6.767  0.2010  0.5522 -0.0135
 2673poe    c2314791   0.271   6.206   6.856  0.1230  0.0864  0.5108
 2673poe     o214792   0.296   6.334   6.802 -0.3387 -0.0905 -0.1368
 2673poe    c2314793   0.243   6.446   6.869  0.3306  0.1824 -0.0580
 2673poe    c2314794   0.206   6.554   6.765  0.2986  1.0915  0.8813
 2673poe     o214795   0.323   6.592   6.696  0.2480  0.2390  0.3168
 2673poe    c3114796   0.320   6.722   6.643  0.1047 -0.0108 -0.2934
 2674poe    c3114797   0.295   4.697   4.004 -0.0846 -0.5688 -0.1583
 2674poe     o214798   0.202   4.801   4.022  0.4216 -0.1540  0.0729
 2674poe    c2314799   0.247   4.878   4.132  0.0388 -0.1296  0.2121
 2674poe    c2314800   0.132   4.979   4.153  0.0118 -0.1455  0.1424
 2674poe     o214801   0.004   4.921   4.138  0.0466 -0.3283  0.5192
 2674poe    c2314802  -0.110   4.993   4.180  0.1919  0.1896  0.0465
 2674poe    c2314803  -0.235   4.942   4.106  0.1015  0.5520 -0.0517
 2674poe     o214804  -0.219   4.977   3.971  0.8759  0.1611 -0.0643
 2674poe    c2314805  -0.306   4.896   3.895  0.2885  0.7494 -0.0299
 2674poe    c2314806  -0.271   4.928   3.748  0.3687  0.3483 -0.0994
 2674poe     o214807  -0.133   4.940   3.718  0.5140 -0.0046  0.4094
 2674poe    c3114808  -0.106   4.975   3.584  0.1425 -0.2179  0.2748
 2675poe    c3114809   1.732   1.378   0.821 -0.1036  0.2924  1.0677
 2675poe     o214810   1.608   1.340   0.767  0.1735  0.2381  0.4702
 2675poe    c2314811   1.546   1.239   0.844 -0.3745  0.4989  0.3750
 2675poe    c2314812   1.414   1.198   0.775 -0.4716 -0.2302  0.9802
 2675poe     o214813   1.332   1.310   0.747 -0.0097 -0.0543  0.3023
 2675poe    c2314814   1.220   1.285   0.665  0.3025  0.3069 -0.2381
 2675poe    c2314815   1.133   1.410   0.693 -0.5044 -0.1916 -0.4887
 2675poe     o214816   1.214   1.525   0.680 -0.3752 -0.2411 -0.1248
 2675poe    c2314817   1.128   1.636   0.682  0.2136  0.2127  0.0836
 2675poe    c2314818   1.191   1.772   0.644 -0.1881  0.3717 -0.0228
 2675poe     o214819   1.308   1.810   0.713  0.2359  0.2140 -0.6419
 2675poe    c3114820   1.388   1.899   0.638  0.4543 -0.3593 -1.1005
 2676poe    c3114821   6.711   6.268   6.426 -0.1687  0.1918  0.1297
 2676poe     o214822   6.696   6.129   6.410  0.1896  0.1659  0.0124
 2676poe    c2314823   6.661   6.072   6.534  0.4935  0.1618  0.0972
 2676poe    c2314824   6.592   5.934   6.523  0.2652  0.2967 -0.1607
 2676poe     o214825   6.656   5.872   6.414 -0.0489 -0.1737 -0.0795
 2676poe    c2314826   6.607   5.741   6.395 -0.3634 -0.0496 -0.1294
 2676poe    c2314827   6.688   5.703   6.270  0.4947  0.1361  0.3630
 2676poe     o214828   6.675   5.808   6.176 -0.5431 -0.2414  0.0739
 2676poe    c2314829   6.714   5.751   6.054 -0.2097  0.1399  0.0016
 2676poe    c2314830   6.758   5.848   5.943  0.3681 -0.1980 -0.0717
 2676poe     o214831   6.854   5.941   5.987  0.2686 -0.1728  0.0929
 2676poe    c3114832   6.898   6.018   5.877 -0.0484  0.4148  0.3763
 2677poe    c3114833   4.944   6.374   2.612 -0.0867  0.2028  0.2101
 2677poe     o214834   4.819   6.432   2.646  0.0247  0.1486  0.7212
 2677poe    c2314835   4.802   6.544   2.563 -0.8791 -0.6124 -0.1444
 2677poe    c2314836   4.683   6.626   2.615 -0.1138  0.4014  0.0405
 2677poe     o214837   4.625   6.569   2.730 -0.1083  0.3003 -0.0071
 2677poe    c2314838   4.515   6.646   2.773 -0.5201 -0.2195 -0.1189
 2677poe    c2314839   4.435   6.589   2.892 -0.6129 -0.3433 -0.2406
 2677poe     o214840   4.530   6.568   2.993 -0.1489  0.4164 -0.5081
 2677poe    c2314841   4.473   6.505   3.106  0.0387  0.3893 -0.4273
 2677poe    c2314842   4.570   6.514   3.224  0.3954 -0.2833 -0.6651
 2677poe     o214843   4.686   6.439   3.195  0.3043 -0.6942 -0.0058
 2677poe    c3114844   4.756   6.412   3.315 -0.0975 -0.8389  0.1972
 2678poe    c3114845   0.101   0.338   4.402 -0.2886 -0.2651 -0.4754
 2678poe     o214846   0.210   0.396   4.471 -0.1724 -0.1747 -0.7338
 2678poe    c2314847   0.184   0.534   4.462 -0.6883 -0.2145  0.0819
 2678poe    c2314848   0.293   0.598   4.550 -0.4584 -0.6104  0.0848
 2678poe     o214849   0.273   0.594   4.690  0.3304  0.0691  0.2242
 2678poe    c2314850   0.395   0.588   4.761  0.5741 -0.2103 -0.2090
 2678poe    c2314851   0.386   0.526   4.902 -0.0324  0.2172 -0.0570
 2678poe     o214852   0.292   0.599   4.978 -0.0692  0.1938 -0.0801
 2678poe    c2314853   0.245   0.531   5.092  0.3333  0.5461  0.2970
 2678poe    c2314854   0.143   0.417   5.076  0.4246  0.5470 -0.3214
 2678poe     o214855   0.040   0.472   4.997  0.0119  0.2883  0.0296
 2678poe    c3114856  -0.087   0.462   5.057 -0.2207  0.5626 -0.4121
 2679poe    c3114857   5.544   1.026   2.776 -0.3427 -1.0236 -0.4197
 2679poe     o214858   5.646   0.995   2.868 -0.4078  0.3064  0.1211
 2679poe    c2314859   5.610   1.045   2.995 -0.4335  0.5531  0.0164
 2679poe    c2314860   5.724   1.025   3.095  0.0319 -0.2818 -0.6732
 2679poe     o214861   5.814   1.133   3.102 -0.0258 -0.2697  0.0325
 2679poe    c2314862   5.902   1.125   3.211 -0.5925  0.5772  0.5731
 2679poe    c2314863   6.007   1.236   3.198 -0.1289  0.0347 -0.4742
 2679poe     o214864   5.976   1.350   3.275  0.5540  0.1883 -0.4191
 2679poe    c2314865   6.086   1.437   3.257  0.8387 -0.0865 -0.0263
 2679poe    c2314866   6.035   1.574   3.212 -0.0558 -0.2469  0.4724
 2679poe     o214867   5.944   1.633   3.303 -0.0648 -0.0360  0.3279
 2679poe    c3114868   5.908   1.763   3.262 -0.3227 -0.3451 -0.4631
 2680poe    c3114869   1.564   1.195   5.057 -0.6125 -0.3140  0.3967
 2680poe     o214870   1.470   1.246   4.965 -0.1311  0.3707  0.2747
 2680poe    c2314871   1.404   1.130   4.921  0.0972  0.3656 -0.0498
 2680poe    c2314872   1.276   1.155   4.839  0.2942  0.5265 -0.3113
 2680poe     o214873   1.180   1.229   4.912 -0.1225 -0.4591  0.1477
 2680poe    c2314874   1.060   1.228   4.838 -0.0978 -0.0124  0.0988
 2680poe    c2314875   0.958   1.298   4.930  0.0093  0.5479 -0.2059
 2680poe     o214876   1.017   1.403   5.003 -0.0318  0.2630  0.2352
 2680poe    c2314877   0.926   1.471   5.087 -0.0957  0.2903  0.1442
 2680poe    c2314878   0.990   1.575   5.182 -0.3363 -0.1232  0.7626
 2680poe     o214879   1.108   1.509   5.222 -0.1336 -0.4556 -0.3413
 2680poe    c3114880   1.165   1.564   5.339  0.8544 -0.3923 -0.8444
 2681poe    c3114881   0.847   6.588   4.991 -0.1564 -0.0046  0.2776
 2681poe     o214882   0.824   6.687   5.089 -0.3694 -0.1521  0.3773
 2681poe    c2314883   0.685   6.687   5.108 -0.4363  1.1353 -0.0570
 2681poe    c2314884   0.666   6.711   5.259 -0.0265 -0.6750  0.3041
 2681poe     o214885   0.737   6.832   5.278 -0.2603 -0.3112 -1.0482
 2681poe    c2314886   0.735   6.885   5.408 -0.0087 -0.2998 -1.0475
 2681poe    c2314887   0.839   6.998   5.402 -0.3526  0.0699 -0.3079
 2681poe     o214888   0.958   6.939   5.352 -0.2810  0.3237 -0.4370
 2681poe    c2314889   1.076   7.013   5.374 -0.1371  0.0692 -0.3546
 2681poe    c2314890   1.098   7.129   5.276  0.3192  0.2468 -0.0452
 2681poe     o214891   1.134   7.085   5.147 -0.5337  0.4579 -0.3625
 2681poe    c3114892   1.164   7.191   5.059 -0.1000  0.9780  0.4001
 2682poe    c3114893   1.268   0.213   0.452  0.2005 -0.3252 -0.7468
 2682poe     o214894   1.346   0.322   0.408 -0.7284  0.8140  0.3595
 2682poe    c2314895   1.364   0.301   0.270  0.8291 -0.2844  0.7061
 2682poe    c2314896   1.432   0.420   0.200  0.5845 -0.3730  0.3157
 2682poe     o214897   1.570   0.443   0.218  0.6573 -0.3166 -0.2911
 2682poe    c2314898   1.594   0.577   0.182 -0.1704 -0.2229 -0.5294
 2682poe    c2314899   1.747   0.594   0.167 -0.1168 -0.5287 -0.3226
 2682poe     o214900   1.818   0.532   0.272 -0.2212  0.2868  0.2379
 2682poe    c2314901   1.955   0.557   0.250 -0.2578  0.2518 -0.0351
 2682poe    c2314902   2.045   0.471   0.340 -0.2319  0.3795  0.0611
 2682poe     o214903   2.022   0.336   0.305 -0.2528  0.1843  0.8095
 2682poe    c3114904   2.136   0.260   0.338 -0.1531 -0.0815 -0.1224
 2683poe    c3114905   0.102   5.239   5.230  0.2448 -0.0517  0.5581
 2683poe     o214906   0.009   5.331   5.178 -0.2217 -0.5710  0.4618
 2683poe    c2314907   0.082   5.423   5.100 -0.7653 -0.3242  0.2387
 2683poe    c2314908  -0.012   5.498   5.003  0.3739  0.3311 -0.3774
 2683poe     o214909  -0.053   5.412   4.899  0.4399 -0.3266  0.1295
 2683poe    c2314910  -0.138   5.472   4.803  0.0086 -0.1623  0.6121
 2683poe    c2314911  -0.182   5.381   4.687 -0.2253  0.4928  0.1875
 2683poe     o214912  -0.090   5.362   4.581 -0.0084 -0.4425  0.5388
 2683poe    c2314913  -0.135   5.416   4.459  0.7207 -0.1707  0.3892
 2683poe    c2314914  -0.046   5.369   4.342 -0.1095 -0.6210 -0.0634
 2683poe     o214915   0.090   5.405   4.351 -0.1351 -0.5928  0.2183
 2683poe    c3114916   0.168   5.366   4.241 -0.5894 -0.0743 -0.2954
 2684poe    c3114917   3.633   3.517   1.122 -0.1649 -0.0860 -0.0201
 2684poe     o214918   3.681   3.650   1.110 -0.2460 -0.0361  0.2054
 2684poe    c2314919   3.720   3.702   0.985  0.2062 -0.2823  0.2448
 2684poe    c2314920   3.813   3.824   0.993  0.4696 -0.4673  0.0429
 2684poe     o214921   3.759   3.911   1.090 -0.1723 -0.3698 -0.3967
 2684poe    c2314922   3.813   4.039   1.113 -0.1313 -0.3292 -0.7178
 2684poe    c2314923   3.763   4.074   1.254 -0.2750 -0.3899 -0.7545
 2684poe     o214924   3.772   3.970   1.349 -0.3461  0.2350 -0.0524
 2684poe    c2314925   3.737   3.996   1.483 -0.2313  0.0438  0.0147
 2684poe    c2314926   3.605   4.069   1.515 -0.1707  0.2655 -0.2442
 2684poe     o214927   3.496   4.020   1.440 -0.2267 -0.0895  0.0693
 2684poe    c3114928   3.375   4.028   1.513 -0.3807 -0.6699 -0.1219
 2685poe    c3114929   5.335   4.468   4.052 -0.3333 -0.1604  0.0702
 2685poe     o214930   5.423   4.541   3.970 -0.1962  0.1787  0.5147
 2685poe    c2314931   5.346   4.651   3.926 -0.1104 -0.0253 -0.1622
 2685poe    c2314932   5.365   4.669   3.775  0.1871 -0.0434 -0.1279
 2685poe     o214933   5.488   4.729   3.741  0.2977 -0.1030  0.1648
 2685poe    c2314934   5.531   4.712   3.608 -0.3063 -0.0899 -0.0348
 2685poe    c2314935   5.664   4.786   3.586 -0.1503 -0.2164  0.4873
 2685poe     o214936   5.647   4.926   3.585 -0.1941 -0.2231  0.1413
 2685poe    c2314937   5.770   4.981   3.628 -0.4699  0.6084 -0.1198
 2685poe    c2314938   5.841   5.065   3.520  0.0867 -0.1119 -0.3267
 2685poe     o214939   5.815   5.204   3.526  0.1528 -0.1060 -0.1531
 2685poe    c3114940   5.913   5.266   3.445  0.3470  0.2140  0.3218
 2686poe    c3114941   0.818   4.446   3.023 -0.1894  0.3167  0.3453
 2686poe     o214942   0.871   4.334   2.956 -0.3422  0.4157  0.0563
 2686poe    c2314943   0.762   4.246   2.946 -0.0892 -0.0239  1.0363
 2686poe    c2314944   0.813   4.107   2.903 -0.2260  0.2008  0.1203
 2686poe     o214945   0.905   4.135   2.801 -0.8019 -0.5486 -0.6245
 2686poe    c2314946   0.967   4.018   2.753 -0.2182 -0.5321  0.0818
 2686poe    c2314947   1.057   4.053   2.633  0.1458  0.6976  0.6862
 2686poe     o214948   0.978   4.105   2.528  0.1407  0.1348  0.4067
 2686poe    c2314949   1.057   4.144   2.418 -1.0440 -0.3482 -0.6381
 2686poe    c2314950   1.009   4.275   2.351 -0.9007  0.2280  0.3611
 2686poe     o214951   1.023   4.379   2.445 -0.1109  0.3850  0.0762
 2686poe    c3114952   1.055   4.502   2.384 -0.4083  0.2214 -0.4104
 2687poe    c3114953   3.903   1.234   0.354 -0.2907 -0.1475  0.1779
 2687poe     o214954   3.859   1.105   0.320 -0.6146  0.0481 -0.1477
 2687poe    c2314955   3.902   1.062   0.193  0.4260  0.2143  0.1455
 2687poe    c2314956   3.804   1.078   0.076  0.3609 -0.5855  0.0806
 2687poe     o214957   3.776   0.953   0.017 -0.5209 -0.4594  0.2129
 2687poe    c2314958   3.674   0.974  -0.078 -0.2192  0.3312  0.0551
 2687poe    c2314959   3.723   1.008  -0.220  0.0544  0.2476  0.1285
 2687poe     o214960   3.786   0.902  -0.290 -0.4009  0.1312 -0.1094
 2687poe    c2314961   3.788   0.946  -0.424 -0.5479  0.6307  0.0488
 2687poe    c2314962   3.894   0.866  -0.502 -0.3329  0.9738 -0.0105
 2687poe     o214963   4.018   0.877  -0.436 -0.3873  0.3918  0.1913
 2687poe    c3114964   4.109   0.792  -0.501 -0.4245  0.1738  0.4207
 2688poe    c3114965   7.049   3.545   5.334  0.0409  0.1779  0.3932
 2688poe     o214966   7.186   3.553   5.369  0.2752 -0.5771 -0.3334
 2688poe    c2314967   7.255   3.635   5.278 -0.5268  0.2378 -0.2176
 2688poe    c2314968   7.328   3.753   5.344 -0.4437  0.1050 -0.0731
 2688poe     o214969   7.258   3.868   5.387 -0.1212  0.2202  0.1461
 2688poe    c2314970   7.338   3.949   5.470  0.1452  0.0488  0.0595
 2688poe    c2314971   7.271   4.080   5.515 -0.1155 -0.0617 -0.0052
 2688poe     o214972   7.227   4.151   5.401  0.1083 -0.0725 -0.0997
 2688poe    c2314973   7.169   4.273   5.441  0.5117  0.0756  0.0329
 2688poe    c2314974   7.207   4.372   5.330 -0.3165  0.7610  0.3559
 2688poe     o214975   7.163   4.315   5.209 -0.1826  0.5073  0.4260
 2688poe    c3114976   7.154   4.414   5.109 -0.7685 -0.3331 -0.3695
 2689poe    c3114977   5.281   0.841   2.514 -0.6264  0.1793  0.4933
 2689poe     o214978   5.143   0.851   2.542 -0.6734  0.0818  0.2973
 2689poe    c2314979   5.109   0.964   2.619 -0.2496  0.4246 -0.0187
 2689poe    c2314980   4.955   0.976   2.625 -0.2973 -0.2861  0.2262
 2689poe     o214981   4.908   0.871   2.707 -0.0824 -0.1745  0.4980
 2689poe    c2314982   4.843   0.930   2.817 -0.0215  0.3275  0.2686
 2689poe    c2314983   4.770   0.828   2.907 -0.0756  0.0711 -0.0664
 2689poe     o214984   4.849   0.731   2.973 -0.0152 -0.2191 -0.5563
 2689poe    c2314985   4.764   0.669   3.067 -0.1299 -0.0811 -0.5680
 2689poe    c2314986   4.839   0.568   3.156 -0.0921  0.0059 -0.5006
 2689poe     o214987   4.851   0.433   3.117  0.8415 -0.0397 -0.0621
 2689poe    c3114988   4.740   0.359   3.163  0.4812  0.1717 -0.5957
 2690poe    c3114989   0.592   7.142   0.787 -0.9131  0.4325 -0.2240
 2690poe     o214990   0.640   7.151   0.919 -1.2082  0.1935 -0.1002
 2690poe    c2314991   0.617   7.274   0.983  0.3321  0.4340  0.0190
 2690poe    c2314992   0.569   7.252   1.127 -0.2782  0.5661 -0.1639
 2690poe     o214993   0.673   7.232   1.220 -1.0994  0.1386  0.6769
 2690poe    c2314994   0.705   7.349   1.292  0.4649  0.6011 -0.7216
 2690poe    c2314995   0.824   7.323   1.386 -0.1255 -0.1799 -0.1748
 2690poe     o214996   0.823   7.196   1.449  0.6161 -0.1861 -0.1648
 2690poe    c2314997   0.945   7.172   1.515  0.3397 -0.7306  0.1474
 2690poe    c2314998   0.928   7.033   1.580  0.0881 -0.7221  0.1015
 2690poe     o214999   0.931   6.943   1.471 -0.7487 -0.1738 -0.3824
 2690poe    c3115000   0.955   6.807   1.498  0.3945  0.0459 -0.2408
 2691poe    c3115001   1.262   6.129   5.573  0.0409 -0.5419  0.2045
 2691poe     o215002   1.302   6.130   5.437  0.5240  0.0212  0.3434
 2691poe    c2315003   1.428   6.067   5.432  0.4628 -0.1027  0.3477
 2691poe    c2315004   1.491   6.080   5.292  0.1676  0.4890  0.2663
 2691poe     o215005   1.514   6.208   5.239  0.1449  0.4656  0.1996
 2691poe    c2315006   1.595   6.202   5.124 -0.6896  0.2380 -0.3825
 2691poe    c2315007   1.655   6.341   5.094  0.5868 -0.2755 -0.2857
 2691poe     o215008   1.723   6.405   5.199  0.2823 -0.4325  0.0090
 2691poe    c2315009   1.801   6.512   5.152  0.1876 -0.2518  0.2619
 2691poe    c2315010   1.917   6.583   5.226  0.1925  0.2966 -0.2592
 2691poe     o215011   1.890   6.702   5.297  0.0210  0.4595 -0.5964
 2691poe    c3115012   1.990   6.753   5.381  0.4338 -0.2370 -0.6532
 2692poe    c3115013   1.707   2.764   5.296 -0.3416  0.5738  0.1887
 2692poe     o215014   1.783   2.834   5.393  0.1367 -0.2854  0.4467
 2692poe    c2315015   1.817   2.962   5.345 -0.3135 -0.2950  0.0911
 2692poe    c2315016   1.913   3.006   5.457 -0.5419 -0.1416  0.2272
 2692poe     o215017   1.838   3.016   5.576 -0.3733  0.0773  0.3166
 2692poe    c2315018   1.925   3.052   5.680  0.1664  0.5514 -0.2878
 2692poe    c2315019   1.863   3.151   5.780  0.1099  0.3991 -0.1714
 2692poe     o215020   1.749   3.093   5.840  0.3955 -0.1681 -0.1693
 2692poe    c2315021   1.695   3.169   5.946 -0.0483 -0.1098 -0.4342
 2692poe    c2315022   1.560   3.108   5.990 -0.3392  0.6535 -0.2551
 2692poe     o215023   1.500   3.059   5.873 -0.0182  0.3049 -0.2751
 2692poe    c3115024   1.409   2.959   5.913  0.4217 -0.0738 -0.2168
 2693poe    c3115025   3.961   2.875   2.400  0.1576  0.1579 -0.2016
 2693poe     o215026   3.934   2.876   2.261 -0.3013 -0.1820 -0.1175
 2693poe    c2315027   4.027   2.955   2.190 -0.5145  0.0146 -0.1806
 2693poe    c2315028   4.037   2.915   2.041  0.2590 -0.1389 -0.0932
 2693poe     o215029   3.912   2.951   1.987  0.3392  0.4030  0.0672
 2693poe    c2315030   3.931   2.939   1.848 -0.0814  0.0673  0.0345
 2693poe    c2315031   3.791   2.971   1.791 -0.2307 -0.4559  0.1040
 2693poe     o215032   3.683   2.897   1.842 -0.3292 -0.4650 -0.1219
 2693poe    c2315033   3.558   2.933   1.786 -0.3176  1.1988  0.8688
 2693poe    c2315034   3.462   2.821   1.827  0.4225  0.3119  0.2323
 2693poe     o215035   3.472   2.786   1.963  0.3671  0.1901  0.2056
 2693poe    c3115036   3.391   2.858   2.053  0.4248  0.7041 -0.1525
 2694poe    c3115037   4.306   0.771   2.829 -0.0043  0.9015 -0.3562
 2694poe     o215038   4.322   0.731   2.964 -0.3858  0.3804 -0.4648
 2694poe    c2315039   4.222   0.645   3.016 -0.0177  0.0273 -0.3365
 2694poe    c2315040   4.266   0.579   3.148  0.0126 -0.0541 -0.3881
 2694poe     o215041   4.255   0.648   3.270  0.0399  0.4062 -0.6445
 2694poe    c2315042   4.117   0.639   3.299  0.1900  0.1285 -0.0131
 2694poe    c2315043   4.067   0.697   3.433 -0.0867  0.1112 -0.1088
 2694poe     o215044   4.070   0.600   3.536 -0.3414 -0.0234 -0.2283
 2694poe    c2315045   4.186   0.602   3.616 -0.6751 -0.1988  0.2608
 2694poe    c2315046   4.226   0.471   3.688 -0.5463 -0.5121 -0.3702
 2694poe     o215047   4.130   0.430   3.783 -0.1795  0.2026  0.3172
 2694poe    c3115048   4.172   0.310   3.845 -0.3709 -0.0932 -0.1287
 2695poe    c3115049   5.178   1.169   1.593 -0.4249  0.1571 -0.0545
 2695poe     o215050   5.103   1.154   1.711  0.0088  0.0737  0.2148
 2695poe    c2315051   4.966   1.132   1.687  0.0509  0.1050 -0.0589
 2695poe    c2315052   4.880   1.174   1.808 -0.0369 -0.1286 -0.0395
 2695poe     o215053   4.932   1.107   1.921  0.2681  0.1909  0.0107
 2695poe    c2315054   4.876   1.162   2.038  0.2111  0.3038 -0.0692
 2695poe    c2315055   4.957   1.111   2.158  0.2353 -0.1594 -0.2800
 2695poe     o215056   5.087   1.165   2.157  0.2058 -0.0909 -0.3737
 2695poe    c2315057   5.169   1.157   2.272  0.1830  0.7710 -0.2904
 2695poe    c2315058   5.254   1.282   2.303 -0.0860  0.8436  0.1569
 2695poe     o215059   5.288   1.358   2.189  0.0222 -0.1823 -0.5085
 2695poe    c3115060   5.399   1.437   2.225  0.3948 -1.0667  0.3344
 2696poe    c3115061   7.027   3.243   1.740 -0.3874 -0.0497 -0.1236
 2696poe     o215062   7.103   3.199   1.851  0.4798 -0.0051 -0.6842
 2696poe    c2315063   7.096   3.059   1.859 -0.6266  0.0674 -0.2388
 2696poe    c2315064   7.193   3.021   1.972  0.3666  0.9666 -0.7691
 2696poe     o215065   7.152   3.109   2.074  0.3877  0.1733 -0.0589
 2696poe    c2315066   7.233   3.085   2.186 -0.3497 -0.7345  0.2990
 2696poe    c2315067   7.198   3.194   2.290  0.1256 -0.2328 -0.0624
 2696poe     o215068   7.192   3.321   2.229  0.7351 -0.2487 -0.1615
 2696poe    c2315069   7.251   3.415   2.315 -0.1136  0.2495 -0.1146
 2696poe    c2315070   7.239   3.557   2.255  0.1857  0.2391 -0.2007
 2696poe     o215071   7.334   3.584   2.154  0.1106 -0.0886 -0.3608
 2696poe    c3115072   7.295   3.698   2.081  0.0938  0.6200  0.7346
 2697poe    c3115073   3.571   6.953   5.160  0.4826 -0.5178  0.1848
 2697poe     o215074   3.538   6.831   5.222  0.0173 -0.3823  0.2033
 2697poe    c2315075   3.603   6.815   5.346 -0.3328  0.5547  0.5191
 2697poe    c2315076   3.577   6.684   5.423  0.0646  0.2818  0.1943
 2697poe     o215077   3.439   6.653   5.428  0.1358 -0.1121 -0.2190
 2697poe    c2315078   3.406   6.538   5.503 -0.1271 -0.2855 -0.6003
 2697poe    c2315079   3.253   6.518   5.507 -0.1432 -0.2613 -1.0689
 2697poe     o215080   3.175   6.615   5.573  0.4975 -0.5380  0.1106
 2697poe    c2315081   3.165   6.593   5.712 -0.4496  0.0230  0.1394
 2697poe    c2315082   3.131   6.717   5.797 -0.3352 -0.0470  0.2903
 2697poe     o215083   2.997   6.752   5.769 -0.5640 -0.8088  0.4276
 2697poe    c3115084   2.952   6.856   5.851  0.0095 -0.2652  0.0638
 2698poe    c3115085   2.352   0.885   5.831  0.0837 -0.1432 -0.0743
 2698poe     o215086   2.431   0.836   5.937 -0.1481 -0.1171  0.1122
 2698poe    c2315087   2.396   0.706   5.976 -0.7117  0.1126  0.3751
 2698poe    c2315088   2.465   0.658   6.105  0.1520  0.5065  0.0652
 2698poe     o215089   2.595   0.607   6.084  0.0005  0.0495  0.2218
 2698poe    c2315090   2.657   0.594   6.210 -0.1422 -0.6548  0.2250
 2698poe    c2315091   2.805   0.564   6.179 -0.0636  0.2188 -0.2871
 2698poe     o215092   2.803   0.460   6.083 -0.2458 -0.2834  0.2510
 2698poe    c2315093   2.935   0.427   6.048 -0.1757  0.4863 -0.2313
 2698poe    c2315094   2.941   0.361   5.909 -0.6367 -0.3476  0.1404
 2698poe     o215095   2.851   0.432   5.826  0.1244  0.1703 -0.2469
 2698poe    c3115096   2.853   0.390   5.692 -0.0947 -0.1881 -0.1375
 2699poe    c3115097   3.862   3.980   3.984 -0.1187 -0.4421 -1.1751
 2699poe     o215098   3.823   3.854   4.034 -0.0507  0.0060  0.0330
 2699poe    c2315099   3.685   3.835   4.050 -0.0593  0.0053 -0.0409
 2699poe    c2315100   3.629   3.749   4.165  0.1186 -0.2658 -0.1576
 2699poe     o215101   3.667   3.614   4.149  0.1650 -0.2222 -0.4149
 2699poe    c2315102   3.650   3.535   4.264  0.7494 -0.1602 -0.2839
 2699poe    c2315103   3.623   3.386   4.234  0.7852 -0.2404  0.0760
 2699poe     o215104   3.701   3.337   4.128  0.1942 -0.3132 -0.3309
 2699poe    c2315105   3.650   3.224   4.061 -0.2903 -0.1580 -0.2273
 2699poe    c2315106   3.744   3.168   3.952  0.6568  0.2801  0.3574
 2699poe     o215107   3.757   3.272   3.858 -0.3919 -0.4186 -0.5691
 2699poe    c3115108   3.828   3.220   3.748 -0.6563 -0.2321 -0.8301
 2700poe    c3115109   0.842   5.240   1.383 -0.0942 -0.7159  0.4103
 2700poe     o215110   0.931   5.305   1.471  0.2178 -0.5008 -0.0593
 2700poe    c2315111   1.069   5.283   1.450  0.3009 -0.1396  0.0940
 2700poe    c2315112   1.147   5.329   1.574  0.1058  0.3329  0.0440
 2700poe     o215113   1.113   5.463   1.600 -0.3741  0.2936 -0.3667
 2700poe    c2315114   1.226   5.548   1.598 -0.1554  0.0588  0.9626
 2700poe    c2315115   1.194   5.699   1.597 -0.2067  0.0510 -0.2126
 2700poe     o215116   1.079   5.700   1.680  0.0938 -0.4651  0.2132
 2700poe    c2315117   1.042   5.834   1.703  0.0129 -0.4481 -0.0065
 2700poe    c2315118   0.955   5.833   1.831 -0.5211  0.4092 -0.3543
 2700poe     o215119   0.908   5.701   1.845  0.3363  0.1592  0.2527
 2700poe    c3115120   0.846   5.694   1.972 -0.0127 -0.0964  0.0697
 2701lim     li15121   1.952   0.355   3.770  0.2133  0.8018  0.4849
 2702lim     li15122   2.150   1.590   0.165  0.0505 -0.4222  0.1299
 2703lim     li15123   1.007   6.490   0.266 -0.6920  0.0209 -0.4302
 2704lim     li15124   0.255   5.545   4.651  0.4834 -0.6333  0.3949
 2705lim     li15125   5.558   0.765   4.457  0.0317 -0.6285 -0.0987
 2706lim     li15126   7.090   2.944   2.750  1.8510  0.2119 -0.3888
 2707lim     li15127   4.124   3.620   4.121 -0.3312 -0.0625  0.4875
 2708lim     li15128   5.990   6.353   7.067  0.7469 -0.3833  0.3672
 2709lim     li15129   1.220   6.145   6.953 -0.2262 -0.7911  0.2170
 2710lim     li15130   1.633   6.718   0.572  0.3884 -0.8157 -0.0086
 2711lim     li15131   5.083   3.928   6.021 -0.1513 -0.0876 -0.1132
 2712lim     li15132   2.609   0.010   4.257  0.7383  0.9082 -0.5813
 2713lim     li15133   1.305   3.153   6.689  0.3377 -0.3542 -0.0099
 2714lim     li15134   2.125   5.790   2.257  1.1295  0.6816  0.7175
 2715lim     li15135   1.717   1.272   5.525 -0.5957 -1.1196 -0.6656
 2716lim     li15136   5.710   3.416   6.189  0.3874 -0.2684  0.5749
 2717lim     li15137   1.011   4.552   6.898  0.6412 -0.5555 -0.1829
 2718lim     li15138   1.088   5.050   2.158 -1.1587  0.7923  0.1752
 2719lim     li15139   6.063   2.212   6.934 -0.6350 -0.8981  0.4352
 2720lim     li15140   1.149   3.284   4.895 -1.2342 -0.4077  0.9994
 2721lim     li15141   6.151   1.353   6.388  0.3435 -0.4869 -0.0649
 2722lim     li15142   0.085   5.275   6.047 -0.1713 -0.4638 -0.5666
 2723lim     li15143   6.968   6.927   1.753 -0.7024  0.5316 -0.0868
 2724lim     li15144   0.533   2.707   5.810 -1.0595 -0.9510  1.2205
 2725lim     li15145   3.507   2.000   0.370  0.4508 -0.3951  0.3686
 2726lim     li15146   6.936   3.200   6.828 -0.4948  0.1476 -0.9214
 2727lim     li15147   0.786   5.337   3.524 -0.2778  0.3767 -0.0858
 2728lim     li15148   4.839   6.070   6.240 -0.6484  0.6025  1.2121
 2729lim     li15149   1.757   4.768   7.063 -0.2664  0.2423  0.1916
 2730lim     li15150   4.329   3.844   5.913  0.1722 -0.1209 -0.8355
 2731lim     li15151   1.929   3.311   4.141 -0.3598 -0.9444  0.5437
 2732lim     li15152   2.695   1.736   5.857 -0.0921 -0.2393 -0.3705
 2733lim     li15153   2.947   6.931   1.588  0.7472 -0.4744 -0.4418
 2734lim     li15154   1.274   5.215   3.886  0.2687 -0.9591  0.0490
 2735lim     li15155   4.868   2.383   0.142 -0.6019  0.5751 -0.6571
 2736lim     li15156   3.056   2.472   6.295 -0.2488  1.1932 -0.5228
 2737lim     li15157   1.602   2.519   3.883 -0.3092 -2.0759  0.8665
 2738lim     li15158   1.849   3.677   1.041 -0.7928  0.3337  0.8285
 2739lim     li15159   0.271   4.333   4.340 -0.0048 -0.4836 -0.8307
 2740lim     li15160   6.711   0.909   4.045 -1.5331 -0.3431 -1.2276
 2741lim     li15161   0.922   6.815   5.211 -1.1257 -0.6911 -0.1868
 2742lim     li15162   5.141   4.195   3.044 -0.4279 -0.4061 -0.3262
 2743lim     li15163   5.915   3.178   3.317  0.1118 -0.6153 -1.2585
 2744lim     li15164   4.601   3.089   3.375  0.3042 -1.8080 -1.5388
 2745lim     li15165   5.956   1.644   2.189  0.0213  0.9627 -0.4004
 2746lim     li15166   5.957   0.801   2.627 -0.1971  0.2572  0.7724
 2747lim     li15167   3.400   7.061   4.354 -0.3584 -1.2060  0.1850
 2748lim     li15168   1.791   4.722   1.941  0.1658  0.2058  0.3965
 2749lim     li15169   6.497   4.408   0.533  0.3983 -1.7552 -0.7289
 2750lim     li15170   2.473   5.211   5.580 -1.0818  1.0290  0.6056
 2751lim     li15171   3.797   2.182   5.612 -0.4643  0.3273 -0.5382
 2752lim     li15172   4.497   2.256   2.828 -0.7787  1.1861 -0.5945
 2753lim     li15173   3.244   5.271   3.796 -0.1013  0.8884 -0.2536
 2754lim     li15174   3.515   6.988   1.403 -0.7741 -0.6182 -0.0741
 2755lim     li15175   6.425   3.413   6.122  0.8660 -1.2526 -0.1530
 2756lim     li15176   4.334   6.593   5.362  0.0762  0.4481  0.3901
 2757lim     li15177   1.402   1.764   1.581  0.2658 -0.9277  0.5126
 2758lim     li15178   6.305   0.053   3.950 -0.7690  0.7979  0.6926
 2759lim     li15179   0.841   1.997   3.550 -0.7108 -0.5077  0.0320
 2760lim     li15180   0.814   0.945   2.744  0.0177  0.2521  1.5770
 2761lim     li15181   0.712   0.457   6.500  0.4916 -0.8406  0.3382
 2762lim     li15182   5.930   0.555   3.910  0.7035 -0.8806 -0.2907
 2763lim     li15183   0.841   2.236   2.353  0.1469 -0.6209 -1.1256
 2764lim     li15184   4.844   5.624   4.933 -1.3434  0.0172 -0.6413
 2765lim     li15185   6.691   5.966   6.279 -0.6014  0.1891  0.7197
 2766lim     li15186   6.833   6.853   6.714  0.3767 -0.2509 -0.5271
 2767lim     li15187   5.722   4.009   5.069  0.0354  0.1611 -0.3753
 2768lim     li15188   0.619   3.862   2.430 -0.5331  0.4705  0.1336
 2769lim     li15189   3.287   0.768   2.871 -1.8100  0.2307 -0.0584
 2770lim     li15190   0.321   0.023   5.624 -0.5803  1.4227 -0.0908
 2771lim     li15191   3.442   2.440   4.407  0.2037 -0.1715  0.3954
 2772lim     li15192   6.467   5.418   4.277  0.2595 -0.1542  0.3171
 2773lim     li15193   4.543   5.897   3.308 -0.4604 -0.2066 -0.8954
 2774lim     li15194   4.667   3.871   4.671  0.4611 -0.5665 -0.4950
 2775lim     li15195   6.852   0.636   1.233  0.5981  0.7693 -0.2539
 2776lim     li15196   5.595   3.301   2.012 -0.1423  0.8356  0.2186
 2777lim     li15197   5.610   5.541   3.641 -0.0599 -0.8891  0.5773
 2778lim     li15198   0.564   4.777   4.987 -0.1759  0.1485  0.4667
 2779lim     li15199   3.894   0.566   4.117 -0.5104 -0.1575  0.4400
 2780lim     li15200   1.122   2.948   0.559  0.6837  0.0058  0.1556
 2781lim     li15201   2.131   2.575   0.314 -0.7007  0.1585  1.5858
 2782lim     li15202   3.016   4.226   0.671  0.5473  0.6443 -0.8353
 2783lim     li15203   3.672   2.806   1.995 -0.6791  0.9571  0.2244
 2784lim     li15204   0.132   4.521   7.139 -0.5157  0.4693 -0.5411
 2785lim     li15205   3.062   2.901   7.027  0.5349 -0.5223 -0.2789
 2786lim     li15206   2.384   7.080   6.141 -0.1899  0.6907 -0.3086
 2787lim     li15207   6.483   4.984   1.374 -0.0933  0.0644  0.0382
 2788lim     li15208   5.107   3.765   0.855  0.2990 -0.5047  0.0831
 2789lim     li15209   0.291   5.973   2.453 -0.1656  0.2300 -0.1307
 2790lim     li15210   0.851   3.370   1.360 -0.4826 -0.3367  0.2541
 2791lim     li15211   2.550   2.563   4.073 -1.2843  0.7492 -0.3200
 2792lim     li15212   2.552   5.876   1.183  0.2208 -0.1167  0.0247
 2793lim     li15213   3.856   2.275   3.850  0.2574 -0.7138 -0.0024
 2794lim     li15214   5.177   0.420   3.228 -0.4844  0.2897  0.1878
 2795lim     li15215   5.428   3.646   4.215  0.1852 -0.4910 -0.4631
 2796lim     li15216   3.451   4.208   6.419  0.2622 -0.9624 -0.1341
 2797lim     li15217   7.174   6.549   0.951 -0.2262 -1.4586 -0.3554
 2798lim     li15218   1.631   3.682   3.379  0.4929 -1.7129  0.5853
 2799lim     li15219   1.859   2.066   2.312 -1.1058  0.3067  0.1519
 2800lim     li15220   1.712   5.079   0.854 -0.4089 -0.3090  0.7210
 2801lim     li15221   3.804   4.171   2.417  1.1072  0.2782 -0.2267
 2802lim     li15222   2.305   5.337   2.956  1.0739 -0.3474 -0.6184
 2803lim     li15223   7.172   4.128   5.218 -1.1610 -0.8070 -0.4317
 2804lim     li15224   6.544   1.153   5.480 -0.0010 -0.0276  0.4182
 2805lim     li15225   1.744   7.076   6.592 -0.2242 -0.7851  0.0373
 2806lim     li15226   4.344   0.821   1.295  0.2561  0.6732  0.7975
 2807lim     li15227   3.184   5.501   4.308  0.5746  0.3758  0.9251
 2808lim     li15228   6.059   2.244   0.650  0.3148 -0.0780 -0.3765
 2809lim     li15229   0.808   3.164   2.337  0.3382 -0.5240  1.0380
 2810lim     li15230   2.633   5.684   5.036  0.0949  0.0286  1.0034
 2811lim     li15231   0.396   3.320   3.825 -0.4008 -0.6813  0.1245
 2812lim     li15232   4.559   3.100   2.838 -0.0609 -0.5158  0.0025
 2813lim     li15233   6.598   4.218   2.932 -0.4602  0.7850 -0.0737
 2814lim     li15234   5.016   0.261   7.054  0.0659  0.8958 -0.4190
 2815lim     li15235   6.290   0.734   1.945 -0.1153 -0.0406  0.0703
 2816lim     li15236   2.722   2.979   2.313 -0.5522  0.4545 -1.1296
 2817lim     li15237   6.721   2.091   2.333  0.0380 -0.2478 -1.1463
 2818lim     li15238   4.289   2.453   0.104  0.2127 -1.6084  0.1982
 2819lim     li15239   1.846   1.173   2.258  0.6818 -1.4299 -0.3510
 2820lim     li15240   5.311   5.971   4.129  0.6007 -0.5567  0.0344
 2821lim     li15241   0.059   3.693   0.862  0.1815  0.6137  0.4620
 2822lim     li15242   2.629   6.658   3.014  0.4460 -0.3874  0.4116
 2823lim     li15243   2.848   5.606   0.514 -0.4817  0.7852  0.5820
 2824lim     li15244   2.774   0.777   5.203 -0.4123  0.4566 -0.7481
 2825lim     li15245   3.657   5.890   1.044 -0.6995  0.5603  0.4411
 2826lim     li15246   6.794   6.433   3.419 -0.1762  0.2195  0.0635
 2827lim     li15247   4.580   6.773   4.652 -0.5394 -0.6604  0.3598
 2828lim     li15248   3.276   1.489   4.731  0.0856  0.2483 -0.1157
 2829lim     li15249   1.874   1.517   3.617 -0.0611 -0.1522  1.6369
 2830lim     li15250   1.982   6.667   2.709  0.0910  1.0486  0.9199
 2831lim     li15251   5.076   1.679   1.995 -0.5289  0.1061 -0.2989
 2832lim     li15252   2.692   0.502   5.943  0.7148  0.6271 -0.5777
 2833lim     li15253   3.772   4.265   4.610  0.5311 -0.2032  0.7695
 2834lim     li15254   1.018   6.212   2.518  0.0481 -0.0870 -0.8711
 2835lim     li15255   1.181   1.371   5.090  0.2732 -0.1615 -0.1391
 2836lim     li15256   4.908   6.257   0.009  0.6502 -0.7463  0.4645
 2837lim     li15257   2.542   0.380   2.259  0.6939 -0.4584 -0.5537
 2838lim     li15258   3.377   2.015   6.913  0.5490 -0.0440  0.6532
 2839lim     li15259   0.731   0.510   0.811  0.1383 -1.0135  0.3866
 2840lim     li15260   4.076   0.096   0.528  0.3226 -0.5627 -0.1215
 2841lim     li15261   3.344   5.378   2.200  0.0572  0.6416 -0.0738
 2842lim     li15262   1.610   3.055   5.733  1.1359 -0.0243  0.3798
 2843lim     li15263   0.673   6.685   4.233 -0.2138 -1.0191 -0.2624
 2844lim     li15264   5.249   6.221   6.769 -0.2124  0.1936 -0.3360
 2845lim     li15265   5.924   5.356   5.635  0.1594  0.0686 -0.2619
 2846lim     li15266   0.195   5.972   1.891 -0.9209 -1.1097  0.2926
 2847lim     li15267   3.927   2.302   2.684  0.3364 -0.0724 -0.4767
 2848lim     li15268   4.979   5.361   1.853 -0.2084  0.4482 -0.1478
 2849lim     li15269   4.798   5.298   2.548  0.5481  0.3486  0.2133
 2850lim     li15270   5.779   2.946   1.044  0.1109 -0.1323 -0.7845
 2851lim     li15271   3.644   6.084   6.440  0.0899  0.8473  0.0320
 2852lim     li15272   0.871   4.146   1.560  0.1267 -0.3079  0.2655
 2853lim     li15273   5.062   7.100   0.472  0.2624 -0.2780 -0.2532
 2854lim     li15274   0.428   1.543   0.788  0.5740  0.2316 -0.8736
 2855lim     li15275   2.402   4.878   6.401 -0.6591  0.3084  0.2428
 2856lim     li15276   4.372   1.106   3.326  0.1824 -0.3957 -0.4542
 2857lim     li15277   5.735   0.624   5.653 -0.3903  0.9700 -0.4214
 2858lim     li15278   4.031   5.620   3.140  0.6084 -0.6080 -0.3135
 2859lim     li15279   4.462   5.321   4.671 -0.5874 -0.3977  0.3029
 2860lim     li15280   2.165   2.045   3.927  0.3867 -0.7815 -0.4433
 2861lim     li15281   1.391   1.615   4.152 -0.6123  1.0899 -0.1647
 2862lim     li15282   3.618   3.138   0.392 -0.0856 -0.5292 -0.7102
 2863lim     li15283   4.169   3.564   6.496 -0.7362  0.1076 -0.2179
 2864lim     li15284   6.518   4.736   6.107  0.3645 -0.5592 -0.0671
 2865lim     li15285   5.535   2.644   2.727 -0.1117  0.5766  0.6237
 2866lim     li15286   1.792   4.089   3.905 -0.9471  0.5564  0.6002
 2867lim     li15287   2.936   3.472   3.491  0.3368 -0.0025  0.6408
 2868lim     li15288   2.504   3.448   6.568  0.1863  0.6920  0.5135
 2869lim     li15289   3.270   1.318   3.609 -0.6916 -1.9405 -0.0326
 2870lim     li15290   1.272   6.368   3.239 -0.6491 -0.1158  0.3470
 2871lim     li15291   5.067   0.755   0.986  0.8386  0.4447 -0.1158
 2872lim     li15292   4.662   0.850   5.278 -0.4866 -1.0097 -0.0973
 2873lim     li15293   6.097   3.321   4.199  0.6121 -0.5327 -0.9030
 2874lim     li15294   3.377   2.190   1.950 -0.1644 -0.1823 -0.2978
 2875lim     li15295   5.189   1.896   0.934 -0.1410 -0.1371 -1.2968
 2876lim     li15296   2.547   5.712   6.099  0.0812  1.1711 -0.9198
 2877lim     li15297   5.115   2.810   0.799  1.2768 -0.1521  0.5029
 2878lim     li15298   5.323   6.489   4.556  0.4138 -0.2802 -0.2399
 2879lim     li15299   2.331   0.286   5.169  0.9392 -1.2535 -0.1691
 2880lim     li15300   3.593   1.114   5.845  0.8594 -0.2334  0.1214
 2881lim     li15301   1.002   4.048   3.845  0.3771 -1.3669 -0.0231
 2882lim     li15302   3.965   1.783   1.208 -0.6581  1.2232 -0.1378
 2883lim     li15303   6.894   4.340   3.551 -1.2101  0.7153  0.0868
 2884lim     li15304   3.319   3.261   4.758 -0.3379  0.6115 -0.3352
 2885lim     li15305   0.257   0.934   1.688 -0.5769 -0.2060  0.2783
 2886lim     li15306   4.681   4.351   5.265 -1.1480  0.0782  0.0108
 2887lim     li15307   3.449   0.856   2.055 -0.4794 -0.0800 -0.4151
 2888lim     li15308   7.028   4.254   2.296  0.5097 -0.2529  1.1651
 2889lim     li15309   3.219   6.143   6.187  0.5831  0.3245 -0.3027
 2890lim     li15310   5.936   5.656   2.982  0.7100 -0.1264 -1.1952
 2891lim     li15311   0.609   7.143   1.887  0.4489  0.0585  1.4798
 2892lim     li15312   3.642   2.744   6.684 -0.1890 -0.6661 -0.3321
 2893lim     li15313   2.381   2.129   5.869 -1.1827  0.3248  0.0017
 2894lim     li15314   2.235   6.964   7.008  0.5269  0.0237  0.2340
 2895lim     li15315   4.244   6.318   6.115 -0.1936 -0.4523  0.5367
 2896lim     li15316   4.705   6.412   2.783 -0.4806  0.7434 -0.0424
 2897lim     li15317   4.051   2.884   1.208  0.0116  0.8456 -0.4183
 2898lim     li15318   2.837   1.678   3.080  1.4873 -0.3727 -0.8910
 2899lim     li15319   5.743   2.696   6.125 -0.1747  0.4216  0.3353
 2900lim     li15320   4.253   5.475   1.764 -0.2484 -0.4100  1.4728
 2901lim     li15321   2.890   6.087   1.762  1.4965 -0.4676  0.8573
 2902lim     li15322   6.774   2.876   0.762 -1.0180 -0.5816  0.1812
 2903lim     li15323   7.059   1.272   5.167  0.1603  0.6743  0.4609
 2904lim     li15324   4.428   6.243   4.152 -0.2717  0.6744 -0.7916
 2905lim     li15325   3.290   4.696   1.588  0.3460  0.7092 -0.6760
 2906lim     li15326   1.676   4.804   5.054 -0.0624  0.2764 -0.0053
 2907lim     li15327   6.604   6.156   5.117 -0.5168 -0.1475  0.8775
 2908lim     li15328   1.955   2.783   4.784 -0.5347 -0.3983 -0.0231
 2909lim     li15329   2.145   7.153   1.297  0.8179 -0.9077 -0.5277
 2910lim     li15330   2.580   2.855   5.707 -0.1746  1.0459  0.7700
 2911lim     li15331   7.122   5.866   0.192 -0.1731  1.0517 -0.8976
 2912lim     li15332   1.883   1.462   6.369 -0.5399 -1.1242  0.3851
 2913lim     li15333   0.453   5.283   0.676  1.7811  0.6742 -0.2923
 2914lim     li15334   1.779   5.748   6.425  0.2817  0.0724  0.0570
 2915lim     li15335   5.486   4.582   1.950  1.1357 -0.0303  1.4850
 2916lim     li15336   6.310   2.999   2.033 -0.2620  0.3524 -0.0583
 2917lim     li15337   3.803   7.064   6.220 -0.5543  0.9078  0.1698
 2918lim     li15338   0.039   4.914   2.691  0.6658  0.0257  0.6314
 2919lim     li15339   2.243   3.831   5.051 -1.0984  0.0798  0.9716
 2920lim     li15340   5.538   3.071   4.971 -0.1927  0.0902 -0.0195
 2921lim     li15341   0.360   1.758   2.206  0.2876  0.2066  1.2150
 2922lim     li15342   4.881   4.200   6.672  0.8614 -0.3358 -0.5016
 2923lim     li15343   0.911   6.928   1.101 -0.4876  0.6114  0.3893
 2924lim     li15344   5.132   1.099   1.879 -0.4697  0.0819  0.4330
 2925lim     li15345   6.851   5.116   0.167 -0.3994  1.8373  0.0510
 2926lim     li15346   1.699   2.469   0.091  0.5899  0.8293 -0.6986
 2927lim     li15347   4.258   1.693   5.649 -1.4006 -0.2709  0.9325
 2928lim     li15348   1.178   1.367   2.360  0.7900 -0.0258  0.3426
 2929lim     li15349   3.311   6.010   2.713 -0.7505  0.3304 -0.2242
 2930lim     li15350   2.978   3.991   4.146 -0.7775  1.1785  1.2285
 2931lim     li15351   1.697   0.539   0.910  0.5308 -1.6733 -0.9726
 2932lim     li15352   1.278   4.107   4.848 -1.2369 -0.4965  0.0079
 2933lim     li15353   3.218   4.685   5.095  0.3138 -0.3609  0.0050
 2934lim     li15354   6.943   4.451   4.526 -0.2935 -0.2720  1.1527
 2935lim     li15355   1.581   5.954   1.038  1.6362  1.1486  0.7212
 2936lim     li15356   3.979   4.062   0.234  0.3893 -0.0562 -0.3374
 2937lim     li15357   4.700   3.632   4.068  0.2625 -0.3512  0.7241
 2938lim     li15358   3.379   6.864   4.847  0.6937 -0.4765  0.1370
 2939lim     li15359   5.764   6.757   1.854  0.4541  0.0191 -0.6210
 2940lim     li15360   5.748   5.968   0.100  0.2325 -0.2800 -0.5589
 2941lim     li15361   0.700   2.605   1.618  0.1486  0.0622 -0.3971
 2942lim     li15362   7.127   4.954   3.877  0.0993 -0.8399  0.1622
 2943lim     li15363   4.468   4.259   1.604  0.0245  0.4691  1.0559
 2944lim     li15364   3.076   0.822   3.795  0.5559  1.0018 -0.5339
 2945lim     li15365   0.427   1.818   4.021 -0.0657 -1.1692  0.5284
 2946lim     li15366   4.070   1.567   4.651 -0.7897 -0.9031 -0.3372
 2947lim     li15367   0.985   5.417   0.049 -0.3716  0.0496  0.4986
 2948lim     li15368   3.591   3.028   3.002 -0.2314 -0.0167  0.5893
 2949lim     li15369   1.689   0.374   0.323 -0.1237 -0.9827  0.0969
 2950lim     li15370   4.635   6.078   0.634  1.6400  0.7027 -0.6617
 2951lim     li15371   1.757   4.330   0.854  0.0065 -1.3694  0.2861
 2952lim     li15372   3.527   5.402   6.911  0.2657 -0.3667  0.1261
 2953lim     li15373   2.787   4.219   2.220  0.5674  0.1502 -1.6448
 2954lim     li15374   4.292   3.811   2.557 -1.0218 -0.8042  0.1727
 2955lim     li15375   4.273   1.189   6.906 -1.5892 -0.6251  0.9575
 2956lim     li15376   1.843   0.134   4.451  0.0543 -0.3525  0.0551
 2957lim     li15377   6.353   5.490   1.998 -0.2570  1.0272  0.1370
 2958lim     li15378   5.977   0.460   6.644 -0.1431  0.8003 -0.3225
 2959lim     li15379   0.581   5.651   5.591 -0.8925  1.0781  0.1941
 2960lim     li15380   0.516   6.282   6.712  0.1814 -0.1309  0.7974
 2961lim     li15381   6.396   5.467   2.646 -0.1864  0.5042 -0.2140
 2962lim     li15382   6.155   4.295   4.563  0.6525  0.1423 -0.0903
 2963lim     li15383   3.937   1.792   6.628 -0.3717  0.1192 -0.6703
 2964lim     li15384   4.091   1.127   2.318 -0.3203  0.2861  0.0967
 2965lim     li15385   3.461   6.224   3.746  0.5595 -0.2552  0.9216
 2966lim     li15386   2.489   4.760   4.484 -0.7585 -0.8813 -0.1619
 2967lim     li15387   6.936   0.238   0.451 -0.2170  0.0197 -0.3509
 2968lim     li15388   2.003   2.491   2.682  0.2111 -0.4838  0.6672
 2969lim     li15389   6.875   0.358   2.110 -0.5565  0.6743 -0.1123
 2970lim     li15390   0.669   2.212   0.291 -0.2185  0.6057  1.6035
 2971lim     li15391   6.192   7.125   2.837  0.7520  0.6268  2.0696
 2972lim     li15392   2.085   1.468   4.853  1.1919  1.0313 -0.0561
 2973lim     li15393   6.679   4.913   4.967  0.4867  0.2748  0.0590
 2974lim     li15394   2.742   4.106   5.301 -0.0013  1.1230 -0.6187
 2975lim     li15395   1.856   1.395   3.048 -0.1003 -0.1110  0.4206
 2976lim     li15396   0.496   3.455   6.653  0.5923  0.4944  0.0511
 2977lim     li15397   3.510   5.280   0.777 -0.2545 -0.9178 -0.1443
 2978lim     li15398   2.540   0.917   4.289  1.2671 -0.8183 -0.5964
 2979lim     li15399   3.704   1.491   1.490 -0.3069 -0.7941  0.0161
 2980lim     li15400   4.639   2.627   4.029 -0.7623  0.1031 -0.4149
 2981lim     li15401   2.674   6.484   0.547 -0.3913  0.3650 -0.2050
 2982lim     li15402   5.123   5.040   3.108 -0.8786 -0.6132  0.2678
 2983lim     li15403   0.974   4.327   2.820  0.5045 -0.5999 -1.0748
 2984lim     li15404   0.785   2.296   6.401  0.9311  0.7931 -0.5499
 2985lim     li15405   6.461   2.762   5.344  0.0912  1.0384 -0.7809
 2986lim     li15406   4.420   4.002   3.265 -1.0896  0.4021 -0.4350
 2987lim     li15407   6.955   6.702   4.555 -0.5741  1.0446 -0.1135
 2988lim     li15408   2.871   2.512   2.808 -0.8872  0.8053 -0.5789
 2989lim     li15409   5.939   3.864   3.679  0.4002 -0.0695  1.4101
 2990lim     li15410   0.450   2.598   4.404  0.7818  0.8638 -0.3131
 2991lim     li15411   1.682   3.099   1.617  0.1502 -0.4461  0.7551
 2992lim     li15412   6.352   3.670   0.225 -0.5189 -1.0516 -0.0264
 2993lim     li15413   2.894   1.725   0.423  0.1123 -0.5792  0.1687
 2994lim     li15414   0.751   3.682   5.698  0.7370  0.0934  0.0325
 2995lim     li15415   1.095   1.103   5.962  0.7096 -0.1864  0.1406
 2996lim     li15416   1.400   1.459   0.690  0.6095 -0.7262 -0.6272
 2997lim     li15417   6.760   2.316   4.137 -0.3182 -0.4118  0.2539
 2998lim     li15418   3.712   3.800   1.228 -0.0647  0.2939 -0.4073
 2999lim     li15419   1.102   6.413   3.736 -0.5674  0.2090 -0.4938
 3000lim     li15420   2.996   3.985   3.402  0.8505  0.6602  0.3283
 3001lim     li15421   5.853   0.696   0.798 -0.4521 -0.1054 -0.8373
 3002lim     li15422   2.173   3.511   2.345 -0.7014  0.9461  0.0197
 3003lim     li15423   5.536   5.211   4.813  0.1965 -0.9834  0.8491
 3004lim     li15424   4.216   2.953   4.900  0.4867 -0.0322 -0.2114
 3005lim     li15425   4.875   2.236   6.302 -0.6280  0.4299 -1.0393
 3006lim     li15426   4.918   3.079   5.626  0.1602 -0.6413  0.0011
 3007lim     li15427   5.001   0.911   0.525 -0.3072  0.3412  0.7394
 3008lim     li15428   4.266   7.126   3.851  0.2040 -0.6050  0.4200
 3009lim     li15429   4.694   6.433   1.589 -0.5510  1.0936 -0.5105
 3010lim     li15430   5.366   5.650   1.755  0.5381 -1.3347  0.8181
 3011lim     li15431   3.737   5.248   5.854  0.4061  0.8524  0.3746
 3012lim     li15432   6.257   1.585   1.682  0.9042 -0.2050 -0.3597
 3013lim     li15433   5.239   6.298   1.648 -0.0102  0.2835 -0.5241
 3014lim     li15434   6.147   1.348   4.755 -0.0553 -1.1565 -0.5102
 3015lim     li15435   4.721   5.095   5.594  0.0330 -0.1593  1.3225
 3016lim     li15436   7.006   2.827   1.527  0.6957 -0.6381 -0.2018
 3017lim     li15437   6.025   1.316   3.655 -0.7053  0.8516  0.0204
 3018lim     li15438   1.617   5.478   2.943  0.5623  1.0833 -0.1432
 3019lim     li15439   3.348   5.756   5.264  0.6083  0.1575  0.5428
 3020lim     li15440   5.699   4.861   4.058  1.2498  0.0988 -0.5728
 3021lim     li15441   5.962   3.340   1.320 -0.4326  0.5262  0.9385
 3022lim     li15442   5.981   6.672   3.708 -0.4017 -0.7312  1.0736
 3023lim     li15443   0.747   0.243   3.583 -0.1712  0.0386 -1.1078
 3024lim     li15444   1.955   3.017   6.378 -0.1075 -0.8425  0.1889
 3025lim     li15445   0.981   5.542   1.714 -0.3360 -1.3513 -0.0547
 3026lim     li15446   1.612   6.006   5.989  0.7349  0.6898  0.1208
 3027lim     li15447   5.146   2.022   3.011  0.2401 -0.7536  0.1858
 3028lim     li15448   3.066   2.870   1.149 -0.1011 -0.2323 -0.3169
 3029lim     li15449   2.266   5.330   4.461 -0.4530  0.1384  0.7072
 3030lim     li15450   5.854   2.416   5.541 -0.0492  0.5867  0.9055
 3031lim     li15451   1.450   7.111   2.360 -0.7304 -0.9172  0.2768
 3032lim     li15452   5.491   4.903   1.257 -0.0671 -0.0862  0.2785
 3033lim     li15453   5.277   6.000   5.454  0.0096 -0.5574  1.0659
 3034lim     li15454   2.455   5.869   3.509 -0.0445 -0.8072 -0.2915
 3035lim     li15455   5.198   6.528   3.186 -1.1325 -1.4886  0.1873
 3036lim     li15456   5.411   4.354   0.586 -0.9267 -0.3287 -1.0997
 3037lim     li15457   2.635   0.052   0.368 -0.2880 -0.1142 -0.6596
 3038lim     li15458   0.549   1.290   6.691  1.1339 -0.8751 -1.5970
 3039lim     li15459   5.502   4.829   5.723 -0.7148  0.4978 -1.0010
 3040lim     li15460   3.680   7.068   3.461  0.2434 -0.6455 -0.2833
 3041lim     li15461   7.116   2.204   5.225  0.7454  0.1662  1.0202
 3042lim     li15462   3.214   1.008   0.754  0.6888  0.2643  1.0157
 3043lim     li15463   5.840   3.866   1.246  0.0908 -0.5801 -0.8156
 3044lim     li15464   3.173   1.419   5.386  0.9562  1.1573 -0.4092
 3045lim     li15465   0.417   6.495   5.940 -0.3551 -0.7233  0.1150
 3046lim     li15466   0.120   2.822   0.011 -0.3523  1.0593 -1.0433
 3047lim     li15467   2.264   3.525   0.030  0.4956  1.5899 -0.0140
 3048lim     li15468   7.072   6.815   2.650  0.9722 -0.0034 -0.0236
 3049lim     li15469   3.628   3.428   2.267  0.3822  0.6829  0.8141
 3050lim     li15470   4.655   2.057   5.055  0.0767  0.5436 -0.4635
 3051lim     li15471   3.088   3.688   0.200  0.0095 -0.3672 -0.0872
 3052lim     li15472   6.164   6.070   0.944 -0.6990 -1.3144  0.2097
 3053lim     li15473   2.871   2.639   3.645 -0.0607  0.5895 -0.4076
 3054lim     li15474   5.630   3.978   2.819  0.3630 -0.6287  0.7950
 3055lim     li15475   0.577   5.053   2.880  0.2744 -0.8169  0.4430
 3056lim     li15476   1.435   4.664   6.079 -0.3322  0.1753 -0.8924
 3057lim     li15477   1.828   6.252   4.453 -0.6640 -0.6465  0.2643
 3058lim     li15478   5.785   6.512   5.890  0.5544 -1.2957  1.2015
 3059lim     li15479   4.230   6.846   3.205  0.1802 -0.9520  0.0907
 3060lim     li15480   6.670   3.443   2.890  1.2765 -0.8356  0.2153
 3061lim     li15481   0.376   4.114   0.061  1.1236  1.3482 -0.0785
 3062lim     li15482   7.036   0.016   3.188 -0.5890 -0.0710  0.7786
 3063lim     li15483   4.138   0.052   2.137 -0.4247  0.9347  0.8501
 3064lim     li15484   6.113   4.404   2.398 -0.6652  0.0450 -0.1602
 3065lim     li15485   0.590   5.893   3.905 -0.1273 -0.2231  0.5436
 3066lim     li15486   2.255   6.384   3.489  0.0489  0.4892 -0.9206
 3067lim     li15487   1.267   0.729   4.688  0.8091 -1.2075 -0.3885
 3068lim     li15488   5.868   6.801   4.831  0.1599  0.8709 -0.4220
 3069lim     li15489   6.441   6.045   0.092  0.4691  0.6524  1.1383
 3070lim     li15490   0.100   4.850   1.610  0.1124  0.1150 -0.9686
 3071lim     li15491   0.358   1.217   3.045 -1.2650 -0.9751  0.0200
 3072lim     li15492   5.533   1.639   3.358  0.4504 -1.1917  0.7321
 3073lim     li15493   4.063   0.711   0.173  0.7708  0.9783  0.9066
 3074lim     li15494   2.540   6.453   5.972 -0.6386  0.2174 -0.6812
 3075lim     li15495   2.660   1.894   2.065 -1.0674 -0.9737 -0.4033
 3076lim     li15496   3.648   0.633   6.280  0.1071  0.0555  0.4402
 3077lim     li15497   3.004   6.905   5.414  0.8501  0.0211 -0.4027
 3078lim     li15498   0.953   5.437   4.870 -0.5642  0.3990 -0.3704
 3079lim     li15499   1.368   2.164   1.278 -0.0320 -0.3726  0.4836
 3080lim     li15500   3.794   0.376   5.080 -0.3825 -0.2972  0.2995
 3081lim     li15501   4.834   1.517   6.709 -0.4465  0.3068 -0.8260
 3082lim     li15502   1.679   2.291   5.372  0.1675  0.1300  0.7958
 3083lim     li15503   4.931   0.096   3.806 -1.2215 -0.5343 -0.4065
 3084lim     li15504   1.343   0.121   4.332 -0.3001  0.4879 -0.0365
 3085lim     li15505   6.910   2.786   3.595  0.0539  1.9635 -0.1444
 3086lim     li15506   5.557   2.280   1.754 -0.7979  0.2942 -0.1463
 3087lim     li15507   7.070   5.519   5.568  0.8884 -0.0690  0.7143
 3088lim     li15508   1.013   2.925   3.407  0.0509  0.4242 -0.1293
 3089lim     li15509   3.479   1.567   3.021  0.3754  0.8595 -0.0640
 3090lim     li15510   7.168   7.117   4.634 -0.0808  0.5132 -0.4457
 3091lim     li15511   3.249   6.758   0.896 -0.2713 -0.6635  0.3670
 3092lim     li15512   3.286   4.674   2.900 -0.0343 -0.5518  0.8961
 3093lim     li15513   0.944   5.116   6.088  0.1033  0.0186 -0.1504
 3094lim     li15514   0.763   0.025   2.641 -0.3947  1.1850  0.0566
 3095lim     li15515   3.161   0.143   6.803 -1.4915 -0.7282 -0.0883
 3096lim     li15516   2.546   1.076   6.207  0.4396  0.1598  0.3673
 3097lim     li15517   1.189   3.767   6.382 -0.0273 -0.9718 -0.0992
 3098lim     li15518   4.840   0.066   4.852 -0.9493  0.7748 -0.4802
 3099lim     li15519   7.163   4.636   1.091  0.0105 -0.0748 -0.1975
 3100lim     li15520   4.586   1.303   4.792 -0.2784 -0.2360  0.5048
 3101lim     li15521   0.234   1.064   4.903  0.5271 -0.2316 -0.0912
 3102lim     li15522   3.748   2.501   3.211  0.3687  0.5152 -0.0285
 3103lim     li15523   1.486   2.052   6.873  0.3530 -0.3805  0.1084
 3104lim     li15524   2.804   2.691   0.838 -0.0564 -0.1767  0.1014
 3105lim     li15525   6.896   1.292   0.280  0.6643 -1.7948  0.0793
 3106lim     li15526   4.233   1.121   5.952 -0.6390  0.6923  0.5636
 3107lim     li15527   4.875   3.275   2.148  1.0028 -0.3472 -0.1265
 3108lim     li15528   3.920   6.707   0.445 -0.1593 -0.1457  0.1465
 3109lim     li15529   0.333   2.030   2.708  0.1875  0.4729 -0.2274
 3110lim     li15530   5.498   4.485   7.152 -1.0235 -0.3024 -0.2868
 3111lim     li15531   4.217   5.064   1.556  0.2105 -1.1738 -0.9734
 3112lim     li15532   5.435   6.787   0.913 -0.6338  0.5671  0.7567
 3113lim     li15533   6.056   1.495   0.013  1.4964 -0.2531  0.7198
 3114lim     li15534   5.854   1.934   4.716 -0.3906  0.5017 -0.1464
 3115lim     li15535   5.172   6.872   2.154 -0.3526 -0.9392 -0.6759
 3116lim     li15536   2.448   3.624   1.098 -0.1362  0.6618 -0.5201
 3117lim     li15537   6.844   3.952   5.493 -0.2546 -0.4092  0.1122
 3118lim     li15538   4.967   2.046   4.140 -0.1004  0.2548 -0.7041
 3119lim     li15539   3.414   6.772   2.649 -0.3962  1.0060 -0.1304
 3120lim     li15540   7.070   6.084   3.808 -0.7962  0.7878 -0.6332
 3121lim     li15541   0.505   3.537   4.994 -1.2224 -0.2264 -0.2154
 3122lim     li15542   0.100   0.342   3.791  1.0452  0.6667 -0.6578
 3123lim     li15543   3.502   5.514   3.235  0.5649 -0.1967 -0.3052
 3124lim     li15544   3.803   6.399   7.097  0.6246  0.4514 -0.3280
 3125lim     li15545   7.004   1.380   6.289  0.7910 -0.0284  0.0494
 3126lim     li15546   6.090   0.203   6.081 -1.2767  0.3200  1.0378
 3127lim     li15547   2.942   4.959   6.995  0.6415 -0.6071  0.1235
 3128lim     li15548   1.905   4.918   4.137 -0.3015 -0.0063  1.1583
 3129lim     li15549   0.289   0.134   0.126  0.2443 -0.6913  0.2525
 3130lim     li15550   3.872   3.584   5.062  0.0046 -0.6508  0.4190
 3131lim     li15551   5.460   1.602   6.103  0.4461  0.0178  1.0268
 3132lim     li15552   0.031   2.955   5.668 -0.6075  0.3289  0.9055
 3133lim     li15553   5.305   5.803   0.820  0.3768  0.4179 -0.3137
 3134lim     li15554   4.265   5.601   6.938  0.1055  0.2281 -0.2211
 3135lim     li15555   5.212   6.705   5.351 -0.8051  0.6675  0.9053
 3136lim     li15556   2.469   5.218   1.610 -0.4290  0.7532 -0.0753
 3137lim     li15557   3.539   2.937   5.468 -0.4346  0.3295 -0.4056
 3138lim     li15558   1.423   0.618   1.608 -0.3125  0.6582 -0.3746
 3139lim     li15559   4.702   5.039   6.517  0.3900  1.1318  0.0028
 3140lim     li15560   2.899   4.002   5.991  0.8929 -1.1284  0.6496
 3141lim     li15561   2.638   4.518   1.007  1.8869  0.1094 -0.1297
 3142lim     li15562   4.493   2.208   1.756 -0.0426  0.6239 -1.7187
 3143lim     li15563   4.414   4.831   4.292 -0.0282 -1.5107  0.5208
 3144lim     li15564   0.988   2.170   5.210 -0.1451  0.7168  0.7863
 3145lim     li15565   0.952   3.234   4.167  0.2546  1.0582 -0.6659
 3146lim     li15566   7.131   3.270   2.016  0.2321 -1.4849  1.0511
 3147lim     li15567   0.870   1.183   1.584  1.1710  0.4185  0.6234
 3148lim     li15568   1.842   0.248   2.756  0.2290  0.7969  0.4052
 3149lim     li15569   1.481   5.999   2.001  0.0148  0.1397  1.6773
 3150lim     li15570   6.476   5.042   3.447  0.4281  0.7470  0.4226
 3151lim     li15571   2.415   3.135   4.970  0.3758 -0.9797  0.3070
 3152lim     li15572   5.571   0.557   1.488 -0.3289 -0.1727 -0.2955
 3153lim     li15573   6.778   3.914   1.897 -0.7087  0.3449 -0.7677
 3154lim     li15574   6.756   0.907   3.092 -0.1959 -0.1202  0.8351
 3155lim     li15575   0.621   0.809   3.730  1.3050  1.1163 -0.1256
 3156lim     li15576   3.891   0.510   2.164  1.8497  0.0317 -0.8206
 3157lim     li15577   2.705   6.033   6.789  0.2449  0.0662 -0.0797
 3158lim     li15578   5.990   5.041   1.080  1.3527  0.5517  0.2209
 3159lim     li15579   6.627   1.975   3.529  0.0358 -0.3368  0.9139
 3160lim     li15580   5.808   7.144   6.869  0.1075  0.8410  0.1368
 3161lim     li15581   6.833   2.411   6.311 -0.5973 -1.0999  1.6885
 3162lim     li15582   6.568   4.014   6.551  0.5147 -0.1692 -0.9683
 3163lim     li15583   0.320   2.427   3.046  0.3447 -0.4175  0.0147
 3164lim     li15584   6.003   1.601   1.014  0.5870  0.5308  0.7841
 3165lim     li15585   1.409   3.993   5.776 -0.3980  0.0451  0.3555
 3166lim     li15586   7.133   4.365   6.593  1.1958  0.0798 -0.4624
 3167lim     li15587   6.612   0.031   5.578 -0.8103 -0.0575  0.4778
 3168lim     li15588   4.895   4.722   3.864 -0.9553 -0.0699  0.3480
 3169lim     li15589   2.573   6.591   2.270 -0.2367  0.3386  0.1686
 3170lim     li15590   0.420   0.969   5.896 -0.0174 -0.9829  0.4817
 3171lim     li15591   4.425   6.894   1.298 -0.2618 -0.8523 -0.7383
 3172lim     li15592   2.037   4.102   6.293  0.5211  0.8297  1.2308
 3173lim     li15593   2.542   0.841   3.022  0.0826 -0.1817 -0.3582
 3174lim     li15594   0.588   1.512   4.550  0.1186  0.7494  0.9159
 3175lim     li15595   2.862   2.032   4.507  0.3439  0.0455 -0.2260
 3176lim     li15596   1.850   4.577   2.892 -2.0044 -1.0110  1.7895
 3177lim     li15597   3.789   6.041   5.158  0.2423  0.3705  0.6942
 3178lim     li15598   5.280   3.426   6.928 -0.0117  0.6272  0.4369
 3179lim     li15599   2.790   0.871   0.071  0.3744  0.6537  0.5638
 3180lim     li15600   3.931   0.343   5.540 -0.2667 -0.9360 -0.4457
 3181lim     li15601   6.343   5.746   5.677  0.1656 -0.5436 -1.1943
 3182lim     li15602   3.917   4.730   2.826 -0.1383  0.2264 -0.0051
 3183lim     li15603   5.864   5.154   7.064 -1.1707  0.2628  0.0484
 3184lim     li15604   6.810   0.707   6.485  0.7023 -0.0542  0.7548
 3185lim     li15605   0.864   3.790   0.493 -0.2909 -0.9491 -0.1439
 3186lim     li15606   6.882   0.605   4.702 -0.5070  0.1307  0.6621
 3187lim     li15607   5.385   1.652   0.081  0.8292 -0.3612  0.2309
 3188lim     li15608   6.169   6.118   2.568  0.8001 -0.3064 -0.2327
 3189lim     li15609   4.615   2.890   5.999  0.5131 -0.7667  0.6421
 3190lim     li15610   3.762   6.173   1.989 -1.0846 -0.0738  0.4461
 3191lim     li15611   3.764   4.784   6.983 -0.0103 -0.4031  0.0798
 3192lim     li15612   4.637   3.571   1.241 -0.6331 -0.4198 -0.8379
 3193lim     li15613   2.369   1.104   1.184  0.7315 -0.8012 -0.3269
 3194lim     li15614   4.936   1.020   4.181 -0.6958 -0.3972  0.2900
 3195lim     li15615   2.592   6.405   4.341  0.4488  0.1212  0.9583
 3196lim     li15616   2.386   4.830   0.188 -0.5558 -0.5661  0.1903
 3197lim     li15617   3.097   4.311   6.387  0.1568  0.4096 -1.1021
 3198lim     li15618   0.255   5.431   6.700  0.2676 -0.1694  1.0282
 3199lim     li15619   1.060   4.736   1.022  0.5470 -0.2663  0.1044
 3200lim     li15620   4.920   0.438   2.294 -0.8425 -0.0390  0.8504
 3201lim     li15621   6.773   3.307   4.348 -0.1355 -0.7268  0.1887
 3202lim     li15622   2.706   5.040   3.376 -0.0642  0.0411  0.9812
 3203lim     li15623   4.439   4.933   0.644 -0.4218  0.1081 -0.9273
 3204lim     li15624   5.999   0.361   5.020  0.3668  0.2749 -0.3762
 3205lim     li15625   0.539   6.061   1.161 -1.3478  0.1460 -0.0242
 3206lim     li15626   5.844   5.577   6.442 -0.1671  1.2670  0.4495
 3207lim     li15627   5.952   3.046   7.172 -0.3055 -0.9244  0.6446
 3208lim     li15628   5.020   7.063   6.141 -0.6004  0.8870 -0.1085
 3209lim     li15629   3.899   4.308   5.780 -0.2134 -0.1759  0.3556
 3210lim     li15630   1.223   6.363   4.783  0.2564 -0.5123  0.0431
 3211lim     li15631   4.432   3.224   0.062  0.9491 -1.0029  1.1181
 3212lim     li15632   0.731   2.419   0.940 -1.2516  0.3376  0.9913
 3213lim     li15633   4.203   5.021   3.457  0.3639 -1.0475 -0.6751
 3214lim     li15634   1.340   0.331   6.517  0.0389 -0.4665  0.2413
 3215lim     li15635   5.431   2.223   5.116  0.0527 -0.3571 -0.1996
 3216lim     li15636   4.776   5.340   0.049  0.5628  0.4871 -0.2162
 3217lim     li15637   6.563   1.772   5.756 -0.4668 -1.4056 -0.0090
 3218lim     li15638   1.896   2.565   1.004  1.2520 -0.1869 -0.1560
 3219lim     li15639   5.191   0.830   6.001 -0.0493  0.7630  0.9318
 3220lim     li15640   0.058   1.808   1.562 -1.5884  0.9607 -0.3186
 3221lim     li15641   3.193   0.637   1.207 -0.4122  0.1093  0.8238
 3222lim     li15642   3.617   3.587   3.742 -0.2880 -0.7825  1.0109
 3223lim     li15643   0.994   6.488   5.854 -0.0575  0.3484 -0.1592
 3224lim     li15644   5.572   2.596   4.403  0.3873 -0.3037 -0.4884
 3225lim     li15645   2.286   1.023   2.021 -0.6489  0.3669  0.5539
 3226lim     li15646   5.447   2.907   3.222 -0.0858 -0.7023  0.6959
 3227lim     li15647   0.247   4.120   3.341  0.7995 -0.0143 -0.2890
 3228lim     li15648   2.053   5.886   6.995 -0.0269 -0.3041 -0.0331
 3229lim     li15649   6.284   6.812   0.450  0.3918 -0.0542  0.6768
 3230lim     li15650   1.540   3.455   2.738 -0.3810 -0.3704 -0.0663
 3231lim     li15651   2.794   4.909   2.153 -0.1102  0.3283 -0.8341
 3232lim     li15652   1.003   0.842   7.025 -0.1665  0.5684  0.5275
 3233lim     li15653   4.565   3.581   0.512 -0.2340 -0.2113 -0.7495
 3234lim     li15654   1.697   0.211   5.580  0.7979 -0.8534 -1.5598
 3235lim     li15655   2.563   1.920   1.322 -0.2213 -1.2573 -0.2781
 3236lim     li15656   6.689   6.172   1.111 -0.1993 -1.4980 -1.2623
 3237lim     li15657   1.755   3.834   0.069 -0.1085  1.1071 -0.5917
 3238lim     li15658   5.793   4.142   6.113 -1.0593  0.3250 -0.1314
 3239lim     li15659   4.417   2.099   1.022 -0.8004  0.1001  0.2877
 3240lim     li15660   0.907   5.766   5.156  0.2495  1.2232  0.5657
 3241ntf    cn115661   5.356   0.907   6.928  0.0936 -0.1153  0.4177
 3241ntf    sn215662   5.524   0.892   6.995  0.1185  0.0323  0.3906
 3241ntf    nn315663   5.498   0.803   7.121  0.6468  0.4898  0.8224
 3241ntf    sn215664   5.579   0.690   7.194  0.1734  0.0117  0.6117
 3241ntf    cn115665   5.574   0.747   7.367 -0.2410  0.1323  0.5611
 3241ntf    fn415666   5.351   0.947   6.802 -0.0380 -0.1632  0.4078
 3241ntf    fn415667   5.285   0.796   6.937 -0.5195  0.1868 -0.5656
 3241ntf    fn415668   5.285   1.003   6.986  0.0055  0.0166  0.0962
 3241ntf    on515669   5.593   0.822   6.889  0.3662  0.1889  0.4484
 3241ntf    on515670   5.561   1.029   7.015 -0.4801  0.3097 -0.3442
 3241ntf    on515671   5.720   0.689   7.165  0.0202  0.7949 -0.1859
 3241ntf    on515672   5.508   0.565   7.211  0.7759 -0.3169  0.7670
 3241ntf    fn415673   5.453   0.784   7.404 -0.2624  0.6795 -0.0239
 3241ntf    fn415674   5.600   0.651   7.454 -0.2029 -0.1201  0.2754
 3241ntf    fn415675   5.656   0.850   7.381  0.5984 -0.4696  0.1901
 3242ntf    cn115676   5.196   4.568   4.486  0.0839  0.0932  0.6473
 3242ntf    sn215677   5.246   4.706   4.378 -0.1041 -0.1934  0.1960
 3242ntf    nn315678   5.223   4.833   4.467 -0.0494 -0.2300  0.2629
 3242ntf    sn215679   5.279   4.979   4.447  0.1358 -0.3124  0.1782
 3242ntf    cn115680   5.129   5.078   4.472  0.1493 -0.1920 -0.2145
 3242ntf    fn415681   5.234   4.451   4.438  0.9344  0.7804 -0.4160
 3242ntf    fn415682   5.248   4.587   4.607  0.5584  0.8289  0.3375
 3242ntf    fn415683   5.067   4.555   4.512  0.0315  0.2674  0.4748
 3242ntf    on515684   5.381   4.682   4.335 -0.2164 -0.4714 -0.0061
 3242ntf    on515685   5.144   4.696   4.277 -0.1488  0.2027  0.2002
 3242ntf    on515686   5.326   5.013   4.315  0.3910  0.2882  0.4210
 3242ntf    on515687   5.363   5.026   4.554 -0.3680  0.2267  0.3440
 3242ntf    fn415688   5.159   5.206   4.482  0.4551 -0.3110  0.4440
 3242ntf    fn415689   5.042   5.063   4.373 -0.5660 -0.0036  0.3755
 3242ntf    fn415690   5.072   5.047   4.588  0.2089  0.2409 -0.0708
 3243ntf    cn115691   0.095   2.345   5.785  0.4766 -0.0015  0.0836
 3243ntf    sn215692   0.005   2.472   5.690  0.2492  0.1243  0.4665
 3243ntf    nn315693  -0.106   2.392   5.612  0.8779 -0.5943  0.2947
 3243ntf    sn215694  -0.206   2.285   5.667 -0.1176  0.1325 -0.0613
 3243ntf    cn115695  -0.358   2.382   5.683 -0.0510  0.2147  0.0781
 3243ntf    fn415696   0.027   2.308   5.892 -0.1539  0.2380 -0.2293
 3243ntf    fn415697   0.131   2.235   5.721  0.2602 -0.0668  0.0756
 3243ntf    fn415698   0.210   2.390   5.833  0.3737 -0.3934  0.7046
 3243ntf    on515699  -0.039   2.561   5.795 -0.7703  0.4788 -0.2532
 3243ntf    on515700   0.103   2.527   5.601  0.1754 -0.6551 -0.1067
 3243ntf    on515701  -0.187   2.224   5.796 -0.3229 -0.8317 -0.4762
 3243ntf    on515702  -0.227   2.190   5.561 -0.4910  0.2205 -0.0665
 3243ntf    fn415703  -0.462   2.301   5.690  0.2701 -0.2116 -0.1116
 3243ntf    fn415704  -0.362   2.460   5.790  0.7310 -0.1355  0.3729
 3243ntf    fn415705  -0.373   2.466   5.581  0.1906 -0.0027 -0.1356
 3244ntf    cn115706   5.029   0.964   7.107 -0.2006  0.0613 -0.1583
 3244ntf    sn215707   4.865   0.999   7.179 -0.0620  0.2704  0.0576
 3244ntf    nn315708   4.853   1.150   7.137  0.2722  0.4819  0.6972
 3244ntf    sn215709   4.715   1.224   7.126 -0.0832 -0.2840 -0.2155
 3244ntf    cn115710   4.696   1.275   7.300  0.2586 -0.3345 -0.1625
 3244ntf    fn415711   5.123   1.029   7.173 -0.0637 -0.1966 -0.0977
 3244ntf    fn415712   5.049   0.833   7.111  0.3282  0.1511  0.2233
 3244ntf    fn415713   5.033   1.000   6.980 -0.4362 -0.1604 -0.2295
 3244ntf    on515714   4.785   0.907   7.103  0.4048  0.1849 -0.3387
 3244ntf    on515715   4.898   0.970   7.316 -0.0431  0.4149  0.0845
 3244ntf    on515716   4.591   1.153   7.106 -0.0705 -0.4823  0.3938
 3244ntf    on515717   4.729   1.353   7.064 -0.3053 -0.2707 -0.2400
 3244ntf    fn415718   4.697   1.170   7.381  0.4458  0.0957  0.3983
 3244ntf    fn415719   4.793   1.356   7.337  0.0887  0.1072 -0.6701
 3244ntf    fn415720   4.580   1.336   7.323  0.4593  0.1713 -0.4921
 3245ntf    cn115721   6.943   4.944   6.642  0.0193 -0.0369 -0.1817
 3245ntf    sn215722   7.001   4.877   6.483  0.3851  0.2531 -0.1727
 3245ntf    nn315723   7.149   4.851   6.526  0.1788  0.0018  0.3875
 3245ntf    sn215724   7.284   4.908   6.469  0.1798 -0.1958  0.1910
 3245ntf    cn115725   7.330   4.761   6.373  0.4167 -0.1512  0.2350
 3245ntf    fn415726   6.811   4.950   6.647  0.0337 -0.2251  0.4298
 3245ntf    fn415727   6.986   4.873   6.745  0.1007  0.2135 -0.0414
 3245ntf    fn415728   6.976   5.072   6.656  0.1822 -0.0525 -0.4128
 3245ntf    on515729   6.923   4.756   6.475 -0.2991  0.6582  0.2166
 3245ntf    on515730   6.978   4.989   6.395 -0.2995  0.5277  0.3425
 3245ntf    on515731   7.382   4.913   6.575  0.2063 -0.0863  0.1616
 3245ntf    on515732   7.275   5.012   6.371 -0.0043 -0.2544  0.1460
 3245ntf    fn415733   7.453   4.780   6.329  0.3064 -0.7737 -0.3730
 3245ntf    fn415734   7.330   4.651   6.447  0.0862 -0.5642 -0.3695
 3245ntf    fn415735   7.257   4.736   6.265  0.5018  0.3779  0.0539
 3246ntf    cn115736   3.285   0.307   0.080  0.2964  0.2422  0.3945
 3246ntf    sn215737   3.244   0.482   0.050 -0.3810 -0.0026 -0.1438
 3246ntf    nn315738   3.387   0.529   0.007 -0.3395 -0.3141 -0.3462
 3246ntf    sn215739   3.438   0.565  -0.137 -0.1046  0.0005 -0.1856
 3246ntf    cn115740   3.359   0.725  -0.172 -0.5841 -0.2530 -0.2767
 3246ntf    fn415741   3.187   0.237   0.135  0.1381  0.4123  0.3299
 3246ntf    fn415742   3.306   0.243  -0.034  0.0955  0.3811  0.2782
 3246ntf    fn415743   3.398   0.299   0.148  0.3124 -0.1051  0.3277
 3246ntf    on515744   3.138   0.500  -0.046 -0.0060  0.8782 -0.3964
 3246ntf    on515745   3.202   0.526   0.181  0.5005 -0.0648  0.1651
 3246ntf    on515746   3.375   0.490  -0.243 -0.1841 -0.1785 -0.0122
 3246ntf    on515747   3.581   0.580  -0.141 -0.1378  0.3817  0.0113
 3246ntf    fn415748   3.407   0.802  -0.268  0.0332  0.0312  0.2491
 3246ntf    fn415749   3.229   0.713  -0.194 -0.6437 -0.0201 -0.0617
 3246ntf    fn415750   3.366   0.800  -0.063  0.1264 -0.0968 -0.4208
 3247ntf    cn115751   2.842   4.231   7.134  0.3270 -0.1359 -0.1719
 3247ntf    sn215752   2.891   4.275   7.304  0.0463  0.0144 -0.1298
 3247ntf    nn315753   3.021   4.358   7.273 -0.2639  0.4180 -0.3711
 3247ntf    sn215754   3.172   4.317   7.256 -0.3368  0.0429 -0.1115
 3247ntf    cn115755   3.241   4.370   7.416 -0.1509  0.3716 -0.3009
 3247ntf    fn415756   2.808   4.333   7.058  0.3731 -0.0052 -0.0190
 3247ntf    fn415757   2.935   4.165   7.067 -0.1147 -0.4008 -0.5240
 3247ntf    fn415758   2.736   4.152   7.136  0.2985 -0.0866  0.3447
 3247ntf    on515759   2.780   4.350   7.357 -0.0332 -0.4222  0.3167
 3247ntf    on515760   2.914   4.148   7.366  0.0776  0.4225  0.7025
 3247ntf    on515761   3.239   4.408   7.168  0.0027  0.4962  0.6043
 3247ntf    on515762   3.214   4.179   7.240  0.2727  0.2017  0.0943
 3247ntf    fn415763   3.188   4.301   7.516  0.3582  0.1900 -0.1509
 3247ntf    fn415764   3.371   4.344   7.422 -0.2626 -0.1162  0.1019
 3247ntf    fn415765   3.230   4.500   7.437  0.9883  0.4458 -0.0727
 3248ntf    cn115766   1.100   1.994   2.074 -0.3372  0.2229 -0.6385
 3248ntf    sn215767   1.128   1.858   2.191 -0.1258  0.7334 -0.0934
 3248ntf    nn315768   1.275   1.868   2.246 -0.1804 -0.0294  0.1956
 3248ntf    sn215769   1.322   1.942   2.376 -0.1495  0.1438  0.0853
 3248ntf    cn115770   1.292   1.804   2.491 -0.0189  0.2406  0.2360
 3248ntf    fn415771   1.187   1.995   1.975  0.0808  0.4154 -0.2691
 3248ntf    fn415772   0.977   1.975   2.027 -0.6273  0.2574  0.0950
 3248ntf    fn415773   1.106   2.109   2.139  0.4658 -0.0390 -0.2430
 3248ntf    on515774   1.030   1.879   2.294 -0.2505 -0.1519 -0.0223
 3248ntf    on515775   1.108   1.741   2.109 -0.0923  0.2708  0.5571
 3248ntf    on515776   1.238   2.052   2.416 -0.3055 -0.0283  0.2351
 3248ntf    on515777   1.464   1.965   2.374 -0.2115  0.5179 -0.1649
 3248ntf    fn415778   1.371   1.817   2.596  0.2306  0.0484  0.0725
 3248ntf    fn415779   1.168   1.807   2.536 -0.0977 -0.2920  0.0567
 3248ntf    fn415780   1.310   1.682   2.444 -0.2234  0.4580 -0.4231
 3249ntf    cn115781   5.320   3.124   2.457  0.2853  0.1810 -0.3190
 3249ntf    sn215782   5.323   3.296   2.517 -0.1266  0.0399  0.1098
 3249ntf    nn315783   5.170   3.315   2.548 -0.1633  0.1372 -0.1343
 3249ntf    sn215784   5.069   3.257   2.653 -0.1169  0.0824 -0.1196
 3249ntf    cn115785   5.060   3.400   2.766 -0.2119 -0.0155 -0.0040
 3249ntf    fn415786   5.431   3.111   2.386  0.2869 -0.4359 -0.2087
 3249ntf    fn415787   5.307   3.027   2.546  0.3265  0.0948 -0.4062
 3249ntf    fn415788   5.217   3.101   2.378  0.2015  0.2283 -0.2234
 3249ntf    on515789   5.400   3.289   2.639 -0.2286  0.2000  0.1847
 3249ntf    on515790   5.371   3.369   2.403  0.3734 -0.6156 -0.1090
 3249ntf    on515791   5.120   3.143   2.724 -0.1812 -0.0237 -0.2443
 3249ntf    on515792   4.932   3.260   2.608 -0.2826  0.2154  0.3881
 3249ntf    fn415793   5.183   3.429   2.804 -0.2320 -0.4569  0.4170
 3249ntf    fn415794   5.016   3.506   2.700 -0.0602  0.0121 -0.0598
 3249ntf    fn415795   4.976   3.379   2.866 -0.2065 -0.4503 -0.0889
 3250ntf    cn115796   5.740   5.283   2.058 -0.1019  0.0485  0.3436
 3250ntf    sn215797   5.634   5.410   2.134 -0.2636  0.1634 -0.0717
 3250ntf    nn315798   5.741   5.523   2.158  0.3356 -0.5355  0.6116
 3250ntf    sn215799   5.712   5.668   2.210 -0.0206 -0.3071 -0.2053
 3250ntf    cn115800   5.738   5.769   2.061 -0.0140 -0.2487 -0.1650
 3250ntf    fn415801   5.686   5.164   2.077  0.0767 -0.0633  0.1451
 3250ntf    fn415802   5.759   5.299   1.928 -0.4308  0.4193  0.3380
 3250ntf    fn415803   5.860   5.286   2.113  0.2521  0.2859 -0.4279
 3250ntf    on515804   5.527   5.432   2.040 -0.0060  0.2741 -0.3383
 3250ntf    on515805   5.589   5.343   2.254  0.7340 -0.6806 -0.1600
 3250ntf    on515806   5.825   5.716   2.286  0.1496 -0.3223 -0.4482
 3250ntf    on515807   5.577   5.701   2.249  0.3585  0.2025  0.6864
 3250ntf    fn415808   5.726   5.898   2.086  0.0236 -0.2637 -0.0688
 3250ntf    fn415809   5.852   5.734   2.002  0.3941 -0.4226  0.7178
 3250ntf    fn415810   5.640   5.748   1.974  0.2332  0.4810 -0.6256
 3251ntf    cn115811   2.110   5.382   0.112  0.0746  0.3256  0.1138
 3251ntf    sn215812   2.275   5.324   0.163  0.1623  0.2357 -0.2711
 3251ntf    nn315813   2.353   5.332   0.026  0.5308 -0.1909 -0.0878
 3251ntf    sn215814   2.438   5.449  -0.035  0.1552  0.0266 -0.1976
 3251ntf    cn115815   2.347   5.484  -0.189 -0.1698  0.4271  0.0849
 3251ntf    fn415816   2.028   5.384   0.215 -0.0247 -0.2873  0.0512
 3251ntf    fn415817   2.110   5.507   0.069  0.1922  0.3094  0.0624
 3251ntf    fn415818   2.051   5.313   0.015 -0.0245 -0.0926  0.4687
 3251ntf    on515819   2.313   5.408   0.274 -1.0117  0.7002 -0.2031
 3251ntf    on515820   2.246   5.184   0.182  0.1225  0.1548 -0.8904
 3251ntf    on515821   2.572   5.416  -0.078  0.2480  0.1782 -0.0245
 3251ntf    on515822   2.439   5.573   0.038  0.1565  0.0670 -0.2665
 3251ntf    fn415823   2.346   5.379  -0.269  0.5240 -0.0469  0.6794
 3251ntf    fn415824   2.220   5.509  -0.161 -0.2161 -0.3998  0.6482
 3251ntf    fn415825   2.393   5.592  -0.250 -0.0760  0.3456  0.0112
 3252ntf    cn115826   1.812   7.027   7.132 -0.1235  0.0023  0.1927
 3252ntf    sn215827   1.954   7.139   7.114  0.0161 -0.1690  0.2210
 3252ntf    nn315828   1.903   7.226   6.993  0.0557  0.0225  0.3416
 3252ntf    sn215829   1.826   7.363   6.997 -0.1118 -0.0657  0.1395
 3252ntf    cn115830   1.955   7.488   7.028  0.2265 -0.3865  0.0337
 3252ntf    fn415831   1.791   6.954   7.024 -0.1974  0.3914 -0.0558
 3252ntf    fn415832   1.836   6.950   7.237 -0.3797 -0.4073 -0.0494
 3252ntf    fn415833   1.698   7.087   7.160 -0.3519 -0.4844  0.3121
 3252ntf    on515834   1.980   7.203   7.240  0.1702  0.6916 -0.2386
 3252ntf    on515835   2.059   7.048   7.074 -0.0477 -0.3699  0.5085
 3252ntf    on515836   1.738   7.375   7.110 -0.3113  0.2611 -0.0483
 3252ntf    on515837   1.766   7.391   6.868 -0.0387 -0.8398 -0.0652
 3252ntf    fn415838   2.029   7.511   6.921  0.0714  0.4029  0.0928
 3252ntf    fn415839   1.914   7.606   7.072  0.3472 -0.2493 -0.2213
 3252ntf    fn415840   2.038   7.438   7.118  0.3662 -0.1582  0.0305
 3253ntf    cn115841   0.261   6.584   1.555  0.1793 -0.2077  0.1808
 3253ntf    sn215842   0.247   6.549   1.377  0.3065  0.2395  0.0821
 3253ntf    nn315843   0.343   6.661   1.323  0.1716  0.1576 -0.3303
 3253ntf    sn215844   0.407   6.683   1.181  0.1373  0.4644 -0.2997
 3253ntf    cn115845   0.380   6.862   1.165 -0.4914  0.4022  0.0462
 3253ntf    fn415846   0.232   6.710   1.584  0.8697 -0.1611  0.6876
 3253ntf    fn415847   0.179   6.507   1.625 -0.1344 -0.3315 -0.3136
 3253ntf    fn415848   0.387   6.563   1.590  0.2522  0.0702  0.0931
 3253ntf    on515849   0.291   6.413   1.358 -0.4884  0.1243 -1.0614
 3253ntf    on515850   0.112   6.584   1.343  0.1847 -0.3427 -0.0441
 3253ntf    on515851   0.343   6.624   1.066 -0.0827 -0.1729  0.1429
 3253ntf    on515852   0.551   6.678   1.185  0.1106 -0.1312  0.1096
 3253ntf    fn415853   0.395   6.931   1.277 -0.0272  0.5264 -0.0895
 3253ntf    fn415854   0.457   6.924   1.077 -0.2728  0.0797  0.0114
 3253ntf    fn415855   0.255   6.886   1.127 -0.6644 -0.2577  0.1838
 3254ntf    cn115856   5.611   1.719   5.543  0.1699  0.2301  0.0572
 3254ntf    sn215857   5.510   1.869   5.552  0.1028  0.1906 -0.0250
 3254ntf    nn315858   5.415   1.837   5.673  0.4640  0.5234  0.3469
 3254ntf    sn215859   5.274   1.898   5.706  0.2088  0.2833 -0.2941
 3254ntf    cn115860   5.168   1.758   5.659 -0.1848  0.5192 -0.1089
 3254ntf    fn415861   5.540   1.615   5.500  0.3664 -0.0850  0.4884
 3254ntf    fn415862   5.719   1.730   5.467 -0.0259  0.7894 -0.1416
 3254ntf    fn415863   5.653   1.680   5.662  0.6713 -0.3566 -0.3037
 3254ntf    on515864   5.612   1.966   5.584  0.2298 -0.0761  0.3801
 3254ntf    on515865   5.450   1.875   5.421  0.0394  0.5134  0.0162
 3254ntf    on515866   5.227   2.007   5.624 -0.3529  0.0533 -0.2771
 3254ntf    on515867   5.253   1.902   5.848  0.2142 -0.1027 -0.2823
 3254ntf    fn415868   5.041   1.790   5.678 -0.3970 -0.0725 -0.5265
 3254ntf    fn415869   5.177   1.719   5.533  0.4219 -0.3380  0.1966
 3254ntf    fn415870   5.197   1.659   5.742 -0.0857  0.8172  0.2154
 3255ntf    cn115871   3.244   3.631   1.163  0.0047 -0.2128 -0.2516
 3255ntf    sn215872   3.185   3.581   0.998  0.2200 -0.2675 -0.3121
 3255ntf    nn315873   3.047   3.654   0.986  0.1846 -0.3131 -0.1888
 3255ntf    sn215874   2.899   3.601   0.998  0.1887 -0.3139 -0.1449
 3255ntf    cn115875   2.849   3.601   0.823 -0.2740  0.2235 -0.0130
 3255ntf    fn415876   3.352   3.567   1.205  0.0733  0.4462  0.5979
 3255ntf    fn415877   3.268   3.761   1.171  0.3785 -0.2910 -0.1130
 3255ntf    fn415878   3.155   3.599   1.256 -0.0326 -0.1664 -0.2716
 3255ntf    on515879   3.281   3.630   0.903 -0.1198  0.6230 -0.2023
 3255ntf    on515880   3.175   3.438   1.013  0.0221 -0.2053  0.1638
 3255ntf    on515881   2.816   3.702   1.058 -0.2137 -0.9832  0.4357
 3255ntf    on515882   2.877   3.464   1.038 -0.0753 -0.2818 -0.1845
 3255ntf    fn415883   2.805   3.720   0.787  0.0233  0.3664  0.0915
 3255ntf    fn415884   2.942   3.552   0.744 -0.0203  0.3112  0.2268
 3255ntf    fn415885   2.746   3.519   0.815 -0.1672  0.0774  0.0880
 3256ntf    cn115886   2.741   7.066   1.042  0.3129  0.1520 -0.5258
 3256ntf    sn215887   2.763   6.891   0.997  0.2011 -0.0177  0.0698
 3256ntf    nn315888   2.701   6.828   1.126 -0.1709  0.4618  0.1292
 3256ntf    sn215889   2.673   6.676   1.154 -0.1277  0.4955  0.3626
 3256ntf    cn115890   2.496   6.659   1.115 -0.0929  0.4022  0.2414
 3256ntf    fn415891   2.798   7.095   1.158 -1.1197  0.1571  0.1954
 3256ntf    fn415892   2.793   7.154   0.958  0.6776 -0.0108 -0.4745
 3256ntf    fn415893   2.612   7.094   1.050  0.4784  0.9422 -0.4776
 3256ntf    on515894   2.674   6.887   0.884  0.1214 -0.0309  0.1329
 3256ntf    on515895   2.902   6.872   0.965  0.1747  0.2009 -0.1842
 3256ntf    on515896   2.674   6.658   1.297  0.4920  0.2777  0.3320
 3256ntf    on515897   2.742   6.577   1.075 -0.4114  0.7141 -0.1648
 3256ntf    fn415898   2.445   6.543   1.154  0.0867  0.5037  0.7916
 3256ntf    fn415899   2.418   6.753   1.168  0.1270  0.4037  0.5707
 3256ntf    fn415900   2.487   6.685   0.986  0.2063 -0.3385  0.0713
 3257ntf    cn115901   1.302   2.805   1.428  0.2471 -0.2527  0.2640
 3257ntf    sn215902   1.208   2.651   1.409  0.2889 -0.2651  0.1596
 3257ntf    nn315903   1.252   2.609   1.264 -0.1137  0.3520 -0.1452
 3257ntf    sn215904   1.177   2.626   1.127 -0.1932  0.0261 -0.1421
 3257ntf    cn115905   1.320   2.656   1.019 -0.3338  0.1786 -0.2862
 3257ntf    fn415906   1.251   2.906   1.360  0.4738 -0.5178 -0.3057
 3257ntf    fn415907   1.298   2.845   1.554 -0.2799 -0.0252  0.1766
 3257ntf    fn415908   1.429   2.790   1.393  0.1197 -0.9185  0.0846
 3257ntf    on515909   1.272   2.565   1.506 -0.2861 -0.0243  0.7599
 3257ntf    on515910   1.070   2.683   1.434  0.5415  0.7200  0.3153
 3257ntf    on515911   1.102   2.749   1.116  0.2890  0.3208 -0.1827
 3257ntf    on515912   1.120   2.509   1.064  0.2333 -0.4754  0.3922
 3257ntf    fn415913   1.401   2.743   1.076 -0.2388 -0.1656  0.1144
 3257ntf    fn415914   1.388   2.545   0.995 -0.0508  0.2255  0.2790
 3257ntf    fn415915   1.291   2.705   0.900 -0.3540  0.6586 -0.0853
 3258ntf    cn115916   3.479   0.722   4.510 -0.3813 -0.4699 -0.2047
 3258ntf    sn215917   3.465   0.553   4.444  0.2207 -0.7184  0.2958
 3258ntf    nn315918   3.519   0.473   4.568 -0.1148 -0.1873  0.7925
 3258ntf    sn215919   3.454   0.339   4.620 -0.3853 -0.2848  0.2165
 3258ntf    cn115920   3.323   0.407   4.725 -0.0017  0.4708  0.2166
 3258ntf    fn415921   3.427   0.807   4.423 -0.1383  0.3721  0.4657
 3258ntf    fn415922   3.417   0.729   4.626 -0.2977 -0.0126 -0.1868
 3258ntf    fn415923   3.606   0.755   4.529 -0.4905  0.4060 -0.9249
 3258ntf    on515924   3.325   0.545   4.412  0.2513  0.7382 -0.2649
 3258ntf    on515925   3.553   0.551   4.330  0.3698  0.0360  0.3898
 3258ntf    on515926   3.544   0.286   4.720  0.0065 -0.3878 -0.1834
 3258ntf    on515927   3.405   0.249   4.520  0.5332 -0.0425 -0.4700
 3258ntf    fn415928   3.366   0.449   4.843 -0.1488  0.1563  0.3830
 3258ntf    fn415929   3.250   0.502   4.669 -0.5731 -0.0533  0.0620
 3258ntf    fn415930   3.239   0.309   4.753 -0.0951  0.5242  0.1239
 3259ntf    cn115931   5.749   5.114   1.696  0.0949 -0.0246 -0.0691
 3259ntf    sn215932   5.823   4.976   1.603 -0.1789 -0.2598  0.0595
 3259ntf    nn315933   5.921   4.921   1.712 -0.2554  0.3563  0.4446
 3259ntf    sn215934   5.893   4.823   1.830 -0.1083 -0.0000  0.1855
 3259ntf    cn115935   6.001   4.684   1.784 -0.2472  0.0144 -0.1793
 3259ntf    fn415936   5.843   5.193   1.744  0.0823 -0.1774  0.2085
 3259ntf    fn415937   5.685   5.194   1.613  0.3145  0.0683 -0.1496
 3259ntf    fn415938   5.668   5.074   1.793  0.2828 -0.0630  0.0727
 3259ntf    on515939   5.711   4.893   1.565 -0.6468  0.1910  0.4271
 3259ntf    on515940   5.895   5.044   1.498  0.0382  0.4576  0.6656
 3259ntf    on515941   5.757   4.774   1.836 -0.1647  0.1399  0.0249
 3259ntf    on515942   5.958   4.854   1.955  0.4542  0.6149 -0.2553
 3259ntf    fn415943   5.976   4.629   1.666  0.2007  0.6528 -0.5728
 3259ntf    fn415944   6.123   4.733   1.772 -0.0212 -0.5264 -0.1349
 3259ntf    fn415945   5.988   4.592   1.878 -0.1448  0.1116 -0.0707
 3260ntf    cn115946   0.323   5.228   3.447  0.1544 -0.1217  0.2846
 3260ntf    sn215947   0.372   5.161   3.609 -0.3648 -0.0386  0.4753
 3260ntf    nn315948   0.395   5.296   3.684  0.0218  0.1737 -0.0243
 3260ntf    sn215949   0.524   5.341   3.762  0.1361 -0.3104  0.0702
 3260ntf    cn115950   0.541   5.213   3.890 -0.0553 -0.2607  0.1472
 3260ntf    fn415951   0.263   5.143   3.365 -0.2293  0.1988  0.2327
 3260ntf    fn415952   0.232   5.321   3.470 -0.2227 -0.4235  0.0316
 3260ntf    fn415953   0.426   5.285   3.386  0.3618 -0.3497  0.4191
 3260ntf    on515954   0.247   5.102   3.653 -0.2929 -0.4732  0.1080
 3260ntf    on515955   0.483   5.076   3.573 -0.3240  0.0896  0.2991
 3260ntf    on515956   0.488   5.454   3.845 -0.1039 -0.1148 -0.2989
 3260ntf    on515957   0.645   5.349   3.685 -0.1142  0.4033 -0.2564
 3260ntf    fn415958   0.601   5.100   3.854 -0.6574 -0.4509 -0.2728
 3260ntf    fn415959   0.616   5.257   3.989 -0.0887 -0.4598  0.2617
 3260ntf    fn415960   0.429   5.175   3.948  0.2492 -0.3245  0.7040
 3261ntf    cn115961   3.784   5.112   3.800 -0.3546 -0.3436 -0.5340
 3261ntf    sn215962   3.824   5.288   3.822 -0.2776 -0.4188 -0.0445
 3261ntf    nn315963   3.890   5.273   3.963  0.0610  0.5099 -0.1014
 3261ntf    sn215964   3.822   5.265   4.104  0.2906  0.4041  0.0048
 3261ntf    cn115965   3.802   5.441   4.147  0.1922  0.4013 -0.0300
 3261ntf    fn415966   3.755   5.098   3.672 -0.2337  0.1619 -0.6193
 3261ntf    fn415967   3.890   5.032   3.808 -0.2648 -0.2130 -0.4109
 3261ntf    fn415968   3.689   5.059   3.875 -0.5015 -0.0507 -0.5117
 3261ntf    on515969   3.920   5.305   3.715 -0.0571 -0.5322  0.1337
 3261ntf    on515970   3.696   5.352   3.829 -0.2353 -0.2966 -0.3669
 3261ntf    on515971   3.919   5.214   4.197 -0.1602 -0.4080  0.0378
 3261ntf    on515972   3.690   5.207   4.110  0.2503  0.5642  0.7627
 3261ntf    fn415973   3.774   5.515   4.041  0.4159 -0.4315 -0.6800
 3261ntf    fn415974   3.699   5.468   4.226  0.0162 -0.2395 -0.0334
 3261ntf    fn415975   3.905   5.500   4.206  0.2989  0.2333 -0.0481
 3262ntf    cn115976   4.414   5.575   0.810  0.3168 -0.3292  0.0816
 3262ntf    sn215977   4.546   5.497   0.907  0.0253 -0.4558  0.3786
 3262ntf    nn315978   4.457   5.431   1.019 -0.0423  0.0425  0.6193
 3262ntf    sn215979   4.408   5.284   1.045 -0.0235  0.0028  0.4308
 3262ntf    cn115980   4.535   5.235   1.165  0.1775 -0.4976  0.0180
 3262ntf    fn415981   4.327   5.500   0.744 -0.4057  0.4238  0.1541
 3262ntf    fn415982   4.337   5.648   0.890  0.5899  0.0764 -0.0203
 3262ntf    fn415983   4.459   5.653   0.713  0.3907 -0.7956 -0.2634
 3262ntf    on515984   4.617   5.411   0.815  0.4598 -0.0250  0.3054
 3262ntf    on515985   4.627   5.607   0.953 -0.1308 -0.2936  0.2648
 3262ntf    on515986   4.419   5.191   0.935 -0.4479 -0.2367  0.5915
 3262ntf    on515987   4.286   5.294   1.120 -0.1778  0.3812  0.1321
 3262ntf    fn415988   4.498   5.124   1.228 -0.2108 -0.3692  0.0164
 3262ntf    fn415989   4.648   5.203   1.104  0.3034  0.1978 -0.1172
 3262ntf    fn415990   4.556   5.331   1.253 -0.9369  0.3300 -0.5963
 3263ntf    cn115991   0.173   7.087   2.211 -0.1260 -0.2599  0.1209
 3263ntf    sn215992   0.116   7.238   2.295  0.1051 -0.0371 -0.1211
 3263ntf    nn315993   0.256   7.277   2.355 -0.0124 -0.1061  0.2017
 3263ntf    sn215994   0.328   7.415   2.337 -0.1370 -0.0542  0.0986
 3263ntf    cn115995   0.209   7.529   2.414 -0.1421  0.0163 -0.0131
 3263ntf    fn415996   0.072   7.045   2.135  0.0003  0.0852 -0.2432
 3263ntf    fn415997   0.272   7.114   2.128  0.0482  0.0535  0.4320
 3263ntf    fn415998   0.199   6.987   2.294  0.0570  0.0026  0.3807
 3263ntf    on515999   0.065   7.316   2.185 -0.6235 -0.1032  0.1619
 3263ntf    on516000   0.024   7.199   2.399 -0.4441  0.1895 -0.5167
 3263ntf    on516001   0.339   7.466   2.202 -0.0666 -0.2406  0.0334
 3263ntf    on516002   0.445   7.423   2.420 -0.4692 -0.3875  0.6017
 3263ntf    fn416003   0.263   7.648   2.433 -0.6993  0.3460 -0.4515
 3263ntf    fn416004   0.101   7.559   2.344 -0.0928  0.8541  0.2574
 3263ntf    fn416005   0.178   7.492   2.537 -0.1063  0.0468  0.0050
 3264ntf    cn116006   0.857   1.232   3.363 -0.0029  0.0683 -0.4459
 3264ntf    sn216007   0.822   1.119   3.225 -0.0672 -0.3135 -0.1179
 3264ntf    nn316008   0.953   1.033   3.224  0.0702 -0.1081  0.0564
 3264ntf    sn216009   0.971   0.880   3.258  0.0098 -0.2093 -0.3623
 3264ntf    cn116010   1.147   0.855   3.219  0.1114  0.0723 -0.0875
 3264ntf    fn416011   0.761   1.319   3.390  0.1723 -0.0726  0.6987
 3264ntf    fn416012   0.868   1.163   3.475  0.1041  0.6999 -0.0626
 3264ntf    fn416013   0.969   1.302   3.352 -0.3331  0.7318  0.2753
 3264ntf    on516014   0.696   1.057   3.261 -0.6050  0.3227 -0.8721
 3264ntf    on516015   0.814   1.211   3.114 -0.0197  0.6747  0.6819
 3264ntf    on516016   0.908   0.788   3.167 -0.5975 -0.3667  0.2175
 3264ntf    on516017   0.952   0.854   3.398  0.2909  0.2408 -0.2364
 3264ntf    fn416018   1.172   0.856   3.089  0.4540  0.0171 -0.0235
 3264ntf    fn416019   1.221   0.948   3.277  0.1668 -0.1988  0.2779
 3264ntf    fn416020   1.192   0.746   3.279 -0.2796 -0.1491 -0.1930
 3265ntf    cn116021   3.305   6.296   4.685 -0.3863 -0.2439 -0.0359
 3265ntf    sn216022   3.285   6.448   4.783  0.2140  0.0190 -0.3160
 3265ntf    nn316023   3.207   6.395   4.909  0.2510 -0.3028 -0.4293
 3265ntf    sn216024   3.280   6.352   5.041 -0.5616  0.0719  0.1449
 3265ntf    cn116025   3.144   6.267   5.129 -0.3262 -0.3549  0.1012
 3265ntf    fn416026   3.379   6.311   4.577 -0.1000 -0.3433  0.1444
 3265ntf    fn416027   3.366   6.194   4.744  0.4045  0.3194  0.1357
 3265ntf    fn416028   3.190   6.246   4.642 -0.2825 -0.7051  0.2161
 3265ntf    on516029   3.419   6.492   4.815 -0.0825  0.6919  0.0166
 3265ntf    on516030   3.211   6.526   4.687  0.0431  0.5426  0.2374
 3265ntf    on516031   3.297   6.452   5.143  0.4246  0.5033 -0.4354
 3265ntf    on516032   3.387   6.256   5.029 -0.9120 -0.2827 -0.1793
 3265ntf    fn416033   3.061   6.353   5.185  0.4624  0.4602  0.0523
 3265ntf    fn416034   3.075   6.190   5.048  0.2134 -0.3600 -0.3636
 3265ntf    fn416035   3.178   6.188   5.229  0.2804 -0.4000 -0.1346
 3266ntf    cn116036   0.848   6.067   3.223 -0.0495 -0.3815 -0.1269
 3266ntf    sn216037   0.889   5.899   3.281 -0.2593 -0.5061 -0.3359
 3266ntf    nn316038   0.971   5.848   3.157  0.0057 -0.5864 -0.1292
 3266ntf    sn216039   1.102   5.906   3.091  0.0647 -0.2166  0.3081
 3266ntf    cn116040   1.211   5.762   3.111  0.1515 -0.1450  0.3497
 3266ntf    fn416041   0.756   6.120   3.302 -0.1971 -0.0039 -0.5491
 3266ntf    fn416042   0.950   6.151   3.221 -0.3251 -0.0448  0.0113
 3266ntf    fn416043   0.804   6.061   3.098 -0.0033 -0.1957 -0.1529
 3266ntf    on516044   0.955   5.928   3.406  0.0398  0.4257 -0.7040
 3266ntf    on516045   0.758   5.840   3.292 -0.3485 -0.4040 -0.8207
 3266ntf    on516046   1.175   6.011   3.158  0.1938 -0.2816  0.2693
 3266ntf    on516047   1.088   5.919   2.948 -0.0873 -0.5754  0.2886
 3266ntf    fn416048   1.162   5.658   3.046  0.5070 -0.4096  0.5012
 3266ntf    fn416049   1.329   5.785   3.055  0.1989 -0.1365  0.4536
 3266ntf    fn416050   1.235   5.728   3.236  0.1021 -0.0750  0.3783
 3267ntf    cn116051   6.555   1.110   6.900  0.3110 -0.0619  0.4292
 3267ntf    sn216052   6.599   1.045   6.736  0.0704  0.3236  0.2132
 3267ntf    nn316053   6.677   1.171   6.682 -0.4901  0.5829 -0.0061
 3267ntf    sn216054   6.629   1.284   6.585  0.0096  0.5441 -0.3043
 3267ntf    cn116055   6.598   1.200   6.428  0.5579  0.6268 -0.4579
 3267ntf    fn416056   6.663   1.137   6.973  0.5242  0.1755  0.0285
 3267ntf    fn416057   6.475   1.215   6.896  0.0815 -0.2489  0.0798
 3267ntf    fn416058   6.483   1.025   6.971  0.2176 -0.4135 -0.0770
 3267ntf    on516059   6.687   0.934   6.762 -0.3926 -0.0256  0.2995
 3267ntf    on516060   6.482   1.015   6.656  0.5706 -0.0814 -0.3819
 3267ntf    on516061   6.735   1.377   6.554  0.5441  0.0474  0.0309
 3267ntf    on516062   6.496   1.332   6.617  0.0593  0.0975  0.6212
 3267ntf    fn416063   6.605   1.275   6.319 -0.2680  0.4885 -0.6156
 3267ntf    fn416064   6.680   1.098   6.407 -0.1812 -0.0719 -0.0054
 3267ntf    fn416065   6.473   1.155   6.432  0.5631  0.6780  0.2768
 3268ntf    cn116066   6.816   5.682   1.532  0.3001  0.0404 -0.3443
 3268ntf    sn216067   6.673   5.674   1.644  0.1432 -0.1016 -0.5529
 3268ntf    nn316068   6.556   5.735   1.560 -0.4825 -0.1987  0.2404
 3268ntf    sn216069   6.494   5.686   1.425  0.2057 -0.1040 -0.1141
 3268ntf    cn116070   6.316   5.709   1.455  0.2226 -0.3015  0.1394
 3268ntf    fn416071   6.813   5.587   1.441  0.0070 -0.2186 -0.0652
 3268ntf    fn416072   6.822   5.798   1.468 -0.0849  0.6812  0.7534
 3268ntf    fn416073   6.925   5.676   1.606  0.3284 -0.0610 -0.3952
 3268ntf    on516074   6.657   5.534   1.677 -0.8771  0.1085 -0.1217
 3268ntf    on516075   6.707   5.764   1.752  0.3467 -0.1920 -0.5397
 3268ntf    on516076   6.499   5.544   1.397 -0.7664 -0.0566 -0.5963
 3268ntf    on516077   6.503   5.772   1.310 -0.1043  0.1980  0.0854
 3268ntf    fn416078   6.285   5.833   1.490  0.2547 -0.3987  0.5217
 3268ntf    fn416079   6.231   5.671   1.362  0.1571  0.5103 -0.1380
 3268ntf    fn416080   6.284   5.636   1.560  0.1298 -0.0387  0.2959
 3269ntf    cn116081   4.417   4.419   6.237 -0.3206  0.3470 -0.1585
 3269ntf    sn216082   4.452   4.262   6.152  0.1095  0.1260  0.4214
 3269ntf    nn316083   4.550   4.308   6.039 -0.1766  0.1464  0.1805
 3269ntf    sn216084   4.518   4.334   5.888 -0.2477 -0.1380  0.1461
 3269ntf    cn116085   4.682   4.367   5.817 -0.3988 -0.1306 -0.2015
 3269ntf    fn416086   4.363   4.512   6.161 -0.0374  0.2185 -0.5161
 3269ntf    fn416087   4.338   4.387   6.339  0.2187 -0.0443  0.1419
 3269ntf    fn416088   4.524   4.473   6.292 -0.1442  0.1009 -0.2547
 3269ntf    on516089   4.506   4.166   6.246  0.0669  0.2663  0.5883
 3269ntf    on516090   4.322   4.217   6.107  0.0709  0.2663  0.3930
 3269ntf    on516091   4.438   4.450   5.853 -0.5211 -0.4583 -0.3135
 3269ntf    on516092   4.486   4.215   5.814 -0.6927  0.1497 -0.1320
 3269ntf    fn416093   4.775   4.294   5.875 -0.2655  0.0731 -0.1620
 3269ntf    fn416094   4.688   4.350   5.686 -0.1794  0.0246 -0.2109
 3269ntf    fn416095   4.712   4.492   5.848 -0.0897 -0.1088 -0.5830
 3270ntf    cn116096   2.839   1.178   1.781  0.0037 -0.0898 -0.4628
 3270ntf    sn216097   2.831   0.996   1.793  0.0578 -0.0776 -0.2379
 3270ntf    nn316098   2.756   0.954   1.662  0.1178 -0.4956 -0.1381
 3270ntf    sn216099   2.604   0.918   1.641 -0.0374  0.1673 -0.1723
 3270ntf    cn116100   2.598   0.739   1.672 -0.1270  0.1892 -0.0638
 3270ntf    fn416101   2.943   1.248   1.823 -0.1250  0.0206 -0.3253
 3270ntf    fn416102   2.832   1.210   1.653  0.8804 -0.0925 -0.5152
 3270ntf    fn416103   2.727   1.227   1.832 -0.0696 -0.2525 -0.4628
 3270ntf    on516104   2.971   0.964   1.801  0.1751  0.4746 -0.0390
 3270ntf    on516105   2.760   0.971   1.916 -0.0295 -0.2915 -0.3316
 3270ntf    on516106   2.567   0.930   1.502  0.0868  0.4930 -0.1793
 3270ntf    on516107   2.507   0.976   1.730 -0.7550 -0.8011 -0.3099
 3270ntf    fn416108   2.629   0.715   1.798 -0.2413 -0.1483 -0.0979
 3270ntf    fn416109   2.475   0.691   1.665 -0.0177 -0.1150  0.0527
 3270ntf    fn416110   2.679   0.658   1.605  0.0091  0.0172  0.3045
 3271ntf    cn116111   0.600   2.060   1.176  0.0815 -0.3439 -0.0784
 3271ntf    sn216112   0.545   2.233   1.187  0.0698 -0.3285 -0.3724
 3271ntf    nn316113   0.392   2.213   1.162 -0.0632  0.3686 -0.1536
 3271ntf    sn216114   0.317   2.217   1.023  0.0398  0.2775 -0.2121
 3271ntf    cn116115   0.242   2.052   1.026 -0.0168  0.3043 -0.1791
 3271ntf    fn416116   0.558   1.977   1.270  0.5762 -0.0601  0.4059
 3271ntf    fn416117   0.563   2.010   1.060  0.2997 -0.0019 -0.2982
 3271ntf    fn416118   0.731   2.043   1.178  0.1983  0.5236  0.0216
 3271ntf    on516119   0.566   2.272   1.325  0.0578  0.0658 -0.4801
 3271ntf    on516120   0.606   2.315   1.085  0.2380 -0.2740 -0.2278
 3271ntf    on516121   0.404   2.214   0.908  0.2627  0.1683 -0.0412
 3271ntf    on516122   0.203   2.305   1.032 -0.1985 -0.1116  0.7345
 3271ntf    fn416123   0.147   2.028   1.116  0.3041 -0.0201  0.0792
 3271ntf    fn416124   0.184   2.016   0.913 -0.4444 -0.0411  0.1430
 3271ntf    fn416125   0.334   1.961   1.052 -0.2925  0.2119  0.5240
 3272ntf    cn116126   0.675   1.568   2.936 -0.0006  0.4412  0.2541
 3272ntf    sn216127   0.518   1.637   2.994 -0.1826  0.2725 -0.0398
 3272ntf    nn316128   0.554   1.692   3.136  0.2060 -0.1514  0.0277
 3272ntf    sn216129   0.513   1.635   3.276  0.0021 -0.3515 -0.1140
 3272ntf    cn116130   0.395   1.763   3.328 -0.1203 -0.5541  0.1113
 3272ntf    fn416131   0.711   1.467   3.013 -0.2835  0.2571  0.1442
 3272ntf    fn416132   0.665   1.531   2.809 -0.0580  0.0976  0.3593
 3272ntf    fn416133   0.777   1.651   2.948  0.1192  0.2755  0.3877
 3272ntf    on516134   0.504   1.747   2.901  0.0880 -0.1769 -0.6220
 3272ntf    on516135   0.424   1.528   2.986 -0.1162  0.2018  0.1484
 3272ntf    on516136   0.618   1.652   3.373 -0.4929  0.9096  0.2272
 3272ntf    on516137   0.439   1.511   3.272 -0.7821  0.1079 -0.0761
 3272ntf    fn416138   0.292   1.771   3.246  0.0878 -0.6495 -0.1590
 3272ntf    fn416139   0.366   1.737   3.455 -0.1324  0.4204  0.3222
 3272ntf    fn416140   0.459   1.879   3.316  0.5241 -0.9495 -0.3424
 3273ntf    cn116141   1.335   1.274   0.172  0.0924 -0.2051  0.1632
 3273ntf    sn216142   1.229   1.131   0.209  0.1864 -0.3906 -0.2761
 3273ntf    nn316143   1.339   1.020   0.207 -0.1776 -0.7503 -0.5510
 3273ntf    sn216144   1.416   0.951   0.326 -0.1921 -0.0543 -0.1330
 3273ntf    cn116145   1.588   0.971   0.271 -0.3748  0.5324 -0.5127
 3273ntf    fn416146   1.272   1.363   0.096 -0.0110 -0.2877  0.1528
 3273ntf    fn416147   1.383   1.344   0.273  0.1490  0.1954 -0.1359
 3273ntf    fn416148   1.444   1.241   0.105 -0.0053 -0.4468  0.1239
 3273ntf    on516149   1.173   1.172   0.336  0.4877 -0.1773 -0.2114
 3273ntf    on516150   1.139   1.145   0.096  0.3037  0.2042 -0.3005
 3273ntf    on516151   1.405   0.808   0.333  0.0450 -0.0826 -0.3041
 3273ntf    on516152   1.413   1.020   0.452 -0.5496  0.1016 -0.2242
 3273ntf    fn416153   1.672   0.874   0.306 -0.6470  0.2615 -0.6119
 3273ntf    fn416154   1.599   0.988   0.141 -0.4694 -0.1707 -0.6168
 3273ntf    fn416155   1.643   1.083   0.316 -0.1423 -0.0150  0.6238
 3274ntf    cn116156   1.264   1.687   3.520  0.2388  0.0298  0.1493
 3274ntf    sn216157   1.374   1.831   3.507  0.3880 -0.1312 -0.4239
 3274ntf    nn316158   1.396   1.839   3.352  0.4790  0.2724 -0.3912
 3274ntf    sn216159   1.526   1.794   3.277  0.5485 -0.1174 -0.0438
 3274ntf    cn116160   1.617   1.952   3.280 -0.0147  0.2114 -0.0538
 3274ntf    fn416161   1.250   1.649   3.646  0.2607  0.2910  0.2304
 3274ntf    fn416162   1.145   1.709   3.466  0.4427 -0.0600 -0.3389
 3274ntf    fn416163   1.308   1.581   3.455 -0.2017  0.0617 -0.2077
 3274ntf    on516164   1.290   1.941   3.550  0.5561 -0.1335 -0.0801
 3274ntf    on516165   1.488   1.798   3.589 -0.2995  0.5264  0.8366
 3274ntf    on516166   1.510   1.789   3.133 -0.1991 -0.3955  0.0451
 3274ntf    on516167   1.614   1.697   3.337  0.1666 -0.2417  0.3143
 3274ntf    fn416168   1.558   2.040   3.201 -0.4908  0.2572  0.3493
 3274ntf    fn416169   1.631   1.995   3.405 -0.7006  0.4268 -0.0458
 3274ntf    fn416170   1.741   1.941   3.235 -0.0599  0.0749 -0.1457
 3275ntf    cn116171   1.227   4.903   0.491  0.2111  0.2523  0.3163
 3275ntf    sn216172   1.408   4.889   0.482  0.1618 -0.0340 -0.3287
 3275ntf    nn316173   1.447   5.011   0.392  0.1610  0.1502 -0.0814
 3275ntf    sn216174   1.463   5.027   0.236  0.2269  0.1001 -0.0797
 3275ntf    cn116175   1.627   4.959   0.197  0.1540  0.0116 -0.2318
 3275ntf    fn416176   1.188   5.015   0.550  0.2503  0.2821  0.2859
 3275ntf    fn416177   1.172   4.908   0.371  0.5396  0.2648  0.1631
 3275ntf    fn416178   1.171   4.801   0.553  0.1180  0.0345 -0.1167
 3275ntf    on516179   1.441   4.904   0.622  0.0405 -0.1910 -0.2835
 3275ntf    on516180   1.441   4.760   0.425 -0.1191 -0.1244 -0.2847
 3275ntf    on516181   1.471   5.166   0.200 -0.2229  0.0888 -0.2309
 3275ntf    on516182   1.373   4.946   0.158  0.3307 -0.3123  0.2233
 3275ntf    fn416183   1.648   4.848   0.267  0.0770  0.0982 -0.0684
 3275ntf    fn416184   1.649   4.932   0.070 -0.6275 -0.0006 -0.3717
 3275ntf    fn416185   1.726   5.036   0.240  0.0858 -0.0045 -0.0422
 3276ntf    cn116186   3.048   0.128   3.251 -0.1676  0.0458 -0.2008
 3276ntf    sn216187   3.226   0.149   3.281 -0.1542 -0.0698 -0.1995
 3276ntf    nn316188   3.218   0.272   3.377  0.4593  0.1414 -0.4143
 3276ntf    sn216189   3.281   0.416   3.365  0.1722  0.2918 -0.1478
 3276ntf    cn116190   3.147   0.500   3.276  0.0250  0.4113  0.1861
 3276ntf    fn416191   2.976   0.104   3.359 -0.3826  0.0034 -0.3536
 3276ntf    fn416192   2.995   0.226   3.180 -0.1644 -0.1149 -0.4255
 3276ntf    fn416193   3.034   0.019   3.179 -0.0448  0.2464 -0.5317
 3276ntf    on516194   3.264   0.023   3.339  0.5247  0.0506 -0.3718
 3276ntf    on516195   3.275   0.181   3.149  0.0044  0.9228  0.0913
 3276ntf    on516196   3.398   0.419   3.281 -0.1093 -0.0437 -0.5552
 3276ntf    on516197   3.290   0.495   3.485 -0.7168  0.5415 -0.2406
 3276ntf    fn416198   3.173   0.627   3.250  0.1274  0.2896 -0.3206
 3276ntf    fn416199   3.111   0.440   3.164  0.2714  0.5058  0.0545
 3276ntf    fn416200   3.037   0.508   3.350 -0.2721 -0.0771 -0.1978
 3277ntf    cn116201   2.023   1.020   6.005  0.0006  0.1758 -0.1392
 3277ntf    sn216202   1.926   1.170   5.974 -0.0929  0.1251 -0.0929
 3277ntf    nn316203   1.776   1.127   5.982  0.0467 -0.2392  0.5405
 3277ntf    sn216204   1.659   1.150   6.085 -0.3811 -0.1343  0.0355
 3277ntf    cn116205   1.560   0.998   6.073 -0.2407 -0.2177 -0.0804
 3277ntf    fn416206   1.985   0.949   6.110  0.6418 -0.7352 -0.5068
 3277ntf    fn416207   2.019   0.947   5.894 -0.2652 -0.2105  0.1202
 3277ntf    fn416208   2.152   1.038   6.028 -0.0041  0.1895 -0.1247
 3277ntf    on516209   1.963   1.259   6.081 -0.4356 -0.0433  0.1633
 3277ntf    on516210   1.968   1.214   5.843 -0.0489  0.1969 -0.0554
 3277ntf    on516211   1.565   1.253   6.050 -0.0625  0.1342 -0.0294
 3277ntf    on516212   1.696   1.156   6.224  0.0796  0.1242 -0.0957
 3277ntf    fn416213   1.514   0.971   5.952 -0.3026  0.5281 -0.2304
 3277ntf    fn416214   1.631   0.895   6.114 -0.0856 -0.1858 -0.2657
 3277ntf    fn416215   1.454   0.996   6.152 -0.0238 -0.4144  0.2046
 3278ntf    cn116216   4.865   5.923   1.309  0.3263 -0.0891  0.0548
 3278ntf    sn216217   4.924   6.039   1.183 -0.2200  0.0167 -0.1032
 3278ntf    nn316218   4.786   6.046   1.107 -0.6214 -0.2306  0.5973
 3278ntf    sn216219   4.674   6.156   1.108 -0.2173  0.1937 -0.0110
 3278ntf    cn116220   4.527   6.051   1.085 -0.2558  0.1944  0.2307
 3278ntf    fn416221   4.764   5.965   1.383  0.4035 -0.3190  0.2937
 3278ntf    fn416222   4.824   5.805   1.265 -0.4409  0.2603 -0.1789
 3278ntf    fn416223   4.968   5.902   1.390  0.2444  0.3709  0.2808
 3278ntf    on516224   4.972   6.154   1.255 -0.2485 -0.0241 -0.0186
 3278ntf    on516225   5.020   5.964   1.106 -0.0383  0.1015  0.0426
 3278ntf    on516226   4.657   6.236   0.989 -0.4973 -0.2847 -0.2953
 3278ntf    on516227   4.638   6.233   1.225  0.1812  0.1000  0.1741
 3278ntf    fn416228   4.500   5.969   1.185  0.3834 -0.0244  0.2295
 3278ntf    fn416229   4.416   6.120   1.062 -0.2422  0.2306  0.2689
 3278ntf    fn416230   4.544   5.977   0.977 -0.2201  0.2480  0.1999
 3279ntf    cn116231   2.837   2.586   4.477 -0.3104  0.0773 -0.3751
 3279ntf    sn216232   2.914   2.540   4.319  0.2840  0.4487 -0.1949
 3279ntf    nn316233   2.931   2.682   4.254 -0.5666  0.3067 -0.7439
 3279ntf    sn216234   3.060   2.754   4.200 -0.2289  0.2178 -0.0652
 3279ntf    cn116235   3.036   2.922   4.264 -0.6301  0.2403 -0.2735
 3279ntf    fn416236   2.837   2.491   4.570 -0.0932  0.4615  0.0222
 3279ntf    fn416237   2.894   2.692   4.531 -0.0021 -0.2263 -0.0968
 3279ntf    fn416238   2.713   2.629   4.458 -0.4087  0.0725  0.2159
 3279ntf    on516239   3.038   2.479   4.359 -0.1059 -0.6264 -0.5722
 3279ntf    on516240   2.818   2.456   4.251  0.5912 -0.4125  0.4204
 3279ntf    on516241   3.064   2.774   4.057  0.1861 -0.1733 -0.1120
 3279ntf    on516242   3.186   2.731   4.266 -0.5936 -0.2380  0.4874
 3279ntf    fn416243   3.136   3.008   4.252  0.1855 -0.6646 -0.0566
 3279ntf    fn416244   2.938   2.982   4.197 -0.9513 -0.2964 -0.2883
 3279ntf    fn416245   2.994   2.915   4.389  0.2569 -0.1330  0.0049
 3280ntf    cn116246   2.844   1.457   1.081 -0.0046 -0.2798 -0.0022
 3280ntf    sn216247   2.806   1.391   0.916 -0.3611 -0.1533  0.0267
 3280ntf    nn316248   2.742   1.511   0.839 -0.3279 -0.3867 -0.3695
 3280ntf    sn216249   2.594   1.526   0.787 -0.2958  0.0820 -0.3327
 3280ntf    cn116250   2.579   1.706   0.808  0.3202  0.0727  0.2482
 3280ntf    fn416251   2.857   1.368   1.178 -0.3279 -0.1872  0.1288
 3280ntf    fn416252   2.960   1.520   1.077 -0.1119 -0.1235 -0.7616
 3280ntf    fn416253   2.758   1.544   1.132  0.1607 -0.1355  0.0314
 3280ntf    on516254   2.936   1.371   0.856 -0.4987 -0.0399 -0.3091
 3280ntf    on516255   2.728   1.271   0.927  0.6195 -0.7792  0.3354
 3280ntf    on516256   2.495   1.472   0.876 -0.0940 -0.2233 -0.2911
 3280ntf    on516257   2.570   1.501   0.647 -0.4407  0.2178 -0.3328
 3280ntf    fn416258   2.484   1.771   0.742  0.4352  0.6170  0.6150
 3280ntf    fn416259   2.553   1.739   0.933  0.5636  0.3404  0.2289
 3280ntf    fn416260   2.691   1.766   0.771  0.3901 -0.1038  0.1727
 3281ntf    cn116261   5.179   7.132   3.343  0.0902  0.6021  0.0498
 3281ntf    sn216262   5.306   7.087   3.465 -0.1166 -0.0361  0.0334
 3281ntf    nn316263   5.210   7.046   3.582 -0.5058  0.1202 -0.2255
 3281ntf    sn216264   5.141   6.908   3.611 -0.2914  0.0778  0.0836
 3281ntf    cn116265   5.255   6.841   3.737  0.0680  0.2282 -0.1607
 3281ntf    fn416266   5.091   7.215   3.398 -0.4535 -0.0404  0.1542
 3281ntf    fn416267   5.227   7.187   3.232  0.6354  0.1954  0.0799
 3281ntf    fn416268   5.111   7.026   3.301  0.2540  0.4709  0.1182
 3281ntf    on516269   5.380   6.984   3.397  0.0044  0.0604  0.0188
 3281ntf    on516270   5.386   7.205   3.490  0.1686 -0.2294  0.0386
 3281ntf    on516271   5.146   6.810   3.506 -0.5073  0.3440 -0.1763
 3281ntf    on516272   5.017   6.926   3.682 -0.5767 -0.0094 -0.3982
 3281ntf    fn416273   5.235   6.905   3.851  0.2391 -0.0018 -0.0018
 3281ntf    fn416274   5.224   6.715   3.763  0.1034  0.2467 -0.0303
 3281ntf    fn416275   5.381   6.854   3.697  0.0609  0.5655 -0.0827
 3282ntf    cn116276   7.158   5.569   3.101 -0.2090  0.2499 -0.1012
 3282ntf    sn216277   7.274   5.432   3.074 -0.2733  0.1097  0.3313
 3282ntf    nn316278   7.377   5.502   2.978  0.1461 -0.5320  0.3080
 3282ntf    sn216279   7.416   5.467   2.830 -0.1063 -0.0310  0.1198
 3282ntf    cn116280   7.268   5.516   2.736  0.0438  0.0725 -0.0627
 3282ntf    fn416281   7.087   5.591   2.991  0.0452  0.0057 -0.3159
 3282ntf    fn416282   7.061   5.544   3.188 -0.4740  0.7854 -0.2385
 3282ntf    fn416283   7.208   5.685   3.139  0.2632  0.0168 -0.0181
 3282ntf    on516284   7.322   5.422   3.210  0.2749  0.1234  0.1422
 3282ntf    on516285   7.198   5.323   3.020  0.2363  0.0388 -0.2554
 3282ntf    on516286   7.432   5.325   2.811  0.3079 -0.0625  0.6729
 3282ntf    on516287   7.518   5.555   2.780  0.1446 -0.0642  0.5647
 3282ntf    fn416288   7.160   5.443   2.762  0.0458  0.0389 -0.1506
 3282ntf    fn416289   7.242   5.643   2.763  0.1552 -0.0349  0.5795
 3282ntf    fn416290   7.286   5.508   2.606 -0.0346 -0.1447 -0.0619
 3283ntf    cn116291   2.926   1.001   4.720  0.0911  0.1387  0.0047
 3283ntf    sn216292   2.906   1.174   4.667 -0.3520  0.0092 -0.2540
 3283ntf    nn316293   2.788   1.203   4.766 -0.0167  0.4094  0.0330
 3283ntf    sn216294   2.785   1.258   4.913 -0.0019  0.4562  0.0155
 3283ntf    cn116295   2.631   1.353   4.895 -0.2407  0.0554 -0.0891
 3283ntf    fn416296   2.963   1.005   4.847 -0.2071 -0.0392  0.0978
 3283ntf    fn416297   2.816   0.928   4.714  0.4578 -0.3975 -0.2324
 3283ntf    fn416298   3.017   0.938   4.648 -0.1129 -0.2141  0.0542
 3283ntf    on516299   3.034   1.233   4.694 -0.0396 -0.8353  0.1487
 3283ntf    on516300   2.863   1.178   4.529  0.0862  0.3928 -0.3808
 3283ntf    on516301   2.881   1.362   4.937  0.0508  0.3007  0.4980
 3283ntf    on516302   2.757   1.158   5.014 -0.2164  0.5547  0.0562
 3283ntf    fn416303   2.537   1.289   4.827 -0.0773  0.1478 -0.4068
 3283ntf    fn416304   2.576   1.391   5.009 -0.7308  0.7641 -0.5538
 3283ntf    fn416305   2.654   1.468   4.833  0.0663  0.0541  0.0224
 3284ntf    cn116306   4.410   6.159   6.694 -0.1403  0.0393  0.2826
 3284ntf    sn216307   4.407   6.095   6.524 -0.2000  0.0695  0.2721
 3284ntf    nn316308   4.385   5.942   6.552 -0.2461  0.0666  0.2199
 3284ntf    sn216309   4.478   5.816   6.541 -0.1439  0.1810 -0.2327
 3284ntf    cn116310   4.418   5.749   6.383 -0.3375 -0.0515 -0.0606
 3284ntf    fn416311   4.295   6.146   6.759 -0.2256 -0.0353  0.1191
 3284ntf    fn416312   4.502   6.105   6.772  0.0359  0.0637  0.0928
 3284ntf    fn416313   4.433   6.289   6.704  0.0531 -0.0001  0.3613
 3284ntf    on516314   4.285   6.150   6.470 -0.0080 -0.1913 -0.4359
 3284ntf    on516315   4.534   6.135   6.467  0.1554 -0.9412  0.3292
 3284ntf    on516316   4.446   5.713   6.636 -0.0364 -0.1777 -0.5846
 3284ntf    on516317   4.618   5.843   6.527 -0.0855 -0.0408 -0.0762
 3284ntf    fn416318   4.416   5.832   6.279 -0.2132  0.0770  0.0398
 3284ntf    fn416319   4.500   5.651   6.350 -0.5265 -0.1845 -0.1363
 3284ntf    fn416320   4.297   5.695   6.384 -0.3329 -0.0603  0.0297
 3285ntf    cn116321   0.356   6.377   0.406  0.1811 -0.2230 -0.2952
 3285ntf    sn216322   0.348   6.292   0.567  0.2382  0.0138 -0.1669
 3285ntf    nn316323   0.358   6.144   0.514 -0.6548  0.0359 -0.4175
 3285ntf    sn216324   0.406   6.015   0.589  0.1839  0.4305 -0.2666
 3285ntf    cn116325   0.566   5.976   0.511  0.1370 -0.0322 -0.1377
 3285ntf    fn416326   0.477   6.375   0.354  0.2973  0.0933 -0.0385
 3285ntf    fn416327   0.274   6.314   0.323 -0.1180 -0.0127 -0.1596
 3285ntf    fn416328   0.308   6.500   0.411 -0.2921 -0.3896 -0.6331
 3285ntf    on516329   0.471   6.341   0.622  0.2506 -0.3192  0.1090
 3285ntf    on516330   0.222   6.325   0.630  0.0220 -0.6933 -0.2162
 3285ntf    on516331   0.325   5.902   0.548 -0.0551  0.3266  0.4757
 3285ntf    on516332   0.442   6.026   0.728  0.2112 -0.0375 -0.2353
 3285ntf    fn416333   0.649   6.079   0.520 -0.1968  0.2430 -0.2023
 3285ntf    fn416334   0.636   5.881   0.570  0.2219 -0.0510 -0.2669
 3285ntf    fn416335   0.558   5.947   0.382 -0.0507 -0.2861 -0.0684
 3286ntf    cn116336   2.450   6.582   5.129  0.0828  0.0106  0.4244
 3286ntf    sn216337   2.421   6.403   5.132 -0.2321  0.0474 -0.1234
 3286ntf    nn316338   2.525   6.362   5.022  0.1567 -0.2573  0.3489
 3286ntf    sn216339   2.506   6.248   4.916 -0.0401  0.2209 -0.1378
 3286ntf    cn116340   2.679   6.209   4.878 -0.2098 -0.2289 -0.4594
 3286ntf    fn416341   2.376   6.640   5.223 -0.0418 -0.4190  0.5919
 3286ntf    fn416342   2.577   6.607   5.153  0.0960  0.1144  0.2503
 3286ntf    fn416343   2.418   6.648   5.019  0.3652 -0.4922  0.0360
 3286ntf    on516344   2.466   6.364   5.264  0.0231  0.7361 -0.0034
 3286ntf    on516345   2.285   6.385   5.089 -0.3830 -0.5886  0.5893
 3286ntf    on516346   2.468   6.298   4.787 -0.3856  0.0063 -0.1218
 3286ntf    on516347   2.460   6.122   4.971 -0.2359  0.4233  0.1688
 3286ntf    fn416348   2.699   6.091   4.821  0.1894 -0.2210 -0.3345
 3286ntf    fn416349   2.730   6.305   4.802 -0.0064  0.0714  0.0514
 3286ntf    fn416350   2.745   6.204   4.992 -0.3500 -0.1567 -0.3754
 3287ntf    cn116351   6.882   1.588   3.973  0.1274  0.1475  0.2373
 3287ntf    sn216352   6.909   1.641   4.145  0.0836 -0.1259  0.3294
 3287ntf    nn316353   6.777   1.597   4.217 -0.0231  0.1645  0.3124
 3287ntf    sn216354   6.646   1.684   4.229 -0.0228  0.2060  0.0248
 3287ntf    cn116355   6.679   1.769   4.386  0.3124 -0.2684  0.2143
 3287ntf    fn416356   6.992   1.608   3.902  0.1155 -0.5071  0.0252
 3287ntf    fn416357   6.848   1.462   3.953  0.4844  0.0856  0.0125
 3287ntf    fn416358   6.786   1.659   3.915  0.1559 -0.6570 -0.8138
 3287ntf    on516359   7.015   1.551   4.181  0.3722  0.1714  0.2271
 3287ntf    on516360   6.945   1.781   4.137  0.1418 -0.1782 -0.3666
 3287ntf    on516361   6.537   1.596   4.263 -0.1207  0.4253  0.2832
 3287ntf    on516362   6.624   1.792   4.136 -0.5212 -0.1092 -0.2268
 3287ntf    fn416363   6.792   1.837   4.383  0.2055 -0.0850  0.3611
 3287ntf    fn416364   6.581   1.850   4.422  0.4578 -0.0277  0.0692
 3287ntf    fn416365   6.687   1.688   4.491 -0.2742 -0.1775  0.3336
 3288ntf    cn116366   6.731   2.669   1.770 -0.1545 -0.2526  0.5522
 3288ntf    sn216367   6.783   2.843   1.773  0.0428 -0.2990 -0.2115
 3288ntf    nn316368   6.651   2.916   1.728  0.3722  0.2444 -0.3129
 3288ntf    sn216369   6.606   2.961   1.584  0.2081 -0.0143 -0.3428
 3288ntf    cn116370   6.679   3.126   1.571  0.4455 -0.0876  0.0437
 3288ntf    fn416371   6.679   2.624   1.658 -0.0967  0.2708  0.3140
 3288ntf    fn416372   6.833   2.591   1.801  0.1011 -0.0935  0.1210
 3288ntf    fn416373   6.639   2.641   1.862 -0.1818 -0.7257  0.3830
 3288ntf    on516374   6.799   2.856   1.915 -0.6853  0.0488 -0.1532
 3288ntf    on516375   6.898   2.849   1.686  0.2999  0.1035  0.1553
 3288ntf    on516376   6.465   2.992   1.581  0.1585 -0.2194 -0.1798
 3288ntf    on516377   6.667   2.885   1.478 -0.3852 -0.2853 -0.4938
 3288ntf    fn416378   6.677   3.193   1.686  0.4671  0.2680 -0.1596
 3288ntf    fn416379   6.809   3.125   1.545  0.4262 -0.1228 -0.0507
 3288ntf    fn416380   6.628   3.209   1.482  0.6113  0.0551  0.0799
 3289ntf    cn116381   6.883   3.425   0.345 -0.4904 -0.2814 -0.4227
 3289ntf    sn216382   7.042   3.444   0.431 -0.5084  0.1408 -0.4803
 3289ntf    nn316383   7.094   3.296   0.422 -0.5742  0.1238 -0.5777
 3289ntf    sn216384   7.191   3.243   0.310 -0.0555 -0.3137  0.0691
 3289ntf    cn116385   7.345   3.305   0.382 -0.1711  0.1879 -0.1127
 3289ntf    fn416386   6.810   3.535   0.358  0.2128  0.2133 -0.6259
 3289ntf    fn416387   6.887   3.394   0.217  0.2990  0.1249 -0.5030
 3289ntf    fn416388   6.818   3.326   0.404 -0.2325 -0.4139 -0.3591
 3289ntf    on516389   7.099   3.549   0.351 -0.4904  0.3073 -0.2529
 3289ntf    on516390   7.007   3.481   0.566 -0.2229  0.1983 -0.4221
 3289ntf    on516391   7.186   3.310   0.182  0.2143 -0.1802  0.1286
 3289ntf    on516392   7.209   3.100   0.310 -0.1560 -0.3269  0.3418
 3289ntf    fn416393   7.375   3.246   0.496  0.3384 -0.2106 -0.4481
 3289ntf    fn416394   7.450   3.275   0.306 -0.0078  0.0353  0.1717
 3289ntf    fn416395   7.344   3.436   0.404 -0.0113  0.2838 -0.6524
 3290ntf    cn116396   1.302   1.959   5.741 -0.1689 -0.0211 -0.3406
 3290ntf    sn216397   1.290   2.107   5.636 -0.1021  0.2259  0.0005
 3290ntf    nn316398   1.184   2.188   5.719  0.0819  0.4273  0.0420
 3290ntf    sn216399   1.129   2.334   5.706 -0.5329  0.1692 -0.3341
 3290ntf    cn116400   1.235   2.419   5.827 -0.0982 -0.6598 -0.1245
 3290ntf    fn416401   1.345   1.852   5.676  0.0337 -0.1043 -0.0705
 3290ntf    fn416402   1.379   1.974   5.847  0.0431 -0.5148 -0.4202
 3290ntf    fn416403   1.186   1.923   5.793 -0.0815  0.3076  0.0866
 3290ntf    on516404   1.426   2.155   5.635 -0.1094  0.2580  0.3619
 3290ntf    on516405   1.231   2.061   5.513 -0.2723 -0.9977  0.5250
 3290ntf    on516406   0.995   2.347   5.758 -0.3260 -0.1825  0.3002
 3290ntf    on516407   1.152   2.412   5.587 -0.6856 -0.1249 -0.5557
 3290ntf    fn416408   1.215   2.550   5.830  0.4124 -0.5809 -0.0667
 3290ntf    fn416409   1.220   2.374   5.950  0.0419 -0.1438  0.0831
 3290ntf    fn416410   1.362   2.403   5.794  0.0112  0.4329 -0.2775
 3291ntf    cn116411   4.147   3.442   1.719 -0.1804 -0.0558  0.2397
 3291ntf    sn216412   4.172   3.478   1.542  0.0846 -0.1282  0.2625
 3291ntf    nn316413   4.113   3.346   1.483 -0.4718  0.3052 -0.1577
 3291ntf    sn216414   3.971   3.299   1.435 -0.4035  0.2220 -0.2792
 3291ntf    cn116415   3.930   3.191   1.575  0.5103 -0.0413 -0.2070
 3291ntf    fn416416   4.027   3.481   1.758 -0.3544  0.1294 -0.4595
 3291ntf    fn416417   4.159   3.317   1.760 -0.1355 -0.0425  0.2679
 3291ntf    fn416418   4.227   3.510   1.800 -0.3346  0.2822  0.1108
 3291ntf    on516419   4.088   3.594   1.526 -0.2182 -0.5116 -1.0368
 3291ntf    on516420   4.316   3.490   1.531  0.0842 -0.4973 -0.1615
 3291ntf    on516421   3.986   3.201   1.330 -0.5544  0.3203 -0.3923
 3291ntf    on516422   3.869   3.400   1.418 -0.3221  0.4515  0.5323
 3291ntf    fn416423   4.038   3.123   1.608  0.1652 -0.5827 -0.1766
 3291ntf    fn416424   3.892   3.257   1.684  0.3876  0.0419 -0.2987
 3291ntf    fn416425   3.840   3.097   1.555  0.1925  0.2719 -0.2760
 3292ntf    cn116426   5.610   3.008   4.104  0.0880 -0.2695  0.3381
 3292ntf    sn216427   5.737   2.911   4.189  0.3253  0.1030  0.4102
 3292ntf    nn316428   5.841   2.880   4.075 -0.1525 -0.4132  0.1126
 3292ntf    sn216429   5.970   2.791   4.071  0.1729  0.0706 -0.2937
 3292ntf    cn116430   5.937   2.670   3.940  0.1703  0.0592 -0.2833
 3292ntf    fn416431   5.500   3.028   4.175 -0.2477  0.7138 -0.4245
 3292ntf    fn416432   5.647   3.125   4.053 -0.5610 -0.0903  0.2673
 3292ntf    fn416433   5.566   2.937   4.001 -0.2499  0.0756  0.2414
 3292ntf    on516434   5.782   2.998   4.295  0.1146  0.2700  0.3620
 3292ntf    on516435   5.663   2.796   4.233  0.9503 -0.4707 -0.0068
 3292ntf    on516436   5.977   2.706   4.188 -0.3122  0.5121  0.0578
 3292ntf    on516437   6.087   2.858   4.020 -0.1831  0.6020 -0.4131
 3292ntf    fn416438   5.923   2.719   3.818 -0.0966  0.1574 -0.2141
 3292ntf    fn416439   6.031   2.577   3.933  0.2349  0.0701  0.3526
 3292ntf    fn416440   5.824   2.602   3.958  0.3878 -0.2532 -0.0803
 3293ntf    cn116441   0.736   2.025   1.711  0.1260  0.2298  0.2642
 3293ntf    sn216442   0.682   2.150   1.832 -0.1198  0.1334  0.2563
 3293ntf    nn316443   0.529   2.119   1.828 -0.0071 -0.3736 -0.2486
 3293ntf    sn216444   0.426   2.133   1.946  0.3031  0.1302 -0.0350
 3293ntf    cn116445   0.320   2.271   1.892 -0.0321 -0.1898 -0.2048
 3293ntf    fn416446   0.669   2.038   1.597 -0.0026  0.5408  0.3751
 3293ntf    fn416447   0.864   2.024   1.678 -0.0681  0.6464 -0.5336
 3293ntf    fn416448   0.708   1.905   1.759 -0.3230  0.3063  0.1996
 3293ntf    on516449   0.752   2.116   1.954  0.9626  0.5474 -0.2349
 3293ntf    on516450   0.727   2.274   1.773  0.1899  0.2466  0.7196
 3293ntf    on516451   0.470   2.178   2.076  0.2003 -0.1503  0.0959
 3293ntf    on516452   0.330   2.026   1.946  0.2985  0.1326 -0.2315
 3293ntf    fn416453   0.395   2.373   1.850 -0.3254 -0.1711 -0.6898
 3293ntf    fn416454   0.253   2.247   1.781 -0.4415  0.6412 -0.1502
 3293ntf    fn416455   0.223   2.309   1.974  0.0179  0.1376 -0.2945
 3294ntf    cn116456   4.929   4.681   2.409  0.0484 -0.0890  0.4106
 3294ntf    sn216457   5.071   4.615   2.500  0.2318  0.0535  0.2286
 3294ntf    nn316458   5.171   4.735   2.484  0.2313 -0.0011 -0.2067
 3294ntf    sn216459   5.179   4.857   2.583 -0.0061 -0.0217 -0.1617
 3294ntf    cn116460   5.359   4.880   2.592 -0.0631  0.1304  0.7099
 3294ntf    fn416461   4.968   4.731   2.293  0.1162 -0.2680  0.3572
 3294ntf    fn416462   4.827   4.599   2.391 -0.3808  0.5110  0.0636
 3294ntf    fn416463   4.882   4.787   2.473 -0.2742  0.0876 -0.1112
 3294ntf    on516464   5.020   4.598   2.634  0.0481 -0.0543  0.1455
 3294ntf    on516465   5.116   4.500   2.426 -0.5238  0.1182 -0.3457
 3294ntf    on516466   5.148   4.826   2.721  0.4081  0.0982 -0.0394
 3294ntf    on516467   5.126   4.979   2.529 -0.2244  0.0982  0.3201
 3294ntf    fn416468   5.429   4.787   2.654  0.2950 -0.1213 -0.0617
 3294ntf    fn416469   5.416   4.899   2.474 -0.6834 -0.3617  0.3272
 3294ntf    fn416470   5.376   4.992   2.661  0.1759  0.4802  0.0975
 3295ntf    cn116471   6.069   3.915   6.857 -0.1495  0.1412  0.1329
 3295ntf    sn216472   6.026   3.923   6.680  0.1128  0.3098  0.0770
 3295ntf    nn316473   5.961   3.784   6.651 -0.1297  0.5063 -0.3211
 3295ntf    sn216474   5.808   3.745   6.650  0.0240 -0.1552  0.5269
 3295ntf    cn116475   5.814   3.593   6.749  0.2514 -0.4812  0.0221
 3295ntf    fn416476   6.154   4.010   6.893 -0.0286  0.0237  0.1576
 3295ntf    fn416477   5.956   3.923   6.925 -0.3060 -0.2156 -0.0801
 3295ntf    fn416478   6.128   3.802   6.894 -0.1900  0.1674  0.2772
 3295ntf    on516479   5.940   4.038   6.665 -0.2597  0.0799  0.4169
 3295ntf    on516480   6.155   3.924   6.616 -0.0311 -0.0166 -0.2192
 3295ntf    on516481   5.757   3.704   6.522  0.4621  0.0402  0.2857
 3295ntf    on516482   5.717   3.822   6.730 -0.1044  0.1040  0.1381
 3295ntf    fn416483   5.817   3.613   6.880  0.0194 -0.1060 -0.0277
 3295ntf    fn416484   5.714   3.510   6.723 -0.1861  0.0361  0.0175
 3295ntf    fn416485   5.924   3.525   6.724  0.2954 -0.4306  0.0784
 3296ntf    cn116486   0.804   5.202   6.655 -0.1840  0.3625 -0.3527
 3296ntf    sn216487   0.668   5.086   6.691  0.1197  0.1292  0.0538
 3296ntf    nn316488   0.745   4.950   6.705 -0.3194 -0.1154  0.1188
 3296ntf    sn216489   0.782   4.847   6.592 -0.2429  0.0740 -0.0311
 3296ntf    cn116490   0.641   4.733   6.606  0.2233 -0.5039  0.0133
 3296ntf    fn416491   0.883   5.165   6.556 -0.0532  0.4220 -0.2702
 3296ntf    fn416492   0.768   5.322   6.613 -0.6684  0.2853 -0.1660
 3296ntf    fn416493   0.873   5.229   6.765 -0.4711 -0.8318  0.1356
 3296ntf    on516494   0.619   5.137   6.816 -0.1274  0.2615 -0.0958
 3296ntf    on516495   0.593   5.103   6.569  0.1091 -0.9246 -0.0925
 3296ntf    on516496   0.893   4.766   6.635  0.0526  0.0527 -0.8121
 3296ntf    on516497   0.784   4.876   6.451 -0.5029  0.1985 -0.0084
 3296ntf    fn416498   0.620   4.706   6.734 -0.1187 -0.7875 -0.1034
 3296ntf    fn416499   0.531   4.790   6.560  0.3929 -0.5437 -0.4472
 3296ntf    fn416500   0.657   4.626   6.530  0.0737 -0.0161 -0.7194
 3297ntf    cn116501   1.017   1.764   6.646 -0.0791  0.0025  0.4448
 3297ntf    sn216502   0.837   1.779   6.624 -0.0208  0.0944  0.0236
 3297ntf    nn316503   0.804   1.836   6.766  0.3771 -0.1967  0.2360
 3297ntf    sn216504   0.695   1.780   6.864 -0.2926  0.2380 -0.2470
 3297ntf    cn116505   0.580   1.921   6.871  0.1218  0.5696 -0.0363
 3297ntf    fn416506   1.061   1.655   6.706 -0.4413 -0.3291  0.1112
 3297ntf    fn416507   1.089   1.777   6.536 -0.4677 -0.1771  0.1691
 3297ntf    fn416508   1.056   1.866   6.721 -0.3072  0.3635  0.0762
 3297ntf    on516509   0.816   1.877   6.520 -0.3399 -0.1939 -0.1885
 3297ntf    on516510   0.800   1.642   6.594 -0.1991  0.0243  0.5498
 3297ntf    on516511   0.758   1.779   6.994  0.1257  0.5058 -0.4414
 3297ntf    on516512   0.625   1.661   6.825  0.2203 -0.0686 -0.2427
 3297ntf    fn416513   0.465   1.896   6.930  0.4889 -0.4082  0.2854
 3297ntf    fn416514   0.638   2.022   6.934 -0.1735  0.7146  0.0024
 3297ntf    fn416515   0.556   1.959   6.746  0.4639  0.4884 -0.1299
 3298ntf    cn116516   2.486   4.877   5.033  0.7336 -0.1040 -0.0177
 3298ntf    sn216517   2.524   5.050   4.989 -0.0559  0.0237 -0.2086
 3298ntf    nn316518   2.676   5.050   5.029 -0.1237  0.5715  0.0600
 3298ntf    sn216519   2.813   5.041   4.954  0.1012  0.4035  0.4883
 3298ntf    cn116520   2.859   5.217   4.968  0.4421  0.4129 -0.6397
 3298ntf    fn416521   2.456   4.851   5.159  0.2140  0.1704 -0.0832
 3298ntf    fn416522   2.383   4.835   4.962  0.4746 -0.0925  0.3513
 3298ntf    fn416523   2.583   4.798   4.990  0.4298 -0.5222  0.0654
 3298ntf    on516524   2.489   5.058   4.850 -0.2924 -0.4164 -0.1775
 3298ntf    on516525   2.452   5.123   5.090  0.4076  0.0043  0.1361
 3298ntf    on516526   2.817   5.017   4.812 -0.6874  1.0158  0.3595
 3298ntf    on516527   2.919   4.978   5.029 -0.1416 -0.0978  0.4135
 3298ntf    fn416528   2.766   5.284   4.903 -0.0911 -0.0339 -0.3534
 3298ntf    fn416529   2.864   5.269   5.090  0.1013  0.1694 -0.5213
 3298ntf    fn416530   2.973   5.237   4.903  0.7844  0.2471 -0.1040
 3299ntf    cn116531   0.828   0.005   6.976 -0.5433  0.1694 -0.0218
 3299ntf    sn216532   0.813   0.079   7.142 -0.2648  0.2796 -0.0463
 3299ntf    nn316533   0.875   0.221   7.115  0.1035  0.1596  0.1658
 3299ntf    sn216534   1.024   0.268   7.128  0.1000  0.2532 -0.1353
 3299ntf    cn116535   1.005   0.383   7.268 -0.4925 -0.1031  0.0753
 3299ntf    fn416536   0.791  -0.121   6.957  0.1113 -0.0688  0.2452
 3299ntf    fn416537   0.761   0.079   6.889 -0.1376  0.2687 -0.2499
 3299ntf    fn416538   0.948   0.008   6.922 -0.5547 -0.3783 -0.0808
 3299ntf    on516539   0.670   0.083   7.159 -0.2195  0.2940  0.3308
 3299ntf    on516540   0.883  -0.017   7.224  0.0274  0.3394 -0.2235
 3299ntf    on516541   1.061   0.362   7.025 -0.1561  0.8998  0.3517
 3299ntf    on516542   1.116   0.171   7.182 -0.2890 -0.3952 -0.6342
 3299ntf    fn416543   1.121   0.433   7.306 -0.8522 -0.0891  1.1853
 3299ntf    fn416544   0.931   0.483   7.224 -0.3554 -0.0341  0.0025
 3299ntf    fn416545   0.946   0.325   7.372 -0.7643  0.1030  0.0388
 3300ntf    cn116546   5.465   5.903   4.776 -0.1273 -0.3051  0.1173
 3300ntf    sn216547   5.546   5.848   4.623 -0.1419  0.4013 -0.1526
 3300ntf    nn316548   5.671   5.943   4.629  0.2183 -0.0579 -0.3258
 3300ntf    sn216549   5.798   5.931   4.720  0.1162  0.0736 -0.1646
 3300ntf    cn116550   5.905   5.842   4.602 -0.1953 -0.1967 -0.2464
 3300ntf    fn416551   5.521   5.857   4.886 -0.1515  0.0732  0.2887
 3300ntf    fn416552   5.453   6.034   4.795 -0.0776 -0.2645 -0.1270
 3300ntf    fn416553   5.339   5.863   4.778 -0.4316  0.6090 -0.0250
 3300ntf    on516554   5.578   5.707   4.632 -0.4732  0.3307 -0.0591
 3300ntf    on516555   5.445   5.878   4.525 -0.2145  0.0453 -0.1890
 3300ntf    on516556   5.776   5.847   4.835 -0.3677  0.6292  0.1503
 3300ntf    on516557   5.868   6.056   4.739  0.0814  0.0521  0.1024
 3300ntf    fn416558   5.914   5.919   4.495 -0.2343 -0.2349 -0.2763
 3300ntf    fn416559   6.032   5.823   4.634 -0.1514  0.6792  0.1556
 3300ntf    fn416560   5.862   5.726   4.556  0.0535 -0.3018 -0.2160
 3301ntf    cn116561   5.891   2.186   1.325 -0.0916 -0.0788  0.0441
 3301ntf    sn216562   5.885   2.279   1.169 -0.1121 -0.1730 -0.0111
 3301ntf    nn316563   5.744   2.231   1.117  0.0015 -0.0138 -0.4716
 3301ntf    sn216564   5.649   2.287   1.006 -0.2524  0.1257 -0.1853
 3301ntf    cn116565   5.530   2.368   1.118 -0.3212 -0.1762 -0.0400
 3301ntf    fn416566   5.829   2.070   1.314 -0.4210  0.1025 -0.0386
 3301ntf    fn416567   6.011   2.153   1.369 -0.3847 -0.6431  0.4307
 3301ntf    fn416568   5.828   2.252   1.421  0.4052 -0.0009  0.3180
 3301ntf    on516569   5.886   2.413   1.222  0.0315 -0.2105  0.0818
 3301ntf    on516570   6.000   2.237   1.094 -0.1336  0.2436 -0.2834
 3301ntf    on516571   5.568   2.184   0.945 -0.5617  0.1697  0.1448
 3301ntf    on516572   5.694   2.387   0.913  0.7211  0.1706  0.3255
 3301ntf    fn416573   5.471   2.281   1.197  0.4366 -0.4586  0.2297
 3301ntf    fn416574   5.589   2.454   1.199  0.5252 -0.2148 -0.5988
 3301ntf    fn416575   5.438   2.432   1.048 -0.5235  0.5166  0.8382
 3302ntf    cn116576   6.002   0.185   0.870  0.0463  0.1283 -0.2756
 3302ntf    sn216577   6.166   0.262   0.886  0.0494  0.0621 -0.0016
 3302ntf    nn316578   6.137   0.400   0.955  0.1399  0.1486 -0.1370
 3302ntf    sn216579   6.169   0.445   1.102 -0.0213 -0.3241  0.0444
 3302ntf    cn116580   6.343   0.497   1.086 -0.0552 -0.1869  0.1209
 3302ntf    fn416581   6.010   0.067   0.811 -0.1716  0.1313 -0.3152
 3302ntf    fn416582   5.938   0.153   0.982 -0.2639  0.1295 -0.4491
 3302ntf    fn416583   5.916   0.264   0.806 -0.3764 -0.4708 -0.4595
 3302ntf    on516584   6.235   0.166   0.969 -0.5788 -0.3072  0.1033
 3302ntf    on516585   6.213   0.274   0.751 -0.3085  0.1736 -0.1180
 3302ntf    on516586   6.161   0.340   1.201 -0.2012 -0.4406 -0.0934
 3302ntf    on516587   6.101   0.569   1.130 -0.2381 -0.4474  0.0655
 3302ntf    fn416588   6.402   0.509   1.204  0.3176  0.0729 -0.0905
 3302ntf    fn416589   6.419   0.415   1.015  0.2706  0.5785 -0.4285
 3302ntf    fn416590   6.340   0.618   1.033 -0.2820  0.0836  0.7428
 3303ntf    cn116591   5.281   2.664   2.160  0.0485 -0.2313 -0.0340
 3303ntf    sn216592   5.404   2.635   2.291  0.1759  0.2076 -0.0556
 3303ntf    nn316593   5.509   2.565   2.198 -0.0129 -0.1005 -0.0357
 3303ntf    sn216594   5.663   2.563   2.230 -0.0050  0.3181 -0.0513
 3303ntf    cn116595   5.688   2.398   2.301  0.1629  0.3788  0.0309
 3303ntf    fn416596   5.334   2.714   2.050  0.0938 -0.6456 -0.2005
 3303ntf    fn416597   5.217   2.555   2.120 -0.2053 -0.1120  0.0461
 3303ntf    fn416598   5.187   2.752   2.189  0.6184  0.2996  0.2223
 3303ntf    on516599   5.445   2.765   2.337 -0.1301  0.2003  0.2443
 3303ntf    on516600   5.340   2.539   2.377 -0.1445  0.4663 -0.0007
 3303ntf    on516601   5.714   2.656   2.329  0.8173  0.0341 -0.2029
 3303ntf    on516602   5.740   2.555   2.109  0.0077 -0.1245 -0.0149
 3303ntf    fn416603   5.816   2.365   2.307  0.0883  0.1076  0.1349
 3303ntf    fn416604   5.650   2.396   2.428  0.3712 -0.0005  0.0893
 3303ntf    fn416605   5.621   2.305   2.234  0.2861  0.4341 -0.1691
 3304ntf    cn116606   3.979   3.794   2.042 -0.0280  0.0849  0.0214
 3304ntf    sn216607   3.892   3.939   2.110  0.2483  0.2247  0.0756
 3304ntf    nn316608   3.798   3.981   1.992 -0.2042  0.3507  0.4823
 3304ntf    sn216609   3.745   4.120   1.942  0.3403  0.4792  0.2624
 3304ntf    cn116610   3.569   4.081   1.918  0.3742  0.3368  0.2482
 3304ntf    fn416611   3.911   3.681   2.053  0.1576 -0.0425 -0.1385
 3304ntf    fn416612   4.008   3.817   1.915  0.5782  0.6108  0.2513
 3304ntf    fn416613   4.095   3.776   2.102  0.1262  0.5247 -0.1425
 3304ntf    on516614   3.821   3.874   2.217 -0.0506  0.3083 -0.0723
 3304ntf    on516615   4.002   4.024   2.147 -0.0608  0.5932  0.1482
 3304ntf    on516616   3.785   4.159   1.809  0.2193  0.3360  0.1838
 3304ntf    on516617   3.740   4.222   2.043  0.3316  0.4427  0.2987
 3304ntf    fn416618   3.514   4.015   2.019 -0.0089  0.8386  0.3686
 3304ntf    fn416619   3.498   4.191   1.902  0.5468  0.4904  0.5445
 3304ntf    fn416620   3.543   3.998   1.818 -0.1193  0.6410  0.1224
 3305ntf    cn116621   1.488   3.050   4.573 -0.0662 -0.2440  0.2942
 3305ntf    sn216622   1.378   2.998   4.438 -0.1294 -0.0490  0.2708
 3305ntf    nn316623   1.290   2.901   4.524 -0.4819  0.1962  0.1925
 3305ntf    sn216624   1.135   2.879   4.525 -0.4145 -0.3242 -0.2799
 3305ntf    cn116625   1.144   2.703   4.478  0.2556 -0.2683 -0.3686
 3305ntf    fn416626   1.412   3.095   4.671 -0.1835  0.3747 -0.0815
 3305ntf    fn416627   1.573   2.961   4.622  0.4493  0.1425  0.1119
 3305ntf    fn416628   1.567   3.148   4.531  0.1789 -0.4682  0.2244
 3305ntf    on516629   1.311   3.115   4.387 -0.2329  0.1085  0.7619
 3305ntf    on516630   1.470   2.931   4.349 -0.3044  0.1362 -0.0543
 3305ntf    on516631   1.061   2.941   4.418  0.1439 -0.0518 -0.5127
 3305ntf    on516632   1.077   2.869   4.657  0.0164 -0.1124 -0.0724
 3305ntf    fn416633   1.239   2.640   4.544  0.0326 -0.0908  0.1332
 3305ntf    fn416634   1.032   2.638   4.507  0.1050  0.2044  0.1315
 3305ntf    fn416635   1.172   2.692   4.350 -0.3598  0.0170 -0.5321
 3306ntf    cn116636   1.998   4.176   1.304 -0.2203  0.1858 -0.3979
 3306ntf    sn216637   2.086   4.080   1.176  0.2376 -0.3100  0.2820
 3306ntf    nn316638   2.232   4.104   1.228  0.3101 -0.0638 -0.0312
 3306ntf    sn216639   2.335   4.001   1.287  0.2031 -0.0413  0.1974
 3306ntf    cn116640   2.333   4.047   1.462 -0.2333 -0.1508  0.2202
 3306ntf    fn416641   2.003   4.111   1.419  0.3174  0.4518 -0.2678
 3306ntf    fn416642   2.054   4.293   1.331  0.0869 -0.0729  0.1071
 3306ntf    fn416643   1.870   4.200   1.280 -0.1762  0.2720 -0.5506
 3306ntf    on516644   2.030   3.949   1.194  0.1719 -0.3620 -0.2976
 3306ntf    on516645   2.067   4.151   1.052  0.0578 -0.0986  0.4295
 3306ntf    on516646   2.470   4.039   1.252  0.3367  0.1052  0.8583
 3306ntf    on516647   2.292   3.864   1.279  0.0077  0.0286  0.0336
 3306ntf    fn416648   2.378   4.170   1.481 -0.1154 -0.1486 -0.0833
 3306ntf    fn416649   2.213   4.055   1.517 -0.5549 -0.3508 -0.4428
 3306ntf    fn416650   2.404   3.968   1.541 -0.0355 -0.1869  0.0059
 3307ntf    cn116651   0.097   0.955   4.339 -0.0741  0.0768 -0.2871
 3307ntf    sn216652   0.001   0.929   4.491 -0.0263 -0.3067 -0.3204
 3307ntf    nn316653  -0.061   1.073   4.497  0.5148 -0.0917  0.2086
 3307ntf    sn216654  -0.183   1.119   4.585  0.3869  0.2257 -0.1347
 3307ntf    cn116655  -0.243   1.269   4.502 -0.0498 -0.0567 -0.3311
 3307ntf    fn416656   0.180   1.057   4.352 -0.4649  0.2720  0.7467
 3307ntf    fn416657   0.169   0.846   4.314 -0.1640 -0.1105  0.2623
 3307ntf    fn416658   0.021   0.972   4.232 -0.4737 -0.0596 -0.0257
 3307ntf    on516659  -0.085   0.818   4.460 -0.4583  0.0233 -0.3004
 3307ntf    on516660   0.102   0.905   4.592 -0.0835  0.4111 -0.0822
 3307ntf    on516661  -0.145   1.164   4.716 -0.8897 -0.1160  0.3690
 3307ntf    on516662  -0.296   1.030   4.576  0.1126  0.5994 -0.4055
 3307ntf    fn416663  -0.147   1.360   4.493 -0.1762  0.1134  0.0462
 3307ntf    fn416664  -0.292   1.258   4.379  0.2388 -0.2121 -0.4323
 3307ntf    fn416665  -0.342   1.325   4.570  0.1300  0.2764 -0.3443
 3308ntf    cn116666   2.680   4.869   2.732 -0.0013 -0.0081 -0.5062
 3308ntf    sn216667   2.771   4.804   2.875 -0.0987  0.1011 -0.3947
 3308ntf    nn316668   2.810   4.658   2.833  0.4247 -0.0264  0.5041
 3308ntf    sn216669   2.947   4.602   2.780  0.1005 -0.3016 -0.0535
 3308ntf    cn116670   2.950   4.440   2.864 -0.2155 -0.3897 -0.2098
 3308ntf    fn416671   2.746   4.856   2.618  0.3992 -0.2569 -0.2473
 3308ntf    fn416672   2.562   4.813   2.710 -0.3884  0.5091  0.2112
 3308ntf    fn416673   2.661   4.998   2.751 -0.0721 -0.1618  0.4980
 3308ntf    on516674   2.882   4.894   2.894 -0.0733 -0.0443  0.1523
 3308ntf    on516675   2.675   4.805   2.983 -0.0442  0.1562 -0.3464
 3308ntf    on516676   3.067   4.657   2.837 -0.1672 -0.0445  0.2721
 3308ntf    on516677   2.945   4.573   2.639  0.2235 -0.1596 -0.0844
 3308ntf    fn416678   3.028   4.351   2.803  0.4267  0.1503 -0.1938
 3308ntf    fn416679   2.991   4.454   2.989  0.2845  0.1092 -0.4237
 3308ntf    fn416680   2.827   4.393   2.873 -0.2563 -0.2897 -0.2461
 3309ntf    cn116681   4.490   1.004   4.102 -0.2641  0.1638  0.0878
 3309ntf    sn216682   4.488   1.168   4.180 -0.0334  0.3034 -0.1957
 3309ntf    nn316683   4.386   1.138   4.296  0.0892  0.6866  0.0121
 3309ntf    sn216684   4.401   1.146   4.452  0.2249 -0.3957  0.0606
 3309ntf    cn116685   4.271   1.036   4.515 -0.1316 -0.0117 -0.0045
 3309ntf    fn416686   4.376   0.966   4.048 -0.0338  0.5742 -0.6960
 3309ntf    fn416687   4.584   0.992   4.010  0.0264  0.1124  0.3876
 3309ntf    fn416688   4.517   0.910   4.192  0.2571  0.6111  0.4078
 3309ntf    on516689   4.622   1.193   4.225  0.1333 -0.4654 -0.2571
 3309ntf    on516690   4.442   1.253   4.073 -0.2752 -0.0041 -0.3395
 3309ntf    on516691   4.363   1.272   4.512  0.0104 -0.2608 -0.3559
 3309ntf    on516692   4.517   1.078   4.503  0.6369  0.1112 -0.1873
 3309ntf    fn416693   4.277   0.907   4.487  0.0681  0.0214 -0.1152
 3309ntf    fn416694   4.277   1.042   4.647  0.2315  0.2458 -0.0304
 3309ntf    fn416695   4.151   1.076   4.475 -0.0489  0.2151 -0.0248
 3310ntf    cn116696   0.534   6.135   0.154  0.0457  0.5324 -0.5278
 3310ntf    sn216697   0.591   6.107  -0.017  0.3201  0.0182 -0.3560
 3310ntf    nn316698   0.680   5.984   0.023  0.2256  0.1146  0.1585
 3310ntf    sn216699   0.727   5.860  -0.061 -0.0444 -0.1892  0.4488
 3310ntf    cn116700   0.608   5.735  -0.006  0.0931 -0.3457  0.3918
 3310ntf    fn416701   0.480   6.255   0.168  0.0058  0.4139  0.3717
 3310ntf    fn416702   0.439   6.049   0.186  0.6923  0.1024  0.2802
 3310ntf    fn416703   0.628   6.125   0.247 -0.0638 -0.2879 -0.4987
 3310ntf    on516704   0.469   6.077  -0.087  0.3334  0.2554 -0.4823
 3310ntf    on516705   0.659   6.226  -0.063  0.6922 -0.0566 -0.0090
 3310ntf    on516706   0.852   5.812  -0.007  0.4269  0.9595  0.4140
 3310ntf    on516707   0.714   5.878  -0.203 -0.3504 -0.0062  0.4995
 3310ntf    fn416708   0.645   5.608  -0.010  0.2844 -0.2756 -0.1058
 3310ntf    fn416709   0.581   5.751   0.123  0.0259 -0.0194  0.3369
 3310ntf    fn416710   0.499   5.744  -0.081  0.1509 -0.4777  0.2903
 3311ntf    cn116711   6.398   3.730   4.031 -0.2246  0.3928 -0.2760
 3311ntf    sn216712   6.329   3.717   3.864  0.0733 -0.0564 -0.3660
 3311ntf    nn316713   6.423   3.609   3.800  0.5201  0.3094 -0.3366
 3311ntf    sn216714   6.369   3.502   3.698 -0.2895  0.1298  0.2675
 3311ntf    cn116715   6.461   3.540   3.546 -0.4700  0.3774  0.2209
 3311ntf    fn416716   6.342   3.823   4.107  0.0832  0.2293  0.1540
 3311ntf    fn416717   6.383   3.622   4.107  0.8353  0.6361  0.2882
 3311ntf    fn416718   6.528   3.748   4.023  0.0473 -1.0751  0.3986
 3311ntf    on516719   6.190   3.687   3.887  0.0999 -0.1352 -0.3120
 3311ntf    on516720   6.358   3.846   3.807  0.1853  0.1308  0.1114
 3311ntf    on516721   6.231   3.508   3.656 -0.3170 -1.2419  0.1032
 3311ntf    on516722   6.415   3.372   3.741 -0.2613  0.1158  0.1948
 3311ntf    fn416723   6.409   3.641   3.477  0.2705  0.1995 -0.6124
 3311ntf    fn416724   6.588   3.570   3.568 -0.1517 -0.6545 -0.1481
 3311ntf    fn416725   6.454   3.435   3.466  0.3317 -0.0413  0.6839
 3312ntf    cn116726   4.742   0.191   5.435 -0.1913  0.1569  0.1023
 3312ntf    sn216727   4.793   0.338   5.342 -0.0518  0.2214  0.2792
 3312ntf    nn316728   4.932   0.363   5.411 -0.1649  0.3931  0.4478
 3312ntf    sn216729   5.034   0.481   5.398  0.0435  0.1733  0.0348
 3312ntf    cn116730   5.157   0.429   5.275 -0.3193 -0.0508 -0.2322
 3312ntf    fn416731   4.745   0.203   5.567  0.2966 -0.4317  0.1470
 3312ntf    fn416732   4.620   0.152   5.402 -0.2343 -0.0811  0.5311
 3312ntf    fn416733   4.814   0.084   5.408 -0.0712  0.2745 -0.0433
 3312ntf    on516734   4.811   0.291   5.207  0.1345  0.6787  0.1427
 3312ntf    on516735   4.692   0.437   5.372 -0.0086  0.2713  0.2628
 3312ntf    on516736   5.108   0.499   5.521  0.5709  0.1677 -0.2786
 3312ntf    on516737   4.985   0.601   5.334 -0.2896 -0.2058 -0.4224
 3312ntf    fn416738   5.248   0.524   5.264 -0.1988 -0.2001 -0.5476
 3312ntf    fn416739   5.216   0.316   5.311 -0.3630  0.0076  0.0230
 3312ntf    fn416740   5.112   0.396   5.155  0.3118  0.4346 -0.6071
 3313ntf    cn116741   1.516   0.656   5.893  0.1272  0.4058  0.1401
 3313ntf    sn216742   1.346   0.666   5.829  0.0647 -0.0022  0.2403
 3313ntf    nn316743   1.288   0.534   5.892 -0.4116 -0.0145 -0.2242
 3313ntf    sn216744   1.150   0.500   5.958 -0.2240  0.0167  0.1906
 3313ntf    cn116745   1.069   0.403   5.827  0.1488  0.4132 -0.3372
 3313ntf    fn416746   1.524   0.680   6.023 -0.1841 -0.2174  0.2772
 3313ntf    fn416747   1.573   0.540   5.863 -0.0045  0.2438  0.5024
 3313ntf    fn416748   1.594   0.748   5.839 -0.2952  0.5513 -0.2290
 3313ntf    on516749   1.303   0.788   5.892  0.0282 -0.0922  0.3918
 3313ntf    on516750   1.364   0.660   5.686  0.5913  0.0197  0.3006
 3313ntf    on516751   1.065   0.616   5.968 -0.0902  0.0894  0.4819
 3313ntf    on516752   1.160   0.414   6.073 -0.6267 -0.7193 -0.3108
 3313ntf    fn416753   1.018   0.486   5.737  0.0070  0.4729 -0.2015
 3313ntf    fn416754   1.142   0.311   5.766 -0.3510 -0.1196 -0.1392
 3313ntf    fn416755   0.964   0.345   5.883  0.9289 -0.2852  0.4431
 3314ntf    cn116756   6.151   6.698   4.309 -0.1896 -0.1801  0.3084
 3314ntf    sn216757   6.095   6.575   4.188  0.0307  0.2078 -0.1909
 3314ntf    nn316758   6.182   6.459   4.250  0.2408  0.1405 -0.6059
 3314ntf    sn216759   6.311   6.394   4.190  0.2273 -0.5307  0.0809
 3314ntf    cn116760   6.240   6.233   4.144 -0.1905 -0.4144  0.3087
 3314ntf    fn416761   6.084   6.811   4.293 -0.1087 -0.2086 -0.2491
 3314ntf    fn416762   6.136   6.658   4.434 -0.9626 -0.3389  0.1698
 3314ntf    fn416763   6.280   6.727   4.297 -0.3772  0.5778  0.0868
 3314ntf    on516764   5.953   6.566   4.212  0.0917  0.2813  0.1962
 3314ntf    on516765   6.140   6.643   4.069  0.0324 -0.2548 -0.4582
 3314ntf    on516766   6.410   6.366   4.290  0.5200 -0.9872 -0.3311
 3314ntf    on516767   6.351   6.452   4.064 -0.4200 -0.5323 -0.1316
 3314ntf    fn416768   6.116   6.243   4.101  0.2310  0.2370 -0.8109
 3314ntf    fn416769   6.310   6.163   4.055 -0.1513  0.0977 -0.0654
 3314ntf    fn416770   6.240   6.152   4.249 -0.1307  0.1465  0.7436
 3315ntf    cn116771   4.925   2.231   2.258  0.0208  0.0410 -0.0641
 3315ntf    sn216772   4.862   2.271   2.424  0.0687  0.2789 -0.1040
 3315ntf    nn316773   4.741   2.359   2.374 -0.4139 -0.1382  0.3310
 3315ntf    sn216774   4.712   2.499   2.439 -0.2256  0.0600 -0.0131
 3315ntf    cn116775   4.607   2.573   2.310 -0.0028  0.0532 -0.1979
 3315ntf    fn416776   4.954   2.338   2.187 -0.5290  0.2080 -0.0379
 3315ntf    fn416777   5.034   2.155   2.256 -0.1825 -0.2416 -0.7381
 3315ntf    fn416778   4.840   2.164   2.182  0.1871 -0.0502 -0.1686
 3315ntf    on516779   4.815   2.143   2.469 -0.0296  0.3076 -0.1232
 3315ntf    on516780   4.971   2.331   2.496 -0.3953  0.5426  0.3861
 3315ntf    on516781   4.825   2.587   2.429  0.2366 -0.5410 -0.1217
 3315ntf    on516782   4.641   2.506   2.564  0.4994 -0.6718  0.4456
 3315ntf    fn416783   4.550   2.687   2.344  0.0389 -0.0968  0.3730
 3315ntf    fn416784   4.673   2.601   2.198  0.4717  0.5105  0.1844
 3315ntf    fn416785   4.507   2.494   2.278  0.1032  0.0306 -0.4775
 3316ntf    cn116786   5.290   5.449   5.588  0.0677 -0.0566  0.1364
 3316ntf    sn216787   5.422   5.502   5.701  0.0426 -0.0567  0.1643
 3316ntf    nn316788   5.431   5.654   5.665 -0.4132 -0.0637  0.0205
 3316ntf    sn216789   5.550   5.747   5.709 -0.1731 -0.4170  0.1169
 3316ntf    cn116790   5.470   5.823   5.854 -0.1354 -0.4923  0.1781
 3316ntf    fn416791   5.253   5.322   5.594 -0.2671  0.0497  0.2815
 3316ntf    fn416792   5.175   5.513   5.583 -0.2136 -0.5715 -0.0248
 3316ntf    fn416793   5.334   5.461   5.463 -0.4149  1.0228  0.0579
 3316ntf    on516794   5.371   5.479   5.834  0.2428 -0.4045  0.1828
 3316ntf    on516795   5.530   5.415   5.660 -0.1066 -0.2125  0.0987
 3316ntf    on516796   5.572   5.861   5.625 -0.2654 -0.2994  0.2512
 3316ntf    on516797   5.664   5.676   5.762 -0.0459 -0.1192  0.2434
 3316ntf    fn416798   5.347   5.861   5.820  0.0437 -0.1199 -0.0623
 3316ntf    fn416799   5.457   5.739   5.955 -0.3287 -0.0986  0.4824
 3316ntf    fn416800   5.534   5.932   5.893 -0.3451 -0.3481  0.1211
 3317ntf    cn116801   3.929   3.335   3.269 -0.0588 -0.0572 -0.0834
 3317ntf    sn216802   3.830   3.468   3.194 -0.1174 -0.0130  0.0731
 3317ntf    nn316803   3.938   3.521   3.093 -0.0393 -0.5340 -0.1201
 3317ntf    sn216804   3.942   3.485   2.940  0.1359  0.0247 -0.2517
 3317ntf    cn116805   3.797   3.572   2.873 -0.1096  0.1852  0.4785
 3317ntf    fn416806   4.029   3.385   3.339 -0.0015 -0.1258 -0.1154
 3317ntf    fn416807   3.859   3.267   3.358 -0.0256  0.2488  0.1779
 3317ntf    fn416808   3.983   3.253   3.180 -0.0912  0.2005 -0.3429
 3317ntf    on516809   3.717   3.399   3.138  0.0340 -0.1649 -0.0469
 3317ntf    on516810   3.801   3.553   3.307  0.1696  0.1630  0.0154
 3317ntf    on516811   3.922   3.343   2.923  0.0807  0.0656 -0.5222
 3317ntf    on516812   4.053   3.548   2.873  0.2173 -0.1375 -0.2708
 3317ntf    fn416813   3.790   3.692   2.928  0.3135  0.1341  0.6479
 3317ntf    fn416814   3.801   3.582   2.741  0.0148 -0.0282  0.4652
 3317ntf    fn416815   3.688   3.499   2.889  0.0506 -0.2008 -0.1441
 3318ntf    cn116816   6.496   7.089   7.174  0.1103 -0.2854  0.2609
 3318ntf    sn216817   6.535   6.913   7.152  0.4946 -0.1329 -0.2942
 3318ntf    nn316818   6.453   6.888   7.020  0.1674  0.2552 -0.1654
 3318ntf    sn216819   6.307   6.832   7.009  0.1808  0.1957 -0.0547
 3318ntf    cn116820   6.296   6.816   6.828  0.0361 -0.1460 -0.0167
 3318ntf    fn416821   6.487   7.148   7.057 -0.0393 -0.3546  0.2370
 3318ntf    fn416822   6.385   7.116   7.241 -0.0235  0.4421 -0.2449
 3318ntf    fn416823   6.588   7.154   7.243 -0.2315 -0.0441  0.4898
 3318ntf    on516824   6.679   6.906   7.137  0.4445 -0.5342 -0.6199
 3318ntf    on516825   6.472   6.849   7.265  0.2207 -0.4073 -0.6018
 3318ntf    on516826   6.206   6.923   7.058  0.2406 -0.0405  0.5183
 3318ntf    on516827   6.293   6.695   7.053 -0.3667  0.0025 -0.8198
 3318ntf    fn416828   6.173   6.789   6.788 -0.0283  0.2490 -0.0913
 3318ntf    fn416829   6.340   6.918   6.757  0.1658  0.0506  0.3392
 3318ntf    fn416830   6.373   6.715   6.791  0.1282 -0.0315 -0.1350
 3319ntf    cn116831   0.955   2.722   5.171  0.4182  0.0928  0.0191
 3319ntf    sn216832   1.119   2.776   5.114  0.3806  0.0751 -0.1064
 3319ntf    nn316833   1.192   2.767   5.253  0.0155 -0.0089  0.0802
 3319ntf    sn216834   1.298   2.860   5.322 -0.1757  0.1386  0.1782
 3319ntf    cn116835   1.200   2.965   5.433  0.0411  0.7665 -0.2175
 3319ntf    fn416836   0.911   2.799   5.269 -0.0475 -0.7756  0.5015
 3319ntf    fn416837   0.862   2.720   5.077  0.2507  0.0513  0.1864
 3319ntf    fn416838   0.946   2.599   5.219  0.2906 -0.1174 -0.5356
 3319ntf    on516839   1.161   2.673   5.023  0.3396 -0.2469  0.2373
 3319ntf    on516840   1.091   2.907   5.061 -0.5550  0.0588  0.3249
 3319ntf    on516841   1.362   2.958   5.239  1.0263 -0.4143  0.4179
 3319ntf    on516842   1.385   2.785   5.410 -0.3654 -0.1566  0.1177
 3319ntf    fn416843   1.146   2.907   5.540  0.0096 -0.1799 -0.7317
 3319ntf    fn416844   1.266   3.070   5.479  0.3438  0.4046  0.1893
 3319ntf    fn416845   1.089   3.013   5.379 -0.0154  0.7221 -0.1417
 3320ntf    cn116846   3.435   3.010   6.147  0.4265  0.1140 -0.0262
 3320ntf    sn216847   3.267   3.050   6.203  0.3981 -0.0932  0.0402
 3320ntf    nn316848   3.266   3.204   6.169  0.0595 -0.0842  0.0888
 3320ntf    sn216849   3.148   3.303   6.197  0.3459  0.1891  0.3452
 3320ntf    cn116850   3.212   3.376   6.350 -0.4592  0.5898  0.4967
 3320ntf    fn416851   3.441   3.043   6.019 -0.3050  0.7210  0.0889
 3320ntf    fn416852   3.526   3.086   6.206 -0.0037  0.3927  0.2834
 3320ntf    fn416853   3.465   2.882   6.166 -0.1801 -0.0176  0.0442
 3320ntf    on516854   3.193   2.963   6.116 -0.2312  0.3156  0.1616
 3320ntf    on516855   3.278   3.009   6.341  0.2792 -0.1243  0.0398
 3320ntf    on516856   3.021   3.245   6.235  0.5937 -0.8181 -0.3259
 3320ntf    on516857   3.144   3.418   6.111  0.5342  0.0807  0.1919
 3320ntf    fn416858   3.270   3.288   6.430 -0.6299 -0.0393 -0.0639
 3320ntf    fn416859   3.300   3.473   6.331  0.1166 -0.0606 -0.1838
 3320ntf    fn416860   3.120   3.435   6.425 -0.6015  0.0757  0.7334
 3321ntf    cn116861   1.665   5.400   1.845  0.2851 -0.1012 -0.5068
 3321ntf    sn216862   1.728   5.563   1.895 -0.4336  0.0493 -0.0777
 3321ntf    nn316863   1.791   5.609   1.759 -0.5405 -0.5026 -0.3165
 3321ntf    sn216864   1.755   5.738   1.678  0.0864 -0.2830 -0.2583
 3321ntf    cn116865   1.602   5.676   1.601 -0.1250 -0.2974  0.1701
 3321ntf    fn416866   1.631   5.321   1.946 -0.0560  0.5416 -0.1102
 3321ntf    fn416867   1.548   5.415   1.784  0.2064  1.0923 -0.0987
 3321ntf    fn416868   1.747   5.330   1.768  0.4443  0.0442 -0.4697
 3321ntf    on516869   1.604   5.627   1.935 -0.0396  0.6715  0.1662
 3321ntf    on516870   1.826   5.530   1.995 -0.6701 -0.2592  0.0557
 3321ntf    on516871   1.840   5.766   1.565 -0.0871  0.5912 -0.1841
 3321ntf    on516872   1.710   5.856   1.748  0.0654 -0.2558 -0.3182
 3321ntf    fn416873   1.630   5.585   1.510 -0.2735 -0.3994  0.2264
 3321ntf    fn416874   1.515   5.629   1.689 -0.0847 -0.1767  0.2759
 3321ntf    fn416875   1.533   5.767   1.534  0.5669 -0.2921 -0.5491
 3322ntf    cn116876   5.284   1.460   2.656 -0.0923 -0.5094 -0.0057
 3322ntf    sn216877   5.123   1.419   2.729 -0.1730 -0.1581  0.0132
 3322ntf    nn316878   5.157   1.448   2.880  0.1107  0.1096 -0.1024
 3322ntf    sn216879   5.250   1.365   2.975 -0.1957 -0.0131  0.0901
 3322ntf    cn116880   5.118   1.305   3.085 -0.0731  0.3806  0.4587
 3322ntf    fn416881   5.352   1.551   2.723 -0.3753 -0.1459 -0.2087
 3322ntf    fn416882   5.361   1.353   2.644  0.6225 -0.0334  0.2842
 3322ntf    fn416883   5.268   1.506   2.533 -0.0793  0.5761  0.3882
 3322ntf    on516884   5.040   1.518   2.665  0.4610  0.2661 -0.1535
 3322ntf    on516885   5.102   1.281   2.693 -0.0729 -0.1436 -0.1017
 3322ntf    on516886   5.332   1.454   3.054  0.2842 -0.0887 -0.3178
 3322ntf    on516887   5.310   1.244   2.925 -0.4638 -0.2775  0.3985
 3322ntf    fn416888   5.076   1.395   3.171  0.2273  0.3296  0.6575
 3322ntf    fn416889   5.006   1.281   3.018  0.5222 -0.0922 -0.3912
 3322ntf    fn416890   5.149   1.189   3.141 -0.5649  0.0344  0.0241
 3323ntf    cn116891   5.871   2.624   3.323 -0.5262 -0.2450  0.3474
 3323ntf    sn216892   5.899   2.620   3.144 -0.0495  0.4286  0.4064
 3323ntf    nn316893   6.011   2.510   3.130 -0.0669  0.4028  0.4695
 3323ntf    sn216894   5.974   2.368   3.074 -0.3247  0.6409  0.0316
 3323ntf    cn116895   6.138   2.292   3.087 -0.4793  0.2305 -0.3653
 3323ntf    fn416896   5.845   2.501   3.366 -0.2918 -0.4371 -0.0517
 3323ntf    fn416897   5.977   2.672   3.385 -0.3430 -0.1403 -0.0474
 3323ntf    fn416898   5.773   2.707   3.353  0.0145  0.6856 -0.4420
 3323ntf    on516899   5.768   2.599   3.088 -0.1419 -0.2612  0.8717
 3323ntf    on516900   5.941   2.757   3.130 -0.7583  0.6826  0.7404
 3323ntf    on516901   5.943   2.359   2.933 -0.6341 -0.2970  0.1541
 3323ntf    on516902   5.900   2.284   3.165 -0.1866  0.0144 -0.4285
 3323ntf    fn416903   6.208   2.329   3.194 -0.3775 -0.4024 -0.2074
 3323ntf    fn416904   6.142   2.160   3.084  0.0387  0.2329  0.0965
 3323ntf    fn416905   6.215   2.332   2.987 -0.2809  0.2040 -0.2247
 3324ntf    cn116906   3.114   6.421   1.961 -0.1961 -0.0360 -0.4033
 3324ntf    sn216907   3.049   6.474   2.123  0.2762 -0.4089 -0.0869
 3324ntf    nn316908   3.180   6.482   2.208  0.1832  0.5767 -0.0308
 3324ntf    sn216909   3.216   6.404   2.339  0.2566  0.3372 -0.1932
 3324ntf    cn116910   3.180   6.230   2.299 -0.0161  0.2973  0.2162
 3324ntf    fn416911   3.167   6.300   1.972 -0.2677 -0.0115  0.2507
 3324ntf    fn416912   3.019   6.407   1.871 -0.3396 -0.1110 -0.2404
 3324ntf    fn416913   3.213   6.495   1.914  0.4279 -0.2463  0.5468
 3324ntf    on516914   2.997   6.604   2.087 -0.0581 -0.4093  0.3864
 3324ntf    on516915   2.953   6.373   2.161 -0.1220  0.0780  0.2102
 3324ntf    on516916   3.142   6.422   2.462  0.3561 -0.1022 -0.0646
 3324ntf    on516917   3.358   6.411   2.360  0.3090  0.0132 -0.4235
 3324ntf    fn416918   3.195   6.193   2.173  0.0755 -0.3553  0.4144
 3324ntf    fn416919   3.263   6.155   2.370  0.3072  0.0453 -0.4226
 3324ntf    fn416920   3.061   6.196   2.347  0.0702  0.4257  0.5249
 3325ntf    cn116921   6.619   5.287   5.944  0.5239 -0.0717  0.2024
 3325ntf    sn216922   6.643   5.350   5.775  0.0059  0.0105  0.1583
 3325ntf    nn316923   6.730   5.237   5.708 -0.3854 -0.5210  0.5401
 3325ntf    sn216924   6.680   5.098   5.656 -0.3382 -0.2975 -0.1023
 3325ntf    cn116925   6.609   5.138   5.494 -0.1415  0.2207 -0.0620
 3325ntf    fn416926   6.507   5.217   5.944  0.4960 -0.0243  0.6918
 3325ntf    fn416927   6.719   5.210   5.985  0.1818 -0.7665 -0.2637
 3325ntf    fn416928   6.612   5.391   6.026 -0.1644  0.0957 -0.0658
 3325ntf    on516929   6.509   5.362   5.724  0.1214  0.6039 -0.0115
 3325ntf    on516930   6.712   5.475   5.792  0.1827 -0.0636 -0.0071
 3325ntf    on516931   6.561   5.049   5.720 -0.3656  0.6369  0.5761
 3325ntf    on516932   6.784   5.002   5.625 -0.2956 -0.4607  0.5402
 3325ntf    fn416933   6.511   5.227   5.501  0.0341  0.4237 -0.1861
 3325ntf    fn416934   6.701   5.202   5.424 -0.1104 -0.4254 -0.6310
 3325ntf    fn416935   6.569   5.034   5.422  0.0105  0.1569 -0.0525
 3326ntf    cn116936   0.623   0.082   4.845 -0.0893  0.4281 -0.2104
 3326ntf    sn216937   0.712   0.056   5.001 -0.5082 -0.4002 -0.1045
 3326ntf    nn316938   0.811   0.177   5.007 -0.0521 -0.8227  1.3263
 3326ntf    sn216939   0.790   0.314   5.081 -0.0179 -0.2534  0.2986
 3326ntf    cn116940   0.850   0.275   5.249 -0.2689  0.1805  0.4912
 3326ntf    fn416941   0.536   0.181   4.852 -0.1810  0.3601 -0.3694
 3326ntf    fn416942   0.709   0.123   4.753 -0.1522 -0.1048 -0.5147
 3326ntf    fn416943   0.566  -0.033   4.809  0.3841  0.2288 -0.3360
 3326ntf    on516944   0.611   0.050   5.104 -0.4085 -0.3131 -0.0016
 3326ntf    on516945   0.788  -0.063   4.972  0.6902  0.2413  0.3358
 3326ntf    on516946   0.655   0.361   5.100 -0.0918 -0.2604 -0.1973
 3326ntf    on516947   0.884   0.415   5.037 -0.6559  0.5531  0.7398
 3326ntf    fn416948   0.780   0.178   5.305  0.0680 -0.2565  0.1599
 3326ntf    fn416949   0.972   0.224   5.252 -0.3373 -0.0502 -0.3400
 3326ntf    fn416950   0.852   0.379   5.331  0.6126  0.4296  0.1620
 3327ntf    cn116951   3.696   6.590   6.142 -0.0412  0.2420  0.6370
 3327ntf    sn216952   3.581   6.569   6.003  0.3663  0.2357  0.2979
 3327ntf    nn316953   3.642   6.460   5.908 -0.0587 -0.0737  0.3746
 3327ntf    sn216954   3.706   6.321   5.945  0.2950  0.0500  0.2358
 3327ntf    cn116955   3.668   6.225   5.795 -0.4020  0.2095  0.3042
 3327ntf    fn416956   3.663   6.679   6.234 -0.0733  0.1923  0.6737
 3327ntf    fn416957   3.718   6.471   6.195 -0.6348 -0.0807  0.1713
 3327ntf    fn416958   3.814   6.624   6.092 -0.1641  0.0668  0.2208
 3327ntf    on516959   3.458   6.516   6.057  0.6166 -0.6585  0.0083
 3327ntf    on516960   3.572   6.700   5.943  0.3624  0.0094 -0.1977
 3327ntf    on516961   3.639   6.245   6.048  0.0392 -0.6640 -0.4520
 3327ntf    on516962   3.850   6.317   5.946  0.2941  0.0231  0.6711
 3327ntf    fn416963   3.538   6.218   5.776 -0.2955 -0.3307 -0.2282
 3327ntf    fn416964   3.715   6.293   5.692 -0.0427  0.0375  0.3522
 3327ntf    fn416965   3.719   6.103   5.803 -0.0396  0.3018 -0.5375
 3328ntf    cn116966   6.710   6.631   0.639  0.3288  0.2074  0.0047
 3328ntf    sn216967   6.605   6.483   0.645  0.3674  0.1722 -0.1608
 3328ntf    nn316968   6.553   6.488   0.498 -0.2686 -0.2750  0.0438
 3328ntf    sn216969   6.558   6.383   0.381 -0.4152 -0.4668  0.2101
 3328ntf    cn116970   6.632   6.484   0.250 -0.1727 -0.1866  0.5609
 3328ntf    fn416971   6.645   6.725   0.573 -0.4908 -0.1822  0.2477
 3328ntf    fn416972   6.755   6.679   0.754  0.1920 -0.0545  0.1688
 3328ntf    fn416973   6.818   6.619   0.563  0.2390 -0.5119 -0.0190
 3328ntf    on516974   6.694   6.372   0.670  0.4206  0.3080  0.2650
 3328ntf    on516975   6.508   6.497   0.751  0.2289  0.3974 -0.3170
 3328ntf    on516976   6.424   6.359   0.333 -0.1561 -0.2388 -0.6398
 3328ntf    on516977   6.652   6.274   0.387 -0.0354 -0.1623 -0.1924
 3328ntf    fn416978   6.703   6.409   0.166 -0.3076  0.5071 -0.1892
 3328ntf    fn416979   6.542   6.556   0.186  0.3454  0.1598  0.2088
 3328ntf    fn416980   6.719   6.568   0.304  0.3280 -0.0496 -0.4256
 3329ntf    cn116981   5.363   1.172   4.727  0.2643 -0.0555  0.1262
 3329ntf    sn216982   5.255   1.218   4.589  0.3636 -0.0908  0.0366
 3329ntf    nn316983   5.303   1.367   4.580  0.0250  0.0303  0.2105
 3329ntf    sn216984   5.231   1.493   4.521 -0.0709 -0.0786  0.0923
 3329ntf    cn116985   5.330   1.528   4.372 -0.1063  0.1265  0.1168
 3329ntf    fn416986   5.488   1.151   4.690  0.1919  0.4541 -0.4180
 3329ntf    fn416987   5.354   1.254   4.831  0.3677 -0.0068  0.0981
 3329ntf    fn416988   5.324   1.052   4.766  0.4679 -0.0721  0.2822
 3329ntf    on516989   5.306   1.138   4.480  0.1547  0.1894 -0.2683
 3329ntf    on516990   5.121   1.189   4.635  0.2945 -0.2142 -0.2400
 3329ntf    on516991   5.250   1.612   4.601  0.6693 -0.2585  0.1879
 3329ntf    on516992   5.097   1.471   4.473 -0.0942  0.5035 -0.1189
 3329ntf    fn416993   5.323   1.440   4.274 -0.0356  0.1825  0.0617
 3329ntf    fn416994   5.287   1.643   4.322  0.5723  0.7522  0.9265
 3329ntf    fn416995   5.457   1.547   4.403 -0.0007 -0.0793 -0.1933
 3330ntf    cn116996   3.338   2.000   1.003 -0.2110 -0.0312 -0.1143
 3330ntf    sn216997   3.457   1.864   1.012 -0.3360 -0.1102  0.3389
 3330ntf    nn316998   3.514   1.844   0.867  0.2094 -0.1957  0.5618
 3330ntf    sn216999   3.646   1.772   0.819 -0.0864 -0.3768  0.0110
 3330ntf    cn117000   3.753   1.912   0.774  0.0239 -0.6617 -0.6205
 3330ntf    fn417001   3.387   2.123   1.008 -0.0568 -0.0980 -0.0084
 3330ntf    fn417002   3.259   2.008   0.897  0.0954 -0.3910 -0.3709
 3330ntf    fn417003   3.251   1.986   1.102 -0.0481 -0.1436  0.0121
 3330ntf    on517004   3.551   1.913   1.110 -0.2223 -0.4775  0.4169
 3330ntf    on517005   3.371   1.756   1.053 -0.2001 -0.3665 -0.0441
 3330ntf    on517006   3.620   1.713   0.691  0.0496  0.0476 -0.2142
 3330ntf    on517007   3.713   1.693   0.919 -0.1964 -0.4632  0.0162
 3330ntf    fn417008   3.871   1.867   0.736  0.7153  0.7347 -0.2097
 3330ntf    fn417009   3.705   1.990   0.679  0.1811  0.2562  0.0407
 3330ntf    fn417010   3.789   1.991   0.874 -0.4077 -0.1669 -0.8517
 3331ntf    cn117011   3.433   4.847   3.672  0.1407 -0.3081 -0.3013
 3331ntf    sn217012   3.365   4.959   3.545  0.1953 -0.2357 -0.2671
 3331ntf    nn317013   3.389   4.890   3.406 -0.6078  0.1747 -0.6134
 3331ntf    sn217014   3.522   4.886   3.323 -0.2497 -0.2038 -0.0223
 3331ntf    cn117015   3.479   5.009   3.197  0.2054 -0.1039 -0.0813
 3331ntf    fn417016   3.407   4.722   3.641  0.3278 -0.2646 -0.6413
 3331ntf    fn417017   3.563   4.873   3.682  0.0610 -0.1515  0.3891
 3331ntf    fn417018   3.384   4.865   3.794 -0.0196 -0.4656 -0.3434
 3331ntf    on517019   3.226   4.943   3.581  0.1509  0.2821 -0.2060
 3331ntf    on517020   3.435   5.083   3.566  0.0185 -0.1151 -0.3951
 3331ntf    on517021   3.534   4.762   3.251  0.2133 -0.1441 -0.0525
 3331ntf    on517022   3.649   4.930   3.375 -0.3767  0.4804 -0.2894
 3331ntf    fn417023   3.376   4.972   3.122 -0.0331 -0.0593  0.2240
 3331ntf    fn417024   3.445   5.130   3.237 -0.2752 -0.2809  0.0498
 3331ntf    fn417025   3.582   5.028   3.115  0.2678 -0.7990 -0.1752
 3332ntf    cn117026   4.275   0.417   6.047 -0.1560 -0.0323 -0.1096
 3332ntf    sn217027   4.247   0.554   5.930  0.0708  0.1523  0.0498
 3332ntf    nn317028   4.373   0.543   5.837  0.0158 -0.0831  0.0004
 3332ntf    sn217029   4.399   0.509   5.686  0.1429  0.0867 -0.0165
 3332ntf    cn117030   4.490   0.353   5.706  0.0536  0.0220 -0.1139
 3332ntf    fn417031   4.388   0.413   6.116  0.1487 -0.4675 -0.6257
 3332ntf    fn417032   4.177   0.415   6.135 -0.2109 -0.3332 -0.1768
 3332ntf    fn417033   4.274   0.299   5.987 -0.3605 -0.3248  0.4658
 3332ntf    on517034   4.116   0.526   5.876  0.0940 -0.5325  0.3337
 3332ntf    on517035   4.255   0.666   6.020  0.1450 -0.0952  0.3545
 3332ntf    on517036   4.500   0.584   5.617 -0.2609  0.2902 -0.3910
 3332ntf    on517037   4.287   0.465   5.607  0.1615 -0.6346  0.3439
 3332ntf    fn417038   4.510   0.295   5.589  0.4966 -0.2937  0.1155
 3332ntf    fn417039   4.610   0.364   5.761 -0.5044  0.1547  1.1059
 3332ntf    fn417040   4.424   0.260   5.773 -0.3630  0.3767 -0.0276
 3333ntf    cn117041   1.815   0.111   1.718  0.2377 -0.3945  0.1959
 3333ntf    sn217042   1.995   0.130   1.734  0.1842  0.2461  0.0758
 3333ntf    nn317043   2.036   0.255   1.648  0.0712  0.2359  0.0082
 3333ntf    sn217044   1.974   0.399   1.640 -0.3984  0.0282 -0.1734
 3333ntf    cn117045   2.097   0.481   1.746 -0.0572 -0.6029 -0.0728
 3333ntf    fn417046   1.745   0.197   1.790 -0.0923 -0.2677 -0.2694
 3333ntf    fn417047   1.784   0.124   1.590  0.2208  0.4863  0.2861
 3333ntf    fn417048   1.776  -0.009   1.756 -0.2970 -0.2786  0.0208
 3333ntf    on517049   2.010   0.148   1.876  0.3150  0.7151  0.0059
 3333ntf    on517050   2.044   0.007   1.675 -0.1968  0.0162  0.2348
 3333ntf    on517051   1.846   0.417   1.704 -0.5659 -0.0411 -0.4875
 3333ntf    on517052   1.999   0.457   1.510  0.0500  0.4441  0.0939
 3333ntf    fn417053   2.120   0.429   1.866  0.3061 -0.0896  0.0840
 3333ntf    fn417054   2.217   0.473   1.692 -0.0972  0.2572 -0.3047
 3333ntf    fn417055   2.078   0.611   1.761 -0.4110 -0.6120 -0.4355
 3334ntf    cn117056   6.446   5.645   3.417  0.2639 -0.0640 -0.2085
 3334ntf    sn217057   6.284   5.574   3.377  0.1046 -0.0163  0.3372
 3334ntf    nn317058   6.195   5.654   3.479 -0.0769 -0.0101  0.1764
 3334ntf    sn217059   6.082   5.759   3.451 -0.0251  0.0321  0.1248
 3334ntf    cn117060   6.131   5.888   3.570 -0.0089  0.2937 -0.1642
 3334ntf    fn417061   6.432   5.681   3.544  0.1457 -0.0722 -0.2189
 3334ntf    fn417062   6.547   5.560   3.408 -0.0648 -0.5143  0.3503
 3334ntf    fn417063   6.470   5.747   3.337  0.1742 -0.0273 -0.1889
 3334ntf    on517064   6.263   5.606   3.238  0.5431 -0.1645  0.2370
 3334ntf    on517065   6.306   5.437   3.414 -0.2949 -0.0669  0.3897
 3334ntf    on517066   5.954   5.709   3.494 -0.2815  0.6882  0.1259
 3334ntf    on517067   6.081   5.828   3.325 -0.2332  0.0532  0.1390
 3334ntf    fn417068   6.053   5.994   3.558 -0.4417  0.0048  0.0458
 3334ntf    fn417069   6.114   5.840   3.692  0.1081  0.0275 -0.2505
 3334ntf    fn417070   6.254   5.933   3.552  0.1908 -0.1944 -0.0404
 3335ntf    cn117071   0.184   3.735   4.316  0.5797 -0.0910  0.4842
 3335ntf    sn217072   0.065   3.826   4.419 -0.0133 -0.3200  0.0099
 3335ntf    nn317073  -0.069   3.826   4.338 -0.0372 -0.0350  0.0459
 3335ntf    sn217074  -0.149   3.944   4.273 -0.1842  0.0093  0.3059
 3335ntf    cn117075  -0.306   3.868   4.222 -0.0711  0.0177 -0.0612
 3335ntf    fn417076   0.310   3.746   4.353  0.5681 -0.2990  0.5881
 3335ntf    fn417077   0.164   3.604   4.310 -0.3940  0.0752 -0.2132
 3335ntf    fn417078   0.190   3.767   4.188  0.8382 -0.2781  0.4509
 3335ntf    on517079   0.066   3.741   4.535  0.7388 -0.0674  0.1961
 3335ntf    on517080   0.128   3.956   4.429 -0.3157 -0.1346 -0.4366
 3335ntf    on517081  -0.083   3.984   4.151  0.2044 -0.4724  0.3546
 3335ntf    on517082  -0.202   4.051   4.354 -0.1767  0.2431  0.0058
 3335ntf    fn417083  -0.405   3.955   4.225  0.1230  0.2365 -0.0021
 3335ntf    fn417084  -0.307   3.821   4.099 -0.1669 -0.0260 -0.0438
 3335ntf    fn417085  -0.353   3.772   4.300  0.1353 -0.0885 -0.0667
 3336ntf    cn117086   5.673   6.096   3.596 -0.1658 -0.4334 -0.4264
 3336ntf    sn217087   5.536   5.983   3.635 -0.2304 -0.1717  0.1231
 3336ntf    nn317088   5.416   6.084   3.642  0.0989  0.1859  0.6837
 3336ntf    sn217089   5.267   6.052   3.679 -0.1472 -0.1579 -0.5531
 3336ntf    cn117090   5.225   6.182   3.799  0.2478 -0.2422 -0.3208
 3336ntf    fn417091   5.657   6.174   3.490 -0.9307  0.4955  0.3489
 3336ntf    fn417092   5.702   6.182   3.693 -0.1402  0.0065 -0.8206
 3336ntf    fn417093   5.785   6.026   3.584  0.2828  0.2359 -0.2198
 3336ntf    on517094   5.551   5.900   3.518 -0.0448 -0.2893  0.2313
 3336ntf    on517095   5.572   5.929   3.763 -0.0327  0.0087  0.1443
 3336ntf    on517096   5.250   5.933   3.759 -0.3091  0.1721 -0.0938
 3336ntf    on517097   5.175   6.074   3.570 -0.1614 -0.3960 -0.5911
 3336ntf    fn417098   5.307   6.185   3.902 -0.1578 -0.0877 -0.0025
 3336ntf    fn417099   5.229   6.306   3.751 -0.4428 -0.1416 -0.1284
 3336ntf    fn417100   5.102   6.168   3.845  0.2568  0.1701 -0.1651
 3337ntf    cn117101   2.856   3.098   5.377  0.2013  0.0107 -0.7845
 3337ntf    sn217102   2.854   3.012   5.217  0.0968 -0.1729 -0.6848
 3337ntf    nn317103   2.941   2.886   5.252 -0.2809 -0.3517 -0.3846
 3337ntf    sn217104   3.019   2.795   5.150  0.4064  0.0258 -0.2048
 3337ntf    cn117105   2.891   2.761   5.025  0.2123 -0.1760  0.0456
 3337ntf    fn417106   2.821   3.028   5.483  0.7081  0.2917 -0.4298
 3337ntf    fn417107   2.982   3.125   5.403  0.1040 -0.1860 -0.1141
 3337ntf    fn417108   2.792   3.214   5.371 -0.0413 -0.1058 -0.4746
 3337ntf    on517109   2.716   2.982   5.191 -0.2335 -0.2938  1.0916
 3337ntf    on517110   2.905   3.110   5.124  0.4017  0.3104 -0.0145
 3337ntf    on517111   3.051   2.667   5.208  0.1070  0.3152  0.6258
 3337ntf    on517112   3.128   2.859   5.081  0.1291  0.3381 -0.3530
 3337ntf    fn417113   2.789   2.695   5.077 -0.0998  0.2016 -0.0844
 3337ntf    fn417114   2.850   2.868   4.959  0.6491  0.1692  0.3197
 3337ntf    fn417115   2.932   2.684   4.926 -0.1525 -0.0524 -0.2009
 3338ntf    cn117116   5.806   0.255   3.032  0.4506 -0.2636  0.3024
 3338ntf    sn217117   5.900   0.369   3.139 -0.0587  0.0259  0.4413
 3338ntf    nn317118   5.817   0.500   3.113  0.1401  0.0153 -0.2767
 3338ntf    sn217119   5.870   0.624   3.032  0.1108  0.0907 -0.1806
 3338ntf    cn117120   5.968   0.710   3.159  0.0280  0.0818 -0.1105
 3338ntf    fn417121   5.766   0.332   2.932  0.2848 -0.4599  0.2169
 3338ntf    fn417122   5.879   0.156   2.982  0.0282 -0.4610  0.0745
 3338ntf    fn417123   5.697   0.200   3.083 -0.0160 -0.1796 -0.5869
 3338ntf    on517124   5.884   0.311   3.270  0.1405 -0.6342  0.1785
 3338ntf    on517125   6.031   0.364   3.080 -0.3612 -0.1172 -0.2287
 3338ntf    on517126   5.770   0.727   3.016  0.3085  0.3046 -0.0298
 3338ntf    on517127   5.964   0.612   2.924 -0.4346  0.4358 -0.7004
 3338ntf    fn417128   6.076   0.645   3.199  0.3104  0.5052 -0.1792
 3338ntf    fn417129   6.019   0.827   3.124 -0.1642  0.0925 -0.3539
 3338ntf    fn417130   5.901   0.740   3.269 -0.0031  0.1163 -0.1386
 3339ntf    cn117131   0.564   1.176   1.261 -0.2265 -0.0892 -0.3058
 3339ntf    sn217132   0.487   1.306   1.160 -0.1624  0.2336  0.0591
 3339ntf    nn317133   0.530   1.440   1.231 -0.1804  0.0304  0.4558
 3339ntf    sn217134   0.456   1.517   1.346 -0.2944  0.2335  0.2477
 3339ntf    cn117135   0.541   1.677   1.354  0.0443  0.0627  0.0567
 3339ntf    fn417136   0.516   1.181   1.384 -0.3141 -0.4070 -0.3285
 3339ntf    fn417137   0.540   1.055   1.215 -0.0670 -0.1831 -0.1439
 3339ntf    fn417138   0.696   1.181   1.278 -0.2129  0.0785 -0.4518
 3339ntf    on517139   0.548   1.294   1.030  0.0844 -0.1512  0.2096
 3339ntf    on517140   0.344   1.291   1.166 -0.1612  0.4205  0.6506
 3339ntf    on517141   0.494   1.467   1.476 -1.0353 -0.3071  0.2653
 3339ntf    on517142   0.321   1.558   1.315 -0.2186 -0.1726 -0.6440
 3339ntf    fn417143   0.599   1.704   1.470 -0.4502 -0.1383  0.3507
 3339ntf    fn417144   0.627   1.694   1.255 -0.1398 -0.4209 -0.1846
 3339ntf    fn417145   0.453   1.775   1.348  0.0468  0.0309 -0.5586
 3340ntf    cn117146   4.634   3.700   7.088  0.1638 -0.2153  0.0186
 3340ntf    sn217147   4.617   3.734   6.910  0.1112 -0.0852  0.0486
 3340ntf    nn317148   4.728   3.639   6.854  0.4713  0.2034  0.2692
 3340ntf    sn217149   4.829   3.652   6.733  0.1389 -0.1566 -0.0474
 3340ntf    cn117150   4.764   3.527   6.618 -0.4087  0.1515 -0.0752
 3340ntf    fn417151   4.529   3.748   7.152  0.3653  0.5496 -0.2142
 3340ntf    fn417152   4.650   3.573   7.120  0.3595 -0.3300 -0.5231
 3340ntf    fn417153   4.746   3.752   7.136 -0.4878  0.6486  0.6258
 3340ntf    on517154   4.483   3.694   6.875  0.1718 -0.3050  0.0687
 3340ntf    on517155   4.649   3.874   6.900 -0.2722 -0.0235 -0.3753
 3340ntf    on517156   4.959   3.595   6.758  0.0940 -0.0830  0.3748
 3340ntf    on517157   4.821   3.778   6.664 -0.1346 -0.1089  0.0672
 3340ntf    fn417158   4.841   3.510   6.512  0.3237  0.2475  0.4322
 3340ntf    fn417159   4.766   3.413   6.684 -0.0404  0.0162 -0.3200
 3340ntf    fn417160   4.641   3.555   6.575 -0.4721 -0.1114 -0.0641
 3341ntf    cn117161   0.648   5.629   6.183 -0.1066 -0.1650  0.1984
 3341ntf    sn217162   0.471   5.629   6.143 -0.0893  0.6097  0.1115
 3341ntf    nn317163   0.465   5.653   5.988 -0.5947  0.2041  0.0634
 3341ntf    sn217164   0.481   5.787   5.907  0.1666  0.1297  0.0831
 3341ntf    cn117165   0.312   5.829   5.856  0.2297  0.0097 -0.2274
 3341ntf    fn417166   0.698   5.748   6.153  0.1043 -0.3644 -0.2568
 3341ntf    fn417167   0.678   5.613   6.311 -0.1350  0.2105  0.2529
 3341ntf    fn417168   0.718   5.544   6.110  0.4040 -0.1908  0.7084
 3341ntf    on517169   0.422   5.497   6.176  0.1985  0.4225 -0.2066
 3341ntf    on517170   0.411   5.732   6.224 -1.1200  0.8825 -0.9710
 3341ntf    on517171   0.542   5.752   5.782  0.4956  0.0096  0.2758
 3341ntf    on517172   0.527   5.907   5.973 -0.4196  0.3259  0.1428
 3341ntf    fn417173   0.234   5.834   5.963  0.0900  0.6333 -0.3524
 3341ntf    fn417174   0.307   5.952   5.806 -0.2078  0.0581 -0.0675
 3341ntf    fn417175   0.259   5.742   5.772  0.2626 -0.0984 -0.1363
 3342ntf    cn117176   3.842   3.617   0.610 -0.0276 -0.3521  0.0687
 3342ntf    sn217177   4.006   3.622   0.533 -0.1711  0.2364 -0.2053
 3342ntf    nn317178   3.981   3.546   0.398 -0.1970 -0.0395 -0.0456
 3342ntf    sn217179   4.062   3.433   0.326 -0.5035 -0.4118  0.1930
 3342ntf    cn117180   4.003   3.466   0.158  0.3651 -0.2178 -0.0769
 3342ntf    fn417181   3.816   3.501   0.667 -0.2992 -0.2021  0.2572
 3342ntf    fn417182   3.821   3.711   0.702  0.5368 -0.0887 -0.0705
 3342ntf    fn417183   3.751   3.636   0.516  0.1963  0.0759 -0.0659
 3342ntf    on517184   4.037   3.762   0.515 -0.2520  0.3395  0.4294
 3342ntf    on517185   4.088   3.545   0.623 -0.0023  0.4783 -0.1496
 3342ntf    on517186   4.006   3.302   0.348 -0.0238 -0.7493 -0.5624
 3342ntf    on517187   4.204   3.455   0.315 -0.6547  0.2803 -0.4039
 3342ntf    fn417188   4.057   3.375   0.078  0.0414  0.3335 -0.9409
 3342ntf    fn417189   3.873   3.469   0.136  0.3150 -0.0008  0.2496
 3342ntf    fn417190   4.043   3.579   0.102 -0.0500  0.2606  0.5878
 3343ntf    cn117191   4.047   2.623   5.802 -0.2332 -0.1583  0.3119
 3343ntf    sn217192   3.891   2.687   5.734 -0.0333  0.0771  0.0735
 3343ntf    nn317193   3.807   2.699   5.866  0.0701  0.0259  0.1445
 3343ntf    sn217194   3.660   2.649   5.891  0.0271  0.0188 -0.1205
 3343ntf    cn117195   3.573   2.806   5.862  0.1191  0.1152  0.1265
 3343ntf    fn417196   4.140   2.597   5.711  0.0166 -0.2597  0.5942
 3343ntf    fn417197   4.087   2.719   5.884 -0.1584  0.2304 -0.1751
 3343ntf    fn417198   4.025   2.512   5.871 -0.1790  0.0065  0.5960
 3343ntf    on517199   3.938   2.812   5.679 -0.1177  0.2826  0.4625
 3343ntf    on517200   3.854   2.589   5.635  0.2452 -0.1405  0.1844
 3343ntf    on517201   3.641   2.629   6.032 -0.1134 -0.2781 -0.1806
 3343ntf    on517202   3.609   2.550   5.799 -0.1722  0.0245 -0.0150
 3343ntf    fn417203   3.621   2.902   5.940  0.0793  0.2013  0.0444
 3343ntf    fn417204   3.588   2.854   5.740  0.1851 -0.1368  0.0329
 3343ntf    fn417205   3.444   2.788   5.883  0.1626 -0.1787  0.1493
 3344ntf    cn117206   4.057   4.126   3.682  0.1938 -0.0127  0.1142
 3344ntf    sn217207   4.116   4.218   3.536  0.0164  0.1138  0.1216
 3344ntf    nn317208   3.980   4.266   3.475 -0.2395 -0.4447  0.2415
 3344ntf    sn217209   3.909   4.200   3.351 -0.0558 -0.4238  0.1254
 3344ntf    cn117210   3.803   4.340   3.301  0.2359 -0.2306  0.0441
 3344ntf    fn417211   4.006   4.200   3.779  0.4885  0.0867  0.1935
 3344ntf    fn417212   3.968   4.034   3.650 -0.3089  0.4691  0.1163
 3344ntf    fn417213   4.149   4.056   3.745 -0.0368 -0.3100  0.1204
 3344ntf    on517214   4.199   4.319   3.597  0.3873 -0.0593 -0.0904
 3344ntf    on517215   4.189   4.120   3.459  0.1666  0.2467  0.0972
 3344ntf    on517216   3.822   4.089   3.381 -0.3935 -0.2203 -0.0868
 3344ntf    on517217   3.985   4.175   3.232  0.1105  0.1443  0.1069
 3344ntf    fn417218   3.725   4.393   3.394  0.0710 -0.5527  0.0910
 3344ntf    fn417219   3.868   4.443   3.251  0.0251 -0.1121  0.0145
 3344ntf    fn417220   3.724   4.295   3.205 -0.0376 -0.4881  0.3860
 3345ntf    cn117221   2.159   5.569   3.640  0.4828  0.2644 -0.0160
 3345ntf    sn217222   2.187   5.687   3.504  0.5811 -0.0250 -0.2463
 3345ntf    nn317223   2.036   5.708   3.465  0.4804  0.3343  0.3363
 3345ntf    sn217224   1.956   5.843   3.464  0.0139  0.0569 -0.1442
 3345ntf    cn117225   1.921   5.844   3.642  0.0028 -0.2021 -0.1440
 3345ntf    fn417226   2.110   5.454   3.597  0.3275  0.4396 -0.3142
 3345ntf    fn417227   2.271   5.551   3.708  0.3907  0.5077  0.2019
 3345ntf    fn417228   2.069   5.610   3.727  0.1458  0.0485 -0.2636
 3345ntf    on517229   2.259   5.798   3.559 -0.1199  0.3916 -0.1616
 3345ntf    on517230   2.256   5.605   3.407  0.4902 -0.6784  0.2306
 3345ntf    on517231   1.828   5.836   3.398 -0.0353 -0.2497 -0.0174
 3345ntf    on517232   2.025   5.967   3.436 -0.6010  0.3614 -0.3204
 3345ntf    fn417233   1.864   5.959   3.674  0.2125 -0.0959 -0.1503
 3345ntf    fn417234   1.837   5.748   3.676  0.3512 -0.4952 -0.1006
 3345ntf    fn417235   2.029   5.836   3.719 -0.2664  0.2976  0.2954
 3346ntf    cn117236   1.695   5.621   5.414 -0.4014  0.1556 -0.0503
 3346ntf    sn217237   1.861   5.641   5.484 -0.4035 -0.2333  0.0709
 3346ntf    nn317238   1.895   5.491   5.514  0.1387 -0.0872  0.1993
 3346ntf    sn217239   1.989   5.428   5.623 -0.1481 -0.1527  0.4079
 3346ntf    cn117240   1.865   5.384   5.750 -0.3477  0.0373  0.2790
 3346ntf    fn417241   1.626   5.530   5.482  0.3406  0.0456  0.5680
 3346ntf    fn417242   1.631   5.736   5.406  0.6125  0.6816 -0.7710
 3346ntf    fn417243   1.702   5.572   5.291 -0.5116 -0.4554  0.1818
 3346ntf    on517244   1.935   5.695   5.372 -0.2462 -0.6051 -0.0066
 3346ntf    on517245   1.848   5.725   5.601 -0.5327  0.7396 -0.6281
 3346ntf    on517246   2.086   5.511   5.689 -0.3190 -0.2488  0.7879
 3346ntf    on517247   2.031   5.301   5.569 -0.5199  0.0380 -0.3434
 3346ntf    fn417248   1.912   5.314   5.851 -0.3931 -0.8411 -0.3003
 3346ntf    fn417249   1.806   5.485   5.811 -0.3295  0.0415  0.2889
 3346ntf    fn417250   1.767   5.307   5.707  0.0369 -0.4284  0.2244
 3347ntf    cn117251   4.554   3.524   5.194  0.0600 -0.0739 -0.1237
 3347ntf    sn217252   4.439   3.655   5.144  0.0739  0.0167  0.0807
 3347ntf    nn317253   4.433   3.743   5.274  0.8111  0.0329  0.1039
 3347ntf    sn217254   4.338   3.732   5.398  0.1960  0.1404 -0.3510
 3347ntf    cn117255   4.203   3.838   5.340 -0.1521  0.1004  0.3717
 3347ntf    fn417256   4.678   3.565   5.212 -0.2919  0.8058  0.3738
 3347ntf    fn417257   4.519   3.475   5.312 -0.1018 -0.1884 -0.2190
 3347ntf    fn417258   4.557   3.420   5.112 -0.7056 -0.5069  0.3799
 3347ntf    on517259   4.525   3.712   5.043  0.2749 -0.7182 -0.1693
 3347ntf    on517260   4.319   3.584   5.107  0.0736  0.0270  0.0609
 3347ntf    on517261   4.387   3.807   5.511 -0.5095 -0.3924  0.3153
 3347ntf    on517262   4.269   3.608   5.420 -0.4610  0.5810  0.1096
 3347ntf    fn417263   4.127   3.793   5.241  0.3473 -0.1667  0.1043
 3347ntf    fn417264   4.122   3.867   5.441 -0.5027  0.4445  0.0019
 3347ntf    fn417265   4.248   3.946   5.278  0.0897 -0.1932  0.0302
 3348ntf    cn117266   1.871   5.156   6.090 -0.0637  0.0825  0.1631
 3348ntf    sn217267   1.894   5.060   6.243 -0.0445 -0.5969 -0.2640
 3348ntf    nn317268   1.744   5.028   6.277 -0.2912  0.6356 -0.1419
 3348ntf    sn217269   1.648   5.099   6.379 -0.0536  0.2122  0.3816
 3348ntf    cn117270   1.530   4.961   6.385 -0.0672  0.1843 -0.3889
 3348ntf    fn417271   1.818   5.087   5.990 -0.0287  0.2968 -0.0047
 3348ntf    fn417272   1.790   5.261   6.099  0.2233  0.3253 -0.0536
 3348ntf    fn417273   1.987   5.208   6.052  0.0543 -0.0784  0.2985
 3348ntf    on517274   1.972   4.946   6.201  0.4201 -0.1602 -0.5926
 3348ntf    on517275   1.966   5.150   6.329 -0.1376  0.1584 -0.9529
 3348ntf    on517276   1.576   5.213   6.326 -0.2427  0.0393  0.2639
 3348ntf    on517277   1.698   5.110   6.513  0.1770  0.4244  0.2795
 3348ntf    fn417278   1.481   4.927   6.267 -0.1072 -0.3156 -0.2308
 3348ntf    fn417279   1.579   4.849   6.436 -0.2253  0.3363  0.0975
 3348ntf    fn417280   1.429   4.984   6.467  0.0993  0.2176 -0.1927
 3349ntf    cn117281   1.243   4.769   3.132 -0.0157 -0.4066  0.2552
 3349ntf    sn217282   1.291   4.695   2.972 -0.2559 -0.2513  0.1105
 3349ntf    nn317283   1.241   4.809   2.876 -0.2257 -0.0478  0.3352
 3349ntf    sn217284   1.098   4.829   2.815 -0.0035  0.4952 -0.0093
 3349ntf    cn117285   1.113   4.725   2.667  0.2942  0.0728  0.3174
 3349ntf    fn417286   1.113   4.748   3.144  0.0190 -0.5731  0.3426
 3349ntf    fn417287   1.298   4.707   3.235  0.0727  0.0580  0.4913
 3349ntf    fn417288   1.270   4.898   3.139 -0.5741 -0.2636 -0.1748
 3349ntf    on517289   1.434   4.687   2.988 -0.1807  0.8242  0.0642
 3349ntf    on517290   1.211   4.575   2.982 -0.4284 -0.1672 -0.2631
 3349ntf    on517291   1.074   4.957   2.752 -0.4644  0.4265  0.0265
 3349ntf    on517292   0.988   4.770   2.887 -0.3142  0.6483 -0.3569
 3349ntf    fn417293   0.993   4.710   2.613 -0.0416  0.1981  1.0159
 3349ntf    fn417294   1.200   4.767   2.576 -0.0293 -0.2068 -0.1240
 3349ntf    fn417295   1.157   4.602   2.690 -0.2445 -0.1322  0.2667
 3350ntf    cn117296   2.845   6.034   3.900 -0.0563 -0.3528 -0.0523
 3350ntf    sn217297   2.747   5.886   3.937 -0.4414 -0.0546  0.1307
 3350ntf    nn317298   2.634   5.952   4.023 -0.0979 -0.5113  0.9520
 3350ntf    sn217299   2.511   6.029   3.962  0.3880 -0.2900  0.2342
 3350ntf    cn117300   2.380   5.903   3.962  0.1955 -0.0916 -0.0172
 3350ntf    fn417301   2.770   6.104   3.817  0.0434 -0.3318 -0.1238
 3350ntf    fn417302   2.876   6.106   4.007  0.8596 -0.0421 -0.5167
 3350ntf    fn417303   2.951   6.012   3.825  0.0876  0.4276 -0.0909
 3350ntf    on517304   2.713   5.835   3.806  0.0888  0.3464 -0.1640
 3350ntf    on517305   2.835   5.811   4.024  0.6693  0.4674 -0.5250
 3350ntf    on517306   2.517   6.061   3.822 -0.4350  0.7315  0.4196
 3350ntf    on517307   2.460   6.124   4.058  0.5191 -0.1560  0.1714
 3350ntf    fn417308   2.383   5.847   4.082  0.2215  0.2114  0.1242
 3350ntf    fn417309   2.260   5.958   3.952 -0.0800 -0.6302  0.2531
 3350ntf    fn417310   2.396   5.808   3.872  0.3618  0.2424 -0.3401
 3351ntf    cn117311   6.877   5.470   0.909  0.1108  0.3680  0.2267
 3351ntf    sn217312   7.003   5.499   0.782  0.1023 -0.4467  0.0249
 3351ntf    nn317313   6.971   5.650   0.751  0.5660 -0.3086  0.1972
 3351ntf    sn217314   7.061   5.746   0.666 -0.1625  0.1862 -0.0192
 3351ntf    cn117315   7.132   5.861   0.788  0.1245  0.1207 -0.1251
 3351ntf    fn417316   6.753   5.455   0.866  0.1875 -0.6999  0.3551
 3351ntf    fn417317   6.902   5.358   0.975 -0.4158  0.1205  0.0122
 3351ntf    fn417318   6.866   5.568   0.998  0.1647  0.0660  0.5699
 3351ntf    on517319   7.119   5.486   0.867  0.2578 -0.5587 -0.2045
 3351ntf    on517320   6.976   5.404   0.677  0.2428 -0.4605  0.0004
 3351ntf    on517321   6.991   5.837   0.578 -0.3510  0.4961  0.4446
 3351ntf    on517322   7.174   5.679   0.608 -0.1600  0.1895 -0.0176
 3351ntf    fn417323   7.200   5.796   0.881 -0.2663 -0.1371 -0.0209
 3351ntf    fn417324   7.215   5.943   0.726  0.8489 -0.6638 -0.2133
 3351ntf    fn417325   7.049   5.938   0.856 -0.2362  0.0684 -0.5007
 3352ntf    cn117326   4.254   5.843   0.277 -0.2106  0.4915  0.1297
 3352ntf    sn217327   4.412   5.779   0.213 -0.2501  0.1631  0.3568
 3352ntf    nn317328   4.462   5.899   0.124 -0.0909 -0.2298 -0.0850
 3352ntf    sn217329   4.568   5.890   0.008  0.1871 -0.0292  0.1538
 3352ntf    cn117330   4.468   5.926  -0.139 -0.1217 -0.1207  0.3410
 3352ntf    fn417331   4.208   5.759   0.368 -0.0781  0.4132  0.1251
 3352ntf    fn417332   4.265   5.963   0.332 -0.4372  0.6043 -0.0678
 3352ntf    fn417333   4.163   5.851   0.181  0.0457 -0.2103 -0.1827
 3352ntf    on517334   4.486   5.770   0.336  0.5204 -0.1774 -0.1264
 3352ntf    on517335   4.377   5.659   0.142 -0.1593 -0.1188  0.7886
 3352ntf    on517336   4.626   5.761  -0.022 -0.1202 -0.1860  0.2279
 3352ntf    on517337   4.658   6.002   0.016  0.2452 -0.0612 -0.0487
 3352ntf    fn417338   4.521   5.915  -0.260  0.1428 -0.2710  0.4704
 3352ntf    fn417339   4.354   5.858  -0.131 -0.1442 -0.1541 -0.2109
 3352ntf    fn417340   4.423   6.050  -0.124 -0.1370 -0.0265 -0.4362
 3353ntf    cn117341   6.329   2.905   2.450  0.2995  0.2695 -0.2756
 3353ntf    sn217342   6.159   2.841   2.447  0.2307  0.4293  0.0634
 3353ntf    nn317343   6.187   2.688   2.472 -0.4997  0.1551 -0.7567
 3353ntf    sn217344   6.110   2.592   2.570 -0.1357  0.2450 -0.3817
 3353ntf    cn117345   6.226   2.593   2.710 -0.2998  0.2290 -0.2464
 3353ntf    fn417346   6.399   2.871   2.558 -0.1804  0.1975  0.0166
 3353ntf    fn417347   6.395   2.858   2.345 -0.0766  0.1808 -0.4726
 3353ntf    fn417348   6.332   3.037   2.450 -0.3486  0.2869 -0.6309
 3353ntf    on517349   6.095   2.912   2.554 -0.6073 -0.4518  0.1614
 3353ntf    on517350   6.112   2.863   2.312  0.4387 -0.0041 -0.0849
 3353ntf    on517351   6.115   2.456   2.522 -0.4638  0.0193  0.2183
 3353ntf    on517352   5.983   2.624   2.629 -0.1537 -0.4879 -0.0169
 3353ntf    fn417353   6.226   2.708   2.776 -0.6606 -0.2323  0.5664
 3353ntf    fn417354   6.187   2.501   2.797 -0.1658  0.3148 -0.0954
 3353ntf    fn417355   6.352   2.569   2.679 -0.2783  0.0412 -0.0206
 3354ntf    cn117356   3.351   1.547   4.157  0.3693  0.2671  0.1026
 3354ntf    sn217357   3.475   1.416   4.134  0.0254 -0.0487  0.0323
 3354ntf    nn317358   3.597   1.513   4.119 -0.2772  0.4136  0.5283
 3354ntf    sn217359   3.737   1.503   4.189  0.1319  0.2613 -0.2944
 3354ntf    cn117360   3.820   1.653   4.128  0.5812  0.1678  0.0787
 3354ntf    fn417361   3.347   1.638   4.062  0.3419  0.1430 -0.0158
 3354ntf    fn417362   3.235   1.483   4.158  0.7179 -0.4304 -1.0961
 3354ntf    fn417363   3.365   1.612   4.271 -0.2195 -0.2068  0.4532
 3354ntf    on517364   3.477   1.333   4.253 -1.2406 -0.3288 -0.1283
 3354ntf    on517365   3.432   1.360   4.009 -0.4968 -0.0275  0.2001
 3354ntf    on517366   3.820   1.392   4.150  0.2625  0.1408  0.3110
 3354ntf    on517367   3.719   1.523   4.331  0.0777  0.0462 -0.2704
 3354ntf    fn417368   3.774   1.769   4.171 -0.2471 -0.0861 -0.1055
 3354ntf    fn417369   3.950   1.654   4.152  0.5248 -0.2423  0.4107
 3354ntf    fn417370   3.814   1.651   3.996 -0.8068 -0.3120  0.1304
 3355ntf    cn117371   5.580   0.199   2.471 -0.1626 -0.2863  0.4233
 3355ntf    sn217372   5.423   0.144   2.396  0.0473 -0.1363 -0.1304
 3355ntf    nn317373   5.382   0.055   2.518  0.0695  0.1278  0.0702
 3355ntf    sn217374   5.376  -0.101   2.528  0.0995  0.1317  0.1523
 3355ntf    cn117375   5.544  -0.166   2.499 -0.0256 -0.0617 -0.1533
 3355ntf    fn417376   5.567   0.250   2.592 -0.6964  0.3354  0.1128
 3355ntf    fn417377   5.681   0.114   2.473  0.1148  0.0494  0.7051
 3355ntf    fn417378   5.624   0.298   2.395 -0.1635 -0.2087  0.5249
 3355ntf    on517379   5.347   0.266   2.385 -0.3866 -0.3237  0.7621
 3355ntf    on517380   5.461   0.065   2.281  0.2491  0.0623 -0.2015
 3355ntf    on517381   5.290  -0.162   2.429  0.1601  0.2262  0.0419
 3355ntf    on517382   5.349  -0.141   2.664 -0.2094 -0.0802  0.0317
 3355ntf    fn417383   5.637  -0.106   2.572 -0.1519  0.0085 -0.0474
 3355ntf    fn417384   5.553  -0.291   2.540 -0.2445  0.1752  0.6585
 3355ntf    fn417385   5.577  -0.176   2.372  0.1008 -0.2262 -0.1067
 3356ntf    cn117386   1.648   3.592   4.614 -0.2347 -0.0423  0.4523
 3356ntf    sn217387   1.783   3.660   4.715  0.0598 -0.2276  0.1835
 3356ntf    nn317388   1.815   3.793   4.639  0.5009 -0.2370  0.3477
 3356ntf    sn217389   1.931   3.825   4.538 -0.1031 -0.0695 -0.3040
 3356ntf    cn117390   1.881   3.995   4.500  0.1666  0.0617 -0.0769
 3356ntf    fn417391   1.543   3.672   4.607 -0.4394 -0.3405  0.1128
 3356ntf    fn417392   1.698   3.585   4.492  0.0234 -0.1877  0.5665
 3356ntf    fn417393   1.615   3.468   4.646 -0.3532 -0.1303 -0.0113
 3356ntf    on517394   1.718   3.689   4.841 -0.1368 -0.8277  0.2267
 3356ntf    on517395   1.879   3.552   4.718  0.0861 -0.1912  0.8620
 3356ntf    on517396   1.932   3.758   4.410  0.0327 -0.6185 -0.0211
 3356ntf    on517397   2.063   3.841   4.594 -0.2604  0.0530  0.0326
 3356ntf    fn417398   1.880   4.072   4.607  0.0616  0.2888 -0.2410
 3356ntf    fn417399   1.964   4.046   4.410 -0.2039 -0.1325 -0.5317
 3356ntf    fn417400   1.760   3.995   4.445  0.2027  0.3277 -0.1590
 3357ntf    cn117401   2.365   2.304   4.727 -0.0859  0.1748 -0.1145
 3357ntf    sn217402   2.408   2.301   4.550 -0.0801 -0.1516 -0.1063
 3357ntf    nn317403   2.304   2.201   4.488  0.0783 -0.2250 -0.2525
 3357ntf    sn217404   2.204   2.221   4.369  0.1287 -0.1239 -0.2780
 3357ntf    cn117405   2.054   2.267   4.462  0.1186 -0.0437 -0.3341
 3357ntf    fn417406   2.430   2.397   4.795 -0.0608  0.3887 -0.4264
 3357ntf    fn417407   2.237   2.321   4.754 -0.0071  0.1416  0.2844
 3357ntf    fn417408   2.400   2.194   4.790  0.9779  0.8612  0.5243
 3357ntf    on517409   2.392   2.440   4.519  0.6005 -0.0312  0.0621
 3357ntf    on517410   2.544   2.253   4.560 -0.1447 -0.4082 -0.4416
 3357ntf    on517411   2.170   2.091   4.316  0.1804 -0.3213  0.1718
 3357ntf    on517412   2.230   2.328   4.277  0.4046  0.2046  0.1782
 3357ntf    fn417413   2.069   2.384   4.523  0.0605 -0.1574 -0.1018
 3357ntf    fn417414   1.948   2.283   4.384  0.0090  0.0106 -0.1752
 3357ntf    fn417415   2.018   2.172   4.546 -0.4696  0.4622 -0.0083
 3358ntf    cn117416   4.490   0.756   1.957  0.2750  0.0939  0.0108
 3358ntf    sn217417   4.577   0.715   2.112  0.2137  0.1297  0.0544
 3358ntf    nn317418   4.459   0.638   2.181 -0.3336  0.2555 -0.7254
 3358ntf    sn217419   4.349   0.688   2.281  0.0153 -0.0203 -0.1998
 3358ntf    cn117420   4.436   0.645   2.435  0.2390  0.2266 -0.2577
 3358ntf    fn417421   4.364   0.785   1.984  0.4726  0.7825  0.2212
 3358ntf    fn417422   4.547   0.864   1.906  0.2723  0.0677 -0.0467
 3358ntf    fn417423   4.477   0.660   1.867  0.0817 -0.5312  0.6860
 3358ntf    on517424   4.678   0.619   2.075  0.0936  0.2331 -0.5622
 3358ntf    on517425   4.617   0.842   2.166  0.1760  0.0175  0.3471
 3358ntf    on517426   4.229   0.608   2.280 -0.1344  0.2000  0.0342
 3358ntf    on517427   4.327   0.830   2.291 -0.0588 -0.0625  0.2961
 3358ntf    fn417428   4.550   0.707   2.459 -0.1353  0.5861  0.6167
 3358ntf    fn417429   4.364   0.675   2.541  0.5324 -0.2222  0.0710
 3358ntf    fn417430   4.458   0.515   2.435 -0.0390  0.1801 -0.2453
 3359ntf    cn117431   1.671   6.036   0.402  0.2078 -0.2886  0.1453
 3359ntf    sn217432   1.680   5.928   0.548 -0.1424 -0.3353  0.1338
 3359ntf    nn317433   1.525   5.908   0.562 -0.2736  0.3428 -0.3160
 3359ntf    sn217434   1.437   5.795   0.498 -0.0560  0.0265 -0.0600
 3359ntf    cn117435   1.448   5.668   0.628 -0.2603  0.0561 -0.0130
 3359ntf    fn417436   1.600   5.980   0.305 -0.6504  0.5923  0.2509
 3359ntf    fn417437   1.611   6.150   0.431  0.5027 -0.1594  0.2551
 3359ntf    fn417438   1.786   6.072   0.348  0.2200 -0.1176  0.2818
 3359ntf    on517439   1.759   5.815   0.505 -0.9781 -0.8957  0.0495
 3359ntf    on517440   1.742   6.011   0.649 -0.1021 -0.4345  0.1902
 3359ntf    on517441   1.477   5.728   0.377  0.2954  0.2134 -0.0481
 3359ntf    on517442   1.297   5.833   0.504  0.0655  0.4711  0.0014
 3359ntf    fn417443   1.415   5.547   0.585 -0.3151  0.1843 -0.3376
 3359ntf    fn417444   1.571   5.653   0.673 -0.3809 -0.2715  0.2094
 3359ntf    fn417445   1.370   5.684   0.733  0.5055 -0.4093  0.6349
 3360ntf    cn117446   5.131   3.972   4.982  0.2562  0.2939 -0.1312
 3360ntf    sn217447   5.176   4.121   4.887 -0.0446  0.1686 -0.4749
 3360ntf    nn317448   5.166   4.232   4.998 -0.1756  0.4178 -0.7368
 3360ntf    sn217449   5.269   4.302   5.093 -0.2972  0.0387 -0.3236
 3360ntf    cn117450   5.289   4.466   5.017 -0.4790  0.3140  0.2164
 3360ntf    fn417451   5.209   3.956   5.087  0.0569 -0.2622 -0.0656
 3360ntf    fn417452   5.011   3.980   5.037  0.5895  0.5271  0.5634
 3360ntf    fn417453   5.134   3.857   4.916 -0.5723 -0.1250  0.5404
 3360ntf    on517454   5.306   4.090   4.834 -0.0970 -0.2685 -0.3533
 3360ntf    on517455   5.077   4.138   4.784 -0.3585  0.7621 -0.0840
 3360ntf    on517456   5.405   4.252   5.091 -0.3466 -0.1744  0.8956
 3360ntf    on517457   5.216   4.341   5.221  0.1176 -0.5436  0.0307
 3360ntf    fn417458   5.374   4.543   5.084 -0.1839 -0.4189  0.6929
 3360ntf    fn417459   5.337   4.458   4.894 -0.2269  0.4731  0.3042
 3360ntf    fn417460   5.171   4.526   5.014 -0.3843  0.4866 -0.1049
 3361ntf    cn117461   0.438   3.082   1.245 -0.0427 -0.1326 -0.0348
 3361ntf    sn217462   0.536   3.013   1.108  0.2163  0.5331 -0.1922
 3361ntf    nn317463   0.422   2.978   1.006 -0.0133 -0.1878  0.3032
 3361ntf    sn217464   0.356   2.835   1.000  0.1153 -0.2341 -0.0083
 3361ntf    cn117465   0.289   2.838   0.831 -0.2525 -0.2646  0.1365
 3361ntf    fn417466   0.338   3.006   1.286  0.0380 -0.1966  0.0438
 3361ntf    fn417467   0.520   3.108   1.346 -0.3909 -0.2706  0.2883
 3361ntf    fn417468   0.382   3.199   1.218 -0.2836 -0.0670  0.7179
 3361ntf    on517469   0.612   3.130   1.072 -0.1031  0.7412 -0.1976
 3361ntf    on517470   0.608   2.905   1.171  0.2255  0.2486 -0.6902
 3361ntf    on517471   0.241   2.829   1.086 -0.3145 -1.0642 -0.6245
 3361ntf    on517472   0.453   2.729   0.985 -0.2314 -0.5703  0.1088
 3361ntf    fn417473   0.208   2.735   0.816  0.0787 -0.4354 -0.5452
 3361ntf    fn417474   0.211   2.944   0.819  0.2907  0.1339  0.0672
 3361ntf    fn417475   0.365   2.843   0.722  0.1417 -0.0271  0.4176
 3362ntf    cn117476   2.620   0.232   3.297 -0.6887  0.1523 -0.2053
 3362ntf    sn217477   2.623   0.323   3.139  0.0543  0.3424 -0.0813
 3362ntf    nn317478   2.479   0.384   3.132  0.0492  0.3156 -0.2110
 3362ntf    sn217479   2.386   0.431   3.015 -0.0276  0.4771 -0.0866
 3362ntf    cn117480   2.296   0.277   2.980  0.6481  0.0652 -0.0264
 3362ntf    fn417481   2.562   0.113   3.285 -0.4993  0.0237  0.1652
 3362ntf    fn417482   2.740   0.212   3.347 -0.5849  0.0264 -0.5040
 3362ntf    fn417483   2.564   0.307   3.390 -0.2369  0.4344 -0.1593
 3362ntf    on517484   2.726   0.423   3.155  0.4109 -0.0434  0.0462
 3362ntf    on517485   2.659   0.216   3.050 -0.1608  0.4502 -0.2976
 3362ntf    on517486   2.448   0.454   2.886  0.5201 -0.3329  0.0256
 3362ntf    on517487   2.288   0.526   3.061  0.0798  0.4317  0.2323
 3362ntf    fn417488   2.374   0.171   2.965  0.2029 -0.3060  0.2788
 3362ntf    fn417489   2.216   0.241   3.078  0.0785  0.5317 -0.3123
 3362ntf    fn417490   2.218   0.293   2.875 -0.2625  0.1183  0.6491
 3363ntf    cn117491   0.517   3.143   2.901 -0.4462 -0.6013  0.0817
 3363ntf    sn217492   0.456   3.185   2.735  0.2561 -0.0890 -0.0486
 3363ntf    nn317493   0.336   3.279   2.771 -0.3450 -0.7107 -0.4048
 3363ntf    sn217494   0.241   3.350   2.668 -0.2243 -0.0279 -0.0523
 3363ntf    cn117495   0.194   3.501   2.758  0.1751  0.0351  0.0537
 3363ntf    fn417496   0.613   3.053   2.888 -0.0332 -0.0916 -0.4608
 3363ntf    fn417497   0.575   3.243   2.965 -0.9297 -0.2734  0.0178
 3363ntf    fn417498   0.428   3.092   2.985 -0.1966 -0.0802  0.6701
 3363ntf    on517499   0.571   3.240   2.667 -0.2435  0.2222 -0.6616
 3363ntf    on517500   0.411   3.058   2.685  0.4485  0.1906 -0.9648
 3363ntf    on517501   0.115   3.282   2.650  0.0734 -0.6560  0.1883
 3363ntf    on517502   0.311   3.405   2.554 -0.0402  0.0698  0.1077
 3363ntf    fn417503   0.162   3.473   2.883  0.2274  0.2258  0.1099
 3363ntf    fn417504   0.282   3.599   2.771 -0.1861  0.3513  0.1286
 3363ntf    fn417505   0.097   3.564   2.694  0.4710  0.4780  0.0337
 3364ntf    cn117506   1.657   5.089   1.518  0.2656 -0.1580  0.0613
 3364ntf    sn217507   1.510   5.020   1.598  0.0036  0.3723  0.0441
 3364ntf    nn317508   1.472   4.909   1.494  0.1865  0.3667 -0.0169
 3364ntf    sn217509   1.369   4.915   1.376 -0.1232 -0.3472  0.2083
 3364ntf    cn117510   1.245   4.813   1.461 -0.3499 -0.2015  0.0567
 3364ntf    fn417511   1.617   5.131   1.399  0.0709 -0.0013  0.1812
 3364ntf    fn417512   1.706   5.192   1.585  0.2288 -0.1277  0.0408
 3364ntf    fn417513   1.747   4.997   1.487  0.3597 -0.0379 -0.0266
 3364ntf    on517514   1.560   4.964   1.721  0.5561  0.5454 -0.1006
 3364ntf    on517515   1.418   5.129   1.621  0.1554  0.5392 -0.1429
 3364ntf    on517516   1.408   4.833   1.264 -0.1370 -0.0257 -0.0331
 3364ntf    on517517   1.308   5.043   1.346  0.1899 -0.1532  0.3983
 3364ntf    fn417518   1.133   4.804   1.391 -0.3372 -0.8519  0.1120
 3364ntf    fn417519   1.302   4.695   1.478  0.0340  0.0022  0.1973
 3364ntf    fn417520   1.218   4.869   1.578 -0.1771 -0.1128  0.0538
 3365ntf    cn117521   0.325   6.044   5.064 -0.0303  0.1377  0.1505
 3365ntf    sn217522   0.305   5.864   5.077  0.0303  0.1232  0.0470
 3365ntf    nn317523   0.205   5.861   5.198 -0.1363 -0.4038 -0.0985
 3365ntf    sn217524   0.216   5.819   5.348  0.4737  0.1206  0.0072
 3365ntf    cn117525   0.219   5.984   5.426 -0.4898  0.1911 -0.0906
 3365ntf    fn417526   0.410   6.073   4.967 -0.6400  0.2133 -0.3615
 3365ntf    fn417527   0.209   6.095   5.028 -0.1044 -0.0051  0.1859
 3365ntf    fn417528   0.349   6.106   5.179 -0.4328  0.1100  0.2500
 3365ntf    on517529   0.235   5.826   4.957 -0.1551 -0.2139  0.2591
 3365ntf    on517530   0.432   5.804   5.109 -0.0885 -0.4024 -0.4452
 3365ntf    on517531   0.340   5.760   5.393  0.4816 -0.2384 -0.4838
 3365ntf    on517532   0.091   5.772   5.402  0.4875  0.3526  0.2461
 3365ntf    fn417533   0.332   6.053   5.419 -0.3408 -0.0468 -0.0484
 3365ntf    fn417534   0.122   6.060   5.378 -0.5800  0.4008  0.4200
 3365ntf    fn417535   0.197   5.974   5.556 -0.0862  0.1587 -0.0248
 3366ntf    cn117536   0.043   7.019   6.348 -0.7712  0.3213 -0.2883
 3366ntf    sn217537   0.096   7.147   6.467 -0.1565  0.0168 -0.2319
 3366ntf    nn317538   0.197   7.230   6.381 -0.2275 -0.1894 -0.5172
 3366ntf    sn217539   0.259   7.369   6.419 -0.2693 -0.2560 -0.2053
 3366ntf    cn117540   0.174   7.468   6.293 -0.5241 -0.5348 -0.2527
 3366ntf    fn417541  -0.050   7.066   6.266 -0.7452  0.0702 -0.4612
 3366ntf    fn417542   0.151   6.983   6.282 -0.9079 -0.0761 -0.2992
 3366ntf    fn417543  -0.019   6.915   6.402 -0.1073 -0.0066 -0.1562
 3366ntf    on517544  -0.030   7.213   6.492 -0.3125 -0.3459 -0.0502
 3366ntf    on517545   0.164   7.072   6.569 -0.5362 -0.0881 -0.0507
 3366ntf    on517546   0.399   7.383   6.384 -0.3001 -0.3092 -0.3492
 3366ntf    on517547   0.219   7.436   6.540  0.0589  0.1651 -0.3271
 3366ntf    fn417548   0.173   7.415   6.172 -0.4106 -0.3787 -0.3217
 3366ntf    fn417549   0.046   7.486   6.321 -0.3195 -0.2401  0.5115
 3366ntf    fn417550   0.229   7.587   6.275 -0.5219 -0.5178 -0.1359
 3367ntf    cn117551   2.011   2.693   5.689  0.0305 -0.3746  0.6268
 3367ntf    sn217552   2.144   2.599   5.608 -0.3149 -0.3397  0.0146
 3367ntf    nn317553   2.153   2.683   5.476 -0.0333 -0.0807  0.1985
 3367ntf    sn217554   2.086   2.648   5.338  0.0677  0.0375  0.1193
 3367ntf    cn117555   2.218   2.548   5.264  0.2706  0.2061  0.2517
 3367ntf    fn417556   1.977   2.630   5.801 -0.5914 -0.9207  0.1359
 3367ntf    fn417557   2.066   2.805   5.732 -0.2818 -0.2321  0.6562
 3367ntf    fn417558   1.904   2.726   5.619  0.4161 -0.3566  0.0464
 3367ntf    on517559   2.251   2.627   5.701 -0.5303 -0.2701  0.2427
 3367ntf    on517560   2.104   2.461   5.593 -0.0162 -0.3817 -0.4163
 3367ntf    on517561   2.070   2.762   5.252  0.2136  0.1753  0.2713
 3367ntf    on517562   1.975   2.556   5.343  0.2592 -0.2118 -0.1460
 3367ntf    fn417563   2.253   2.439   5.330 -0.4006 -0.4538 -0.4630
 3367ntf    fn417564   2.190   2.501   5.143  0.1749 -0.4736  0.5346
 3367ntf    fn417565   2.329   2.618   5.244  0.1385  0.3433 -0.0012
 3368ntf    cn117566   4.473   3.751   2.037 -0.3483  0.1966 -0.4322
 3368ntf    sn217567   4.627   3.788   2.127 -0.4057 -0.2156 -0.1611
 3368ntf    nn317568   4.591   3.914   2.213  0.7683  0.3673 -0.5050
 3368ntf    sn217569   4.673   3.973   2.333  0.0798 -0.1541  0.2278
 3368ntf    cn117570   4.714   4.120   2.236  0.4294 -0.3487  0.0777
 3368ntf    fn417571   4.484   3.630   1.985  0.7299  0.2213 -0.2826
 3368ntf    fn417572   4.366   3.747   2.115 -0.0436 -0.3150 -0.0298
 3368ntf    fn417573   4.448   3.838   1.941 -0.1213  0.1300 -0.5522
 3368ntf    on517574   4.647   3.665   2.199  0.4316 -0.2827 -0.4902
 3368ntf    on517575   4.722   3.813   2.021 -0.7404  0.2829 -0.3471
 3368ntf    on517576   4.798   3.911   2.370  0.0227 -0.2854  0.2058
 3368ntf    on517577   4.584   4.014   2.439  0.1188  0.1367  0.1455
 3368ntf    fn417578   4.787   4.208   2.302 -0.0320  0.1686 -0.0917
 3368ntf    fn417579   4.769   4.095   2.118  0.6340  0.1693  0.0585
 3368ntf    fn417580   4.598   4.181   2.220  0.7640  0.2318 -0.1987
 3369ntf    cn117581   0.419   4.099   1.099  0.7772 -0.3313 -0.1257
 3369ntf    sn217582   0.391   4.084   0.920  0.0013 -0.2883 -0.0098
 3369ntf    nn317583   0.523   4.150   0.866 -0.1966 -0.3060 -0.5267
 3369ntf    sn217584   0.663   4.086   0.839 -0.0225 -0.0457 -0.2465
 3369ntf    cn117585   0.763   4.196   0.945 -0.0959 -0.2987  0.0857
 3369ntf    fn417586   0.309   4.065   1.165  0.6034  0.1083 -0.1864
 3369ntf    fn417587   0.514   4.017   1.141  0.7848 -0.0567  0.4018
 3369ntf    fn417588   0.450   4.221   1.137 -0.1864 -0.0619 -0.1822
 3369ntf    on517589   0.385   3.941   0.906  0.2591 -0.2524 -0.5096
 3369ntf    on517590   0.266   4.154   0.901  0.4883  0.5705 -0.0721
 3369ntf    on517591   0.714   4.118   0.708  0.8310  0.1327  0.1180
 3369ntf    on517592   0.688   3.953   0.889  0.1830  0.2529  0.4548
 3369ntf    fn417593   0.892   4.167   0.945  0.0460  0.3324  0.5431
 3369ntf    fn417594   0.753   4.323   0.910  0.5227 -0.2988 -0.0940
 3369ntf    fn417595   0.715   4.186   1.068 -0.3608 -0.1865 -0.0063
 3370ntf    cn117596   2.433   0.761   4.868 -0.1040  0.3727 -0.2174
 3370ntf    sn217597   2.398   0.615   4.970  0.0068  0.3813 -0.1678
 3370ntf    nn317598   2.275   0.651   5.060  0.5758 -0.7813  1.1213
 3370ntf    sn217599   2.255   0.773   5.157  0.2552 -0.0290  0.1291
 3370ntf    cn117600   2.119   0.868   5.084  0.1997 -0.3676 -0.2145
 3370ntf    fn417601   2.321   0.789   4.802 -0.1266 -0.4857 -0.5529
 3370ntf    fn417602   2.455   0.861   4.952  0.5408  0.1401 -0.1077
 3370ntf    fn417603   2.531   0.758   4.779  0.1482  0.8617  0.0394
 3370ntf    on517604   2.364   0.516   4.871 -0.2437 -0.3139  0.6096
 3370ntf    on517605   2.516   0.593   5.051 -0.1315 -0.1949 -0.1194
 3370ntf    on517606   2.357   0.871   5.182  0.2791 -0.0211  0.0046
 3370ntf    on517607   2.196   0.724   5.279 -0.6598 -0.0674 -0.3218
 3370ntf    fn417608   2.001   0.808   5.095 -0.0228  0.1298  0.1663
 3370ntf    fn417609   2.096   0.982   5.147 -0.1956 -0.4431 -0.2190
 3370ntf    fn417610   2.136   0.892   4.955  0.3104  0.1194 -0.1127
 3371ntf    cn117611   4.528   5.788   1.604  0.1441  0.1136  0.2800
 3371ntf    sn217612   4.506   5.865   1.767  0.1848  0.2598  0.2164
 3371ntf    nn317613   4.569   5.764   1.869 -0.4365 -0.1457  0.2021
 3371ntf    sn217614   4.516   5.624   1.917  0.0564 -0.4688 -0.1893
 3371ntf    cn117615   4.510   5.644   2.098 -0.0236  0.0578 -0.2484
 3371ntf    fn417616   4.654   5.765   1.570  0.1718  0.2484  0.2947
 3371ntf    fn417617   4.462   5.675   1.586 -0.4395  0.3748  0.7562
 3371ntf    fn417618   4.486   5.867   1.507 -0.3444 -0.0648  0.3405
 3371ntf    on517619   4.587   5.984   1.767  0.1279  0.3017  0.5805
 3371ntf    on517620   4.365   5.889   1.790  0.1274  0.0327  0.1101
 3371ntf    on517621   4.618   5.522   1.908  0.4646 -0.1495  0.6880
 3371ntf    on517622   4.386   5.582   1.869 -0.2888  0.0834  0.2544
 3371ntf    fn417623   4.633   5.650   2.145 -0.0135  0.0991 -0.2827
 3371ntf    fn417624   4.451   5.757   2.134  0.3755  0.1528  0.1075
 3371ntf    fn417625   4.443   5.551   2.164  0.2821 -0.0505 -0.0908
 3372ntf    cn117626   5.285   2.838   3.891 -0.2885  0.0365  0.1935
 3372ntf    sn217627   5.167   2.713   3.833  0.0422  0.0731 -0.5726
 3372ntf    nn317628   5.124   2.784   3.699  0.0491  0.0139 -0.6060
 3372ntf    sn217629   4.979   2.834   3.666 -0.1780 -0.1895  0.0633
 3372ntf    cn117630   4.938   2.705   3.545 -0.1311  0.5605 -0.7632
 3372ntf    fn417631   5.221   2.953   3.905  0.0228  0.2991 -0.4587
 3372ntf    fn417632   5.343   2.817   4.008  0.4247  0.8079 -0.0057
 3372ntf    fn417633   5.380   2.853   3.799 -0.4795  0.3708  0.0486
 3372ntf    on517634   5.250   2.596   3.813 -0.4946 -0.3570 -0.3068
 3372ntf    on517635   5.064   2.710   3.934 -0.5336 -0.4574 -1.1651
 3372ntf    on517636   4.990   2.955   3.588 -0.1170 -0.3554 -0.1848
 3372ntf    on517637   4.876   2.836   3.766  0.3321  0.5619  0.5818
 3372ntf    fn417638   4.823   2.738   3.488 -0.7027  0.2620  0.1991
 3372ntf    fn417639   5.027   2.693   3.448  0.4226  0.2224 -0.2161
 3372ntf    fn417640   4.918   2.589   3.606 -0.5369  0.8466 -0.3458
 3373ntf    cn117641   6.854   1.318   1.072  0.5402  0.0833  0.1506
 3373ntf    sn217642   6.876   1.153   0.998 -0.2231  0.0578 -0.0287
 3373ntf    nn317643   6.728   1.130   0.951 -0.1268 -0.1994 -0.2033
 3373ntf    sn217644   6.630   1.011   0.982  0.1488 -0.3110  0.2510
 3373ntf    cn117645   6.715   0.881   0.888  0.1787  0.0587 -0.2375
 3373ntf    fn417646   6.759   1.317   1.165 -0.0052  0.0949 -0.4031
 3373ntf    fn417647   6.969   1.363   1.119  0.4561  0.0444  0.3963
 3373ntf    fn417648   6.809   1.394   0.974 -0.4537 -0.1848  0.3810
 3373ntf    on517649   6.968   1.174   0.890 -0.3432  0.0484 -0.1335
 3373ntf    on517650   6.928   1.071   1.104 -0.2538  0.3228  0.1940
 3373ntf    on517651   6.508   1.026   0.905 -0.0051 -0.5291  0.4522
 3373ntf    on517652   6.629   0.978   1.122  0.2769  0.0958  0.3505
 3373ntf    fn417653   6.739   0.943   0.773  0.2791  0.4952  0.0193
 3373ntf    fn417654   6.829   0.837   0.939 -0.1260 -0.2350  0.1979
 3373ntf    fn417655   6.642   0.773   0.868  0.0640  0.1987 -0.5961
 3374ntf    cn117656   1.980   1.852   0.678  0.4631 -0.2914 -0.3283
 3374ntf    sn217657   1.854   1.819   0.550 -0.2317  0.3549  0.1777
 3374ntf    nn317658   1.782   1.958   0.553 -0.5888  0.1814 -0.2517
 3374ntf    sn217659   1.799   2.084   0.460 -0.1903  0.1525 -0.2204
 3374ntf    cn117660   1.688   2.034   0.325 -0.0963  0.2601 -0.3385
 3374ntf    fn417661   2.078   1.926   0.630 -0.0371  0.1517 -0.6918
 3374ntf    fn417662   1.939   1.905   0.792  0.0348 -0.9052 -0.1909
 3374ntf    fn417663   2.028   1.733   0.708  0.1364 -0.3374  0.0201
 3374ntf    on517664   1.925   1.782   0.430 -0.5624 -0.2329  0.1615
 3374ntf    on517665   1.770   1.717   0.608  0.2036  0.0145  0.2224
 3374ntf    on517666   1.931   2.101   0.405 -0.0212  0.1209  0.1766
 3374ntf    on517667   1.734   2.201   0.514  0.5854  0.8346 -0.7311
 3374ntf    fn417668   1.753   1.973   0.228  0.0095 -0.4230  0.1559
 3374ntf    fn417669   1.608   1.937   0.367  0.0319  0.1994 -0.2326
 3374ntf    fn417670   1.611   2.127   0.272 -0.2598  0.6416  0.5459
 3375ntf    cn117671   1.723   6.754   6.078 -0.2038  0.1657 -0.1789
 3375ntf    sn217672   1.580   6.865   6.101 -0.2274  0.1250 -0.1284
 3375ntf    nn317673   1.595   6.965   5.981  0.3049 -0.1884 -0.3280
 3375ntf    sn217674   1.590   6.950   5.825  0.4176 -0.3038 -0.3199
 3375ntf    cn117675   1.412   6.953   5.790  0.2971 -0.4840  0.2594
 3375ntf    fn417676   1.836   6.812   6.042 -0.0664  0.0734  0.0976
 3375ntf    fn417677   1.760   6.692   6.189  0.0578  0.4529 -0.1046
 3375ntf    fn417678   1.712   6.658   5.988  0.0159  0.4412 -0.5008
 3375ntf    on517679   1.467   6.775   6.110  0.0012 -0.1144  0.4029
 3375ntf    on517680   1.610   6.924   6.229 -0.6026 -0.3618  0.1884
 3375ntf    on517681   1.620   6.822   5.766 -0.0976 -0.6363  0.1287
 3375ntf    on517682   1.643   7.070   5.763 -0.3890 -0.2873 -0.9928
 3375ntf    fn417683   1.351   7.038   5.871 -0.2050 -0.2780 -0.3258
 3375ntf    fn417684   1.373   6.979   5.666  0.4039 -0.7697  0.1643
 3375ntf    fn417685   1.360   6.835   5.820  0.2775 -0.5621 -0.0724
 3376ntf    cn117686   5.991   7.073   5.434 -0.1366 -0.3426  0.5918
 3376ntf    sn217687   5.963   7.220   5.330 -0.0243 -0.4229  0.4452
 3376ntf    nn317688   5.832   7.280   5.393 -0.3622 -0.8848  0.1928
 3376ntf    sn217689   5.690   7.299   5.330 -0.1533  0.5130  0.1151
 3376ntf    cn117690   5.587   7.337   5.476 -0.1117  0.3322  0.1915
 3376ntf    fn417691   6.005   7.086   5.564 -0.3160 -0.4555  0.6209
 3376ntf    fn417692   5.908   6.975   5.404 -0.0617 -0.3319  0.3467
 3376ntf    fn417693   6.113   7.028   5.405 -0.0882  0.0148  0.2227
 3376ntf    on517694   6.067   7.317   5.353 -0.1783 -0.0758 -0.3170
 3376ntf    on517695   5.955   7.167   5.196 -0.1155  0.3809  0.1254
 3376ntf    on517696   5.635   7.179   5.272 -0.1091  0.3571  0.3908
 3376ntf    on517697   5.687   7.421   5.254 -0.6879  0.4444  0.0228
 3376ntf    fn417698   5.461   7.365   5.446 -0.0082  0.2265 -0.3648
 3376ntf    fn417699   5.604   7.245   5.569  0.1219  0.2664  0.0845
 3376ntf    fn417700   5.627   7.445   5.540  0.8176  0.0850  0.0367
 3377ntf    cn117701   4.038   5.318   6.333  0.2630  1.0182 -0.3128
 3377ntf    sn217702   4.136   5.317   6.486 -0.2945 -0.0838  0.0495
 3377ntf    nn317703   4.132   5.162   6.510 -0.6718 -0.1713 -0.5493
 3377ntf    sn217704   4.103   5.079   6.640 -0.3544  0.2732 -0.1900
 3377ntf    cn117705   4.265   5.040   6.714 -0.3975 -0.1035 -0.2919
 3377ntf    fn417706   3.921   5.257   6.346  0.6792  0.3922  0.5914
 3377ntf    fn417707   4.008   5.441   6.293  0.4632  1.0833 -0.2631
 3377ntf    fn417708   4.091   5.258   6.227  0.4105  0.4194  0.0957
 3377ntf    on517709   4.265   5.362   6.440 -0.1545 -0.2171  0.3150
 3377ntf    on517710   4.063   5.409   6.569  0.1685  0.1457  0.2038
 3377ntf    on517711   4.060   4.946   6.603  0.6089  0.0100 -0.3996
 3377ntf    on517712   4.037   5.141   6.752  0.3374  0.5190  0.0859
 3377ntf    fn417713   4.303   5.146   6.783  0.2292 -0.1379 -0.5800
 3377ntf    fn417714   4.267   4.944   6.806  0.4584  0.3049  0.1164
 3377ntf    fn417715   4.364   5.008   6.633  0.0679  0.0753  0.2045
 3378ntf    cn117716   2.365   3.127   4.461 -0.2498  0.1916  0.1051
 3378ntf    sn217717   2.267   2.983   4.407  0.0307  0.0603 -0.0541
 3378ntf    nn317718   2.265   2.990   4.250  0.1909 -0.2489 -0.0713
 3378ntf    sn217719   2.368   2.938   4.143 -0.2337 -0.6024 -0.3062
 3378ntf    cn117720   2.424   3.101   4.086 -0.4314 -0.4507 -0.0693
 3378ntf    fn417721   2.487   3.131   4.410 -0.2028 -0.5870  0.1534
 3378ntf    fn417722   2.313   3.241   4.418  0.2568  0.3690 -0.0431
 3378ntf    fn417723   2.371   3.127   4.593  0.0704 -0.0094  0.0919
 3378ntf    on517724   2.338   2.870   4.461  0.2609  0.0465 -0.3822
 3378ntf    on517725   2.141   3.010   4.471 -0.3385 -0.0616 -0.7245
 3378ntf    on517726   2.308   2.856   4.040  0.1200 -0.4179 -0.6581
 3378ntf    on517727   2.488   2.881   4.198 -0.2798 -0.1036  0.3290
 3378ntf    fn417728   2.345   3.160   3.999  0.1221 -0.0182 -0.2845
 3378ntf    fn417729   2.439   3.183   4.190 -0.2349 -0.2298 -0.2721
 3378ntf    fn417730   2.544   3.096   4.030  0.1613  0.2492  1.0904
 3379ntf    cn117731   7.140   2.895   4.156  0.0482 -0.2100  0.1673
 3379ntf    sn217732   6.977   2.829   4.111  0.0351 -0.0038 -0.0880
 3379ntf    nn317733   6.949   2.732   4.231  0.1325  0.3182  0.1930
 3379ntf    sn217734   6.869   2.766   4.362 -0.0338 -0.1811  0.2235
 3379ntf    cn117735   6.944   2.642   4.471  0.3638 -0.2071 -0.0792
 3379ntf    fn417736   7.232   2.801   4.172  0.1648 -0.1523 -0.1685
 3379ntf    fn417737   7.194   2.968   4.060 -0.1683 -0.4141 -0.1117
 3379ntf    fn417738   7.144   2.964   4.269  0.2629  0.1747 -0.0761
 3379ntf    on517739   6.895   2.947   4.092 -0.2248 -0.1451  0.1458
 3379ntf    on517740   6.999   2.753   3.990  0.3111 -0.2190  0.0985
 3379ntf    on517741   6.731   2.725   4.357  0.0786 -0.4526 -0.8800
 3379ntf    on517742   6.893   2.895   4.424  0.0946 -0.0008 -0.1990
 3379ntf    fn417743   6.880   2.637   4.587  0.3950  0.5812 -0.0251
 3379ntf    fn417744   6.951   2.520   4.419 -0.7399 -0.2105 -0.2344
 3379ntf    fn417745   7.067   2.672   4.509  0.1070  0.4970  0.2125
 3380ntf    cn117746   6.929   3.694   4.937 -0.2600  0.3751 -0.0087
 3380ntf    sn217747   6.768   3.642   5.003 -0.1470 -0.2637 -0.2251
 3380ntf    nn317748   6.670   3.728   4.917  0.4592  0.5704 -0.0983
 3380ntf    sn217749   6.593   3.859   4.958 -0.2570  0.0796  0.1439
 3380ntf    cn117750   6.449   3.793   5.048 -0.2872 -0.3139 -0.1911
 3380ntf    fn417751   6.960   3.813   4.985 -0.8702  0.2335  0.7505
 3380ntf    fn417752   7.035   3.622   4.970 -0.5409  0.0809  0.2564
 3380ntf    fn417753   6.925   3.696   4.805  0.8853  0.5464 -0.0535
 3380ntf    on517754   6.757   3.502   4.973  0.0182 -0.3105 -0.0717
 3380ntf    on517755   6.787   3.680   5.141 -0.6922  0.5745 -0.3728
 3380ntf    on517756   6.534   3.923   4.844 -0.3301 -0.3305 -0.0504
 3380ntf    on517757   6.652   3.940   5.062 -0.4121 -0.0465  0.3327
 3380ntf    fn417758   6.374   3.882   5.111  0.0438 -0.3520  0.2558
 3380ntf    fn417759   6.365   3.725   4.971 -0.3613 -0.7919  0.3139
 3380ntf    fn417760   6.489   3.715   5.146 -0.6265 -0.0228  0.1824
 3381ntf    cn117761   0.956   1.491   1.101  0.2651 -0.1774 -0.2268
 3381ntf    sn217762   1.123   1.474   1.170  0.1328 -0.2921  0.0645
 3381ntf    nn317763   1.176   1.350   1.089 -0.3182 -0.1713 -0.4215
 3381ntf    sn217764   1.162   1.197   1.125  0.2532 -0.1624 -0.1426
 3381ntf    cn117765   1.294   1.170   1.247  0.0135 -0.1826  0.1140
 3381ntf    fn417766   0.944   1.540   0.979  0.0369  0.0530 -0.1122
 3381ntf    fn417767   0.894   1.375   1.093  0.2151 -0.1449 -0.3083
 3381ntf    fn417768   0.882   1.576   1.170  0.1809 -0.3267 -0.1349
 3381ntf    on517769   1.186   1.596   1.128 -0.4193  0.3135  0.9771
 3381ntf    on517770   1.088   1.451   1.308 -0.5108  0.5951  0.0533
 3381ntf    on517771   1.197   1.104   1.021 -0.1955  0.3048 -0.7194
 3381ntf    on517772   1.038   1.167   1.191  0.1018 -0.2413 -0.4608
 3381ntf    fn417773   1.306   1.039   1.263 -0.1720 -0.1814  0.2537
 3381ntf    fn417774   1.412   1.200   1.193 -0.2503  0.3586 -0.1774
 3381ntf    fn417775   1.291   1.219   1.370  0.2126 -0.0062  0.0505
 3382ntf    cn117776   6.450   3.009   0.233 -0.0484 -0.2904  0.1830
 3382ntf    sn217777   6.417   3.161   0.326  0.1737 -0.1062 -0.0404
 3382ntf    nn317778   6.448   3.123   0.475  0.0918 -0.2915 -0.0713
 3382ntf    sn217779   6.358   3.129   0.604  0.1379 -0.1156 -0.0481
 3382ntf    cn117780   6.376   3.309   0.629  0.2419 -0.0954 -0.2675
 3382ntf    fn417781   6.448   3.030   0.102  0.7786 -0.3774  0.1544
 3382ntf    fn417782   6.561   2.948   0.271 -0.1005 -0.0949  0.6504
 3382ntf    fn417783   6.351   2.922   0.253 -0.1709 -0.2093 -0.0708
 3382ntf    on517784   6.518   3.256   0.284  0.3517 -0.2118  0.1459
 3382ntf    on517785   6.278   3.188   0.298  0.1647 -0.1087  0.0028
 3382ntf    on517786   6.422   3.073   0.720  0.1112 -0.0851 -0.0188
 3382ntf    on517787   6.216   3.109   0.590  0.0615  0.1510  0.3301
 3382ntf    fn417788   6.502   3.347   0.610  0.0354  0.6977 -0.0541
 3382ntf    fn417789   6.299   3.381   0.550  0.2878  0.6444  0.3495
 3382ntf    fn417790   6.346   3.358   0.748  0.0677  0.0713 -0.3817
 3383ntf    cn117791   0.126   2.197   4.586  0.4079 -0.1952 -0.0229
 3383ntf    sn217792   0.166   2.327   4.707 -0.2528 -0.0239  0.0196
 3383ntf    nn317793   0.319   2.290   4.719 -0.1678  0.3742  0.1523
 3383ntf    sn217794   0.387   2.218   4.840 -0.0018  0.1407 -0.0806
 3383ntf    cn117795   0.556   2.286   4.836  0.1775 -0.3209 -0.5513
 3383ntf    fn417796   0.156   2.240   4.465  0.1206  0.1563  0.0283
 3383ntf    fn417797   0.198   2.089   4.611 -0.1778 -0.6575 -0.2908
 3383ntf    fn417798  -0.001   2.160   4.578  0.3848 -0.1761  0.2309
 3383ntf    on517799   0.139   2.454   4.645 -0.1391  0.2442  0.5215
 3383ntf    on517800   0.084   2.284   4.817  0.4263 -0.4296  0.3767
 3383ntf    on517801   0.403   2.079   4.803 -0.4460  0.0616  0.0220
 3383ntf    on517802   0.354   2.260   4.974  0.1992 -0.0441  0.0278
 3383ntf    fn417803   0.632   2.240   4.933  0.3013  0.7184 -0.1361
 3383ntf    fn417804   0.616   2.265   4.720  0.7329  0.4600 -0.4104
 3383ntf    fn417805   0.554   2.418   4.849 -0.4271 -0.3380 -0.4397
 3384ntf    cn117806   1.027   4.490   3.391  0.0980  0.0493  0.2980
 3384ntf    sn217807   0.882   4.391   3.439 -0.1101  0.1988 -0.0198
 3384ntf    nn317808   0.912   4.263   3.353 -0.4950 -0.0619  0.2350
 3384ntf    sn217809   0.931   4.111   3.389  0.0978 -0.0068  0.1577
 3384ntf    cn117810   1.051   4.064   3.261 -0.1664 -0.2252 -0.0095
 3384ntf    fn417811   1.141   4.423   3.393  0.1699  0.1657  0.1099
 3384ntf    fn417812   1.010   4.537   3.269  0.2715  0.3189  0.3751
 3384ntf    fn417813   1.054   4.598   3.463 -0.2248  0.4217 -0.1330
 3384ntf    on517814   0.895   4.384   3.582 -0.2682 -0.7083 -0.0456
 3384ntf    on517815   0.775   4.469   3.382 -0.2363 -0.2349 -0.3872
 3384ntf    on517816   0.820   4.024   3.359  0.1597 -0.0394  0.0227
 3384ntf    on517817   1.000   4.092   3.515  0.5981  0.1975 -0.0807
 3384ntf    fn417818   1.063   3.934   3.238 -0.1857 -0.2429  0.0801
 3384ntf    fn417819   1.029   4.125   3.146  0.0331 -0.2925 -0.0838
 3384ntf    fn417820   1.171   4.105   3.300 -0.4256  0.3509  0.1960
 3385ntf    cn117821   5.241   3.055   6.181  0.1963  0.2944 -0.1369
 3385ntf    sn217822   5.282   2.961   6.031 -0.0769  0.0777 -0.0756
 3385ntf    nn317823   5.386   3.062   5.972  0.1541 -0.0331  0.1401
 3385ntf    sn217824   5.395   3.115   5.825 -0.1005 -0.1454  0.0829
 3385ntf    cn117825   5.526   3.007   5.758 -0.4329 -0.7283  0.3699
 3385ntf    fn417826   5.182   2.989   6.279  0.0488  0.0718 -0.3771
 3385ntf    fn417827   5.354   3.102   6.233  0.3948 -0.1420 -0.1691
 3385ntf    fn417828   5.162   3.158   6.155 -0.1053  0.1233  0.1005
 3385ntf    on517829   5.343   2.846   6.092  0.0771  0.3901  0.3689
 3385ntf    on517830   5.155   2.948   5.963 -0.0464  0.2673 -0.1695
 3385ntf    on517831   5.457   3.245   5.816 -0.5288  0.0741  0.2852
 3385ntf    on517832   5.283   3.091   5.738  0.0815  0.4684 -0.3298
 3385ntf    fn417833   5.651   3.045   5.778 -0.5273 -0.2937  0.1479
 3385ntf    fn417834   5.523   2.885   5.809  0.4356 -0.7813  0.3101
 3385ntf    fn417835   5.514   2.982   5.629 -0.2810 -0.2548  0.2640
 3386ntf    cn117836   6.077   5.965   5.963  0.5315 -0.1542  0.0943
 3386ntf    sn217837   6.240   5.891   5.989  0.4512 -0.2877  0.2212
 3386ntf    nn317838   6.210   5.776   6.092  0.0351  0.1125  0.5507
 3386ntf    sn217839   6.200   5.624   6.057 -0.1598  0.1899  0.2775
 3386ntf    cn117840   6.353   5.552   6.123  0.0560  0.6514  0.2864
 3386ntf    fn417841   6.085   6.088   5.913 -0.2242 -0.4883 -0.8952
 3386ntf    fn417842   6.003   5.889   5.883  0.2195  0.1541  0.0852
 3386ntf    fn417843   6.007   5.973   6.075 -0.0955 -0.8693 -0.2384
 3386ntf    on517844   6.286   5.849   5.859 -0.1307 -0.1747 -0.0232
 3386ntf    on517845   6.304   6.002   6.055  0.1228 -0.0184  0.0858
 3386ntf    on517846   6.206   5.586   5.918  0.8491  0.0756  0.3489
 3386ntf    on517847   6.100   5.557   6.136 -0.0091 -0.7561 -0.3165
 3386ntf    fn417848   6.377   5.425   6.094  0.4028  0.8077 -0.1076
 3386ntf    fn417849   6.458   5.618   6.078  0.1345  0.3482  0.0170
 3386ntf    fn417850   6.353   5.574   6.254 -0.4912  0.4104  0.3339
 3387ntf    cn117851   2.633   1.227   5.432 -0.0160 -0.1945  0.1772
 3387ntf    sn217852   2.687   1.401   5.426  0.0680 -0.2390 -0.4175
 3387ntf    nn317853   2.584   1.447   5.317  0.3003  0.5785 -0.3003
 3387ntf    sn217854   2.472   1.556   5.323 -0.1267  0.1451 -0.2794
 3387ntf    cn117855   2.322   1.470   5.379  0.0580  0.0947  0.1436
 3387ntf    fn417856   2.503   1.208   5.419  0.0012  0.0202 -0.3413
 3387ntf    fn417857   2.685   1.168   5.326 -0.4851 -0.0753 -0.1174
 3387ntf    fn417858   2.675   1.155   5.535 -0.2631 -0.5977 -0.0014
 3387ntf    on517859   2.678   1.441   5.564 -0.0048  0.6592 -0.6791
 3387ntf    on517860   2.816   1.382   5.365  0.0194  0.0073 -0.5969
 3387ntf    on517861   2.420   1.602   5.197  0.1130  0.2002 -0.3593
 3387ntf    on517862   2.492   1.644   5.435 -0.2551 -0.3326  0.1209
 3387ntf    fn417863   2.339   1.410   5.495  0.0253 -0.4623 -0.1349
 3387ntf    fn417864   2.223   1.556   5.397 -0.0950  0.0238 -0.3398
 3387ntf    fn417865   2.286   1.379   5.290  0.1290  0.0989  0.1108
 3388ntf    cn117866   2.273   4.325   3.342  0.1995 -0.0936  0.1198
 3388ntf    sn217867   2.320   4.500   3.334  0.1931 -0.0848  0.2914
 3388ntf    nn317868   2.322   4.547   3.484 -0.8001 -0.2687  0.3727
 3388ntf    sn217869   2.440   4.545   3.589 -0.2987 -0.1836 -0.1836
 3388ntf    cn117870   2.350   4.522   3.745 -0.4547  0.3529 -0.1908
 3388ntf    fn417871   2.342   4.260   3.433  0.5796  0.1488  0.0068
 3388ntf    fn417872   2.142   4.312   3.358  0.1669 -0.1902 -0.2109
 3388ntf    fn417873   2.297   4.258   3.230  0.1741 -0.0821  0.1079
 3388ntf    on517874   2.448   4.490   3.269 -0.0175 -0.1165 -0.1179
 3388ntf    on517875   2.209   4.559   3.262  0.3214 -0.1080  0.0754
 3388ntf    on517876   2.485   4.682   3.593  0.2979 -0.4020  0.6779
 3388ntf    on517877   2.535   4.437   3.586 -0.4418 -0.3123 -0.1078
 3388ntf    fn417878   2.427   4.483   3.846 -0.2115  0.6269 -0.2718
 3388ntf    fn417879   2.283   4.625   3.793 -0.4419  0.4051 -0.2855
 3388ntf    fn417880   2.260   4.426   3.731 -0.0187 -0.0174 -0.5047
 3389ntf    cn117881   3.817   0.934   3.521  0.0646 -0.0450 -0.8344
 3389ntf    sn217882   3.667   1.016   3.457 -0.2950 -0.0644 -0.0369
 3389ntf    nn317883   3.718   1.045   3.311 -0.1514  0.3534  0.0966
 3389ntf    sn217884   3.800   1.163   3.248  0.0848  0.0959 -0.0791
 3389ntf    cn117885   3.901   1.081   3.121 -0.2645  0.0494 -0.3277
 3389ntf    fn417886   3.928   1.006   3.511  0.4154 -0.5643 -0.6953
 3389ntf    fn417887   3.810   0.896   3.648 -0.2561  0.1523 -0.7904
 3389ntf    fn417888   3.843   0.821   3.459  0.5765 -0.0542 -0.6066
 3389ntf    on517889   3.566   0.914   3.471 -0.8035  0.3676 -0.5471
 3389ntf    on517890   3.664   1.129   3.545 -0.3295  0.1032 -0.2522
 3389ntf    on517891   3.901   1.219   3.335 -0.1364  0.0746  0.1917
 3389ntf    on517892   3.715   1.247   3.168 -0.2978 -0.3759 -0.1721
 3389ntf    fn417893   3.978   1.161   3.050  0.2429 -0.5213 -0.4310
 3389ntf    fn417894   3.982   0.988   3.168 -0.2395  0.3085  0.1519
 3389ntf    fn417895   3.830   1.026   3.024 -0.4586 -0.1658 -0.0669
 3390ntf    cn117896   0.422   2.603   2.179 -0.3936  0.2180  0.0773
 3390ntf    sn217897   0.423   2.599   2.360  0.2292  0.1353  0.0758
 3390ntf    nn317898   0.312   2.496   2.400 -0.4463  0.6977 -0.3224
 3390ntf    sn217899   0.202   2.491   2.512 -0.3176  0.3789 -0.2090
 3390ntf    cn117900   0.061   2.561   2.421 -0.3624  0.2844 -0.2129
 3390ntf    fn417901   0.410   2.481   2.129  0.2800  0.2212 -0.1031
 3390ntf    fn417902   0.322   2.669   2.123 -0.8158 -0.4112  0.0781
 3390ntf    fn417903   0.533   2.657   2.130 -0.7081  0.0106 -0.8831
 3390ntf    on517904   0.549   2.532   2.378  0.2062 -0.0134 -0.3197
 3390ntf    on517905   0.403   2.735   2.407  0.8116  0.0576  0.5657
 3390ntf    on517906   0.219   2.573   2.629 -0.4161 -0.5618  0.4816
 3390ntf    on517907   0.151   2.357   2.530 -0.5202  0.4888  0.0348
 3390ntf    fn417908  -0.049   2.561   2.495 -0.1194  0.2676  0.1517
 3390ntf    fn417909   0.087   2.688   2.395 -0.1870  0.2141 -0.3814
 3390ntf    fn417910   0.027   2.505   2.306  0.5207 -0.0049 -0.3435
 3391ntf    cn117911   3.514   6.766   4.085  0.3763 -0.3377  0.0674
 3391ntf    sn217912   3.373   6.696   3.993  0.2023  0.2198 -0.0956
 3391ntf    nn317913   3.387   6.765   3.853  0.7999 -0.1959 -0.2417
 3391ntf    sn217914   3.320   6.898   3.805  0.5741 -0.1822  0.1145
 3391ntf    cn117915   3.152   6.854   3.750  0.7486  0.0759 -0.6224
 3391ntf    fn417916   3.530   6.897   4.069 -0.3425 -0.1993  0.4542
 3391ntf    fn417917   3.513   6.733   4.213 -0.0249  0.1727  0.1989
 3391ntf    fn417918   3.625   6.714   4.036  0.3948 -0.3757  0.1503
 3391ntf    on517919   3.402   6.556   3.974  0.1745  0.3273 -0.9643
 3391ntf    on517920   3.265   6.724   4.085  0.2695 -0.0569  0.0690
 3391ntf    on517921   3.389   6.957   3.694  0.0884  0.1289 -0.0271
 3391ntf    on517922   3.302   6.986   3.918  0.0609  0.5677 -0.5425
 3391ntf    fn417923   3.081   6.965   3.741 -0.1290 -0.4506 -0.2561
 3391ntf    fn417924   3.140   6.797   3.631 -0.0546 -0.4143 -0.3120
 3391ntf    fn417925   3.089   6.778   3.837  0.5725  0.8956 -0.0234
 3392ntf    cn117926   3.993   6.297   2.899  0.4671 -0.1341 -0.0766
 3392ntf    sn217927   3.934   6.466   2.869 -0.1898 -0.3967 -0.2877
 3392ntf    nn317928   3.826   6.473   2.983  0.2740 -0.2506  0.1444
 3392ntf    sn217929   3.831   6.504   3.136 -0.0600  0.1555  0.0754
 3392ntf    cn117930   3.773   6.676   3.146  0.1265  0.2250 -0.0582
 3392ntf    fn417931   4.078   6.251   2.808  0.3754 -0.0420 -0.2080
 3392ntf    fn417932   4.065   6.296   3.009  0.0974 -0.0801  0.1668
 3392ntf    fn417933   3.893   6.213   2.923  0.1253  0.1202 -0.5790
 3392ntf    on517934   4.045   6.557   2.886 -0.4377 -0.1195 -0.1472
 3392ntf    on517935   3.869   6.470   2.740 -0.2059  0.0658 -0.2669
 3392ntf    on517936   3.962   6.514   3.196 -0.4362 -0.5872  1.0567
 3392ntf    on517937   3.736   6.435   3.220 -0.7187  0.0446 -0.7548
 3392ntf    fn417938   3.651   6.696   3.099  0.1986  0.2874 -0.2221
 3392ntf    fn417939   3.771   6.725   3.268  0.3804  0.3474 -0.1011
 3392ntf    fn417940   3.854   6.762   3.085  0.1874  0.0452 -0.2300
 3393ntf    cn117941   6.581   1.835   7.083  0.6122 -0.3173  0.4432
 3393ntf    sn217942   6.463   1.968   7.119  0.6535 -0.0895 -0.2385
 3393ntf    nn317943   6.559   2.078   7.178 -0.0948  0.2242  0.4033
 3393ntf    sn217944   6.552   2.164   7.310  0.1439  0.2368  0.4079
 3393ntf    cn117945   6.648   2.051   7.415  0.2335  0.0791  0.1566
 3393ntf    fn417946   6.505   1.732   7.049  0.4989 -0.0170 -0.2410
 3393ntf    fn417947   6.659   1.854   6.978 -0.1798 -0.1173 -0.1207
 3393ntf    fn417948   6.654   1.803   7.188 -0.0114 -0.2547  0.8961
 3393ntf    on517949   6.416   2.004   6.988 -0.0501  0.5860  0.1927
 3393ntf    on517950   6.369   1.909   7.211  0.2781  0.0269 -0.5480
 3393ntf    on517951   6.423   2.176   7.372 -0.1022 -0.3679  0.0248
 3393ntf    on517952   6.639   2.279   7.308 -0.1959  0.4917  0.1296
 3393ntf    fn417953   6.674   2.101   7.534  0.1085  0.3047  0.0900
 3393ntf    fn417954   6.593   1.932   7.433  0.2376  0.0539  0.0135
 3393ntf    fn417955   6.766   2.022   7.360  0.0887  0.1672 -0.2023
 3394ntf    cn117956   3.572   2.106   3.223 -0.2374  0.1369  0.2485
 3394ntf    sn217957   3.744   2.158   3.193 -0.1643 -0.2409 -0.0009
 3394ntf    nn317958   3.818   2.041   3.268 -0.0015  0.0680  0.3250
 3394ntf    sn217959   3.876   2.032   3.413 -0.0493 -0.0694  0.3351
 3394ntf    cn117960   3.793   1.885   3.481 -0.2372 -0.0491  0.1511
 3394ntf    fn417961   3.535   2.104   3.350 -0.3531 -0.1824  0.2102
 3394ntf    fn417962   3.497   2.203   3.173 -0.2011 -0.0611 -0.1951
 3394ntf    fn417963   3.550   1.988   3.167  0.3050  0.2327 -0.1678
 3394ntf    on517964   3.762   2.154   3.050  0.3099 -0.2843  0.0606
 3394ntf    on517965   3.748   2.290   3.252 -0.3049 -0.0888 -0.3299
 3394ntf    on517966   3.823   2.133   3.500  0.0935  0.2089  0.1001
 3394ntf    on517967   4.017   2.002   3.416  0.0296  0.1414 -0.8397
 3394ntf    fn417968   3.835   1.850   3.601 -0.0066 -0.3502 -0.0133
 3394ntf    fn417969   3.664   1.909   3.496 -0.1545 -0.2191  1.1886
 3394ntf    fn417970   3.803   1.773   3.410  0.1843  0.0684  0.0212
 3395ntf    cn117971   7.019   3.858   6.890  0.3572  0.5646  0.1683
 3395ntf    sn217972   7.135   3.853   7.030  0.3630  0.4777  0.1602
 3395ntf    nn317973   7.224   3.731   6.987  0.3172  0.4216  0.2245
 3395ntf    sn217974   7.369   3.685   7.024  0.2105  0.1174  0.2662
 3395ntf    cn117975   7.331   3.521   7.093  0.1493  0.0551  0.0865
 3395ntf    fn417976   6.962   3.739   6.883  0.0714  0.7152 -0.1074
 3395ntf    fn417977   6.911   3.934   6.902 -0.0165  0.0361  0.2085
 3395ntf    fn417978   7.083   3.874   6.776 -0.3173  0.1176 -0.2812
 3395ntf    on517979   7.209   3.977   7.039  0.2836  0.5400 -0.0302
 3395ntf    on517980   7.043   3.824   7.138  0.2724  0.2616  0.0267
 3395ntf    on517981   7.436   3.751   7.133  0.0829 -0.1186  0.4884
 3395ntf    on517982   7.443   3.653   6.904 -0.0583  0.3011  0.0506
 3395ntf    fn417983   7.228   3.533   7.175  0.3938  0.2125  0.3707
 3395ntf    fn417984   7.295   3.432   7.002  0.3918  0.0292  0.0155
 3395ntf    fn417985   7.431   3.458   7.153  0.0823 -0.3065 -0.1819
 3396ntf    cn117986   3.778   5.288   4.762  0.1825 -0.2255 -0.3225
 3396ntf    sn217987   3.633   5.397   4.752  0.0182 -0.3905  0.2378
 3396ntf    nn317988   3.704   5.525   4.696 -0.2573 -0.5304 -0.4428
 3396ntf    sn217989   3.662   5.635   4.592  0.1785 -0.0062 -0.0713
 3396ntf    cn117990   3.811   5.639   4.489  0.4316  0.1327  0.2987
 3396ntf    fn417991   3.744   5.166   4.800 -0.1319 -0.1412 -0.3302
 3396ntf    fn417992   3.827   5.273   4.640  0.6601  0.0584 -0.1671
 3396ntf    fn417993   3.874   5.333   4.841 -0.4432  0.4593  0.0602
 3396ntf    on517994   3.541   5.334   4.660  0.1004  0.3598 -0.3651
 3396ntf    on517995   3.592   5.413   4.890  0.1258  0.4148  0.1816
 3396ntf    on517996   3.684   5.766   4.647 -0.1735  0.2748 -0.5860
 3396ntf    on517997   3.548   5.610   4.507  0.1008  0.3193 -0.0640
 3396ntf    fn417998   3.841   5.519   4.441 -0.5887 -0.0762  0.1719
 3396ntf    fn417999   3.796   5.715   4.382 -0.1380 -0.0513  0.2450
 3396ntf    fn418000   3.922   5.680   4.548  0.1073  0.0603  0.9700
 3397ntf    cn118001   5.101   5.792   2.778  0.1354  0.4383 -0.2196
 3397ntf    sn218002   5.062   5.851   2.945 -0.1017 -0.3785  0.0164
 3397ntf    nn318003   5.206   5.851   3.009  0.0377 -0.6285 -0.2953
 3397ntf    sn218004   5.242   5.836   3.161 -0.3931 -0.4017 -0.1665
 3397ntf    cn118005   5.314   5.669   3.152 -0.1263 -0.2983  0.0239
 3397ntf    fn418006   5.191   5.858   2.706  0.9286 -1.1458 -0.7188
 3397ntf    fn418007   5.175   5.684   2.797 -0.5612  0.1197  0.7150
 3397ntf    fn418008   5.002   5.763   2.695 -0.3634  0.4451  0.3714
 3397ntf    on518009   5.009   5.979   2.906  0.0237 -0.3262  0.0169
 3397ntf    on518010   4.974   5.750   2.997 -0.0900 -0.5112 -0.2226
 3397ntf    on518011   5.138   5.817   3.259 -0.3028  0.4814  0.1088
 3397ntf    on518012   5.358   5.914   3.198 -0.0384 -0.7593 -0.5007
 3397ntf    fn418013   5.380   5.641   3.263 -0.2549  0.0050  0.1794
 3397ntf    fn418014   5.223   5.572   3.146  0.0435 -0.4878  0.4547
 3397ntf    fn418015   5.388   5.645   3.046  0.4417  0.2706  0.2844
 3398ntf    cn118016   0.730   0.944   5.213 -0.2421  0.0178  0.1179
 3398ntf    sn218017   0.747   1.125   5.225  0.3928 -0.0066 -0.3756
 3398ntf    nn318018   0.682   1.148   5.366  0.3445  0.5262 -0.4841
 3398ntf    sn218019   0.531   1.181   5.392  0.1667 -0.3110 -0.4477
 3398ntf    cn118020   0.539   1.362   5.391  0.0539 -0.3044 -0.2677
 3398ntf    fn418021   0.765   0.882   5.325 -0.0936  0.1527  0.1467
 3398ntf    fn418022   0.604   0.913   5.190  0.0851 -0.8497 -0.5549
 3398ntf    fn418023   0.800   0.902   5.109 -0.2131  0.4868 -0.0530
 3398ntf    on518024   0.887   1.147   5.250  0.2950 -0.1362  0.3010
 3398ntf    on518025   0.686   1.188   5.111 -0.2949 -0.1664 -0.0983
 3398ntf    on518026   0.500   1.154   5.531  0.3135  0.0836 -0.3369
 3398ntf    on518027   0.443   1.149   5.283 -0.2353 -0.0074 -0.2150
 3398ntf    fn418028   0.420   1.413   5.418  0.1642 -0.3408  0.3113
 3398ntf    fn418029   0.629   1.410   5.476 -0.4492  0.3514 -0.0974
 3398ntf    fn418030   0.580   1.410   5.275  0.2557 -0.3556 -0.2179
 3399ntf    cn118031   2.661   1.292   3.918  0.2334 -0.0985 -0.1566
 3399ntf    sn218032   2.518   1.181   3.921  0.1604 -0.0060 -0.1902
 3399ntf    nn318033   2.586   1.054   3.857  0.3557  0.0939 -0.1829
 3399ntf    sn218034   2.559   0.977   3.723 -0.0294 -0.1006  0.0022
 3399ntf    cn118035   2.425   0.870   3.783 -0.0787  0.0521  0.1640
 3399ntf    fn418036   2.705   1.309   3.794  0.0486  0.6933 -0.1227
 3399ntf    fn418037   2.640   1.410   3.975  0.5327  0.0391 -0.3257
 3399ntf    fn418038   2.753   1.236   3.996  0.0691  0.7377  0.6674
 3399ntf    on518039   2.489   1.155   4.060 -0.0648  0.3129 -0.1762
 3399ntf    on518040   2.411   1.244   3.848 -0.1516  0.0670  0.3282
 3399ntf    on518041   2.653   0.871   3.696 -0.1599 -0.2249  0.0372
 3399ntf    on518042   2.523   1.064   3.615 -0.1314  0.2835  0.3434
 3399ntf    fn418043   2.452   0.814   3.900  0.0943 -1.0283 -0.3895
 3399ntf    fn418044   2.305   0.924   3.801 -0.0151  0.2834 -0.0907
 3399ntf    fn418045   2.402   0.780   3.689  0.0549  0.1068  0.0794
 3400ntf    cn118046   3.261   2.913   3.171  0.1652 -0.0341  0.2880
 3400ntf    sn218047   3.339   2.826   3.310  0.0913  0.1360  0.4367
 3400ntf    nn318048   3.405   2.945   3.388  0.0015  0.2027  0.4102
 3400ntf    sn218049   3.540   2.941   3.468  0.0927 -0.0993  0.2420
 3400ntf    cn118050   3.476   2.940   3.638 -0.2372  0.0234  0.1184
 3400ntf    fn418051   3.342   2.996   3.108  0.2018 -0.4097 -0.1679
 3400ntf    fn418052   3.226   2.828   3.075  0.2524 -0.0763  0.2939
 3400ntf    fn418053   3.150   2.974   3.209  0.0649 -0.0767  0.0702
 3400ntf    on518054   3.227   2.769   3.381  0.1406 -0.6270 -0.0748
 3400ntf    on518055   3.427   2.731   3.245 -0.2183 -0.0332  0.2635
 3400ntf    on518056   3.615   3.064   3.459  0.5141 -0.3755 -0.0643
 3400ntf    on518057   3.626   2.825   3.470  0.2986  0.0557  0.4217
 3400ntf    fn418058   3.571   2.926   3.728 -0.2025  0.0808  0.0907
 3400ntf    fn418059   3.407   3.050   3.666  0.0349  0.1385  0.3352
 3400ntf    fn418060   3.392   2.840   3.659 -0.5143  0.2997  0.3461
 3401ntf    cn118061   0.912   1.680   0.231  0.3011  0.1610  0.0468
 3401ntf    sn218062   0.743   1.664   0.295  0.2478  0.1043 -0.1076
 3401ntf    nn318063   0.714   1.512   0.269  0.3975  0.0342  0.1322
 3401ntf    sn218064   0.688   1.400   0.376 -0.2420  0.0232 -0.0313
 3401ntf    cn118065   0.853   1.336   0.417 -0.2628 -0.1529 -0.2218
 3401ntf    fn418066   1.006   1.610   0.293 -0.0831 -0.5358 -0.1506
 3401ntf    fn418067   0.930   1.642   0.105 -0.1253  0.0053  0.0314
 3401ntf    fn418068   0.956   1.805   0.235  0.3284  0.1410  0.4233
 3401ntf    on518069   0.752   1.704   0.433 -0.3347  0.6637 -0.2237
 3401ntf    on518070   0.676   1.756   0.206  0.4205 -0.0033 -0.3507
 3401ntf    on518071   0.631   1.282   0.314  0.1032 -0.3241  0.3120
 3401ntf    on518072   0.632   1.441   0.502  0.2055 -0.5038  0.3396
 3401ntf    fn418073   0.925   1.328   0.306 -0.1654  0.3385 -0.1974
 3401ntf    fn418074   0.925   1.424   0.484 -0.4692  0.2054 -0.4609
 3401ntf    fn418075   0.870   1.222   0.482  0.3687  0.4363  0.6596
 3402ntf    cn118076   1.116   3.182   6.097 -0.2202 -0.0564  0.1674
 3402ntf    sn218077   1.075   3.260   5.939 -0.1137 -0.0025  0.1665
 3402ntf    nn318078   1.215   3.275   5.869 -0.2323  0.1295 -0.0437
 3402ntf    sn218079   1.283   3.400   5.803 -0.0604 -0.0044 -0.1220
 3402ntf    cn118080   1.360   3.477   5.949 -0.0474 -0.2645  0.0074
 3402ntf    fn418081   1.043   3.204   6.205 -0.4758  0.1664 -0.0530
 3402ntf    fn418082   1.107   3.050   6.084 -0.3186 -0.0244 -0.0939
 3402ntf    fn418083   1.242   3.199   6.134 -0.2664 -0.3967  0.4883
 3402ntf    on518084   0.988   3.159   5.885  0.3373 -0.3529  0.0862
 3402ntf    on518085   1.014   3.385   5.978 -0.1543  0.0873 -0.1769
 3402ntf    on518086   1.198   3.500   5.743 -0.1867  0.2853  0.5319
 3402ntf    on518087   1.404   3.359   5.736 -0.0584 -0.0596 -0.0840
 3402ntf    fn418088   1.441   3.578   5.924 -0.1653 -0.1437  0.1101
 3402ntf    fn418089   1.274   3.518   6.041 -0.1998 -0.0230 -0.2394
 3402ntf    fn418090   1.424   3.390   6.026  0.2744  0.1382  0.1945
 3403ntf    cn118091   3.941   2.018   7.029  0.0559  0.4783  0.2441
 3403ntf    sn218092   3.987   2.147   6.909 -0.4898  0.0534 -0.4266
 3403ntf    nn318093   4.112   2.080   6.841 -0.0909  0.2492  0.1040
 3403ntf    sn218094   4.256   2.051   6.894 -0.2431 -0.2065  0.2712
 3403ntf    cn118095   4.348   2.176   6.799 -0.3990 -0.3288 -0.0402
 3403ntf    fn418096   3.896   1.905   6.978  0.2359  0.5089  0.0182
 3403ntf    fn418097   4.041   1.987   7.110  0.3988  0.0200 -0.3478
 3403ntf    fn418098   3.842   2.060   7.107  0.1195  0.6182  0.2508
 3403ntf    on518099   3.874   2.170   6.823 -0.2529 -0.5680 -0.9084
 3403ntf    on518100   4.014   2.263   6.990 -0.2187 -0.0536 -0.3643
 3403ntf    on518101   4.305   1.925   6.844 -0.8157 -0.2627 -0.1467
 3403ntf    on518102   4.282   2.083   7.032  0.5787 -0.1121  0.1043
 3403ntf    fn418103   4.317   2.151   6.673 -0.3985 -0.1365 -0.0779
 3403ntf    fn418104   4.307   2.299   6.826 -0.1561 -0.2122 -0.2039
 3403ntf    fn418105   4.478   2.160   6.813 -0.3910 -0.2032  0.0314
 3404ntf    cn118106   5.110   3.091   4.446 -0.0912  0.2860 -0.1010
 3404ntf    sn218107   5.229   3.211   4.511  0.0163  0.0146  0.2068
 3404ntf    nn318108   5.126   3.315   4.568  0.1761  0.0758  0.3870
 3404ntf    sn218109   5.028   3.301   4.691 -0.1843 -0.1726  0.0746
 3404ntf    cn118110   5.112   3.407   4.813  0.1087 -0.5101  0.1654
 3404ntf    fn418111   4.990   3.144   4.431 -0.3083 -0.0626  0.3519
 3404ntf    fn418112   5.142   3.034   4.331 -0.1125 -0.1687  0.1131
 3404ntf    fn418113   5.086   2.997   4.536  0.2100  0.0983 -0.2124
 3404ntf    on518114   5.310   3.142   4.609  0.1308 -1.0267 -0.6077
 3404ntf    on518115   5.303   3.263   4.399 -0.6921  0.3288 -0.1151
 3404ntf    on518116   5.024   3.170   4.749  0.0239 -0.3497 -0.3046
 3404ntf    on518117   4.905   3.371   4.664 -0.1950 -0.2363 -0.0424
 3404ntf    fn418118   5.053   3.393   4.930 -0.3288  0.2383  0.0346
 3404ntf    fn418119   5.238   3.367   4.817  0.0519 -0.7079  0.0272
 3404ntf    fn418120   5.120   3.533   4.777 -0.5328 -0.5640 -0.1645
 3405ntf    cn118121   2.146   0.311   5.842  0.2414  0.1736 -0.0466
 3405ntf    sn218122   2.173   0.324   6.021 -0.1328 -0.1482  0.0354
 3405ntf    nn318123   2.116   0.185   6.068  0.1957 -0.2621  0.1006
 3405ntf    sn218124   1.970   0.137   6.098  0.0543  0.1421  0.0684
 3405ntf    cn118125   1.973  -0.008   5.988  0.0486  0.2998 -0.1400
 3405ntf    fn418126   2.020   0.286   5.810  0.2166  0.0857  0.1167
 3405ntf    fn418127   2.179   0.423   5.781 -0.4258  0.3902 -0.0213
 3405ntf    fn418128   2.213   0.209   5.791 -0.1108  0.0450 -0.2642
 3405ntf    on518129   2.316   0.321   6.039 -0.2244 -0.5178  0.7312
 3405ntf    on518130   2.092   0.434   6.066 -0.4657 -0.4146  0.0988
 3405ntf    on518131   1.867   0.213   6.032  0.3233  0.4111 -0.0423
 3405ntf    on518132   1.943   0.078   6.227 -0.8283  0.0103 -0.1686
 3405ntf    fn418133   2.081  -0.081   6.010 -0.0201  0.2299 -0.0304
 3405ntf    fn418134   1.868  -0.087   6.005 -0.1176  0.4456 -0.4743
 3405ntf    fn418135   1.969   0.031   5.862 -0.4031  0.2490 -0.1452
 3406ntf    cn118136   1.136   1.984   4.138 -0.1141 -0.1876  0.0986
 3406ntf    sn218137   1.049   2.105   4.035 -0.0119 -0.1338  0.0747
 3406ntf    nn318138   1.109   2.238   4.095 -0.1547  0.0136 -0.1086
 3406ntf    sn218139   1.060   2.334   4.209  0.0838  0.0641 -0.0471
 3406ntf    cn118140   0.995   2.480   4.123 -0.4325 -0.3527 -0.3721
 3406ntf    fn418141   1.081   1.866   4.115 -0.1459 -0.2973  0.7023
 3406ntf    fn418142   1.264   1.968   4.107  0.0559 -0.1985  0.7914
 3406ntf    fn418143   1.132   2.001   4.269 -0.0443  0.2740  0.0440
 3406ntf    on518144   1.104   2.078   3.905 -0.0468  0.2640 -0.0263
 3406ntf    on518145   0.908   2.085   4.061 -0.0661  0.0710 -0.0513
 3406ntf    on518146   1.172   2.390   4.279  0.5023  0.1309 -0.7539
 3406ntf    on518147   0.953   2.281   4.289  0.1273  0.3167  0.1786
 3406ntf    fn418148   1.075   2.519   4.025  0.1991 -0.2745  0.1674
 3406ntf    fn418149   0.874   2.453   4.076 -0.6223 -0.5252  0.2142
 3406ntf    fn418150   0.983   2.586   4.201  0.1124 -0.5056 -0.0822
 3407ntf    cn118151   0.753   1.632   2.025 -0.3744 -0.1607 -0.0189
 3407ntf    sn218152   0.642   1.507   1.955  0.0892 -0.4299 -0.2738
 3407ntf    nn318153   0.610   1.412   2.076 -0.0796 -0.4283 -0.3172
 3407ntf    sn218154   0.516   1.450   2.196  0.1446 -0.0606 -0.2566
 3407ntf    cn118155   0.381   1.329   2.182  0.1569 -0.0883 -0.1305
 3407ntf    fn418156   0.815   1.584   2.132 -0.8081  0.3235  0.4543
 3407ntf    fn418157   0.852   1.673   1.947 -0.3377  0.1444  0.1860
 3407ntf    fn418158   0.685   1.736   2.070  0.0843  0.0762  0.1383
 3407ntf    on518159   0.527   1.582   1.911  0.2932  0.1262  0.1420
 3407ntf    on518160   0.721   1.445   1.851  0.8813  0.0809  0.0124
 3407ntf    on518161   0.438   1.571   2.206 -0.0211 -0.2321  0.5621
 3407ntf    on518162   0.571   1.409   2.323 -0.4803 -0.3446 -0.0770
 3407ntf    fn418163   0.422   1.204   2.180 -0.2543 -0.2521  0.8698
 3407ntf    fn418164   0.314   1.342   2.296 -0.0731 -0.5132 -0.2167
 3407ntf    fn418165   0.294   1.355   2.086 -0.0955  0.0316  0.1299
 3408ntf    cn118166   0.613   2.030   5.551 -0.1091 -0.0332 -0.1051
 3408ntf    sn218167   0.549   2.110   5.401  0.3854  0.1789 -0.2043
 3408ntf    nn318168   0.477   1.985   5.339  0.5146 -0.0474  0.1008
 3408ntf    sn218169   0.473   1.907   5.203  0.1939  0.0384  0.0604
 3408ntf    cn118170   0.572   1.771   5.272  0.1985 -0.0695 -0.1564
 3408ntf    fn418171   0.659   1.912   5.513  0.7567  0.2806 -0.0568
 3408ntf    fn418172   0.721   2.093   5.594 -0.5731  0.1288  0.8721
 3408ntf    fn418173   0.523   2.015   5.647  0.3710  0.0851  0.3679
 3408ntf    on518174   0.471   2.216   5.459  0.5003  0.3844 -0.4211
 3408ntf    on518175   0.671   2.148   5.334  0.5570 -0.1013 -0.0537
 3408ntf    on518176   0.545   1.956   5.088  0.0024 -0.1432 -0.1394
 3408ntf    on518177   0.347   1.841   5.181  0.1829  0.2065 -0.3957
 3408ntf    fn418178   0.688   1.810   5.322  0.2609 -0.2660 -0.1455
 3408ntf    fn418179   0.507   1.703   5.365  0.2741 -0.1264 -0.1449
 3408ntf    fn418180   0.605   1.685   5.177  0.3637 -0.1024 -0.0696
 3409ntf    cn118181   1.770   1.248   1.454 -0.1527  0.2089  0.3831
 3409ntf    sn218182   1.863   1.369   1.356 -0.1225 -0.1541 -0.0395
 3409ntf    nn318183   1.842   1.319   1.208 -0.3803  0.0606 -0.0758
 3409ntf    sn218184   1.921   1.205   1.135 -0.1573  0.1015  0.0977
 3409ntf    cn118185   2.044   1.308   1.048 -0.2074  0.2425  0.1928
 3409ntf    fn418186   1.643   1.236   1.417 -0.0781  0.0902  0.1675
 3409ntf    fn418187   1.833   1.132   1.449 -0.0362  0.2818  0.1496
 3409ntf    fn418188   1.768   1.280   1.582 -0.1109 -0.2026  0.4867
 3409ntf    on518189   1.807   1.501   1.367 -0.1276 -0.1348 -0.2806
 3409ntf    on518190   2.000   1.361   1.402  0.0319  0.4136 -0.3897
 3409ntf    on518191   1.849   1.133   1.033  0.4407  0.1398 -0.3556
 3409ntf    on518192   2.002   1.122   1.220  0.4435  0.5016 -0.0742
 3409ntf    fn418193   2.133   1.248   0.971 -0.4852  0.0068  0.0536
 3409ntf    fn418194   1.983   1.391   0.965 -0.1668  0.0717 -0.0077
 3409ntf    fn418195   2.120   1.378   1.131 -0.1203  0.3033  0.0612
 3410ntf    cn118196   3.687   4.861   5.524  0.2816  0.0999 -0.1934
 3410ntf    sn218197   3.850   4.900   5.596  0.2041 -0.1959  0.1455
 3410ntf    nn318198   3.943   4.832   5.491 -0.4206  0.1857 -0.6685
 3410ntf    sn218199   4.002   4.686   5.484 -0.0038  0.3361 -0.3346
 3410ntf    cn118200   4.006   4.654   5.305 -0.2695 -0.3972 -0.2123
 3410ntf    fn418201   3.588   4.898   5.603  0.1346 -0.2148 -0.2296
 3410ntf    fn418202   3.670   4.921   5.407 -0.3909  0.1035 -0.0972
 3410ntf    fn418203   3.665   4.731   5.515  0.3075  0.1230 -0.5816
 3410ntf    on518204   3.848   5.045   5.592  0.0492 -0.1896  0.4120
 3410ntf    on518205   3.836   4.845   5.729 -0.3512 -0.4171 -0.0019
 3410ntf    on518206   3.911   4.586   5.535  0.1290  0.4479  0.1269
 3410ntf    on518207   4.142   4.682   5.516 -0.1289  0.1140  0.1976
 3410ntf    fn418208   4.102   4.567   5.277 -0.3334 -0.4900 -0.1455
 3410ntf    fn418209   3.895   4.600   5.257 -0.2464 -0.5792 -0.0622
 3410ntf    fn418210   4.034   4.757   5.227  0.4208 -0.2268  0.2521
 3411ntf    cn118211   7.061   2.327   3.099  0.2904 -0.0573 -0.0214
 3411ntf    sn218212   7.085   2.410   2.938 -0.2092  0.0656 -0.0355
 3411ntf    nn318213   6.998   2.308   2.857 -0.0284 -0.1286  0.0109
 3411ntf    sn218214   6.883   2.357   2.761 -0.1501 -0.2114  0.1145
 3411ntf    cn118215   6.754   2.409   2.877 -0.1700 -0.0714  0.0295
 3411ntf    fn418216   7.074   2.409   3.202 -0.0705 -0.2896  0.2094
 3411ntf    fn418217   6.935   2.287   3.105  0.2958 -0.0450  0.1726
 3411ntf    fn418218   7.132   2.217   3.118 -0.0980 -0.2767  0.1617
 3411ntf    on518219   7.020   2.536   2.962 -0.4377  0.0508 -0.5670
 3411ntf    on518220   7.225   2.401   2.906 -0.1023 -0.0359  0.4418
 3411ntf    on518221   6.824   2.248   2.686 -0.0428 -0.1479 -0.0614
 3411ntf    on518222   6.915   2.471   2.680  0.3231 -0.5815 -0.2309
 3411ntf    fn418223   6.784   2.512   2.955 -0.2484 -0.1421  0.1537
 3411ntf    fn418224   6.645   2.453   2.816  0.4816 -0.0975 -1.1683
 3411ntf    fn418225   6.719   2.310   2.957  0.4827 -0.3952 -0.0798
 3412ntf    cn118226   3.655   2.741   4.836 -0.7890  0.0839  0.1245
 3412ntf    sn218227   3.637   2.790   4.662  0.2770  0.1062  0.0137
 3412ntf    nn318228   3.735   2.913   4.658  0.0690  0.2823  0.3013
 3412ntf    sn218229   3.715   3.046   4.576  0.1317  0.0122 -0.1553
 3412ntf    cn118230   3.832   3.033   4.438  0.2010 -0.2774 -0.0709
 3412ntf    fn418231   3.766   2.674   4.859 -0.5788  0.2816 -0.2879
 3412ntf    fn418232   3.664   2.841   4.922  0.4830  0.1475 -0.0594
 3412ntf    fn418233   3.557   2.661   4.875  0.0431 -1.0049  0.0251
 3412ntf    on518234   3.681   2.680   4.580 -0.6278 -0.4688  0.2912
 3412ntf    on518235   3.496   2.822   4.668  0.2742 -0.1126  1.4643
 3412ntf    on518236   3.777   3.147   4.658  0.7930 -0.2532 -0.3193
 3412ntf    on518237   3.585   3.078   4.523 -0.4423  0.0183  1.1945
 3412ntf    fn418238   3.793   2.944   4.348 -0.6372  0.2384 -0.2239
 3412ntf    fn418239   3.834   3.148   4.373  0.5325 -0.1427  0.1739
 3412ntf    fn418240   3.956   3.000   4.473  0.2830  0.3758  0.2721
 3413ntf    cn118241   6.753   1.377   2.362 -0.2044 -0.3596  0.0363
 3413ntf    sn218242   6.656   1.517   2.425 -0.1758 -0.2264 -0.2170
 3413ntf    nn318243   6.654   1.474   2.576  0.1461  0.5088  0.0040
 3413ntf    sn218244   6.535   1.397   2.644  0.4924 -0.0513 -0.0196
 3413ntf    cn118245   6.450   1.527   2.739  0.2506 -0.0328 -0.2607
 3413ntf    fn418246   6.700   1.263   2.401  0.2102 -0.7632 -0.5561
 3413ntf    fn418247   6.754   1.374   2.230  0.3107 -0.1937  0.0308
 3413ntf    fn418248   6.880   1.386   2.400 -0.1834  1.0540 -0.3116
 3413ntf    on518249   6.737   1.635   2.402  0.0697 -0.4112 -0.3047
 3413ntf    on518250   6.539   1.513   2.341 -0.0657 -0.0999 -0.3778
 3413ntf    on518251   6.578   1.307   2.748  0.0479 -0.2196  0.0225
 3413ntf    on518252   6.429   1.356   2.556  0.1028 -0.1764  0.5027
 3413ntf    fn418253   6.340   1.482   2.796  0.4667 -0.0291  0.1580
 3413ntf    fn418254   6.526   1.581   2.832  0.0605  0.8713 -0.6205
 3413ntf    fn418255   6.431   1.632   2.661  0.3670  0.0723 -0.1483
 3414ntf    cn118256   0.356   5.314   2.044  0.1309  0.0046 -0.2362
 3414ntf    sn218257   0.413   5.471   2.113  0.1793  0.0074 -0.2810
 3414ntf    nn318258   0.420   5.439   2.267 -0.1135 -0.4693 -0.3662
 3414ntf    sn218259   0.540   5.391   2.356 -0.0786 -0.0835 -0.2035
 3414ntf    cn118260   0.586   5.538   2.452  0.0772 -0.2147 -0.0771
 3414ntf    fn418261   0.237   5.279   2.090  0.2516 -0.3131 -0.1652
 3414ntf    fn418262   0.336   5.328   1.914 -0.2161  0.1794 -0.1640
 3414ntf    fn418263   0.438   5.212   2.062  0.3637  0.2018 -0.1799
 3414ntf    on518264   0.536   5.500   2.043 -0.0301  0.1983 -0.5724
 3414ntf    on518265   0.306   5.566   2.091 -0.3847 -0.5087  0.2125
 3414ntf    on518266   0.662   5.365   2.283 -0.0914  0.0071 -0.2578
 3414ntf    on518267   0.500   5.303   2.463  0.5560  0.3167  0.3677
 3414ntf    fn418268   0.694   5.512   2.525  0.2389 -0.0211 -0.2443
 3414ntf    fn418269   0.627   5.645   2.386 -0.2649 -0.2728 -0.3846
 3414ntf    fn418270   0.492   5.579   2.535 -0.2654 -0.4381 -0.3563
 3415ntf    cn118271   2.415   2.888   6.637 -0.0013 -0.1479  0.1301
 3415ntf    sn218272   2.310   2.989   6.747 -0.0320  0.1745 -0.1928
 3415ntf    nn318273   2.415   3.043   6.851 -0.0088  0.4171 -0.3410
 3415ntf    sn218274   2.495   2.976   6.968 -0.1923  0.3690 -0.2438
 3415ntf    cn118275   2.412   3.059   7.107  0.0296 -0.2283  0.2533
 3415ntf    fn418276   2.497   2.801   6.694 -0.1340  0.1511  0.7872
 3415ntf    fn418277   2.349   2.819   6.546 -0.2650 -0.0419  0.2405
 3415ntf    fn418278   2.495   2.963   6.564  0.1740 -0.7830 -0.3309
 3415ntf    on518279   2.270   3.102   6.667 -0.2190  0.1647 -0.1120
 3415ntf    on518280   2.205   2.903   6.797 -0.3034  0.8015  0.3314
 3415ntf    on518281   2.634   3.013   6.974  0.0728 -0.6065 -0.1902
 3415ntf    on518282   2.464   2.836   6.987 -0.5622  0.5540  0.5467
 3415ntf    fn418283   2.482   3.040   7.218  0.5448 -0.1796 -0.0624
 3415ntf    fn418284   2.409   3.186   7.072  0.0288 -0.2570  0.1468
 3415ntf    fn418285   2.286   3.019   7.117 -0.1825  0.3413 -0.1286
 3416ntf    cn118286   2.454   4.486   2.009  0.1132  0.1366  0.4005
 3416ntf    sn218287   2.353   4.620   1.938  0.0552 -0.0553  0.1240
 3416ntf    nn318288   2.401   4.598   1.790 -0.1870 -0.1865  0.0627
 3416ntf    sn218289   2.316   4.593   1.658  0.0075  0.3228 -0.0856
 3416ntf    cn118290   2.306   4.413   1.633  0.3056  0.1797  0.7692
 3416ntf    fn418291   2.435   4.370   1.949  0.5914 -0.0780  0.6566
 3416ntf    fn418292   2.584   4.500   1.993  0.0308  0.1396 -0.2960
 3416ntf    fn418293   2.422   4.454   2.133  0.3085  0.2025  0.4680
 3416ntf    on518294   2.222   4.567   1.966 -0.1604  0.5510  0.2627
 3416ntf    on518295   2.404   4.740   1.999 -0.5377  0.0863  0.3416
 3416ntf    on518296   2.386   4.648   1.544  0.3151 -0.5338 -0.3194
 3416ntf    on518297   2.178   4.629   1.673 -0.0258  0.0648  0.2278
 3416ntf    fn418298   2.414   4.351   1.674  0.2440  0.0188  0.6861
 3416ntf    fn418299   2.208   4.348   1.694 -0.0398 -0.2250 -0.1927
 3416ntf    fn418300   2.278   4.391   1.505  0.6721  0.6865  0.5975
 3417ntf    cn118301   2.009   2.117   6.505  0.1358  0.4555 -0.2979
 3417ntf    sn218302   2.088   1.960   6.460  0.3091  0.3661  0.3110
 3417ntf    nn318303   2.187   1.955   6.581  0.1238  0.5118  0.4670
 3417ntf    sn218304   2.342   1.933   6.589  0.0761  0.0096  0.0334
 3417ntf    cn118305   2.402   2.104   6.570 -0.0197  0.1039  0.5670
 3417ntf    fn418306   2.100   2.212   6.508  0.2173  0.3861 -0.5649
 3417ntf    fn418307   1.913   2.154   6.421 -0.1851  0.6630  0.1553
 3417ntf    fn418308   1.950   2.114   6.623  0.4950  0.7033 -0.1136
 3417ntf    on518309   1.986   1.860   6.480  0.5130 -0.1995 -1.3182
 3417ntf    on518310   2.147   1.977   6.329 -0.0228  0.3715  0.1616
 3417ntf    on518311   2.406   1.861   6.482 -0.2597 -0.1348 -0.0689
 3417ntf    on518312   2.377   1.900   6.725 -0.4307 -0.1379  0.1273
 3417ntf    fn418313   2.332   2.162   6.474  0.8301 -0.1061 -0.1940
 3417ntf    fn418314   2.386   2.173   6.681 -0.4437  0.5623  0.2250
 3417ntf    fn418315   2.530   2.116   6.539 -0.2263  0.1100 -0.3127
 3418ntf    cn118316   1.175   2.581   2.107 -0.0458 -0.0087 -0.4611
 3418ntf    sn218317   0.994   2.586   2.088 -0.1273  0.2327  0.3650
 3418ntf    nn318318   0.983   2.700   1.981  0.3649  0.2039  0.2846
 3418ntf    sn218319   1.013   2.853   2.002 -0.0377  0.2915  0.2166
 3418ntf    cn118320   0.920   2.899   1.852  0.1694 -0.2817 -0.0947
 3418ntf    fn418321   1.237   2.617   1.995  0.2006 -0.0764 -0.3457
 3418ntf    fn418322   1.220   2.682   2.180 -0.6832  0.1510 -0.2816
 3418ntf    fn418323   1.226   2.468   2.152 -0.1076 -0.0329 -0.4510
 3418ntf    on518324   0.958   2.463   2.021 -0.1428  0.4023  0.0618
 3418ntf    on518325   0.950   2.609   2.224 -0.8369 -0.3245  0.2372
 3418ntf    on518326   1.145   2.901   1.972  0.0780  0.0578  0.3503
 3418ntf    on518327   0.941   2.914   2.111  0.4195 -0.0168  0.6923
 3418ntf    fn418328   0.795   2.863   1.876 -0.0143  0.4108  0.0219
 3418ntf    fn418329   0.916   3.029   1.824  0.2992 -0.2293  0.1283
 3418ntf    fn418330   0.964   2.838   1.744 -0.1449  0.6261 -0.7547
 3419ntf    cn118331   4.955   0.332   1.594 -0.0850  0.4092  0.0618
 3419ntf    sn218332   5.053   0.437   1.482  0.3284  0.1667  0.1909
 3419ntf    nn318333   5.128   0.527   1.586  0.7485 -0.1770  0.1841
 3419ntf    sn218334   5.134   0.683   1.578  0.1085 -0.1584  0.0433
 3419ntf    cn118335   5.005   0.727   1.698 -0.0839  0.1794 -0.2847
 3419ntf    fn418336   5.044   0.278   1.676 -0.4526 -0.0220  0.1779
 3419ntf    fn418337   4.872   0.397   1.673 -0.0801  0.0708  0.3448
 3419ntf    fn418338   4.898   0.235   1.525  0.2982  0.2255 -0.0000
 3419ntf    on518339   5.133   0.343   1.407 -0.1931 -0.2145  0.1022
 3419ntf    on518340   4.945   0.493   1.403  0.2282  0.0191  0.2230
 3419ntf    on518341   5.087   0.748   1.458  0.6982 -0.1347 -0.1804
 3419ntf    on518342   5.241   0.743   1.653  0.0504  0.0466 -0.0352
 3419ntf    fn418343   5.023   0.652   1.805  0.1351 -0.0168 -0.4580
 3419ntf    fn418344   5.014   0.851   1.743  0.0054  0.1387 -0.1914
 3419ntf    fn418345   4.877   0.705   1.669 -0.0243  0.3575 -0.6932
 3420ntf    cn118346   4.690   6.432   5.513  0.0440  0.1047 -0.1053
 3420ntf    sn218347   4.825   6.550   5.482  0.1246  0.0936  0.1944
 3420ntf    nn318348   4.879   6.499   5.344 -0.3662 -0.3561  0.1650
 3420ntf    sn218349   4.831   6.528   5.198 -0.1871 -0.2669  0.1223
 3420ntf    cn118350   4.761   6.368   5.147 -0.0774 -0.3488  0.2301
 3420ntf    fn418351   4.610   6.437   5.409 -0.2920 -0.0101  0.1443
 3420ntf    fn418352   4.741   6.310   5.521 -0.3485 -0.0819 -0.4400
 3420ntf    fn418353   4.612   6.451   5.618  0.2216 -0.1613  0.0768
 3420ntf    on518354   4.766   6.682   5.484 -0.2534 -0.0731  0.2242
 3420ntf    on518355   4.928   6.521   5.578  0.2714 -0.4574 -0.1282
 3420ntf    on518356   4.941   6.547   5.107 -0.0242  0.1031  0.3952
 3420ntf    on518357   4.731   6.630   5.176 -0.0156 -0.1255 -0.0013
 3420ntf    fn418358   4.847   6.270   5.169  0.1350 -0.1328  0.3648
 3420ntf    fn418359   4.648   6.335   5.207 -0.1667 -0.6518 -0.1022
 3420ntf    fn418360   4.734   6.358   5.018  0.3474 -0.3700  0.1400
 3421ntf    cn118361   1.521   6.985   4.916  0.1739 -0.1758 -0.0787
 3421ntf    sn218362   1.586   6.829   4.850  0.3062 -0.2375  0.1982
 3421ntf    nn318363   1.658   6.879   4.720 -0.3180  0.1114 -0.0158
 3421ntf    sn218364   1.588   6.892   4.580 -0.2945  0.1162 -0.0273
 3421ntf    cn118365   1.622   6.730   4.506  0.0395  0.3666 -0.4308
 3421ntf    fn418366   1.426   6.974   5.007  0.0236 -0.0499 -0.2189
 3421ntf    fn418367   1.613   7.060   4.975 -0.0912 -0.1258  0.2691
 3421ntf    fn418368   1.472   7.061   4.819 -0.7275 -1.1092 -0.3664
 3421ntf    on518369   1.688   6.799   4.948  0.5690  0.1617  0.0466
 3421ntf    on518370   1.473   6.740   4.839 -0.0848  0.1345  1.1063
 3421ntf    on518371   1.666   6.981   4.498 -0.5252 -0.0721 -0.4545
 3421ntf    on518372   1.444   6.907   4.579 -0.2458  0.5668 -0.4011
 3421ntf    fn418373   1.596   6.633   4.593  0.3061  0.2540 -0.4752
 3421ntf    fn418374   1.548   6.705   4.399  0.1627  0.2708 -0.4944
 3421ntf    fn418375   1.747   6.713   4.468  0.1048  0.6984 -0.3653
 3422ntf    cn118376   4.321   4.678   1.969  0.1324  0.1814  0.3281
 3422ntf    sn218377   4.265   4.850   1.948  0.3564  0.1706 -0.3873
 3422ntf    nn318378   4.264   4.903   2.095 -0.1424 -0.3355 -0.2042
 3422ntf    sn218379   4.370   4.975   2.185 -0.2954 -0.3979  0.0291
 3422ntf    cn118380   4.440   4.838   2.282  0.1189 -0.0435  0.2362
 3422ntf    fn418381   4.271   4.610   2.070 -0.0147  0.3624  0.3758
 3422ntf    fn418382   4.301   4.602   1.862  0.3315  0.2786  0.2218
 3422ntf    fn418383   4.451   4.672   1.992 -0.0056 -0.6262  0.9301
 3422ntf    on518384   4.359   4.904   1.853  0.1828  1.2526  0.0493
 3422ntf    on518385   4.129   4.830   1.906  0.1741  0.1509  0.2081
 3422ntf    on518386   4.311   5.049   2.294  0.7589  0.1800  0.2226
 3422ntf    on518387   4.483   5.036   2.119 -0.4976 -0.0212  0.0269
 3422ntf    fn418388   4.358   4.791   2.375  0.3229 -0.1923  0.3402
 3422ntf    fn418389   4.473   4.741   2.199  0.4616  0.1987  0.0832
 3422ntf    fn418390   4.553   4.870   2.343  0.0236  0.0939  0.3429
 3423ntf    cn118391   0.337   2.980   4.445 -0.0898  0.1045 -0.1394
 3423ntf    sn218392   0.435   3.124   4.393  0.0240  0.1465  0.1927
 3423ntf    nn318393   0.413   3.109   4.238  0.1826 -0.3270  0.2153
 3423ntf    sn218394   0.519   3.066   4.131  0.1863  0.3061 -0.0414
 3423ntf    cn118395   0.424   2.928   4.059  0.3437 -0.0884  0.4949
 3423ntf    fn418396   0.215   2.989   4.393  0.0380 -0.4285 -0.5386
 3423ntf    fn418397   0.376   2.866   4.391 -0.4786 -0.1731  0.1654
 3423ntf    fn418398   0.325   2.962   4.575 -0.2544  0.2703 -0.1302
 3423ntf    on518399   0.369   3.244   4.439 -0.5210 -0.2442  0.4360
 3423ntf    on518400   0.564   3.088   4.447  0.1193  0.1972 -0.0015
 3423ntf    on518401   0.644   3.003   4.166  0.0881  0.1214 -0.0202
 3423ntf    on518402   0.535   3.159   4.023  0.2113  0.2056 -0.1246
 3423ntf    fn418403   0.498   2.874   3.963 -0.4178  0.2165 -0.2816
 3423ntf    fn418404   0.391   2.837   4.148 -0.6569 -0.4773 -0.2603
 3423ntf    fn418405   0.313   2.970   4.001  0.5596 -0.4573 -0.1997
 3424ntf    cn118406   3.343   1.200   7.046  0.0169  0.0850  0.4108
 3424ntf    sn218407   3.336   1.340   7.161  0.1258  0.7480 -0.3784
 3424ntf    nn318408   3.488   1.360   7.194  0.2058  0.5571 -0.6283
 3424ntf    sn218409   3.545   1.473   7.287  0.0327  0.0151  0.1552
 3424ntf    cn118410   3.567   1.380   7.441  0.1964  0.0519  0.1543
 3424ntf    fn418411   3.379   1.087   7.106 -0.2244 -0.4699 -0.4592
 3424ntf    fn418412   3.230   1.165   6.987  0.3121 -0.5962  0.2343
 3424ntf    fn418413   3.436   1.216   6.953 -0.1662 -0.0870  0.1978
 3424ntf    on518414   3.286   1.451   7.083 -0.0247  0.6273 -0.4545
 3424ntf    on518415   3.249   1.300   7.269  0.6243  0.2330 -0.1648
 3424ntf    on518416   3.460   1.587   7.311 -0.1975 -0.1546  0.1499
 3424ntf    on518417   3.683   1.502   7.256  0.1413 -0.1137  0.5208
 3424ntf    fn418418   3.626   1.439   7.543  0.4971  0.1035 -0.0479
 3424ntf    fn418419   3.446   1.348   7.485  0.2665 -0.4531 -0.0124
 3424ntf    fn418420   3.635   1.267   7.430 -0.3783 -0.2347 -0.4926
 3425ntf    cn118421   5.548   0.010   4.066 -0.0795 -0.1496 -0.1777
 3425ntf    sn218422   5.719   0.063   4.038 -0.0895 -0.1553 -0.2508
 3425ntf    nn318423   5.759  -0.021   3.912  0.5632 -0.4246  0.1278
 3425ntf    sn218424   5.808   0.028   3.771 -0.0042 -0.1685  0.0172
 3425ntf    cn118425   5.653   0.083   3.693  0.1936  0.2261 -0.1017
 3425ntf    fn418426   5.499   0.060   4.178 -0.4451 -0.5374 -0.1598
 3425ntf    fn418427   5.456   0.041   3.975  0.2454  0.2456 -0.3748
 3425ntf    fn418428   5.540  -0.121   4.077 -0.3018 -0.0846  0.4780
 3425ntf    on518429   5.708   0.206   4.025  0.1245 -0.1174 -0.0402
 3425ntf    on518430   5.774   0.020   4.164 -0.0951  0.4125 -0.0510
 3425ntf    on518431   5.859  -0.081   3.692  0.0385  0.3204 -0.6358
 3425ntf    on518432   5.895   0.144   3.768  0.1898 -0.3092  0.1499
 3425ntf    fn418433   5.665   0.127   3.569 -0.1894 -0.4356 -0.3751
 3425ntf    fn418434   5.575  -0.024   3.687  0.0017  0.3878 -0.4815
 3425ntf    fn418435   5.584   0.176   3.757 -0.3116  0.1154 -0.4784
 3426ntf    cn118436   0.841   6.958   5.860 -0.0366  0.2427  0.0548
 3426ntf    sn218437   0.659   6.959   5.855 -0.0468  0.2373  0.4052
 3426ntf    nn318438   0.629   7.108   5.893  0.3721  0.3037  0.4801
 3426ntf    sn218439   0.623   7.226   5.790  0.0868 -0.1164  0.0119
 3426ntf    cn118440   0.640   7.370   5.900 -0.1613 -0.3140  0.3079
 3426ntf    fn418441   0.891   7.019   5.966  0.0057 -0.4928  0.4621
 3426ntf    fn418442   0.887   6.835   5.873  0.3592  0.4373  0.5167
 3426ntf    fn418443   0.899   7.007   5.752  0.1958  0.2627  0.1886
 3426ntf    on518444   0.612   6.913   5.727 -0.0557 -0.3471  0.6155
 3426ntf    on518445   0.610   6.872   5.959 -0.0088  0.0325  0.2522
 3426ntf    on518446   0.486   7.238   5.746 -0.0150  0.4690  0.4708
 3426ntf    on518447   0.725   7.230   5.688  0.2400 -0.0168  0.1674
 3426ntf    fn418448   0.637   7.481   5.828  0.6023 -0.5056 -0.0291
 3426ntf    fn418449   0.542   7.375   5.989  0.1972 -0.0773  0.6962
 3426ntf    fn418450   0.758   7.366   5.959 -0.1964 -0.0841  0.3933
 3427ntf    cn118451   2.660   5.498   2.440 -0.3729 -0.1164 -0.3751
 3427ntf    sn218452   2.667   5.478   2.260  0.5097 -0.0073 -0.3557
 3427ntf    nn318453   2.759   5.602   2.227  0.0721  0.4458  0.1120
 3427ntf    sn218454   2.715   5.749   2.195  0.0323  0.4171  0.0322
 3427ntf    cn118455   2.808   5.833   2.327  0.1844 -0.1890  0.3156
 3427ntf    fn418456   2.778   5.517   2.497 -0.3552 -0.1147 -0.4127
 3427ntf    fn418457   2.583   5.594   2.488 -0.0214 -0.0574  0.0818
 3427ntf    fn418458   2.618   5.391   2.506 -0.2365 -0.1004 -0.2620
 3427ntf    on518459   2.749   5.361   2.243  0.4393 -0.0738 -0.2315
 3427ntf    on518460   2.534   5.470   2.205  0.4142 -0.6198 -0.0412
 3427ntf    on518461   2.579   5.786   2.225 -0.1314 -0.1360 -0.0147
 3427ntf    on518462   2.779   5.798   2.075  0.4358  0.0820  0.1070
 3427ntf    fn418463   2.750   5.803   2.442  0.5134 -0.3778  0.4329
 3427ntf    fn418464   2.936   5.799   2.333  0.3125  0.1651 -0.3248
 3427ntf    fn418465   2.800   5.965   2.319 -0.1322 -0.1917  0.5735
 3428ntf    cn118466   4.441   7.166   2.869  0.3287  0.0843  0.0133
 3428ntf    sn218467   4.368   7.050   2.750 -0.0585  0.4878 -0.1409
 3428ntf    nn318468   4.484   6.980   2.671  0.0435 -0.2143  0.6175
 3428ntf    sn218469   4.539   7.024   2.531 -0.2169 -0.2024  0.5180
 3428ntf    cn118470   4.717   7.039   2.568 -0.1281 -0.3922  0.1697
 3428ntf    fn418471   4.352   7.234   2.939  0.3982  0.5633 -0.3566
 3428ntf    fn418472   4.515   7.097   2.955 -0.3320 -0.3774  0.2221
 3428ntf    fn418473   4.516   7.251   2.801 -0.1291  0.3528 -0.1576
 3428ntf    on518474   4.315   6.943   2.830 -0.6807  0.8328 -0.0761
 3428ntf    on518475   4.269   7.133   2.685 -0.3649 -0.0058 -0.3137
 3428ntf    on518476   4.502   7.154   2.481  0.4402 -0.2357 -0.0881
 3428ntf    on518477   4.533   6.920   2.432  0.0177  0.2505  0.0181
 3428ntf    fn418478   4.778   6.923   2.586 -0.0765 -0.3744  0.1130
 3428ntf    fn418479   4.776   7.107   2.471 -0.7980 -0.1531 -0.0803
 3428ntf    fn418480   4.730   7.113   2.676 -0.0959 -0.0390 -0.0740
 3429ntf    cn118481   3.441   2.864   2.595 -0.1470 -0.2311  0.3034
 3429ntf    sn218482   3.541   2.717   2.558  0.0638 -0.0557  0.1736
 3429ntf    nn318483   3.439   2.599   2.579  0.0398 -0.1293 -0.3469
 3429ntf    sn218484   3.406   2.532   2.717  0.0718  0.1989 -0.1795
 3429ntf    cn118485   3.517   2.390   2.698  0.2228  0.3395 -0.3452
 3429ntf    fn418486   3.419   2.880   2.724 -0.4422  0.5408  0.1622
 3429ntf    fn418487   3.508   2.970   2.552  0.5752 -0.6004  0.5180
 3429ntf    fn418488   3.322   2.865   2.535 -0.3112 -0.1496  0.6292
 3429ntf    on518489   3.568   2.732   2.417 -0.3121  0.2221  0.1275
 3429ntf    on518490   3.651   2.725   2.650  0.5908  0.1911 -0.4671
 3429ntf    on518491   3.273   2.476   2.712  0.0249  0.3354 -0.5320
 3429ntf    on518492   3.454   2.595   2.838 -0.5987  0.0750  0.1551
 3429ntf    fn418493   3.467   2.291   2.626  0.1776  0.4792 -0.5071
 3429ntf    fn418494   3.634   2.426   2.647  0.1551  0.2105 -0.5923
 3429ntf    fn418495   3.566   2.334   2.807 -0.6050 -0.2332 -0.2667
 3430ntf    cn118496   3.613   4.190   0.437 -0.3098 -0.0731  0.0003
 3430ntf    sn218497   3.641   4.073   0.301  0.0658 -0.2257  0.2064
 3430ntf    nn318498   3.594   4.160   0.179  0.9804 -0.2247 -0.1512
 3430ntf    sn218499   3.649   4.186   0.034  0.1581  0.1525 -0.4008
 3430ntf    cn118500   3.590   4.031  -0.040 -0.2415  0.0191  0.1865
 3430ntf    fn418501   3.678   4.167   0.550 -0.7004 -0.1826  0.2039
 3430ntf    fn418502   3.641   4.313   0.397  0.3753 -0.2198  0.0119
 3430ntf    fn418503   3.485   4.202   0.469 -0.3578 -0.1676 -0.1559
 3430ntf    on518504   3.782   4.043   0.309  0.2255  0.5397  0.3544
 3430ntf    on518505   3.554   3.960   0.319 -0.3685  0.1049  0.1897
 3430ntf    on518506   3.793   4.192   0.031  0.1967 -0.1474  0.4029
 3430ntf    on518507   3.575   4.290  -0.033  0.3129  0.4859 -0.0610
 3430ntf    fn418508   3.637   3.929   0.029 -0.1999  0.1355  0.3309
 3430ntf    fn418509   3.458   4.025  -0.038 -0.2431 -0.0615 -0.0566
 3430ntf    fn418510   3.637   4.014  -0.163  0.4090  0.3072  0.3936
 3431ntf    cn118511   5.847   3.599   0.608  0.0405 -0.5941 -0.1789
 3431ntf    sn218512   5.881   3.719   0.476 -0.2819 -0.1797  0.1158
 3431ntf    nn318513   5.751   3.713   0.389  0.0462  0.3673 -0.4203
 3431ntf    sn218514   5.719   3.620   0.267 -0.3036 -0.2144  0.1095
 3431ntf    cn118515   5.722   3.740   0.130 -0.3327 -0.4121 -0.0652
 3431ntf    fn418516   5.959   3.546   0.655  0.2629 -0.5538 -0.6539
 3431ntf    fn418517   5.777   3.649   0.708  0.2632 -0.6450  0.0029
 3431ntf    fn418518   5.775   3.497   0.563 -0.0726 -0.7183  0.2825
 3431ntf    on518519   5.890   3.842   0.552  0.0738  0.0586 -0.3074
 3431ntf    on518520   6.001   3.666   0.417 -0.1778 -0.0621  0.2206
 3431ntf    on518521   5.581   3.576   0.276 -0.4248  0.0690 -0.3254
 3431ntf    on518522   5.821   3.525   0.229  0.1456  0.2655  0.1099
 3431ntf    fn418523   5.834   3.810   0.126 -0.5137 -0.1115  0.1007
 3431ntf    fn418524   5.713   3.672   0.017  0.0561 -0.0805 -0.2979
 3431ntf    fn418525   5.620   3.823   0.136 -0.0181 -0.0719  0.6959
 3432ntf    cn118526   5.261   4.004   1.653 -0.0083 -0.3664  0.5494
 3432ntf    sn218527   5.226   3.829   1.622 -0.2616 -0.2011 -0.1159
 3432ntf    nn318528   5.373   3.775   1.642 -0.2020  0.0430  0.1133
 3432ntf    sn218529   5.403   3.649   1.730  0.0244  0.0260  0.0111
 3432ntf    cn118530   5.454   3.725   1.887 -0.3438  0.0605  0.1153
 3432ntf    fn418531   5.151   4.075   1.632  0.5319  0.3904  0.2232
 3432ntf    fn418532   5.299   4.028   1.778 -0.0599  0.3777  0.4316
 3432ntf    fn418533   5.358   4.055   1.579 -0.3737 -0.4440  0.0209
 3432ntf    on518534   5.126   3.804   1.722 -0.0266  0.1017  0.1997
 3432ntf    on518535   5.181   3.824   1.485 -0.0271  0.2266 -0.2101
 3432ntf    on518536   5.523   3.586   1.681 -0.3623 -0.3597 -0.4551
 3432ntf    on518537   5.289   3.565   1.760  0.0583 -0.3774 -0.9531
 3432ntf    fn418538   5.377   3.824   1.930 -0.5136  0.0538 -0.1721
 3432ntf    fn418539   5.454   3.626   1.975  0.0399 -0.3993 -0.3937
 3432ntf    fn418540   5.581   3.763   1.884 -0.1879 -0.4387  0.2230
 3433ntf    cn118541   1.022   5.844   0.818  0.3427 -0.3982 -0.1576
 3433ntf    sn218542   1.009   5.930   0.978 -0.0293 -0.1139 -0.3410
 3433ntf    nn318543   1.030   5.816   1.083 -0.1438  0.0046 -0.1889
 3433ntf    sn218544   1.168   5.766   1.138  0.0714  0.5361 -0.2407
 3433ntf    cn118545   1.114   5.596   1.173  0.6255  0.3996 -0.0317
 3433ntf    fn418546   1.132   5.770   0.822  0.7514  0.1999 -0.1047
 3433ntf    fn418547   0.927   5.756   0.792  0.1076 -0.2280  0.1172
 3433ntf    fn418548   1.034   5.933   0.721  0.5381  0.0387  0.2597
 3433ntf    on518549   1.110   6.032   0.965 -0.1135 -0.0299 -0.3379
 3433ntf    on518550   0.870   5.972   0.982  0.0108 -0.0490  0.4830
 3433ntf    on518551   1.205   5.815   1.269 -0.1131 -0.2909  0.1264
 3433ntf    on518552   1.269   5.742   1.038  0.5798 -0.0498  0.4020
 3433ntf    fn418553   1.179   5.545   1.276  0.2783  0.4310  0.2039
 3433ntf    fn418554   0.984   5.588   1.196  0.5953  0.1305 -0.2871
 3433ntf    fn418555   1.130   5.516   1.069 -0.1305 -0.3158  0.3903
 3434ntf    cn118556   3.984   5.325   2.324  0.3829 -0.0967  0.4657
 3434ntf    sn218557   3.852   5.403   2.422  0.2083  0.0610  0.1098
 3434ntf    nn318558   3.800   5.494   2.306 -0.2847 -0.3097  0.0368
 3434ntf    sn218559   3.837   5.640   2.262 -0.0233 -0.3462  0.1351
 3434ntf    cn118560   3.919   5.621   2.101 -0.3871 -0.1187 -0.0787
 3434ntf    fn418561   4.067   5.417   2.277  0.3391 -0.0473  0.4838
 3434ntf    fn418562   4.057   5.244   2.398  0.0121 -0.5579  0.3277
 3434ntf    fn418563   3.936   5.254   2.223  0.3535  0.4810  0.0654
 3434ntf    on518564   3.769   5.288   2.448 -0.0566  0.2433  0.0682
 3434ntf    on518565   3.917   5.468   2.534  0.3598  0.2381 -0.0817
 3434ntf    on518566   3.924   5.704   2.357 -0.0521 -0.0844 -0.0124
 3434ntf    on518567   3.723   5.715   2.215  0.6889  0.5641 -0.1901
 3434ntf    fn418568   3.950   5.734   2.039 -0.4178 -0.1705 -0.1891
 3434ntf    fn418569   4.035   5.560   2.117 -0.1852  0.0923 -0.6885
 3434ntf    fn418570   3.846   5.545   2.021 -0.4256 -0.2557  0.0862
 3435ntf    cn118571   2.952   5.953   4.773  0.3647  0.6675  0.1070
 3435ntf    sn218572   2.931   5.830   4.641  0.3389  0.4654  0.2974
 3435ntf    nn318573   3.040   5.720   4.667 -0.0680  0.0519  0.2586
 3435ntf    sn218574   3.029   5.569   4.625 -0.2097  0.1781 -0.1655
 3435ntf    cn118575   3.143   5.496   4.747 -0.0397 -0.0855 -0.4822
 3435ntf    fn418576   2.890   5.920   4.886  0.1468  0.6733 -0.0106
 3435ntf    fn418577   3.079   5.988   4.791  0.4695  0.1468  0.4177
 3435ntf    fn418578   2.891   6.066   4.743 -0.2870  0.3042  0.0520
 3435ntf    on518579   2.793   5.793   4.662  0.3810  0.4221  0.4936
 3435ntf    on518580   2.952   5.900   4.516  0.6491  0.5372  0.3888
 3435ntf    on518581   3.085   5.539   4.496 -0.4488  0.1126 -0.2546
 3435ntf    on518582   2.902   5.510   4.660 -0.0743 -0.4159 -0.6677
 3435ntf    fn418583   3.266   5.545   4.740  0.0241 -0.1809 -0.0128
 3435ntf    fn418584   3.111   5.528   4.871  0.5612 -0.7493 -0.1519
 3435ntf    fn418585   3.150   5.365   4.731 -0.3562 -0.1440 -0.1339
 3436ntf    cn118586   2.325   7.172   2.736  0.4995  0.2727 -0.2396
 3436ntf    sn218587   2.206   7.144   2.601  0.1547 -0.2772  0.1773
 3436ntf    nn318588   2.292   7.044   2.517  0.0745 -0.4360  0.2819
 3436ntf    sn218589   2.379   7.072   2.389 -0.1897  0.1122  0.2223
 3436ntf    cn118590   2.251   7.067   2.260  0.0134 -0.2231  0.0335
 3436ntf    fn418591   2.417   7.255   2.689  0.4139  0.5455  0.0678
 3436ntf    fn418592   2.259   7.238   2.830  0.0381 -0.0764 -0.3119
 3436ntf    fn418593   2.375   7.059   2.781  0.7826  0.5467  0.1329
 3436ntf    on518594   2.101   7.072   2.670  0.1447 -0.3109  0.1270
 3436ntf    on518595   2.169   7.271   2.544  0.2263 -0.2863  0.1107
 3436ntf    on518596   2.466   6.963   2.354  0.1831  0.5081 -0.1106
 3436ntf    on518597   2.439   7.203   2.381  0.3749 -0.1610 -0.1109
 3436ntf    fn418598   2.293   7.105   2.140  0.1510 -0.7488 -0.0861
 3436ntf    fn418599   2.201   6.945   2.255 -0.2956 -0.1270  0.6871
 3436ntf    fn418600   2.146   7.139   2.295  0.0863 -0.2814  0.3715
 3437ntf    cn118601   3.180   0.420   5.235  0.1443  0.2431 -0.3559
 3437ntf    sn218602   3.300   0.288   5.201  0.0240  0.0726 -0.1254
 3437ntf    nn318603   3.299   0.209   5.337  0.0179  0.0593 -0.1329
 3437ntf    sn218604   3.404   0.222   5.453 -0.2634  0.0517  0.1231
 3437ntf    cn118605   3.532   0.105   5.400 -0.5328 -0.0183 -0.3842
 3437ntf    fn418606   3.057   0.374   5.215  0.3224 -0.3459 -0.1260
 3437ntf    fn418607   3.188   0.461   5.361 -0.0572  0.5241 -0.4327
 3437ntf    fn418608   3.188   0.521   5.151 -0.2645  0.0361 -0.6481
 3437ntf    on518609   3.242   0.217   5.090 -0.0300  0.3599 -0.2802
 3437ntf    on518610   3.418   0.365   5.172 -0.1322  0.4411  0.2140
 3437ntf    on518611   3.352   0.162   5.573 -0.6362  0.2670  0.0724
 3437ntf    on518612   3.471   0.349   5.470 -0.3821  0.1756 -0.3118
 3437ntf    fn418613   3.572   0.115   5.274 -0.6069  0.1323 -0.3955
 3437ntf    fn418614   3.640   0.116   5.476 -0.4329 -0.2456 -0.4916
 3437ntf    fn418615   3.492  -0.020   5.420  0.5158 -0.3240 -0.1242
 3438ntf    cn118616   6.038   3.829   1.738  0.3230  0.0868  0.0838
 3438ntf    sn218617   6.140   3.696   1.668 -0.1120 -0.3450  0.2644
 3438ntf    nn318618   6.144   3.602   1.794  0.2718 -0.0559  0.4685
 3438ntf    sn218619   6.084   3.460   1.823  0.0876 -0.0657  0.0404
 3438ntf    cn118620   6.193   3.405   1.957 -0.0395 -0.1134  0.1241
 3438ntf    fn418621   6.094   3.890   1.842  0.1986 -0.2351  0.3437
 3438ntf    fn418622   6.030   3.918   1.641  0.4427 -0.2598 -0.2460
 3438ntf    fn418623   5.914   3.787   1.759  0.4359 -0.0591  0.4791
 3438ntf    on518624   6.049   3.661   1.561 -0.3567  0.1282  0.3159
 3438ntf    on518625   6.273   3.741   1.635 -0.1151 -0.4540  0.1023
 3438ntf    on518626   6.096   3.367   1.713  0.0726 -0.5591  0.4572
 3438ntf    on518627   5.952   3.470   1.880 -0.1354 -0.3293 -0.4165
 3438ntf    fn418628   6.158   3.290   2.011  0.0899 -0.0436  0.3621
 3438ntf    fn418629   6.320   3.392   1.921  0.0205  0.1243  0.2452
 3438ntf    fn418630   6.198   3.503   2.047  0.1057 -0.3689  0.3947
 3439ntf    cn118631   4.628   1.322   6.096  0.6616 -0.0804  0.1471
 3439ntf    sn218632   4.585   1.246   6.256  0.0283 -0.1441 -0.0463
 3439ntf    nn318633   4.681   1.123   6.273  0.1609 -0.0320  0.0156
 3439ntf    sn218634   4.673   0.970   6.242 -0.0406  0.0430 -0.3016
 3439ntf    cn118635   4.612   0.905   6.401  0.1517 -0.4111 -0.4101
 3439ntf    fn418636   4.577   1.443   6.081  0.2762 -0.2118  0.3698
 3439ntf    fn418637   4.757   1.331   6.073  0.5750  0.0890 -0.2758
 3439ntf    fn418638   4.589   1.246   5.995  0.8471 -0.3161  0.2492
 3439ntf    on518639   4.617   1.348   6.354  0.5079 -0.4202  0.0921
 3439ntf    on518640   4.447   1.208   6.246 -0.1221  0.3956 -0.0611
 3439ntf    on518641   4.804   0.912   6.226  0.1555  0.3128  0.3261
 3439ntf    on518642   4.570   0.940   6.146 -0.1771 -0.8691  0.1135
 3439ntf    fn418643   4.704   0.919   6.496 -0.2319  0.0669 -0.1066
 3439ntf    fn418644   4.512   0.983   6.439  0.0060 -0.5332 -0.5420
 3439ntf    fn418645   4.571   0.780   6.400  0.1982 -0.4288 -0.1186
 3440ntf    cn118646   0.933   6.430   1.853  0.0969 -0.0730 -0.0396
 3440ntf    sn218647   0.996   6.277   1.779  0.2280 -0.3169  0.5670
 3440ntf    nn318648   1.043   6.334   1.640  0.4811 -0.3051  0.6559
 3440ntf    sn218649   1.175   6.411   1.604  0.0276  0.2187  0.0909
 3440ntf    cn118650   1.249   6.283   1.496  0.0034  0.1754  0.1254
 3440ntf    fn418651   0.848   6.420   1.954 -0.5090  0.8184 -0.4472
 3440ntf    fn418652   1.031   6.497   1.913  0.2252 -0.4498  0.1748
 3440ntf    fn418653   0.876   6.510   1.765 -0.0509  0.2936  0.3830
 3440ntf    on518654   1.096   6.243   1.878  0.4860 -0.4710  0.2576
 3440ntf    on518655   0.878   6.195   1.770  0.2125 -0.2081 -0.3725
 3440ntf    on518656   1.278   6.423   1.704 -0.0145 -0.2865  0.1979
 3440ntf    on518657   1.153   6.525   1.518 -0.4018 -0.1802 -0.3397
 3440ntf    fn418658   1.378   6.306   1.482  0.0850 -0.1768  0.2870
 3440ntf    fn418659   1.247   6.164   1.553  0.3673  0.0793 -0.0595
 3440ntf    fn418660   1.188   6.277   1.379 -0.2690  0.5924  0.2406
 3441ntf    cn118661   6.329   3.844   5.471  0.1640  0.5907  0.8184
 3441ntf    sn218662   6.363   3.723   5.603  0.4906  0.1948  0.3757
 3441ntf    nn318663   6.219   3.713   5.664  0.2829  0.0431 -0.1367
 3441ntf    sn218664   6.139   3.582   5.697  0.2416  0.1088  0.0219
 3441ntf    cn118665   6.054   3.547   5.540  0.1532  0.0487  0.0827
 3441ntf    fn418666   6.434   3.846   5.391 -0.3148 -0.0963  0.1526
 3441ntf    fn418667   6.235   3.799   5.390  0.9516 -0.6309  0.5547
 3441ntf    fn418668   6.295   3.965   5.511  0.2447  0.9952 -0.2967
 3441ntf    on518669   6.403   3.604   5.532  0.3024  0.4795 -0.2103
 3441ntf    on518670   6.456   3.793   5.688  0.4759  0.2804  0.3208
 3441ntf    on518671   6.031   3.617   5.787  0.3248  0.0226  0.1559
 3441ntf    on518672   6.208   3.461   5.734  0.0255  0.1288  0.5029
 3441ntf    fn418673   5.961   3.641   5.527 -0.2926 -0.3404  0.4060
 3441ntf    fn418674   6.139   3.558   5.439 -0.2717  0.3817 -0.2435
 3441ntf    fn418675   5.988   3.433   5.532  0.1847  0.0590 -0.3468
 3442ntf    cn118676   1.492   6.937   4.103 -0.2019 -0.0766 -0.1170
 3442ntf    sn218677   1.623   6.836   4.026  0.0641  0.1235  0.0695
 3442ntf    nn318678   1.604   6.705   4.110 -0.3083  0.1800  0.0767
 3442ntf    sn218679   1.527   6.573   4.073 -0.1642  0.1699 -0.1880
 3442ntf    cn118680   1.656   6.462   4.007 -0.3110 -0.0932 -0.0330
 3442ntf    fn418681   1.500   6.939   4.235 -0.3380  0.0003 -0.1105
 3442ntf    fn418682   1.481   7.062   4.060  0.1876 -0.1557 -0.4522
 3442ntf    fn418683   1.370   6.889   4.083 -0.0750 -0.5721  0.2799
 3442ntf    on518684   1.592   6.821   3.885 -0.0115 -0.4684  0.1471
 3442ntf    on518685   1.749   6.892   4.066  0.1836 -0.2088  0.1579
 3442ntf    on518686   1.440   6.574   3.958  0.2790 -0.6551 -0.5345
 3442ntf    on518687   1.488   6.500   4.191 -0.1231  0.3276 -0.0764
 3442ntf    fn418688   1.761   6.448   4.086  0.2398  0.7684 -0.5985
 3442ntf    fn418689   1.598   6.347   3.979  0.0706 -0.3561  0.2416
 3442ntf    fn418690   1.702   6.501   3.889  0.7033 -0.3881  0.2569
 3443ntf    cn118691   4.080   1.768   2.025  0.0773  0.1001  0.5030
 3443ntf    sn218692   3.951   1.647   1.982 -0.0916  0.2937  0.4642
 3443ntf    nn318693   3.840   1.695   2.082 -0.5286 -0.4280  0.3305
 3443ntf    sn218694   3.694   1.748   2.056 -0.2441  0.2156  0.0150
 3443ntf    cn118695   3.622   1.658   2.196 -0.2134  0.0038 -0.1050
 3443ntf    fn418696   4.122   1.753   2.150  0.5534 -0.1655  0.3153
 3443ntf    fn418697   4.190   1.755   1.952 -0.1189 -0.2561  0.2684
 3443ntf    fn418698   4.034   1.891   2.017  0.1626  0.1137  0.2071
 3443ntf    on518699   3.904   1.662   1.847  0.4681 -1.0082  0.1132
 3443ntf    on518700   4.021   1.527   2.020  0.4432  0.4163 -0.1183
 3443ntf    on518701   3.620   1.680   1.952 -0.8898  0.4671  0.3039
 3443ntf    on518702   3.664   1.886   2.085  0.2549  0.3427 -0.0581
 3443ntf    fn418703   3.495   1.693   2.211 -0.1204  0.3367 -0.0941
 3443ntf    fn418704   3.625   1.527   2.174  0.7682  0.0039 -0.0028
 3443ntf    fn418705   3.690   1.673   2.308 -0.0691  0.5728 -0.2658
 3444ntf    cn118706   6.568   4.614   7.134  0.0306  0.2257  0.1021
 3444ntf    sn218707   6.702   4.495   7.165 -0.0119  0.1755  0.0935
 3444ntf    nn318708   6.665   4.373   7.074 -0.6757  0.4462 -0.0038
 3444ntf    sn218709   6.629   4.231   7.129 -0.0157  0.3678  0.2358
 3444ntf    cn118710   6.787   4.167   7.191 -0.1075  0.2009  0.3015
 3444ntf    fn418711   6.452   4.552   7.127  0.0383  0.2128  0.0936
 3444ntf    fn418712   6.563   4.701   7.233  0.3601 -0.1533  0.4541
 3444ntf    fn418713   6.571   4.674   7.016  0.2892  0.3090  0.1497
 3444ntf    on518714   6.817   4.559   7.105 -0.1699 -0.1910 -0.6071
 3444ntf    on518715   6.693   4.473   7.307 -0.2733 -0.4171 -0.0126
 3444ntf    on518716   6.591   4.140   7.024 -0.4470  0.4560  0.3104
 3444ntf    on518717   6.538   4.233   7.241 -0.3480  0.1185 -0.0247
 3444ntf    fn418718   6.793   4.037   7.167 -0.2772  0.1122  0.7337
 3444ntf    fn418719   6.892   4.223   7.133  0.0583 -0.4736 -0.0619
 3444ntf    fn418720   6.800   4.184   7.322 -0.2404 -0.5823  0.4231
 3445ntf    cn118721   0.507   2.953   3.328 -0.2344  0.2611  0.2290
 3445ntf    sn218722   0.522   2.861   3.484 -0.0528 -0.1531 -0.0293
 3445ntf    nn318723   0.387   2.782   3.479 -0.3048  0.2747 -0.0873
 3445ntf    sn218724   0.370   2.633   3.430 -0.1066  0.3268 -0.3151
 3445ntf    cn118725   0.383   2.538   3.584 -0.1391  0.2812 -0.3404
 3445ntf    fn418726   0.507   2.875   3.221 -0.8904  0.3836  0.1380
 3445ntf    fn418727   0.390   3.015   3.324 -0.5404 -0.3131  0.1972
 3445ntf    fn418728   0.605   3.041   3.314  0.0202 -0.0770 -0.1755
 3445ntf    on518729   0.649   2.795   3.464 -0.0083  0.0027 -0.2578
 3445ntf    on518730   0.514   2.962   3.587 -0.4744 -0.1121 -0.1017
 3445ntf    on518731   0.467   2.579   3.338  0.3814  0.2544  0.2324
 3445ntf    on518732   0.232   2.606   3.398  0.0420 -0.2173 -0.5005
 3445ntf    fn418733   0.495   2.560   3.652 -0.2568  0.3748 -0.1762
 3445ntf    fn418734   0.281   2.576   3.660  0.0369  0.2082 -0.0630
 3445ntf    fn418735   0.371   2.408   3.563 -0.1008  0.2952 -0.4487
 3446ntf    cn118736   3.167   1.265   2.611 -0.0138  0.1587  0.1743
 3446ntf    sn218737   3.318   1.251   2.712  0.0370  0.2203  0.1061
 3446ntf    nn318738   3.420   1.247   2.593  0.4042 -0.8499  0.4470
 3446ntf    sn218739   3.570   1.293   2.595  0.1007  0.1931 -0.1685
 3446ntf    cn118740   3.572   1.442   2.489  0.4755 -0.0160 -0.4604
 3446ntf    fn418741   3.127   1.151   2.557  0.0268  0.3420 -0.2448
 3446ntf    fn418742   3.058   1.318   2.666 -0.2675  0.0347 -0.2067
 3446ntf    fn418743   3.191   1.342   2.506  0.0489  0.1865  0.2091
 3446ntf    on518744   3.310   1.369   2.795 -0.4104 -0.0320  0.4224
 3446ntf    on518745   3.305   1.123   2.776 -0.6795  0.3567  0.2483
 3446ntf    on518746   3.658   1.203   2.524  0.0155 -0.3362  0.3974
 3446ntf    on518747   3.619   1.337   2.723  0.2486 -0.6135  0.0538
 3446ntf    fn418748   3.502   1.543   2.538  1.0662  0.2283 -0.1081
 3446ntf    fn418749   3.692   1.490   2.464  0.7595 -0.1841  0.5323
 3446ntf    fn418750   3.528   1.418   2.367  0.3667 -0.3162 -0.3631
 3447ntf    cn118751   6.273   4.577   5.380 -0.0166 -0.3560  0.5178
 3447ntf    sn218752   6.446   4.527   5.356 -0.0670 -0.2941  0.0068
 3447ntf    nn318753   6.429   4.432   5.233 -0.3208 -0.1809 -0.0443
 3447ntf    sn218754   6.425   4.275   5.239 -0.3430 -0.1857 -0.1652
 3447ntf    cn118755   6.364   4.240   5.072 -0.1644  0.0487 -0.2808
 3447ntf    fn418756   6.198   4.475   5.416 -0.2125 -0.6129 -0.5708
 3447ntf    fn418757   6.253   4.667   5.475 -0.1141  0.0621  0.1052
 3447ntf    fn418758   6.232   4.629   5.265  0.1874 -0.0497  0.5846
 3447ntf    on518759   6.513   4.649   5.318  0.0492 -0.3537  0.0185
 3447ntf    on518760   6.495   4.476   5.481 -0.6484 -0.1371  0.3015
 3447ntf    on518761   6.320   4.227   5.325  0.0554 -0.3716  0.2266
 3447ntf    on518762   6.554   4.210   5.240 -0.3050 -0.1142 -0.3639
 3447ntf    fn418763   6.256   4.313   5.047  0.0660  0.3942 -0.2593
 3447ntf    fn418764   6.446   4.273   4.973 -0.0054 -0.3216 -0.2750
 3447ntf    fn418765   6.320   4.117   5.047 -0.3324 -0.1531  0.9503
 3448ntf    cn118766   1.721   0.797   7.012 -0.0067  0.1015  0.0115
 3448ntf    sn218767   1.876   0.878   7.063  0.0419 -0.0205  0.0571
 3448ntf    nn318768   1.975   0.755   7.059 -0.1539 -0.1668 -0.3667
 3448ntf    sn218769   2.082   0.704   6.956  0.2606 -0.0018 -0.0196
 3448ntf    cn118770   2.232   0.790   7.011  0.1941 -0.0400  0.2224
 3448ntf    fn418771   1.680   0.702   7.094 -0.0156  0.1190  0.0270
 3448ntf    fn418772   1.622   0.878   6.981 -0.6335 -0.5041  0.4177
 3448ntf    fn418773   1.740   0.737   6.896 -0.2932 -0.3100  0.1745
 3448ntf    on518774   1.898   0.982   6.965  0.8149 -0.0306  0.2089
 3448ntf    on518775   1.843   0.919   7.197 -0.5996 -0.0964 -0.0746
 3448ntf    on518776   2.066   0.736   6.817  0.3053  0.6927  0.1328
 3448ntf    on518777   2.114   0.566   6.980  0.2191  0.0325  0.2430
 3448ntf    fn418778   2.257   0.753   7.136 -0.5796  0.3402  0.4930
 3448ntf    fn418779   2.337   0.753   6.939  0.1302  0.9535 -0.4011
 3448ntf    fn418780   2.229   0.922   7.014  0.3106 -0.0201 -0.4059
 3449ntf    cn118781   5.666   1.359   5.775 -0.4723 -0.1517  0.1680
 3449ntf    sn218782   5.684   1.210   5.672 -0.0467 -0.0896  0.1527
 3449ntf    nn318783   5.817   1.231   5.592  0.0825  0.2448  0.4525
 3449ntf    sn218784   5.913   1.130   5.519  0.0067  0.5305 -0.0466
 3449ntf    cn118785   5.899   1.184   5.346  0.0202  0.3648 -0.1001
 3449ntf    fn418786   5.621   1.465   5.710  0.4262 -0.0335 -0.2733
 3449ntf    fn418787   5.577   1.338   5.870 -0.3616  0.1606  0.3384
 3449ntf    fn418788   5.779   1.402   5.827 -0.1710 -0.1702 -0.4625
 3449ntf    on518789   5.690   1.104   5.770 -0.1603  0.0219  0.2791
 3449ntf    on518790   5.565   1.208   5.591 -0.0778 -0.2227  0.2004
 3449ntf    on518791   5.865   0.994   5.511 -0.0166  0.5496 -0.2396
 3449ntf    on518792   6.053   1.140   5.553 -0.0521  0.3030  0.2727
 3449ntf    fn418793   5.997   1.129   5.277  0.4090  0.1826  0.5920
 3449ntf    fn418794   5.784   1.153   5.289  0.2067 -0.1535 -0.1972
 3449ntf    fn418795   5.919   1.312   5.321 -0.5721  0.4169 -0.3120
 3450ntf    cn118796   5.333   0.418   4.894  0.2463  0.0962  0.0419
 3450ntf    sn218797   5.336   0.240   4.858 -0.0180  0.1806 -0.3998
 3450ntf    nn318798   5.355   0.242   4.702 -0.2145 -0.3412 -0.4312
 3450ntf    sn218799   5.491   0.228   4.625  0.1712  0.0837  0.1654
 3450ntf    cn118800   5.419   0.181   4.465 -0.2085  0.6118  0.1814
 3450ntf    fn418801   5.247   0.481   4.815  0.5169  0.1110 -0.2427
 3450ntf    fn418802   5.303   0.428   5.023  0.1934 -0.0262  0.0385
 3450ntf    fn418803   5.454   0.470   4.879  0.3202 -0.0873  0.0065
 3450ntf    on518804   5.454   0.189   4.924  0.0976  0.0447 -0.7078
 3450ntf    on518805   5.202   0.199   4.889  0.1571 -0.2919 -0.2574
 3450ntf    on518806   5.577   0.115   4.651  0.1270  0.1112  0.4284
 3450ntf    on518807   5.549   0.355   4.588 -0.1691  0.0886 -0.3599
 3450ntf    fn418808   5.348   0.277   4.407  0.0268  0.1910 -0.8130
 3450ntf    fn418809   5.512   0.159   4.374 -0.2973  0.2683  0.1718
 3450ntf    fn418810   5.342   0.073   4.471  0.3981  0.2006  0.5493
 3451ntf    cn118811   4.106   2.260   5.369  0.0474 -0.1762 -0.0354
 3451ntf    sn218812   4.240   2.137   5.358 -0.1463 -0.3587 -0.3399
 3451ntf    nn318813   4.309   2.163   5.496  0.0908  0.2746 -0.5746
 3451ntf    sn218814   4.458   2.154   5.544 -0.1369 -0.3411  0.0409
 3451ntf    cn118815   4.491   2.328   5.588 -0.2885 -0.1827 -0.4671
 3451ntf    fn418816   4.053   2.286   5.251  0.5010 -0.1088 -0.2279
 3451ntf    fn418817   4.015   2.232   5.461 -0.1541  0.4563 -0.0360
 3451ntf    fn418818   4.155   2.378   5.404  0.3646 -0.1872 -0.4344
 3451ntf    on518819   4.176   2.007   5.357  0.1415 -0.5064  0.1929
 3451ntf    on518820   4.305   2.187   5.239 -0.2475  0.0848 -0.2105
 3451ntf    on518821   4.555   2.120   5.443  0.2987 -0.0741  0.3635
 3451ntf    on518822   4.471   2.080   5.667 -0.4848  0.0613  0.3256
 3451ntf    fn418823   4.623   2.343   5.589 -0.3078 -0.0064 -0.4804
 3451ntf    fn418824   4.452   2.415   5.496 -0.2973 -0.1866 -0.4674
 3451ntf    fn418825   4.441   2.371   5.702  0.3670 -0.2564 -0.1443
 3452ntf    cn118826   5.049   3.768   0.139  0.1088 -0.0965 -0.1080
 3452ntf    sn218827   4.960   3.674   0.266  0.0777 -0.3090 -0.2879
 3452ntf    nn318828   5.056   3.550   0.284  0.4388  0.0655  0.4172
 3452ntf    sn218829   5.018   3.403   0.244 -0.0114  0.2170  0.2733
 3452ntf    cn118830   5.151   3.310   0.326 -0.0199  0.1425  0.2017
 3452ntf    fn418831   4.999   3.889   0.121  0.7066  0.1643 -0.0448
 3452ntf    fn418832   5.176   3.789   0.171 -0.0459 -0.1010  0.5207
 3452ntf    fn418833   5.047   3.707   0.022  0.0284 -0.2553 -0.0237
 3452ntf    on518834   4.961   3.759   0.382 -0.3347  0.0614 -0.5554
 3452ntf    on518835   4.826   3.648   0.219 -0.0137 -0.5030  0.0733
 3452ntf    on518836   5.044   3.359   0.110  0.0041 -0.1055  0.3810
 3452ntf    on518837   4.908   3.348   0.320  0.0726 -0.3413 -0.0073
 3452ntf    fn418838   5.274   3.343   0.290  0.0113 -0.1163  0.0644
 3452ntf    fn418839   5.143   3.339   0.455  0.1604  0.1242  0.2171
 3452ntf    fn418840   5.143   3.180   0.303  0.9199  0.1789 -0.3945
 3453ntf    cn118841   5.677   1.331   6.642 -0.3379  0.2014  0.0876
 3453ntf    sn218842   5.549   1.456   6.676 -0.4570  0.1121 -0.0307
 3453ntf    nn318843   5.638   1.580   6.714 -0.5653  0.0827  0.3207
 3453ntf    sn218844   5.686   1.637   6.853  0.3427  0.1943 -0.0329
 3453ntf    cn118845   5.611   1.803   6.850 -0.6292 -0.2409 -0.0636
 3453ntf    fn418846   5.631   1.230   6.570  0.3346  0.0865 -0.1822
 3453ntf    fn418847   5.786   1.380   6.585  0.0272 -0.5375  0.1528
 3453ntf    fn418848   5.721   1.275   6.754  0.0363 -0.0531 -0.1859
 3453ntf    on518849   5.491   1.472   6.545 -0.0569 -0.0336 -0.2261
 3453ntf    on518850   5.465   1.402   6.780 -0.2097  0.3708  0.3068
 3453ntf    on518851   5.826   1.669   6.843  0.2656  0.4457 -0.3480
 3453ntf    on518852   5.635   1.572   6.971  0.6272 -0.2679 -0.1599
 3453ntf    fn418853   5.650   1.876   6.747 -0.2550 -0.3853 -0.0273
 3453ntf    fn418854   5.479   1.795   6.857 -0.6271  0.2413  0.6333
 3453ntf    fn418855   5.645   1.874   6.956  0.1299 -0.0384 -0.4410
 3454ntf    cn118856   4.627   6.856   2.077 -0.3448 -0.4490 -0.3234
 3454ntf    sn218857   4.714   6.855   1.917  0.2212  0.0663 -0.0233
 3454ntf    nn318858   4.721   7.007   1.877  0.0193  0.0413 -0.1551
 3454ntf    sn218859   4.596   7.095   1.842 -0.2235 -0.2224  0.0414
 3454ntf    cn118860   4.679   7.223   1.743 -0.2532 -0.3188 -0.1067
 3454ntf    fn418861   4.504   6.903   2.068 -0.1198  0.2772  0.2402
 3454ntf    fn418862   4.607   6.739   2.137 -0.4516 -0.0724  0.3888
 3454ntf    fn418863   4.688   6.935   2.164  0.6072 -0.3214 -1.0890
 3454ntf    on518864   4.840   6.801   1.960 -0.0028 -0.6722 -0.2809
 3454ntf    on518865   4.628   6.766   1.843  0.5036 -0.7096  0.5641
 3454ntf    on518866   4.525   7.163   1.948 -0.2131 -1.2543  0.7211
 3454ntf    on518867   4.508   7.032   1.748  0.2428 -0.2456 -0.3816
 3454ntf    fn418868   4.674   7.195   1.614 -0.7808  0.1224 -0.1870
 3454ntf    fn418869   4.621   7.340   1.763 -0.4766 -0.4918  0.2639
 3454ntf    fn418870   4.804   7.245   1.781 -0.2317 -0.0079 -0.3553
 3455ntf    cn118871   6.317   6.670   3.121 -0.1203  0.3927 -0.0299
 3455ntf    sn218872   6.170   6.572   3.161 -0.0928  0.2889 -0.1811
 3455ntf    nn318873   6.214   6.432   3.103  0.0059  0.2142  0.0715
 3455ntf    sn218874   6.159   6.340   2.989 -0.3634  0.2138  0.2448
 3455ntf    cn118875   6.027   6.255   3.080  0.1092 -0.8917 -0.0844
 3455ntf    fn418876   6.334   6.683   2.990  0.3930  0.5647  0.0499
 3455ntf    fn418877   6.317   6.792   3.172  0.2147  0.4081 -0.0627
 3455ntf    fn418878   6.432   6.614   3.153 -0.5595 -0.2962  0.3637
 3455ntf    on518879   6.154   6.561   3.304 -0.1634 -0.5231 -0.2449
 3455ntf    on518880   6.066   6.635   3.083 -0.3083  0.5060  0.2739
 3455ntf    on518881   6.247   6.230   2.956 -0.4345  0.3043 -0.2469
 3455ntf    on518882   6.091   6.400   2.877  0.5736  0.4182 -0.2270
 3455ntf    fn418883   5.928   6.333   3.120  0.2987 -0.4046 -0.5631
 3455ntf    fn418884   5.964   6.164   3.008 -0.4741 -0.7340  0.2227
 3455ntf    fn418885   6.070   6.194   3.189  0.1432 -0.7280 -0.0072
 3456ntf    cn118886   1.094   3.870   1.025 -0.1440 -0.3277 -0.0192
 3456ntf    sn218887   1.096   3.858   1.207  0.0373  0.2649  0.0208
 3456ntf    nn318888   1.246   3.880   1.247  0.1927 -0.0112 -0.4067
 3456ntf    sn218889   1.337   4.008   1.254 -0.0480  0.1251  0.3294
 3456ntf    cn118890   1.340   4.030   1.434 -0.0194  0.1930  0.3205
 3456ntf    fn418891   1.141   3.761   0.967  0.3872 -0.0553 -0.1113
 3456ntf    fn418892   0.972   3.894   0.981 -0.2077 -0.3000  0.1676
 3456ntf    fn418893   1.163   3.977   0.987  0.1297 -0.3649  0.3583
 3456ntf    on518894   1.005   3.962   1.249  0.0763  0.2058  0.2514
 3456ntf    on518895   1.048   3.725   1.230  0.8935 -0.0974 -0.2450
 3456ntf    on518896   1.289   4.128   1.189  0.1902  0.2445  0.3755
 3456ntf    on518897   1.474   3.974   1.225 -0.0491  0.3035  0.1083
 3456ntf    fn418898   1.432   3.950   1.485 -0.0183  0.1560  0.2611
 3456ntf    fn418899   1.374   4.152   1.473 -0.3455  0.1648  0.7000
 3456ntf    fn418900   1.226   4.003   1.495 -0.2762  0.2076 -0.1451
 3457ntf    cn118901   5.789   6.642   2.567 -0.1256 -0.0007 -0.3238
 3457ntf    sn218902   5.907   6.616   2.431  0.0202  0.1825 -0.2326
 3457ntf    nn318903   5.809   6.542   2.333  0.1972  0.2652 -0.4745
 3457ntf    sn218904   5.791   6.387   2.310  0.0089  0.2009  0.0774
 3457ntf    cn118905   5.656   6.348   2.425 -0.5365  0.4107 -0.4905
 3457ntf    fn418906   5.719   6.752   2.546 -0.0637  0.0629 -0.1991
 3457ntf    fn418907   5.707   6.542   2.595  0.0425 -0.2086 -0.5648
 3457ntf    fn418908   5.858   6.669   2.676  0.1888 -0.2359 -0.4615
 3457ntf    on518909   5.928   6.750   2.383  0.1426  0.0731 -0.4897
 3457ntf    on518910   6.017   6.541   2.487 -0.4939 -0.2119  0.2604
 3457ntf    on518911   5.899   6.301   2.351  0.1519  0.2186 -0.2571
 3457ntf    on518912   5.748   6.353   2.177 -0.0734  0.1720  0.1114
 3457ntf    fn418913   5.567   6.446   2.428  0.0125  0.8927  0.4585
 3457ntf    fn418914   5.600   6.232   2.393  0.0499  0.0072 -0.0676
 3457ntf    fn418915   5.689   6.340   2.552  0.3005  0.2832 -0.7107
 3458ntf    cn118916   1.659   1.090   1.740 -0.6147  0.0885  0.0267
 3458ntf    sn218917   1.569   0.999   1.870 -0.1085 -0.2642  0.1307
 3458ntf    nn318918   1.422   1.014   1.818  0.0790  0.0847 -0.3050
 3458ntf    sn218919   1.319   0.913   1.756 -0.2131  0.1563  0.0640
 3458ntf    cn118920   1.248   0.853   1.913  0.1054 -0.3155  0.0281
 3458ntf    fn418921   1.782   1.125   1.772 -0.5007 -0.6166  0.3767
 3458ntf    fn418922   1.666   1.020   1.628 -0.2256  0.1573  0.0080
 3458ntf    fn418923   1.593   1.200   1.707  0.0590  0.4630 -0.0795
 3458ntf    on518924   1.622   0.867   1.848 -0.1805 -0.2492 -0.1439
 3458ntf    on518925   1.584   1.066   1.996 -0.2065  0.0537 -0.0259
 3458ntf    on518926   1.370   0.793   1.696 -0.4782  0.1178 -0.0887
 3458ntf    on518927   1.215   0.990   1.691 -0.0136  0.4505  0.0915
 3458ntf    fn418928   1.144   0.776   1.888 -0.0521  0.1113 -0.6717
 3458ntf    fn418929   1.329   0.783   1.991  0.4064  0.0688  0.0661
 3458ntf    fn418930   1.201   0.951   1.988  0.7400  0.4865 -0.5878
 3459ntf    cn118931   1.787   1.643   4.271 -0.4432 -0.3575 -0.4921
 3459ntf    sn218932   1.921   1.602   4.155  0.0328 -0.0174 -0.0674
 3459ntf    nn318933   2.009   1.511   4.248  0.0030  0.1155  0.0913
 3459ntf    sn218934   2.042   1.358   4.246 -0.1039  0.0944 -0.0747
 3459ntf    cn118935   2.219   1.361   4.205 -0.1141  0.2667 -0.1071
 3459ntf    fn418936   1.681   1.701   4.218 -0.0785  0.4808 -0.3130
 3459ntf    fn418937   1.744   1.530   4.326  0.2302 -0.3242  0.1207
 3459ntf    fn418938   1.822   1.716   4.376 -1.1080 -0.4901 -0.1729
 3459ntf    on518939   1.863   1.537   4.040  0.3867 -0.6117  0.0892
 3459ntf    on518940   1.981   1.732   4.137  0.2363 -0.0456  0.3934
 3459ntf    on518941   1.974   1.273   4.151  0.3165 -0.5541  0.1967
 3459ntf    on518942   2.036   1.308   4.381 -0.0747  0.3551  0.0228
 3459ntf    fn418943   2.239   1.427   4.092  0.4729  0.1042 -0.1010
 3459ntf    fn418944   2.290   1.422   4.299 -0.1946 -0.1986  0.2572
 3459ntf    fn418945   2.274   1.241   4.192  0.0566  0.2942  0.3421
 3460ntf    cn118946   2.634   2.950   0.465 -0.2016 -0.1692 -0.7808
 3460ntf    sn218947   2.767   3.074   0.452 -0.3179  0.0358 -0.0687
 3460ntf    nn318948   2.690   3.208   0.425 -0.2709 -0.0305 -0.5308
 3460ntf    sn218949   2.740   3.347   0.371 -0.3157  0.2516  0.1436
 3460ntf    cn118950   2.784   3.424   0.529 -0.0406  0.5028 -0.0548
 3460ntf    fn418951   2.680   2.826   0.458 -0.2188 -0.1915 -0.5226
 3460ntf    fn418952   2.582   2.962   0.586  0.1763 -0.4435 -0.5879
 3460ntf    fn418953   2.525   2.965   0.392 -0.3371  0.7042 -0.4127
 3460ntf    on518954   2.831   3.075   0.581 -0.1570 -0.2632 -0.1430
 3460ntf    on518955   2.847   3.028   0.341 -0.0868 -0.2510  0.2137
 3460ntf    on518956   2.637   3.434   0.320  0.0258  0.1490 -0.7523
 3460ntf    on518957   2.865   3.348   0.299 -0.3654  0.3194  0.0573
 3460ntf    fn418958   2.870   3.349   0.596 -0.4489  0.3454  0.2926
 3460ntf    fn418959   2.832   3.547   0.514  0.1259  0.4095 -0.3025
 3460ntf    fn418960   2.674   3.426   0.602 -0.0941  0.6304 -0.1378
 3461ntf    cn118961   2.008   2.625   3.398 -0.5127 -0.2938  0.1624
 3461ntf    sn218962   2.055   2.522   3.540  0.4465  0.1934  0.2091
 3461ntf    nn318963   2.116   2.395   3.470 -0.2976 -0.1339  0.1464
 3461ntf    sn218964   2.257   2.349   3.417 -0.3829  0.0887 -0.2787
 3461ntf    cn118965   2.216   2.251   3.270  0.0534 -0.5720  0.0363
 3461ntf    fn418966   2.122   2.647   3.334 -0.3255  0.7342  0.8142
 3461ntf    fn418967   1.924   2.576   3.310 -0.3562  0.4758 -0.4252
 3461ntf    fn418968   1.962   2.744   3.435 -0.2503 -0.2465  0.3460
 3461ntf    on518969   2.141   2.606   3.620  0.2052  0.1971  0.4668
 3461ntf    on518970   1.932   2.487   3.605  0.5134 -0.4642 -0.0099
 3461ntf    on518971   2.316   2.251   3.505  0.1231  1.1302  0.5585
 3461ntf    on518972   2.339   2.456   3.366 -0.5983  0.4529  0.1303
 3461ntf    fn418973   2.106   2.286   3.205  0.5352  0.3579 -0.2863
 3461ntf    fn418974   2.310   2.256   3.177  0.0641 -0.0429  0.0713
 3461ntf    fn418975   2.203   2.124   3.305 -0.0042 -0.5187  0.2091
 3462ntf    cn118976   0.576   4.063   5.391 -0.1284 -0.1716  0.2684
 3462ntf    sn218977   0.577   3.904   5.303 -0.0279  0.0959 -0.2222
 3462ntf    nn318978   0.525   3.951   5.163 -0.2310  0.4275 -0.0358
 3462ntf    sn218979   0.452   3.862   5.056  0.0041  0.2281 -0.0299
 3462ntf    cn118980   0.526   3.936   4.908  0.0677 -0.2427 -0.2338
 3462ntf    fn418981   0.453   4.099   5.423 -0.1028 -0.1400  0.3301
 3462ntf    fn418982   0.643   4.063   5.504  0.2991  0.4446  0.0223
 3462ntf    fn418983   0.626   4.158   5.314 -0.5039  0.3335  0.6423
 3462ntf    on518984   0.716   3.870   5.290  0.0377  0.3266 -0.1146
 3462ntf    on518985   0.488   3.822   5.383  0.1460  0.2562  0.1377
 3462ntf    on518986   0.310   3.889   5.048 -0.1006 -0.4175 -0.4218
 3462ntf    on518987   0.496   3.725   5.064 -0.7932 -0.0369 -0.0701
 3462ntf    fn418988   0.651   3.893   4.895 -0.0358 -0.4505 -0.5635
 3462ntf    fn418989   0.471   3.894   4.795  0.0589  0.1362 -0.3719
 3462ntf    fn418990   0.518   4.068   4.904  0.2599 -0.2354 -0.4367
 3463ntf    cn118991   3.579   3.624   6.355 -0.2665 -0.3062 -0.2956
 3463ntf    sn218992   3.721   3.738   6.346 -0.3846 -0.1753 -0.5103
 3463ntf    nn318993   3.796   3.681   6.221  0.5777 -0.5653  0.2318
 3463ntf    sn218994   3.800   3.752   6.081  0.1457 -0.5842  0.2061
 3463ntf    cn118995   3.837   3.603   5.984  0.0971 -0.2267 -0.3673
 3463ntf    fn418996   3.504   3.628   6.246  0.3755 -0.3896 -0.7435
 3463ntf    fn418997   3.617   3.498   6.359 -0.7973 -0.4750 -0.4925
 3463ntf    fn418998   3.490   3.646   6.451  0.1950  0.4551 -0.0287
 3463ntf    on518999   3.665   3.871   6.350  0.6010  0.2453 -0.4641
 3463ntf    on519000   3.796   3.694   6.461 -0.1331  0.1792 -0.5358
 3463ntf    on519001   3.923   3.825   6.059 -0.5063  0.3887 -0.2577
 3463ntf    on519002   3.675   3.803   6.032  0.4019  0.1754  0.3300
 3463ntf    fn419003   3.749   3.505   5.999  0.0226 -0.1324 -0.1782
 3463ntf    fn419004   3.856   3.634   5.857 -0.3290  0.1968 -0.3285
 3463ntf    fn419005   3.950   3.551   6.030 -0.0321 -0.4106 -0.2536
 3464ntf    cn119006   3.423   0.808   5.170 -0.3962  0.0593  0.0883
 3464ntf    sn219007   3.589   0.827   5.241 -0.2020 -0.0928 -0.3206
 3464ntf    nn319008   3.668   0.771   5.117 -0.6899 -0.3224 -0.5288
 3464ntf    sn219009   3.693   0.851   4.984 -0.3164 -0.0114 -0.2727
 3464ntf    cn119010   3.874   0.868   4.995 -0.3295 -0.0193 -0.0288
 3464ntf    fn419011   3.406   0.894   5.071 -0.3239  0.4928  0.4482
 3464ntf    fn419012   3.403   0.687   5.120 -0.0073 -0.2675  0.7160
 3464ntf    fn419013   3.325   0.823   5.258  0.1115  0.4202  0.5952
 3464ntf    on519014   3.605   0.968   5.269  0.2538 -0.0926 -0.5731
 3464ntf    on519015   3.581   0.736   5.352 -0.0792  0.9438  0.5520
 3464ntf    on519016   3.652   0.989   4.972 -0.1542  0.0848  0.2329
 3464ntf    on519017   3.675   0.766   4.869 -0.1466  0.0489 -0.3445
 3464ntf    fn419018   3.934   0.913   4.886 -0.0735  0.0313  0.1341
 3464ntf    fn419019   3.895   0.970   5.077 -0.2016 -0.1450  0.0952
 3464ntf    fn419020   3.931   0.758   5.041  0.2400 -0.0142 -0.7132
 3465ntf    cn119021   1.603   3.508   5.197  0.1854  0.1048  0.0763
 3465ntf    sn219022   1.501   3.392   5.294  0.0788  0.3293  0.2361
 3465ntf    nn319023   1.406   3.492   5.369 -0.2785 -0.1282  0.3914
 3465ntf    sn219024   1.302   3.596   5.315 -0.0668 -0.1791 -0.1173
 3465ntf    cn119025   1.142   3.513   5.336 -0.0765 -0.0619  0.2829
 3465ntf    fn419026   1.652   3.610   5.267 -0.2398  0.2917  0.1120
 3465ntf    fn419027   1.708   3.455   5.139  0.1118 -0.0755  0.1088
 3465ntf    fn419028   1.541   3.563   5.094  0.1541 -0.1052 -0.0146
 3465ntf    on519029   1.438   3.318   5.188  0.1672  0.5606  0.0188
 3465ntf    on519030   1.584   3.320   5.386  0.2970 -0.2401 -0.3970
 3465ntf    on519031   1.305   3.637   5.177  0.0452  0.0439 -0.0511
 3465ntf    on519032   1.287   3.708   5.405  1.6131 -0.1264  0.1268
 3465ntf    fn419033   1.056   3.545   5.240 -0.2347 -0.9082  0.1409
 3465ntf    fn419034   1.145   3.381   5.335 -0.8671 -0.0857 -0.5131
 3465ntf    fn419035   1.088   3.547   5.452 -0.2277 -0.2037  0.2552
 3466ntf    cn119036   0.964   6.008   5.519  0.3245  0.3928 -0.1129
 3466ntf    sn219037   0.799   6.082   5.540  0.0982 -0.1212 -0.0645
 3466ntf    nn319038   0.768   6.112   5.389  0.5658 -0.3590 -0.2084
 3466ntf    sn219039   0.793   6.245   5.308  0.1440 -0.1307  0.0379
 3466ntf    cn119040   0.624   6.271   5.246  0.0742  0.0307  0.2897
 3466ntf    fn419041   1.022   5.985   5.635 -0.0153 -0.3975 -0.0904
 3466ntf    fn419042   0.963   5.890   5.459 -0.0041  0.1591  0.3481
 3466ntf    fn419043   1.039   6.083   5.440  0.1997  0.4245 -0.2018
 3466ntf    on519044   0.718   5.974   5.592  0.2839 -0.2484 -0.0373
 3466ntf    on519045   0.822   6.195   5.626  0.1093  0.0208 -0.2538
 3466ntf    on519046   0.873   6.234   5.189 -0.1371  0.2478 -0.1888
 3466ntf    on519047   0.809   6.360   5.394  0.5133 -0.2298  0.1008
 3466ntf    fn419048   0.530   6.306   5.332 -0.2685  0.4086 -0.2277
 3466ntf    fn419049   0.621   6.369   5.157  0.5031 -0.2041  0.0094
 3466ntf    fn419050   0.575   6.164   5.185 -0.0995  0.2616  0.0220
 3467ntf    cn119051   4.750   0.428   4.358  0.6746 -0.0033  0.1675
 3467ntf    sn219052   4.651   0.276   4.366  0.1522  0.3123 -0.2440
 3467ntf    nn319053   4.641   0.246   4.212  0.0421 -0.0349 -0.1694
 3467ntf    sn219054   4.518   0.236   4.114 -0.1536 -0.2937  0.0977
 3467ntf    cn119055   4.464   0.408   4.092  0.4992 -0.0967 -0.0035
 3467ntf    fn419056   4.721   0.483   4.242 -0.3547 -0.4016  0.2238
 3467ntf    fn419057   4.722   0.522   4.448 -0.4215  0.2178 -0.3887
 3467ntf    fn419058   4.881   0.411   4.357  0.6737 -0.0272  0.3600
 3467ntf    on519059   4.743   0.187   4.433 -0.5273 -0.5362 -0.4140
 3467ntf    on519060   4.536   0.316   4.443  0.4568  0.1402  0.3066
 3467ntf    on519061   4.401   0.175   4.170 -0.2377 -0.2213  0.0025
 3467ntf    on519062   4.563   0.195   3.983 -0.1507 -0.6594  0.2123
 3467ntf    fn419063   4.558   0.469   4.022  0.2194  0.0920 -0.2185
 3467ntf    fn419064   4.350   0.422   4.027  0.5483  0.5495  0.0449
 3467ntf    fn419065   4.461   0.475   4.207  0.4987 -0.1679  0.0383
 3468ntf    cn119066   1.856   5.500   4.459 -0.0270  0.2830 -0.3537
 3468ntf    sn219067   1.947   5.370   4.369  0.2031  0.0126  0.2614
 3468ntf    nn319068   1.947   5.441   4.229  0.4323 -0.9281 -0.2196
 3468ntf    sn219069   2.064   5.511   4.152  0.0013  0.2446  0.1808
 3468ntf    cn119070   2.089   5.388   4.021 -0.5070  0.2743  0.0525
 3468ntf    fn419071   1.813   5.469   4.580  0.5982  0.4032 -0.0956
 3468ntf    fn419072   1.923   5.614   4.460  0.4364  0.0107  0.1779
 3468ntf    fn419073   1.747   5.526   4.388 -0.4351 -0.2434  0.0676
 3468ntf    on519074   2.075   5.368   4.436  0.3752  0.4925 -0.0501
 3468ntf    on519075   1.869   5.250   4.384 -0.0891  0.1646 -0.0371
 3468ntf    on519076   2.191   5.527   4.217  0.3902  0.1796 -0.5519
 3468ntf    on519077   2.025   5.620   4.065 -0.1683  0.4946  0.5677
 3468ntf    fn419078   2.201   5.401   3.952 -0.7245  0.3723 -0.2830
 3468ntf    fn419079   2.097   5.265   4.069 -0.3717  0.1731 -0.2269
 3468ntf    fn419080   1.992   5.394   3.932 -0.3527 -0.0887 -0.1412
 3469ntf    cn119081   1.210   3.595   3.980  0.4873 -0.0085  0.2756
 3469ntf    sn219082   1.316   3.478   3.891 -0.0981 -0.2571 -0.1066
 3469ntf    nn319083   1.262   3.492   3.745  0.1488 -0.0537 -0.1795
 3469ntf    sn219084   1.145   3.423   3.666  0.0429  0.3587 -0.3824
 3469ntf    cn119085   1.070   3.581   3.617 -0.1075  0.3805 -0.0817
 3469ntf    fn419086   1.251   3.718   3.956 -0.5945  0.3077  0.0025
 3469ntf    fn419087   1.083   3.576   3.945  0.6279 -0.5977  0.0769
 3469ntf    fn419088   1.214   3.575   4.111 -0.3445  0.4629  0.3842
 3469ntf    on519089   1.447   3.533   3.918 -0.1456 -0.0482 -0.3021
 3469ntf    on519090   1.270   3.356   3.953 -0.0977 -0.0016  0.4031
 3469ntf    on519091   1.044   3.360   3.747  0.2512 -0.0701 -0.4552
 3469ntf    on519092   1.181   3.373   3.536 -0.6806 -0.3175 -0.3286
 3469ntf    fn419093   1.040   3.651   3.726 -0.2423  0.4797 -0.1824
 3469ntf    fn419094   1.159   3.654   3.552  0.0979  0.0453 -0.1787
 3469ntf    fn419095   0.966   3.559   3.539 -0.4049  0.4560  0.2874
 3470ntf    cn119096   3.561   3.831   5.624 -0.0612 -0.3113 -0.3187
 3470ntf    sn219097   3.559   4.013   5.626  0.4403 -0.3068 -0.0095
 3470ntf    nn319098   3.609   4.051   5.482  0.1523  0.0626 -0.0127
 3470ntf    sn219099   3.555   4.167   5.392  0.3728  0.0636 -0.1469
 3470ntf    cn119100   3.710   4.234   5.324  0.4087 -0.1457 -0.2708
 3470ntf    fn419101   3.452   3.773   5.671  0.0802 -0.3295 -0.0076
 3470ntf    fn419102   3.571   3.780   5.502 -0.0711 -0.2548 -0.3435
 3470ntf    fn419103   3.671   3.792   5.688 -0.0536  0.4481  0.1346
 3470ntf    on519104   3.423   4.034   5.668  0.1406 -0.4249 -0.8923
 3470ntf    on519105   3.664   4.051   5.718  0.2509  0.2276 -0.0122
 3470ntf    on519106   3.498   4.277   5.467  0.9524  0.1683  0.1420
 3470ntf    on519107   3.477   4.127   5.277 -0.2642  0.1960  0.2316
 3470ntf    fn419108   3.775   4.137   5.262  0.5201 -0.0975 -0.2296
 3470ntf    fn419109   3.688   4.332   5.238  0.3798 -0.2759 -0.4108
 3470ntf    fn419110   3.796   4.280   5.414  0.2306 -0.1852 -0.0776
 3471ntf    cn119111   6.394   5.181   6.940  0.4305  0.1587  0.2597
 3471ntf    sn219112   6.394   5.057   6.807 -0.1303 -0.0601  0.4591
 3471ntf    nn319113   6.247   5.002   6.811  0.0642 -0.6255 -0.0686
 3471ntf    sn219114   6.121   5.039   6.725  0.0411  0.4759  0.4329
 3471ntf    cn119115   6.051   4.872   6.709 -0.1329  0.5923 -0.0246
 3471ntf    fn419116   6.503   5.254   6.955  0.4482  0.2465 -0.2877
 3471ntf    fn419117   6.293   5.262   6.914  0.1914 -0.2488 -0.1065
 3471ntf    fn419118   6.364   5.129   7.058 -0.0695 -0.2728 -0.0522
 3471ntf    on519119   6.433   5.125   6.686  0.1717 -0.7082  0.1906
 3471ntf    on519120   6.500   4.974   6.858  0.2224  0.2560  0.2494
 3471ntf    on519121   6.132   5.087   6.590 -0.5266  0.4610  0.3790
 3471ntf    on519122   6.020   5.109   6.800 -0.1592  0.3499  0.2813
 3471ntf    fn419123   6.115   4.780   6.639 -0.4633  0.0082  0.4311
 3471ntf    fn419124   6.045   4.807   6.824 -0.1573 -0.0309 -0.3749
 3471ntf    fn419125   5.925   4.875   6.667 -0.2262  0.3685  0.2398
 3472ntf    cn119126   1.047   1.501   4.524  0.1653  0.1255  0.0082
 3472ntf    sn219127   1.080   1.613   4.663  0.0749 -0.1024  0.2138
 3472ntf    nn319128   0.939   1.605   4.731 -0.1104 -0.4783 -0.2100
 3472ntf    sn219129   0.809   1.691   4.709 -0.0380 -0.2436  0.2691
 3472ntf    cn119130   0.786   1.760   4.876 -0.0684  0.0459  0.1467
 3472ntf    fn419131   1.159   1.473   4.460 -0.0487 -0.0545 -0.2904
 3472ntf    fn419132   1.007   1.382   4.566 -0.2476  0.0808 -0.4998
 3472ntf    fn419133   0.954   1.537   4.437 -0.0569  0.5348  0.4106
 3472ntf    on519134   1.183   1.562   4.749  0.4019 -0.3239 -0.3122
 3472ntf    on519135   1.112   1.735   4.592  0.5555 -0.3835 -0.0578
 3472ntf    on519136   0.693   1.607   4.693  0.0293 -0.2527 -0.1732
 3472ntf    on519137   0.815   1.809   4.626 -0.0265 -0.2997  0.1907
 3472ntf    fn419138   0.767   1.675   4.976  0.3618 -0.0692  0.1333
 3472ntf    fn419139   0.893   1.832   4.906 -0.1812  0.2134  0.1453
 3472ntf    fn419140   0.678   1.835   4.884 -0.3077 -0.2451 -0.3289
 3473ntf    cn119141   1.059   5.576   2.354  0.0044  0.0949  0.1076
 3473ntf    sn219142   1.194   5.456   2.373 -0.2922 -0.2559  0.0087
 3473ntf    nn319143   1.315   5.557   2.374 -0.3742 -0.1576  0.0873
 3473ntf    sn219144   1.411   5.604   2.259 -0.2590 -0.2832  0.1322
 3473ntf    cn119145   1.537   5.474   2.267  0.2240  0.1772  0.0455
 3473ntf    fn419146   1.033   5.651   2.460 -0.5631  0.0089  0.0369
 3473ntf    fn419147   1.076   5.659   2.252  0.0222  0.1355  0.1429
 3473ntf    fn419148   0.944   5.516   2.326  0.1248 -0.0815 -0.0055
 3473ntf    on519149   1.167   5.393   2.499 -0.1704 -0.6537 -0.1633
 3473ntf    on519150   1.194   5.370   2.257 -0.0001 -0.1866 -0.0429
 3473ntf    on519151   1.472   5.730   2.293  0.2239 -0.4150 -0.2333
 3473ntf    on519152   1.362   5.596   2.123  0.2703 -0.5170 -0.0455
 3473ntf    fn419153   1.609   5.501   2.375  0.1290 -0.4600  0.2772
 3473ntf    fn419154   1.495   5.349   2.282 -0.4596  0.4080  0.0718
 3473ntf    fn419155   1.619   5.473   2.164  0.2275 -0.3754  0.0467
 3474ntf    cn119156   4.683   1.941   7.008  0.2682 -0.0274  0.0021
 3474ntf    sn219157   4.862   1.911   6.994  0.2817 -0.0664  0.2421
 3474ntf    nn319158   4.881   1.990   6.859  0.4915  0.0981  0.3684
 3474ntf    sn219159   4.924   2.139   6.835  0.0449  0.1449 -0.1647
 3474ntf    cn119160   5.100   2.106   6.801 -0.0298 -0.3375 -0.0939
 3474ntf    fn419161   4.657   2.067   6.976  0.3934  0.1094  0.4227
 3474ntf    fn419162   4.609   1.874   6.922  0.4253 -0.3029  0.0823
 3474ntf    fn419163   4.635   1.928   7.131  0.3220 -0.0393  0.0224
 3474ntf    on519164   4.920   1.960   7.116  0.8174 -0.2954  0.0820
 3474ntf    on519165   4.870   1.769   6.967  0.0577  0.0634 -0.5502
 3474ntf    on519166   4.932   2.221   6.953  0.6906 -0.1423 -0.0036
 3474ntf    on519167   4.872   2.194   6.713  0.0933  0.4946 -0.0287
 3474ntf    fn419168   5.119   2.004   6.718  0.0621 -0.4041  0.0079
 3474ntf    fn419169   5.166   2.214   6.764 -0.0917 -0.0403  0.6399
 3474ntf    fn419170   5.158   2.076   6.916  0.5193  0.4417 -0.1567
 3475ntf    cn119171   0.132   0.812   6.483 -0.3237 -0.0265  0.1186
 3475ntf    sn219172   0.112   0.905   6.638  0.1222  0.4367 -0.0977
 3475ntf    nn319173   0.218   0.837   6.731 -0.0472  0.2087 -0.0718
 3475ntf    sn219174   0.371   0.863   6.755 -0.0715  0.1817  0.1175
 3475ntf    cn119175   0.400   0.771   6.909 -0.2517  0.2293  0.1804
 3475ntf    fn419176   0.042   0.843   6.392 -0.1459 -0.3157 -0.1608
 3475ntf    fn419177   0.250   0.832   6.426 -0.2847  0.0674  0.2328
 3475ntf    fn419178   0.115   0.683   6.505 -0.1752 -0.1404 -0.4120
 3475ntf    on519179   0.143   1.040   6.598  0.2466  0.4786  0.1421
 3475ntf    on519180  -0.027   0.879   6.665  0.4078 -0.6021  0.3970
 3475ntf    on519181   0.401   0.998   6.797 -0.2584  0.5343 -0.8508
 3475ntf    on519182   0.464   0.807   6.660  0.4577  0.4232  0.4890
 3475ntf    fn419183   0.367   0.644   6.889 -0.1934  0.2124  0.1912
 3475ntf    fn419184   0.525   0.767   6.952 -0.2586 -0.4016  0.1525
 3475ntf    fn419185   0.320   0.817   7.003  0.0798  0.4372  0.3593
 3476ntf    cn119186   6.647   6.552   5.621 -0.2460 -0.0752  0.0716
 3476ntf    sn219187   6.575   6.456   5.485  0.0953 -0.2878  0.0433
 3476ntf    nn319188   6.532   6.567   5.384  0.1410 -0.3767 -0.0753
 3476ntf    sn219189   6.388   6.628   5.369  0.3299  0.0718 -0.0850
 3476ntf    cn119190   6.418   6.769   5.258  0.1382 -0.0169 -0.2503
 3476ntf    fn419191   6.683   6.477   5.724  0.5953 -0.0603 -0.2092
 3476ntf    fn419192   6.760   6.609   5.583 -0.5362 -0.1475 -0.9171
 3476ntf    fn419193   6.565   6.648   5.663  0.1833  0.3046  0.0460
 3476ntf    on519194   6.684   6.376   5.434  0.5398  0.3506 -0.0236
 3476ntf    on519195   6.473   6.381   5.554  0.1273 -0.2814  0.0977
 3476ntf    on519196   6.344   6.688   5.492 -0.1192 -0.2251 -0.1001
 3476ntf    on519197   6.299   6.547   5.288 -0.0688 -0.0205  0.4420
 3476ntf    fn419198   6.312   6.800   5.185  0.0380 -0.3645 -0.2538
 3476ntf    fn419199   6.452   6.880   5.321 -0.3087 -0.0911  0.1223
 3476ntf    fn419200   6.520   6.747   5.176  0.4277  0.4999 -0.0358
 3477ntf    cn119201   4.853   1.646   0.539 -0.0536  0.2413  0.3363
 3477ntf    sn219202   4.756   1.714   0.400  0.1241  0.1529  0.1686
 3477ntf    nn319203   4.615   1.753   0.457 -0.1663 -0.1284 -0.3468
 3477ntf    sn219204   4.579   1.885   0.535 -0.5842 -0.2735 -0.2954
 3477ntf    cn119205   4.540   1.998   0.398 -0.0921  0.0666 -0.1542
 3477ntf    fn419206   4.960   1.588   0.488 -0.0227  0.0609  0.6072
 3477ntf    fn419207   4.891   1.750   0.611  0.5360 -0.0133  0.3984
 3477ntf    fn419208   4.797   1.562   0.624 -0.7768  0.3098 -0.0561
 3477ntf    on519209   4.836   1.827   0.359 -0.3610  0.5290  0.2444
 3477ntf    on519210   4.746   1.605   0.306  0.0349 -0.2916  0.6850
 3477ntf    on519211   4.689   1.948   0.603 -0.5788 -0.5289 -0.0664
 3477ntf    on519212   4.453   1.876   0.605 -0.1789  0.0758  0.4817
 3477ntf    fn419213   4.433   1.961   0.330  0.3185 -0.0401 -0.7474
 3477ntf    fn419214   4.510   2.121   0.438  0.4239  0.2666 -0.3648
 3477ntf    fn419215   4.650   2.008   0.325  0.0422  0.0449  0.0463
 3478ntf    cn119216   5.539   1.083   2.094  0.1878 -0.0509  0.1540
 3478ntf    sn219217   5.519   0.929   2.189  0.1823  0.0067  0.2458
 3478ntf    nn319218   5.623   0.838   2.114  0.1921  0.0835  0.1660
 3478ntf    sn219219   5.598   0.738   1.996  0.0611  0.0167  0.2500
 3478ntf    cn119220   5.570   0.597   2.108  0.3616 -0.2170  0.0318
 3478ntf    fn419221   5.546   1.061   1.963 -0.6789 -0.5894  0.1899
 3478ntf    fn419222   5.438   1.168   2.096 -0.0065 -0.2629 -0.4650
 3478ntf    fn419223   5.650   1.152   2.120 -0.0865  0.3572  0.2460
 3478ntf    on519224   5.564   0.953   2.324  0.6108  0.8044 -0.0293
 3478ntf    on519225   5.380   0.899   2.164  0.2251 -0.2796  0.3485
 3478ntf    on519226   5.716   0.705   1.921 -0.0038 -0.6166  0.4151
 3478ntf    on519227   5.469   0.743   1.932 -0.1089  0.5369  0.6238
 3478ntf    fn419228   5.451   0.612   2.163  0.4229  0.0166  0.1003
 3478ntf    fn419229   5.586   0.476   2.055 -0.1008  0.0447 -0.7157
 3478ntf    fn419230   5.659   0.607   2.205 -0.0308  0.4901  0.3258
 3479ntf    cn119231   0.599   6.871   0.472  0.2098  0.2581  0.0916
 3479ntf    sn219232   0.705   6.991   0.386  0.1146  0.0189 -0.3623
 3479ntf    nn319233   0.799   7.051   0.496 -0.0682 -0.3037 -0.0290
 3479ntf    sn219234   0.932   6.983   0.546  0.2537  0.2916 -0.0721
 3479ntf    cn119235   1.053   7.095   0.469  0.1767  0.0573 -0.5351
 3479ntf    fn419236   0.524   6.933   0.562 -0.1514  0.0940 -0.0930
 3479ntf    fn419237   0.513   6.817   0.386  0.3501  0.1023  0.0493
 3479ntf    fn419238   0.656   6.767   0.529  0.1767 -0.0968 -0.5158
 3479ntf    on519239   0.760   6.916   0.275  0.6130 -0.0136 -0.0965
 3479ntf    on519240   0.610   7.090   0.341  0.0784  0.1127 -0.0751
 3479ntf    on519241   0.959   6.850   0.497 -0.2580 -0.0527  0.5695
 3479ntf    on519242   0.943   7.004   0.688 -0.4333 -0.3690  0.0826
 3479ntf    fn419243   1.040   7.107   0.338  0.2933  0.6974 -0.4885
 3479ntf    fn419244   1.040   7.218   0.516 -0.4298 -0.2041 -0.0003
 3479ntf    fn419245   1.176   7.050   0.488  0.1700  0.1053 -0.3805
 3480ntf    cn119246   2.182   6.278   1.896 -0.5098 -0.1300  0.9969
 3480ntf    sn219247   2.275   6.427   1.942 -0.0623 -0.0674 -0.0801
 3480ntf    nn319248   2.159   6.531   1.964  0.1316  0.1307  0.0077
 3480ntf    sn219249   2.171   6.687   1.981  0.2737  0.0957  0.2356
 3480ntf    cn119250   2.166   6.741   1.808 -0.5069 -0.0166  0.2177
 3480ntf    fn419251   2.128   6.216   1.999 -0.1356 -0.9414  0.7120
 3480ntf    fn419252   2.087   6.311   1.809  0.3610  0.0880  0.1056
 3480ntf    fn419253   2.265   6.188   1.844  0.1911  0.8477  0.3936
 3480ntf    on519254   2.350   6.388   2.058 -0.0184  0.0610 -0.0653
 3480ntf    on519255   2.345   6.440   1.816 -0.1885 -0.1315 -0.1572
 3480ntf    on519256   2.297   6.730   2.036  0.3891  0.1085 -0.0391
 3480ntf    on519257   2.054   6.745   2.043  0.3442  0.3341  0.1430
 3480ntf    fn419258   2.058   6.708   1.739 -0.0463 -0.3706 -0.3500
 3480ntf    fn419259   2.177   6.872   1.797 -0.0263 -0.0765 -0.0717
 3480ntf    fn419260   2.271   6.689   1.745 -0.1790  0.0167  0.7358
 3481ntf    cn119261   6.377   6.189   1.694 -0.7624  0.5892 -0.1156
 3481ntf    sn219262   6.452   6.246   1.538  0.1610 -0.1470  0.0465
 3481ntf    nn319263   6.446   6.402   1.554 -0.4391 -0.1942  0.3149
 3481ntf    sn219264   6.334   6.504   1.512  0.0580  0.2042 -0.0673
 3481ntf    cn119265   6.300   6.595   1.666 -0.2482 -0.1373  0.0696
 3481ntf    fn419266   6.411   6.247   1.808 -0.8637 -0.1710  0.3088
 3481ntf    fn419267   6.247   6.204   1.709 -0.7476 -0.1643  0.8879
 3481ntf    fn419268   6.392   6.058   1.707 -0.4394  0.6109 -0.2637
 3481ntf    on519269   6.584   6.189   1.534  0.2407  0.0785 -0.7352
 3481ntf    on519270   6.364   6.198   1.434 -0.6730  0.2833  0.5404
 3481ntf    on519271   6.203   6.446   1.495  0.0516  0.0340  0.5291
 3481ntf    on519272   6.373   6.596   1.409 -0.3029  0.1782 -0.2303
 3481ntf    fn419273   6.185   6.660   1.665 -0.3123 -0.2540 -0.2878
 3481ntf    fn419274   6.297   6.521   1.776 -0.0944 -0.3120 -0.0431
 3481ntf    fn419275   6.391   6.689   1.689  0.0470 -0.1979 -0.7979
 3482ntf    cn119276   3.093   3.512   6.777  0.5007  0.1642 -0.2774
 3482ntf    sn219277   3.136   3.398   6.912  0.3366  0.0171 -0.3481
 3482ntf    nn319278   3.293   3.387   6.903  0.3475  0.0145 -0.1437
 3482ntf    sn219279   3.400   3.394   7.018  0.0911 -0.2100  0.1086
 3482ntf    cn119280   3.500   3.538   6.972 -0.1791  0.0106  0.2076
 3482ntf    fn419281   3.106   3.461   6.655 -0.0114  0.3066 -0.3957
 3482ntf    fn419282   2.968   3.557   6.777  0.2944 -0.3546  1.0245
 3482ntf    fn419283   3.164   3.623   6.781  0.3162  0.2552  0.7039
 3482ntf    on519284   3.083   3.469   7.025  0.5727 -0.2316 -0.0808
 3482ntf    on519285   3.076   3.272   6.877  0.0972  0.1204 -0.3091
 3482ntf    on519286   3.488   3.280   7.005  0.2658  0.0196 -0.8263
 3482ntf    on519287   3.345   3.416   7.150 -0.2518  0.3483 -0.1247
 3482ntf    fn419288   3.614   3.548   7.039 -0.0287  0.3417 -0.0955
 3482ntf    fn419289   3.535   3.534   6.844 -0.5755 -0.1175  0.1038
 3482ntf    fn419290   3.443   3.656   6.988 -0.0145  0.1069  0.0934
 3483ntf    cn119291   4.208   3.832   1.224 -0.3615  0.0641  0.2637
 3483ntf    sn219292   4.247   3.800   1.049 -0.0998  0.0992  0.3145
 3483ntf    nn319293   4.152   3.682   1.005 -0.2086 -0.0531  0.9461
 3483ntf    sn219294   4.183   3.529   0.994 -0.3038  0.0162 -0.4411
 3483ntf    cn119295   4.023   3.452   0.954 -0.4088 -0.0089  0.0252
 3483ntf    fn419296   4.274   3.933   1.279  0.0360  0.0205 -0.1275
 3483ntf    fn419297   4.080   3.854   1.245 -0.4729 -0.4230  0.1189
 3483ntf    fn419298   4.232   3.727   1.301  0.0855  0.2277  0.3506
 3483ntf    on519299   4.206   3.920   0.981  0.2571 -0.2492 -0.5355
 3483ntf    on519300   4.388   3.772   1.045 -0.1142  0.0598  0.0851
 3483ntf    on519301   4.228   3.469   1.117 -0.5929  0.0023 -0.3392
 3483ntf    on519302   4.260   3.495   0.877 -0.1209  0.4356 -0.4428
 3483ntf    fn419303   3.962   3.522   0.860 -0.0897 -0.2383 -0.3550
 3483ntf    fn419304   4.037   3.336   0.892 -0.5152 -0.0245  0.0309
 3483ntf    fn419305   3.947   3.436   1.062  0.4710 -0.3150  0.6171
 3484ntf    cn119306   3.581   5.825   6.692 -0.2903 -0.3874  0.1588
 3484ntf    sn219307   3.609   5.899   6.856 -0.0285 -0.2146  0.0378
 3484ntf    nn319308   3.477   5.860   6.932  0.0656 -0.4854  0.0642
 3484ntf    sn219309   3.348   5.947   6.953  0.2854 -0.0970 -0.1794
 3484ntf    cn119310   3.400   6.026   7.108 -0.4415  0.2023 -0.0832
 3484ntf    fn419311   3.626   5.703   6.670  0.2507 -0.1708  0.0337
 3484ntf    fn419312   3.450   5.819   6.671 -0.2457  0.2271 -0.3712
 3484ntf    fn419313   3.628   5.900   6.593 -0.4338  0.3630  0.6518
 3484ntf    on519314   3.723   5.817   6.888  0.3162  0.3028  0.1430
 3484ntf    on519315   3.633   6.040   6.846  0.4698 -0.3027 -0.0734
 3484ntf    on519316   3.235   5.864   6.988  0.2031  0.0356 -0.1321
 3484ntf    on519317   3.334   6.057   6.861  0.2206  0.1056  0.0708
 3484ntf    fn419318   3.301   6.083   7.175 -0.0466  0.7780  0.0191
 3484ntf    fn419319   3.455   5.929   7.180 -0.0046  0.5742  0.0946
 3484ntf    fn419320   3.491   6.121   7.095 -0.0603 -0.1599 -0.0855
 3485ntf    cn119321   0.536   6.080   4.553  0.3451  0.0739 -0.0289
 3485ntf    sn219322   0.655   6.217   4.555  0.1330  0.2552  0.0955
 3485ntf    nn319323   0.561   6.333   4.606  0.1160  0.2389  0.1023
 3485ntf    sn219324   0.573   6.487   4.581  0.3604  0.1728 -0.1998
 3485ntf    cn119325   0.528   6.542   4.749  0.2277 -0.2648 -0.0911
 3485ntf    fn419326   0.483   6.049   4.670 -0.2096  0.0189 -0.2935
 3485ntf    fn419327   0.431   6.106   4.477  0.0557  0.0874  0.3778
 3485ntf    fn419328   0.601   5.976   4.503 -0.0496 -0.3739  0.3754
 3485ntf    on519329   0.756   6.168   4.646  0.0830  0.2536  0.1507
 3485ntf    on519330   0.688   6.231   4.416 -0.5841  0.4952 -0.0580
 3485ntf    on519331   0.480   6.543   4.487  0.3277  0.3626 -0.0554
 3485ntf    on519332   0.709   6.535   4.574  0.4916 -0.1887 -0.1339
 3485ntf    fn419333   0.588   6.480   4.849 -0.5012 -0.1531  0.4195
 3485ntf    fn419334   0.541   6.671   4.778  0.1481 -0.2893  0.0528
 3485ntf    fn419335   0.398   6.522   4.762  0.0872  0.5350 -0.1940
 3486ntf    cn119336   2.364   4.228   6.812  0.0676  0.2045  0.1122
 3486ntf    sn219337   2.457   4.075   6.785 -0.1640  0.0539  0.1691
 3486ntf    nn319338   2.567   4.121   6.682  0.0353 -0.4368  0.1596
 3486ntf    sn219339   2.686   4.029   6.635  0.1084 -0.2136 -0.0911
 3486ntf    cn119340   2.809   4.062   6.765  0.2390 -0.5235 -0.1358
 3486ntf    fn419341   2.399   4.290   6.924 -0.1686  0.4617  0.0460
 3486ntf    fn419342   2.376   4.318   6.716 -0.1763  0.1882  0.0658
 3486ntf    fn419343   2.234   4.208   6.824  0.1639 -0.4978  0.0012
 3486ntf    on519344   2.518   4.047   6.913 -0.2555  0.0840  0.2192
 3486ntf    on519345   2.352   3.992   6.731 -0.4682  0.7027 -0.2538
 3486ntf    on519346   2.753   4.082   6.519  0.2073 -0.5949 -0.2077
 3486ntf    on519347   2.670   3.886   6.645 -0.1136 -0.1491  0.5166
 3486ntf    fn419348   2.932   4.052   6.716  0.4642  0.0597  0.3005
 3486ntf    fn419349   2.788   4.177   6.828  0.2874 -0.4639 -0.2269
 3486ntf    fn419350   2.797   3.975   6.863 -0.3560 -0.4544 -0.1438
 3487ntf    cn119351   1.643   4.899   3.418 -0.3072 -0.3108 -0.2614
 3487ntf    sn219352   1.812   4.867   3.475 -0.3438  0.1647  0.1153
 3487ntf    nn319353   1.803   4.719   3.526  0.7290  0.0509  0.0030
 3487ntf    sn219354   1.751   4.672   3.667 -0.3952  0.1992 -0.3490
 3487ntf    cn119355   1.906   4.624   3.749 -0.5021  0.2157 -0.1382
 3487ntf    fn419356   1.610   4.827   3.311 -0.6001 -0.3927 -0.1185
 3487ntf    fn419357   1.550   4.873   3.509 -0.5860  0.4445 -0.3231
 3487ntf    fn419358   1.628   5.027   3.387  0.2693 -0.0629  0.4613
 3487ntf    on519359   1.892   4.873   3.355  0.1156  0.5777  0.4380
 3487ntf    on519360   1.842   4.965   3.576  0.9320 -0.2753  0.1898
 3487ntf    on519361   1.692   4.541   3.662  0.0736 -0.0405  0.2988
 3487ntf    on519362   1.685   4.765   3.755 -0.3199  0.2014 -0.2950
 3487ntf    fn419363   1.881   4.543   3.850 -0.4722 -0.5396 -0.7287
 3487ntf    fn419364   1.982   4.550   3.670 -0.3885 -0.3342  0.4770
 3487ntf    fn419365   1.977   4.731   3.782  0.0689 -0.0424 -0.5178
 3488ntf    cn119366   4.370   1.260   0.640 -0.1663 -0.2562 -0.0969
 3488ntf    sn219367   4.235   1.181   0.733 -0.1354 -0.2891 -0.0798
 3488ntf    nn319368   4.197   1.297   0.832  0.2755 -0.6329  0.4835
 3488ntf    sn219369   4.066   1.307   0.917  0.0207  0.1776  0.0083
 3488ntf    cn119370   3.968   1.414   0.808  0.1273  0.7758  0.4969
 3488ntf    fn419371   4.323   1.370   0.585  0.4399  0.2129  0.3081
 3488ntf    fn419372   4.456   1.294   0.736 -0.3159 -0.3011  0.0532
 3488ntf    fn419373   4.422   1.181   0.547 -0.6153 -0.3801 -0.2414
 3488ntf    on519374   4.144   1.151   0.625 -0.3103  0.1740 -0.0654
 3488ntf    on519375   4.295   1.071   0.804  0.3367  0.0585  0.0690
 3488ntf    on519376   4.080   1.385   1.038 -0.2872 -0.0706  0.2067
 3488ntf    on519377   3.982   1.190   0.928  0.0466  0.1275 -0.3164
 3488ntf    fn419378   3.987   1.377   0.683  0.4762  0.5296  0.6221
 3488ntf    fn419379   3.838   1.409   0.833  0.0851  0.1103  0.1512
 3488ntf    fn419380   4.000   1.543   0.802 -0.2268  0.8327 -0.1542
 3489ntf    cn119381   3.878   6.030   3.235  0.3301  0.3694 -0.0250
 3489ntf    sn219382   3.844   5.861   3.293  0.0634  0.3907 -0.1182
 3489ntf    nn319383   3.875   5.877   3.446  0.0843  0.1935 -0.1008
 3489ntf    sn219384   3.797   5.797   3.556  0.3622 -0.0526 -0.0821
 3489ntf    cn119385   3.941   5.730   3.645  0.0618 -0.2608  0.2485
 3489ntf    fn419386   4.000   6.057   3.278  0.4116 -0.0780  0.0308
 3489ntf    fn419387   3.884   6.037   3.103  0.3083  0.8371 -0.0039
 3489ntf    fn419388   3.789   6.119   3.278  0.1557  0.4794 -0.6149
 3489ntf    on519389   3.708   5.841   3.250  0.1622 -0.6314  0.0092
 3489ntf    on519390   3.944   5.772   3.240 -0.3068  0.1359 -0.3995
 3489ntf    on519391   3.740   5.673   3.510  0.5538 -0.0350 -0.3727
 3489ntf    on519392   3.730   5.873   3.658  0.5534 -0.7182  0.5428
 3489ntf    fn419393   4.022   5.831   3.674  0.0845 -0.2088  0.0095
 3489ntf    fn419394   3.896   5.666   3.751 -0.6477 -0.1296  0.0321
 3489ntf    fn419395   4.015   5.647   3.573  0.1610  0.3483 -0.3724
 3490ntf    cn119396   0.592   4.646   2.170 -0.3952 -0.3123 -0.2338
 3490ntf    sn219397   0.578   4.473   2.224 -0.0814 -0.2908 -0.0762
 3490ntf    nn319398   0.705   4.419   2.150  0.3002 -0.1139  0.4479
 3490ntf    sn219399   0.708   4.328   2.023  0.0247  0.1256  0.2686
 3490ntf    cn119400   0.755   4.170   2.100 -0.1789 -0.1264 -0.1197
 3490ntf    fn419401   0.491   4.716   2.219 -0.5003 -0.6011 -0.0366
 3490ntf    fn419402   0.706   4.699   2.211 -0.3297 -0.4320 -0.2613
 3490ntf    fn419403   0.588   4.659   2.039  0.1694 -0.4431 -0.2661
 3490ntf    on519404   0.597   4.480   2.367 -0.4160  0.1627 -0.0514
 3490ntf    on519405   0.449   4.431   2.173 -0.5116  0.2847  0.5196
 3490ntf    on519406   0.821   4.353   1.937 -0.2571 -0.4163 -0.2711
 3490ntf    on519407   0.584   4.291   1.959  0.1193 -0.6354  0.5063
 3490ntf    fn419408   0.698   4.151   2.218  0.0368  0.1719  0.0334
 3490ntf    fn419409   0.736   4.070   2.016 -0.0261 -0.1110 -0.1748
 3490ntf    fn419410   0.884   4.178   2.130 -0.1152  0.1249 -0.4568
 3491ntf    cn119411   1.818   6.466   7.060  0.4914 -0.5293 -0.3335
 3491ntf    sn219412   1.750   6.609   7.149  0.4656 -0.3907 -0.5753
 3491ntf    nn319413   1.611   6.585   7.080 -0.0713 -0.3189  0.4519
 3491ntf    sn219414   1.470   6.627   7.133 -0.2057  0.0692 -0.2036
 3491ntf    cn119415   1.453   6.783   7.042 -0.1669  0.2424  0.0838
 3491ntf    fn419416   1.731   6.367   7.063 -0.4803  0.2983 -0.8104
 3491ntf    fn419417   1.842   6.482   6.931 -0.2110  0.2805 -0.3759
 3491ntf    fn419418   1.927   6.422   7.121  0.6749 -0.1694 -0.3950
 3491ntf    on519419   1.759   6.591   7.292 -0.1218  0.3515 -0.4345
 3491ntf    on519420   1.826   6.720   7.097 -0.1831  0.4718  0.2537
 3491ntf    on519421   1.468   6.658   7.274  0.7981 -0.6289 -0.0257
 3491ntf    on519422   1.363   6.544   7.081 -0.0816 -0.1204 -0.1579
 3491ntf    fn419423   1.348   6.857   7.072 -0.5135 -0.2857  0.1883
 3491ntf    fn419424   1.548   6.869   7.073  0.2143 -0.2377  0.2524
 3491ntf    fn419425   1.449   6.761   6.911  0.1412  0.2256  0.0760
 3492ntf    cn119426   4.287   3.457   4.697  0.1866  0.0781  0.1820
 3492ntf    sn219427   4.226   3.624   4.660 -0.0980 -0.0362  0.1338
 3492ntf    nn319428   4.137   3.590   4.535 -0.2410 -0.0075  0.2279
 3492ntf    sn219429   3.981   3.586   4.547 -0.2713  0.0460 -0.1370
 3492ntf    cn119430   3.941   3.763   4.556 -0.2140  0.0359  0.3284
 3492ntf    fn419431   4.315   3.395   4.584 -0.4236 -0.2054  0.1845
 3492ntf    fn419432   4.405   3.453   4.757  0.1908 -0.3198  0.1489
 3492ntf    fn419433   4.206   3.374   4.760 -0.4366 -0.0562 -0.7813
 3492ntf    on519434   4.165   3.677   4.780 -0.0846  0.5637 -0.1200
 3492ntf    on519435   4.343   3.693   4.611 -0.4801  0.7091  0.2462
 3492ntf    on519436   3.933   3.526   4.669  0.1285 -0.6508 -0.3186
 3492ntf    on519437   3.922   3.538   4.424 -0.8972 -0.4487  0.3452
 3492ntf    fn419438   3.970   3.820   4.441  0.1366 -0.3237  0.2375
 3492ntf    fn419439   3.811   3.774   4.578 -0.2019 -0.1905  0.5261
 3492ntf    fn419440   4.000   3.835   4.650  0.3045  0.0540 -0.0114
 3493ntf    cn119441   5.006   6.234   4.876  0.2001  0.1684 -0.0571
 3493ntf    sn219442   4.932   6.069   4.852  0.3329  0.0802  0.1295
 3493ntf    nn319443   4.883   6.076   4.703  0.3866 -0.5096  0.0854
 3493ntf    sn219444   4.968   6.081   4.571  0.1316  0.3769 -0.0491
 3493ntf    cn119445   4.957   5.904   4.529 -0.3711  0.2753  0.5024
 3493ntf    fn419446   5.059   6.246   4.996 -0.1008 -0.3397  0.1341
 3493ntf    fn419447   5.102   6.261   4.789  0.2931  0.3222  0.0944
 3493ntf    fn419448   4.915   6.327   4.856  0.2040  0.1032 -0.3760
 3493ntf    on519449   5.040   5.977   4.877  0.2964  0.1549  0.5605
 3493ntf    on519450   4.818   6.061   4.940  0.4296  0.1876  0.2633
 3493ntf    on519451   5.108   6.110   4.589  0.2164  0.0325 -0.1375
 3493ntf    on519452   4.897   6.146   4.463  0.1471  0.2569 -0.1320
 3493ntf    fn419453   5.010   5.821   4.617 -0.0486  0.0433  0.0927
 3493ntf    fn419454   4.832   5.866   4.512 -0.1426 -0.1123 -0.3782
 3493ntf    fn419455   5.014   5.883   4.412 -0.1085  0.4309  0.6019
 3494ntf    cn119456   4.327   2.820   6.802  0.1935  0.0070 -0.2696
 3494ntf    sn219457   4.265   2.915   6.945  0.4202  0.1442 -0.2611
 3494ntf    nn319458   4.115   2.867   6.951  0.1649  0.9037 -0.4882
 3494ntf    sn219459   4.004   2.922   7.048  0.0669 -0.1896  0.0401
 3494ntf    cn119460   3.996   2.784   7.165  0.0467 -0.4337 -0.2494
 3494ntf    fn419461   4.251   2.832   6.694  0.3990  0.8229 -0.3270
 3494ntf    fn419462   4.442   2.867   6.757  0.1099  0.4496 -0.0324
 3494ntf    fn419463   4.334   2.689   6.819 -0.4107 -0.0056 -0.0760
 3494ntf    on519464   4.344   2.864   7.054  0.1915  0.2623 -0.0398
 3494ntf    on519465   4.278   3.054   6.910 -0.3928  0.2565 -0.1351
 3494ntf    on519466   3.876   2.924   6.982 -0.0456 -0.0767  0.2604
 3494ntf    on519467   4.036   3.037   7.130  0.8003 -0.1181 -0.3323
 3494ntf    fn419468   3.925   2.809   7.274  0.2977  0.4876 -0.2960
 3494ntf    fn419469   3.944   2.675   7.111 -0.5184 -0.3873  0.1965
 3494ntf    fn419470   4.118   2.742   7.196  0.0802 -0.0026  0.2129
 3495ntf    cn119471   1.489   5.466   4.698  0.1920 -0.0878 -0.0693
 3495ntf    sn219472   1.361   5.582   4.754  0.1248 -0.2469  0.1113
 3495ntf    nn319473   1.449   5.697   4.814  0.1568 -0.2464  0.0634
 3495ntf    sn219474   1.407   5.820   4.903 -0.2279 -0.1423 -0.2604
 3495ntf    cn119475   1.438   5.737   5.062  0.2819  0.3246 -0.1127
 3495ntf    fn419476   1.530   5.513   4.581  0.3942  0.2017  0.1170
 3495ntf    fn419477   1.594   5.448   4.777  0.0497 -0.0016  0.1407
 3495ntf    fn419478   1.441   5.344   4.674  0.0098  0.0495 -0.4043
 3495ntf    on519479   1.277   5.612   4.640  0.9973 -0.6010 -0.6444
 3495ntf    on519480   1.295   5.510   4.860  0.3825 -0.1699  0.3259
 3495ntf    on519481   1.264   5.837   4.898 -0.2210 -0.0599 -0.1753
 3495ntf    on519482   1.497   5.932   4.897 -0.4206  0.0626  0.4937
 3495ntf    fn419483   1.563   5.694   5.067  0.1042 -0.2077 -0.1413
 3495ntf    fn419484   1.414   5.814   5.167  0.1745 -0.3837  0.3944
 3495ntf    fn419485   1.361   5.630   5.079  0.1788  0.5298  0.7439
 3496ntf    cn119486   6.662   5.296   2.792  0.4415  0.0540 -0.3500
 3496ntf    sn219487   6.576   5.178   2.900 -0.1193  0.3859 -0.4258
 3496ntf    nn319488   6.486   5.101   2.797 -0.4001  0.1492 -0.0076
 3496ntf    sn219489   6.511   4.959   2.735 -0.1926  0.1251  0.1318
 3496ntf    cn119490   6.380   4.875   2.829  0.0370  0.0744  0.4086
 3496ntf    fn419491   6.703   5.235   2.682  0.1061 -0.3104 -0.2739
 3496ntf    fn419492   6.580   5.394   2.756  0.3648  0.0819 -0.0983
 3496ntf    fn419493   6.775   5.346   2.838  0.3645 -0.3125  0.2500
 3496ntf    on519494   6.682   5.104   2.964  0.0304  0.2406 -0.8380
 3496ntf    on519495   6.490   5.263   2.978 -0.1686  0.1797 -0.2543
 3496ntf    on519496   6.631   4.886   2.769 -0.2426  0.2172  0.5169
 3496ntf    on519497   6.465   4.953   2.599  0.3452  0.0522 -0.0490
 3496ntf    fn419498   6.271   4.949   2.840 -0.0310  0.0276  0.0446
 3496ntf    fn419499   6.336   4.762   2.777 -0.3869  0.4652 -0.0865
 3496ntf    fn419500   6.413   4.859   2.956  0.7547 -0.6563  0.1353
 3497ntf    cn119501   1.588   2.981   2.282  0.1440  0.4178  0.3513
 3497ntf    sn219502   1.728   3.077   2.218  0.1592 -0.0502 -0.3251
 3497ntf    nn319503   1.768   3.002   2.086 -0.0602 -0.0573 -0.3892
 3497ntf    sn219504   1.876   2.890   2.065 -0.1322 -0.2214  0.1048
 3497ntf    cn119505   2.014   2.994   2.009 -0.5245  0.5351  0.5383
 3497ntf    fn419506   1.597   2.849   2.288 -0.8050  0.3424  0.2961
 3497ntf    fn419507   1.562   3.022   2.405  0.0694  0.3822  0.3473
 3497ntf    fn419508   1.480   3.004   2.209  0.3352 -0.3941 -0.1935
 3497ntf    on519509   1.658   3.198   2.179  0.6453  0.2900 -0.1451
 3497ntf    on519510   1.822   3.079   2.327 -0.2457 -0.6340  0.0417
 3497ntf    on519511   1.856   2.805   1.950  0.1645 -0.0840 -0.0489
 3497ntf    on519512   1.926   2.835   2.189 -0.1531  0.2722  0.3355
 3497ntf    fn419513   2.113   2.917   1.969 -0.4310  0.9264 -0.0030
 3497ntf    fn419514   1.989   3.066   1.901  0.1074  0.6975  0.4989
 3497ntf    fn419515   2.055   3.072   2.108 -0.1610  0.5811  0.3520
 3498ntf    cn119516   4.269   5.935   2.919  0.0909  0.0252 -0.1807
 3498ntf    sn219517   4.288   5.917   2.739  0.1969 -0.0052 -0.1667
 3498ntf    nn319518   4.396   5.803   2.737  0.0187 -0.1705 -0.4541
 3498ntf    sn219519   4.534   5.800   2.662  0.3011  0.1014  0.0502
 3498ntf    cn119520   4.648   5.843   2.797 -0.0097  0.1406  0.3009
 3498ntf    fn419521   4.262   5.824   2.991 -0.2464  0.0046 -0.2405
 3498ntf    fn419522   4.373   5.999   2.969  0.2949 -0.6551  0.2867
 3498ntf    fn419523   4.160   6.007   2.940  0.0641 -0.0450 -0.0792
 3498ntf    on519524   4.154   5.873   2.705  0.0948  0.6010 -0.5633
 3498ntf    on519525   4.323   6.048   2.692 -0.3498  0.2599  0.1544
 3498ntf    on519526   4.546   5.899   2.558 -0.2035  0.1995  0.0831
 3498ntf    on519527   4.568   5.664   2.625 -0.1444  0.2321 -0.8720
 3498ntf    fn419528   4.776   5.813   2.780 -0.0096 -0.0825  0.6824
 3498ntf    fn419529   4.637   5.971   2.829 -0.1354  0.1720  0.1364
 3498ntf    fn419530   4.614   5.778   2.907 -0.2618  0.3177  0.3284
 3499ntf    cn119531   6.705   1.868   1.156 -0.2501 -0.0497 -0.3242
 3499ntf    sn219532   6.619   2.008   1.078  0.0773  0.2617 -0.1247
 3499ntf    nn319533   6.749   2.083   1.033  0.0518  0.4830  0.1618
 3499ntf    sn219534   6.820   2.102   0.894 -0.3761  0.0570 -0.1204
 3499ntf    cn119535   6.995   2.111   0.944 -0.5274 -0.2339  0.4633
 3499ntf    fn419536   6.767   1.906   1.266 -0.2505 -0.2965 -0.2363
 3499ntf    fn419537   6.619   1.775   1.196 -0.0620  0.1272  0.5057
 3499ntf    fn419538   6.799   1.806   1.086 -0.1370 -0.0107 -0.2065
 3499ntf    on519539   6.542   1.947   0.972  0.4065 -0.0437 -0.1872
 3499ntf    on519540   6.539   2.063   1.185 -0.5586 -0.1663 -0.3706
 3499ntf    on519541   6.805   2.233   0.836 -0.3091  0.1042 -0.0330
 3499ntf    on519542   6.811   1.984   0.812 -0.0867 -0.0160 -0.0497
 3499ntf    fn419543   7.027   2.207   1.029  0.3885 -0.3860  0.3025
 3499ntf    fn419544   7.025   2.003   1.016 -0.2378 -0.5368 -0.1080
 3499ntf    fn419545   7.081   2.124   0.845 -0.9304 -0.5964  0.0591
 3500ntf    cn119546   3.837   1.590   6.135  0.1026 -0.1529 -0.3564
 3500ntf    sn219547   3.979   1.520   6.046  0.0855 -0.3903 -0.2004
 3500ntf    nn319548   4.078   1.487   6.163  0.1027  0.1932 -0.0467
 3500ntf    sn219549   4.101   1.581   6.286 -0.1251 -0.1479  0.2588
 3500ntf    cn119550   4.278   1.552   6.315 -0.1372 -0.3285  0.1499
 3500ntf    fn419551   3.860   1.713   6.178 -0.2114 -0.3278  0.3365
 3500ntf    fn419552   3.732   1.595   6.056 -0.1922  0.5893  0.0714
 3500ntf    fn419553   3.795   1.513   6.235 -0.3916  0.6581  0.0720
 3500ntf    on519554   3.922   1.408   5.975  0.4031 -0.0146 -1.0714
 3500ntf    on519555   4.026   1.627   5.961  0.6252  0.0351  0.6251
 3500ntf    on519556   4.031   1.543   6.407 -0.1996 -0.7704  0.0214
 3500ntf    on519557   4.098   1.723   6.259  0.1833 -0.2018 -0.0528
 3500ntf    fn419558   4.308   1.630   6.417  0.8955 -0.1667 -0.2725
 3500ntf    fn419559   4.318   1.432   6.354 -0.0858 -0.4037 -0.1307
 3500ntf    fn419560   4.347   1.586   6.208  0.0520 -0.1614  0.3249
 3501ntf    cn119561   5.477   3.270   0.618 -0.0567  0.0264 -0.2415
 3501ntf    sn219562   5.391   3.302   0.774  0.0627 -0.1482 -0.1392
 3501ntf    nn319563   5.493   3.410   0.827  0.1345 -0.2167 -0.1381
 3501ntf    sn219564   5.566   3.409   0.966 -0.1575  0.0905  0.0198
 3501ntf    cn119565   5.456   3.515   1.064  0.0139  0.1157  0.1879
 3501ntf    fn419566   5.509   3.379   0.551  0.4939  0.2207  0.3366
 3501ntf    fn419567   5.591   3.206   0.639  0.4418  0.9200 -0.1883
 3501ntf    fn419568   5.417   3.183   0.537 -0.4062  0.3360 -0.3146
 3501ntf    on519569   5.262   3.355   0.736 -0.0087  0.1227  0.4552
 3501ntf    on519570   5.393   3.174   0.839  0.2070 -0.4063 -0.6500
 3501ntf    on519571   5.682   3.495   0.956  0.0193 -0.1243  0.2388
 3501ntf    on519572   5.584   3.283   1.033 -0.1920 -0.1055 -0.3337
 3501ntf    fn419573   5.334   3.463   1.070  0.0547  0.0206  0.1945
 3501ntf    fn419574   5.494   3.544   1.187 -0.3841  0.1341  0.3103
 3501ntf    fn419575   5.434   3.634   1.011  0.3041  0.1631  0.1735
 3502ntf    cn119576   4.466   4.943   2.904 -0.2822 -0.3535  0.4309
 3502ntf    sn219577   4.359   5.046   3.010 -0.0065  0.2194  0.1546
 3502ntf    nn319578   4.424   5.048   3.153  0.3573 -0.2737 -0.0017
 3502ntf    sn219579   4.555   5.125   3.189  0.1763  0.0818 -0.0986
 3502ntf    cn119580   4.660   5.008   3.281  0.3972  0.2204 -0.1735
 3502ntf    fn419581   4.420   4.939   2.780  0.4474 -0.2604  0.1564
 3502ntf    fn419582   4.594   4.975   2.899 -0.4369  0.1997 -0.0966
 3502ntf    fn419583   4.462   4.816   2.940 -0.0507 -0.5424 -0.1947
 3502ntf    on519584   4.362   5.164   2.928 -0.3752  0.0092 -0.1653
 3502ntf    on519585   4.233   4.977   3.020  0.2265 -0.1972  0.2342
 3502ntf    on519586   4.539   5.225   3.292  0.7216  0.1463 -0.0695
 3502ntf    on519587   4.643   5.156   3.079  0.2337 -0.0046 -0.0770
 3502ntf    fn419588   4.785   5.048   3.303  0.4357 -0.1935  0.3786
 3502ntf    fn419589   4.616   4.979   3.402  0.0080  0.1158 -0.3395
 3502ntf    fn419590   4.675   4.894   3.216  0.0678  0.0186  0.1037
 3503ntf    cn119591   2.815   1.894   3.997 -0.4412  0.0757  0.1330
 3503ntf    sn219592   2.860   2.070   3.987 -0.0257 -0.0238  0.2244
 3503ntf    nn319593   3.016   2.053   3.986 -0.0481 -0.2279  0.1314
 3503ntf    sn219594   3.132   2.044   4.091  0.1603  0.1483 -0.0644
 3503ntf    cn119595   3.265   1.956   4.004 -0.3141 -0.5338 -0.1110
 3503ntf    fn419596   2.850   1.858   4.119  0.6509 -0.3549 -0.2982
 3503ntf    fn419597   2.686   1.866   3.986 -0.4418  0.2130 -0.2194
 3503ntf    fn419598   2.881   1.819   3.910 -0.3954 -0.1547  0.3651
 3503ntf    on519599   2.811   2.120   3.861 -0.4650  0.0528  0.4209
 3503ntf    on519600   2.810   2.135   4.106  0.4778 -0.0252  0.4402
 3503ntf    on519601   3.098   1.953   4.198 -0.0048  0.4569  0.1433
 3503ntf    on519602   3.195   2.168   4.126  0.4362 -0.1747  0.6055
 3503ntf    fn419603   3.320   2.023   3.903 -0.3569 -0.2743  0.0388
 3503ntf    fn419604   3.361   1.936   4.093  0.0140 -0.4932 -0.4536
 3503ntf    fn419605   3.212   1.844   3.958 -0.6643 -0.3247 -0.2168
 3504ntf    cn119606   6.375   5.454   0.091 -0.1084  0.1381 -0.2294
 3504ntf    sn219607   6.308   5.555  -0.045 -0.2251  0.1219 -0.1841
 3504ntf    nn319608   6.434   5.556  -0.138 -0.1402  0.2705 -0.0691
 3504ntf    sn219609   6.496   5.669  -0.229  0.1052  0.1358 -0.0691
 3504ntf    cn119610   6.592   5.572  -0.349  0.1484 -0.3038  0.3154
 3504ntf    fn419611   6.444   5.345   0.065  0.2820  0.4225 -0.3896
 3504ntf    fn419612   6.462   5.518   0.167 -0.2463  0.4672 -0.3472
 3504ntf    fn419613   6.275   5.419   0.171  0.0134 -0.6267 -0.4087
 3504ntf    on519614   6.198   5.475  -0.090 -0.1250  0.1373 -0.4540
 3504ntf    on519615   6.285   5.684   0.016 -0.2937 -0.0829  0.2278
 3504ntf    on519616   6.597   5.750  -0.164  0.4370 -0.0265 -0.3826
 3504ntf    on519617   6.402   5.741  -0.311 -0.1263 -0.0021  0.0742
 3504ntf    fn419618   6.658   5.644  -0.438 -0.3870  0.1182  0.2532
 3504ntf    fn419619   6.678   5.495  -0.285  0.3567 -0.5126 -0.2094
 3504ntf    fn419620   6.512   5.493  -0.420  0.4620  0.2735 -0.7034
 3505ntf    cn119621   5.086   1.370   1.250 -0.1071 -0.0272 -0.0535
 3505ntf    sn219622   5.008   1.261   1.128  0.1564 -0.0001 -0.2486
 3505ntf    nn319623   4.855   1.292   1.144  0.2096  0.1160  0.0560
 3505ntf    sn219624   4.732   1.197   1.117  0.2115  0.0266  0.3623
 3505ntf    cn119625   4.692   1.246   0.947  0.4302  0.2404  0.3721
 3505ntf    fn419626   5.218   1.370   1.239 -0.1092  0.8045 -0.2032
 3505ntf    fn419627   5.041   1.494   1.242  0.0244  0.0822  0.7761
 3505ntf    fn419628   5.043   1.345   1.372 -0.3626 -0.5177 -0.2420
 3505ntf    on519629   5.060   1.308   1.002  0.2587 -0.1439 -0.2600
 3505ntf    on519630   5.048   1.132   1.180 -0.5107  0.0649  0.4411
 3505ntf    on519631   4.622   1.246   1.196 -0.1273  0.3677 -0.3194
 3505ntf    on519632   4.755   1.055   1.104 -0.7004 -0.1243  0.3731
 3505ntf    fn419633   4.798   1.248   0.868 -0.2933 -0.0695 -0.6217
 3505ntf    fn419634   4.597   1.182   0.880  0.3806  0.7160 -0.0218
 3505ntf    fn419635   4.646   1.370   0.951  0.0688  0.1315 -0.2941
 3506ntf    cn119636   5.403   0.263   6.428 -0.3966  0.1036  0.2639
 3506ntf    sn219637   5.548   0.350   6.495 -0.1427  0.0056 -0.1523
 3506ntf    nn319638   5.583   0.431   6.365 -0.4379 -0.0103 -0.2429
 3506ntf    sn219639   5.608   0.585   6.343  0.1754 -0.1008 -0.2052
 3506ntf    cn119640   5.741   0.565   6.221  0.1630  0.1772 -0.2660
 3506ntf    fn419641   5.358   0.165   6.504 -0.2300 -0.3285 -0.1826
 3506ntf    fn419642   5.306   0.351   6.410  0.0124  0.6245  0.5593
 3506ntf    fn419643   5.434   0.214   6.308 -0.1785 -0.4522  0.5445
 3506ntf    on519644   5.488   0.424   6.603 -0.2156 -0.0164 -0.1782
 3506ntf    on519645   5.657   0.260   6.524 -0.5268 -0.2663  0.4794
 3506ntf    on519646   5.670   0.648   6.456  0.0721  0.4094 -0.4288
 3506ntf    on519647   5.507   0.658   6.269 -0.1368 -0.7372 -0.4177
 3506ntf    fn419648   5.858   0.537   6.277 -0.2721  0.1242  0.6343
 3506ntf    fn419649   5.714   0.466   6.138 -0.3782  0.1532 -0.0615
 3506ntf    fn419650   5.750   0.675   6.149  0.7684  0.2794 -0.0470
 3507ntf    cn119651   3.873   6.964   5.666 -0.2097 -0.0697  0.2760
 3507ntf    sn219652   3.986   7.085   5.590 -0.3783 -0.0154  0.1086
 3507ntf    nn319653   4.119   7.004   5.572 -0.1393  0.2597  0.6018
 3507ntf    sn219654   4.247   7.021   5.662  0.1780  0.1456  0.1797
 3507ntf    cn119655   4.288   7.196   5.637  0.2966  0.0968  0.0375
 3507ntf    fn419656   3.853   6.861   5.586 -0.4227  0.0386  0.1871
 3507ntf    fn419657   3.919   6.924   5.783  0.1098 -0.6757 -0.0571
 3507ntf    fn419658   3.756   7.021   5.692 -0.4088 -0.3628  0.0383
 3507ntf    on519659   3.913   7.111   5.469  0.2362  0.3610 -0.1852
 3507ntf    on519660   3.996   7.190   5.688  0.1463  0.2704 -0.2479
 3507ntf    on519661   4.360   6.949   5.610 -0.2243 -0.8726  0.6869
 3507ntf    on519662   4.222   7.004   5.803 -0.5087  0.0313  0.0496
 3507ntf    fn419663   4.226   7.274   5.723 -0.5303 -0.1416 -0.3335
 3507ntf    fn419664   4.418   7.217   5.652  0.3147 -0.3815  0.5479
 3507ntf    fn419665   4.258   7.246   5.518 -0.8921 -0.0236  0.2781
 3508ntf    cn119666   4.250   2.587   2.276 -0.0763  0.5337 -0.2927
 3508ntf    sn219667   4.080   2.524   2.263  0.0813  0.0549 -0.0609
 3508ntf    nn319668   4.102   2.372   2.234 -0.0087  0.0504 -0.1070
 3508ntf    sn219669   4.128   2.297   2.099  0.3177  0.0671 -0.0545
 3508ntf    cn119670   3.960   2.249   2.049  0.3268  0.4027 -0.4117
 3508ntf    fn419671   4.325   2.559   2.170  0.0344  0.6714 -0.2519
 3508ntf    fn419672   4.256   2.719   2.279 -0.2206  0.5348 -0.0242
 3508ntf    fn419673   4.309   2.532   2.381  0.0668  0.1558 -0.5688
 3508ntf    on519674   4.034   2.538   2.399 -0.1460  0.3761 -0.1681
 3508ntf    on519675   4.006   2.593   2.160  0.2367 -0.2997 -0.4119
 3508ntf    on519676   4.192   2.168   2.109  0.5191  0.1096 -0.7242
 3508ntf    on519677   4.177   2.383   1.994 -0.0565  0.4375  0.0766
 3508ntf    fn419678   3.965   2.170   1.943 -0.3688  0.5603 -0.5629
 3508ntf    fn419679   3.902   2.177   2.143  0.2616  0.0080 -0.7481
 3508ntf    fn419680   3.877   2.351   2.034  0.0985  0.3589  0.5156
 3509ntf    cn119681   1.402   0.052   0.774  0.2325 -0.2408 -0.3299
 3509ntf    sn219682   1.463   0.123   0.930 -0.4523  0.0171 -0.1788
 3509ntf    nn319683   1.365   0.053   1.032 -0.3712  0.3024  0.0971
 3509ntf    sn219684   1.267   0.106   1.142 -0.3583 -0.2795  0.3918
 3509ntf    cn119685   1.353   0.054   1.294 -0.3418 -0.2095  0.4066
 3509ntf    fn419686   1.286   0.097   0.730  0.0584 -0.2036  0.1614
 3509ntf    fn419687   1.486   0.070   0.673  0.2254  0.1002 -0.2767
 3509ntf    fn419688   1.384  -0.079   0.784 -0.4671 -0.0750  0.7248
 3509ntf    on519689   1.600   0.080   0.944 -0.4464  0.2344  0.4977
 3509ntf    on519690   1.438   0.263   0.909 -0.1712  0.0632 -0.2016
 3509ntf    on519691   1.142   0.036   1.136 -0.3752 -0.2077 -0.0669
 3509ntf    on519692   1.264   0.249   1.158  0.2828 -0.1257 -0.7659
 3509ntf    fn419693   1.284   0.072   1.405 -0.6010  0.3227  0.1575
 3509ntf    fn419694   1.381  -0.076   1.290  0.0288 -0.1118 -0.4649
 3509ntf    fn419695   1.470   0.110   1.319 -0.0568 -0.7186  0.2427
 3510ntf    cn119696   5.124   4.941   4.899 -0.0872 -0.0560  0.2218
 3510ntf    sn219697   5.145   5.090   5.001  0.1751 -0.1180  0.2605
 3510ntf    nn319698   5.031   5.080   5.109 -0.0890 -0.2475 -0.0323
 3510ntf    sn219699   4.885   5.136   5.118  0.0950  0.2496 -0.1073
 3510ntf    cn119700   4.778   4.990   5.097  0.0255  0.2231  0.4185
 3510ntf    fn419701   5.117   4.836   4.979 -0.3030  0.3444  0.7332
 3510ntf    fn419702   5.009   4.948   4.835 -0.0636  0.5448  0.2360
 3510ntf    fn419703   5.218   4.917   4.809 -0.2542  0.0840  0.0086
 3510ntf    on519704   5.276   5.058   5.051  0.3558 -0.3013 -0.3237
 3510ntf    on519705   5.129   5.200   4.909  0.2572 -0.7625 -0.5313
 3510ntf    on519706   4.846   5.222   5.009 -0.1315 -0.1602 -0.3532
 3510ntf    on519707   4.864   5.173   5.256 -0.5247 -0.2018 -0.0722
 3510ntf    fn419708   4.777   4.959   4.969  0.2799  0.5324  0.3399
 3510ntf    fn419709   4.822   4.885   5.164 -0.1429 -0.0498  0.0995
 3510ntf    fn419710   4.650   5.008   5.124 -0.0727  0.2898 -0.0759
 3511ntf    cn119711   5.256   6.284   2.295  0.2642  0.0682  0.2511
 3511ntf    sn219712   5.238   6.174   2.151  0.0755  0.2424  0.1397
 3511ntf    nn319713   5.083   6.167   2.130  0.1253 -0.3240 -0.0329
 3511ntf    sn219714   4.988   6.239   2.027 -0.2240 -0.3557  0.2639
 3511ntf    cn119715   4.861   6.314   2.133 -0.2415  0.2172 -0.1588
 3511ntf    fn419716   5.183   6.392   2.269  0.3053 -0.0198 -0.2429
 3511ntf    fn419717   5.210   6.233   2.408  0.2449  0.0667  0.2424
 3511ntf    fn419718   5.376   6.337   2.309  0.2826  0.1104 -0.0543
 3511ntf    on519719   5.314   6.246   2.052  0.1067 -0.3546 -0.2756
 3511ntf    on519720   5.304   6.053   2.194 -0.3195  0.1169  0.3955
 3511ntf    on519721   4.922   6.142   1.943 -0.0285 -0.1014 -0.1873
 3511ntf    on519722   5.044   6.356   1.965 -0.6559 -0.2002  0.1722
 3511ntf    fn419723   4.778   6.223   2.182  0.2354 -0.2652 -0.2387
 3511ntf    fn419724   4.915   6.379   2.235  0.3029 -0.2565 -0.1421
 3511ntf    fn419725   4.781   6.398   2.069 -0.1906  0.3185 -0.0887
 3512ntf    cn119726   3.149   0.164   2.620 -0.1836 -0.4904 -0.1036
 3512ntf    sn219727   3.199   0.102   2.457  0.2993 -0.0752 -0.1158
 3512ntf    nn319728   3.084   0.147   2.359  0.2816 -0.3175 -0.2068
 3512ntf    sn219729   3.071   0.276   2.271  0.4535 -0.0878  0.1012
 3512ntf    cn119730   3.164   0.221   2.125 -0.2200 -0.5165 -0.1753
 3512ntf    fn419731   3.218   0.116   2.722 -0.1150 -0.1550  0.0072
 3512ntf    fn419732   3.145   0.296   2.625  0.1443 -0.4644 -0.5150
 3512ntf    fn419733   3.026   0.120   2.642 -0.2979 -0.0346  0.1877
 3512ntf    on519734   3.331   0.155   2.432  0.2708  0.1987  0.3154
 3512ntf    on519735   3.207  -0.042   2.466  0.4312 -0.0278  0.5559
 3512ntf    on519736   3.142   0.389   2.326 -0.2491  0.5345 -0.2539
 3512ntf    on519737   2.943   0.309   2.213  0.1972 -0.0969  0.6592
 3512ntf    fn419738   3.139   0.290   2.015  0.1664 -0.1956 -0.0662
 3512ntf    fn419739   3.295   0.229   2.142 -0.2637 -0.1156 -0.0166
 3512ntf    fn419740   3.135   0.093   2.109  0.2552 -0.5899 -0.4640
 3513ntf    cn119741   2.083   6.938   0.712 -0.2058  0.2421  0.2437
 3513ntf    sn219742   2.025   7.107   0.745 -0.5059  0.1537  0.1714
 3513ntf    nn319743   2.140   7.189   0.677 -0.2625 -0.1390  0.2276
 3513ntf    sn219744   2.205   7.325   0.720 -0.3140 -0.1316  0.2818
 3513ntf    cn119745   2.267   7.289   0.887  0.0858 -0.1439  0.1307
 3513ntf    fn419746   2.108   6.926   0.583  0.2034 -0.2314  0.3636
 3513ntf    fn419747   2.190   6.895   0.776 -0.0095 -0.0606 -0.2786
 3513ntf    fn419748   1.987   6.851   0.738  0.4133 -0.4473  0.2485
 3513ntf    on519749   1.900   7.112   0.672 -0.2179 -0.0497 -0.3379
 3513ntf    on519750   2.029   7.112   0.889  0.8504  0.3477  0.1377
 3513ntf    on519751   2.101   7.419   0.754 -0.4668 -0.1986 -0.0068
 3513ntf    on519752   2.321   7.362   0.642 -0.1300 -0.0048  0.6101
 3513ntf    fn419753   2.375   7.362   0.913 -0.1228  0.2143  0.0090
 3513ntf    fn419754   2.179   7.320   0.981 -0.3180  0.0502 -0.3116
 3513ntf    fn419755   2.296   7.161   0.905  0.2941 -0.1375 -0.1475
 3514ntf    cn119756   4.755   5.584   6.015  0.1065  0.0234 -0.0660
 3514ntf    sn219757   4.654   5.700   5.917  0.2569  0.0795 -0.1557
 3514ntf    nn319758   4.726   5.705   5.778  0.0677 -0.1318 -0.2606
 3514ntf    sn219759   4.735   5.816   5.667 -0.3392  0.2437  0.0757
 3514ntf    cn119760   4.619   5.747   5.545 -0.0662  0.3492 -0.2474
 3514ntf    fn419761   4.884   5.614   6.017  0.0770  0.1165  0.6464
 3514ntf    fn419762   4.718   5.583   6.142 -0.1551 -0.6188 -0.1477
 3514ntf    fn419763   4.746   5.458   5.977  0.1382  0.0216 -0.0682
 3514ntf    on519764   4.525   5.639   5.902 -0.0196  0.4689  0.5656
 3514ntf    on519765   4.664   5.821   5.996 -0.8043  0.4016 -0.5114
 3514ntf    on519766   4.862   5.820   5.598 -0.0306  0.6022  0.6561
 3514ntf    on519767   4.672   5.943   5.690  0.2533  0.4728  0.4692
 3514ntf    fn419768   4.663   5.628   5.508 -0.4903  0.1423 -0.0918
 3514ntf    fn419769   4.496   5.733   5.591  0.0363  0.2032 -0.0131
 3514ntf    fn419770   4.610   5.812   5.431 -0.0434  0.3420 -0.2535
 3515ntf    cn119771   6.285   2.692   3.692  0.6702 -0.0399 -0.2504
 3515ntf    sn219772   6.436   2.754   3.611  0.2094  0.7229 -0.5341
 3515ntf    nn319773   6.376   2.853   3.504 -0.3272  0.2203 -0.7048
 3515ntf    sn219774   6.422   2.891   3.359  0.0261  0.3267 -0.5672
 3515ntf    cn119775   6.296   2.816   3.250  0.2113  0.0353 -0.5830
 3515ntf    fn419776   6.304   2.602   3.787 -0.0117  0.1789  0.0955
 3515ntf    fn419777   6.210   2.786   3.747 -0.0044 -0.4953 -0.3867
 3515ntf    fn419778   6.214   2.621   3.606  0.0855  0.3542 -0.0959
 3515ntf    on519779   6.498   2.831   3.715 -0.3393  0.1791  0.2050
 3515ntf    on519780   6.506   2.639   3.558 -0.0719 -0.2525  1.1506
 3515ntf    on519781   6.547   2.835   3.314  0.1862 -0.2077  0.5165
 3515ntf    on519782   6.408   3.033   3.342 -0.3850  0.2859 -0.5756
 3515ntf    fn419783   6.178   2.866   3.282  0.1766  0.1651 -0.9103
 3515ntf    fn419784   6.314   2.848   3.123 -0.5233  1.1003 -0.4298
 3515ntf    fn419785   6.291   2.684   3.257  0.0264  0.0652 -0.0478
 3516ntf    cn119786   5.801   6.086   6.447 -0.3405 -0.5214  0.3383
 3516ntf    sn219787   5.899   6.118   6.597 -0.2750  0.0058  0.1855
 3516ntf    nn319788   6.036   6.170   6.540 -0.1158 -0.1909  0.3871
 3516ntf    sn219789   6.178   6.136   6.598 -0.0157 -0.0060  0.2519
 3516ntf    cn119790   6.279   6.217   6.471 -0.0050 -0.6535 -0.1572
 3516ntf    fn419791   5.671   6.110   6.455 -0.1379  0.7296  0.2025
 3516ntf    fn419792   5.851   6.144   6.339 -0.2819 -0.5072  0.3728
 3516ntf    fn419793   5.823   5.960   6.416 -0.0009 -0.3631 -0.0667
 3516ntf    on519794   5.831   6.223   6.669 -0.1869  0.3842 -0.2824
 3516ntf    on519795   5.906   5.991   6.664 -0.2192 -0.2648 -0.3339
 3516ntf    on519796   6.220   5.998   6.587  0.2184  0.1193 -0.5111
 3516ntf    on519797   6.209   6.212   6.716 -0.0916  0.6134 -0.1230
 3516ntf    fn419798   6.408   6.191   6.486  0.0792  0.1451  0.5240
 3516ntf    fn419799   6.251   6.171   6.350  0.0690  0.4871 -0.6207
 3516ntf    fn419800   6.265   6.348   6.470  0.6272 -0.5802 -0.4928
 3517ntf    cn119801   1.251   4.703   4.592  0.1909  0.3463 -0.5510
 3517ntf    sn219802   1.343   4.549   4.618 -0.2175  0.1577 -0.2073
 3517ntf    nn319803   1.436   4.561   4.492 -0.1191  0.2971 -0.1226
 3517ntf    sn219804   1.416   4.525   4.340 -0.0176  0.1631 -0.1046
 3517ntf    cn119805   1.549   4.403   4.313 -0.2502 -0.1381  0.1104
 3517ntf    fn419806   1.162   4.732   4.686  0.4381  0.4554 -0.3503
 3517ntf    fn419807   1.335   4.805   4.600  0.0211  0.4127  0.6267
 3517ntf    fn419808   1.195   4.704   4.472 -0.2565  0.1961 -0.3453
 3517ntf    on519809   1.415   4.578   4.740  0.1863 -0.2965 -0.3345
 3517ntf    on519810   1.253   4.436   4.616  0.3826 -0.3268 -0.3450
 3517ntf    on519811   1.462   4.633   4.256 -0.0297  0.1264 -0.1575
 3517ntf    on519812   1.293   4.461   4.304  0.3280 -0.3131 -0.4496
 3517ntf    fn419813   1.670   4.454   4.326 -0.2600  0.0201 -0.3954
 3517ntf    fn419814   1.536   4.301   4.396  0.5799  0.2712  0.7573
 3517ntf    fn419815   1.537   4.356   4.190  0.2912  0.3216 -0.1225
 3518ntf    cn119816   6.776   6.205   2.609 -0.3737 -0.0716  0.1140
 3518ntf    sn219817   6.712   6.041   2.653 -0.3210 -0.0387  0.3115
 3518ntf    nn319818   6.730   5.961   2.520  0.0575  0.3662  0.1145
 3518ntf    sn219819   6.627   5.919   2.408 -0.1575  0.3392  0.3210
 3518ntf    cn119820   6.729   5.966   2.264 -0.4416  0.2289  0.0832
 3518ntf    fn419821   6.710   6.255   2.506 -0.2898  0.0068  0.0981
 3518ntf    fn419822   6.767   6.294   2.707 -0.6666 -0.0510  0.0692
 3518ntf    fn419823   6.905   6.196   2.583 -0.1881  0.7180  0.7055
 3518ntf    on519824   6.802   6.006   2.760  0.2015  0.0638 -0.0951
 3518ntf    on519825   6.578   6.067   2.700 -0.2323 -0.0492  0.5745
 3518ntf    on519826   6.510   6.003   2.400  0.0118  0.6292  0.8225
 3518ntf    on519827   6.613   5.776   2.396 -0.2872  0.3348  0.5223
 3518ntf    fn419828   6.857   5.962   2.298 -0.3914  0.0172 -0.1312
 3518ntf    fn419829   6.711   5.882   2.164  0.2014  0.2329 -0.0373
 3518ntf    fn419830   6.714   6.088   2.215  0.1221  0.3133  0.1194
 3519ntf    cn119831   4.401   7.136   0.833  0.1074  0.1259  0.2761
 3519ntf    sn219832   4.497   7.059   0.698 -0.2619  0.3157 -0.0947
 3519ntf    nn319833   4.480   6.905   0.723 -0.1709  0.2544 -0.4082
 3519ntf    sn219834   4.382   6.802   0.656 -0.2725  0.0525  0.0480
 3519ntf    cn119835   4.477   6.752   0.510 -0.0845 -0.2127  0.2597
 3519ntf    fn419836   4.448   7.103   0.952  0.5024  0.0791  0.1094
 3519ntf    fn419837   4.400   7.268   0.825 -0.5791  0.1096  0.0504
 3519ntf    fn419838   4.277   7.092   0.827  0.1539  0.0149  0.0921
 3519ntf    on519839   4.438   7.099   0.573  0.1749 -0.4043 -0.5346
 3519ntf    on519840   4.629   7.101   0.735 -0.1423  0.2223 -0.4137
 3519ntf    on519841   4.268   6.851   0.582 -0.1265 -0.3624 -0.4529
 3519ntf    on519842   4.365   6.678   0.727  0.3599 -0.3105 -0.4273
 3519ntf    fn419843   4.503   6.848   0.422  0.2223 -0.3567  0.1906
 3519ntf    fn419844   4.598   6.705   0.535 -0.0200 -0.0757  0.2080
 3519ntf    fn419845   4.405   6.658   0.449 -0.0673 -0.1369  0.1225
 3520ntf    cn119846   0.019   1.828   6.888 -0.5100 -0.0830  0.1951
 3520ntf    sn219847  -0.024   1.897   6.725  0.0936  0.2295  0.1645
 3520ntf    nn319848   0.080   1.835   6.626  0.4305 -0.3494  0.8725
 3520ntf    sn219849   0.080   1.693   6.559 -0.2438  0.2363 -0.4078
 3520ntf    cn119850   0.230   1.622   6.633 -0.0985  0.6495 -0.3083
 3520ntf    fn419851   0.148   1.843   6.912 -0.5150  0.2112  0.0399
 3520ntf    fn419852  -0.044   1.886   6.989 -0.0970  0.1747  0.3045
 3520ntf    fn419853  -0.021   1.702   6.896 -0.0654 -0.1712  1.2077
 3520ntf    on519854  -0.159   1.850   6.706  0.0300  0.7533 -0.7104
 3520ntf    on519855   0.006   2.037   6.740  0.3035  0.1376  0.6193
 3520ntf    on519856   0.113   1.686   6.419  0.6332 -0.0653 -0.1912
 3520ntf    on519857  -0.019   1.597   6.605 -0.3733  0.2846 -0.5829
 3520ntf    fn419858   0.340   1.692   6.609  0.2547  0.0510 -0.4444
 3520ntf    fn419859   0.211   1.603   6.762  0.1232 -0.2487 -0.4012
 3520ntf    fn419860   0.250   1.500   6.587  0.2272  0.5351  0.1232
 3521ntf    cn119861   7.091   5.776   6.590  0.1159  0.5622  0.3353
 3521ntf    sn219862   7.067   5.937   6.672 -0.0787  0.5655  0.2722
 3521ntf    nn319863   7.035   6.024   6.546 -0.0707  0.2285  0.0358
 3521ntf    sn219864   7.120   6.121   6.456 -0.3099  0.1866 -0.2404
 3521ntf    cn119865   7.097   6.280   6.542  0.1486  0.1206  0.0077
 3521ntf    fn419866   6.994   5.735   6.510  0.5087 -0.2242  0.2517
 3521ntf    fn419867   7.202   5.778   6.518 -0.0026 -0.4694  0.1074
 3521ntf    fn419868   7.097   5.678   6.679 -0.3521  0.1454 -0.0847
 3521ntf    on519869   6.951   5.912   6.754 -0.2780  0.7737  0.0555
 3521ntf    on519870   7.191   5.969   6.739  0.2699 -0.2627  0.0478
 3521ntf    on519871   7.058   6.149   6.329 -0.6924 -0.1155 -0.1225
 3521ntf    on519872   7.261   6.089   6.459 -0.2725  0.3707  0.0391
 3521ntf    fn419873   7.131   6.385   6.469 -0.0242  0.0097 -0.2310
 3521ntf    fn419874   6.971   6.306   6.570  0.1278 -0.3981  0.4268
 3521ntf    fn419875   7.164   6.286   6.656  0.1091 -0.0222  0.0394
 3522ntf    cn119876   1.425   5.920   3.960  0.3104  0.2627 -0.2240
 3522ntf    sn219877   1.434   6.081   4.044  0.1260  0.1283  0.0555
 3522ntf    nn319878   1.361   6.052   4.180 -0.0527 -0.0906 -0.0856
 3522ntf    sn219879   1.209   6.049   4.216 -0.0629 -0.0978 -0.1287
 3522ntf    cn119880   1.200   5.873   4.261 -0.4943 -0.0634 -0.0739
 3522ntf    fn419881   1.460   5.827   4.048 -0.1063  0.0482 -0.2836
 3522ntf    fn419882   1.305   5.880   3.921  0.6238  0.1389 -1.0843
 3522ntf    fn419883   1.514   5.914   3.862 -0.4382  0.1193 -0.9038
 3522ntf    on519884   1.574   6.104   4.069  0.0578 -0.1003  0.6581
 3522ntf    on519885   1.367   6.164   3.947 -0.0560  0.1218  0.1766
 3522ntf    on519886   1.110   6.063   4.112 -0.1949 -0.4047 -0.0439
 3522ntf    on519887   1.191   6.122   4.339  0.1190  0.0470 -0.1872
 3522ntf    fn419888   1.282   5.849   4.362  0.0714  0.0600 -0.4942
 3522ntf    fn419889   1.078   5.836   4.296 -0.4727 -0.1299 -0.0695
 3522ntf    fn419890   1.237   5.800   4.158  0.2005  0.3915 -0.1590
 3523ntf    cn119891   0.502   5.337   1.333  0.5072  0.0756  0.0784
 3523ntf    sn219892   0.324   5.351   1.368  0.4346  0.1426 -0.3143
 3523ntf    nn319893   0.319   5.503   1.406  0.1342 -0.0530  0.4373
 3523ntf    sn219894   0.285   5.633   1.323  0.2237 -0.3028  0.0077
 3523ntf    cn119895   0.120   5.680   1.383  0.2809 -0.0763 -0.0147
 3523ntf    fn419896   0.535   5.393   1.217  0.4980  0.7485  0.3923
 3523ntf    fn419897   0.570   5.404   1.424  0.0888 -0.1900  0.5931
 3523ntf    fn419898   0.549   5.214   1.340 -0.1166 -0.1956 -0.3438
 3523ntf    on519899   0.264   5.303   1.245  0.6278  0.7201 -0.6376
 3523ntf    on519900   0.322   5.267   1.485 -0.3020 -0.0223 -0.4370
 3523ntf    on519901   0.268   5.607   1.182 -0.1042 -0.1971  0.0267
 3523ntf    on519902   0.372   5.741   1.363  0.0717 -0.2553  0.2144
 3523ntf    fn419903   0.073   5.768   1.296  0.2178 -0.0300  0.0661
 3523ntf    fn419904   0.039   5.578   1.402  0.0860  0.0192 -0.3127
 3523ntf    fn419905   0.119   5.744   1.499 -0.1295 -0.0562 -0.0265
 3524ntf    cn119906   0.504   7.086   3.156  0.1192 -0.1323  0.6968
 3524ntf    sn219907   0.544   7.246   3.232 -0.1578  0.2257  0.0950
 3524ntf    nn319908   0.582   7.327   3.103  0.2205  0.5354  0.4000
 3524ntf    sn219909   0.484   7.381   2.993  0.1763 -0.2280  0.0617
 3524ntf    cn119910   0.489   7.560   3.026  0.2590 -0.2433  0.1332
 3524ntf    fn419911   0.611   7.018   3.120  0.2456  0.4138  0.0222
 3524ntf    fn419912   0.434   7.005   3.234 -0.0648  0.0967  0.7707
 3524ntf    fn419913   0.429   7.099   3.048 -0.2359 -0.6010  0.8819
 3524ntf    on519914   0.424   7.286   3.302 -0.0821  0.2682  0.2002
 3524ntf    on519915   0.654   7.214   3.319  0.1679  0.0745 -0.3728
 3524ntf    on519916   0.343   7.360   3.016  0.2984 -0.7923  0.3250
 3524ntf    on519917   0.544   7.380   2.862  0.3474 -0.4283  0.1400
 3524ntf    fn419918   0.395   7.634   2.969  0.4031 -0.1805 -0.0260
 3524ntf    fn419919   0.469   7.592   3.152 -0.1838 -0.1282  0.0354
 3524ntf    fn419920   0.601   7.621   2.992 -0.1094  0.0591 -0.5740
 3525ntf    cn119921   3.746   2.512   7.160 -0.2928  0.2063  0.3497
 3525ntf    sn219922   3.633   2.387   7.230 -0.1956 -0.1745 -0.1658
 3525ntf    nn319923   3.515   2.471   7.291  0.1056  0.6608 -0.7069
 3525ntf    sn219924   3.361   2.475   7.261  0.0093  0.4060 -0.2548
 3525ntf    cn119925   3.299   2.482   7.432  0.1434  0.2863 -0.2008
 3525ntf    fn419926   3.787   2.588   7.260  0.4830 -0.3449  0.4597
 3525ntf    fn419927   3.851   2.467   7.094 -0.4888 -0.0317  0.1983
 3525ntf    fn419928   3.678   2.585   7.073  0.1916  0.0326 -0.1789
 3525ntf    on519929   3.590   2.301   7.123  0.5188 -0.1980 -0.4403
 3525ntf    on519930   3.708   2.326   7.337 -0.4627 -0.2202 -0.0021
 3525ntf    on519931   3.311   2.352   7.204 -0.5975  0.3427  0.3994
 3525ntf    on519932   3.318   2.599   7.202 -0.2939  0.2812 -0.3005
 3525ntf    fn419933   3.372   2.401   7.507 -0.1144  0.1065 -0.1445
 3525ntf    fn419934   3.296   2.605   7.482  0.2117  0.2787 -0.1783
 3525ntf    fn419935   3.173   2.443   7.439  0.3386 -0.3699 -0.3608
 3526ntf    cn119936   2.884   4.340   4.881 -0.0791  0.3384  0.1568
 3526ntf    sn219937   2.959   4.422   4.737 -0.1560  0.2450  0.0635
 3526ntf    nn319938   2.885   4.359   4.614  0.3258  0.2222 -0.2167
 3526ntf    sn219939   2.916   4.260   4.496  0.4099  0.0546 -0.0536
 3526ntf    cn119940   2.931   4.375   4.357  0.1204  0.0136 -0.1200
 3526ntf    fn419941   2.759   4.378   4.900 -0.1943 -0.0470  0.1888
 3526ntf    fn419942   2.882   4.210   4.857 -0.4201  0.3692  0.0214
 3526ntf    fn419943   2.944   4.358   4.998  0.1836  0.1866  0.0463
 3526ntf    on519944   2.922   4.560   4.759  0.2678  0.2840  0.5544
 3526ntf    on519945   3.100   4.391   4.745 -0.2623 -0.2907 -0.0579
 3526ntf    on519946   2.798   4.183   4.464  0.3008  0.0773  0.2800
 3526ntf    on519947   3.040   4.187   4.497  0.2673 -0.1889  0.1580
 3526ntf    fn419948   2.824   4.451   4.340  0.0612 -0.0015  0.1774
 3526ntf    fn419949   3.030   4.461   4.376 -0.3683  0.5026  0.2325
 3526ntf    fn419950   2.965   4.312   4.245  0.2408  0.0231 -0.0885
 3527ntf    cn119951   5.108   4.429   1.078  0.2596  0.1369 -0.0449
 3527ntf    sn219952   5.222   4.521   1.187  0.5715 -0.1287 -0.1443
 3527ntf    nn319953   5.197   4.452   1.325  0.4864 -0.0457 -0.1179
 3527ntf    sn219954   5.298   4.385   1.425  0.0918 -0.1192  0.2386
 3527ntf    cn119955   5.312   4.215   1.363  0.0527  0.0282 -0.1776
 3527ntf    fn419956   5.153   4.305   1.068 -0.1536  0.0323 -0.6087
 3527ntf    fn419957   4.982   4.430   1.118 -0.1083 -0.0268 -1.1819
 3527ntf    fn419958   5.109   4.470   0.953 -0.1351  0.1316 -0.0512
 3527ntf    on519959   5.350   4.494   1.126  0.3670 -0.0527 -0.6131
 3527ntf    on519960   5.179   4.658   1.178 -0.2088 -0.4364 -1.4676
 3527ntf    on519961   5.241   4.375   1.557 -0.1317  0.0697  0.1566
 3527ntf    on519962   5.433   4.433   1.404 -0.0008  0.1574  0.2755
 3527ntf    fn419963   5.293   4.205   1.232 -0.6977  0.5132 -0.1120
 3527ntf    fn419964   5.432   4.162   1.377 -0.0437 -0.2228 -0.2860
 3527ntf    fn419965   5.222   4.139   1.424 -0.1548  0.1948 -0.2733
 3528ntf    cn119966   6.169   0.173   1.975  0.5036 -0.1748 -0.0381
 3528ntf    sn219967   6.322   0.162   2.072  0.3678  0.3155  0.2333
 3528ntf    nn319968   6.399   0.044   2.002  0.7214  0.6744  0.0159
 3528ntf    sn219969   6.485  -0.071   2.065  0.0500  0.0047 -0.2731
 3528ntf    cn119970   6.364  -0.206   2.074 -0.0059  0.0281 -0.6453
 3528ntf    fn419971   6.104   0.284   2.005  0.2132 -0.2299 -0.4534
 3528ntf    fn419972   6.186   0.184   1.844  0.3214  0.2540 -0.0281
 3528ntf    fn419973   6.079   0.079   2.001  0.0109  0.2014 -0.3512
 3528ntf    on519974   6.379   0.291   2.046  0.2867  0.3456  0.2039
 3528ntf    on519975   6.276   0.142   2.207  0.3346 -0.3237  0.1337
 3528ntf    on519976   6.527  -0.045   2.200  0.1208 -0.0779 -0.2793
 3528ntf    on519977   6.587  -0.132   1.983 -0.0596 -0.0498 -0.3687
 3528ntf    fn419978   6.345  -0.272   1.961 -0.5319  0.2504 -0.6889
 3528ntf    fn419979   6.409  -0.295   2.162 -0.0816  0.2447 -0.3851
 3528ntf    fn419980   6.248  -0.163   2.120  0.5539  0.3365  0.5254
 3529ntf    cn119981   6.489   5.501   5.137  0.1561 -0.1619  0.0603
 3529ntf    sn219982   6.594   5.568   5.004 -0.0383  0.2686  0.1252
 3529ntf    nn319983   6.558   5.461   4.895  0.3405  0.4030 -0.1308
 3529ntf    sn219984   6.474   5.484   4.764 -0.1620 -0.1788  0.0890
 3529ntf    cn119985   6.605   5.521   4.644  0.1308 -0.2111  0.3961
 3529ntf    fn419986   6.529   5.381   5.178  0.7999  0.0591  0.0958
 3529ntf    fn419987   6.483   5.582   5.241 -0.3560  0.4174 -0.4191
 3529ntf    fn419988   6.363   5.488   5.100  0.2402  0.5833 -0.5018
 3529ntf    on519989   6.546   5.703   4.985  0.3022  0.4988  0.8372
 3529ntf    on519990   6.726   5.550   5.058 -0.0850 -0.0345  0.1415
 3529ntf    on519991   6.383   5.595   4.752 -0.1941 -0.1681  0.4136
 3529ntf    on519992   6.430   5.358   4.710 -0.1131  0.0052 -0.3800
 3529ntf    fn419993   6.565   5.565   4.526  1.0038  0.1665  0.2375
 3529ntf    fn419994   6.699   5.599   4.695  0.6073 -0.1788 -0.5107
 3529ntf    fn419995   6.681   5.417   4.615  0.0207 -0.1454 -0.1340
 3530ntf    cn119996   0.888   4.253   6.000  0.3864 -0.1365  0.2897
 3530ntf    sn219997   0.922   4.176   5.839 -0.2388  0.2401 -0.0235
 3530ntf    nn319998   0.896   4.302   5.749  0.3458  0.4668  0.1200
 3530ntf    sn219999   0.966   4.350   5.617  0.1949  0.2612 -0.0339
 3530ntf    cn120000   0.873   4.255   5.492  0.1277  0.4055 -0.0937
 3530ntf    fn420001   0.933   4.182   6.103 -0.1818 -0.5056  0.2859
 3530ntf    fn420002   0.940   4.375   6.001 -0.3514  0.1782  0.4782
 3530ntf    fn420003   0.760   4.272   6.028  0.2296 -0.8008  0.0384
 3530ntf    on520004   1.054   4.120   5.848 -0.1457  0.5811  0.7740
 3530ntf    on520005   0.817   4.077   5.840  0.3333 -0.3746  0.0239
 3530ntf    on520006   1.106   4.321   5.597  0.2279  0.3259  0.1052
 3530ntf    on520007   0.919   4.485   5.601 -0.3728  0.0469 -0.2372
 3530ntf    fn420008   0.861   4.126   5.520 -0.2692  0.4496 -0.0519
 3530ntf    fn420009   0.749   4.299   5.477 -0.2964 -0.5305  0.5450
 3530ntf    fn420010   0.926   4.263   5.371  0.4721 -0.1506  0.0185
 3531ntf    cn120011   3.514   5.525   2.602 -0.3287 -0.0656  0.3200
 3531ntf    sn220012   3.487   5.548   2.781  0.1343 -0.1157  0.3989
 3531ntf    nn320013   3.396   5.428   2.824 -0.2347  0.2010  0.5114
 3531ntf    sn220014   3.437   5.283   2.868 -0.0641  0.0391 -0.1653
 3531ntf    cn120015   3.274   5.215   2.908  0.1414 -0.1484  0.3617
 3531ntf    fn420016   3.405   5.541   2.530 -0.1811  0.5903  0.2329
 3531ntf    fn420017   3.594   5.617   2.551 -0.1315 -0.4157 -0.0040
 3531ntf    fn420018   3.563   5.405   2.575 -0.4474  0.0361 -0.3453
 3531ntf    on520019   3.618   5.552   2.839  0.1857  0.3862  0.2603
 3531ntf    on520020   3.419   5.675   2.787  0.2303 -0.0184 -0.3882
 3531ntf    on520021   3.515   5.271   2.989  0.5972 -0.0652 -0.5931
 3531ntf    on520022   3.484   5.200   2.760  0.6025  0.0316  0.1228
 3531ntf    fn420023   3.278   5.085   2.935 -0.3027 -0.2721 -0.1428
 3531ntf    fn420024   3.217   5.275   3.011 -0.2315  0.2133 -0.0534
 3531ntf    fn420025   3.191   5.227   2.805  0.6462 -0.1671 -0.0528
 3532ntf    cn120026   3.160   6.884   6.181 -0.3371 -0.3367 -0.1275
 3532ntf    sn220027   3.063   6.757   6.268 -0.2630 -0.3021  0.0057
 3532ntf    nn320028   3.137   6.730   6.404 -0.3227 -0.3664  0.0266
 3532ntf    sn220029   3.198   6.599   6.463 -0.0002 -0.2475 -0.0423
 3532ntf    cn120030   3.163   6.614   6.641 -0.0018  0.1137 -0.0735
 3532ntf    fn420031   3.274   6.834   6.136 -0.5162  0.1096 -1.1136
 3532ntf    fn420032   3.091   6.938   6.082 -0.3977  0.1101  0.1577
 3532ntf    fn420033   3.186   6.987   6.260  0.6893 -0.5589 -0.1600
 3532ntf    on520034   2.935   6.821   6.286 -0.0502  0.0304  0.3518
 3532ntf    on520035   3.066   6.649   6.172  0.2126  0.3937 -0.7817
 3532ntf    on520036   3.342   6.589   6.470  0.0209 -0.1652 -0.3691
 3532ntf    on520037   3.130   6.476   6.429 -0.0243 -0.2332 -0.0458
 3532ntf    fn420038   3.153   6.504   6.713  0.2723 -0.0772 -0.3284
 3532ntf    fn420039   3.252   6.688   6.705  0.0238  0.1923 -0.1983
 3532ntf    fn420040   3.044   6.669   6.663  0.2245  0.3896  0.4612
 3533ntf    cn120041   6.848   4.686   3.283  0.5098  0.0473  0.4767
 3533ntf    sn220042   6.980   4.562   3.301  0.3362 -0.1994  0.0537
 3533ntf    nn320043   7.086   4.670   3.344 -0.3828  0.7165 -0.4225
 3533ntf    sn220044   7.232   4.691   3.291 -0.1409 -0.2213 -0.1496
 3533ntf    cn120045   7.319   4.722   3.447 -0.5005 -0.2379  0.0565
 3533ntf    fn420046   6.887   4.784   3.204  0.4919  0.0066  0.4171
 3533ntf    fn420047   6.736   4.637   3.232  0.3606  0.6572  0.2084
 3533ntf    fn420048   6.808   4.742   3.396 -0.5932 -0.0648  0.1543
 3533ntf    on520049   6.925   4.485   3.410 -0.1339  0.3867  0.2428
 3533ntf    on520050   6.990   4.498   3.172 -0.5632  0.0158 -0.1320
 3533ntf    on520051   7.254   4.813   3.218  0.2174 -0.0653  0.2132
 3533ntf    on520052   7.294   4.573   3.235  0.6742 -0.0263  0.3341
 3533ntf    fn420053   7.264   4.660   3.551 -0.5636 -0.3639 -0.0514
 3533ntf    fn420054   7.443   4.675   3.453 -0.5619 -0.3448  0.5262
 3533ntf    fn420055   7.328   4.850   3.478  0.5247 -0.3076  0.1102
 3534ntf    cn120056   4.180   5.405   0.340 -0.2042  0.3073 -0.0626
 3534ntf    sn220057   4.226   5.248   0.260  0.1417  0.2197  0.3056
 3534ntf    nn320058   4.094   5.195   0.195  0.4580 -0.1083 -0.0742
 3534ntf    sn220059   4.036   5.208   0.049  0.1051  0.0316  0.0787
 3534ntf    cn120060   4.076   5.039  -0.003  0.1023 -0.1039  0.5143
 3534ntf    fn420061   4.072   5.378   0.411  0.0972  0.4476  0.4504
 3534ntf    fn420062   4.275   5.452   0.418 -0.5777  0.2112  0.4566
 3534ntf    fn420063   4.141   5.497   0.253 -0.4344 -0.0003 -0.2891
 3534ntf    on520064   4.338   5.276   0.174  0.1745 -0.1338  0.2327
 3534ntf    on520065   4.255   5.173   0.380  0.0740  0.5335  0.5210
 3534ntf    on520066   4.092   5.306  -0.041  0.1774  0.0456  0.1390
 3534ntf    on520067   3.892   5.205   0.057  0.0775  0.8918 -0.0207
 3534ntf    fn420068   4.201   5.002   0.023  0.0925 -0.3856  0.1685
 3534ntf    fn420069   3.999   4.959   0.069 -0.4103  0.1991  0.3059
 3534ntf    fn420070   4.055   5.024  -0.132  0.3895  0.0857  0.4453
 3535ntf    cn120071   1.262   5.149   5.187  0.0392  0.2474 -0.3224
 3535ntf    sn220072   1.170   5.029   5.086 -0.1839  0.0115  0.1592
 3535ntf    nn320073   1.106   4.932   5.191 -0.2895  0.1378  0.2121
 3535ntf    sn220074   1.182   4.803   5.239 -0.1688  0.0820 -0.1246
 3535ntf    cn120075   1.099   4.762   5.396  0.1698 -0.3446 -0.0566
 3535ntf    fn420076   1.391   5.119   5.187  0.0212  0.1594  0.1994
 3535ntf    fn420077   1.257   5.273   5.141  0.6439  0.2819 -0.3054
 3535ntf    fn420078   1.239   5.142   5.317 -0.5755  0.2155 -0.4300
 3535ntf    on520079   1.073   5.120   5.031  0.1300  0.3277  0.1231
 3535ntf    on520080   1.272   4.979   4.997 -0.1431  0.0449  0.1876
 3535ntf    on520081   1.316   4.822   5.288 -0.2140  0.2541 -0.0653
 3535ntf    on520082   1.154   4.689   5.156 -0.2350 -0.0806  0.1212
 3535ntf    fn420083   0.968   4.769   5.375  0.2494  0.8624 -0.1926
 3535ntf    fn420084   1.128   4.640   5.437 -0.1216 -0.4398 -0.1260
 3535ntf    fn420085   1.120   4.851   5.491 -0.3214 -0.0474 -0.2242
 3536ntf    cn120086   6.041   4.573   0.202 -0.3518  0.0208 -0.0981
 3536ntf    sn220087   5.922   4.464   0.284 -0.3538 -0.1847 -0.3752
 3536ntf    nn320088   5.936   4.502   0.436 -0.6245 -0.4303 -0.2866
 3536ntf    sn220089   5.834   4.561   0.539 -0.0782 -0.1187  0.0771
 3536ntf    cn120090   5.882   4.734   0.567  0.0101 -0.1150 -0.1023
 3536ntf    fn420091   6.053   4.542   0.074  0.2209  0.8710 -0.2586
 3536ntf    fn420092   6.008   4.699   0.229 -0.1187 -0.0786  0.6761
 3536ntf    fn420093   6.164   4.561   0.249 -0.5803  0.2711  0.5696
 3536ntf    on520094   5.800   4.504   0.217 -0.4987  0.2221  0.1275
 3536ntf    on520095   5.967   4.329   0.258 -0.3010 -0.2103 -0.1494
 3536ntf    on520096   5.856   4.501   0.669  0.5530 -0.7973 -0.3381
 3536ntf    on520097   5.699   4.572   0.491 -0.0594  0.2693  0.1083
 3536ntf    fn420098   5.814   4.782   0.670  0.1189 -0.2849  0.0486
 3536ntf    fn420099   6.010   4.739   0.601  0.0465 -0.2373 -0.2177
 3536ntf    fn420100   5.858   4.812   0.463 -0.5021 -0.0922  0.0316
 3537ntf    cn120101   2.406   6.910   5.526  0.2264 -0.2034 -0.0107
 3537ntf    sn220102   2.369   7.087   5.548 -0.3886 -0.3400  0.0930
 3537ntf    nn320103   2.515   7.140   5.525 -0.3425 -0.3322  0.3984
 3537ntf    sn220104   2.593   7.242   5.615 -0.0774 -0.2059  0.0257
 3537ntf    cn120105   2.698   7.125   5.706 -0.0410 -0.0597  0.1725
 3537ntf    fn420106   2.522   6.869   5.574  0.2759  0.2130  0.2315
 3537ntf    fn420107   2.321   6.843   5.603  0.3018 -0.2282  0.0513
 3537ntf    fn420108   2.396   6.866   5.402  0.3355  0.1643 -0.1498
 3537ntf    on520109   2.285   7.127   5.439  0.3263 -0.0339 -0.3555
 3537ntf    on520110   2.320   7.108   5.682  0.1086 -0.4935  0.3011
 3537ntf    on520111   2.514   7.318   5.708 -0.5067  0.2028 -0.6595
 3537ntf    on520112   2.696   7.314   5.543 -0.1603 -0.4212 -0.3124
 3537ntf    fn420113   2.793   7.069   5.633  0.0414  0.1513  0.1171
 3537ntf    fn420114   2.759   7.180   5.809  0.1701  0.3135 -0.1480
 3537ntf    fn420115   2.615   7.031   5.750 -0.0238 -0.0226  0.2836
 3538ntf    cn120116   6.341   4.863   3.965  0.0051  0.3572 -0.3490
 3538ntf    sn220117   6.420   4.751   3.846  0.0955  0.1213 -0.0695
 3538ntf    nn320118   6.297   4.731   3.750 -0.1036  0.1620  0.1745
 3538ntf    sn220119   6.174   4.637   3.777  0.1079 -0.0385  0.4465
 3538ntf    cn120120   6.073   4.683   3.633  0.0506 -0.4107  0.3683
 3538ntf    fn420121   6.286   4.791   4.062  0.3612  0.0110 -0.4008
 3538ntf    fn420122   6.427   4.941   4.030 -0.1991  0.4696 -0.2108
 3538ntf    fn420123   6.254   4.944   3.906 -0.0313  0.5449 -0.0421
 3538ntf    on520124   6.524   4.836   3.794  0.2530 -0.0897 -0.0999
 3538ntf    on520125   6.467   4.635   3.918 -0.2844  0.0241  0.0242
 3538ntf    on520126   6.078   4.665   3.881 -0.0157  0.1286  0.2872
 3538ntf    on520127   6.204   4.498   3.760 -0.0741 -0.0160 -0.0656
 3538ntf    fn420128   6.144   4.658   3.524 -0.0797  0.0187  0.1806
 3538ntf    fn420129   5.959   4.617   3.625  0.1003 -0.4024 -0.4717
 3538ntf    fn420130   6.037   4.810   3.623 -0.2319 -0.5599 -0.5964
 3539ntf    cn120131   2.189   6.125   3.053 -0.3152  0.2940  0.3639
 3539ntf    sn220132   2.365   6.113   3.008 -0.3917 -0.3836  0.2424
 3539ntf    nn320133   2.356   5.990   2.910 -0.1118  0.4572 -0.8577
 3539ntf    sn220134   2.391   5.837   2.912 -0.0164  0.4824  0.1473
 3539ntf    cn120135   2.534   5.841   2.799 -0.0237 -0.0721  0.1176
 3539ntf    fn420136   2.160   6.021   3.128  0.2180  0.2020  0.4459
 3539ntf    fn420137   2.165   6.239   3.116  0.0424  0.3901  0.3284
 3539ntf    fn420138   2.111   6.121   2.946  0.1308 -0.0689  0.0501
 3539ntf    on520139   2.387   6.240   2.944  0.3564 -0.4021  0.4610
 3539ntf    on520140   2.440   6.077   3.126  0.3452 -0.4243 -0.2351
 3539ntf    on520141   2.295   5.762   2.834  0.8256 -0.1846 -0.2671
 3539ntf    on520142   2.435   5.776   3.035 -1.0089 -0.2887  0.1285
 3539ntf    fn420143   2.565   5.720   2.755  0.2533  0.0889 -0.1286
 3539ntf    fn420144   2.514   5.917   2.693  0.2240 -0.3226 -0.1107
 3539ntf    fn420145   2.648   5.880   2.854  0.4092 -0.5232 -0.4596
 3540ntf    cn120146   1.899   1.576   1.767  0.3235 -0.2398  0.0333
 3540ntf    sn220147   1.893   1.530   1.942 -0.2743  0.0239  0.0855
 3540ntf    nn320148   1.942   1.663   2.010  0.2035 -0.3356  0.4579
 3540ntf    sn220149   2.089   1.707   2.043  0.0887  0.4467 -0.0538
 3540ntf    cn120150   2.071   1.655   2.216  0.2863 -0.1916 -0.2257
 3540ntf    fn420151   1.830   1.687   1.743  0.0401 -0.2765  0.6568
 3540ntf    fn420152   2.023   1.588   1.722  0.2023  0.0434 -0.2351
 3540ntf    fn420153   1.840   1.486   1.691  0.2817  0.0963 -0.3403
 3540ntf    on520154   1.752   1.502   1.953 -0.1966 -0.2770  0.3477
 3540ntf    on520155   1.978   1.413   1.951  0.2033  0.3252 -0.4559
 3540ntf    on520156   2.110   1.850   2.050  0.0840  0.4557 -0.2332
 3540ntf    on520157   2.185   1.617   1.986 -0.3545 -0.4697  0.6199
 3540ntf    fn420158   2.184   1.674   2.282 -0.1929 -0.7509  0.7902
 3540ntf    fn420159   1.978   1.722   2.282  0.5254 -0.3599  0.2930
 3540ntf    fn420160   2.040   1.527   2.229  0.1460 -0.1406 -0.0426
 3541ntf    cn120161   4.131   1.063   5.128 -0.1238 -0.0418 -0.0766
 3541ntf    sn220162   4.126   1.222   5.039 -0.0233 -0.0185 -0.0411
 3541ntf    nn320163   4.150   1.317   5.161 -0.5146 -0.0380  0.0748
 3541ntf    sn220164   4.265   1.421   5.187 -0.0649 -0.5819  0.2645
 3541ntf    cn120165   4.390   1.310   5.260  0.2923 -0.3615 -0.0065
 3541ntf    fn420166   4.104   0.967   5.041 -0.3354  0.1839 -0.2618
 3541ntf    fn420167   4.247   1.035   5.186 -0.2748 -0.0898  0.2021
 3541ntf    fn420168   4.044   1.061   5.228 -0.0980  0.4405 -0.0373
 3541ntf    on520169   4.237   1.217   4.947 -0.3489 -0.1573 -0.4353
 3541ntf    on520170   3.995   1.223   4.977 -0.2259  0.3160  0.3926
 3541ntf    on520171   4.236   1.508   5.298 -0.3412 -0.3522  0.0134
 3541ntf    on520172   4.330   1.476   5.071  0.4710 -0.5687  0.5652
 3541ntf    fn420173   4.508   1.366   5.279 -0.0383  0.3300  0.0596
 3541ntf    fn420174   4.348   1.253   5.372 -0.2762  0.1259  0.0332
 3541ntf    fn420175   4.410   1.210   5.176  0.1586 -0.2938 -0.1193
 3542ntf    cn120176   4.496   2.751   0.651 -0.1443  0.0722 -0.0081
 3542ntf    sn220177   4.607   2.653   0.757 -0.4177 -0.3694 -0.1324
 3542ntf    nn320178   4.608   2.516   0.679 -0.4316  0.0184 -0.8237
 3542ntf    sn220179   4.703   2.470   0.564  0.2816 -0.0162 -0.2280
 3542ntf    cn120180   4.848   2.417   0.660 -0.2111 -0.2336  0.3988
 3542ntf    fn420181   4.466   2.863   0.714  0.2767  0.2317 -0.0830
 3542ntf    fn420182   4.562   2.784   0.541 -0.1342  0.2467  0.0490
 3542ntf    fn420183   4.382   2.690   0.627 -0.1462 -0.1085  0.4486
 3542ntf    on520184   4.732   2.723   0.760 -0.1753 -0.7841 -0.3741
 3542ntf    on520185   4.536   2.655   0.883  0.5618  0.4378  0.4160
 3542ntf    on520186   4.750   2.579   0.481  0.2346  0.2540  0.0966
 3542ntf    on520187   4.659   2.352   0.494  0.1809 -0.2108  0.1617
 3542ntf    fn420188   4.881   2.491   0.765 -0.6267  0.0063  0.3630
 3542ntf    fn420189   4.826   2.297   0.712  0.4612 -0.5080  0.0561
 3542ntf    fn420190   4.951   2.398   0.579 -0.4076 -0.3020  0.1605
 3543ntf    cn120191   3.116   1.962   1.376 -0.2970  0.1207  0.1169
 3543ntf    sn220192   3.049   1.943   1.543 -0.1040  0.4099  0.2267
 3543ntf    nn320193   3.036   1.787   1.544 -0.1376  0.4039 -0.7970
 3543ntf    sn220194   2.908   1.700   1.569 -0.0686  0.4497 -0.2820
 3543ntf    cn120195   2.985   1.545   1.625 -0.2530  0.4109 -0.1350
 3543ntf    fn420196   3.219   1.880   1.358 -0.4350 -0.1641  0.6223
 3543ntf    fn420197   3.032   1.935   1.277  0.0313 -0.5707  0.0157
 3543ntf    fn420198   3.161   2.084   1.352  0.0982  0.0931  0.6875
 3543ntf    on520199   3.153   1.995   1.629 -0.1354 -0.1327  0.5984
 3543ntf    on520200   2.927   2.017   1.523 -0.1312  0.2506 -0.1871
 3543ntf    on520201   2.854   1.655   1.443 -0.1610  0.2973 -0.1889
 3543ntf    on520202   2.819   1.727   1.679 -0.1532 -0.1894 -0.1862
 3543ntf    fn420203   2.904   1.467   1.696  0.0088  0.6327  0.4173
 3543ntf    fn420204   3.010   1.463   1.525 -0.0612  0.0970  0.1683
 3543ntf    fn420205   3.095   1.562   1.697 -0.3583  0.6037 -0.0208
 3544ntf    cn120206   4.943   5.247   1.170 -0.0836 -0.5660 -0.5055
 3544ntf    sn220207   4.958   5.162   1.330  0.0301 -0.1222 -0.2793
 3544ntf    nn320208   4.806   5.137   1.364  0.1278 -0.3231  0.0159
 3544ntf    sn220209   4.740   5.043   1.471 -0.1072 -0.0887  0.0771
 3544ntf    cn120210   4.680   4.904   1.370 -0.1938 -0.0687  0.1012
 3544ntf    fn420211   4.905   5.165   1.073  0.1653 -0.7750 -0.4268
 3544ntf    fn420212   4.860   5.350   1.171  0.5392 -0.0646 -0.7129
 3544ntf    fn420213   5.057   5.303   1.134 -0.4712  0.5307 -0.0642
 3544ntf    on520214   5.028   5.042   1.291  0.1097  0.0263 -0.5918
 3544ntf    on520215   5.020   5.254   1.422  0.3210 -0.7609  0.1740
 3544ntf    on520216   4.614   5.095   1.517 -0.2791 -0.1695 -0.3054
 3544ntf    on520217   4.829   4.986   1.569 -0.2349  0.1411  0.3288
 3544ntf    fn420218   4.767   4.849   1.288 -0.5447 -0.3006 -0.1161
 3544ntf    fn420219   4.632   4.803   1.440  0.4859 -0.5989 -0.1886
 3544ntf    fn420220   4.579   4.940   1.292  0.4680  0.0811 -0.7016
 3545ntf    cn120221   2.805   6.257   0.227  0.3284 -0.3743 -0.1801
 3545ntf    sn220222   2.692   6.117   0.252  0.0148 -0.0871  0.0229
 3545ntf    nn320223   2.627   6.105   0.110  0.1110 -0.0377 -0.0252
 3545ntf    sn220224   2.477   6.126   0.066  0.1161 -0.0491 -0.0480
 3545ntf    cn120225   2.485   6.303   0.025 -0.3795  0.0473  0.2662
 3545ntf    fn420226   2.881   6.281   0.332 -0.2538 -0.0678  0.1752
 3545ntf    fn420227   2.893   6.234   0.131  0.2117  0.4524 -0.4979
 3545ntf    fn420228   2.747   6.374   0.202  0.5670 -0.1695  0.2150
 3545ntf    on520229   2.783   6.008   0.276  0.0848 -0.0158  0.0783
 3545ntf    on520230   2.617   6.171   0.363 -0.2276  0.1939 -0.2751
 3545ntf    on520231   2.378   6.113   0.170 -0.2523 -0.1899 -0.4123
 3545ntf    on520232   2.443   6.058  -0.057  0.1339 -0.2865  0.0777
 3545ntf    fn420233   2.521   6.377   0.129  0.3026 -0.0792  0.1275
 3545ntf    fn420234   2.587   6.322  -0.057 -0.4060 -0.1337  0.1909
 3545ntf    fn420235   2.379   6.355  -0.034 -0.2277  0.1538  0.0866
 3546ntf    cn120236   0.189   6.649   3.949 -0.3639 -0.1044 -0.3034
 3546ntf    sn220237   0.249   6.510   4.050 -0.0388  0.1152 -0.1905
 3546ntf    nn320238   0.220   6.569   4.192 -0.0807  0.1267 -0.2036
 3546ntf    sn220239   0.118   6.506   4.294 -0.1201 -0.2821 -0.4935
 3546ntf    cn120240   0.189   6.343   4.330  0.0566 -0.0457  0.2301
 3546ntf    fn420241   0.061   6.667   3.977 -0.1956 -0.1273  0.5136
 3546ntf    fn420242   0.256   6.760   3.976  0.2569 -0.4795 -0.2829
 3546ntf    fn420243   0.205   6.632   3.819  0.4432 -0.2366 -0.1929
 3546ntf    on520244   0.164   6.402   4.005 -0.0527  0.1987 -0.3698
 3546ntf    on520245   0.389   6.495   4.019  0.1734  0.3086  0.6651
 3546ntf    on520246  -0.011   6.479   4.236 -0.4012  0.0796 -0.0444
 3546ntf    on520247   0.125   6.564   4.425 -0.2319  0.2929 -0.7397
 3546ntf    fn420248   0.313   6.356   4.375  0.0703 -0.0365  0.1895
 3546ntf    fn420249   0.122   6.277   4.423 -0.2723 -0.1095 -0.0513
 3546ntf    fn420250   0.208   6.266   4.225  0.1262 -0.4318  0.5220
 3547ntf    cn120251   0.578   2.789   6.795 -0.3191 -0.0343 -0.3337
 3547ntf    sn220252   0.467   2.931   6.817 -0.2834 -0.1204  0.4146
 3547ntf    nn320253   0.483   2.965   6.970 -0.5731 -0.1702  0.4581
 3547ntf    sn220254   0.540   3.094   7.039 -0.1699 -0.1268  0.0507
 3547ntf    cn120255   0.698   3.021   7.093 -0.1489  0.2485  0.4990
 3547ntf    fn420256   0.578   2.741   6.672  0.2138 -0.2479 -0.2530
 3547ntf    fn420257   0.704   2.822   6.818 -0.2771 -0.6217  0.3101
 3547ntf    fn420258   0.547   2.695   6.883  0.4919 -0.6494 -0.6827
 3547ntf    on520259   0.528   3.024   6.727 -0.3161 -0.2136  0.2959
 3547ntf    on520260   0.340   2.873   6.779 -0.4253  0.1022  0.5502
 3547ntf    on520261   0.467   3.117   7.161  0.1215 -0.5325  0.3054
 3547ntf    on520262   0.572   3.202   6.950 -0.0445 -0.6629 -0.5659
 3547ntf    fn420263   0.672   2.921   7.175 -0.2799  0.1968  0.3951
 3547ntf    fn420264   0.771   2.976   6.992 -0.0969  0.3660  0.4834
 3547ntf    fn420265   0.786   3.108   7.141  0.2319  0.0721  0.1288
 3548ntf    cn120266   2.031   4.333   0.458  0.3127 -0.1796  0.0729
 3548ntf    sn220267   2.132   4.203   0.536  0.1322 -0.3241  0.0664
 3548ntf    nn320268   2.173   4.130   0.403 -0.3005 -0.4846  0.0223
 3548ntf    sn220269   2.314   4.131   0.334 -0.3586 -0.2422 -0.0990
 3548ntf    cn120270   2.276   4.154   0.158 -0.0821 -0.2581 -0.1608
 3548ntf    fn420271   1.967   4.406   0.548 -0.0019 -0.2780 -0.0734
 3548ntf    fn420272   2.105   4.411   0.381 -0.3118 -0.0390 -0.3845
 3548ntf    fn420273   1.945   4.275   0.376  0.4246  0.2592 -0.3596
 3548ntf    on520274   2.238   4.271   0.607  0.0660  0.3695 -0.4743
 3548ntf    on520275   2.041   4.119   0.608 -0.5602  0.2007 -0.1835
 3548ntf    on520276   2.370   3.998   0.333 -0.4992 -0.3055  0.1360
 3548ntf    on520277   2.407   4.232   0.378 -0.6675  0.0240 -0.0533
 3548ntf    fn420278   2.214   4.049   0.108 -0.4690 -0.0116 -0.2010
 3548ntf    fn420279   2.192   4.255   0.142  0.2301 -0.0584 -0.5645
 3548ntf    fn420280   2.378   4.183   0.078  0.0391 -0.3183 -0.0290
 3549ntf    cn120281   6.563   0.785   4.910 -0.0795  0.7739  0.0480
 3549ntf    sn220282   6.586   0.774   5.090 -0.2627  0.3650  0.0497
 3549ntf    nn320283   6.467   0.680   5.128 -0.9122  0.7877 -0.8867
 3549ntf    sn220284   6.369   0.693   5.251  0.0323  0.1130 -0.0410
 3549ntf    cn120285   6.268   0.839   5.211  0.4729  0.3491 -0.3030
 3549ntf    fn420286   6.434   0.788   4.880 -0.1468 -0.2091  0.2095
 3549ntf    fn420287   6.622   0.892   4.860 -0.1421  0.5189 -0.5816
 3549ntf    fn420288   6.607   0.678   4.846 -0.3790  0.5083  0.2823
 3549ntf    on520289   6.717   0.715   5.105 -0.2299  0.5898  0.6799
 3549ntf    on520290   6.572   0.912   5.130 -0.6579  0.3805 -0.1443
 3549ntf    on520291   6.431   0.719   5.378 -0.3361 -0.2753  0.2193
 3549ntf    on520292   6.279   0.581   5.265 -0.1873  0.2362 -0.4535
 3549ntf    fn420293   6.215   0.817   5.092  0.5085 -0.0306 -0.2507
 3549ntf    fn420294   6.176   0.858   5.303  0.4842 -0.5208 -0.0999
 3549ntf    fn420295   6.340   0.950   5.210  0.8441  0.1080 -0.6126
 3550ntf    cn120296   0.399   4.690   5.419 -0.0602  0.0718 -0.0933
 3550ntf    sn220297   0.246   4.786   5.401 -0.1324  0.0474  0.3818
 3550ntf    nn320298   0.147   4.696   5.483 -0.7315 -0.0650 -0.4461
 3550ntf    sn220299   0.065   4.718   5.615 -0.1177  0.1950 -0.0984
 3550ntf    cn120300   0.196   4.687   5.736 -0.0994 -0.4068 -0.2688
 3550ntf    fn420301   0.375   4.573   5.362 -0.0556  0.1102 -0.1742
 3550ntf    fn420302   0.497   4.748   5.352  0.1194 -0.0844  0.0302
 3550ntf    fn420303   0.434   4.667   5.545  0.3802 -0.2876 -0.2732
 3550ntf    on520304   0.287   4.906   5.469 -0.7543  0.1673  0.5516
 3550ntf    on520305   0.224   4.789   5.259  0.0880  0.5622  0.3565
 3550ntf    on520306  -0.029   4.610   5.631  0.1144 -0.0128 -0.1381
 3550ntf    on520307   0.015   4.853   5.629 -0.0724  0.2328 -0.2919
 3550ntf    fn420308   0.305   4.761   5.722 -0.0047 -0.5116 -0.0917
 3550ntf    fn420309   0.160   4.698   5.863 -0.3678 -0.5793 -0.3283
 3550ntf    fn420310   0.238   4.562   5.724  0.3718 -0.3570  0.7427
 3551ntf    cn120311   1.192   2.656   2.614  0.3391 -0.0847 -0.1376
 3551ntf    sn220312   1.105   2.518   2.694  0.1165  0.1692  0.0601
 3551ntf    nn320313   1.214   2.452   2.784  0.1793  0.6426  0.3369
 3551ntf    sn220314   1.201   2.390   2.928  0.4827 -0.0011  0.0934
 3551ntf    cn120315   1.279   2.518   3.030  0.6135  0.0209 -0.0337
 3551ntf    fn420316   1.119   2.728   2.530  0.2074  0.5021  0.4636
 3551ntf    fn420317   1.233   2.745   2.703 -0.3847 -0.4622  0.5877
 3551ntf    fn420318   1.294   2.615   2.542  0.2786 -0.6433  0.0895
 3551ntf    on520319   1.001   2.585   2.769  0.4120  0.2623  0.3905
 3551ntf    on520320   1.059   2.438   2.583  0.3288 -0.1308  0.1872
 3551ntf    on520321   1.297   2.285   2.952  0.0363 -0.5198 -0.3630
 3551ntf    on520322   1.066   2.373   2.976  0.2793  0.7193 -0.2055
 3551ntf    fn420323   1.407   2.542   3.007  0.8125 -0.3423  0.6688
 3551ntf    fn420324   1.222   2.637   3.016 -0.0975 -0.3480 -0.3407
 3551ntf    fn420325   1.272   2.489   3.159 -0.0051  0.0273 -0.0607
 3552ntf    cn120326   1.630   2.571   6.533  0.1056 -0.2407 -0.0062
 3552ntf    sn220327   1.484   2.550   6.638  0.2991  0.3090  0.3762
 3552ntf    nn320328   1.373   2.574   6.530 -0.3500  0.0466  0.9711
 3552ntf    sn220329   1.314   2.710   6.480  0.4451  0.0276 -0.0555
 3552ntf    cn120330   1.168   2.726   6.587  0.3397 -0.0437 -0.1880
 3552ntf    fn420331   1.740   2.573   6.606  0.0908  0.4477  0.0012
 3552ntf    fn420332   1.628   2.472   6.445  0.3871 -0.0274 -0.2537
 3552ntf    fn420333   1.625   2.687   6.469  0.3299  0.0637  0.5239
 3552ntf    on520334   1.485   2.412   6.681 -0.4998  0.2071  0.0908
 3552ntf    on520335   1.508   2.654   6.735  0.1369  0.8935 -0.2056
 3552ntf    on520336   1.250   2.708   6.350  0.4797 -0.8249 -0.0608
 3552ntf    on520337   1.394   2.827   6.508 -0.0254  0.1969  0.5939
 3552ntf    fn420338   1.102   2.835   6.552  0.0101 -0.3119 -0.4048
 3552ntf    fn420339   1.086   2.623   6.585 -0.4243  0.5599 -0.3946
 3552ntf    fn420340   1.194   2.749   6.715  0.5083 -0.0051 -0.2279
 3553ntf    cn120341   4.413   2.148   3.495  0.2763 -0.1219  0.2790
 3553ntf    sn220342   4.471   2.191   3.328 -0.0948  0.0109  0.1833
 3553ntf    nn320343   4.624   2.217   3.353 -0.0702 -0.1133  0.1621
 3553ntf    sn220344   4.734   2.296   3.273 -0.0127 -0.2807  0.0761
 3553ntf    cn120345   4.741   2.441   3.383  0.2619  0.0192 -0.3338
 3553ntf    fn420346   4.422   2.248   3.581 -0.0996 -0.0288  0.2115
 3553ntf    fn420347   4.286   2.111   3.493  0.1939  0.1842 -0.3637
 3553ntf    fn420348   4.488   2.058   3.556  0.2906  0.2176  0.7667
 3553ntf    on520349   4.452   2.070   3.252  0.7845 -0.0036 -0.0270
 3553ntf    on520350   4.400   2.310   3.287  0.2654  0.0986 -0.1952
 3553ntf    on520351   4.699   2.353   3.145  0.1389 -0.2656  0.0416
 3553ntf    on520352   4.865   2.237   3.288  0.4144  0.5540 -0.2943
 3553ntf    fn420353   4.737   2.403   3.509  0.0433  0.0713 -0.3243
 3553ntf    fn420354   4.857   2.503   3.371 -0.0678  0.6346 -0.3899
 3553ntf    fn420355   4.645   2.531   3.371 -0.2193 -0.3822  0.4198
 3554ntf    cn120356   1.494   1.152   2.557  0.1772 -0.0741 -0.0733
 3554ntf    sn220357   1.476   0.971   2.565  0.0269 -0.0636 -0.1809
 3554ntf    nn320358   1.552   0.952   2.701  0.3512  0.2029 -0.3247
 3554ntf    sn220359   1.706   0.948   2.734  0.2686 -0.1763  0.0188
 3554ntf    cn120360   1.695   0.801   2.839 -0.0245  0.1682  0.4759
 3554ntf    fn420361   1.402   1.211   2.632 -0.0101 -0.3304 -0.0986
 3554ntf    fn420362   1.613   1.192   2.600  0.4638 -0.9017 -0.0801
 3554ntf    fn420363   1.476   1.196   2.434 -0.3496  0.3304  0.1405
 3554ntf    on520364   1.333   0.958   2.574 -0.0514  0.5801 -0.3926
 3554ntf    on520365   1.546   0.931   2.445  0.4124 -0.0424  0.0355
 3554ntf    on520366   1.747   1.051   2.826  0.5144 -0.0546 -0.2261
 3554ntf    on520367   1.795   0.923   2.624  0.2066 -0.2134 -0.0230
 3554ntf    fn420368   1.636   0.700   2.777  0.2734  0.4614 -0.2935
 3554ntf    fn420369   1.820   0.773   2.873  0.2623 -0.2119 -0.8401
 3554ntf    fn420370   1.628   0.818   2.952 -0.5161  0.1506  0.1882
 3555ntf    cn120371   2.269   1.047   2.627 -0.1602 -0.3079 -0.4276
 3555ntf    sn220372   2.353   0.946   2.502 -0.0720 -0.4993 -0.2136
 3555ntf    nn320373   2.470   1.039   2.452 -0.2424 -0.4302 -0.4865
 3555ntf    sn220374   2.588   1.016   2.351  0.4854  0.2854  0.1813
 3555ntf    cn120375   2.721   0.968   2.465  0.3214  0.0130  0.2601
 3555ntf    fn420376   2.177   0.971   2.684 -0.0613  0.0594  0.2371
 3555ntf    fn420377   2.334   1.094   2.732  0.6728 -0.7563 -0.7292
 3555ntf    fn420378   2.200   1.149   2.578 -0.0308  0.1130  0.2480
 3555ntf    on520379   2.404   0.843   2.590  0.0709 -0.5472 -0.3516
 3555ntf    on520380   2.248   0.926   2.406 -0.0186  0.1883 -0.4188
 3555ntf    on520381   2.633   1.140   2.295  0.1842 -0.1448 -1.0532
 3555ntf    on520382   2.576   0.909   2.255  0.0118  0.6331 -0.1567
 3555ntf    fn420383   2.828   0.925   2.401  0.1335 -0.2461  0.1160
 3555ntf    fn420384   2.765   1.071   2.535 -0.4316  0.3854  0.2007
 3555ntf    fn420385   2.684   0.871   2.547  0.3354  0.1604  0.4403
 3556ntf    cn120386   4.373   3.302   5.719  0.4180  0.1206  0.3481
 3556ntf    sn220387   4.361   3.330   5.899  0.4148 -0.1071  0.3829
 3556ntf    nn320388   4.510   3.295   5.937  0.3919 -0.4957  0.1198
 3556ntf    sn220389   4.635   3.378   5.981  0.1023  0.0182 -0.0134
 3556ntf    cn120390   4.627   3.366   6.162 -0.1822  0.3089 -0.0064
 3556ntf    fn420391   4.450   3.387   5.653  0.5341  0.0908  0.4444
 3556ntf    fn420392   4.418   3.178   5.706 -0.6361 -0.3151  0.7069
 3556ntf    fn420393   4.257   3.307   5.657  0.4224  0.1958  0.3449
 3556ntf    on520394   4.319   3.466   5.921  0.4798 -0.1194  0.5860
 3556ntf    on520395   4.272   3.226   5.944  0.1971 -0.2706 -0.4084
 3556ntf    on520396   4.636   3.521   5.962 -0.0592 -0.0486 -0.5458
 3556ntf    on520397   4.753   3.301   5.949 -0.2501 -0.7545  0.5313
 3556ntf    fn420398   4.605   3.243   6.203 -0.0143  0.2457 -0.1042
 3556ntf    fn420399   4.736   3.402   6.228 -0.2199 -0.1743  0.3211
 3556ntf    fn420400   4.529   3.448   6.197  0.0513  0.5816  0.0179
 3557ntf    cn120401   5.527   1.413   1.570 -0.2639  0.0474  0.2194
 3557ntf    sn220402   5.555   1.434   1.748  0.2042 -0.0676  0.1619
 3557ntf    nn320403   5.531   1.589   1.755 -0.4238 -0.1628  0.2368
 3557ntf    sn220404   5.643   1.699   1.768 -0.4251 -0.1220 -0.0880
 3557ntf    cn120405   5.684   1.677   1.944 -0.0976 -0.1499 -0.1679
 3557ntf    fn420406   5.504   1.528   1.508  0.1005 -0.1321 -0.2545
 3557ntf    fn420407   5.625   1.361   1.498 -0.1882  0.1070  0.2792
 3557ntf    fn420408   5.419   1.340   1.547 -0.4409  0.4150 -0.1400
 3557ntf    on520409   5.453   1.352   1.809  0.1320  0.0400  0.1859
 3557ntf    on520410   5.687   1.381   1.772  0.0434 -0.7982 -0.5355
 3557ntf    on520411   5.592   1.834   1.759 -0.1751  0.0089  0.4260
 3557ntf    on520412   5.761   1.661   1.696 -0.0559  0.5987  0.1220
 3557ntf    fn420413   5.569   1.667   2.008  0.0738 -0.2484  0.1267
 3557ntf    fn420414   5.760   1.568   1.954  0.2203  0.0696 -0.1691
 3557ntf    fn420415   5.753   1.777   1.996 -0.3276 -0.0288 -0.0972
 3558ntf    cn120416   6.185   0.965   3.417  0.2631  0.0524  0.1719
 3558ntf    sn220417   6.344   1.053   3.406  0.1987  0.1463 -0.0206
 3558ntf    nn320418   6.436   0.926   3.415 -0.1070 -0.0913 -0.2410
 3558ntf    sn220419   6.533   0.870   3.525 -0.2787 -0.2038 -0.1464
 3558ntf    cn120420   6.502   0.692   3.499 -0.0166 -0.2411 -0.2073
 3558ntf    fn420421   6.076   1.039   3.433 -0.1189 -0.4643 -0.0077
 3558ntf    fn420422   6.160   0.873   3.325 -0.2160  0.1202  0.2314
 3558ntf    fn420423   6.191   0.901   3.533 -0.7317 -0.2180  0.0796
 3558ntf    on520424   6.342   1.108   3.273 -0.2645 -0.4116 -0.2495
 3558ntf    on520425   6.356   1.147   3.515 -0.1569  0.7124 -0.4640
 3558ntf    on520426   6.493   0.878   3.663 -0.1404  0.0409 -0.1206
 3558ntf    on520427   6.675   0.879   3.503 -0.3183  0.0523 -0.2981
 3558ntf    fn420428   6.558   0.617   3.592  0.4541  0.1933 -0.1343
 3558ntf    fn420429   6.373   0.666   3.486 -0.0126 -0.2026 -0.3214
 3558ntf    fn420430   6.556   0.649   3.387 -0.2117 -0.5810 -0.1694
 3559ntf    cn120431   1.936   4.378   6.972  0.0022  0.0441 -0.1368
 3559ntf    sn220432   1.956   4.545   6.903 -0.2742  0.0076 -0.3101
 3559ntf    nn320433   1.945   4.522   6.748  0.0156 -0.4770 -0.2608
 3559ntf    sn220434   1.905   4.619   6.631 -0.1987  0.1965  0.3601
 3559ntf    cn120435   2.026   4.572   6.504 -0.3509  0.0954  0.2533
 3559ntf    fn420436   2.026   4.299   6.916  0.0479  0.2278 -0.3278
 3559ntf    fn420437   1.962   4.370   7.101  0.3787 -0.4816 -0.2432
 3559ntf    fn420438   1.818   4.326   6.942 -0.0956  0.1036  0.1425
 3559ntf    on520439   1.852   4.626   6.961 -0.3451 -0.2660 -0.0539
 3559ntf    on520440   2.092   4.578   6.941 -0.5379  0.3547  0.3556
 3559ntf    on520441   1.944   4.756   6.654  0.8658 -0.0117 -0.1487
 3559ntf    on520442   1.782   4.581   6.566  0.3344 -0.0664 -0.5092
 3559ntf    fn420443   2.134   4.517   6.557 -0.3168 -0.4029 -0.3185
 3559ntf    fn420444   1.986   4.474   6.424 -0.2806  0.3099 -0.0488
 3559ntf    fn420445   2.047   4.675   6.424  0.1472 -0.0883  0.1440
 3560ntf    cn120446   2.485   3.466   5.521 -0.3908  0.2588  0.1361
 3560ntf    sn220447   2.497   3.416   5.696 -0.3577  0.0124  0.0635
 3560ntf    nn320448   2.404   3.527   5.758 -0.9555 -0.6119  0.2995
 3560ntf    sn220449   2.396   3.573   5.908 -0.8803  0.2121  0.0549
 3560ntf    cn120450   2.243   3.670   5.928 -0.6085  0.6188  0.1572
 3560ntf    fn420451   2.565   3.395   5.443  0.2469  0.2359  0.7954
 3560ntf    fn420452   2.364   3.449   5.470 -0.0421 -0.2619 -0.5324
 3560ntf    fn420453   2.520   3.592   5.504 -0.0200  0.0918 -0.3541
 3560ntf    on520454   2.445   3.281   5.695  0.0674 -0.1504  0.0767
 3560ntf    on520455   2.637   3.439   5.717 -0.1352 -0.4207 -0.8974
 3560ntf    on520456   2.500   3.669   5.933 -0.1951 -0.4003 -0.3956
 3560ntf    on520457   2.382   3.466   6.003  0.7340 -0.0518  0.0123
 3560ntf    fn420458   2.142   3.602   5.876 -0.4221  0.2985  0.2128
 3560ntf    fn420459   2.212   3.694   6.054  0.5148 -0.1537  0.6008
 3560ntf    fn420460   2.265   3.789   5.873  0.1404  0.1643 -0.5558
 3561ntf    cn120461   2.767   7.055   4.851  0.4626  0.5716  0.3933
 3561ntf    sn220462   2.702   7.217   4.798  0.0794  0.3793  0.2761
 3561ntf    nn320463   2.831   7.281   4.736  0.3713 -0.4193  0.0414
 3561ntf    sn220464   2.890   7.280   4.591  0.0782 -0.1241 -0.0827
 3561ntf    cn120465   2.922   7.459   4.582  0.1004 -0.1023  0.3859
 3561ntf    fn420466   2.679   7.001   4.933  0.4493  0.2620  0.1748
 3561ntf    fn420467   2.796   6.970   4.755 -0.5870  0.5560  0.0749
 3561ntf    fn420468   2.879   7.069   4.920  0.3601  0.4037  0.5949
 3561ntf    on520469   2.598   7.181   4.705  0.3249  0.4115 -0.0123
 3561ntf    on520470   2.671   7.294   4.916 -0.9977  0.5801 -0.1249
 3561ntf    on520471   2.804   7.255   4.478  0.3601 -0.2868 -0.2642
 3561ntf    on520472   3.022   7.222   4.580 -0.0113 -0.2864 -0.3051
 3561ntf    fn420473   2.986   7.497   4.691  0.6624 -0.7208  0.2842
 3561ntf    fn420474   3.006   7.483   4.482  0.0011 -0.3776  0.2333
 3561ntf    fn420475   2.818   7.538   4.565 -0.2165 -0.5427  0.2466
 3562ntf    cn120476   5.289   3.103   1.162 -0.3936 -0.1656 -0.1108
 3562ntf    sn220477   5.309   3.172   1.329 -0.3544 -0.2930 -0.0626
 3562ntf    nn320478   5.283   3.044   1.416 -0.1616  0.2249  0.7720
 3562ntf    sn220479   5.379   2.919   1.424 -0.2777  0.0438 -0.4096
 3562ntf    cn120480   5.254   2.789   1.402 -0.2647 -0.0136 -0.1430
 3562ntf    fn420481   5.189   3.017   1.167 -0.6685  0.1715  0.2835
 3562ntf    fn420482   5.264   3.202   1.077  0.0267  0.2020  0.1918
 3562ntf    fn420483   5.387   3.030   1.110 -0.5629 -0.3242 -0.2078
 3562ntf    on520484   5.446   3.216   1.333 -0.4216 -0.1023  0.1313
 3562ntf    on520485   5.193   3.259   1.325 -0.4982 -0.4692  0.2337
 3562ntf    on520486   5.415   2.897   1.562  0.4860 -0.3513 -0.6667
 3562ntf    on520487   5.474   2.897   1.319  0.0927 -0.0684 -0.0526
 3562ntf    fn420488   5.300   2.668   1.372  0.4723  0.1553  0.2738
 3562ntf    fn420489   5.198   2.771   1.521  0.0971 -0.3801 -0.0258
 3562ntf    fn420490   5.155   2.816   1.319 -0.2776 -0.4365 -0.2702
 3563ntf    cn120491   5.683   3.682   4.612  0.2646 -0.2931  0.1823
 3563ntf    sn220492   5.862   3.663   4.582  0.2660  0.1285 -0.0910
 3563ntf    nn320493   5.894   3.801   4.514  1.1920 -0.0400 -0.0084
 3563ntf    sn220494   5.882   3.843   4.363 -0.3424 -0.0322  0.1009
 3563ntf    cn120495   6.054   3.808   4.316 -0.3539  0.5478 -0.3812
 3563ntf    fn420496   5.651   3.800   4.665 -0.3505 -0.2468 -0.2904
 3563ntf    fn420497   5.620   3.677   4.497  0.2499 -0.4823  0.1987
 3563ntf    fn420498   5.635   3.585   4.687 -0.5847 -0.2124 -0.2544
 3563ntf    on520499   5.918   3.650   4.714 -0.5239  0.1034  0.2469
 3563ntf    on520500   5.882   3.550   4.493  0.1776 -0.0517  0.1171
 3563ntf    on520501   5.875   3.985   4.344 -0.7185 -0.0658 -0.0247
 3563ntf    on520502   5.801   3.760   4.276  0.2349 -0.4054 -0.0826
 3563ntf    fn420503   6.081   3.830   4.188 -0.0781  0.5076 -0.3303
 3563ntf    fn420504   6.143   3.874   4.387  0.1050 -0.1840 -0.2633
 3563ntf    fn420505   6.077   3.679   4.338 -0.1728  0.6076 -0.2219
 3564ntf    cn120506   6.734   0.560   7.091 -0.3685  0.1642 -0.1411
 3564ntf    sn220507   6.595   0.448   7.053 -0.2498 -0.0634  0.0904
 3564ntf    nn320508   6.480   0.536   7.113  0.0021  0.1079  0.3210
 3564ntf    sn220509   6.347   0.589   7.049 -0.1119 -0.4689  0.0678
 3564ntf    cn120510   6.405   0.747   6.980 -0.1399 -0.6905 -0.4635
 3564ntf    fn420511   6.851   0.502   7.072 -0.2973  0.1906  0.2200
 3564ntf    fn420512   6.731   0.663   7.008  0.6059  0.0393 -0.3328
 3564ntf    fn420513   6.719   0.602   7.215  0.4136  0.0791 -0.0140
 3564ntf    on520514   6.607   0.434   6.909  0.3350 -0.7186  0.1930
 3564ntf    on520515   6.628   0.338   7.140 -0.1742 -0.2468 -0.1683
 3564ntf    on520516   6.250   0.621   7.151  0.8743 -0.1340  0.9231
 3564ntf    on520517   6.299   0.518   6.934  0.2401 -0.5283 -0.0457
 3564ntf    fn420518   6.438   0.835   7.073 -0.0173 -0.4023 -0.7770
 3564ntf    fn420519   6.517   0.726   6.912  0.4524  0.3840  0.1635
 3564ntf    fn420520   6.321   0.808   6.898 -0.4518 -0.1309  0.2563
 3565ntf    cn120521   5.675   2.720   0.419 -0.2632  0.1595  0.1277
 3565ntf    sn220522   5.719   2.544   0.418 -0.0253  0.2201 -0.1702
 3565ntf    nn320523   5.784   2.532   0.276  0.2023 -0.0389 -0.0446
 3565ntf    sn220524   5.800   2.408   0.181 -0.2439 -0.0620 -0.0879
 3565ntf    cn120525   5.654   2.427   0.074 -0.3562 -0.4624 -0.0084
 3565ntf    fn420526   5.561   2.734   0.354  0.2308  0.3612 -0.7032
 3565ntf    fn420527   5.654   2.760   0.544  0.2151  0.3007  0.1656
 3565ntf    fn420528   5.767   2.798   0.366 -0.1003 -0.1405 -0.0324
 3565ntf    on520529   5.809   2.535   0.530 -0.2742  0.3020  0.0389
 3565ntf    on520530   5.588   2.484   0.433 -0.1542  0.4769 -0.2526
 3565ntf    on520531   5.784   2.277   0.240 -0.2414 -0.0644 -0.0924
 3565ntf    on520532   5.910   2.417   0.088 -0.3449  0.7624 -0.1343
 3565ntf    fn420533   5.646   2.336  -0.022 -0.5288 -0.3344 -0.1158
 3565ntf    fn420534   5.537   2.428   0.134 -0.4552  0.8053 -0.1955
 3565ntf    fn420535   5.675   2.540   0.008  0.0148 -0.2615  0.4499
 3566ntf    cn120536   3.628   6.549   1.575  0.0303  0.1710  0.3432
 3566ntf    sn220537   3.477   6.591   1.483  0.1367  0.1125  0.1405
 3566ntf    nn320538   3.426   6.443   1.471 -0.0760  0.1927  0.0439
 3566ntf    sn220539   3.288   6.381   1.429  0.2481 -0.4695 -0.0518
 3566ntf    cn120540   3.350   6.232   1.345 -0.1779 -0.5130 -0.2898
 3566ntf    fn420541   3.602   6.484   1.687  0.1301 -0.0979  0.2113
 3566ntf    fn420542   3.716   6.472   1.513 -0.1615 -0.3326  0.6931
 3566ntf    fn420543   3.690   6.663   1.604 -0.1144  0.2747  0.2443
 3566ntf    on520544   3.396   6.675   1.568  0.5885 -0.1607  0.8497
 3566ntf    on520545   3.520   6.646   1.357  0.3828 -0.5359 -0.0586
 3566ntf    on520546   3.218   6.450   1.324  0.2247 -0.8941 -0.3181
 3566ntf    on520547   3.208   6.325   1.535  0.4323 -0.0382  0.3220
 3566ntf    fn420548   3.250   6.165   1.290 -0.1654 -0.6947 -0.0903
 3566ntf    fn420549   3.437   6.246   1.246 -0.1138 -0.1629 -0.1850
 3566ntf    fn420550   3.409   6.150   1.430  0.2639  0.2916  0.1990
 3567ntf    cn120551   5.273   5.737   6.333 -0.5260  0.1648  0.2574
 3567ntf    sn220552   5.319   5.911   6.363 -0.0360  0.1793 -0.5455
 3567ntf    nn320553   5.335   5.905   6.519  0.1488 -0.3414 -0.5826
 3567ntf    sn220554   5.459   5.857   6.603  0.0900  0.1565 -0.2083
 3567ntf    cn120555   5.369   5.744   6.713  0.1469  0.0321 -0.2891
 3567ntf    fn420556   5.157   5.707   6.389 -0.3343 -0.2186  0.4546
 3567ntf    fn420557   5.270   5.696   6.208 -0.5873  0.4466  0.1663
 3567ntf    fn420558   5.365   5.662   6.391  0.0486  0.2385 -0.5383
 3567ntf    on520559   5.443   5.929   6.291  0.3688 -0.7163 -0.0898
 3567ntf    on520560   5.203   5.986   6.322 -0.1789  0.2348 -0.0442
 3567ntf    on520561   5.513   5.949   6.699 -0.1078  0.3020 -0.2350
 3567ntf    on520562   5.555   5.772   6.537 -0.1579 -0.4226  0.1688
 3567ntf    fn420563   5.430   5.629   6.732  0.0302  0.0458  0.1694
 3567ntf    fn420564   5.361   5.791   6.836 -0.3796  0.1605 -0.3675
 3567ntf    fn420565   5.246   5.714   6.673  0.4225 -0.0720 -1.0867
 3568ntf    cn120566   1.009   2.898   0.110 -0.1951  0.0622 -0.1454
 3568ntf    sn220567   0.963   2.740   0.187 -0.1791 -0.0000 -0.2627
 3568ntf    nn320568   0.911   2.659   0.064 -0.2497  0.3498 -0.4662
 3568ntf    sn220569   0.994   2.551  -0.016  0.0171  0.1650  0.0552
 3568ntf    cn120570   0.929   2.597  -0.179 -0.2683 -0.5850 -0.0448
 3568ntf    fn420571   0.912   2.938   0.029 -0.4260 -0.7112 -0.2517
 3568ntf    fn420572   1.038   2.995   0.196  0.5874 -0.5789  0.3305
 3568ntf    fn420573   1.114   2.889   0.030  0.2823  0.1891  0.4605
 3568ntf    on520574   1.092   2.700   0.237 -0.2635 -0.4742 -0.4292
 3568ntf    on520575   0.862   2.785   0.280 -0.5335  0.6997 -0.9712
 3568ntf    on520576   0.949   2.417   0.012 -0.5147  0.1794 -0.7059
 3568ntf    on520577   1.134   2.573  -0.037  0.1243 -0.5981 -0.0652
 3568ntf    fn420578   0.953   2.725  -0.202 -0.2628 -0.5259  0.2903
 3568ntf    fn420579   0.975   2.522  -0.278 -0.1678 -0.5180 -0.0480
 3568ntf    fn420580   0.797   2.583  -0.185 -0.2256 -0.7190 -0.8793
 3569ntf    cn120581   5.551   2.903   6.427  0.0001  0.0197  0.2142
 3569ntf    sn220582   5.647   3.058   6.418  0.0615 -0.0269  0.0393
 3569ntf    nn320583   5.692   3.069   6.568 -0.1697  0.0741  0.1018
 3569ntf    sn220584   5.821   3.135   6.629 -0.0436  0.0835 -0.1769
 3569ntf    cn120585   5.922   2.988   6.660 -0.1987  0.0393  0.1205
 3569ntf    fn420586   5.464   2.890   6.328  0.0827  0.4895  0.0785
 3569ntf    fn420587   5.636   2.801   6.422  0.2595  0.2527 -0.1918
 3569ntf    fn420588   5.481   2.891   6.538 -0.2554  0.5526  0.1154
 3569ntf    on520589   5.746   3.036   6.316 -0.2784  0.2022 -0.3422
 3569ntf    on520590   5.552   3.161   6.386  0.1287  0.0891  0.2086
 3569ntf    on520591   5.798   3.190   6.760  0.4542  0.1453 -0.1146
 3569ntf    on520592   5.884   3.220   6.531 -0.0758  0.9218  0.5155
 3569ntf    fn420593   5.867   2.919   6.759  0.5482 -0.5655  0.1223
 3569ntf    fn420594   5.923   2.917   6.549 -0.0532  0.8080 -0.3713
 3569ntf    fn420595   6.048   3.017   6.690 -0.2175  0.4173 -0.1611
 3570ntf    cn120596   4.908   5.295   3.929 -0.1286  0.3739 -0.1175
 3570ntf    sn220597   5.024   5.157   3.914 -0.3107  0.2226 -0.1492
 3570ntf    nn320598   5.013   5.106   3.766  0.0140 -0.2942  0.0013
 3570ntf    sn220599   5.108   5.144   3.646  0.2374 -0.2670  0.1866
 3570ntf    cn120600   5.007   5.274   3.568  0.2504 -0.2434  0.2107
 3570ntf    fn420601   4.838   5.292   4.042 -0.4903  0.1246 -0.3448
 3570ntf    fn420602   4.962   5.415   3.917 -0.4628  0.6295  0.8196
 3570ntf    fn420603   4.820   5.297   3.830 -0.2434 -0.2697 -0.0282
 3570ntf    on520604   5.151   5.217   3.947 -0.1007 -0.1900 -0.1956
 3570ntf    on520605   4.965   5.062   4.004  0.6112 -0.1376  0.0898
 3570ntf    on520606   5.112   5.045   3.541 -0.0740  0.2258 -0.2986
 3570ntf    on520607   5.230   5.208   3.690  0.2105 -0.1265  0.0596
 3570ntf    fn420608   4.893   5.229   3.518  0.4766 -0.2216 -0.3343
 3570ntf    fn420609   4.981   5.368   3.657  0.1739 -0.4053  0.3596
 3570ntf    fn420610   5.067   5.336   3.467 -0.7097  0.0373 -0.1995
 3571ntf    cn120611   0.007   5.997   4.361  0.1352  0.4218  0.3744
 3571ntf    sn220612  -0.066   5.842   4.423 -0.0365  0.3593  0.0206
 3571ntf    nn320613  -0.218   5.880   4.405 -0.2223 -0.3664  0.0292
 3571ntf    sn220614  -0.299   5.849   4.275 -0.4114 -0.2797  0.1271
 3571ntf    cn120615  -0.406   5.996   4.264 -0.3057 -0.2422 -0.4086
 3571ntf    fn420616  -0.038   6.029   4.240  0.1350  0.0357  0.2719
 3571ntf    fn420617  -0.043   6.096   4.433 -0.2233  0.2416  0.3761
 3571ntf    fn420618   0.138   6.013   4.360  0.1436  0.3959 -0.9681
 3571ntf    on520619  -0.019   5.733   4.342 -0.0225  0.2410  0.1865
 3571ntf    on520620  -0.033   5.828   4.563 -0.5104 -0.1872  0.0774
 3571ntf    on520621  -0.398   5.748   4.305 -0.2875 -0.3884  0.1666
 3571ntf    on520622  -0.229   5.855   4.149  0.3290 -0.1528  0.5412
 3571ntf    fn420623  -0.501   5.992   4.172  0.1464 -0.6141 -0.8685
 3571ntf    fn420624  -0.475   6.015   4.375  0.3358 -0.3896  0.0200
 3571ntf    fn420625  -0.346   6.111   4.239  0.1336 -0.3892 -0.0415
 3572ntf    cn120626   5.964   4.613   5.811  0.0131 -0.1949  0.0794
 3572ntf    sn220627   5.884   4.679   5.960  0.2687 -0.2392  0.2383
 3572ntf    nn320628   6.012   4.706   6.047  0.3221 -0.3013  0.1782
 3572ntf    sn220629   6.055   4.624   6.174  0.0383 -0.4633  0.1706
 3572ntf    cn120630   5.938   4.684   6.300 -0.0729 -0.2473 -0.0349
 3572ntf    fn420631   6.068   4.695   5.797  0.3808 -0.6131  0.3239
 3572ntf    fn420632   6.014   4.491   5.826  0.1815 -0.1906 -0.4458
 3572ntf    fn420633   5.891   4.611   5.702  0.2830 -0.4354 -0.0986
 3572ntf    on520634   5.815   4.798   5.917  0.1832 -0.4301 -0.1581
 3572ntf    on520635   5.804   4.564   5.996 -0.7591  0.4402  0.1791
 3572ntf    on520636   6.184   4.666   6.223 -0.3424  0.4931  0.3817
 3572ntf    on520637   6.035   4.481   6.180 -0.4675 -0.3665  0.9154
 3572ntf    fn420638   5.938   4.815   6.322 -0.0890 -0.3779  0.7725
 3572ntf    fn420639   5.812   4.652   6.277 -0.1684  0.0429  0.0810
 3572ntf    fn420640   5.962   4.615   6.411 -0.0665 -0.2963 -0.0670
 3573ntf    cn120641   0.827   4.639   0.355 -0.1891  0.6662  0.0734
 3573ntf    sn220642   0.653   4.692   0.349 -0.3519  0.1142 -0.1691
 3573ntf    nn320643   0.656   4.781   0.220  0.3102  0.1108 -0.1587
 3573ntf    sn220644   0.640   4.734   0.071 -0.0526  0.0876 -0.1128
 3573ntf    cn120645   0.609   4.877  -0.037  0.1514  0.1422 -0.1000
 3573ntf    fn420646   0.848   4.558   0.253 -0.3474  0.3406  0.2959
 3573ntf    fn420647   0.913   4.739   0.360  0.4127  0.1470  0.1589
 3573ntf    fn420648   0.858   4.565   0.460 -0.6315  0.1645 -0.1424
 3573ntf    on520649   0.592   4.562   0.333 -0.0086 -0.0653 -0.0244
 3573ntf    on520650   0.632   4.776   0.465 -1.0208  0.3930 -0.4902
 3573ntf    on520651   0.523   4.654   0.043  0.2600 -0.4637  0.1423
 3573ntf    on520652   0.770   4.699   0.020 -0.0919  0.1057 -0.2257
 3573ntf    fn420653   0.707   4.965  -0.031  0.5436 -0.3337  0.5364
 3573ntf    fn420654   0.607   4.852  -0.167  0.0626 -0.3310 -0.0088
 3573ntf    fn420655   0.497   4.941  -0.007  0.1068  0.1232 -0.2243
 3574ntf    cn120656   6.386   6.373   6.161 -0.1892  0.0278  0.1418
 3574ntf    sn220657   6.468   6.405   6.002 -0.2074  0.0864  0.1442
 3574ntf    nn320658   6.520   6.551   6.025  0.0929  0.0170 -0.0872
 3574ntf    sn220659   6.632   6.607   6.120  0.0808 -0.0509 -0.0323
 3574ntf    cn120660   6.751   6.667   5.996 -0.1345  0.2020 -0.1183
 3574ntf    fn420661   6.464   6.349   6.265  0.5027  0.3546 -0.2962
 3574ntf    fn420662   6.313   6.478   6.194 -0.4521 -0.2063  0.3131
 3574ntf    fn420663   6.309   6.265   6.159  0.0369 -0.1312 -0.0696
 3574ntf    on520664   6.565   6.298   5.995 -0.2133  0.0888  0.0294
 3574ntf    on520665   6.362   6.404   5.905 -0.0444 -0.1678 -0.0356
 3574ntf    on520666   6.708   6.515   6.200  0.3609 -0.0442 -0.2887
 3574ntf    on520667   6.588   6.730   6.181 -0.1282 -0.1766  0.0702
 3574ntf    fn420668   6.788   6.573   5.911 -0.8264 -0.2235  0.0414
 3574ntf    fn420669   6.695   6.764   5.925 -0.1776  0.4772  0.2870
 3574ntf    fn420670   6.861   6.712   6.053 -0.1373  0.1811 -0.0963
 3575ntf    cn120671   1.915   6.363   6.505  0.1342  0.2524 -0.0534
 3575ntf    sn220672   1.979   6.222   6.410  0.0571  0.2858 -0.1553
 3575ntf    nn320673   2.067   6.283   6.295  0.2860 -0.1753 -0.2276
 3575ntf    sn220674   2.040   6.289   6.140  0.1313 -0.0244 -0.1958
 3575ntf    cn120675   2.007   6.464   6.106 -0.0992 -0.0139  0.0810
 3575ntf    fn420676   2.004   6.461   6.520  0.2502  0.1584 -0.1237
 3575ntf    fn420677   1.804   6.413   6.453 -0.0791  0.4273  0.5589
 3575ntf    fn420678   1.889   6.318   6.627 -0.0086  0.3339 -0.0548
 3575ntf    on520679   2.068   6.152   6.499 -0.0688 -0.0959 -0.3294
 3575ntf    on520680   1.859   6.148   6.376  0.1792 -0.1492  0.3528
 3575ntf    on520681   1.926   6.220   6.084 -0.1777 -0.1845  0.6186
 3575ntf    on520682   2.165   6.263   6.074 -0.0528 -0.5093 -0.3573
 3575ntf    fn420683   1.894   6.514   6.155 -0.4418 -0.3745 -0.3444
 3575ntf    fn420684   2.106   6.543   6.145 -0.1593  0.1893 -0.1774
 3575ntf    fn420685   1.995   6.483   5.976 -0.7285 -0.0564  0.1299
 3576ntf    cn120686   3.729   2.321   0.856 -0.3832 -0.0362 -0.2628
 3576ntf    sn220687   3.840   2.369   0.721  0.2560 -0.5319  0.0800
 3576ntf    nn320688   3.853   2.523   0.747  0.3315 -0.4752 -0.2832
 3576ntf    sn220689   3.947   2.603   0.845 -0.0086 -0.0896 -0.2714
 3576ntf    cn120690   4.084   2.644   0.733 -0.0056  0.0354 -0.2217
 3576ntf    fn420691   3.694   2.193   0.865 -0.1567 -0.0805  0.0172
 3576ntf    fn420692   3.781   2.358   0.972 -0.0374  0.2783 -0.5192
 3576ntf    fn420693   3.611   2.379   0.845 -0.5270 -0.2562  0.0875
 3576ntf    on520694   3.962   2.296   0.744  0.5296 -0.0662  0.1250
 3576ntf    on520695   3.764   2.339   0.603 -0.2897 -0.9276  0.5292
 3576ntf    on520696   4.012   2.527   0.948  0.1339  0.2209 -0.1298
 3576ntf    on520697   3.889   2.728   0.889  0.2140 -0.0136 -0.1961
 3576ntf    fn420698   4.042   2.733   0.645 -0.2704  0.4508  0.3155
 3576ntf    fn420699   4.184   2.701   0.799  0.1611 -0.4937 -0.0079
 3576ntf    fn420700   4.132   2.544   0.662 -0.2568 -0.4499  0.2853
 3577ntf    cn120701   3.039   5.999   0.589  0.0723  0.1184 -0.0356
 3577ntf    sn220702   2.965   6.057   0.745 -0.2688 -0.2869 -0.0428
 3577ntf    nn320703   2.988   6.212   0.727 -0.3464 -0.1527  0.9817
 3577ntf    sn220704   3.099   6.308   0.782  0.0479  0.0201 -0.0992
 3577ntf    cn120705   3.030   6.345   0.946 -0.4337  0.3006 -0.3617
 3577ntf    fn420706   2.963   6.032   0.486  0.0442 -0.2556 -0.1380
 3577ntf    fn420707   3.158   6.052   0.570  0.0113  0.3823  0.3049
 3577ntf    fn420708   3.052   5.867   0.588 -0.0148  0.1066  0.1763
 3577ntf    on520709   2.824   6.027   0.735 -0.3106 -0.0399 -0.2380
 3577ntf    on520710   3.038   5.988   0.848  0.0730 -0.3673 -0.3366
 3577ntf    on520711   3.100   6.438   0.719 -0.1935  0.0343 -0.0724
 3577ntf    on520712   3.227   6.244   0.800 -0.1465 -0.6153 -0.9431
 3577ntf    fn420713   3.112   6.407   1.029 -0.0541 -0.8644  0.1579
 3577ntf    fn420714   2.917   6.413   0.936 -0.4625  0.2962 -0.0822
 3577ntf    fn420715   3.012   6.229   1.008  0.1244  0.3209 -0.1586
 3578ntf    cn120716   3.217   1.991   5.968  0.2740  0.1885 -0.1671
 3578ntf    sn220717   3.072   1.931   6.060  0.5229  0.1573  0.2109
 3578ntf    nn320718   3.117   1.966   6.206  0.6745  0.6573  0.0471
 3578ntf    sn220719   3.196   1.885   6.315  0.0117 -0.0357  0.0245
 3578ntf    cn120720   3.052   1.795   6.378 -0.0856 -0.0858 -0.2696
 3578ntf    fn420721   3.238   2.120   5.983  0.2977  0.1396  0.2352
 3578ntf    fn420722   3.323   1.935   6.025 -0.0146  0.1420  0.3344
 3578ntf    fn420723   3.225   1.952   5.842  0.6886 -0.2097 -0.0241
 3578ntf    on520724   2.965   2.015   6.011 -0.0155 -0.2984  0.5946
 3578ntf    on520725   3.059   1.791   6.029  0.2228  0.3450 -0.5457
 3578ntf    on520726   3.225   1.969   6.429  0.2198 -0.5317  0.3410
 3578ntf    on520727   3.300   1.791   6.279 -0.0034 -0.2698  0.5884
 3578ntf    fn420728   2.999   1.712   6.289  0.1524 -0.4431 -0.0821
 3578ntf    fn420729   3.086   1.724   6.484  0.1627  0.4952  0.0398
 3578ntf    fn420730   2.962   1.881   6.424 -0.2047  0.1474 -0.9247
 3579ntf    cn120731   5.458   3.500   3.449  0.1240  0.4781  0.0838
 3579ntf    sn220732   5.540   3.650   3.510  0.2955  0.3683  0.1228
 3579ntf    nn320733   5.600   3.708   3.377 -0.0693 -0.3136 -0.3424
 3579ntf    sn220734   5.743   3.673   3.321  0.1316  0.0709 -0.0738
 3579ntf    cn120735   5.688   3.649   3.149  0.4158 -0.1806 -0.1292
 3579ntf    fn420736   5.541   3.407   3.405  0.0321  0.3508  0.1804
 3579ntf    fn420737   5.383   3.442   3.542  0.3773 -0.2240 -0.1428
 3579ntf    fn420738   5.374   3.531   3.352  0.0862 -0.0576 -0.0581
 3579ntf    on520739   5.429   3.724   3.564  0.2261  0.5855 -0.3135
 3579ntf    on520740   5.643   3.597   3.596  0.0946 -0.7327 -0.3035
 3579ntf    on520741   5.792   3.542   3.355 -0.4696  0.0022  0.5640
 3579ntf    on520742   5.833   3.785   3.309 -0.0999  0.1796 -0.8237
 3579ntf    fn420743   5.622   3.535   3.136  0.1341 -0.0286 -0.0363
 3579ntf    fn420744   5.606   3.744   3.108  0.1602  0.0005  0.7787
 3579ntf    fn420745   5.791   3.637   3.066  0.4841  0.0837 -0.0840
 3580ntf    cn120746   0.302   3.196   1.601 -0.1064  0.3965 -0.1453
 3580ntf    sn220747   0.344   3.027   1.653  0.0176  0.4796  0.0242
 3580ntf    nn320748   0.324   3.048   1.808 -0.1700  0.0716  0.0549
 3580ntf    sn220749   0.428   3.074   1.922  0.4233  0.2001 -0.5089
 3580ntf    cn120750   0.466   2.899   1.957 -0.3986  0.1301  0.0763
 3580ntf    fn420751   0.376   3.296   1.648 -0.1270  0.4692 -0.2666
 3580ntf    fn420752   0.325   3.222   1.473  0.3550  0.0709 -0.1299
 3580ntf    fn420753   0.177   3.229   1.631 -0.1367 -0.0342  0.2082
 3580ntf    on520754   0.239   2.944   1.599  0.2224  0.7171 -0.7434
 3580ntf    on520755   0.476   3.003   1.601  0.1344  0.8957  0.1246
 3580ntf    on520756   0.367   3.123   2.043  0.3367 -0.1591 -0.4040
 3580ntf    on520757   0.551   3.136   1.880  0.6020 -0.0173 -0.3091
 3580ntf    fn420758   0.495   2.844   1.840  0.4126 -0.1392  0.3975
 3580ntf    fn420759   0.566   2.874   2.040 -0.1473 -0.6022 -0.4342
 3580ntf    fn420760   0.357   2.840   2.003 -0.5252  0.5038  0.2649
 3581ntf    cn120761   2.000   4.150   5.694 -0.1512 -0.3148  0.1903
 3581ntf    sn220762   1.966   4.229   5.855  0.0173 -0.0544  0.0988
 3581ntf    nn320763   2.044   4.364   5.835  0.3724 -0.1319  0.9567
 3581ntf    sn220764   2.002   4.513   5.862  0.1458 -0.0379  0.1047
 3581ntf    cn120765   1.984   4.595   5.701  0.6338  0.0007  0.0686
 3581ntf    fn420766   1.977   4.235   5.596 -0.1614  0.0839  0.5350
 3581ntf    fn420767   2.128   4.117   5.680 -0.1298 -0.1544  0.0123
 3581ntf    fn420768   1.928   4.041   5.677  0.0639 -0.4543  0.1637
 3581ntf    on520769   1.822   4.233   5.856 -0.0001 -0.3677 -0.4306
 3581ntf    on520770   2.022   4.137   5.950  0.0976 -0.1240 -0.0152
 3581ntf    on520771   2.104   4.592   5.925 -0.2755  0.3209  0.3454
 3581ntf    on520772   1.869   4.530   5.916  0.0619  0.3898 -0.2316
 3581ntf    fn420773   2.095   4.624   5.635  0.4162  0.4350 -0.1070
 3581ntf    fn420774   1.925   4.517   5.611  0.1950  0.0456  0.3149
 3581ntf    fn420775   1.914   4.707   5.710  0.2975 -0.1559 -0.5121
 3582ntf    cn120776   2.720   4.630   5.696  0.2259  0.0659  0.1048
 3582ntf    sn220777   2.881   4.567   5.641  0.2062  0.3663 -0.3039
 3582ntf    nn320778   2.936   4.517   5.779 -0.0011 -0.2852 -0.4546
 3582ntf    sn220779   3.078   4.542   5.840 -0.3157  0.3050  0.0539
 3582ntf    cn120780   3.055   4.707   5.913 -0.2403  0.1878  0.3455
 3582ntf    fn420781   2.642   4.665   5.595  0.3127  0.3359  0.1308
 3582ntf    fn420782   2.640   4.548   5.761  0.1769  0.0203 -0.0128
 3582ntf    fn420783   2.732   4.736   5.774  0.4999 -0.1056  0.2968
 3582ntf    on520784   2.847   4.459   5.552 -0.1696  0.3511 -0.1395
 3582ntf    on520785   2.933   4.687   5.579  0.5334  0.1206 -0.5111
 3582ntf    on520786   3.185   4.552   5.744 -0.0237  0.0689  0.3507
 3582ntf    on520787   3.100   4.468   5.962 -0.1997  0.1515 -0.0590
 3582ntf    fn420788   2.968   4.713   6.013 -0.0185  0.6244  0.5160
 3582ntf    fn420789   3.165   4.759   5.964  0.1384  0.0847 -0.3517
 3582ntf    fn420790   3.008   4.797   5.828 -0.2291  0.7385  0.9177
 3583ntf    cn120791   1.101   1.261   6.373  0.0931 -0.1398  0.1447
 3583ntf    sn220792   1.056   1.096   6.313  0.2569 -0.1965  0.1751
 3583ntf    nn320793   0.901   1.121   6.299  0.2674  0.2220  0.7984
 3583ntf    sn220794   0.780   1.102   6.398  0.0509 -0.1339  0.4662
 3583ntf    cn120795   0.710   0.944   6.342 -0.0209 -0.0449  0.3035
 3583ntf    fn420796   1.050   1.292   6.491 -0.1868 -0.6101  0.1474
 3583ntf    fn420797   1.232   1.283   6.381  0.1360 -0.3015 -0.1071
 3583ntf    fn420798   1.065   1.355   6.287  0.1997 -0.6387 -0.4471
 3583ntf    on520799   1.122   1.090   6.185 -0.2676  0.0896 -0.1128
 3583ntf    on520800   1.091   0.998   6.413  0.1876 -0.4419 -0.0395
 3583ntf    on520801   0.685   1.208   6.379  0.5408  0.1507 -0.5270
 3583ntf    on520802   0.816   1.086   6.536 -0.5876 -0.5899  0.5782
 3583ntf    fn420803   0.660   0.955   6.220 -0.2463 -0.4418  0.3593
 3583ntf    fn420804   0.795   0.843   6.342  0.4813  0.3740 -0.6397
 3583ntf    fn420805   0.603   0.916   6.415  0.0548 -0.5081  0.2418
 3584ntf    cn120806   5.365   2.241   4.462  0.1886  0.0754 -0.0342
 3584ntf    sn220807   5.401   2.351   4.602  0.0175  0.4481 -0.2810
 3584ntf    nn320808   5.264   2.426   4.612 -0.0926  0.2174 -0.0037
 3584ntf    sn220809   5.149   2.408   4.717  0.0470  0.3086  0.1645
 3584ntf    cn120810   5.050   2.559   4.692 -0.1536  0.1600  0.0580
 3584ntf    fn420811   5.468   2.195   4.394  0.2188  0.1845 -0.0606
 3584ntf    fn420812   5.308   2.128   4.504  0.1670  0.1495  0.1386
 3584ntf    fn420813   5.285   2.293   4.371  0.0735  0.3082  0.1983
 3584ntf    on520814   5.443   2.267   4.712 -1.3195 -0.4857 -0.4581
 3584ntf    on520815   5.492   2.446   4.543  0.1580  0.7522  0.4159
 3584ntf    on520816   5.196   2.417   4.853  0.4357 -0.1459  0.0613
 3584ntf    on520817   5.050   2.307   4.688  0.1463  0.1511  0.3694
 3584ntf    fn420818   5.115   2.668   4.729  0.1446 -0.1894  0.5883
 3584ntf    fn420819   5.022   2.560   4.563 -0.6607  0.1328  0.1653
 3584ntf    fn420820   4.932   2.560   4.750 -0.3480  0.4403 -0.3381
 3585ntf    cn120821   3.014   6.937   0.088 -0.1152 -0.3752  0.3174
 3585ntf    sn220822   3.097   6.803  -0.003  0.0780 -0.0155 -0.0374
 3585ntf    nn320823   3.217   6.775   0.093 -0.1800 -0.0746  0.2697
 3585ntf    sn220824   3.281   6.635   0.123  0.1697  0.0098 -0.0710
 3585ntf    cn120825   3.183   6.578   0.265  0.1013 -0.4649 -0.3065
 3585ntf    fn420826   3.095   7.038   0.111 -0.2353 -0.1615 -0.1881
 3585ntf    fn420827   2.903   6.980   0.032 -0.1723 -0.6324  0.2280
 3585ntf    fn420828   2.978   6.888   0.206 -0.1752  0.2372  0.5523
 3585ntf    on520829   3.008   6.690  -0.011  0.0024  0.0169  0.3508
 3585ntf    on520830   3.132   6.859  -0.131 -0.3215  0.0851 -0.1055
 3585ntf    on520831   3.417   6.661   0.165  0.0600 -0.0202  0.3086
 3585ntf    on520832   3.265   6.524   0.032 -0.9713 -0.1411  0.2947
 3585ntf    fn420833   3.191   6.656   0.371 -0.7037  0.0246 -0.5986
 3585ntf    fn420834   3.054   6.572   0.238  0.0836  0.1389 -0.3517
 3585ntf    fn420835   3.215   6.455   0.303 -0.3023 -0.3684  0.3734
 3586ntf    cn120836   4.193   4.367   5.067  0.5336 -0.1725  0.0025
 3586ntf    sn220837   4.331   4.478   5.025  0.1494  0.2030 -0.2840
 3586ntf    nn320838   4.267   4.537   4.895 -0.2954  0.3733  0.0100
 3586ntf    sn220839   4.348   4.601   4.777 -0.0821  0.0026 -0.0456
 3586ntf    cn120840   4.247   4.749   4.747  0.1245  0.1753  0.1052
 3586ntf    fn420841   4.221   4.294   5.174 -0.0066  0.8417  0.8570
 3586ntf    fn420842   4.082   4.437   5.086  0.0097 -0.8647 -0.4332
 3586ntf    fn420843   4.175   4.280   4.969 -0.2239  0.5581 -0.5215
 3586ntf    on520844   4.344   4.577   5.128 -0.0146 -0.1064  0.0386
 3586ntf    on520845   4.443   4.393   4.993  0.5199  0.6909 -0.2775
 3586ntf    on520846   4.344   4.534   4.650 -0.4484  0.2675 -0.1750
 3586ntf    on520847   4.476   4.649   4.824 -0.2385 -0.3885  0.7978
 3586ntf    fn420848   4.271   4.849   4.831 -0.0903  0.5211 -0.2401
 3586ntf    fn420849   4.265   4.804   4.628 -0.4923  0.0815 -0.0360
 3586ntf    fn420850   4.118   4.721   4.755  0.2472 -0.5403 -0.3090
 3587ntf    cn120851   1.997   6.880   3.242 -0.0736  0.0421 -0.7797
 3587ntf    sn220852   1.854   6.785   3.182 -0.2025 -0.0376 -0.3553
 3587ntf    nn320853   1.915   6.643   3.160 -0.0596 -0.0716  0.2571
 3587ntf    sn220854   1.839   6.509   3.129  0.0697 -0.1611  0.3238
 3587ntf    cn120855   1.873   6.406   3.275  0.5466 -0.5475 -0.0608
 3587ntf    fn420856   1.961   7.005   3.263 -0.1465 -0.0852 -0.1104
 3587ntf    fn420857   2.036   6.828   3.357 -0.1434  0.2793 -0.6477
 3587ntf    fn420858   2.106   6.864   3.169  0.2038 -0.4687 -0.2631
 3587ntf    on520859   1.750   6.787   3.282  0.0895 -0.3403 -0.0479
 3587ntf    on520860   1.833   6.861   3.061  0.3463  0.3986 -0.1785
 3587ntf    on520861   1.900   6.444   3.016 -0.5055  0.5804 -0.4213
 3587ntf    on520862   1.695   6.519   3.127  0.1099  0.3520 -0.6156
 3587ntf    fn420863   1.814   6.455   3.382  0.3110  0.0816 -0.4783
 3587ntf    fn420864   1.827   6.283   3.254 -0.2244 -0.3684  0.5765
 3587ntf    fn420865   2.002   6.401   3.303  0.4702 -0.3339  0.3271
 3588ntf    cn120866   5.240   6.000   0.271 -0.0687  0.1154 -0.3723
 3588ntf    sn220867   5.150   6.078   0.409  0.1546  0.0548 -0.1913
 3588ntf    nn320868   5.264   6.178   0.450 -0.1081  0.2030  0.1764
 3588ntf    sn220869   5.282   6.327   0.407 -0.0147  0.2047  0.2199
 3588ntf    cn120870   5.189   6.417   0.536  0.0224  0.0205  0.3758
 3588ntf    fn420871   5.309   6.077   0.189  0.4808 -0.0134 -0.0326
 3588ntf    fn420872   5.332   5.916   0.317 -0.1224 -0.0381 -0.5436
 3588ntf    fn420873   5.159   5.926   0.196 -0.2945  0.1022 -0.1161
 3588ntf    on520874   5.032   6.137   0.350  0.1816  0.0206 -0.2804
 3588ntf    on520875   5.132   5.977   0.510  0.7140 -0.7227 -0.8472
 3588ntf    on520876   5.219   6.367   0.284  0.1565  0.2927  0.1606
 3588ntf    on520877   5.416   6.378   0.425  0.0658 -0.0514  0.3448
 3588ntf    fn420878   5.258   6.415   0.648  0.4196  0.1250  0.1367
 3588ntf    fn420879   5.178   6.544   0.502 -0.2485 -0.1119 -0.0381
 3588ntf    fn420880   5.075   6.354   0.558 -0.2191  0.3994  0.2128
 3589ntf    cn120881   0.342   7.155   4.021 -0.0166  0.0781  0.0690
 3589ntf    sn220882   0.374   7.168   4.199  0.2995 -0.1167  0.0266
 3589ntf    nn320883   0.496   7.267   4.194  0.0324  0.2236  0.1770
 3589ntf    sn220884   0.505   7.422   4.173  0.0631  0.2368  0.2830
 3589ntf    cn120885   0.515   7.481   4.345  0.2045  0.1695  0.2982
 3589ntf    fn420886   0.451   7.118   3.957 -0.0629  0.0066  0.0313
 3589ntf    fn420887   0.240   7.077   3.990  0.2125  0.0372 -0.5901
 3589ntf    fn420888   0.309   7.271   3.967  0.2301 -0.1814 -0.6574
 3589ntf    on520889   0.253   7.226   4.251  0.6072  0.0895  0.5219
 3589ntf    on520890   0.410   7.037   4.247 -0.1272 -0.2305  0.0341
 3589ntf    on520891   0.393   7.480   4.103  0.1750  0.2120  0.0812
 3589ntf    on520892   0.635   7.460   4.122 -0.2026  0.6002 -0.1330
 3589ntf    fn420893   0.509   7.612   4.357 -0.8240  0.2262 -0.5924
 3589ntf    fn420894   0.418   7.430   4.419  0.1026  0.3713  0.3048
 3589ntf    fn420895   0.629   7.439   4.396  0.0779 -0.1618  0.3148
 3590ntf    cn120896   0.465   3.973   2.848 -0.4425 -0.0545 -0.1783
 3590ntf    sn220897   0.434   4.139   2.780  0.0178  0.2114  0.2517
 3590ntf    nn320898   0.294   4.108   2.714  0.0268 -0.3686  0.4983
 3590ntf    sn220899   0.152   4.159   2.757  0.0488  0.1929 -0.0692
 3590ntf    cn120900   0.062   4.003   2.729  0.1012  0.1044  0.2423
 3590ntf    fn420901   0.361   3.899   2.882 -0.6048  0.1814 -0.1562
 3590ntf    fn420902   0.541   3.917   2.756 -0.0176 -0.1348  0.2222
 3590ntf    fn420903   0.541   3.968   2.956 -0.3713 -0.9500 -0.2683
 3590ntf    on520904   0.443   4.210   2.905 -0.0051 -0.7652  0.8196
 3590ntf    on520905   0.539   4.156   2.683  0.3457  0.5083  0.6566
 3590ntf    on520906   0.086   4.252   2.670 -0.6093 -0.0149  0.2004
 3590ntf    on520907   0.150   4.178   2.900 -0.5654  0.3678 -0.1015
 3590ntf    fn420908   0.122   3.908   2.799 -0.2635 -0.0041  0.4049
 3590ntf    fn420909  -0.064   4.013   2.767 -0.1872 -0.4619 -0.5374
 3590ntf    fn420910   0.067   3.973   2.600  0.1795  0.6616  0.1120
 3591ntf    cn120911   2.685   4.860   3.806 -0.3410  0.1370  0.1116
 3591ntf    sn220912   2.665   4.856   3.987 -0.6610 -0.0841  0.0727
 3591ntf    nn320913   2.813   4.827   4.029 -0.4903  0.3683 -0.2087
 3591ntf    sn220914   2.929   4.921   4.079 -0.1224 -0.0167 -0.3263
 3591ntf    cn120915   3.065   4.803   4.099 -0.3799 -0.2554  0.0479
 3591ntf    fn420916   2.576   4.872   3.731 -0.3567  0.3655  0.1712
 3591ntf    fn420917   2.766   4.950   3.753 -0.2208  0.1021  0.2372
 3591ntf    fn420918   2.741   4.745   3.771  0.0841  0.4982 -0.4033
 3591ntf    on520919   2.622   4.986   4.034  0.1920  0.3697 -0.3782
 3591ntf    on520920   2.573   4.749   4.016 -0.2169 -0.2996  0.6941
 3591ntf    on520921   2.913   4.965   4.216 -0.5291 -0.3604 -0.2589
 3591ntf    on520922   2.969   5.015   3.978  0.3335  0.2029  0.0576
 3591ntf    fn420923   3.036   4.698   4.174  0.7641 -0.3342  0.4011
 3591ntf    fn420924   3.108   4.753   3.984  0.2503 -0.7325  0.4816
 3591ntf    fn420925   3.165   4.871   4.154 -0.2491  0.2182 -0.7573
 3592ntf    cn120926   6.070   4.362   1.529 -0.0474 -0.5155 -0.0584
 3592ntf    sn220927   5.983   4.414   1.379  0.0991  0.0396  0.0433
 3592ntf    nn320928   5.912   4.280   1.334  0.2835  0.1545 -0.6021
 3592ntf    sn220929   5.975   4.169   1.243  0.2836 -0.4253  0.0931
 3592ntf    cn120930   5.926   4.219   1.075  0.2560  0.5465  0.3831
 3592ntf    fn420931   6.178   4.295   1.494  0.0379  0.0956 -0.9912
 3592ntf    fn420932   6.113   4.464   1.602  0.3240 -0.0518 -0.9077
 3592ntf    fn420933   6.000   4.288   1.613  0.1736  0.0733  0.6587
 3592ntf    on520934   5.888   4.514   1.421  0.2622  0.1311  0.1909
 3592ntf    on520935   6.079   4.467   1.286  0.0388 -0.3815 -0.2636
 3592ntf    on520936   5.907   4.044   1.263  0.0783 -0.3743 -0.2785
 3592ntf    on520937   6.119   4.158   1.245  0.2902 -0.4000 -0.1905
 3592ntf    fn420938   5.991   4.149   0.983  0.2139  0.6473  0.2772
 3592ntf    fn420939   5.804   4.176   1.048  0.5903 -0.4795  0.4759
 3592ntf    fn420940   5.930   4.346   1.040 -0.0004  0.4242 -0.0907
 3593ntf    cn120941   0.113   2.948   5.030  0.2498 -0.1096  0.1092
 3593ntf    sn220942   0.201   3.055   5.148 -0.0083  0.2760 -0.0466
 3593ntf    nn320943   0.338   2.978   5.156 -0.2017 -0.0574  0.0693
 3593ntf    sn220944   0.385   2.875   5.265 -0.0895  0.1751  0.2413
 3593ntf    cn120945   0.473   2.989   5.375  0.4746  0.2928 -0.3253
 3593ntf    fn420946   0.184   2.922   4.921  0.2642 -0.1559  0.1292
 3593ntf    fn420947   0.070   2.834   5.082  0.0343 -0.2503 -0.3717
 3593ntf    fn420948   0.001   3.003   4.989  0.0720 -0.5173  0.0424
 3593ntf    on520949   0.226   3.176   5.074  0.3230  0.1029 -0.2250
 3593ntf    on520950   0.111   3.066   5.260 -0.0160  0.2448 -0.0499
 3593ntf    on520951   0.495   2.795   5.219 -0.1769  0.1030  0.1580
 3593ntf    on520952   0.279   2.819   5.346  0.3960 -0.6562  0.3107
 3593ntf    fn420953   0.533   3.081   5.301  0.8346  0.2540 -0.0824
 3593ntf    fn420954   0.387   3.054   5.453  0.9614 -0.0071  0.4735
 3593ntf    fn420955   0.562   2.940   5.460  0.2765  0.4366 -0.0319
 3594ntf    cn120956   4.009   5.771   5.865 -0.0782 -0.4223  0.1576
 3594ntf    sn220957   3.873   5.753   5.744  0.0559 -0.2820 -0.0147
 3594ntf    nn320958   3.902   5.617   5.672  0.3085 -0.0720 -0.3109
 3594ntf    sn220959   3.889   5.578   5.520 -0.1429 -0.0960 -0.2665
 3594ntf    cn120960   4.060   5.522   5.498 -0.0756 -0.1112  0.2741
 3594ntf    fn420961   3.991   5.878   5.940  0.4683 -0.3447  0.1794
 3594ntf    fn420962   4.023   5.663   5.940  0.1208 -0.1435  0.5206
 3594ntf    fn420963   4.121   5.790   5.797  0.1968 -0.1364  0.6942
 3594ntf    on520964   3.766   5.740   5.840 -0.2751  0.1904 -0.3210
 3594ntf    on520965   3.889   5.868   5.659 -0.8865 -0.2731 -0.1881
 3594ntf    on520966   3.879   5.677   5.416  0.1415 -0.1105 -0.3084
 3594ntf    on520967   3.808   5.459   5.515 -0.3428  0.0251  0.0358
 3594ntf    fn420968   4.115   5.509   5.617  0.5152 -0.1528  0.0022
 3594ntf    fn420969   4.076   5.410   5.429 -0.1345 -0.0285  0.1257
 3594ntf    fn420970   4.133   5.616   5.440  0.2804 -0.5066  0.0626
 3595ntf    cn120971   4.863   0.241   0.845  0.2190  0.0782  0.0298
 3595ntf    sn220972   5.007   0.162   0.924  0.1265 -0.1992 -0.0787
 3595ntf    nn320973   5.122   0.193   0.821  0.2019  0.0748  0.0897
 3595ntf    sn220974   5.241   0.291   0.852  0.0397  0.1718  0.4207
 3595ntf    cn120975   5.289   0.322   0.679  0.1200  0.2944  0.4648
 3595ntf    fn420976   4.743   0.210   0.893  0.1915 -0.1495 -0.1810
 3595ntf    fn420977   4.878   0.372   0.852 -0.3118  0.1333  0.1689
 3595ntf    fn420978   4.857   0.220   0.715 -0.4216 -0.0892  0.0806
 3595ntf    on520979   5.018   0.233   1.049 -0.3311 -0.4608  0.1131
 3595ntf    on520980   4.970   0.023   0.927 -0.3305 -0.0775  0.0264
 3595ntf    on520981   5.358   0.222   0.897  0.1950 -0.0107 -0.2451
 3595ntf    on520982   5.219   0.423   0.905  0.4864  0.3121  0.2552
 3595ntf    fn420983   5.386   0.410   0.661 -0.0403  0.2608 -0.6061
 3595ntf    fn420984   5.322   0.211   0.614  0.1725  0.0831  0.8484
 3595ntf    fn420985   5.190   0.387   0.622  0.3419  0.2405  0.0126
 3596ntf    cn120986   6.675   6.919   0.868 -0.3128  0.0842 -0.0246
 3596ntf    sn220987   6.837   6.967   0.936 -0.0986 -0.2485 -0.2998
 3596ntf    nn320988   6.805   6.968   1.090  0.3238  0.2376 -0.2132
 3596ntf    sn220989   6.862   6.889   1.213 -0.0646  0.5563  0.1758
 3596ntf    cn120990   6.730   6.764   1.213 -0.1785  0.6732 -0.1233
 3596ntf    fn420991   6.680   6.905   0.737  0.1741 -0.1743  0.0163
 3596ntf    fn420992   6.650   6.796   0.911  0.1091 -0.0156 -0.0546
 3596ntf    fn420993   6.573   6.993   0.907  0.0197  0.7383 -0.3788
 3596ntf    on520994   6.918   6.855   0.894 -0.2314 -0.5596  0.2607
 3596ntf    on520995   6.864   7.096   0.878 -0.5503 -0.2090 -0.4229
 3596ntf    on520996   6.842   6.961   1.336 -0.2656  0.3756  0.2506
 3596ntf    on520997   6.992   6.826   1.202 -0.1507  0.4062  0.0136
 3596ntf    fn420998   6.716   6.697   1.100  0.1303 -0.2494  0.3669
 3596ntf    fn420999   6.724   6.676   1.312 -0.1978  0.2925 -0.4591
 3596ntf    fn421000   6.612   6.817   1.239 -0.5159 -0.2297  0.2559
 3597ntf    cn121001   1.753   3.264   6.916 -0.0165  0.1148 -0.0610
 3597ntf    sn221002   1.655   3.416   6.930 -0.1486  0.0447 -0.2187
 3597ntf    nn321003   1.703   3.496   6.803  0.0649 -0.1350 -0.2508
 3597ntf    sn221004   1.837   3.576   6.789 -0.1351  0.2348 -0.0720
 3597ntf    cn121005   1.751   3.700   6.688  0.2144  0.6687  0.1594
 3597ntf    fn421006   1.880   3.292   6.893  0.1547 -0.4877  0.1322
 3597ntf    fn421007   1.742   3.190   7.025 -0.1701 -0.0023 -0.1546
 3597ntf    fn421008   1.716   3.189   6.813  0.1227  0.0371 -0.0549
 3597ntf    on521009   1.516   3.379   6.914 -0.3080  0.7529 -0.5233
 3597ntf    on521010   1.684   3.472   7.059  0.0333 -0.6866  0.0606
 3597ntf    on521011   1.931   3.515   6.697 -0.6119 -0.2113 -0.2656
 3597ntf    on521012   1.892   3.655   6.896  0.2184 -0.0343 -0.0528
 3597ntf    fn421013   1.703   3.645   6.577 -0.0028 -0.7170  0.9216
 3597ntf    fn421014   1.661   3.775   6.751  0.0502  0.1630  0.5357
 3597ntf    fn421015   1.841   3.791   6.653  0.5758  0.2112 -0.1021
 3598ntf    cn121016   0.939   6.748   6.837  0.4394  0.0856 -0.2296
 3598ntf    sn221017   0.900   6.603   6.735  0.1972  0.0150 -0.0371
 3598ntf    nn321018   1.039   6.531   6.736  0.2605  0.1389  0.0244
 3598ntf    sn221019   1.112   6.470   6.611  0.2669  0.0600  0.0657
 3598ntf    cn121020   1.267   6.562   6.592  0.2114  0.0829 -0.2759
 3598ntf    fn421021   0.840   6.833   6.859  0.3763 -0.0704  0.1113
 3598ntf    fn421022   0.997   6.728   6.954 -0.0493  0.4411  0.0786
 3598ntf    fn421023   1.034   6.822   6.782  0.6858  0.1150  0.2298
 3598ntf    on521024   0.802   6.527   6.810  0.5564 -0.9191 -0.5002
 3598ntf    on521025   0.859   6.660   6.609  0.0126  0.4810  0.2297
 3598ntf    on521026   1.053   6.504   6.484  0.2019  0.2924  0.1577
 3598ntf    on521027   1.165   6.337   6.630  0.4884  0.1030 -0.2532
 3598ntf    fn421028   1.350   6.549   6.693 -0.1677 -0.2909 -0.0098
 3598ntf    fn421029   1.335   6.527   6.484 -0.6191 -0.8504 -0.5206
 3598ntf    fn421030   1.242   6.691   6.577 -0.6632 -0.0727 -0.1978
 3599ntf    cn121031   2.897   0.460   6.671 -0.6620  0.4283  0.1209
 3599ntf    sn221032   2.799   0.355   6.782  0.1901 -0.2668  0.2230
 3599ntf    nn321033   2.655   0.407   6.750  0.1612 -0.3194  0.2676
 3599ntf    sn221034   2.529   0.335   6.689  0.0784  0.1563 -0.1396
 3599ntf    cn121035   2.404   0.401   6.803  0.0789 -0.1107  0.0175
 3599ntf    fn421036   2.908   0.417   6.547 -0.0788  0.3350  0.2021
 3599ntf    fn421037   2.852   0.585   6.672 -1.0165  0.3015  0.1119
 3599ntf    fn421038   3.024   0.464   6.709 -0.6513  0.0864  0.1163
 3599ntf    on521039   2.835   0.224   6.733  0.1152 -0.0425 -0.4499
 3599ntf    on521040   2.853   0.395   6.909  0.4794  0.3104 -0.0769
 3599ntf    on521041   2.520   0.191   6.698  0.5330  0.1260 -0.1441
 3599ntf    on521042   2.496   0.396   6.563 -0.3099  0.1890 -0.0241
 3599ntf    fn421043   2.452   0.510   6.859  0.0010 -0.0591 -0.0157
 3599ntf    fn421044   2.291   0.440   6.745 -0.0381 -0.0896  0.2583
 3599ntf    fn421045   2.373   0.320   6.903  0.8441  0.2172  0.5272
 3600ntf    cn121046   7.102   0.207   1.456 -0.0284  0.3456  0.1485
 3600ntf    sn221047   7.237   0.322   1.494  0.0783  0.2407  0.0874
 3600ntf    nn321048   7.203   0.429   1.384 -0.1126 -0.0684 -0.1521
 3600ntf    sn221049   7.291   0.542   1.320 -0.0698 -0.1216 -0.1872
 3600ntf    cn121050   7.353   0.458   1.171 -0.2996 -0.2456 -0.2128
 3600ntf    fn421051   7.114   0.142   1.341  0.2092  0.2203  0.2429
 3600ntf    fn421052   7.098   0.112   1.549 -0.0447 -0.0327 -0.2360
 3600ntf    fn421053   6.982   0.263   1.453 -0.3245 -0.3067 -0.5750
 3600ntf    on521054   7.195   0.368   1.624 -0.1446 -0.2645  0.1946
 3600ntf    on521055   7.357   0.244   1.479  0.1009  0.2691  0.1199
 3600ntf    on521056   7.406   0.590   1.393 -0.3871 -0.7254  0.7270
 3600ntf    on521057   7.213   0.651   1.269 -0.2607 -0.3771 -0.4454
 3600ntf    fn421058   7.257   0.399   1.102 -0.3934 -0.5586  0.1855
 3600ntf    fn421059   7.415   0.536   1.083 -0.1855  0.1811  0.2442
 3600ntf    fn421060   7.438   0.366   1.213  0.7349  0.6495 -0.3057
 3601ntf    cn121061   6.615   4.923   0.872 -0.1502  0.6537 -0.1865
 3601ntf    sn221062   6.589   4.819   0.724 -0.0685 -0.0777  0.3047
 3601ntf    nn321063   6.562   4.922   0.609  0.1658  0.2824  0.5662
 3601ntf    sn221064   6.428   4.989   0.563  0.1855 -0.0999 -0.0644
 3601ntf    cn121065   6.399   4.904   0.405 -0.0364 -0.2757  0.0709
 3601ntf    fn421066   6.725   4.996   0.867  0.4332 -0.2053 -0.2943
 3601ntf    fn421067   6.506   4.989   0.906 -0.6634 -0.3795  0.2274
 3601ntf    fn421068   6.643   4.850   0.979  0.0243  0.1030 -0.5999
 3601ntf    on521069   6.723   4.766   0.709 -0.0149 -0.1860  1.0964
 3601ntf    on521070   6.481   4.731   0.757 -0.8528  0.5097 -0.6458
 3601ntf    on521071   6.453   5.127   0.526  0.0421 -0.1243 -0.2552
 3601ntf    on521072   6.311   4.966   0.644  0.1795  0.0784 -0.0213
 3601ntf    fn421073   6.400   4.772   0.417 -0.1121 -0.2429  0.4624
 3601ntf    fn421074   6.287   4.934   0.342  0.1595  0.5134  0.0868
 3601ntf    fn421075   6.495   4.928   0.318 -0.2753  0.1590 -0.0741
 3602ntf    cn121076   3.366   4.894   0.432 -0.0013 -0.0663 -0.1054
 3602ntf    sn221077   3.352   5.033   0.316  0.1060  0.0667  0.0402
 3602ntf    nn321078   3.196   5.019   0.307  0.1229 -0.0132 -0.1336
 3602ntf    sn221079   3.092   5.136   0.292  0.1982  0.1072  0.2730
 3602ntf    cn121080   2.936   5.065   0.355 -0.2020  0.4115 -0.3615
 3602ntf    fn421081   3.335   4.778   0.376  0.1657 -0.1973  0.0696
 3602ntf    fn421082   3.483   4.886   0.493  0.0456  0.5865 -0.1086
 3602ntf    fn421083   3.286   4.903   0.537 -0.0578  0.6458 -0.2074
 3602ntf    on521084   3.404   5.136   0.402  0.0968 -0.1010  0.2491
 3602ntf    on521085   3.422   4.979   0.202  0.1306  0.1375  0.0221
 3602ntf    on521086   3.058   5.163   0.154 -0.0895 -0.2593  0.2687
 3602ntf    on521087   3.103   5.247   0.382 -0.2905  0.2919  0.1089
 3602ntf    fn421088   2.955   4.999   0.468 -0.5086  0.0087 -0.5445
 3602ntf    fn421089   2.847   5.160   0.380  0.0298  0.4159  0.4824
 3602ntf    fn421090   2.882   4.983   0.267 -0.1061  0.4834 -0.4886
 3603ntf    cn121091   3.406   1.944   5.270  0.0644  0.2646  0.4992
 3603ntf    sn221092   3.526   1.809   5.251 -0.3451 -0.0514  0.1401
 3603ntf    nn321093   3.594   1.851   5.115  0.2256 -0.0445  0.4242
 3603ntf    sn221094   3.736   1.816   5.058 -0.0193 -0.2777 -0.0426
 3603ntf    cn121095   3.822   1.968   5.110  0.0144 -0.2531 -0.1692
 3603ntf    fn421096   3.464   2.063   5.274  0.2811  0.1682  0.2862
 3603ntf    fn421097   3.313   1.962   5.178  0.0898  0.5548  0.5269
 3603ntf    fn421098   3.338   1.923   5.381 -0.3394  0.0841  0.2200
 3603ntf    on521099   3.609   1.831   5.367 -0.0092  0.0108 -0.1103
 3603ntf    on521100   3.456   1.683   5.250 -0.4919  0.0290  0.3432
 3603ntf    on521101   3.743   1.820   4.914  0.3040 -0.3098 -0.0289
 3603ntf    on521102   3.806   1.704   5.114  0.6276  0.2508  0.2196
 3603ntf    fn421103   3.848   1.967   5.240 -0.1083  0.4054 -0.1388
 3603ntf    fn421104   3.938   1.984   5.048  0.1356 -0.2201  0.0664
 3603ntf    fn421105   3.750   2.077   5.091 -0.4707 -0.4414  0.5369
 3604ntf    cn121106   2.108   4.051   2.766  0.0966  0.0696 -0.1770
 3604ntf    sn221107   2.204   3.916   2.690  0.3294  0.0868  0.0865
 3604ntf    nn321108   2.351   3.971   2.699  0.4799 -0.2551 -0.2728
 3604ntf    sn221109   2.440   3.970   2.828 -0.0784  0.3234  0.1201
 3604ntf    cn121110   2.448   4.148   2.864 -0.2765  0.3890 -0.1607
 3604ntf    fn421111   2.127   4.163   2.698  0.0737  0.3879  0.3388
 3604ntf    fn421112   1.978   4.030   2.761  0.0991  0.0360 -0.1125
 3604ntf    fn421113   2.138   4.081   2.891 -0.5488  0.1513 -0.0387
 3604ntf    on521114   2.177   3.801   2.772  0.3683  0.1605  0.2042
 3604ntf    on521115   2.167   3.907   2.551 -0.3213 -0.1152  0.2710
 3604ntf    on521116   2.576   3.933   2.796 -0.2244  0.0923 -0.2392
 3604ntf    on521117   2.386   3.907   2.946  0.3025 -0.2003  0.0203
 3604ntf    fn421118   2.327   4.189   2.896 -0.2198 -0.0180  0.6020
 3604ntf    fn421119   2.534   4.178   2.960 -0.4150  0.5438 -0.0833
 3604ntf    fn421120   2.494   4.217   2.761  0.1379  0.1683 -0.1255
 3605ntf    cn121121   3.625   7.017   1.950  0.1373 -0.3318  0.0164
 3605ntf    sn221122   3.700   7.115   1.817 -0.4799  0.0973 -0.0191
 3605ntf    nn321123   3.587   7.217   1.778 -0.3382  0.1227 -0.3632
 3605ntf    sn221124   3.573   7.373   1.791  0.1297  0.1006  0.4658
 3605ntf    cn121125   3.674   7.434   1.654 -0.4904 -0.2034 -0.1328
 3605ntf    fn421126   3.587   6.897   1.910  0.5023 -0.4115 -0.0987
 3605ntf    fn421127   3.701   6.995   2.056 -0.0245 -0.1821  0.1642
 3605ntf    fn421128   3.517   7.078   1.995  0.0467 -0.6070  0.1744
 3605ntf    on521129   3.811   7.167   1.893 -0.5083  0.4204 -0.1978
 3605ntf    on521130   3.725   7.013   1.718  0.3690 -0.0920  0.3852
 3605ntf    on521131   3.632   7.422   1.913  0.5274  0.1040  0.2748
 3605ntf    on521132   3.439   7.412   1.754  0.1697 -0.1747  0.0274
 3605ntf    fn421133   3.799   7.394   1.668 -0.3046  0.3819 -0.0863
 3605ntf    fn421134   3.626   7.395   1.537  0.1717 -0.5045 -0.3079
 3605ntf    fn421135   3.675   7.567   1.651 -0.3821 -0.1738  0.8930
 3606ntf    cn121136   6.454   2.208   4.795 -0.3554 -0.4647 -0.0425
 3606ntf    sn221137   6.274   2.225   4.775 -0.2919 -0.0947 -0.3003
 3606ntf    nn321138   6.280   2.363   4.701 -0.6818  0.2074  0.2238
 3606ntf    sn221139   6.167   2.451   4.636 -0.3057  0.4767 -0.0728
 3606ntf    cn121140   6.201   2.603   4.732 -0.1578  0.4276 -0.0466
 3606ntf    fn421141   6.504   2.328   4.819 -0.1997 -0.6729  0.6970
 3606ntf    fn421142   6.492   2.124   4.890 -0.0389 -0.3210 -0.0427
 3606ntf    fn421143   6.508   2.168   4.681  0.1521 -0.2754  0.1326
 3606ntf    on521144   6.243   2.112   4.691  0.5212 -0.4921 -0.0702
 3606ntf    on521145   6.217   2.223   4.907 -0.4008 -0.8851 -0.3549
 3606ntf    on521146   6.027   2.424   4.659 -0.2550  0.0053 -0.3173
 3606ntf    on521147   6.203   2.492   4.503 -0.0741  0.0907 -0.1292
 3606ntf    fn421148   6.114   2.697   4.700 -0.0971  0.6064  0.3225
 3606ntf    fn421149   6.188   2.591   4.863  0.3339  0.0133 -0.0329
 3606ntf    fn421150   6.320   2.651   4.700 -0.2571  0.5182 -0.2827
 3607ntf    cn121151   0.050   1.885   3.567  0.0538  0.1722 -0.2114
 3607ntf    sn221152   0.073   2.065   3.550  0.2247  0.1298 -0.4338
 3607ntf    nn321153   0.164   2.114   3.668 -0.6066 -0.5153  0.4927
 3607ntf    sn221154   0.139   2.183   3.806 -0.2938  0.2620  0.1647
 3607ntf    cn121155   0.161   2.361   3.776  0.1309  0.2213  0.2303
 3607ntf    fn421156  -0.026   1.833   3.473 -0.4600 -0.3824  0.4981
 3607ntf    fn421157   0.160   1.812   3.575 -0.1159 -0.0385  0.2332
 3607ntf    fn421158  -0.027   1.869   3.673 -0.2434  0.3577 -0.3999
 3607ntf    on521159   0.145   2.077   3.425 -0.0965 -0.5666 -0.6926
 3607ntf    on521160  -0.056   2.127   3.537 -0.2751 -0.6791  0.5207
 3607ntf    on521161   0.248   2.153   3.896 -0.0084 -0.2770 -0.3602
 3607ntf    on521162   0.007   2.163   3.860 -0.2400 -0.6657 -0.0423
 3607ntf    fn421163   0.139   2.392   3.649 -0.1678  0.0042  0.2286
 3607ntf    fn421164   0.080   2.435   3.850  0.4285  0.5826  0.2021
 3607ntf    fn421165   0.287   2.396   3.798  0.2341 -0.1527  0.2372
 3608ntf    cn121166   4.049   3.017   3.208  0.0173  0.1290  0.1341
 3608ntf    sn221167   4.085   2.840   3.229  0.2052  0.1364 -0.1087
 3608ntf    nn321168   4.032   2.776   3.096 -0.0719  0.4443 -0.1487
 3608ntf    sn221169   4.048   2.825   2.948 -0.7371  0.2434 -0.2894
 3608ntf    cn121170   4.077   2.664   2.870 -0.0324  0.3981 -0.3508
 3608ntf    fn421171   4.081   3.079   3.320  0.0638  0.3135  0.0188
 3608ntf    fn421172   4.112   3.073   3.106 -0.3512 -0.2824 -0.3238
 3608ntf    fn421173   3.919   3.033   3.191  0.0655  0.4220  0.0304
 3608ntf    on521174   4.227   2.842   3.255  0.0669 -0.1764  0.6968
 3608ntf    on521175   3.994   2.798   3.333  0.1562 -0.1069 -0.2493
 3608ntf    on521176   4.172   2.897   2.933 -0.6976  0.3742  0.5960
 3608ntf    on521177   3.919   2.863   2.894 -0.7305 -0.4524 -0.8158
 3608ntf    fn421178   3.972   2.585   2.889  0.2362  0.1241  0.0147
 3608ntf    fn421179   4.099   2.677   2.740 -0.2443  0.2820 -0.4000
 3608ntf    fn421180   4.174   2.598   2.931 -0.4806  0.0462 -0.0121
 3609ntf    cn121181   3.458   5.004   1.468  0.3295  0.3150  0.2765
 3609ntf    sn221182   3.598   5.027   1.355  0.1312  0.6306  0.0923
 3609ntf    nn321183   3.634   5.178   1.375  0.0983  0.5056  1.1686
 3609ntf    sn221184   3.572   5.306   1.308  0.2276  0.0107  0.0721
 3609ntf    cn121185   3.514   5.400   1.453  0.3655  0.2389 -0.0202
 3609ntf    fn421186   3.479   5.070   1.581 -0.0011  0.2506  0.3778
 3609ntf    fn421187   3.349   5.058   1.416  0.1985 -0.1781  0.0353
 3609ntf    fn421188   3.430   4.877   1.493  0.1251  0.2718 -0.1666
 3609ntf    on521189   3.699   4.944   1.416 -0.4056 -0.0698  0.0406
 3609ntf    on521190   3.553   4.989   1.223 -0.0541 -0.1497  0.3741
 3609ntf    on521191   3.449   5.295   1.234  0.0843  0.0146  0.3090
 3609ntf    on521192   3.674   5.392   1.252  0.2879 -0.2605 -0.2352
 3609ntf    fn421193   3.464   5.517   1.416 -0.0349  0.2113  0.4317
 3609ntf    fn421194   3.436   5.330   1.532  0.1970 -0.5429 -0.8599
 3609ntf    fn421195   3.618   5.432   1.529  0.4364 -0.3498  0.1341
 3610ntf    cn121196   2.160   6.970   3.587  0.2853  0.4769  0.2512
 3610ntf    sn221197   2.298   6.864   3.639  0.0105  0.1160  0.2531
 3610ntf    nn321198   2.420   6.949   3.587  0.0982  0.2096  0.6124
 3610ntf    sn221199   2.558   6.899   3.533 -0.1119 -0.0602  0.3190
 3610ntf    cn121200   2.671   7.025   3.602 -0.0490  0.0387  0.0345
 3610ntf    fn421201   2.040   6.913   3.592  0.1574  0.7134 -0.0823
 3610ntf    fn421202   2.162   7.073   3.669  0.4172 -0.0158  0.8696
 3610ntf    fn421203   2.179   7.013   3.463 -0.0930  0.0798  0.0513
 3610ntf    on521204   2.287   6.867   3.782 -0.3435  0.0975  0.2268
 3610ntf    on521205   2.278   6.744   3.562  0.7970  0.1220  0.0288
 3610ntf    on521206   2.571   6.909   3.390 -0.3663  0.0817  0.3050
 3610ntf    on521207   2.609   6.777   3.589 -0.2961 -0.4880 -0.4386
 3610ntf    fn421208   2.697   7.019   3.731 -0.2280 -0.3302  0.0553
 3610ntf    fn421209   2.791   7.019   3.547 -0.1941 -0.0043 -0.2809
 3610ntf    fn421210   2.631   7.147   3.572  0.1864  0.1552  0.1884
 3611ntf    cn121211   0.297   1.422   3.571  0.1779 -0.3298  0.4805
 3611ntf    sn221212   0.297   1.242   3.547 -0.0959 -0.2786  0.1013
 3611ntf    nn321213   0.155   1.219   3.609 -0.3002  0.5179 -0.0609
 3611ntf    sn221214   0.112   1.167   3.750 -0.0648  0.1822 -0.1125
 3611ntf    cn121215   0.031   1.313   3.822 -0.2463 -0.1628  0.3921
 3611ntf    fn421216   0.267   1.462   3.694 -0.2844 -0.5836  0.4501
 3611ntf    fn421217   0.411   1.487   3.549 -0.0835  0.1419  0.4951
 3611ntf    fn421218   0.211   1.478   3.488  0.7526  0.2616  0.2704
 3611ntf    on521219   0.297   1.220   3.404 -0.5127  0.6628 -0.0505
 3611ntf    on521220   0.404   1.178   3.620  0.2295 -0.1495 -0.2583
 3611ntf    on521221   0.212   1.124   3.845 -0.4413  0.2190  0.3045
 3611ntf    on521222   0.003   1.074   3.734 -0.1957  0.3315 -0.0867
 3611ntf    fn421223  -0.065   1.363   3.746 -0.0258 -0.4611 -0.0832
 3611ntf    fn421224  -0.027   1.279   3.936 -0.3008  0.2684  0.4954
 3611ntf    fn421225   0.114   1.415   3.838  0.1075 -0.3958  0.0545
 3612ntf    cn121226   6.059   2.205   1.941 -0.2068 -0.3237  0.1391
 3612ntf    sn221227   6.132   2.040   1.920  0.2660 -0.0496 -0.3995
 3612ntf    nn321228   6.280   2.091   1.918  0.2064  0.1343 -0.1032
 3612ntf    sn221229   6.385   2.065   1.804  0.4803  0.0320  0.1713
 3612ntf    cn121230   6.344   2.204   1.694  0.2708 -0.0515  0.1441
 3612ntf    fn421231   5.928   2.202   1.927 -0.2539 -0.3792  0.5870
 3612ntf    fn421232   6.075   2.264   2.058 -0.4186 -0.4186  0.2155
 3612ntf    fn421233   6.096   2.290   1.846 -0.4609 -0.1415  0.2027
 3612ntf    on521234   6.086   1.973   2.039 -0.2971 -0.1856 -0.6898
 3612ntf    on521235   6.085   2.000   1.789  0.0843 -0.1391 -0.3069
 3612ntf    on521236   6.366   1.942   1.732 -0.1587  0.2664 -0.0586
 3612ntf    on521237   6.520   2.084   1.852  0.3087  0.3018  0.5591
 3612ntf    fn421238   6.225   2.188   1.639  0.3482 -0.6202  0.1337
 3612ntf    fn421239   6.323   2.309   1.770 -0.4281 -0.0768 -0.0141
 3612ntf    fn421240   6.439   2.225   1.603 -0.0318 -0.0244 -0.1659
 3613ntf    cn121241   1.119   3.414   1.813  0.0061 -0.1962  0.2613
 3613ntf    sn221242   1.202   3.526   1.697 -0.1066 -0.1483  0.2271
 3613ntf    nn321243   1.231   3.649   1.790 -0.2454 -0.0492  0.1409
 3613ntf    sn221244   1.359   3.689   1.872  0.0029 -0.1648 -0.1871
 3613ntf    cn121245   1.307   3.662   2.045  0.3230  0.0032 -0.0658
 3613ntf    fn421246   1.005   3.469   1.851 -0.0150  0.2849 -0.4907
 3613ntf    fn421247   1.085   3.302   1.751 -0.2266  0.0386 -0.0314
 3613ntf    fn421248   1.182   3.366   1.920  0.5197 -0.2538 -0.0661
 3613ntf    on521249   1.313   3.442   1.661  0.0462  0.3341 -0.4351
 3613ntf    on521250   1.096   3.553   1.603  0.5151  0.3554 -0.3326
 3613ntf    on521251   1.378   3.831   1.860 -0.1156 -0.1995 -0.7971
 3613ntf    on521252   1.478   3.607   1.871 -0.0373 -0.2293  0.1577
 3613ntf    fn421253   1.267   3.537   2.060 -0.0647  0.1575  0.1871
 3613ntf    fn421254   1.407   3.682   2.130 -0.0704 -0.1914  0.4466
 3613ntf    fn421255   1.212   3.748   2.077  0.3489 -0.0149  0.0584
 3614ntf    cn121256   3.239   1.940   2.755  0.0356  0.5306  0.0574
 3614ntf    sn221257   3.058   1.958   2.740  0.0045  0.0292 -0.1971
 3614ntf    nn321258   3.058   1.892   2.598 -0.5800  0.6424 -0.4848
 3614ntf    sn221259   2.963   1.781   2.541  0.2428 -0.3262 -0.0053
 3614ntf    cn121260   3.080   1.643   2.531  0.5662 -0.0379 -0.2443
 3614ntf    fn421261   3.271   1.812   2.753 -0.1541  0.4809  0.1018
 3614ntf    fn421262   3.300   1.997   2.652 -0.0837  0.6608  0.0584
 3614ntf    fn421263   3.287   1.989   2.868 -0.0031  0.0976  0.2640
 3614ntf    on521264   3.008   1.882   2.852 -0.1079  1.0987  0.4999
 3614ntf    on521265   3.036   2.100   2.737  0.3863  0.0862 -0.3749
 3614ntf    on521266   2.929   1.801   2.402  1.6053 -0.0205 -0.3133
 3614ntf    on521267   2.861   1.732   2.631 -0.1381  0.3012 -0.0865
 3614ntf    fn421268   3.033   1.532   2.476  0.1337 -0.2106  0.4586
 3614ntf    fn421269   3.188   1.681   2.465  0.3987  0.2577 -0.3485
 3614ntf    fn421270   3.124   1.607   2.651 -0.1461  0.4533  0.1724
 3615ntf    cn121271   3.243   3.622   5.019  0.0455 -0.0555 -0.2311
 3615ntf    sn221272   3.159   3.696   5.162  0.0110  0.0388 -0.2996
 3615ntf    nn321273   3.247   3.637   5.277  0.0918 -0.3205 -0.5433
 3615ntf    sn221274   3.227   3.506   5.360  0.1775 -0.0540 -0.0970
 3615ntf    cn121275   3.137   3.553   5.511  0.0714 -0.0962 -0.1471
 3615ntf    fn421276   3.267   3.493   5.036  0.1029 -0.1178 -0.7640
 3615ntf    fn421277   3.169   3.629   4.910 -0.0570 -0.1748 -0.1686
 3615ntf    fn421278   3.358   3.679   4.984 -0.1745  1.0052  0.7246
 3615ntf    on521279   3.174   3.838   5.144  0.0573  0.0982  0.1900
 3615ntf    on521280   3.026   3.641   5.150  0.0292  0.0236 -0.4380
 3615ntf    on521281   3.362   3.466   5.393  0.2475  0.0253 -0.2912
 3615ntf    on521282   3.143   3.396   5.318  0.2314  0.3184 -1.1934
 3615ntf    fn421283   3.011   3.587   5.488  0.1079  0.2535  0.1614
 3615ntf    fn421284   3.138   3.458   5.603  0.3956  0.4919  0.4650
 3615ntf    fn421285   3.184   3.663   5.568  0.2384 -0.2073 -0.0706
 3616ntf    cn121286   5.651   1.478   2.674  0.2180  0.5074 -0.1300
 3616ntf    sn221287   5.798   1.492   2.568  0.1519 -0.0032 -0.2911
 3616ntf    nn321288   5.916   1.514   2.670  0.3640  0.0835 -0.5541
 3616ntf    sn221289   5.980   1.656   2.688  0.3437  0.0574 -0.2859
 3616ntf    cn121290   6.040   1.648   2.860  0.4691 -0.1168 -0.3384
 3616ntf    fn421291   5.622   1.598   2.724 -0.4435  0.1359  0.3934
 3616ntf    fn421292   5.550   1.419   2.613  0.3848 -0.0659  0.1450
 3616ntf    fn421293   5.689   1.409   2.780  0.2347  0.4245 -0.1906
 3616ntf    on521294   5.801   1.363   2.504  0.0852 -0.1965  0.0940
 3616ntf    on521295   5.770   1.608   2.487  0.3296  0.5852  0.4806
 3616ntf    on521296   5.879   1.760   2.695 -0.2298 -0.5085  0.0047
 3616ntf    on521297   6.101   1.661   2.611  0.2861 -0.0121 -0.3810
 3616ntf    fn421298   6.111   1.539   2.885  0.6547  0.2009  0.5295
 3616ntf    fn421299   6.117   1.752   2.883  0.9906 -0.5174 -0.2491
 3616ntf    fn421300   5.946   1.663   2.952  0.4218 -0.4003 -0.3375
 3617ntf    cn121301   4.754   4.106   3.981  0.1502 -0.3508 -0.3284
 3617ntf    sn221302   4.659   4.250   3.925  0.1408 -0.3222 -0.2398
 3617ntf    nn321303   4.579   4.279   4.057  0.0345  0.2845 -0.4311
 3617ntf    sn221304   4.590   4.406   4.148 -0.1935  0.0365 -0.0544
 3617ntf    cn121305   4.746   4.379   4.237 -0.1014 -0.1320 -0.2656
 3617ntf    fn421306   4.792   4.128   4.106  0.1799 -0.0281 -0.3936
 3617ntf    fn421307   4.694   3.988   3.973 -0.1905 -0.1971 -0.0589
 3617ntf    fn421308   4.864   4.100   3.908  0.0710 -0.0176 -0.4752
 3617ntf    on521309   4.770   4.336   3.892  0.0575 -0.0798  0.1141
 3617ntf    on521310   4.578   4.196   3.818 -0.3390  0.6237 -0.3740
 3617ntf    on521311   4.496   4.391   4.256  0.2022 -0.0636  0.2758
 3617ntf    on521312   4.604   4.535   4.085 -0.8033  0.0217 -0.2275
 3617ntf    fn421313   4.766   4.465   4.336  0.2224  0.2196 -0.6334
 3617ntf    fn421314   4.754   4.258   4.289  0.0774  0.0781  0.2024
 3617ntf    fn421315   4.855   4.399   4.166  0.0920 -0.3707 -0.0349
 3618ntf    cn121316   3.493   4.334   4.213 -0.1252  0.6354  0.2135
 3618ntf    sn221317   3.542   4.160   4.187 -0.0993  0.7106 -0.2304
 3618ntf    nn321318   3.581   4.155   4.035 -0.2879  0.5798 -0.2757
 3618ntf    sn221319   3.488   4.152   3.909 -0.0533  0.3210 -0.4445
 3618ntf    cn121320   3.583   4.282   3.824  0.1948 -0.0435 -0.7275
 3618ntf    fn421321   3.593   4.414   4.181  0.1533  0.2003 -0.0208
 3618ntf    fn421322   3.391   4.376   4.142 -0.2812 -0.3789 -0.1874
 3618ntf    fn421323   3.465   4.348   4.342 -0.2015  0.0012  0.2694
 3618ntf    on521324   3.651   4.143   4.279 -0.4930 -0.4007  0.0468
 3618ntf    on521325   3.424   4.082   4.214  0.0757  0.5380  0.0350
 3618ntf    on521326   3.361   4.220   3.917 -0.0949  0.1930 -0.0222
 3618ntf    on521327   3.496   4.038   3.822 -0.4132 -0.2374  0.2450
 3618ntf    fn421328   3.708   4.248   3.797  0.1662 -0.9956  0.2551
 3618ntf    fn421329   3.520   4.332   3.720 -0.2894  0.5238 -0.1675
 3618ntf    fn421330   3.590   4.390   3.901  0.5137 -0.4771 -0.1388
 3619ntf    cn121331   4.397   3.129   4.382  0.5241 -0.0552  0.3939
 3619ntf    sn221332   4.443   3.230   4.239  0.0459 -0.1288  0.1870
 3619ntf    nn321333   4.382   3.134   4.130  0.5454  0.2379 -0.4207
 3619ntf    sn221334   4.283   3.174   4.015  0.2015  0.4235 -0.0635
 3619ntf    cn121335   4.134   3.115   4.099  0.3161 -0.2576 -0.3278
 3619ntf    fn421336   4.491   3.151   4.473  0.0764  0.8546  0.6510
 3619ntf    fn421337   4.274   3.153   4.427  0.6051 -0.0651  0.6245
 3619ntf    fn421338   4.395   3.001   4.347 -0.1417  0.1158 -0.2253
 3619ntf    on521339   4.379   3.356   4.267 -0.8391 -0.6916  0.7476
 3619ntf    on521340   4.587   3.236   4.230  0.0122  0.0485 -0.3023
 3619ntf    on521341   4.293   3.089   3.898  0.2716  0.1539  0.1379
 3619ntf    on521342   4.271   3.315   3.988  0.0994  0.5267  0.5082
 3619ntf    fn421343   4.032   3.120   4.015  0.0783 -0.2719 -0.0412
 3619ntf    fn421344   4.153   2.991   4.140  0.4206 -0.2414 -0.3282
 3619ntf    fn421345   4.100   3.194   4.200  0.1726 -0.5293 -0.1619
 3620ntf    cn121346   3.896   0.352   3.017  0.1835  0.3224  0.0192
 3620ntf    sn221347   3.777   0.483   2.975  0.0250  0.1622 -0.0297
 3620ntf    nn321348   3.816   0.521   2.828 -0.0581 -0.0604 -0.1099
 3620ntf    sn221349   3.755   0.468   2.693 -0.1613  0.0936 -0.1237
 3620ntf    cn121350   3.892   0.375   2.619 -0.3918 -0.2525 -0.1194
 3620ntf    fn421351   4.024   0.387   3.020  0.0400  0.8292  0.2691
 3620ntf    fn421352   3.871   0.300   3.136 -0.5663 -0.0190 -0.2826
 3620ntf    fn421353   3.881   0.253   2.930 -0.2731  0.1933  0.2443
 3620ntf    on521354   3.647   0.422   2.987  0.0242 -0.0289 -0.9354
 3620ntf    on521355   3.803   0.588   3.070  0.0404  0.1879 -0.0626
 3620ntf    on521356   3.739   0.576   2.599 -0.4295 -0.2526 -0.4811
 3620ntf    on521357   3.657   0.362   2.682 -0.4575  0.3306  0.1922
 3620ntf    fn421358   3.856   0.323   2.503 -0.3638 -0.2696 -0.1201
 3620ntf    fn421359   3.997   0.451   2.591 -0.4490 -0.2258 -0.2640
 3620ntf    fn421360   3.936   0.271   2.688 -0.0214  0.4059  0.6540
 3621ntf    cn121361   6.532   0.338   3.168  0.0158 -0.0942 -0.3979
 3621ntf    sn221362   6.572   0.219   3.037  0.3389  0.0042 -0.3893
 3621ntf    nn321363   6.634   0.312   2.926 -0.0848  0.2508 -0.4207
 3621ntf    sn221364   6.617   0.305   2.770 -0.2883  0.1384 -0.3940
 3621ntf    cn121365   6.498   0.441   2.750 -0.5237  0.0104  0.1085
 3621ntf    fn421366   6.452   0.284   3.258  0.3981 -0.0880 -0.0512
 3621ntf    fn421367   6.640   0.381   3.231 -0.3348 -0.0737  0.1899
 3621ntf    fn421368   6.475   0.452   3.131 -0.0040 -0.1217 -0.4533
 3621ntf    on521369   6.669   0.130   3.094  0.3638  0.0557 -0.3524
 3621ntf    on521370   6.445   0.165   2.995  0.0929  0.4997 -0.2946
 3621ntf    on521371   6.551   0.187   2.721  0.1547  0.0271 -0.7296
 3621ntf    on521372   6.728   0.357   2.695 -0.2331 -0.0980 -0.4771
 3621ntf    fn421373   6.436   0.446   2.633  0.2034  0.0529 -0.2814
 3621ntf    fn421374   6.398   0.422   2.834 -0.1294 -0.0800  0.5609
 3621ntf    fn421375   6.543   0.564   2.768  0.5687 -0.3574 -0.0223
 3622ntf    cn121376   4.321   1.507   2.707 -0.0189  0.1667  0.0278
 3622ntf    sn221377   4.486   1.512   2.630  0.0235  0.0903  0.1140
 3622ntf    nn321378   4.557   1.393   2.703 -0.8686 -0.2236  0.4894
 3622ntf    sn221379   4.540   1.241   2.672  0.2854 -0.2221 -0.1996
 3622ntf    cn121380   4.662   1.232   2.537  0.2458 -0.1504 -0.2402
 3622ntf    fn421381   4.315   1.578   2.818 -0.6473 -0.0677  0.1476
 3622ntf    fn421382   4.232   1.558   2.623  0.1084 -0.0073 -0.2151
 3622ntf    fn421383   4.268   1.388   2.727  0.3010  0.1380  0.7213
 3622ntf    on521384   4.457   1.489   2.491 -0.2819  0.0422  0.1839
 3622ntf    on521385   4.543   1.640   2.663 -0.6462  0.2044  0.8723
 3622ntf    on521386   4.415   1.199   2.613 -0.1741  0.6793  0.1264
 3622ntf    on521387   4.592   1.162   2.781  0.1601  0.2519  0.2042
 3622ntf    fn421388   4.703   1.107   2.525 -0.3014 -0.3802  0.2253
 3622ntf    fn421389   4.617   1.284   2.424  0.0588  0.5300  0.1412
 3622ntf    fn421390   4.774   1.298   2.559 -0.0723  0.2701  0.1424
 3623ntf    cn121391   5.886   6.386   5.404  0.4095 -0.2354 -0.0267
 3623ntf    sn221392   5.866   6.272   5.264 -0.0764  0.0276 -0.1741
 3623ntf    nn321393   5.751   6.353   5.193 -0.5421 -0.0365  0.4971
 3623ntf    sn221394   5.596   6.349   5.218 -0.5674  0.0408  0.3541
 3623ntf    cn121395   5.562   6.214   5.101  0.1133 -0.1811  0.4070
 3623ntf    fn421396   5.780   6.395   5.484  0.4801 -0.0059  0.0402
 3623ntf    fn421397   5.982   6.345   5.485  0.7296 -0.0921 -0.3340
 3623ntf    fn421398   5.910   6.509   5.362 -0.5054 -0.2447 -0.6057
 3623ntf    on521399   5.989   6.273   5.189 -0.1140  0.3707 -0.2347
 3623ntf    on521400   5.835   6.146   5.326 -0.5240  0.1373 -0.1725
 3623ntf    on521401   5.534   6.462   5.155 -0.1294  0.2347  0.2653
 3623ntf    on521402   5.543   6.290   5.339 -0.0368 -0.5947  0.2861
 3623ntf    fn421403   5.595   6.239   4.975  0.0036 -0.0434  0.4054
 3623ntf    fn421404   5.627   6.105   5.141  0.4485  0.0384  0.4682
 3623ntf    fn421405   5.435   6.177   5.096  0.0913 -0.0187 -0.3613
 3624ntf    cn121406   1.258   5.364   6.644  0.0975  0.0053 -0.1854
 3624ntf    sn221407   1.318   5.519   6.719  0.1778 -0.0803 -0.0719
 3624ntf    nn321408   1.210   5.619   6.664 -0.0890 -0.3802 -0.0960
 3624ntf    sn221409   1.238   5.739   6.566 -0.3720 -0.1506  0.1041
 3624ntf    cn121410   1.174   5.674   6.409 -0.1433 -0.0069 -0.0489
 3624ntf    fn421411   1.142   5.331   6.697  0.1961  0.2284  0.1738
 3624ntf    fn421412   1.239   5.375   6.514 -0.2464 -0.0309 -0.1383
 3624ntf    fn421413   1.331   5.255   6.660 -0.2146 -0.2125 -0.2429
 3624ntf    on521414   1.295   5.500   6.860 -0.1243 -0.5158 -0.1782
 3624ntf    on521415   1.454   5.533   6.673  0.2405 -0.7857 -0.1114
 3624ntf    on521416   1.373   5.780   6.538 -0.5831  0.3971 -0.1303
 3624ntf    on521417   1.156   5.856   6.587  0.3993  0.5172 -0.5809
 3624ntf    fn421418   1.052   5.629   6.433 -0.0544 -0.2388 -0.0383
 3624ntf    fn421419   1.167   5.761   6.309  0.2700 -0.2388 -0.2823
 3624ntf    fn421420   1.246   5.571   6.369  0.1969  0.2315 -0.0497
 3625ntf    cn121421   5.940   5.574   1.539  0.1323  0.1770 -0.2661
 3625ntf    sn221422   5.764   5.611   1.566  0.2309  0.3368  0.1648
 3625ntf    nn321423   5.703   5.500   1.473  0.5582 -0.0724  0.4365
 3625ntf    sn221424   5.686   5.510   1.317  0.0826  0.4360  0.5179
 3625ntf    cn121425   5.507   5.531   1.297  0.1054  0.2283  0.0810
 3625ntf    fn421426   5.976   5.573   1.412  0.0166  0.1281 -0.2983
 3625ntf    fn421427   6.011   5.670   1.595  0.1245  0.3281 -0.5116
 3625ntf    fn421428   5.975   5.454   1.583 -0.2351  0.2122  0.1228
 3625ntf    on521429   5.742   5.576   1.704  0.5015 -0.3713  0.0270
 3625ntf    on521430   5.752   5.749   1.523 -0.7951  0.0152 -0.6271
 3625ntf    on521431   5.710   5.383   1.255  0.1339  0.5999  0.1979
 3625ntf    on521432   5.736   5.632   1.257 -0.2657 -0.0415 -0.7686
 3625ntf    fn421433   5.442   5.577   1.403  0.1767 -0.1886  0.3046
 3625ntf    fn421434   5.464   5.597   1.191  0.3919 -0.2915 -0.3609
 3625ntf    fn421435   5.459   5.411   1.273  0.4138  0.1190  0.0041
 3626ntf    cn121436   2.396   0.862   0.747 -0.0892  0.0038 -0.2359
 3626ntf    sn221437   2.524   0.834   0.873  0.1457 -0.1711 -0.5116
 3626ntf    nn321438   2.462   0.699   0.924  0.2564  0.0760  0.3063
 3626ntf    sn221439   2.401   0.681   1.067 -0.0913  0.2020  0.1765
 3626ntf    cn121440   2.388   0.499   1.073  0.0465  0.1887  0.0828
 3626ntf    fn421441   2.270   0.881   0.784 -0.1534 -0.3253 -0.2853
 3626ntf    fn421442   2.442   0.959   0.671 -0.1169 -0.0053 -0.2641
 3626ntf    fn421443   2.389   0.753   0.673  0.0026 -0.0453 -0.1734
 3626ntf    on521444   2.648   0.816   0.802  0.4153 -0.1174 -0.0578
 3626ntf    on521445   2.513   0.947   0.963 -0.0663 -0.6029  0.0141
 3626ntf    on521446   2.266   0.730   1.077 -0.0065  0.4207  0.2507
 3626ntf    on521447   2.489   0.707   1.179  0.0756 -0.2336  0.1497
 3626ntf    fn421448   2.288   0.458   0.998  0.3621 -0.7373  0.1599
 3626ntf    fn421449   2.491   0.435   1.021 -0.1780 -0.0051 -0.1217
 3626ntf    fn421450   2.361   0.452   1.194  0.6154 -0.1309  0.0895
 3627ntf    cn121451   6.973   6.636   5.173 -0.0116  0.3201  0.1844
 3627ntf    sn221452   7.061   6.707   5.031 -0.0927  0.3274  0.1383
 3627ntf    nn321453   7.189   6.742   5.115 -0.0069  0.1432  0.0869
 3627ntf    sn221454   7.287   6.863   5.090  0.1491 -0.0724 -0.3536
 3627ntf    cn121455   7.437   6.768   5.050  0.2169 -0.1271  0.0271
 3627ntf    fn421456   7.038   6.532   5.224  0.1868  0.3672  0.0325
 3627ntf    fn421457   6.946   6.724   5.268 -0.6647  0.1381  0.1731
 3627ntf    fn421458   6.865   6.570   5.135  0.1578  0.3878 -0.4204
 3627ntf    on521459   7.074   6.589   4.949  0.5113  0.3415  0.2064
 3627ntf    on521460   6.980   6.815   4.983 -0.0739  0.3861  0.2381
 3627ntf    on521461   7.319   6.935   5.210 -0.6682  0.5569 -0.5014
 3627ntf    on521462   7.267   6.939   4.969 -0.1417 -0.0600 -0.2973
 3627ntf    fn421463   7.458   6.666   5.130  0.2030 -0.2510 -0.1255
 3627ntf    fn421464   7.425   6.712   4.930  0.0468  0.2240 -0.1230
 3627ntf    fn421465   7.543   6.846   5.058  0.3861 -0.4026  0.4906
 3628ntf    cn121466   4.527   6.782   3.730  0.3185 -0.0132 -0.1610
 3628ntf    sn221467   4.390   6.722   3.628  0.1073  0.3674 -0.1041
 3628ntf    nn321468   4.421   6.570   3.651  0.0300  0.2915 -0.4879
 3628ntf    sn221469   4.317   6.453   3.655  0.1584  0.1908 -0.0858
 3628ntf    cn121470   4.421   6.313   3.604 -0.1349 -0.1446  0.2308
 3628ntf    fn421471   4.518   6.735   3.853  0.1265  0.2595 -0.0684
 3628ntf    fn421472   4.647   6.749   3.684  0.1957 -0.2725 -0.2971
 3628ntf    fn421473   4.525   6.914   3.743  0.0205 -0.0667  0.3728
 3628ntf    on521474   4.270   6.773   3.689  0.0400 -0.4526  0.4642
 3628ntf    on521475   4.415   6.773   3.495 -0.4237 -0.1341 -0.4031
 3628ntf    on521476   4.217   6.464   3.552  0.2579 -0.0934 -0.2124
 3628ntf    on521477   4.268   6.421   3.788 -0.2044 -0.0156 -0.2667
 3628ntf    fn421478   4.526   6.293   3.681  0.5353 -0.1027 -0.6650
 3628ntf    fn421479   4.354   6.198   3.602  0.0993 -0.2827  0.2840
 3628ntf    fn421480   4.471   6.322   3.482 -0.1086 -0.1007  0.2452
 3629ntf    cn121481   0.686   0.972   4.791 -0.3482 -0.3478 -0.2919
 3629ntf    sn221482   0.770   1.008   4.633  0.1524  0.0409  0.0601
 3629ntf    nn321483   0.705   0.919   4.521 -0.0598  0.5415 -0.2207
 3629ntf    sn221484   0.557   0.914   4.471  0.0278 -0.2509 -0.4205
 3629ntf    cn121485   0.573   1.018   4.323  0.1726  0.1690 -0.1131
 3629ntf    fn421486   0.749   1.021   4.896 -1.0663  0.0610 -0.0462
 3629ntf    fn421487   0.565   1.024   4.800 -0.0658  0.2890 -0.1144
 3629ntf    fn421488   0.682   0.840   4.801  0.2774 -0.3527 -0.0895
 3629ntf    on521489   0.763   1.151   4.614  0.1785  0.1345  0.7057
 3629ntf    on521490   0.904   0.963   4.657  0.1424 -0.1791 -0.2971
 3629ntf    on521491   0.457   0.978   4.553  0.3112 -0.0372 -0.2394
 3629ntf    on521492   0.526   0.787   4.411  0.4059 -0.9142  0.7591
 3629ntf    fn421493   0.673   0.975   4.248 -0.1702 -0.7268 -0.0664
 3629ntf    fn421494   0.470   1.035   4.241  0.0903 -0.2715 -0.1015
 3629ntf    fn421495   0.600   1.142   4.361  0.0852  0.2813 -0.4137
 3630ntf    cn121496   6.312   3.622   2.644  0.1796  0.0880 -0.4772
 3630ntf    sn221497   6.151   3.621   2.728  0.3536  0.0798 -0.1421
 3630ntf    nn321498   6.162   3.761   2.798 -0.2652  0.0320  0.0615
 3630ntf    sn221499   6.256   3.815   2.912 -0.0342  0.0054 -0.1137
 3630ntf    cn121500   6.140   3.824   3.052 -0.2118  0.2837 -0.2784
 3630ntf    fn421501   6.355   3.500   2.618  0.2775 -0.0310  0.2390
 3630ntf    fn421502   6.315   3.695   2.533  0.4559  0.3185 -0.3186
 3630ntf    fn421503   6.403   3.675   2.723 -0.5952  0.1797  0.3664
 3630ntf    on521504   6.058   3.614   2.618  0.2999 -0.2386 -0.0762
 3630ntf    on521505   6.155   3.511   2.820 -0.6519 -0.0610 -0.2512
 3630ntf    on521506   6.287   3.953   2.885 -0.1631 -0.0358 -0.4689
 3630ntf    on521507   6.356   3.724   2.961 -0.0914 -0.2848 -0.5410
 3630ntf    fn421508   6.059   3.719   3.058  0.0387  0.0999 -0.1214
 3630ntf    fn421509   6.202   3.847   3.166 -0.4335  0.2807 -0.1553
 3630ntf    fn421510   6.065   3.933   3.042 -0.1660  0.3417 -0.0022
 3631ntf    cn121511   5.065   4.912   6.869 -0.0416 -0.2614 -0.2699
 3631ntf    sn221512   5.000   4.754   6.933  0.3243 -0.2279  0.1847
 3631ntf    nn321513   4.980   4.789   7.084 -0.4751 -0.5121  0.1467
 3631ntf    sn221514   4.845   4.823   7.157 -0.2307  0.6778  0.0654
 3631ntf    cn121515   4.757   4.664   7.169  0.2069  0.4193 -0.1394
 3631ntf    fn421516   4.982   5.015   6.871  0.3163  0.0221  0.1878
 3631ntf    fn421517   5.178   4.943   6.929 -0.4373 -0.7089  0.7280
 3631ntf    fn421518   5.098   4.899   6.741  0.0194 -0.4408 -0.2364
 3631ntf    on521519   4.878   4.736   6.859  0.1119  0.3157  0.3965
 3631ntf    on521520   5.105   4.658   6.910  0.3792 -0.1313  0.0272
 3631ntf    on521521   4.751   4.896   7.075 -0.3603 -0.4295 -0.7929
 3631ntf    on521522   4.847   4.874   7.292  0.2297  0.4497  0.1462
 3631ntf    fn421523   4.710   4.617   7.055 -0.3638  0.0642  0.2407
 3631ntf    fn421524   4.821   4.563   7.226  0.2487  0.4633 -0.1088
 3631ntf    fn421525   4.647   4.672   7.242  0.3671 -0.2168  0.1821
 3632ntf    cn121526   1.729   0.523   5.168 -0.0595  0.2204  0.1384
 3632ntf    sn221527   1.588   0.539   5.055 -0.2598 -0.1239  0.3389
 3632ntf    nn321528   1.482   0.515   5.169  0.3348  0.4342  1.0228
 3632ntf    sn221529   1.337   0.572   5.187 -0.0497 -0.0335 -0.3769
 3632ntf    cn121530   1.227   0.435   5.141  0.0696 -0.1369 -0.3541
 3632ntf    fn421531   1.709   0.411   5.235 -0.1467  0.1047 -0.0810
 3632ntf    fn421532   1.843   0.498   5.107 -0.2861 -0.4434 -0.0200
 3632ntf    fn421533   1.749   0.625   5.250 -0.3441  0.4661 -0.0953
 3632ntf    on521534   1.589   0.673   5.002  0.2349 -0.0988  0.4093
 3632ntf    on521535   1.604   0.421   4.973 -0.5540  0.0067  0.0931
 3632ntf    on521536   1.303   0.693   5.116  0.0506  0.1230 -0.1639
 3632ntf    on521537   1.315   0.586   5.329  0.3736  0.4871 -0.3593
 3632ntf    fn421538   1.261   0.324   5.203  0.0533 -0.0242 -0.1440
 3632ntf    fn421539   1.100   0.453   5.172  0.1399 -0.3707  0.0765
 3632ntf    fn421540   1.239   0.416   5.010  0.1241  0.1050 -0.3859
 3633ntf    cn121541   3.008   1.321   3.046 -0.2451 -0.3165  0.1873
 3633ntf    sn221542   2.985   1.398   3.209  0.0321  0.0824  0.0378
 3633ntf    nn321543   2.901   1.293   3.289 -0.2169 -0.0510 -0.3967
 3633ntf    sn221544   2.745   1.275   3.289 -0.2403  0.1525 -0.2822
 3633ntf    cn121545   2.715   1.297   3.467  0.4345 -0.1021 -0.1328
 3633ntf    fn421546   3.026   1.190   3.052  0.7919 -0.1694  0.5450
 3633ntf    fn421547   2.909   1.347   2.962 -0.1432 -0.1759  0.1108
 3633ntf    fn421548   3.112   1.378   2.988 -0.0729 -0.4590  0.3513
 3633ntf    on521549   3.121   1.420   3.252 -0.0975  0.1620  0.4091
 3633ntf    on521550   2.922   1.524   3.178  0.2833  0.1022 -0.4025
 3633ntf    on521551   2.718   1.138   3.254 -0.2366  0.0834 -0.0161
 3633ntf    on521552   2.668   1.379   3.226 -0.2494  0.3448  0.0425
 3633ntf    fn421553   2.769   1.200   3.538  0.1029  0.1795  0.5218
 3633ntf    fn421554   2.752   1.412   3.522 -0.1627 -0.1878  0.4607
 3633ntf    fn421555   2.585   1.284   3.491  0.5145 -0.3854  0.1529
 3634ntf    cn121556   6.217   1.335   4.004 -0.1904 -0.2688  0.4612
 3634ntf    sn221557   6.179   1.252   4.161 -0.1572 -0.0869  0.5660
 3634ntf    nn321558   6.239   1.110   4.135 -0.3634 -0.1281  0.3138
 3634ntf    sn221559   6.171   0.977   4.085  0.2252 -0.3098 -0.0140
 3634ntf    cn121560   6.138   0.900   4.246 -0.4617 -0.0305 -0.0166
 3634ntf    fn421561   6.184   1.256   3.903 -0.0835  0.0800  0.1532
 3634ntf    fn421562   6.145   1.444   3.983 -0.0495 -0.2519  0.0683
 3634ntf    fn421563   6.346   1.362   3.991 -0.2535 -0.2821 -0.2002
 3634ntf    on521564   6.256   1.328   4.257  0.3219 -0.0619  0.1616
 3634ntf    on521565   6.035   1.252   4.175 -0.1566 -0.0133  0.5741
 3634ntf    on521566   6.268   0.897   4.015  0.0427 -0.6259  0.0932
 3634ntf    on521567   6.041   0.994   4.025 -0.1901 -0.8327  0.7362
 3634ntf    fn421568   6.246   0.882   4.320 -0.6599  0.3625  0.3671
 3634ntf    fn421569   6.053   0.969   4.319 -0.4110 -0.1895  0.1938
 3634ntf    fn421570   6.080   0.781   4.233 -0.1720 -0.1795  0.0371
 3635ntf    cn121571   6.937   5.238   2.044 -0.5586 -0.1770 -0.2551
 3635ntf    sn221572   6.775   5.160   2.011 -0.4732 -0.2265 -0.5654
 3635ntf    nn321573   6.826   5.022   1.956  0.3512  0.0153 -0.4298
 3635ntf    sn221574   6.769   4.924   1.848 -0.1075  0.1463 -0.3084
 3635ntf    cn121575   6.682   4.800   1.949 -0.1080  0.4422  0.0549
 3635ntf    fn421576   6.920   5.367   2.067  0.1219 -0.1639  0.2041
 3635ntf    fn421577   6.993   5.196   2.156 -0.2405 -0.1841 -0.4172
 3635ntf    fn421578   7.031   5.220   1.953 -0.5059 -0.1352 -0.2084
 3635ntf    on521579   6.716   5.156   2.143  0.0908  0.8271 -0.2677
 3635ntf    on521580   6.725   5.250   1.910  0.3305  0.4585 -0.3678
 3635ntf    on521581   6.876   4.849   1.787 -0.0192 -0.2494  0.3215
 3635ntf    on521582   6.668   4.973   1.758 -0.2265  0.0923 -0.2047
 3635ntf    fn421583   6.620   4.715   1.869  0.3036  0.1815  0.0112
 3635ntf    fn421584   6.763   4.737   2.033  0.3100  0.3595 -0.4119
 3635ntf    fn421585   6.588   4.861   2.020  0.0388  0.4228  0.2690
 3636ntf    cn121586   4.776   3.589   3.522  0.4122  0.1685  0.1579
 3636ntf    sn221587   4.800   3.414   3.565  0.1173  0.0838 -0.0211
 3636ntf    nn321588   4.932   3.392   3.482  0.1120 -0.0067 -0.0059
 3636ntf    sn221589   4.951   3.346   3.334  0.0026 -0.0559 -0.0048
 3636ntf    cn121590   5.099   3.440   3.287  0.0765 -0.1775 -0.0126
 3636ntf    fn421591   4.690   3.647   3.604  0.4085  0.3994 -0.0076
 3636ntf    fn421592   4.889   3.654   3.545  0.3770  0.2015  0.2364
 3636ntf    fn421593   4.738   3.609   3.397  0.0308 -0.3640  0.1878
 3636ntf    on521594   4.823   3.435   3.706  0.0649 -0.1121  0.0164
 3636ntf    on521595   4.680   3.349   3.518 -0.3015  0.5686  0.3684
 3636ntf    on521596   4.849   3.384   3.239  0.0208  0.3963  0.1583
 3636ntf    on521597   4.986   3.207   3.322  0.8084  0.1750 -0.3856
 3636ntf    fn421598   5.194   3.395   3.367 -0.1871 -0.1261  0.3303
 3636ntf    fn421599   5.133   3.423   3.160  0.3900 -0.2353  0.0777
 3636ntf    fn421600   5.087   3.569   3.312 -0.4217 -0.1928 -0.1738
 3637ntf    cn121601   2.446   1.235   6.872 -0.3419 -0.0962  0.0872
 3637ntf    sn221602   2.525   1.341   6.996 -0.1509 -0.0157 -0.1035
 3637ntf    nn321603   2.657   1.376   6.917  0.1093 -0.2871  0.2082
 3637ntf    sn221604   2.723   1.517   6.896 -0.1419 -0.2482 -0.3360
 3637ntf    cn121605   2.853   1.498   7.022 -0.2625  0.0959 -0.1601
 3637ntf    fn421606   2.321   1.195   6.891 -0.4773  0.3506  0.1582
 3637ntf    fn421607   2.431   1.306   6.762 -0.2452 -0.1205  0.0582
 3637ntf    fn421608   2.516   1.132   6.827  0.0849  0.1430  0.1992
 3637ntf    on521609   2.434   1.450   7.021 -0.2038 -0.0959  0.0524
 3637ntf    on521610   2.556   1.247   7.100 -0.0479 -0.1296 -0.2381
 3637ntf    on521611   2.656   1.637   6.940  0.2231 -0.3129  0.4183
 3637ntf    on521612   2.795   1.523   6.771 -0.0046  0.3034 -0.2305
 3637ntf    fn421613   2.803   1.475   7.142  0.0979 -0.5080 -0.1230
 3637ntf    fn421614   2.944   1.406   6.995 -0.2419  0.1128 -0.1488
 3637ntf    fn421615   2.927   1.607   7.037 -0.0545 -0.0672  0.0014
 3638ntf    cn121616   4.872   4.524   3.292  0.3962  0.0665  0.0445
 3638ntf    sn221617   5.029   4.546   3.382  0.1380  0.1265  0.4810
 3638ntf    nn321618   5.072   4.395   3.394 -0.4829 -0.1089 -0.1601
 3638ntf    sn221619   5.038   4.297   3.512 -0.0321 -0.1076 -0.0280
 3638ntf    cn121620   5.184   4.326   3.617 -0.3558  0.0556  0.3811
 3638ntf    fn421621   4.820   4.405   3.314  0.5143  0.0915  0.4664
 3638ntf    fn421622   4.783   4.613   3.334  0.3071  0.0989 -0.2110
 3638ntf    fn421623   4.881   4.535   3.161 -0.4135 -0.0086 -0.0233
 3638ntf    on521624   5.118   4.613   3.292 -0.2109 -0.0636 -0.0092
 3638ntf    on521625   4.986   4.613   3.503 -0.6070  0.0406  0.2710
 3638ntf    on521626   5.058   4.159   3.476  0.4100  0.0897 -0.5570
 3638ntf    on521627   4.923   4.329   3.592  0.3284 -0.4492  0.6335
 3638ntf    fn421628   5.297   4.295   3.555 -0.1487  0.5974  0.4859
 3638ntf    fn421629   5.195   4.450   3.661  0.1021  0.0765  0.2101
 3638ntf    fn421630   5.195   4.254   3.727  0.1460 -0.1487  0.1988
 3639ntf    cn121631   3.232   0.097   0.565 -0.0939 -0.3253 -0.0980
 3639ntf    sn221632   3.351   0.069   0.700 -0.1316  0.0786  0.0188
 3639ntf    nn321633   3.253   0.064   0.823 -0.3534 -0.0966 -0.1637
 3639ntf    sn221634   3.173   0.180   0.892 -0.0879 -0.0117  0.0049
 3639ntf    cn121635   3.002   0.119   0.878 -0.2027  0.2971  0.0334
 3639ntf    fn421636   3.262   0.195   0.482 -0.1445 -0.2204  0.0070
 3639ntf    fn421637   3.206  -0.003   0.482 -0.0390 -0.3773 -0.0529
 3639ntf    fn421638   3.119   0.140   0.620  0.1846  0.1976  0.0673
 3639ntf    on521639   3.401  -0.064   0.674 -0.0121  0.1480 -0.1080
 3639ntf    on521640   3.447   0.177   0.706 -0.7219  0.6344 -0.4083
 3639ntf    on521641   3.169   0.306   0.821 -0.4457 -0.0165  0.0133
 3639ntf    on521642   3.184   0.189   1.035  0.5755 -0.3708 -0.0200
 3639ntf    fn421643   2.938   0.125   0.762 -0.1594 -0.1790 -0.0173
 3639ntf    fn421644   2.993  -0.007   0.917 -0.1508  0.2736 -0.0287
 3639ntf    fn421645   2.931   0.198   0.956 -0.2174  0.5021 -0.1871
 3640ntf    cn121646   5.036   6.810   1.591 -0.5029  0.0286  0.4483
 3640ntf    sn221647   5.186   6.707   1.585 -0.4409  0.1552 -0.2188
 3640ntf    nn321648   5.293   6.822   1.587 -0.0405 -0.2238  0.3393
 3640ntf    sn221649   5.397   6.875   1.482 -0.4258 -0.0054  0.0694
 3640ntf    cn121650   5.325   7.038   1.445 -0.1835  0.1903  0.4576
 3640ntf    fn421651   5.025   6.897   1.492  0.1200 -0.4138 -0.0156
 3640ntf    fn421652   4.925   6.739   1.592 -0.0919 -0.6591 -0.4538
 3640ntf    fn421653   5.033   6.881   1.702 -0.0473 -0.2187  0.6217
 3640ntf    on521654   5.170   6.642   1.712 -0.9627  0.4440 -0.1339
 3640ntf    on521655   5.181   6.624   1.467 -0.7180 -0.1562  0.0111
 3640ntf    on521656   5.398   6.804   1.356  0.1003  0.3843 -0.1489
 3640ntf    on521657   5.525   6.920   1.530 -0.0408 -0.7465 -0.2572
 3640ntf    fn421658   5.229   7.029   1.354  0.1189  0.3775  0.1191
 3640ntf    fn421659   5.279   7.103   1.551 -0.2531 -0.2058  0.6723
 3640ntf    fn421660   5.412   7.112   1.378 -0.4119  0.0237 -0.0304
 3641ntf    cn121661   3.264   3.704   3.970  0.9135  0.0172  0.3228
 3641ntf    sn221662   3.205   3.550   4.047  0.2376  0.0732 -0.0705
 3641ntf    nn321663   3.068   3.604   4.099 -0.0064 -0.3866 -0.2286
 3641ntf    sn221664   2.950   3.680   4.029 -0.0182 -0.2875 -0.1024
 3641ntf    cn121665   2.814   3.571   4.081 -0.1962  0.1118  0.2725
 3641ntf    fn421666   3.396   3.706   3.958  0.8716  0.2909 -0.1345
 3641ntf    fn421667   3.225   3.727   3.846  0.5549  0.0819  0.4469
 3641ntf    fn421668   3.241   3.815   4.037  0.0376 -0.0474  0.1442
 3641ntf    on521669   3.208   3.455   3.938 -0.2565  0.1875 -0.1844
 3641ntf    on521670   3.299   3.524   4.154 -0.2060 -1.1100  0.0456
 3641ntf    on521671   2.963   3.670   3.885  0.6204 -0.5139 -0.0309
 3641ntf    on521672   2.922   3.808   4.088 -0.3206 -0.3903 -0.0189
 3641ntf    fn421673   2.819   3.445   4.041 -0.4431  0.2540 -0.2155
 3641ntf    fn421674   2.807   3.560   4.213  0.4115 -0.2244  0.2792
 3641ntf    fn421675   2.692   3.610   4.045 -0.0303  0.0870 -0.3251
 3642ntf    cn121676   6.946   0.549   4.214 -0.2424 -0.4218 -0.3793
 3642ntf    sn221677   6.828   0.430   4.143 -0.2069 -0.8335  0.2425
 3642ntf    nn321678   6.856   0.303   4.230  0.3516 -0.2041  0.9993
 3642ntf    sn221679   6.972   0.202   4.198  0.0960 -0.2141  0.0899
 3642ntf    cn121680   6.895   0.081   4.086  0.1508  0.0701 -0.2550
 3642ntf    fn421681   7.070   0.505   4.222 -0.0901  0.0690  0.0200
 3642ntf    fn421682   6.954   0.661   4.144 -0.4410 -0.4382 -0.4286
 3642ntf    fn421683   6.904   0.577   4.337 -0.3467 -0.3064 -0.4410
 3642ntf    on521684   6.702   0.495   4.175  0.0190 -0.5688  0.6131
 3642ntf    on521685   6.857   0.432   4.002 -0.1562 -0.2469  0.2565
 3642ntf    on521686   6.997   0.126   4.318  0.3105  0.1415  0.2716
 3642ntf    on521687   7.089   0.251   4.128  0.1899  0.0315  0.4148
 3642ntf    fn421688   6.811  -0.001   4.146  0.2847  0.3266  0.2824
 3642ntf    fn421689   6.819   0.132   3.990  0.0434  0.1634 -0.1199
 3642ntf    fn421690   6.987  -0.002   4.039 -0.1826 -0.2299 -0.3814
 3643ntf    cn121691   3.920   1.208   1.783 -0.0640  0.0555 -0.4254
 3643ntf    sn221692   3.781   1.091   1.789 -0.0456  0.0745  0.4321
 3643ntf    nn321693   3.860   0.958   1.821  0.3001  0.0769 -0.4050
 3643ntf    sn221694   3.848   0.811   1.769  0.1577  0.1469 -0.5740
 3643ntf    cn121695   3.961   0.826   1.627 -0.0899 -0.0883 -0.7989
 3643ntf    fn421696   4.001   1.213   1.888 -0.0094 -0.3460 -0.4470
 3643ntf    fn421697   4.006   1.183   1.686  0.4650  0.4735 -0.0672
 3643ntf    fn421698   3.868   1.328   1.767  0.5845  0.3813 -0.1416
 3643ntf    on521699   3.707   1.144   1.901  0.0727 -0.0075  0.5498
 3643ntf    on521700   3.727   1.112   1.658  0.3602 -0.3710  0.1880
 3643ntf    on521701   3.719   0.775   1.716  0.0373 -0.0045 -0.1824
 3643ntf    on521702   3.909   0.723   1.866 -0.3680  0.2763 -0.1222
 3643ntf    fn421703   3.963   0.717   1.553 -0.2502 -0.9307  0.4069
 3643ntf    fn421704   3.937   0.928   1.546  0.0530  0.2939 -0.3656
 3643ntf    fn421705   4.086   0.852   1.664 -0.2741  0.2423 -0.4019
 3644ntf    cn121706   4.073   3.264   2.542 -0.0385 -0.3083 -0.1535
 3644ntf    sn221707   4.130   3.367   2.403  0.0886  0.0159  0.1374
 3644ntf    nn321708   4.180   3.252   2.308  0.2272  0.0673  0.1476
 3644ntf    sn221709   4.308   3.227   2.221  0.0152 -0.2925 -0.0646
 3644ntf    cn121710   4.259   3.286   2.056 -0.4718 -0.0093  0.1791
 3644ntf    fn421711   3.973   3.181   2.519 -0.3501 -0.0802  0.3656
 3644ntf    fn421712   4.179   3.197   2.584  0.3002  0.1385 -0.2877
 3644ntf    fn421713   4.024   3.336   2.641  0.0105 -0.1900 -0.2144
 3644ntf    on521714   4.004   3.425   2.366 -0.0009 -0.1472  0.1862
 3644ntf    on521715   4.237   3.451   2.453  0.3302 -0.3008  0.1566
 3644ntf    on521716   4.325   3.087   2.193 -0.3295 -0.4078  0.2930
 3644ntf    on521717   4.430   3.298   2.251 -0.2683  0.1919 -0.0437
 3644ntf    fn421718   4.261   3.418   2.043 -0.0941  0.0004  0.3297
 3644ntf    fn421719   4.332   3.230   1.961  0.0869 -0.0097  0.6011
 3644ntf    fn421720   4.138   3.240   2.028 -0.2467 -0.1833 -0.5335
 3645ntf    cn121721   1.111   3.688   3.089 -0.5891 -0.2803  0.7091
 3645ntf    sn221722   1.123   3.607   2.926 -0.1811  0.2287  0.4813
 3645ntf    nn321723   0.995   3.515   2.921 -0.3684  0.4835  0.5715
 3645ntf    sn221724   0.958   3.400   3.021  0.0645 -0.0874  0.0810
 3645ntf    cn121725   0.821   3.471   3.117 -0.0704 -0.0057 -0.1712
 3645ntf    fn421726   1.103   3.604   3.191  0.0150 -0.3546  0.6970
 3645ntf    fn421727   1.217   3.764   3.112 -0.6235 -0.0251  0.0473
 3645ntf    fn421728   1.006   3.766   3.105  0.1146  0.7734  0.2931
 3645ntf    on521729   1.109   3.719   2.837  0.6008 -0.0963 -0.0571
 3645ntf    on521730   1.245   3.530   2.924 -0.7219 -0.6383 -0.1314
 3645ntf    on521731   1.060   3.375   3.120 -0.3043 -1.3013  0.1644
 3645ntf    on521732   0.891   3.289   2.958  0.2164 -0.2479  0.2005
 3645ntf    fn421733   0.777   3.387   3.208  0.3427  0.1881  0.2137
 3645ntf    fn421734   0.856   3.582   3.181 -0.1088  0.2002 -0.5039
 3645ntf    fn421735   0.721   3.514   3.042 -0.0215 -0.4114 -0.4735
 3646ntf    cn121736   3.631   4.353   0.909 -0.0646  0.1521  0.1779
 3646ntf    sn221737   3.658   4.515   0.986 -0.1932  0.3145 -0.1172
 3646ntf    nn321738   3.793   4.541   0.910 -0.1383 -0.7827 -0.4114
 3646ntf    sn221739   3.824   4.651   0.802  0.0808 -0.2837  0.1496
 3646ntf    cn121740   3.917   4.765   0.909  0.0979 -0.1907  0.0349
 3646ntf    fn421741   3.615   4.351   0.777  0.2998  0.5998  0.1246
 3646ntf    fn421742   3.727   4.268   0.941 -0.0367 -0.0149 -0.3402
 3646ntf    fn421743   3.517   4.300   0.952 -0.3262  0.3752 -0.2298
 3646ntf    on521744   3.539   4.589   0.952 -0.0726  0.3759 -0.4121
 3646ntf    on521745   3.683   4.476   1.122  0.2386  0.6117 -0.1087
 3646ntf    on521746   3.713   4.730   0.756 -0.0923 -0.2494  0.6193
 3646ntf    on521747   3.924   4.599   0.711 -0.1221  0.0052 -0.2410
 3646ntf    fn421748   4.041   4.723   0.925  0.0245 -0.5430 -0.2929
 3646ntf    fn421749   3.918   4.889   0.862 -0.1118 -0.1693  0.0836
 3646ntf    fn421750   3.859   4.774   1.028 -0.0413 -0.5904 -0.0007
 3647ntf    cn121751   3.191   6.614   3.258 -0.0262 -0.2036 -0.0461
 3647ntf    sn221752   3.048   6.568   3.156  0.0752 -0.1996 -0.1898
 3647ntf    nn321753   3.097   6.439   3.082  0.4129  0.0126 -0.3366
 3647ntf    sn221754   3.011   6.312   3.048  0.5483 -0.2640  0.3375
 3647ntf    cn121755   3.056   6.216   3.196  0.2385 -0.0787  0.5534
 3647ntf    fn421756   3.239   6.513   3.329 -0.1202 -0.2464 -0.0436
 3647ntf    fn421757   3.281   6.667   3.177 -0.3097  0.6343  0.1813
 3647ntf    fn421758   3.170   6.713   3.343  0.1299  0.2071 -0.4838
 3647ntf    on521759   2.952   6.545   3.262 -0.2853  0.7689 -0.2947
 3647ntf    on521760   3.032   6.680   3.066 -0.0838  0.0582  0.1581
 3647ntf    on521761   3.056   6.235   2.935  0.0746  0.2863 -0.2269
 3647ntf    on521762   2.869   6.334   3.060  0.5679  0.2055 -0.2387
 3647ntf    fn421763   3.003   6.096   3.175  0.2012  0.0656 -0.2253
 3647ntf    fn421764   3.185   6.198   3.218  0.3589 -0.3221 -0.3043
 3647ntf    fn421765   3.015   6.277   3.306  0.2491  0.5958  0.1883
 3648ntf    cn121766   1.766   3.661   6.235 -0.0040  0.3049 -0.0706
 3648ntf    sn221767   1.853   3.530   6.145  0.0003 -0.0057  0.3840
 3648ntf    nn321768   1.772   3.548   6.012  0.7586  0.2746 -0.0438
 3648ntf    sn221769   1.795   3.638   5.886  0.3324  0.3000 -0.1051
 3648ntf    cn121770   1.869   3.509   5.782  0.2717  0.1594  0.0271
 3648ntf    fn421771   1.635   3.658   6.219  0.0434  0.0916 -0.4314
 3648ntf    fn421772   1.792   3.654   6.365 -0.2552  0.5207 -0.0077
 3648ntf    fn421773   1.807   3.784   6.209  0.0336  0.1368 -0.8247
 3648ntf    on521774   1.990   3.574   6.148  0.0698 -0.2298  0.4938
 3648ntf    on521775   1.815   3.401   6.199 -0.0873 -0.2151 -0.1726
 3648ntf    on521776   1.896   3.740   5.901  0.4818  0.1385 -0.0092
 3648ntf    on521777   1.676   3.690   5.823  0.1223 -0.0697 -0.0119
 3648ntf    fn421778   1.770   3.430   5.742  0.0872  0.7705 -0.7297
 3648ntf    fn421779   1.919   3.550   5.667 -0.4649 -0.2614 -0.4547
 3648ntf    fn421780   1.961   3.427   5.831  0.3787 -0.1901 -0.7338
 3649ntf    cn121781   4.162   4.526   2.558 -0.4479 -0.3045 -0.1967
 3649ntf    sn221782   4.254   4.432   2.683 -0.0586  0.0523 -0.2128
 3649ntf    nn321783   4.187   4.293   2.656 -0.2450  0.0584  0.1936
 3649ntf    sn221784   4.178   4.160   2.739  0.3306 -0.1795 -0.1161
 3649ntf    cn121785   4.041   4.203   2.850  0.2688  0.3295 -0.3887
 3649ntf    fn421786   4.217   4.646   2.545 -0.1844 -0.3386  0.6028
 3649ntf    fn421787   4.169   4.465   2.441  0.0337 -0.0752 -0.2903
 3649ntf    fn421788   4.033   4.547   2.578 -0.3242 -0.2271  0.5494
 3649ntf    on521789   4.395   4.435   2.657  0.0028 -0.7064  0.0134
 3649ntf    on521790   4.207   4.493   2.806 -0.1023  0.1038 -0.2547
 3649ntf    on521791   4.294   4.136   2.821  0.6918  0.3071 -0.4851
 3649ntf    on521792   4.117   4.055   2.661 -0.3688 -0.4577  0.7916
 3649ntf    fn421793   4.078   4.288   2.944  0.2473  0.0973 -0.1710
 3649ntf    fn421794   3.928   4.237   2.789 -0.0953  0.2424  0.2274
 3649ntf    fn421795   4.008   4.098   2.923 -0.6175  0.4562 -0.5895
 3650ntf    cn121796   4.460   4.126   6.945  0.0415 -0.0324 -0.3304
 3650ntf    sn221797   4.373   4.169   6.791 -0.1469 -0.1763 -0.2641
 3650ntf    nn321798   4.395   4.321   6.757 -0.0853 -0.1601 -0.1541
 3650ntf    sn221799   4.312   4.447   6.801  0.1153 -0.0696 -0.0358
 3650ntf    cn121800   4.187   4.461   6.670  0.1239 -0.0190 -0.0378
 3650ntf    fn421801   4.407   4.020   7.003  0.0054  0.0113 -0.2840
 3650ntf    fn421802   4.590   4.116   6.920 -0.0207 -0.5231 -0.4529
 3650ntf    fn421803   4.448   4.231   7.025  0.3956  0.1669 -0.5341
 3650ntf    on521804   4.446   4.096   6.690  0.1277 -0.6254  0.2518
 3650ntf    on521805   4.234   4.133   6.803 -0.1927  0.1249  0.0995
 3650ntf    on521806   4.395   4.564   6.790 -0.3986  0.3201  0.2297
 3650ntf    on521807   4.238   4.428   6.923  0.2149  0.2222  0.0698
 3650ntf    fn421808   4.237   4.426   6.553 -0.2322 -0.1192 -0.1623
 3650ntf    fn421809   4.088   4.375   6.689  0.1209 -0.1286 -0.5348
 3650ntf    fn421810   4.135   4.581   6.651 -0.3037 -0.2294 -0.2127
 3651ntf    cn121811   7.032   2.957   6.320 -0.0026 -0.2621  0.0373
 3651ntf    sn221812   6.997   3.002   6.148 -0.0638  0.2084  0.1719
 3651ntf    nn321813   6.862   2.933   6.106 -0.0520  0.1572  0.2189
 3651ntf    sn221814   6.838   2.804   6.020 -0.0008  0.3772 -0.1265
 3651ntf    cn121815   6.663   2.773   6.059  0.0666  0.1883  0.0295
 3651ntf    fn421816   7.142   3.016   6.364  0.0148 -0.2994  0.0439
 3651ntf    fn421817   6.941   2.984   6.413  0.5657 -0.4803  0.6694
 3651ntf    fn421818   7.056   2.830   6.349 -0.2301 -0.3118  0.0103
 3651ntf    on521819   6.978   3.144   6.166 -0.0663  0.2881 -0.4360
 3651ntf    on521820   7.113   2.959   6.074 -0.2607 -0.1244  0.0540
 3651ntf    on521821   6.899   2.681   6.064  0.0703  0.0604 -1.0782
 3651ntf    on521822   6.838   2.825   5.877  0.4214  0.0381 -0.1780
 3651ntf    fn421823   6.591   2.880   6.030 -0.1769  0.0431  0.0998
 3651ntf    fn421824   6.610   2.677   5.985 -0.2762  0.5035 -0.1403
 3651ntf    fn421825   6.634   2.758   6.187 -0.2590 -0.5619 -0.1264
 3652ntf    cn121826   1.393   4.194   6.671  0.3505  0.0348 -0.0032
 3652ntf    sn221827   1.244   4.235   6.576  0.2325 -0.2027  0.0769
 3652ntf    nn321828   1.125   4.150   6.634  0.1506 -0.1479 -0.0105
 3652ntf    sn221829   1.046   4.036   6.561  0.1207 -0.0440 -0.1404
 3652ntf    cn121830   0.918   4.123   6.465  0.1586  0.2684  0.0915
 3652ntf    fn421831   1.504   4.250   6.628  0.1139  0.3416 -0.2183
 3652ntf    fn421832   1.382   4.222   6.800  0.1714 -0.0631  0.0038
 3652ntf    fn421833   1.410   4.063   6.667  0.3377  0.0084  0.6487
 3652ntf    on521834   1.239   4.376   6.605 -0.8547 -0.0509 -0.7440
 3652ntf    on521835   1.286   4.205   6.441 -0.0498 -0.2529 -0.0019
 3652ntf    on521836   0.979   3.960   6.663  0.3307 -0.1653 -0.0917
 3652ntf    on521837   1.117   3.963   6.459 -0.6991  0.0690 -0.8068
 3652ntf    fn421838   0.865   4.050   6.368  0.3021 -0.0760  0.2676
 3652ntf    fn421839   0.814   4.172   6.529 -0.0161 -0.5799  0.4650
 3652ntf    fn421840   0.976   4.227   6.407  0.4323 -0.3396 -0.7587
 3653ntf    cn121841   4.830   6.467   6.001 -0.0658  0.3262  0.1839
 3653ntf    sn221842   4.868   6.517   6.171  0.1475  0.1534  0.1879
 3653ntf    nn321843   4.741   6.454   6.239 -0.1343 -0.0374 -0.5052
 3653ntf    sn221844   4.628   6.533   6.314  0.1758 -0.0205 -0.0469
 3653ntf    cn121845   4.719   6.610   6.451 -0.0489  0.2938 -0.0751
 3653ntf    fn421846   4.708   6.502   5.964  0.0210  0.3357 -0.0999
 3653ntf    fn421847   4.916   6.509   5.910 -0.2625  0.0304 -0.1453
 3653ntf    fn421848   4.839   6.337   5.975  0.0813  0.3393  0.1684
 3653ntf    on521849   4.987   6.439   6.195  0.4838  0.3276 -0.8925
 3653ntf    on521850   4.866   6.661   6.166 -0.5314  0.1513  0.2876
 3653ntf    on521851   4.523   6.445   6.361 -0.1410  0.2518 -0.2399
 3653ntf    on521852   4.578   6.648   6.244  0.4334  0.0297 -0.1491
 3653ntf    fn421853   4.826   6.681   6.422 -0.0148  0.4008  0.3082
 3653ntf    fn421854   4.641   6.698   6.511  0.3580  0.2653  0.5028
 3653ntf    fn421855   4.751   6.525   6.547  0.2137  0.0697 -0.3611
 3654ntf    cn121856   4.828   2.872   6.875 -0.0635 -0.0710 -0.1141
 3654ntf    sn221857   4.974   2.962   6.935 -0.2973  0.1537  0.1219
 3654ntf    nn321858   4.984   2.923   7.087 -0.1211  0.5724  0.2174
 3654ntf    sn221859   5.039   2.793   7.154 -0.2049  0.4106 -0.0273
 3654ntf    cn121860   5.214   2.836   7.173 -0.2882  0.5818  0.3619
 3654ntf    fn421861   4.729   2.868   6.962  0.1451 -0.3964  0.1099
 3654ntf    fn421862   4.785   2.942   6.771  0.3215 -0.2757 -0.4145
 3654ntf    fn421863   4.851   2.747   6.839 -0.0513 -0.0952 -0.0220
 3654ntf    on521864   5.081   2.916   6.849 -0.4567  0.3910 -0.2026
 3654ntf    on521865   4.938   3.101   6.927  0.1277  0.2637  0.0692
 3654ntf    on521866   5.037   2.674   7.073  0.5802  0.1875  0.2734
 3654ntf    on521867   5.003   2.778   7.293  1.0927  0.6666  0.3465
 3654ntf    fn421868   5.242   2.937   7.254  0.2649  0.0848  0.7921
 3654ntf    fn421869   5.283   2.729   7.209 -0.3683  0.1991 -0.5895
 3654ntf    fn421870   5.272   2.880   7.062 -0.2964 -0.4804 -0.0721
 3655ntf    cn121871   5.808   0.919   5.005 -0.4329 -0.1076 -0.0026
 3655ntf    sn221872   5.817   0.757   4.923  0.2446 -0.0756  0.0092
 3655ntf    nn321873   5.953   0.772   4.845  0.0394  0.2367 -0.2925
 3655ntf    sn221874   6.053   0.659   4.802  0.2122  0.2337  0.1135
 3655ntf    cn121875   5.984   0.618   4.639 -0.1846  0.0167  0.3359
 3655ntf    fn421876   5.905   0.937   5.092  0.0004 -0.2187 -0.4598
 3655ntf    fn421877   5.807   1.021   4.920  0.0757 -0.4352 -0.4037
 3655ntf    fn421878   5.695   0.938   5.071 -0.1644  0.5180  0.2831
 3655ntf    on521879   5.827   0.668   5.036  0.3478  0.1149  0.1514
 3655ntf    on521880   5.695   0.754   4.848 -0.0772  0.4620  0.5031
 3655ntf    on521881   6.042   0.534   4.874  0.1021  0.2762  0.1707
 3655ntf    on521882   6.182   0.715   4.771  0.4086 -0.3891 -0.2277
 3655ntf    fn421883   5.853   0.597   4.639 -0.1993  0.1090  0.1038
 3655ntf    fn421884   6.009   0.713   4.551  0.1522 -0.1515  0.2460
 3655ntf    fn421885   6.039   0.509   4.588 -0.2585  0.1494 -0.0297
 3656ntf    cn121886   5.444   1.232   0.816 -0.3989 -0.1044  0.2838
 3656ntf    sn221887   5.419   1.052   0.820 -0.1460 -0.1448  0.0395
 3656ntf    nn321888   5.403   1.030   0.974  0.2731  0.7204  0.2116
 3656ntf    sn221889   5.507   0.984   1.083  0.1707 -0.2440 -0.0856
 3656ntf    cn121890   5.482   1.112   1.210  0.1350 -0.1076 -0.2296
 3656ntf    fn421891   5.464   1.269   0.691 -0.6163 -0.4147  0.1549
 3656ntf    fn421892   5.332   1.286   0.860 -0.6390 -0.0587 -0.3769
 3656ntf    fn421893   5.537   1.279   0.897  0.1484 -0.5781 -0.0572
 3656ntf    on521894   5.298   1.045   0.743  0.2223 -0.1027 -0.5544
 3656ntf    on521895   5.532   0.984   0.759 -0.3078  0.1636 -0.6170
 3656ntf    on521896   5.643   1.008   1.042  0.3004 -0.5850  0.1437
 3656ntf    on521897   5.474   0.856   1.139  0.6637 -0.6079 -0.6242
 3656ntf    fn421898   5.365   1.106   1.272 -0.1169 -0.5795 -0.7430
 3656ntf    fn421899   5.582   1.117   1.295 -0.1067  0.8302  0.0136
 3656ntf    fn421900   5.477   1.239   1.174  0.3314 -0.0779 -0.1516
 3657ntf    cn121901   1.214   0.861   3.702  0.1134 -0.0463  0.0639
 3657ntf    sn221902   1.346   0.797   3.809  0.3454  0.2695 -0.0296
 3657ntf    nn321903   1.258   0.750   3.931  0.2059  0.0563 -0.2105
 3657ntf    sn221904   1.257   0.613   4.006  0.0293  0.2235  0.0946
 3657ntf    cn121905   1.209   0.657   4.176 -0.1085  0.2437  0.0508
 3657ntf    fn421906   1.125   0.767   3.677  0.0984  0.0450 -0.2279
 3657ntf    fn421907   1.154   0.967   3.754  0.1780 -0.1700  0.3926
 3657ntf    fn421908   1.270   0.899   3.589  0.5217  0.0730  0.3012
 3657ntf    on521909   1.417   0.694   3.737  0.1056 -0.2574  0.4733
 3657ntf    on521910   1.426   0.914   3.835 -0.3790  0.7256  0.1490
 3657ntf    on521911   1.379   0.537   4.023  0.1852  0.4085 -0.1846
 3657ntf    on521912   1.137   0.543   3.968  0.3502  0.0545 -0.6160
 3657ntf    fn421913   1.203   0.558   4.263 -0.4435  0.4122  0.2191
 3657ntf    fn421914   1.297   0.736   4.235 -0.2734  0.4705 -0.0067
 3657ntf    fn421915   1.093   0.720   4.182 -0.1613  0.1250  0.2618
 3658ntf    cn121916   4.711   4.306   0.856 -0.0495 -0.2487  0.0721
 3658ntf    sn221917   4.733   4.220   0.698 -0.1365  0.0552 -0.1062
 3658ntf    nn321918   4.772   4.340   0.604  0.1375 -0.0298 -0.1039
 3658ntf    sn221919   4.874   4.336   0.485  0.3252 -0.2593  0.0630
 3658ntf    cn121920   4.810   4.200   0.381 -0.2211  0.1407 -0.1316
 3658ntf    fn421921   4.638   4.416   0.850  0.4037  0.0806  0.5028
 3658ntf    fn421922   4.646   4.224   0.937  0.0441 -0.2153  0.1818
 3658ntf    fn421923   4.824   4.352   0.907  0.0470 -0.2445 -0.1461
 3658ntf    on521924   4.842   4.129   0.724  0.1224  0.4437  0.1813
 3658ntf    on521925   4.602   4.171   0.666 -0.0121 -0.3796  0.0425
 3658ntf    on521926   5.007   4.291   0.516  0.3869 -0.0099  0.1539
 3658ntf    on521927   4.871   4.454   0.403  0.2709 -0.2972  0.0094
 3658ntf    fn421928   4.872   4.185   0.265  0.1074 -0.5558  0.1261
 3658ntf    fn421929   4.805   4.085   0.447 -0.3425  0.0599 -0.2836
 3658ntf    fn421930   4.686   4.227   0.344 -0.0729  0.2439 -0.5495
 3659ntf    cn121931   4.689   5.762   3.850  0.2584  0.0494 -0.1363
 3659ntf    sn221932   4.639   5.724   4.021 -0.2991 -0.0070 -0.3102
 3659ntf    nn321933   4.490   5.677   4.001 -0.4773  0.3832  0.0622
 3659ntf    sn221934   4.378   5.635   4.102 -0.3197  0.0111  0.0842
 3659ntf    cn121935   4.254   5.568   3.987 -0.0104 -0.3199 -0.0585
 3659ntf    fn421936   4.601   5.845   3.796  0.1233 -0.0505 -0.0711
 3659ntf    fn421937   4.798   5.835   3.834 -0.1194  0.6030 -0.2125
 3659ntf    fn421938   4.692   5.656   3.771 -0.3040 -0.2011  0.1709
 3659ntf    on521939   4.732   5.622   4.060 -0.2157  0.1390 -0.1236
 3659ntf    on521940   4.648   5.856   4.080  0.5093  0.1810 -0.8347
 3659ntf    on521941   4.311   5.745   4.167  0.5740  0.3547  0.4363
 3659ntf    on521942   4.411   5.517   4.179  0.6703  0.0850 -0.2124
 3659ntf    fn421943   4.311   5.517   3.879  0.6622  0.0576  0.1060
 3659ntf    fn421944   4.180   5.470   4.036 -0.3044 -0.1999 -0.2637
 3659ntf    fn421945   4.171   5.663   3.946  0.7437  0.2069 -0.3833
 3660ntf    cn121946   3.347   5.721   1.651  0.2149  0.1801 -0.1937
 3660ntf    sn221947   3.259   5.696   1.807  0.0002  0.2684 -0.2993
 3660ntf    nn321948   3.353   5.776   1.905  0.0713  0.4334 -0.5028
 3660ntf    sn221949   3.330   5.916   1.972 -0.3579  0.0331  0.1996
 3660ntf    cn121950   3.207   5.869   2.097 -0.2611 -0.3342  0.1590
 3660ntf    fn421951   3.270   5.673   1.555  0.7252 -0.0724 -0.4828
 3660ntf    fn421952   3.361   5.850   1.622  0.3965  0.1571 -0.2069
 3660ntf    fn421953   3.468   5.668   1.638  0.0855 -0.1539 -0.0256
 3660ntf    on521954   3.126   5.748   1.790  0.0019  0.6134  0.6646
 3660ntf    on521955   3.275   5.554   1.829  0.4045  0.4643  0.7463
 3660ntf    on521956   3.256   6.009   1.891 -0.4018 -0.3769 -0.2339
 3660ntf    on521957   3.442   5.966   2.047 -0.2644 -0.2838  0.2756
 3660ntf    fn421958   3.145   5.969   2.157  0.2004 -0.1270  0.2870
 3660ntf    fn421959   3.111   5.787   2.055 -0.5853  0.1783 -0.1124
 3660ntf    fn421960   3.269   5.794   2.187 -0.0033 -0.2560  0.0465
 3661ntf    cn121961   2.384   5.350   1.108  0.1837 -0.3706  0.3887
 3661ntf    sn221962   2.508   5.227   1.056  0.2313 -0.1063 -0.1277
 3661ntf    nn321963   2.638   5.315   1.060  0.5871 -0.6053 -0.6527
 3661ntf    sn221964   2.751   5.309   1.169  0.1232 -0.2609 -0.1451
 3661ntf    cn121965   2.834   5.156   1.117  0.0376 -0.2075 -0.4427
 3661ntf    fn421966   2.263   5.301   1.125 -0.3548  0.9342  0.4255
 3661ntf    fn421967   2.413   5.393   1.230  0.4337 -0.6495  0.4300
 3661ntf    fn421968   2.385   5.455   1.028 -0.1374 -0.1386  0.6868
 3661ntf    on521969   2.500   5.118   1.150  0.3486 -0.0043  0.0010
 3661ntf    on521970   2.472   5.196   0.921 -0.4399  0.2465 -0.0347
 3661ntf    on521971   2.712   5.275   1.303 -0.9555 -0.2508 -0.4460
 3661ntf    on521972   2.842   5.419   1.146  0.0903 -0.2184 -0.0698
 3661ntf    fn421973   2.752   5.054   1.140  0.0723 -0.1503 -0.0564
 3661ntf    fn421974   2.863   5.153   0.988  0.2444  0.5992 -0.4212
 3661ntf    fn421975   2.946   5.132   1.183 -0.2205 -0.1728  0.0113
 3662ntf    cn121976   4.616   0.439   0.289 -0.2770 -0.1092  0.1277
 3662ntf    sn221977   4.487   0.318   0.332 -0.2156 -0.3385 -0.3185
 3662ntf    nn321978   4.474   0.240   0.197 -0.7950 -0.9584  0.0843
 3662ntf    sn221979   4.413   0.279   0.058  0.2267  0.0263 -0.1095
 3662ntf    cn121980   4.412   0.109  -0.007  0.2128  0.0315 -0.1226
 3662ntf    fn421981   4.600   0.510   0.179 -0.4005 -0.2667  0.0422
 3662ntf    fn421982   4.629   0.521   0.391 -0.3262 -0.2434  0.2422
 3662ntf    fn421983   4.734   0.380   0.278 -0.2150  0.1019 -0.3715
 3662ntf    on521984   4.538   0.250   0.449 -0.9494  0.4594  0.4864
 3662ntf    on521985   4.377   0.409   0.354 -0.1905 -0.3977  0.0576
 3662ntf    on521986   4.505   0.355  -0.023  0.1653  0.1451 -0.0686
 3662ntf    on521987   4.277   0.328   0.066 -0.0390 -0.6237 -0.5176
 3662ntf    fn421988   4.367   0.020   0.080 -0.3082  0.4046 -0.0059
 3662ntf    fn421989   4.335   0.088  -0.113 -0.2338 -0.1774  0.2442
 3662ntf    fn421990   4.535   0.071  -0.037 -0.0472 -0.8861 -0.0359
 3663ntf    cn121991   3.979   6.625   4.202 -0.2724 -0.2686 -0.0599
 3663ntf    sn221992   4.082   6.774   4.225 -0.1583 -0.4058  0.3183
 3663ntf    nn321993   3.976   6.874   4.285  0.4576  0.2840  0.2595
 3663ntf    sn221994   3.949   7.028   4.269  0.0521  0.1928  0.0619
 3663ntf    cn121995   4.008   7.096   4.427  0.0139  0.2207  0.0638
 3663ntf    fn421996   3.879   6.657   4.122 -0.0413  0.3076 -0.1280
 3663ntf    fn421997   4.049   6.527   4.146  0.3867 -0.0196  0.3073
 3663ntf    fn421998   3.931   6.585   4.318 -0.2249 -0.3575 -0.0701
 3663ntf    on521999   4.187   6.747   4.320 -0.0160 -0.1324  0.2399
 3663ntf    on522000   4.123   6.815   4.094  0.0636 -0.5840  0.3319
 3663ntf    on522001   3.808   7.058   4.277  0.0992  0.4133  0.0408
 3663ntf    on522002   4.032   7.098   4.175 -0.3658  0.7458  0.0970
 3663ntf    fn422003   4.139   7.117   4.426  0.0102  0.2329 -0.3340
 3663ntf    fn422004   3.943   7.208   4.458  0.0150  0.1796  0.2117
 3663ntf    fn422005   3.988   7.010   4.525 -0.1929  0.0846 -0.0984
 3664ntf    cn122006   3.085   5.171   1.666 -0.0161 -0.3492 -0.0656
 3664ntf    sn222007   3.137   5.058   1.799  0.1252 -0.3506 -0.1235
 3664ntf    nn322008   3.020   4.954   1.809 -0.1939  0.0751  0.5925
 3664ntf    sn222009   3.017   4.814   1.738  0.4417  0.1837  0.3445
 3664ntf    cn122010   2.855   4.841   1.659  0.5708  0.3200  0.1245
 3664ntf    fn422011   3.180   5.261   1.647 -0.0148 -0.3607 -0.1157
 3664ntf    fn422012   3.085   5.109   1.549 -0.1416  0.0062 -0.2565
 3664ntf    fn422013   2.973   5.237   1.689  0.0567 -0.1490 -0.2818
 3664ntf    on522014   3.269   5.014   1.760  0.6031  0.8168  0.1340
 3664ntf    on522015   3.136   5.146   1.913  0.3485  0.1971 -0.5377
 3664ntf    on522016   2.991   4.710   1.833  0.1196  0.4183  0.5177
 3664ntf    on522017   3.115   4.796   1.634 -0.0450  0.3377 -0.1502
 3664ntf    fn422018   2.762   4.871   1.748 -0.2387  0.0242 -0.6022
 3664ntf    fn422019   2.853   4.944   1.576 -0.0740 -0.2135 -0.5335
 3664ntf    fn422020   2.808   4.739   1.588  0.3135 -0.0131  0.7655
 3665ntf    cn122021   2.431   2.802   1.148 -0.0949 -0.1563  0.0274
 3665ntf    sn222022   2.424   2.976   1.095  0.0921 -0.0682  0.2942
 3665ntf    nn322023   2.290   2.975   1.015  0.2710  0.2848 -0.0100
 3665ntf    sn222024   2.263   2.920   0.870  0.1275  0.0091  0.1199
 3665ntf    cn122025   2.280   3.071   0.769  0.2261 -0.1304 -0.0723
 3665ntf    fn422026   2.313   2.742   1.135 -0.4320  0.4686  0.1816
 3665ntf    fn422027   2.513   2.739   1.065 -0.0338  0.2561 -0.2241
 3665ntf    fn422028   2.474   2.778   1.271 -0.2223  0.3754  0.1752
 3665ntf    on522029   2.411   3.050   1.218  0.0632 -0.0154  0.2592
 3665ntf    on522030   2.544   3.001   1.018 -0.1104 -0.2299 -0.0742
 3665ntf    on522031   2.125   2.885   0.847  0.2199  0.1258 -0.6380
 3665ntf    on522032   2.361   2.828   0.818 -0.0913  0.2195 -0.6909
 3665ntf    fn422033   2.374   3.147   0.824 -0.2098  0.5508 -0.2641
 3665ntf    fn422034   2.300   3.048   0.640 -0.1658 -0.1367 -0.1324
 3665ntf    fn422035   2.169   3.141   0.780  0.2925 -0.0739  0.2676
 3666ntf    cn122036   2.163   1.954   1.711  0.1897  0.1620 -0.1355
 3666ntf    sn222037   2.079   2.071   1.599 -0.1547  0.1534  0.1109
 3666ntf    nn322038   2.206   2.155   1.561  0.2339 -0.3296  0.3316
 3666ntf    sn222039   2.242   2.299   1.611 -0.3884 -0.0501 -0.0122
 3666ntf    cn122040   2.423   2.281   1.594 -0.3396  0.5023 -0.1073
 3666ntf    fn422041   2.076   1.903   1.797 -0.2390  0.9421 -0.0918
 3666ntf    fn422042   2.229   1.852   1.661 -0.0856  0.0489 -0.2727
 3666ntf    fn422043   2.248   2.012   1.794  0.1480 -0.1529  0.1277
 3666ntf    on522044   2.029   1.986   1.494  0.7750 -0.1832 -0.0702
 3666ntf    on522045   1.987   2.135   1.689  0.2001  0.4618  0.2597
 3666ntf    on522046   2.209   2.321   1.750  0.0636 -0.0454  0.0967
 3666ntf    on522047   2.213   2.405   1.518  0.4055  0.1604 -0.0299
 3666ntf    fn422048   2.483   2.185   1.662 -0.2249  0.6520  0.0037
 3666ntf    fn422049   2.455   2.244   1.471  0.3178 -0.0012  0.2132
 3666ntf    fn422050   2.494   2.387   1.629  0.0068  0.1792  0.1818
 3667ntf    cn122051   2.898   5.379   3.609  0.2291  0.3177 -0.3580
 3667ntf    sn222052   2.964   5.460   3.461  0.3442  0.0665 -0.4432
 3667ntf    nn322053   2.858   5.415   3.353  0.1965  0.1795 -0.3443
 3667ntf    sn222054   2.743   5.506   3.296  0.0103  0.0066 -0.2448
 3667ntf    cn122055   2.830   5.588   3.159 -0.1961  0.0474 -0.3518
 3667ntf    fn422056   2.882   5.248   3.596 -0.4828  0.2869  0.6500
 3667ntf    fn422057   2.976   5.401   3.714 -0.2668  0.2680  0.0265
 3667ntf    fn422058   2.781   5.428   3.649 -0.1755 -0.7388 -0.2009
 3667ntf    on522059   2.979   5.600   3.492 -0.3450 -0.0057  0.2421
 3667ntf    on522060   3.088   5.387   3.445 -0.0288 -0.6042 -0.3439
 3667ntf    on522061   2.691   5.612   3.380 -0.0311 -0.4114  0.2651
 3667ntf    on522062   2.638   5.428   3.237 -0.2659 -0.2606  0.5753
 3667ntf    fn422063   2.746   5.656   3.084 -0.8305 -0.2130  0.1117
 3667ntf    fn422064   2.919   5.675   3.205 -0.1635 -0.3031  0.2695
 3667ntf    fn422065   2.893   5.507   3.075  0.3172 -0.0440  0.1114
 3668ntf    cn122066   5.590   0.970   3.464 -0.2123 -0.0388 -0.1468
 3668ntf    sn222067   5.634   1.121   3.555  0.1921 -0.0335 -0.3487
 3668ntf    nn322068   5.500   1.146   3.632  0.3829 -0.1460  0.0245
 3668ntf    sn222069   5.463   1.130   3.783 -0.2439 -0.1330 -0.1221
 3668ntf    cn122070   5.393   1.292   3.826  0.6721  0.3110 -0.2710
 3668ntf    fn422071   5.482   0.993   3.391 -0.3014 -0.1468 -0.0497
 3668ntf    fn422072   5.688   0.918   3.392 -0.0891  0.0506 -0.0451
 3668ntf    fn422073   5.558   0.873   3.548 -0.6432  0.0920 -0.1593
 3668ntf    on522074   5.746   1.086   3.638  0.0814  0.1266 -0.1315
 3668ntf    on522075   5.659   1.222   3.455  0.6336  0.7774  0.5619
 3668ntf    on522076   5.571   1.116   3.878 -0.5057  0.7243  0.3039
 3668ntf    on522077   5.353   1.038   3.800  0.1101 -0.5559 -0.0743
 3668ntf    fn422078   5.293   1.282   3.912  0.4970 -0.0538 -0.5147
 3668ntf    fn422079   5.480   1.377   3.877  0.3383  0.3458  0.2516
 3668ntf    fn422080   5.336   1.346   3.720  0.1274 -0.2531 -0.2742
 3669ntf    cn122081   4.732   1.715   1.458  0.1706  0.0182 -0.2289
 3669ntf    sn222082   4.629   1.740   1.606  0.2248 -0.3218 -0.1350
 3669ntf    nn322083   4.652   1.611   1.693  0.2161 -0.3235 -0.1351
 3669ntf    sn222084   4.665   1.598   1.849  0.1540  0.1591 -0.0873
 3669ntf    cn122085   4.513   1.504   1.885  0.2057 -0.0330 -0.3651
 3669ntf    fn422086   4.829   1.627   1.477 -0.2683 -0.3661  0.2748
 3669ntf    fn422087   4.672   1.687   1.343  0.1860 -0.3931 -0.1373
 3669ntf    fn422088   4.794   1.829   1.430  0.0537  0.0276 -0.4545
 3669ntf    on522089   4.681   1.867   1.648 -0.3769 -0.0234 -0.2815
 3669ntf    on522090   4.496   1.756   1.550  0.2306 -0.2810 -0.1377
 3669ntf    on522091   4.651   1.714   1.934  0.3199 -0.0477  0.2265
 3669ntf    on522092   4.773   1.506   1.874  0.2216  0.1516 -0.3999
 3669ntf    fn422093   4.404   1.555   1.830 -0.1617 -0.3446  0.0659
 3669ntf    fn422094   4.525   1.387   1.826 -0.1556 -0.1739 -0.1587
 3669ntf    fn422095   4.488   1.477   2.012 -0.2724 -0.0739 -0.4662
 3670ntf    cn122096   3.182   5.690   6.661  0.4214 -0.0036 -0.2514
 3670ntf    sn222097   3.154   5.692   6.482  0.0512  0.2841 -0.1910
 3670ntf    nn322098   3.173   5.540   6.450 -0.0190  0.1611  0.3398
 3670ntf    sn222099   3.297   5.457   6.400 -0.2857 -0.0204 -0.0273
 3670ntf    cn122100   3.223   5.297   6.356  0.2024 -0.2935  0.1337
 3670ntf    fn422101   3.089   5.631   6.734  0.5859 -0.2108 -0.2057
 3670ntf    fn422102   3.298   5.629   6.677  0.3931 -0.0758 -0.3246
 3670ntf    fn422103   3.197   5.813   6.709 -0.3169  0.0392 -0.1315
 3670ntf    on522104   3.013   5.724   6.475  0.0869  0.4974  0.0489
 3670ntf    on522105   3.250   5.787   6.430  0.6051  0.2975  0.8408
 3670ntf    on522106   3.384   5.424   6.510 -0.0953 -0.1397 -0.2135
 3670ntf    on522107   3.350   5.509   6.276 -0.0418 -0.3598 -0.0663
 3670ntf    fn422108   3.319   5.212   6.322  0.2519 -0.2891  0.2624
 3670ntf    fn422109   3.156   5.249   6.459 -0.4064 -0.4579 -0.3341
 3670ntf    fn422110   3.138   5.302   6.255 -0.0315  0.4826  0.3595
 3671ntf    cn122111   5.722   4.896   2.715  0.3854  0.5813  0.1981
 3671ntf    sn222112   5.712   4.854   2.892 -0.4829  0.2993  0.0888
 3671ntf    nn322113   5.861   4.871   2.939 -0.3971 -0.3791  0.0651
 3671ntf    sn222114   5.967   4.764   2.984  0.1246  0.0959 -0.0172
 3671ntf    cn122115   5.907   4.719   3.150 -0.0369  0.6810  0.0872
 3671ntf    fn422116   5.611   4.944   2.662  0.2323 -0.1947 -0.2001
 3671ntf    fn422117   5.813   4.991   2.697  1.1566 -0.1697  0.0491
 3671ntf    fn422118   5.765   4.794   2.642 -0.0299  0.2628  0.3918
 3671ntf    on522119   5.620   4.951   2.946 -0.3101  0.1210  0.7041
 3671ntf    on522120   5.671   4.716   2.886  0.4140  0.0292  0.0216
 3671ntf    on522121   6.097   4.820   3.011  0.1681  0.1356 -0.3044
 3671ntf    on522122   5.968   4.637   2.917  0.5952  0.0089  0.1504
 3671ntf    fn422123   5.798   4.646   3.135  0.0928  0.5686 -0.3153
 3671ntf    fn422124   5.989   4.635   3.212 -0.5562 -0.1968 -0.3942
 3671ntf    fn422125   5.880   4.823   3.227 -0.7844  0.2603  0.4091
 3672ntf    cn122126   6.754   2.462   7.039 -0.4009 -0.0458 -0.5340
 3672ntf    sn222127   6.754   2.637   6.990 -0.2886  0.1090  0.0140
 3672ntf    nn322128   6.702   2.623   6.843  0.2589  0.6912 -0.2351
 3672ntf    sn222129   6.691   2.737   6.735 -0.0699  0.3315 -0.5868
 3672ntf    cn122130   6.529   2.805   6.781  0.0490  0.1554  0.1187
 3672ntf    fn422131   6.808   2.380   6.950  0.0585 -0.0725 -0.2342
 3672ntf    fn422132   6.821   2.444   7.152 -0.3735  0.2273 -0.5074
 3672ntf    fn422133   6.632   2.429   7.076 -0.2364 -0.0127  0.0528
 3672ntf    on522134   6.658   2.697   7.081  0.0000  0.4814  0.0724
 3672ntf    on522135   6.890   2.683   6.997 -0.1025 -0.4571  0.1737
 3672ntf    on522136   6.672   2.682   6.604  0.1093 -0.2408 -0.3744
 3672ntf    on522137   6.778   2.851   6.752  0.1373  0.0804  0.0703
 3672ntf    fn422138   6.533   2.889   6.883  0.1692  0.3077 -0.0088
 3672ntf    fn422139   6.472   2.876   6.685 -0.5008 -0.1789  0.1939
 3672ntf    fn422140   6.444   2.713   6.823  0.3702 -0.4450 -0.5240
 3673ntf    cn122141   2.501   2.299   0.639  0.1811  0.2776  0.1474
 3673ntf    sn222142   2.575   2.330   0.476  0.0087  0.1331  0.0425
 3673ntf    nn322143   2.705   2.242   0.481  0.4140  0.6824 -0.6535
 3673ntf    sn222144   2.840   2.266   0.556  0.0658  0.4198  0.0720
 3673ntf    cn122145   2.941   2.330   0.418  0.0222  0.2336 -0.0466
 3673ntf    fn422146   2.416   2.391   0.679 -0.4221 -0.1133 -0.2225
 3673ntf    fn422147   2.440   2.184   0.659 -0.1135  0.3768 -0.1815
 3673ntf    fn422148   2.597   2.298   0.730  0.1416 -0.0425  0.1853
 3673ntf    on522149   2.464   2.289   0.392  0.2255  0.8191 -0.5946
 3673ntf    on522150   2.602   2.471   0.474 -0.2903  0.1982  0.4832
 3673ntf    on522151   2.889   2.139   0.603  0.4628  0.5620  0.0472
 3673ntf    on522152   2.833   2.375   0.649  0.3011  0.5705 -0.0834
 3673ntf    fn422153   2.979   2.229   0.341 -0.9561 -0.1433 -0.0415
 3673ntf    fn422154   2.865   2.410   0.346 -0.5469  0.0219  0.3127
 3673ntf    fn422155   3.049   2.390   0.465  0.0337  0.3866 -0.2685
 3674ntf    cn122156   1.356   3.652   0.777  0.2718 -0.5195 -0.2809
 3674ntf    sn222157   1.401   3.491   0.847  0.1383 -0.3688  0.1563
 3674ntf    nn322158   1.552   3.478   0.803  0.0555 -0.5133 -0.0870
 3674ntf    sn222159   1.675   3.429   0.887  0.1190 -0.0820  0.0755
 3674ntf    cn122160   1.757   3.320   0.767 -0.2199 -0.3776  0.1113
 3674ntf    fn422161   1.231   3.684   0.805  0.5177  0.2209  0.0111
 3674ntf    fn422162   1.429   3.759   0.806  0.1961 -0.6997  0.6228
 3674ntf    fn422163   1.359   3.641   0.646  0.6977 -0.2781 -0.2943
 3674ntf    on522164   1.374   3.515   0.987 -0.0168  0.0787  0.0492
 3674ntf    on522165   1.312   3.407   0.771 -0.2043  0.1132  0.0202
 3674ntf    on522166   1.648   3.345   1.002 -0.1198  0.3160  0.3133
 3674ntf    on522167   1.771   3.532   0.915 -0.0341  0.0346  0.1757
 3674ntf    fn422168   1.855   3.255   0.827  0.3915  0.0239 -0.4489
 3674ntf    fn422169   1.670   3.230   0.723 -0.8517  0.3000 -0.0345
 3674ntf    fn422170   1.795   3.389   0.661  0.4021  0.0878  0.6285
 3675ntf    cn122171   0.986   6.819   2.808  0.2552 -0.3812  0.1059
 3675ntf    sn222172   1.046   6.648   2.797  0.0782 -0.4241 -0.2066
 3675ntf    nn322173   0.945   6.572   2.890 -0.1124  0.3177  0.1975
 3675ntf    sn222174   0.888   6.426   2.884 -0.1628  0.3444  0.0163
 3675ntf    cn122175   0.785   6.448   3.032 -0.0647 -0.2241  0.1718
 3675ntf    fn422176   0.864   6.839   2.761  0.3549  0.1134  0.0512
 3675ntf    fn422177   0.987   6.865   2.932 -0.1444 -0.3819  0.1128
 3675ntf    fn422178   1.058   6.900   2.732 -0.3514  0.4815  0.4225
 3675ntf    on522179   1.022   6.618   2.658  0.1484 -0.0366 -0.3038
 3675ntf    on522180   1.181   6.651   2.849 -0.2743 -0.1837  0.7069
 3675ntf    on522181   0.984   6.323   2.918  0.1254  0.5319 -0.2206
 3675ntf    on522182   0.798   6.390   2.778  0.2347 -0.1676 -0.1516
 3675ntf    fn422183   0.836   6.528   3.124  0.0029 -0.0860  0.0149
 3675ntf    fn422184   0.670   6.508   3.005 -0.0797 -0.0576  0.5998
 3675ntf    fn422185   0.754   6.328   3.078 -0.2567 -0.4271 -0.4772
 3676ntf    cn122186   4.417   6.334   7.031  0.0547 -0.0815 -0.2169
 3676ntf    sn222187   4.386   6.457   7.162 -0.1999  0.0154 -0.3661
 3676ntf    nn322188   4.527   6.527   7.154 -0.2368  0.2093  0.5458
 3676ntf    sn222189   4.578   6.669   7.110 -0.2008 -0.0068 -0.1327
 3676ntf    cn122190   4.626   6.742   7.270  0.1217 -0.0960 -0.1873
 3676ntf    fn422191   4.513   6.247   7.057  0.0668  0.1774  0.6712
 3676ntf    fn422192   4.311   6.257   7.013  0.1046 -0.1725 -0.1229
 3676ntf    fn422193   4.434   6.388   6.911  0.1843  0.0030 -0.1603
 3676ntf    on522194   4.272   6.519   7.100  0.1976  0.9057 -0.2307
 3676ntf    on522195   4.371   6.382   7.285 -0.3418  0.2025 -0.2694
 3676ntf    on522196   4.472   6.756   7.066 -0.5352 -0.0481  0.5743
 3676ntf    on522197   4.701   6.668   7.034 -0.0508 -0.9853  0.1079
 3676ntf    fn422198   4.642   6.872   7.261  0.3910 -0.1500 -0.4709
 3676ntf    fn422199   4.533   6.725   7.363  0.3438  0.2542  0.0992
 3676ntf    fn422200   4.739   6.691   7.317 -0.2562 -0.3892  0.4252
 3677ntf    cn122201   3.112   6.191   5.757 -0.1012  0.4143  0.0467
 3677ntf    sn222202   3.116   6.012   5.725  0.1131  0.4000  0.1460
 3677ntf    nn322203   2.969   5.980   5.767  0.0760  0.1126 -0.2037
 3677ntf    sn222204   2.835   6.001   5.687 -0.0229 -0.1524 -0.1097
 3677ntf    cn122205   2.804   5.830   5.634 -0.3148 -0.1704  0.1125
 3677ntf    fn422206   3.093   6.212   5.886  0.6456 -0.2133  0.2685
 3677ntf    fn422207   3.229   6.244   5.724 -0.0199  0.2160  0.0140
 3677ntf    fn422208   3.019   6.261   5.695 -0.3819 -0.2522 -0.2945
 3677ntf    on522209   3.141   6.000   5.583  0.7813 -0.2803  0.3181
 3677ntf    on522210   3.218   5.958   5.812 -0.1106  0.2605  0.3205
 3677ntf    on522211   2.849   6.072   5.563 -0.1995  0.1999  0.0695
 3677ntf    on522212   2.729   6.043   5.776 -0.2656 -0.1535 -0.3952
 3677ntf    fn422213   2.892   5.791   5.543  0.2737 -0.1799  0.6862
 3677ntf    fn422214   2.812   5.745   5.734 -0.3899 -0.0751  0.1991
 3677ntf    fn422215   2.689   5.812   5.571 -0.0486 -0.1005 -0.4029
 3678ntf    cn122216   1.052   6.953   3.488 -0.0962  0.1960 -0.0517
 3678ntf    sn222217   0.951   6.892   3.627  0.4652  0.1396  0.3341
 3678ntf    nn322218   0.810   6.871   3.561  0.4022 -0.2820  0.6033
 3678ntf    sn222219   0.721   6.742   3.547  0.2441 -0.1103  0.0152
 3678ntf    cn122220   0.667   6.768   3.375  0.2059 -0.4013 -0.0163
 3678ntf    fn422221   1.063   6.863   3.392  0.1389 -0.0771  0.2292
 3678ntf    fn422222   0.992   7.056   3.429 -0.4118 -0.2044 -0.4316
 3678ntf    fn422223   1.173   6.998   3.516  0.3040 -0.8503 -0.0597
 3678ntf    on522224   1.017   6.767   3.657 -0.0839 -0.2127  0.0890
 3678ntf    on522225   0.966   6.998   3.724  0.1989  0.1448  0.3680
 3678ntf    on522226   0.595   6.736   3.617  0.2041 -0.2106 -0.0653
 3678ntf    on522227   0.796   6.620   3.538  0.1667 -0.0888 -0.9782
 3678ntf    fn422228   0.573   6.683   3.338  0.0815 -0.0687 -0.4658
 3678ntf    fn422229   0.626   6.890   3.347  1.0051 -0.0961  0.1141
 3678ntf    fn422230   0.769   6.743   3.294  0.0287  0.0389 -0.3768
 3679ntf    cn122231   2.644   6.749   6.643 -0.0874 -0.2418 -0.1387
 3679ntf    sn222232   2.470   6.736   6.590 -0.0735 -0.0382 -0.2331
 3679ntf    nn322233   2.472   6.581   6.615  0.1186  0.0544  0.3572
 3679ntf    sn222234   2.412   6.497   6.733 -0.1235 -0.2332  0.0328
 3679ntf    cn122235   2.243   6.470   6.673 -0.1484 -0.2924  0.1298
 3679ntf    fn422236   2.693   6.872   6.644  0.0595 -0.2996 -0.1899
 3679ntf    fn422237   2.654   6.697   6.764 -0.1275  0.7573  0.3084
 3679ntf    fn422238   2.724   6.679   6.565 -0.1435  0.0790 -0.4836
 3679ntf    on522239   2.408   6.828   6.683  0.1263 -0.5938  0.4603
 3679ntf    on522240   2.481   6.772   6.451 -0.2933 -0.2408 -0.3013
 3679ntf    on522241   2.395   6.564   6.860  0.4140 -0.0358  0.0043
 3679ntf    on522242   2.466   6.364   6.735 -0.3991 -0.3398  0.4688
 3679ntf    fn422243   2.176   6.377   6.739 -0.2319 -0.2368  0.1236
 3679ntf    fn422244   2.175   6.583   6.686  0.3911  0.0520 -0.0014
 3679ntf    fn422245   2.237   6.436   6.545  0.6692 -0.2114  0.0689
 3680ntf    cn122246   6.826   1.271   1.652  0.0974  0.0886  0.0957
 3680ntf    sn222247   6.816   1.119   1.751  0.4613 -0.1162 -0.1752
 3680ntf    nn322248   6.952   1.116   1.828  0.6764  0.1858 -0.5418
 3680ntf    sn222249   7.036   1.235   1.887  0.1231  0.2624  0.1038
 3680ntf    cn122250   7.094   1.157   2.041  0.3161  0.2039  0.0010
 3680ntf    fn422251   6.809   1.389   1.709  0.0846 -0.0279  0.3350
 3680ntf    fn422252   6.944   1.277   1.592  0.0737  0.6437  0.0932
 3680ntf    fn422253   6.736   1.263   1.556  0.6320 -0.8654 -0.3410
 3680ntf    on522254   6.707   1.143   1.843  1.0701  0.4343  0.4124
 3680ntf    on522255   6.811   1.015   1.652  0.3237 -0.1351 -0.1495
 3680ntf    on522256   6.969   1.356   1.929 -0.5840 -0.0095 -0.2274
 3680ntf    on522257   7.162   1.251   1.818  0.3765 -0.1597  0.4607
 3680ntf    fn422258   7.008   1.124   2.135 -0.2932  0.1839 -0.5583
 3680ntf    fn422259   7.169   1.050   2.021  0.2230  0.1296  0.0498
 3680ntf    fn422260   7.165   1.246   2.109 -0.0910  0.3220  0.2761
 3681ntf    cn122261   1.870   4.752   0.539 -0.2140  0.2428 -0.1051
 3681ntf    sn222262   1.982   4.894   0.556  0.0905  0.0196 -0.2340
 3681ntf    nn322263   2.094   4.831   0.646 -0.0173  0.2031  0.0298
 3681ntf    sn222264   2.106   4.829   0.803  0.0558  0.1226  0.0237
 3681ntf    cn122265   2.172   4.660   0.810 -0.6149 -0.1340  0.2695
 3681ntf    fn422266   1.915   4.660   0.455  0.3286  0.6532 -0.2681
 3681ntf    fn422267   1.849   4.698   0.658  0.3357  0.2107 -0.0197
 3681ntf    fn422268   1.756   4.782   0.479 -0.1574  0.8791  0.0990
 3681ntf    on522269   2.033   4.920   0.424 -0.0303  0.1200 -0.2618
 3681ntf    on522270   1.903   4.998   0.617 -0.0414 -0.4214  0.3654
 3681ntf    on522271   1.979   4.825   0.871  0.2308 -0.0744  0.3400
 3681ntf    on522272   2.207   4.915   0.859  0.1722  0.2837 -0.4333
 3681ntf    fn422273   2.165   4.599   0.927  0.0645 -0.3438  0.2042
 3681ntf    fn422274   2.112   4.587   0.718 -0.2030  0.1120 -0.1951
 3681ntf    fn422275   2.297   4.660   0.766 -0.5349 -0.1482  0.4923
 3682ntf    cn122276   5.313   5.314   6.902  0.1628 -0.3033  0.0593
 3682ntf    sn222277   5.252   5.293   7.072  0.0006 -0.2228  0.0122
 3682ntf    nn322278   5.286   5.433   7.134  0.0989 -0.3759  0.3048
 3682ntf    sn222279   5.406   5.458   7.232  0.1740  0.3040  0.0440
 3682ntf    cn122280   5.415   5.640   7.232 -0.0713  0.3172 -0.3489
 3682ntf    fn422281   5.254   5.423   6.854  0.1101 -0.3057  0.1182
 3682ntf    fn422282   5.443   5.326   6.883  0.1043  0.2575 -0.0290
 3682ntf    fn422283   5.279   5.216   6.820 -0.6574  0.1576 -0.1703
 3682ntf    on522284   5.110   5.271   7.060 -0.0859  0.2552  0.1274
 3682ntf    on522285   5.329   5.183   7.124  0.2985  0.1654  0.3970
 3682ntf    on522286   5.533   5.418   7.177 -0.1102 -0.5620  0.0139
 3682ntf    on522287   5.381   5.417   7.368  0.2454  0.1137 -0.0005
 3682ntf    fn422288   5.417   5.683   7.107 -0.3582  0.1803 -0.4009
 3682ntf    fn422289   5.324   5.709   7.299 -0.6438 -0.2536 -0.5257
 3682ntf    fn422290   5.532   5.673   7.284 -0.1557 -0.0589  0.0842
 3683ntf    cn122291   6.306   2.968   5.069  0.0954 -0.1562  0.0059
 3683ntf    sn222292   6.151   2.886   5.114  0.0535 -0.0624  0.0346
 3683ntf    nn322293   6.115   2.953   5.251 -0.1707 -0.1302  0.0093
 3683ntf    sn222294   5.981   3.022   5.297 -0.1157 -0.0722  0.0821
 3683ntf    cn122295   6.009   3.192   5.238 -0.3510 -0.0875 -0.0730
 3683ntf    fn422296   6.346   2.935   4.947  0.0436  0.0443 -0.0655
 3683ntf    fn422297   6.293   3.100   5.063  1.1760 -0.0508 -0.2996
 3683ntf    fn422298   6.408   2.939   5.148  0.2542  0.1975 -0.0670
 3683ntf    on522299   6.070   2.912   4.997 -0.5635 -0.0758  0.4555
 3683ntf    on522300   6.183   2.749   5.144 -0.9062 -0.4239 -0.5523
 3683ntf    on522301   5.977   3.039   5.440  0.2263  0.4349  0.0356
 3683ntf    on522302   5.860   2.979   5.232 -0.1821 -0.0141  0.1678
 3683ntf    fn422303   6.053   3.190   5.113 -0.5115 -0.4226 -0.1238
 3683ntf    fn422304   5.897   3.263   5.240 -0.3456 -0.0826  0.0275
 3683ntf    fn422305   6.100   3.260   5.305 -0.2659 -0.4649  0.1976
 3684ntf    cn122306   6.039   4.943   5.451  0.2029  0.3309  0.3862
 3684ntf    sn222307   5.865   4.984   5.420  0.1823  0.0991  0.1865
 3684ntf    nn322308   5.874   5.099   5.313 -0.1003  0.1543  0.2217
 3684ntf    sn222309   5.865   5.081   5.157 -0.1502 -0.0998  0.2524
 3684ntf    cn122310   6.014   4.980   5.134  0.1914  0.4824 -0.1210
 3684ntf    fn422311   6.079   4.835   5.385  0.0141  0.3828  0.1848
 3684ntf    fn422312   6.125   5.040   5.426 -0.0431  0.4259 -0.0921
 3684ntf    fn422313   6.063   4.917   5.579  0.6610  0.3508  0.3057
 3684ntf    on522314   5.799   4.861   5.385  0.1633  0.2356 -0.2583
 3684ntf    on522315   5.825   5.046   5.544 -0.0539 -0.0570  0.1886
 3684ntf    on522316   5.908   5.203   5.093  0.2555 -0.5760 -0.3962
 3684ntf    on522317   5.754   5.005   5.105 -0.6000  0.3537  0.5356
 3684ntf    fn422318   6.049   4.968   5.007  0.2227 -0.1903 -0.0527
 3684ntf    fn422319   6.121   5.019   5.202  0.2052  0.1621  0.0401
 3684ntf    fn422320   5.983   4.858   5.175  0.3809  0.4957  0.0600
 3685ntf    cn122321   5.129   4.621   6.438  0.3464  0.1040  0.0099
 3685ntf    sn222322   5.234   4.511   6.339 -0.1747 -0.1641 -0.2441
 3685ntf    nn322323   5.136   4.495   6.217 -0.2730 -0.2431 -0.1552
 3685ntf    sn222324   5.041   4.374   6.189 -0.1047 -0.3940 -0.0785
 3685ntf    cn122325   4.882   4.461   6.171 -0.1285 -0.3924  0.1365
 3685ntf    fn422326   5.014   4.570   6.478  0.0976  0.3438 -0.4038
 3685ntf    fn422327   5.200   4.656   6.545  0.0326  0.0091  0.2497
 3685ntf    fn422328   5.107   4.730   6.368  0.1367 -0.2454 -0.4666
 3685ntf    on522329   5.347   4.596   6.309 -0.6333  0.3693 -0.4827
 3685ntf    on522330   5.257   4.399   6.426 -0.1172  0.5217  0.6356
 3685ntf    on522331   5.022   4.281   6.297 -0.3977  0.5931  0.7282
 3685ntf    on522332   5.050   4.320   6.055  0.3640  0.2587 -0.3151
 3685ntf    fn422333   4.774   4.395   6.208 -0.1996  0.2071  1.0057
 3685ntf    fn422334   4.886   4.570   6.245  0.4419 -0.5556  0.3528
 3685ntf    fn422335   4.852   4.507   6.051  0.1896 -0.3745  0.0621
 3686ntf    cn122336   3.139   4.128   2.474  0.1172  0.1931  0.1938
 3686ntf    sn222337   3.311   4.136   2.531  0.1645  0.3072  0.0349
 3686ntf    nn322338   3.309   4.160   2.686 -0.3260 -0.4053  0.1428
 3686ntf    sn222339   3.429   4.186   2.783 -0.1680 -0.1364 -0.1215
 3686ntf    cn122340   3.386   4.085   2.928 -0.1143  0.3091  0.2101
 3686ntf    fn422341   3.052   4.079   2.561 -0.3541  0.9517  0.1617
 3686ntf    fn422342   3.095   4.248   2.439  0.0891  0.0421 -0.2989
 3686ntf    fn422343   3.116   4.051   2.369  0.1313  0.4988 -0.0363
 3686ntf    on522344   3.372   4.014   2.485 -0.0797  0.4984 -0.8223
 3686ntf    on522345   3.358   4.257   2.467 -0.2070  0.0949 -0.6427
 3686ntf    on522346   3.434   4.319   2.838 -0.0103  0.0590 -0.6048
 3686ntf    on522347   3.552   4.125   2.740  0.2763  0.7533 -0.1408
 3686ntf    fn422348   3.384   3.955   2.900  0.0112  0.2318  0.5596
 3686ntf    fn422349   3.478   4.107   3.020  0.3622 -0.5066 -0.0582
 3686ntf    fn422350   3.268   4.116   2.980  0.0029  0.0412  0.6401
 3687ntf    cn122351   0.137   3.684   1.534 -0.1375 -0.5445 -0.0496
 3687ntf    sn222352   0.102   3.677   1.712 -0.2421 -0.1111 -0.0516
 3687ntf    nn322353   0.130   3.825   1.755 -0.6629 -0.1253  0.2749
 3687ntf    sn222354   0.272   3.886   1.781 -0.6317 -0.1123  0.0767
 3687ntf    cn122355   0.270   4.007   1.646  0.2724 -0.2835 -0.0971
 3687ntf    fn422356   0.044   3.753   1.470  0.0248 -0.1062  0.1818
 3687ntf    fn422357   0.250   3.749   1.512 -0.1981 -0.4396 -0.0502
 3687ntf    fn422358   0.156   3.567   1.476 -0.5394 -0.6030 -0.0621
 3687ntf    on522359  -0.039   3.647   1.725 -0.1573 -0.6245 -0.2821
 3687ntf    on522360   0.198   3.576   1.750  0.3190  0.4671  0.0754
 3687ntf    on522361   0.396   3.813   1.765 -0.7163 -0.1566 -0.3976
 3687ntf    on522362   0.278   3.981   1.890  0.7350 -0.1147  0.0212
 3687ntf    fn422363   0.384   4.073   1.639  0.1088  0.0142  0.0292
 3687ntf    fn422364   0.233   3.957   1.529  0.2840 -0.6266  0.0428
 3687ntf    fn422365   0.185   4.106   1.667  0.5008 -0.2086  0.4774
 3688ntf    cn122366   6.924   0.664   5.834 -0.2338  0.0779  0.2906
 3688ntf    sn222367   7.019   0.814   5.795 -0.0046 -0.1189  0.0962
 3688ntf    nn322368   7.037   0.791   5.640 -0.3771 -0.3105  0.0821
 3688ntf    sn222369   7.152   0.719   5.561 -0.0776  0.3048 -0.0472
 3688ntf    cn122370   7.046   0.626   5.446  0.2828 -0.2903  0.0994
 3688ntf    fn422371   6.963   0.561   5.761 -0.0534  0.5303 -0.2568
 3688ntf    fn422372   6.925   0.630   5.961 -0.5033 -0.2255  0.2132
 3688ntf    fn422373   6.795   0.678   5.805 -0.4441 -0.3083  1.0131
 3688ntf    on522374   6.942   0.931   5.826 -0.6335 -0.4573 -0.1655
 3688ntf    on522375   7.143   0.799   5.867  0.1995 -0.4201 -0.3079
 3688ntf    on522376   7.220   0.624   5.646  0.0767  0.8102  0.3985
 3688ntf    on522377   7.238   0.798   5.476  0.2830  0.3019  0.3124
 3688ntf    fn422378   6.972   0.540   5.514  0.0570 -0.1074  0.0876
 3688ntf    fn422379   6.969   0.706   5.375  0.3583 -0.0393  0.3009
 3688ntf    fn422380   7.106   0.551   5.355  0.3500 -0.1519  0.0308
 3689ntf    cn122381   6.298   2.735   5.866  0.1923  0.0881  0.4765
 3689ntf    sn222382   6.210   2.590   5.932 -0.1285  0.1541  0.1992
 3689ntf    nn322383   6.285   2.575   6.069  0.0583 -0.5737  0.0231
 3689ntf    sn222384   6.223   2.584   6.213  0.5232 -0.2039  0.2079
 3689ntf    cn122385   6.366   2.661   6.293  0.4823  0.0625  0.0279
 3689ntf    fn422386   6.268   2.744   5.737 -0.1895  0.4983  0.5931
 3689ntf    fn422387   6.246   2.846   5.916 -0.4549 -0.1393  0.3238
 3689ntf    fn422388   6.430   2.729   5.868  0.1863 -0.3144  0.0311
 3689ntf    on522389   6.070   2.624   5.933 -0.2807 -0.4513 -0.1690
 3689ntf    on522390   6.248   2.488   5.838  0.1687 -0.2456  0.7509
 3689ntf    on522391   6.211   2.460   6.286  0.1489 -0.2555  0.0666
 3689ntf    on522392   6.121   2.682   6.242  0.5499 -0.1676  0.1786
 3689ntf    fn422393   6.340   2.702   6.416  0.1755 -0.1625  0.0392
 3689ntf    fn422394   6.463   2.572   6.307 -0.1357 -0.5474  0.5211
 3689ntf    fn422395   6.414   2.765   6.227 -0.0386 -0.2690 -0.8905
 3690ntf    cn122396   5.558   4.092   3.548 -0.3141  0.2925  0.0052
 3690ntf    sn222397   5.720   4.133   3.619 -0.2601 -0.0172  0.0617
 3690ntf    nn322398   5.814   4.177   3.501 -0.0616 -0.4939  0.0394
 3690ntf    sn222399   5.806   4.313   3.423  0.3247 -0.3362  0.2717
 3690ntf    cn122400   5.779   4.243   3.257  0.1260 -0.1199  0.2127
 3690ntf    fn422401   5.468   4.063   3.641  0.3837 -1.1451  0.2683
 3690ntf    fn422402   5.511   4.189   3.472  0.1327  0.1073 -0.5111
 3690ntf    fn422403   5.567   3.985   3.470 -0.5458  0.2149  0.0817
 3690ntf    on522404   5.703   4.232   3.722 -0.4438  0.2726 -0.2452
 3690ntf    on522405   5.759   4.000   3.661 -0.1280 -0.0449 -0.1464
 3690ntf    on522406   5.936   4.373   3.409  0.2686 -0.2951 -0.0715
 3690ntf    on522407   5.689   4.395   3.439  0.6809  0.1906  0.1802
 3690ntf    fn422408   5.658   4.197   3.230  0.3114 -0.3609 -0.2132
 3690ntf    fn422409   5.808   4.334   3.165 -0.3068  0.4489  0.6292
 3690ntf    fn422410   5.854   4.135   3.241  0.1067 -0.0810 -0.1317
 3691ntf    cn122411   2.187   1.688   2.636 -0.0123  0.1034  0.4287
 3691ntf    sn222412   2.183   1.865   2.676 -0.0150  0.2099 -0.0441
 3691ntf    nn322413   2.038   1.900   2.624 -0.1571  0.1508  0.3118
 3691ntf    sn222414   1.917   1.885   2.722 -0.3126  0.0568  0.1052
 3691ntf    cn122415   1.888   2.058   2.772 -0.2148  0.1748 -0.2483
 3691ntf    fn422416   2.313   1.652   2.618  0.0361  0.6316 -0.3441
 3691ntf    fn422417   2.122   1.614   2.724 -0.2123 -0.5081 -0.2194
 3691ntf    fn422418   2.120   1.659   2.526  0.0270  0.5762  0.2810
 3691ntf    on522419   2.221   1.861   2.814  0.0453  0.0620 -0.0658
 3691ntf    on522420   2.287   1.912   2.588  0.0245 -0.0441 -0.1349
 3691ntf    on522421   1.940   1.807   2.841  0.1976 -0.3795 -0.2764
 3691ntf    on522422   1.795   1.859   2.650 -0.3464  0.0501  0.1642
 3691ntf    fn422423   2.001   2.125   2.786 -0.1602  0.0868 -0.2658
 3691ntf    fn422424   1.817   2.120   2.679 -0.8171 -0.1292  0.0040
 3691ntf    fn422425   1.835   2.070   2.892  0.3890 -0.2774  0.0673
 3692ntf    cn122426   4.150   2.305   4.698 -0.2292 -0.0442 -0.0151
 3692ntf    sn222427   4.329   2.325   4.723 -0.2552 -0.2886  0.3845
 3692ntf    nn322428   4.373   2.361   4.577  0.1241 -0.1470  0.5351
 3692ntf    sn222429   4.476   2.468   4.525 -0.0458 -0.1917  0.1011
 3692ntf    cn122430   4.626   2.365   4.536 -0.0937 -0.2596  0.1130
 3692ntf    fn422431   4.090   2.416   4.660  0.0155  0.1809  0.2566
 3692ntf    fn422432   4.119   2.205   4.617 -0.5288  0.0747 -0.0506
 3692ntf    fn422433   4.094   2.274   4.814 -0.1717  0.0859  0.0469
 3692ntf    on522434   4.351   2.431   4.817  0.8074 -0.0714 -0.0963
 3692ntf    on522435   4.379   2.194   4.757 -0.6249 -0.6047 -0.2549
 3692ntf    on522436   4.497   2.583   4.609  0.5719 -0.1683 -0.0751
 3692ntf    on522437   4.466   2.485   4.382  0.4962 -0.0144  0.0799
 3692ntf    fn422438   4.616   2.246   4.479  0.5021 -0.5163  0.5373
 3692ntf    fn422439   4.732   2.429   4.490 -0.3865  0.1346 -0.0219
 3692ntf    fn422440   4.659   2.345   4.663 -0.5936  0.0866  0.3023
 3693ntf    cn122441   5.303   6.756   6.740  0.2327 -0.2481  0.1158
 3693ntf    sn222442   5.154   6.736   6.842 -0.1405  0.3208 -0.3034
 3693ntf    nn322443   5.221   6.744   6.984 -0.5845 -0.1358 -0.0668
 3693ntf    sn222444   5.256   6.630   7.087  0.2994 -0.0999 -0.3233
 3693ntf    cn122445   5.272   6.727   7.240  0.1777 -0.2347 -0.2250
 3693ntf    fn422446   5.274   6.757   6.611  0.1136  0.2233  0.1447
 3693ntf    fn422447   5.367   6.870   6.762 -0.1212 -0.0959  0.3601
 3693ntf    fn422448   5.391   6.660   6.761  0.4231 -0.0642  0.1641
 3693ntf    on522449   5.072   6.849   6.809 -0.3998  0.3505  0.4211
 3693ntf    on522450   5.108   6.607   6.797  0.3052 -0.0870  0.3774
 3693ntf    on522451   5.386   6.573   7.062  0.4713 -0.1162  0.5719
 3693ntf    on522452   5.149   6.537   7.114  0.2452  0.0845  0.1181
 3693ntf    fn422453   5.329   6.651   7.333 -0.4672 -0.1228  0.2697
 3693ntf    fn422454   5.350   6.832   7.218 -0.2618  0.2523  0.4787
 3693ntf    fn422455   5.162   6.770   7.299  0.2222 -0.9039  0.3716
 3694ntf    cn122456   5.584   7.027   6.309  0.0463 -0.1252 -0.3710
 3694ntf    sn222457   5.576   6.880   6.202  0.1634 -0.2997 -0.1397
 3694ntf    nn322458   5.467   6.921   6.097 -0.3650  0.1995  0.5866
 3694ntf    sn222459   5.497   6.996   5.962  0.1395 -0.2364  0.4518
 3694ntf    cn122460   5.543   6.847   5.868  0.0635  0.0051  0.0276
 3694ntf    fn422461   5.660   7.004   6.415 -0.2956  0.7048  0.0708
 3694ntf    fn422462   5.629   7.138   6.254 -0.0667 -0.0004 -0.2126
 3694ntf    fn422463   5.464   7.062   6.352  0.1144  0.0858 -0.3526
 3694ntf    on522464   5.711   6.865   6.154  0.3149  0.3294  0.0777
 3694ntf    on522465   5.534   6.779   6.296 -0.1881 -0.4986 -0.5087
 3694ntf    on522466   5.613   7.082   5.954 -0.3793  0.4533  0.2829
 3694ntf    on522467   5.374   7.047   5.907  0.3374 -0.2169  0.0257
 3694ntf    fn422468   5.566   6.859   5.739 -0.4108 -0.7175 -0.1277
 3694ntf    fn422469   5.638   6.772   5.921 -0.0097 -0.1441 -0.0527
 3694ntf    fn422470   5.440   6.764   5.872  0.0240  0.0595  0.1469
 3695ntf    cn122471   1.218   7.121   1.845 -0.2275  0.2192 -0.0577
 3695ntf    sn222472   1.072   7.141   1.952  0.0362  0.0232  0.3429
 3695ntf    nn322473   1.031   7.272   1.875 -0.2277 -0.1166  0.2438
 3695ntf    sn222474   1.066   7.421   1.910 -0.3168 -0.0453  0.0254
 3695ntf    cn122475   0.904   7.493   1.870 -0.1195  0.1636 -0.4030
 3695ntf    fn422476   1.272   7.000   1.848  0.0086  0.3225 -0.0945
 3695ntf    fn422477   1.187   7.135   1.718 -0.4471 -0.3332 -0.0672
 3695ntf    fn422478   1.321   7.201   1.867 -0.3774  0.2746  0.4730
 3695ntf    on522479   1.005   7.017   1.920  0.0570 -0.0588  0.6157
 3695ntf    on522480   1.131   7.153   2.083  0.3733  0.5147  0.1484
 3695ntf    on522481   1.155   7.492   1.821  0.3157  0.0580  0.7275
 3695ntf    on522482   1.078   7.453   2.050 -0.6106 -0.6872  0.2021
 3695ntf    fn422483   0.845   7.549   1.974  0.2715  0.2545 -0.2274
 3695ntf    fn422484   0.918   7.587   1.777  0.2521  0.6017  0.0897
 3695ntf    fn422485   0.816   7.409   1.817 -0.1214 -0.1767  0.1374
 3696ntf    cn122486   3.692   5.926   0.327  0.1860 -0.0848  0.4149
 3696ntf    sn222487   3.708   6.104   0.359  0.3304 -0.0134 -0.0340
 3696ntf    nn322488   3.842   6.103   0.440  0.4385 -0.0912 -0.2150
 3696ntf    sn222489   3.868   6.093   0.595 -0.0964 -0.2581 -0.1347
 3696ntf    cn122490   4.046   6.131   0.600 -0.1882  0.1271  0.2158
 3696ntf    fn422491   3.567   5.884   0.324  0.2138 -0.1724  0.5147
 3696ntf    fn422492   3.738   5.891   0.207 -0.3252  0.6999 -0.0224
 3696ntf    fn422493   3.762   5.849   0.408  0.4842 -0.1731  0.0772
 3696ntf    on522494   3.722   6.167   0.230  0.0225 -0.3279 -0.2219
 3696ntf    on522495   3.594   6.137   0.441  0.7961 -0.3128  0.7462
 3696ntf    on522496   3.868   5.959   0.647 -0.2680 -0.2985 -0.2372
 3696ntf    on522497   3.810   6.200   0.671 -0.2669 -0.0703 -0.5265
 3696ntf    fn422498   4.088   6.123   0.725  0.2733 -0.1437  0.0437
 3696ntf    fn422499   4.118   6.052   0.522  0.2631  0.6345  0.1086
 3696ntf    fn422500   4.070   6.257   0.566  0.5430 -0.0529  0.0494
 3697ntf    cn122501   5.775   2.197   6.093 -0.2845  0.1146  0.0238
 3697ntf    sn222502   5.749   2.204   6.273 -0.2176 -0.0339  0.0389
 3697ntf    nn322503   5.592   2.197   6.278 -0.2492  0.1952 -0.5308
 3697ntf    sn222504   5.472   2.294   6.308 -0.3298 -0.0307 -0.1201
 3697ntf    cn122505   5.476   2.298   6.490  0.0397 -0.1831 -0.1238
 3697ntf    fn422506   5.720   2.089   6.040  0.3086 -0.2172  0.0775
 3697ntf    fn422507   5.718   2.303   6.039 -0.0829  0.0695 -0.2765
 3697ntf    fn422508   5.902   2.198   6.056 -0.2816  0.1360  0.0345
 3697ntf    on522509   5.806   2.083   6.326 -0.3447  0.2783  0.9027
 3697ntf    on522510   5.816   2.322   6.324 -0.6616  0.3390 -0.2357
 3697ntf    on522511   5.343   2.237   6.278 -0.5643  0.2443  0.3629
 3697ntf    on522512   5.496   2.431   6.270  0.3388 -0.1726 -0.2202
 3697ntf    fn422513   5.600   2.306   6.536  0.1226 -0.0363 -0.3666
 3697ntf    fn422514   5.404   2.392   6.548  0.2571  0.1225 -0.3419
 3697ntf    fn422515   5.437   2.184   6.544 -0.1846 -0.0874 -0.0847
 3698ntf    cn122516   0.425   5.184   5.118  0.2667 -0.2345 -0.1617
 3698ntf    sn222517   0.527   5.321   5.181 -0.1625  0.0510 -0.0783
 3698ntf    nn322518   0.637   5.244   5.264  0.2098  0.2698 -0.3655
 3698ntf    sn222519   0.697   5.268   5.407 -0.3207 -0.0475 -0.0838
 3698ntf    cn122520   0.851   5.179   5.367 -0.3059 -0.0372 -0.0487
 3698ntf    fn422521   0.359   5.127   5.217 -0.1278 -0.0462 -0.3100
 3698ntf    fn422522   0.333   5.228   5.033  0.8737  0.0416 -0.6796
 3698ntf    fn422523   0.504   5.092   5.066  0.6943 -0.2394  0.4849
 3698ntf    on522524   0.597   5.373   5.066 -0.1261 -0.1723 -0.1587
 3698ntf    on522525   0.431   5.403   5.250  0.1852  0.6878 -0.3507
 3698ntf    on522526   0.624   5.193   5.506 -0.2015 -0.4486 -0.2981
 3698ntf    on522527   0.737   5.404   5.436  0.2845 -0.2593  0.0729
 3698ntf    fn422528   0.919   5.238   5.270  0.2259 -0.4408  0.0729
 3698ntf    fn422529   0.942   5.173   5.463  0.3748  0.0145 -0.6886
 3698ntf    fn422530   0.833   5.055   5.326 -0.1131  0.0348 -0.3490
 3699ntf    cn122531   2.652   3.476   1.907 -0.4200  0.1663 -0.0367
 3699ntf    sn222532   2.554   3.376   2.023 -0.2805  0.2937  0.1919
 3699ntf    nn322533   2.484   3.282   1.918 -0.0409  0.1021  0.2019
 3699ntf    sn222534   2.505   3.130   1.887 -0.3094  0.0722  0.1620
 3699ntf    cn122535   2.341   3.077   1.944 -0.2634 -0.1773  0.0634
 3699ntf    fn422536   2.570   3.541   1.826  0.3439  0.6164 -0.4742
 3699ntf    fn422537   2.723   3.567   1.972 -0.1824 -0.0205 -0.0320
 3699ntf    fn422538   2.736   3.408   1.830 -0.0904  0.9832 -0.4143
 3699ntf    on522539   2.658   3.317   2.103 -0.1054 -0.0127 -0.2602
 3699ntf    on522540   2.467   3.470   2.090 -0.5612  0.0919  0.1092
 3699ntf    on522541   2.603   3.052   1.960 -0.3694  0.3550  0.5513
 3699ntf    on522542   2.487   3.112   1.745 -0.0875 -0.1636  0.1622
 3699ntf    fn422543   2.318   2.952   1.909  0.2052 -0.1034 -0.5206
 3699ntf    fn422544   2.319   3.075   2.075 -0.3070 -0.4156  0.0525
 3699ntf    fn422545   2.248   3.158   1.898  0.1155  0.3637  0.2425
 3700ntf    cn122546   1.632   1.600   5.042  0.0388 -0.0631 -0.2394
 3700ntf    sn222547   1.806   1.579   5.092 -0.0523  0.0097  0.1052
 3700ntf    nn322548   1.818   1.698   5.195  0.9461 -0.1839  0.2178
 3700ntf    sn222549   1.857   1.848   5.171 -0.2120  0.0927 -0.0055
 3700ntf    cn122550   2.008   1.871   5.270 -0.1449 -0.0245 -0.0803
 3700ntf    fn422551   1.555   1.611   5.148  0.2142 -0.1980 -0.0989
 3700ntf    fn422552   1.615   1.708   4.967  0.5452 -0.1461 -0.4836
 3700ntf    fn422553   1.588   1.494   4.976  0.5486 -0.9081  0.7570
 3700ntf    on522554   1.806   1.456   5.167 -0.0223 -0.1982 -0.2371
 3700ntf    on522555   1.883   1.581   4.970  0.2265 -0.5095  0.2677
 3700ntf    on522556   1.759   1.925   5.243 -0.1498  0.0656  0.1083
 3700ntf    on522557   1.892   1.882   5.035 -0.2711  0.3713  0.0476
 3700ntf    fn422558   1.987   1.858   5.400  0.2590 -0.0671 -0.0192
 3700ntf    fn422559   2.094   1.776   5.236 -0.1365  0.0333 -0.2209
 3700ntf    fn422560   2.077   1.981   5.244 -0.4048  0.1040 -0.2259
 3701ntf    cn122561   5.265   6.285   1.019 -0.0848  0.0277 -0.0914
 3701ntf    sn222562   5.335   6.358   1.171 -0.1020  0.0007 -0.0713
 3701ntf    nn322563   5.489   6.330   1.163 -0.1596 -0.2825 -0.2455
 3701ntf    sn222564   5.593   6.403   1.071 -0.0669  0.4606  0.4382
 3701ntf    cn122565   5.710   6.268   1.036 -0.0089  0.6398 -0.0637
 3701ntf    fn422566   5.319   6.168   0.989  0.1028  0.1133 -0.0880
 3701ntf    fn422567   5.134   6.268   1.025 -0.0699 -0.1801 -0.3187
 3701ntf    fn422568   5.290   6.363   0.915 -0.2633 -0.4520 -0.4960
 3701ntf    on522569   5.288   6.494   1.167  0.2039  0.1091  0.0598
 3701ntf    on522570   5.270   6.276   1.271  0.5537  0.4911  0.7618
 3701ntf    on522571   5.672   6.502   1.141 -0.1462  0.4381  0.5603
 3701ntf    on522572   5.531   6.441   0.947  0.2092  0.9038  0.4324
 3701ntf    fn422573   5.654   6.170   0.968  0.5099  0.3470 -0.0776
 3701ntf    fn422574   5.812   6.306   0.960  0.4706  0.1081  0.3052
 3701ntf    fn422575   5.756   6.211   1.146  0.6069  0.3785 -0.4538
 3702ntf    cn122576   3.290   4.678   6.763  0.1270  0.0495  0.1929
 3702ntf    sn222577   3.258   4.794   6.627 -0.1442 -0.0468  0.1732
 3702ntf    nn322578   3.394   4.787   6.548 -0.2332  0.4265 -0.0235
 3702ntf    sn222579   3.415   4.697   6.421  0.1765  0.1617  0.2328
 3702ntf    cn122580   3.355   4.800   6.285  0.1935  0.1801  0.2392
 3702ntf    fn422581   3.203   4.692   6.861 -0.3214 -0.6412 -0.0969
 3702ntf    fn422582   3.279   4.554   6.717 -1.5161  0.2794 -0.1086
 3702ntf    fn422583   3.413   4.684   6.811  0.0976 -0.1523  0.2949
 3702ntf    on522584   3.151   4.733   6.551  0.1263  0.1375 -0.3567
 3702ntf    on522585   3.246   4.915   6.703  0.0152 -0.1894  0.4261
 3702ntf    on522586   3.351   4.568   6.414  0.0329  0.2614 -0.3119
 3702ntf    on522587   3.556   4.692   6.388  0.0477 -0.1879 -0.2795
 3702ntf    fn422588   3.230   4.840   6.305  0.1454  0.2901 -0.2586
 3702ntf    fn422589   3.423   4.914   6.279 -0.0844  0.3618  0.4842
 3702ntf    fn422590   3.368   4.742   6.167  0.4608 -0.2821  0.4912
 3703ntf    cn122591   2.142   4.509   5.205 -0.0670 -0.4711  0.0715
 3703ntf    sn222592   2.129   4.380   5.077  0.2713 -0.3770 -0.0600
 3703ntf    nn322593   2.145   4.458   4.942  0.0660 -0.2027  0.0133
 3703ntf    sn222594   2.042   4.523   4.844  0.3047  0.2038  0.0317
 3703ntf    cn122595   2.014   4.381   4.734  0.3399  0.1976  0.0305
 3703ntf    fn422596   2.153   4.473   5.332  0.2948  0.1666  0.2278
 3703ntf    fn422597   2.248   4.586   5.184 -0.3504 -0.0937  0.0262
 3703ntf    fn422598   2.044   4.598   5.200  0.0098 -0.3895  0.0113
 3703ntf    on522599   2.246   4.299   5.098  0.3733 -0.1549  0.2416
 3703ntf    on522600   2.001   4.321   5.107 -0.1854  0.6559  0.0522
 3703ntf    on522601   2.106   4.614   4.752 -0.1219  0.0944 -0.3781
 3703ntf    on522602   1.910   4.555   4.894  0.1135 -0.6121  0.0643
 3703ntf    fn422603   2.124   4.322   4.692 -0.1100 -0.3411 -0.4076
 3703ntf    fn422604   1.938   4.292   4.796  0.2969  0.1331 -0.1141
 3703ntf    fn422605   1.951   4.419   4.624  0.0963 -0.5368 -0.0905
 3704ntf    cn122606   0.624   4.708   1.531 -0.3537 -0.2674  0.3441
 3704ntf    sn222607   0.587   4.837   1.409  0.1977 -0.0766  0.3774
 3704ntf    nn322608   0.644   4.778   1.275 -0.4157  0.0439  0.0608
 3704ntf    sn222609   0.559   4.716   1.159  0.2310 -0.3836 -0.1923
 3704ntf    cn122610   0.457   4.852   1.093  0.3167 -0.2310 -0.0109
 3704ntf    fn422611   0.752   4.700   1.565 -0.1495  0.0231 -0.3526
 3704ntf    fn422612   0.567   4.735   1.648 -0.2737 -0.4414  0.4245
 3704ntf    fn422613   0.582   4.588   1.495 -0.0983 -0.2598  0.0202
 3704ntf    on522614   0.446   4.862   1.419  0.2326  0.2647  0.0698
 3704ntf    on522615   0.667   4.949   1.453  0.2051  0.0832 -0.0315
 3704ntf    on522616   0.468   4.608   1.191 -0.1197 -0.0198  0.0441
 3704ntf    on522617   0.647   4.698   1.046  0.1267 -0.1292 -0.3176
 3704ntf    fn422618   0.405   4.818   0.976  0.0383 -0.3548  0.1479
 3704ntf    fn422619   0.359   4.881   1.177  0.0692 -0.2362 -0.2987
 3704ntf    fn422620   0.521   4.967   1.083 -0.1080 -0.0120 -0.2268
 3705ntf    cn122621   1.313   0.203   3.131  0.5162  0.2142  0.0959
 3705ntf    sn222622   1.406   0.259   2.985  0.6193  0.4192  0.2402
 3705ntf    nn322623   1.327   0.389   2.947 -0.2602 -0.3105 -0.4540
 3705ntf    sn222624   1.364   0.496   2.838 -0.0179  0.2544  0.1797
 3705ntf    cn122625   1.420   0.631   2.946 -0.0160  0.2096  0.2349
 3705ntf    fn422626   1.340   0.085   3.185 -0.4363  0.0410  0.2063
 3705ntf    fn422627   1.323   0.295   3.225 -0.2333 -0.1122  0.4983
 3705ntf    fn422628   1.183   0.204   3.107  0.4904  0.5504  0.2455
 3705ntf    on522629   1.537   0.273   3.045  0.6602 -0.5229  0.3875
 3705ntf    on522630   1.394   0.161   2.880  0.0710  0.5342  0.1958
 3705ntf    on522631   1.247   0.548   2.771  0.1739  0.6114  0.1209
 3705ntf    on522632   1.481   0.467   2.759 -0.1279 -0.3245  0.2244
 3705ntf    fn422633   1.323   0.636   3.036  0.0911  0.1482  0.3533
 3705ntf    fn422634   1.535   0.606   3.006 -0.1742 -0.6060  0.2005
 3705ntf    fn422635   1.425   0.750   2.888 -0.8270  0.3062  0.3447
 3706ntf    cn122636   6.135   1.261   5.915 -0.3811 -0.0981 -0.0488
 3706ntf    sn222637   6.300   1.325   5.954 -0.3622 -0.3370  0.2665
 3706ntf    nn322638   6.361   1.206   6.036 -0.1561 -0.5110 -0.1342
 3706ntf    sn222639   6.438   1.087   5.969  0.0255 -0.2890 -0.3205
 3706ntf    cn122640   6.314   0.961   6.013  0.2062 -0.3537  0.0049
 3706ntf    fn422641   6.064   1.231   6.023 -0.1678  0.0865  0.1454
 3706ntf    fn422642   6.061   1.354   5.856 -0.1965  0.0659 -0.0229
 3706ntf    fn422643   6.135   1.157   5.834 -0.1984 -0.1816  0.0594
 3706ntf    on522644   6.367   1.357   5.830 -0.4406 -0.3544  0.2203
 3706ntf    on522645   6.271   1.438   6.039  0.0353 -0.3126  0.3716
 3706ntf    on522646   6.540   1.044   6.061 -0.0424 -0.0174 -0.1159
 3706ntf    on522647   6.466   1.088   5.828  0.9772  0.2953 -0.1327
 3706ntf    fn422648   6.360   0.839   5.990 -0.1166 -0.3913 -0.4444
 3706ntf    fn422649   6.282   0.967   6.141 -0.1308  0.8017 -0.1243
 3706ntf    fn422650   6.201   0.970   5.946  0.4546  0.7497 -0.2910
 3707ntf    cn122651   5.491   1.860   4.007  0.0754 -0.2709 -0.2705
 3707ntf    sn222652   5.453   1.925   3.842  0.0918  0.2629 -0.0667
 3707ntf    nn322653   5.572   2.027   3.831  0.0865  0.2119 -0.6305
 3707ntf    sn222654   5.700   2.055   3.744  0.5345  0.0095 -0.0414
 3707ntf    cn122655   5.661   2.221   3.680  0.1725  0.0399  0.2504
 3707ntf    fn422656   5.610   1.803   4.001  0.1728 -0.1432  0.3830
 3707ntf    fn422657   5.498   1.958   4.096 -0.0004 -0.2971 -0.2359
 3707ntf    fn422658   5.402   1.770   4.047  0.1354 -0.3178 -0.2417
 3707ntf    on522659   5.458   1.799   3.772 -0.7122  0.1983 -0.0153
 3707ntf    on522660   5.325   1.989   3.857 -0.0845 -0.1576  0.2569
 3707ntf    on522661   5.705   1.979   3.622 -0.1188  0.1088 -0.1332
 3707ntf    on522662   5.822   2.061   3.821  0.3994 -0.1624  0.1873
 3707ntf    fn422663   5.535   2.232   3.642  0.0188 -0.1233  0.7053
 3707ntf    fn422664   5.674   2.322   3.764  0.7621  0.5101 -0.3977
 3707ntf    fn422665   5.738   2.248   3.576 -0.2498  0.1163 -0.0458
 3708ntf    cn122666   2.424   6.716   4.587 -0.0203 -0.2670 -0.0637
 3708ntf    sn222667   2.500   6.735   4.423 -0.1724  0.0683 -0.0944
 3708ntf    nn322668   2.369   6.769   4.343 -0.2768  0.1946  0.1284
 3708ntf    sn222669   2.268   6.675   4.268  0.2767 -0.2625 -0.0527
 3708ntf    cn122670   2.327   6.686   4.097  0.1636  0.5695 -0.0430
 3708ntf    fn422671   2.356   6.605   4.614 -0.4187 -0.0769 -0.2969
 3708ntf    fn422672   2.515   6.729   4.682  0.4535 -0.2141 -0.5208
 3708ntf    fn422673   2.343   6.819   4.602  0.5511  0.2212 -0.3345
 3708ntf    on522674   2.593   6.844   4.433 -0.0332 -0.0862  0.3234
 3708ntf    on522675   2.555   6.604   4.400  0.0780  0.2925 -0.7884
 3708ntf    on522676   2.134   6.728   4.257 -0.0063 -0.8714  0.3841
 3708ntf    on522677   2.279   6.535   4.302 -0.1269 -0.1398  0.6136
 3708ntf    fn422678   2.224   6.674   4.014 -0.0553  0.2517  0.2732
 3708ntf    fn422679   2.387   6.798   4.061  0.4039  0.4381 -0.0491
 3708ntf    fn422680   2.405   6.586   4.059  0.2083  0.4854  0.2719
 3709ntf    cn122681   0.903   0.521   1.432  0.0483  0.3624 -0.1903
 3709ntf    sn222682   0.942   0.668   1.531 -0.0477  0.0246  0.3494
 3709ntf    nn322683   0.843   0.644   1.650 -0.4958 -0.1866 -0.0680
 3709ntf    sn222684   0.750   0.745   1.727  0.0167  0.2735 -0.0500
 3709ntf    cn122685   0.746   0.655   1.885 -0.7418 -0.0115 -0.2298
 3709ntf    fn422686   0.773   0.511   1.414  0.1101  0.1187 -0.5150
 3709ntf    fn422687   0.966   0.519   1.315 -0.1006  0.1755 -0.2663
 3709ntf    fn422688   0.942   0.411   1.494  0.0496  0.4707  0.0017
 3709ntf    on522689   1.081   0.647   1.567 -0.0280 -0.2459  0.1162
 3709ntf    on522690   0.902   0.776   1.444 -0.3412 -0.4669 -0.1288
 3709ntf    on522691   0.616   0.733   1.676 -0.1139 -0.5701  0.4704
 3709ntf    on522692   0.806   0.875   1.751  0.6720  0.0836 -0.5066
 3709ntf    fn422693   0.690   0.537   1.859 -0.3737 -0.1449 -0.4159
 3709ntf    fn422694   0.870   0.650   1.930 -0.8957  0.4661  0.2489
 3709ntf    fn422695   0.675   0.711   1.981  0.1745  0.2278  0.3139
 3710ntf    cn122696   4.585   0.500   3.592 -0.1299  0.0932  0.1555
 3710ntf    sn222697   4.693   0.593   3.705  0.0888 -0.1924  0.1843
 3710ntf    nn322698   4.751   0.703   3.609 -0.2799 -0.4766 -0.3693
 3710ntf    sn222699   4.900   0.726   3.564 -0.2208  0.2805  0.2087
 3710ntf    cn122700   4.900   0.868   3.450  0.2987  0.1627  0.0609
 3710ntf    fn422701   4.492   0.574   3.535  0.0198 -0.1172 -0.3656
 3710ntf    fn422702   4.654   0.443   3.494 -0.4062  0.6200 -0.3517
 3710ntf    fn422703   4.528   0.399   3.656 -0.7414  0.1080 -0.3569
 3710ntf    on522704   4.598   0.644   3.801  0.2076 -0.3871  0.4072
 3710ntf    on522705   4.784   0.489   3.747  0.4215  0.3396  0.8078
 3710ntf    on522706   4.952   0.621   3.481 -0.3742  0.1667  0.2564
 3710ntf    on522707   4.984   0.781   3.667  0.2341 -0.2940  0.1453
 3710ntf    fn422708   4.845   0.974   3.508 -0.1011  0.2680 -0.5050
 3710ntf    fn422709   5.014   0.915   3.402  0.1536  0.3062 -0.1436
 3710ntf    fn422710   4.832   0.849   3.338  0.7230 -0.2044 -0.1399
 3711ntf    cn122711   0.998   3.372   7.144  0.0557 -0.1296 -0.4322
 3711ntf    sn222712   1.066   3.534   7.094 -0.2234  0.0528 -0.2254
 3711ntf    nn322713   0.935   3.599   7.038 -0.2934  0.1792  0.0839
 3711ntf    sn222714   0.823   3.682   7.109 -0.0012  0.4818  0.1921
 3711ntf    cn122715   0.868   3.852   7.063  0.2227  0.3202 -0.1812
 3711ntf    fn422716   0.968   3.301   7.036 -0.1978 -0.1578 -0.3438
 3711ntf    fn422717   1.086   3.302   7.213  0.2424 -0.2357 -0.7747
 3711ntf    fn422718   0.883   3.367   7.209  0.3722 -1.2411  0.0579
 3711ntf    on522719   1.130   3.579   7.216  0.5731 -0.0443 -0.5986
 3711ntf    on522720   1.161   3.510   6.988 -0.2702  0.3512 -0.3344
 3711ntf    on522721   0.824   3.689   7.254  0.6858  0.3517  0.1949
 3711ntf    on522722   0.702   3.664   7.033  0.2220 -0.0100 -0.0484
 3711ntf    fn422723   0.999   3.865   7.051  0.2430  0.2293 -0.0549
 3711ntf    fn422724   0.802   3.884   6.953 -0.5153 -0.1232  0.1290
 3711ntf    fn422725   0.835   3.936   7.160  0.1935  0.4434 -0.2976
 3712ntf    cn122726   4.148   6.510   4.926  0.2113 -0.0319  0.0759
 3712ntf    sn222727   4.295   6.413   4.882  0.0846 -0.1683 -0.0485
 3712ntf    nn322728   4.247   6.273   4.935 -0.1173  0.0498  0.3549
 3712ntf    sn222729   4.254   6.133   4.864 -0.4299  0.2553 -0.0892
 3712ntf    cn122730   4.360   6.047   4.984 -0.5447 -0.1496 -0.2762
 3712ntf    fn422731   4.171   6.640   4.931  0.1056  0.0014 -0.2901
 3712ntf    fn422732   4.046   6.498   4.842  0.0556 -0.3438  0.3071
 3712ntf    fn422733   4.102   6.487   5.048  0.1300  0.1862  0.0872
 3712ntf    on522734   4.317   6.434   4.741 -0.4616 -0.9289 -0.2513
 3712ntf    on522735   4.396   6.469   4.968  0.3587  0.2334 -0.6279
 3712ntf    on522736   4.329   6.113   4.742 -0.0713 -0.6637  0.2693
 3712ntf    on522737   4.138   6.049   4.878 -0.2362 -0.1684 -0.9645
 3712ntf    fn422738   4.424   6.142   5.051 -0.3643 -0.0319 -0.6121
 3712ntf    fn422739   4.281   5.988   5.072 -0.3474 -0.4511 -0.2968
 3712ntf    fn422740   4.456   5.969   4.936  0.1234  0.5073 -0.0312
 3713ntf    cn122741   1.949   5.317   2.356 -0.0533 -0.1923  0.0655
 3713ntf    sn222742   2.029   5.258   2.509  0.3235 -0.1555 -0.1175
 3713ntf    nn322743   1.919   5.161   2.565 -0.0875 -0.1384 -0.8797
 3713ntf    sn222744   1.907   5.006   2.581  0.1135 -0.0542  0.1692
 3713ntf    cn122745   1.733   4.975   2.536  0.1200  0.1339  0.0133
 3713ntf    fn422746   2.032   5.376   2.273 -0.0665  0.0323  0.2105
 3713ntf    fn422747   1.892   5.210   2.303  0.0768 -0.2008 -0.0567
 3713ntf    fn422748   1.856   5.407   2.385  0.3165  0.1843  0.0869
 3713ntf    on522749   2.147   5.190   2.461  0.2122 -0.5305  0.1412
 3713ntf    on522750   2.053   5.379   2.583 -0.3482 -0.1207  0.0451
 3713ntf    on522751   1.913   4.959   2.717 -0.2380 -0.2781  0.1079
 3713ntf    on522752   1.976   4.935   2.476  0.0944 -0.1070  0.1919
 3713ntf    fn422753   1.692   5.042   2.430 -0.2196 -0.0776  0.0111
 3713ntf    fn422754   1.708   4.850   2.503 -0.3139  0.1491  0.2843
 3713ntf    fn422755   1.662   5.015   2.640  0.3856 -0.5416  0.4595
 3714ntf    cn122756   2.703   2.602   1.843  0.2551 -0.0294  0.1576
 3714ntf    sn222757   2.811   2.456   1.842  0.4907  0.1457 -0.0053
 3714ntf    nn322758   2.945   2.531   1.874  0.1271  0.6605  0.3243
 3714ntf    sn222759   3.025   2.558   2.007  0.5039 -0.1398  0.2638
 3714ntf    cn122760   3.195   2.550   1.945  0.4036  0.1104 -0.0429
 3714ntf    fn422761   2.744   2.688   1.751 -0.1531  0.5206  0.4797
 3714ntf    fn422762   2.576   2.572   1.819  0.3039 -0.2142  0.1305
 3714ntf    fn422763   2.707   2.674   1.954 -0.0761 -0.2242  0.2944
 3714ntf    on522764   2.770   2.366   1.946  0.8230 -0.3719 -0.3179
 3714ntf    on522765   2.807   2.420   1.702  0.3709 -0.2313  0.0957
 3714ntf    on522766   3.023   2.449   2.102  0.0584 -0.3502  0.0207
 3714ntf    on522767   3.008   2.693   2.053  0.5414 -0.0434 -0.0102
 3714ntf    fn422768   3.282   2.539   2.044 -0.1844 -0.5236  0.4092
 3714ntf    fn422769   3.218   2.436   1.883 -0.4263  0.0277 -0.2087
 3714ntf    fn422770   3.231   2.649   1.864 -0.0126  0.0378 -0.3191
 3715ntf    cn122771   6.853   3.318   2.424 -0.0633  0.3329 -0.0045
 3715ntf    sn222772   6.702   3.388   2.350 -0.3250 -0.1246  0.0888
 3715ntf    nn322773   6.694   3.527   2.422 -0.3217  0.0508 -0.2484
 3715ntf    sn222774   6.715   3.671   2.362  0.2295  0.0219 -0.1256
 3715ntf    cn122775   6.548   3.707   2.301  0.0838 -0.4333 -0.0029
 3715ntf    fn422776   6.865   3.186   2.428 -0.0238  0.3409  0.1411
 3715ntf    fn422777   6.957   3.371   2.362 -0.0065 -0.2548 -0.4249
 3715ntf    fn422778   6.861   3.364   2.547 -0.3693 -0.1248  0.1906
 3715ntf    on522779   6.722   3.390   2.207 -0.6313 -0.3712  0.0418
 3715ntf    on522780   6.605   3.295   2.402  0.6104 -1.2824 -0.1978
 3715ntf    on522781   6.802   3.695   2.250  0.3152  0.5453  0.0522
 3715ntf    on522782   6.734   3.767   2.468  0.4470 -0.0769 -0.0748
 3715ntf    fn422783   6.537   3.828   2.249  0.0540 -0.2551  0.4109
 3715ntf    fn422784   6.512   3.621   2.208 -0.0889  0.3961 -0.7187
 3715ntf    fn422785   6.459   3.700   2.399 -0.0591 -0.2389 -0.1182
 3716ntf    cn122786   1.507   4.545   2.492  0.3446 -0.0408 -0.0227
 3716ntf    sn222787   1.490   4.383   2.572 -0.1221  0.0938  0.1543
 3716ntf    nn322788   1.432   4.307   2.447  0.2901  0.2173 -0.1129
 3716ntf    sn222789   1.509   4.238   2.329 -0.1498  0.0986 -0.3295
 3716ntf    cn122790   1.395   4.286   2.196 -0.4421 -0.0371 -0.1295
 3716ntf    fn422791   1.538   4.635   2.585  0.4652 -0.2438  0.1338
 3716ntf    fn422792   1.604   4.549   2.402 -0.1201 -0.3911 -0.5378
 3716ntf    fn422793   1.394   4.580   2.432 -0.0033 -0.1432  0.5658
 3716ntf    on522794   1.621   4.346   2.618 -0.2241 -0.3037  0.1299
 3716ntf    on522795   1.390   4.406   2.673 -0.3188  0.0505 -0.0297
 3716ntf    on522796   1.496   4.094   2.334  0.6396  0.0448  0.3995
 3716ntf    on522797   1.637   4.291   2.290  0.0487  0.3776  0.6931
 3716ntf    fn422798   1.272   4.239   2.215 -0.4734 -0.3487 -1.0399
 3716ntf    fn422799   1.373   4.416   2.197 -0.0055  0.0342  0.1886
 3716ntf    fn422800   1.428   4.254   2.072  0.0756 -0.3648  0.0916
 3717ntf    cn122801   4.010   2.429   1.631 -0.0303 -0.0665  0.1517
 3717ntf    sn222802   3.904   2.575   1.609  0.2370  0.1160  0.0783
 3717ntf    nn322803   3.822   2.531   1.482  0.2791 -0.1136  0.1305
 3717ntf    sn222804   3.770   2.637   1.378  0.3513 -0.2926 -0.0864
 3717ntf    cn122805   3.591   2.610   1.391  0.3076  0.2073  0.3812
 3717ntf    fn422806   4.067   2.394   1.517  0.2846 -0.1845  0.3456
 3717ntf    fn422807   4.103   2.457   1.721  0.8796 -0.5311 -0.6372
 3717ntf    fn422808   3.947   2.319   1.669  0.2929 -0.3554 -0.1471
 3717ntf    on522809   3.828   2.566   1.731 -0.2283  0.1051 -0.2068
 3717ntf    on522810   4.000   2.682   1.592  0.3052  0.0453  0.0163
 3717ntf    on522811   3.789   2.606   1.238 -0.1476 -1.6402  0.1276
 3717ntf    on522812   3.778   2.774   1.422 -0.2736 -0.3624  0.2497
 3717ntf    fn422813   3.535   2.667   1.496  0.0674  0.0468  0.3419
 3717ntf    fn422814   3.516   2.656   1.292  0.0262  0.3622  0.6654
 3717ntf    fn422815   3.561   2.481   1.393 -0.1385  0.2960 -0.0969
 3718ntf    cn122816   1.654   2.905   3.508 -0.1182 -0.6406  0.2735
 3718ntf    sn222817   1.585   3.013   3.380  0.1755 -0.0563  0.6074
 3718ntf    nn322818   1.658   2.959   3.252 -0.5547  0.2612  0.0515
 3718ntf    sn222819   1.697   3.041   3.124  0.2456  0.0170  0.1348
 3718ntf    cn122820   1.863   3.103   3.163  0.3508 -0.1433 -0.0558
 3718ntf    fn422821   1.785   2.904   3.523 -0.0594 -0.6066 -0.2330
 3718ntf    fn422822   1.599   2.940   3.624  0.2002  0.2724  0.1520
 3718ntf    fn422823   1.619   2.777   3.499 -0.4902 -0.5351  0.2068
 3718ntf    on522824   1.445   2.983   3.399 -0.0107  0.5204  0.1726
 3718ntf    on522825   1.638   3.138   3.429  0.4315  0.1526 -0.1865
 3718ntf    on522826   1.620   3.161   3.101  0.0980 -0.1088 -0.0227
 3718ntf    on522827   1.716   2.967   3.002 -0.4390  0.4860 -0.2612
 3718ntf    fn422828   1.904   3.177   3.061 -0.3892  0.6528  0.2167
 3718ntf    fn422829   1.867   3.180   3.270 -0.2709 -0.6862  0.3595
 3718ntf    fn422830   1.949   3.005   3.184 -0.0248 -0.4838 -0.1166
 3719ntf    cn122831   6.639   0.471   5.935 -0.0825 -0.0438  0.4370
 3719ntf    sn222832   6.568   0.478   6.102 -0.0621  0.0637  0.4405
 3719ntf    nn322833   6.621   0.335   6.141  0.1003 -0.0699 -0.2595
 3719ntf    sn222834   6.545   0.199   6.123 -0.0457  0.0195 -0.3222
 3719ntf    cn122835   6.569   0.138   6.292  0.2254 -0.3732 -0.5018
 3719ntf    fn422836   6.769   0.447   5.943 -0.0547 -0.0535 -0.0232
 3719ntf    fn422837   6.587   0.373   5.863  0.4832  0.3230 -0.4893
 3719ntf    fn422838   6.617   0.586   5.874 -0.7696 -0.6053 -0.4133
 3719ntf    on522839   6.645   0.580   6.169  0.5451 -0.1391  0.0608
 3719ntf    on522840   6.428   0.501   6.080 -0.0071  0.0147  0.0393
 3719ntf    on522841   6.613   0.102   6.041  0.6693 -0.1751  0.4889
 3719ntf    on522842   6.401   0.206   6.109 -0.0337  0.0017 -0.4590
 3719ntf    fn422843   6.523   0.218   6.387 -0.0459 -0.7882 -0.2776
 3719ntf    fn422844   6.514   0.018   6.306 -0.1551 -0.1862 -0.3945
 3719ntf    fn422845   6.695   0.116   6.328 -0.0131 -0.0331  0.5880
 3720ntf    cn122846   5.215   1.958   1.363 -0.3223 -0.1062 -0.2240
 3720ntf    sn222847   5.172   2.104   1.462  0.0609 -0.1384 -0.0090
 3720ntf    nn322848   5.046   2.158   1.384 -0.2806 -0.4310  0.3367
 3720ntf    sn222849   4.932   2.249   1.442  0.2628  0.2505  0.3535
 3720ntf    cn122850   4.903   2.363   1.303  0.0991  0.1230  0.2825
 3720ntf    fn422851   5.126   1.927   1.270 -0.0343 -0.2957 -0.4399
 3720ntf    fn422852   5.338   1.970   1.315 -0.3393  0.0317 -0.2338
 3720ntf    fn422853   5.222   1.850   1.439 -0.1579 -0.0765 -0.1958
 3720ntf    on522854   5.153   2.043   1.591  0.0183  0.4641  0.2768
 3720ntf    on522855   5.288   2.186   1.437 -0.0532 -0.0697 -0.3248
 3720ntf    on522856   4.952   2.340   1.552  0.0290  0.8413 -0.0898
 3720ntf    on522857   4.807   2.178   1.449  0.0945  0.4580 -0.4175
 3720ntf    fn422858   4.848   2.292   1.206  0.5484 -0.2985  0.3350
 3720ntf    fn422859   4.816   2.458   1.332  0.4422  0.2694  0.8514
 3720ntf    fn422860   5.007   2.425   1.251 -0.2037  0.2237 -0.2100
 3721ntf    cn122861   2.857   2.309   5.136 -0.1824 -0.1198  0.2036
 3721ntf    sn222862   2.835   2.220   5.293 -0.0063 -0.0362  0.2762
 3721ntf    nn322863   2.976   2.232   5.361  0.2623  0.1082 -0.2991
 3721ntf    sn222864   3.013   2.260   5.511 -0.0581 -0.1377 -0.1726
 3721ntf    cn122865   3.147   2.137   5.523 -0.2697 -0.3486  0.0330
 3721ntf    fn422866   2.931   2.236   5.055  0.3130  0.0943  0.4582
 3721ntf    fn422867   2.745   2.341   5.074 -0.0485 -0.3467 -0.1569
 3721ntf    fn422868   2.924   2.423   5.150 -0.3640 -0.0161  0.2342
 3721ntf    on522869   2.733   2.296   5.362 -0.1456 -0.4321  0.5102
 3721ntf    on522870   2.799   2.083   5.267  0.5150 -0.0429 -0.4368
 3721ntf    on522871   2.924   2.217   5.616 -0.2269  1.0190  0.1664
 3721ntf    on522872   3.087   2.383   5.525  0.4596 -0.4661  0.0272
 3721ntf    fn422873   3.097   2.014   5.513  0.1066 -0.5261  0.3414
 3721ntf    fn422874   3.235   2.141   5.424 -0.3059  0.4295  0.0307
 3721ntf    fn422875   3.214   2.148   5.637  0.1725  0.8600 -0.3334
 3722ntf    cn122876   3.542   2.243   6.165 -0.2344  0.0361  0.1543
 3722ntf    sn222877   3.577   2.224   6.343  0.3088  0.0871  0.0550
 3722ntf    nn322878   3.707   2.311   6.355 -0.0001  0.4855  0.5866
 3722ntf    sn222879   3.851   2.267   6.398  0.1008  0.3897  0.1603
 3722ntf    cn122880   3.940   2.258   6.240  0.0134 -0.0723  0.1363
 3722ntf    fn422881   3.598   2.346   6.105 -0.4389  0.2812  0.3792
 3722ntf    fn422882   3.590   2.137   6.102  0.1520  0.1773  0.2078
 3722ntf    fn422883   3.413   2.246   6.134 -0.3092 -0.0236  0.4489
 3722ntf    on522884   3.469   2.292   6.411 -0.0448 -0.0750 -0.3392
 3722ntf    on522885   3.588   2.081   6.353  0.5141  0.0853 -0.1853
 3722ntf    on522886   3.869   2.131   6.441  0.2417  0.1994 -0.4847
 3722ntf    on522887   3.924   2.372   6.465  0.8852  0.1683 -0.3253
 3722ntf    fn422888   3.863   2.265   6.133  0.3793  0.2445 -0.1077
 3722ntf    fn422889   4.031   2.353   6.228  0.0427 -0.0787  0.3107
 3722ntf    fn422890   3.997   2.139   6.230  0.0990 -0.0762  0.6491
 3723ntf    cn122891   1.024   3.729   4.468  0.3265  0.0593 -0.3676
 3723ntf    sn222892   0.860   3.698   4.394 -0.0058  0.2098  0.3048
 3723ntf    nn322893   0.796   3.841   4.387 -0.5983 -0.0611  0.1653
 3723ntf    sn222894   0.644   3.875   4.409 -0.5609  0.1066  0.1675
 3723ntf    cn122895   0.660   3.963   4.568  0.3892 -0.1276  0.2094
 3723ntf    fn422896   1.090   3.835   4.424  0.6857 -0.1054 -0.2298
 3723ntf    fn422897   1.020   3.744   4.599 -0.7296  0.1295 -0.3988
 3723ntf    fn422898   1.104   3.628   4.438 -0.0902 -0.5840  0.6292
 3723ntf    on522899   0.896   3.641   4.267 -0.0308  0.6532  0.0984
 3723ntf    on522900   0.805   3.609   4.493  0.3217  0.4205  0.6831
 3723ntf    on522901   0.555   3.763   4.427  0.4805 -0.8041 -0.2047
 3723ntf    on522902   0.594   3.981   4.325  0.2970  0.3591 -0.0354
 3723ntf    fn422903   0.760   4.049   4.569  0.0575  0.2587  0.0969
 3723ntf    fn422904   0.546   4.026   4.592  0.3336 -0.2380  0.2347
 3723ntf    fn422905   0.684   3.879   4.667  0.3564 -0.2266  0.1337
 3724ntf    cn122906   0.716   5.231   4.364  0.4990 -0.7916  0.6221
 3724ntf    sn222907   0.751   5.374   4.470 -0.1440  0.0146 -0.2393
 3724ntf    nn322908   0.759   5.488   4.363  0.8475 -0.0267 -0.2165
 3724ntf    sn222909   0.640   5.570   4.301  0.4834 -0.2984  0.1144
 3724ntf    cn122910   0.642   5.722   4.401 -0.3101 -0.1116 -0.1524
 3724ntf    fn422911   0.681   5.126   4.437  0.1527 -0.7839  0.4708
 3724ntf    fn422912   0.610   5.260   4.290  1.0889 -0.0762  0.0407
 3724ntf    fn422913   0.807   5.193   4.275 -0.4056  0.8793 -1.0775
 3724ntf    on522914   0.641   5.377   4.564 -0.1932  0.1281 -0.2997
 3724ntf    on522915   0.880   5.340   4.523 -0.1437 -0.2344 -0.3970
 3724ntf    on522916   0.511   5.509   4.321  0.0350  0.4536 -0.4106
 3724ntf    on522917   0.672   5.617   4.168 -0.2545  0.6246  0.2504
 3724ntf    fn422918   0.753   5.790   4.379 -0.3286 -0.1408 -0.3394
 3724ntf    fn422919   0.533   5.794   4.377 -0.2333 -0.0159 -0.2157
 3724ntf    fn422920   0.643   5.705   4.532 -0.4962  0.1631 -0.1139
 3725ntf    cn122921   4.078   0.080   3.191 -0.6748 -0.2210 -0.0235
 3725ntf    sn222922   4.140  -0.043   3.309 -0.0486  0.4119  0.3160
 3725ntf    nn322923   4.295  -0.026   3.299  0.0090 -0.1869  0.1182
 3725ntf    sn222924   4.380   0.057   3.402 -0.0507  0.0447 -0.0169
 3725ntf    cn122925   4.474   0.172   3.298  0.1919 -0.1859 -0.0559
 3725ntf    fn422926   4.131   0.056   3.072 -0.0115  0.0451  0.2118
 3725ntf    fn422927   3.946   0.075   3.183 -0.6578 -0.5158 -0.1262
 3725ntf    fn422928   4.109   0.204   3.224  0.5458 -0.6443  0.4666
 3725ntf    on522929   4.072  -0.027   3.436  0.1608 -0.3085  0.5281
 3725ntf    on522930   4.109  -0.163   3.236 -0.4029  0.3712  0.5254
 3725ntf    on522931   4.480  -0.018   3.474 -0.0628 -0.3199 -0.3769
 3725ntf    on522932   4.299   0.152   3.473 -0.4854 -0.3239 -0.0157
 3725ntf    fn422933   4.394   0.243   3.220 -0.3065 -0.4171  0.2401
 3725ntf    fn422934   4.536   0.263   3.372  0.2743 -0.1967 -0.1125
 3725ntf    fn422935   4.568   0.110   3.229  0.4218  0.1892 -0.0832
 3726ntf    cn122936   3.325   1.300   6.443 -0.4020 -0.0065  0.1133
 3726ntf    sn222937   3.450   1.180   6.497 -0.4326 -0.0101  0.1768
 3726ntf    nn322938   3.534   1.160   6.366  0.1363  0.1119  0.5168
 3726ntf    sn222939   3.676   1.094   6.354  0.0386 -0.0018 -0.0726
 3726ntf    cn122940   3.770   1.216   6.452 -0.2653  0.2058 -0.0362
 3726ntf    fn422941   3.221   1.310   6.525 -0.3631 -0.2009  0.1871
 3726ntf    fn422942   3.388   1.416   6.433 -0.1799 -0.1843 -0.6237
 3726ntf    fn422943   3.273   1.287   6.322  0.6957  0.2257 -0.3873
 3726ntf    on522944   3.512   1.247   6.609 -0.3575 -0.6104  0.4983
 3726ntf    on522945   3.370   1.064   6.528  0.3467 -0.6332 -0.1078
 3726ntf    on522946   3.716   1.106   6.216 -0.0064  0.1663 -0.0721
 3726ntf    on522947   3.698   0.974   6.430  0.7019  0.4454  0.4591
 3726ntf    fn422948   3.897   1.219   6.416 -0.2761  0.0798 -0.0856
 3726ntf    fn422949   3.717   1.334   6.426 -0.4639  0.1755  0.2294
 3726ntf    fn422950   3.759   1.200   6.583  0.0993  0.2521  0.0013
 3727ntf    cn122951   6.961   3.438   3.493  0.1644 -0.0639 -0.0552
 3727ntf    sn222952   7.137   3.480   3.514  0.1135  0.1149  0.0123
 3727ntf    nn322953   7.134   3.618   3.589 -0.2086 -0.0439  0.2973
 3727ntf    sn222954   7.248   3.679   3.678  0.3988 -0.2732 -0.3160
 3727ntf    cn122955   7.197   3.648   3.850  0.1932  0.0713 -0.3139
 3727ntf    fn422956   6.908   3.401   3.608  0.5337  0.4252  0.2760
 3727ntf    fn422957   6.884   3.541   3.457  0.1385  0.2862  0.9851
 3727ntf    fn422958   6.940   3.334   3.414 -0.2467 -0.4449  0.5536
 3727ntf    on522959   7.186   3.363   3.583 -0.9721 -0.0343  0.5716
 3727ntf    on522960   7.168   3.493   3.374  0.0597  0.2775  0.0156
 3727ntf    on522961   7.231   3.822   3.679 -0.4475 -0.3703 -0.0957
 3727ntf    on522962   7.386   3.638   3.675  0.4721 -0.1227  0.5587
 3727ntf    fn422963   7.198   3.522   3.892 -0.0331  0.2927  0.3659
 3727ntf    fn422964   7.275   3.711   3.935  0.0531 -0.1405 -0.0276
 3727ntf    fn422965   7.078   3.702   3.873  0.3613  0.3778 -0.1580
 3728ntf    cn122966   1.378   2.526   0.504  0.1871  0.4064 -0.2866
 3728ntf    sn222967   1.268   2.411   0.591  0.5423  0.2928  0.0129
 3728ntf    nn322968   1.253   2.287   0.496  0.0261  0.5569 -0.2520
 3728ntf    sn222969   1.156   2.292   0.373  0.0084 -0.4217 -0.2840
 3728ntf    cn122970   1.111   2.116   0.374 -0.0318 -0.4113 -0.2410
 3728ntf    fn422971   1.485   2.462   0.460 -0.2877 -0.4344 -0.2376
 3728ntf    fn422972   1.331   2.596   0.401 -0.2514 -0.1647 -0.4786
 3728ntf    fn422973   1.430   2.615   0.587  0.4666 -0.2966  0.3023
 3728ntf    on522974   1.340   2.369   0.709 -0.3921 -0.2495  0.3998
 3728ntf    on522975   1.152   2.488   0.629  0.6198  0.2066  0.4290
 3728ntf    on522976   1.228   2.321   0.251  0.2795 -0.4114 -0.1215
 3728ntf    on522977   1.026   2.353   0.389 -0.0295 -0.4571 -0.4482
 3728ntf    fn422978   1.215   2.047   0.330  0.4935  0.0935  0.1983
 3728ntf    fn422979   1.085   2.076   0.497 -0.1978 -0.0646 -0.1618
 3728ntf    fn422980   1.007   2.092   0.295  0.1752 -0.4032 -0.5166
 3729ntf    cn122981   4.599   0.928   5.731  0.0154  0.1651  0.0605
 3729ntf    sn222982   4.732   1.052   5.726 -0.0354  0.2130 -0.1003
 3729ntf    nn322983   4.654   1.189   5.725 -0.5445 -0.0710  0.0788
 3729ntf    sn222984   4.648   1.304   5.618 -0.1752 -0.1337 -0.0114
 3729ntf    cn122985   4.811   1.384   5.630 -0.1062 -0.2770  0.0183
 3729ntf    fn422986   4.496   0.955   5.651  0.4180  0.0182 -0.5101
 3729ntf    fn422987   4.638   0.804   5.709  0.2810  0.2565  0.0205
 3729ntf    fn422988   4.541   0.930   5.850  0.3077  0.2321  0.2013
 3729ntf    on522989   4.799   1.042   5.854 -0.4086  0.4065  0.1132
 3729ntf    on522990   4.795   1.026   5.599  0.3999  0.1352  0.1324
 3729ntf    on522991   4.558   1.410   5.655  0.1822  0.2620 -0.2651
 3729ntf    on522992   4.627   1.253   5.485 -1.1226  0.4339 -0.0870
 3729ntf    fn422993   4.917   1.307   5.614  0.2526  0.3378 -0.6334
 3729ntf    fn422994   4.830   1.492   5.555  0.6653 -0.5344 -0.1632
 3729ntf    fn422995   4.833   1.428   5.753 -0.0999  0.5253 -0.2631
 3730ntf    cn122996   4.251   0.139   1.155  0.5238 -0.0091 -0.1041
 3730ntf    sn222997   4.153   0.147   1.307  0.2858  0.0003 -0.2583
 3730ntf    nn322998   4.127   0.301   1.318  0.1569 -0.0238 -0.2106
 3730ntf    sn222999   4.025   0.394   1.243  0.1185  0.1011 -0.0043
 3730ntf    cn123000   3.899   0.424   1.371  0.1939 -0.1179  0.1214
 3730ntf    fn423001   4.298   0.020   1.120  0.7402 -0.0449  0.3007
 3730ntf    fn423002   4.186   0.197   1.055 -0.5440 -0.1695  0.4848
 3730ntf    fn423003   4.358   0.216   1.170  0.3210  0.3417 -0.4366
 3730ntf    on523004   4.036   0.065   1.284  0.3269  0.0795 -0.7406
 3730ntf    on523005   4.238   0.093   1.410  0.5142 -0.1016 -0.4994
 3730ntf    on523006   3.953   0.328   1.136  0.0510  0.2075 -0.0241
 3730ntf    on523007   4.086   0.522   1.220 -0.3478  0.3567  0.1705
 3730ntf    fn423008   3.840   0.308   1.399  0.4578 -0.2309  0.2123
 3730ntf    fn423009   3.946   0.477   1.482 -0.1213  0.3631  0.0280
 3730ntf    fn423010   3.788   0.492   1.346 -0.1756 -0.4060  0.9305
 3731ntf    cn123011   5.326   5.301   1.015 -0.0878  0.5574  0.0101
 3731ntf    sn223012   5.466   5.272   0.903 -0.3361  0.0890 -0.1836
 3731ntf    nn323013   5.391   5.209   0.780 -0.6305  0.3068 -0.1192
 3731ntf    sn223014   5.357   5.060   0.744 -0.3989  0.2492 -0.1062
 3731ntf    cn123015   5.514   5.023   0.659 -0.5507 -0.1783 -0.2064
 3731ntf    fn423016   5.277   5.423   1.019  0.2285  0.6681  0.6027
 3731ntf    fn423017   5.220   5.222   1.002  0.1873  0.0620  0.6553
 3731ntf    fn423018   5.369   5.279   1.138 -0.5732  0.7621  0.2201
 3731ntf    on523019   5.515   5.406   0.881  0.2196  0.0095  0.5273
 3731ntf    on523020   5.552   5.179   0.972 -0.2943 -0.1257 -0.5245
 3731ntf    on523021   5.259   5.052   0.639  0.1763  0.2868 -0.6503
 3731ntf    on523022   5.350   4.961   0.849 -0.2326  0.4692  0.1134
 3731ntf    fn423023   5.618   5.061   0.732 -0.2561 -0.3500 -0.5353
 3731ntf    fn423024   5.524   4.896   0.627  0.1816 -0.1364 -0.1639
 3731ntf    fn423025   5.527   5.100   0.552 -0.4215 -0.2461 -0.2396
 3732ntf    cn123026   2.354   2.712   2.943 -0.0878 -0.2212  0.2235
 3732ntf    sn223027   2.379   2.738   2.765  0.2977 -0.0756  0.2980
 3732ntf    nn323028   2.444   2.881   2.775 -0.2564  0.1679  0.4342
 3732ntf    sn223029   2.434   3.006   2.680  0.3045 -0.1534 -0.0553
 3732ntf    cn123030   2.548   3.123   2.762  0.2402  0.0896 -0.3104
 3732ntf    fn423031   2.467   2.711   3.013  0.0707 -0.3555 -0.0337
 3732ntf    fn423032   2.271   2.800   2.995  0.1950  0.1214  0.0940
 3732ntf    fn423033   2.297   2.594   2.964 -0.0354 -0.3392 -0.2953
 3732ntf    on523034   2.472   2.636   2.724  0.4550  0.3881 -0.5140
 3732ntf    on523035   2.245   2.741   2.712  0.4219 -0.1796 -0.0255
 3732ntf    on523036   2.312   3.082   2.680  0.5484  0.2443  0.1469
 3732ntf    on523037   2.498   2.979   2.554 -0.2066 -0.3743 -0.2669
 3732ntf    fn423038   2.515   3.151   2.887  0.3435  0.0916 -0.2837
 3732ntf    fn423039   2.671   3.075   2.772  0.3295  0.4642  0.4475
 3732ntf    fn423040   2.560   3.237   2.696  0.2690  0.2803  0.0225
 3733ntf    cn123041   5.155   3.741   5.525  0.5021 -0.0633  0.1121
 3733ntf    sn223042   5.283   3.850   5.594  0.4416  0.0566  0.0364
 3733ntf    nn323043   5.406   3.858   5.498  0.7071  0.7113  0.4273
 3733ntf    sn223044   5.537   3.771   5.508  0.1340 -0.2109 -0.0358
 3733ntf    cn123045   5.643   3.861   5.391 -0.0001 -0.0603 -0.0418
 3733ntf    fn423046   5.064   3.706   5.615  0.0432  0.0062 -0.3196
 3733ntf    fn423047   5.078   3.794   5.432  0.0010  0.3038  0.7268
 3733ntf    fn423048   5.200   3.627   5.475 -0.0279 -0.1737 -0.1214
 3733ntf    on523049   5.228   3.983   5.601  0.3432  0.0963 -1.3384
 3733ntf    on523050   5.310   3.787   5.721  0.3396 -0.1617 -0.0499
 3733ntf    on523051   5.521   3.640   5.450 -0.5372  0.1988 -0.8078
 3733ntf    on523052   5.615   3.778   5.628  0.6910  0.3541 -0.4255
 3733ntf    fn423053   5.664   3.988   5.425 -0.8508 -0.0686  0.5626
 3733ntf    fn423054   5.762   3.806   5.370  0.1492  0.3505 -0.2878
 3733ntf    fn423055   5.581   3.878   5.276  0.0831  0.2267 -0.0447
 3734ntf    cn123056   0.425   6.555   2.466 -0.1568  0.1706  0.2587
 3734ntf    sn223057   0.297   6.595   2.344  0.0391  0.1855  0.0569
 3734ntf    nn323058   0.398   6.667   2.248  0.2200  0.0171  0.1226
 3734ntf    sn223059   0.395   6.664   2.091  0.0135 -0.3432  0.1325
 3734ntf    cn123060   0.520   6.534   2.076 -0.2165 -0.5637  0.1176
 3734ntf    fn423061   0.464   6.668   2.521 -0.4800  0.4485 -0.0809
 3734ntf    fn423062   0.383   6.474   2.563  0.0786 -0.0920  0.1448
 3734ntf    fn423063   0.535   6.502   2.414 -0.2777  0.1713  0.0010
 3734ntf    on523064   0.252   6.471   2.286 -0.8681  0.2048  0.6920
 3734ntf    on523065   0.198   6.677   2.410 -0.2292 -0.1977  0.1332
 3734ntf    on523066   0.456   6.779   2.030 -0.3718  0.1366  0.6432
 3734ntf    on523067   0.283   6.610   2.018  0.0649 -0.0118 -0.1944
 3734ntf    fn423068   0.643   6.580   2.064 -0.2631 -0.5240 -0.2434
 3734ntf    fn423069   0.523   6.450   2.178 -0.0245 -0.2577  0.3647
 3734ntf    fn423070   0.492   6.463   1.968 -0.1515 -0.1560 -0.1683
 3735ntf    cn123071   2.906   5.197   5.769  0.0631  0.0065  0.3596
 3735ntf    sn223072   2.899   5.378   5.758  0.4482 -0.0076 -0.1992
 3735ntf    nn323073   2.934   5.400   5.607 -0.3597  0.7818 -0.2825
 3735ntf    sn223074   3.055   5.466   5.532 -0.0061  0.1833 -0.2468
 3735ntf    cn123075   3.147   5.315   5.488  0.0712  0.2154 -0.1945
 3735ntf    fn423076   2.826   5.152   5.674 -0.2480 -0.1959  0.7145
 3735ntf    fn423077   3.030   5.152   5.756  0.0412  0.0190  0.1105
 3735ntf    fn423078   2.864   5.145   5.883 -0.0037 -0.1333  0.2723
 3735ntf    on523079   2.760   5.404   5.788  0.3572  0.0762 -0.6943
 3735ntf    on523080   2.995   5.426   5.855  0.2972 -0.2028  0.0492
 3735ntf    on523081   3.148   5.537   5.615  0.1776 -0.1826 -0.1351
 3735ntf    on523082   3.025   5.530   5.406  0.3184  0.3656 -0.2317
 3735ntf    fn423083   3.257   5.354   5.427  0.0186  1.0559  0.2330
 3735ntf    fn423084   3.195   5.246   5.590 -0.2146 -0.3726 -0.4511
 3735ntf    fn423085   3.082   5.234   5.406 -0.2580  0.4038 -0.1217
 3736ntf    cn123086   7.129   6.263   2.957 -0.2424 -0.3802 -0.0099
 3736ntf    sn223087   7.172   6.421   3.037  0.1407 -0.3589 -0.2562
 3736ntf    nn323088   7.328   6.406   3.035  0.1799  0.0002  0.0826
 3736ntf    sn223089   7.434   6.451   2.928  0.0862 -0.0443 -0.0295
 3736ntf    cn123090   7.541   6.549   3.037  0.2709 -0.2092 -0.0637
 3736ntf    fn423091   7.220   6.234   2.865 -0.0282  0.1787  0.0240
 3736ntf    fn423092   7.136   6.158   3.037 -0.0888  0.0804  0.5898
 3736ntf    fn423093   7.008   6.268   2.905 -0.2331 -0.0448 -0.0004
 3736ntf    on523094   7.114   6.525   2.956  0.6852 -0.1165 -0.3371
 3736ntf    on523095   7.119   6.406   3.170 -0.2902  0.2996 -0.3474
 3736ntf    on523096   7.390   6.535   2.819  0.4007 -0.1383 -0.2298
 3736ntf    on523097   7.524   6.343   2.897  0.4675  0.3322 -0.2381
 3736ntf    fn423098   7.581   6.494   3.151  0.2447  0.2585  0.1753
 3736ntf    fn423099   7.638   6.609   2.970 -0.1788  0.9125  0.2641
 3736ntf    fn423100   7.465   6.652   3.071  0.3714 -0.2379  0.2479
 3737ntf    cn123101   3.055   3.310   2.801  0.0030  0.2155 -0.3201
 3737ntf    sn223102   3.094   3.155   2.714  0.2339  0.0020  0.1610
 3737ntf    nn323103   3.172   3.214   2.592  0.0732 -0.1523 -0.0160
 3737ntf    sn223104   3.126   3.227   2.442 -0.3726 -0.0561  0.1277
 3737ntf    cn123105   3.206   3.080   2.371 -0.0357  0.2180 -0.0629
 3737ntf    fn423106   3.160   3.368   2.857  0.0994  0.4540 -0.7494
 3737ntf    fn423107   2.996   3.397   2.721 -0.3822  0.1412 -0.1203
 3737ntf    fn423108   2.975   3.293   2.905  0.5471  0.5143  0.1547
 3737ntf    on523109   3.185   3.088   2.804 -0.1261 -0.3875  0.2365
 3737ntf    on523110   2.966   3.093   2.692 -0.0385  0.6780 -0.1919
 3737ntf    on523111   3.188   3.339   2.376  0.0067 -0.5425 -0.3556
 3737ntf    on523112   2.986   3.215   2.410 -0.2850  0.1639 -0.3526
 3737ntf    fn423113   3.219   3.082   2.239  0.5612 -0.3042 -0.0181
 3737ntf    fn423114   3.335   3.075   2.398 -0.2270 -0.4219  0.7697
 3737ntf    fn423115   3.145   2.964   2.386 -0.0598  0.0717 -1.1867
 3738ntf    cn123116   3.080   1.050   6.084  0.1063  0.0756 -0.0336
 3738ntf    sn223117   3.102   0.871   6.102 -0.0774  0.0859  0.2958
 3738ntf    nn323118   3.168   0.842   5.963 -0.1563 -0.0602  0.2882
 3738ntf    sn223119   3.100   0.795   5.829 -0.4319 -0.2309  0.4887
 3738ntf    cn123120   3.199   0.652   5.777 -0.3469  0.0203 -0.0432
 3738ntf    fn423121   3.003   1.082   5.981  0.3230  0.0417 -0.2079
 3738ntf    fn423122   3.010   1.105   6.182  0.2371  0.1528  0.0161
 3738ntf    fn423123   3.195   1.116   6.087  0.2695 -0.2020 -0.1676
 3738ntf    on523124   3.198   0.857   6.210 -0.5745  0.1371  0.7473
 3738ntf    on523125   2.967   0.822   6.115 -0.3636  1.0082  0.9044
 3738ntf    on523126   3.119   0.885   5.718 -0.1447 -0.7939  0.0809
 3738ntf    on523127   2.964   0.746   5.838 -0.3645 -0.3906  0.6326
 3738ntf    fn423128   3.325   0.677   5.746 -0.0672 -1.0699  0.1974
 3738ntf    fn423129   3.199   0.556   5.868  0.2045  0.3468  0.3080
 3738ntf    fn423130   3.153   0.590   5.670 -0.3243  0.0412 -0.0647
 3739ntf    cn123131   3.893   6.619   0.974  0.1847 -0.3042 -0.4390
 3739ntf    sn223132   3.976   6.781   0.969  0.2249 -0.3003  0.1807
 3739ntf    nn323133   3.859   6.874   1.016  0.0732 -0.1944 -0.3918
 3739ntf    sn223134   3.736   6.942   0.946 -0.0731 -0.2915 -0.2315
 3739ntf    cn123135   3.808   7.108   0.926 -0.1990 -0.1633  0.3803
 3739ntf    fn423136   3.972   6.519   1.010 -0.1530 -0.3789  0.1046
 3739ntf    fn423137   3.800   6.626   1.068  0.6549 -0.4481  0.0463
 3739ntf    fn423138   3.833   6.593   0.859 -0.9777 -0.1963  0.1342
 3739ntf    on523139   4.087   6.776   1.060  0.7044 -0.0193 -0.3821
 3739ntf    on523140   4.013   6.795   0.830 -0.4205  0.7794  0.1088
 3739ntf    on523141   3.627   6.975   1.034  0.5807  0.0680  0.4561
 3739ntf    on523142   3.707   6.896   0.813 -0.2203  0.1841 -0.3680
 3739ntf    fn423143   3.744   7.186   0.840 -0.2064  0.3067  0.7992
 3739ntf    fn423144   3.810   7.178   1.039  0.5572  0.4586 -0.0101
 3739ntf    fn423145   3.934   7.113   0.887 -0.2412 -0.2630  0.2333
 3740ntf    cn123146   0.094   4.956   4.614  0.0740 -0.3322 -0.2916
 3740ntf    sn223147   0.124   4.786   4.670  0.0037 -0.2224  0.0814
 3740ntf    nn323148   0.184   4.716   4.542 -0.7979 -0.7677 -0.0011
 3740ntf    sn223149   0.301   4.614   4.525  0.1727  0.2781  0.2668
 3740ntf    cn123150   0.438   4.726   4.484  0.1052  0.1320 -0.3657
 3740ntf    fn423151   0.212   5.011   4.592 -0.1357  0.0756 -0.4151
 3740ntf    fn423152   0.027   4.950   4.500 -0.1540  0.1973 -0.1891
 3740ntf    fn423153   0.038   5.027   4.711  0.1329 -0.3919 -0.2131
 3740ntf    on523154   0.205   4.799   4.789 -0.1023 -0.1090  0.1403
 3740ntf    on523155  -0.007   4.735   4.699 -0.0187 -0.1333  0.1358
 3740ntf    on523156   0.288   4.528   4.410 -0.7133  0.4714  0.2145
 3740ntf    on523157   0.342   4.553   4.649 -0.1583 -0.3863  0.0531
 3740ntf    fn423158   0.550   4.661   4.452  0.0675 -0.0982 -0.0326
 3740ntf    fn423159   0.408   4.799   4.378  0.3922  0.2290 -0.3814
 3740ntf    fn423160   0.472   4.812   4.578  0.2447 -0.6283  0.2964
 3741ntf    cn123161   1.177   4.457   0.486  0.4033  0.3572 -0.0899
 3741ntf    sn223162   1.275   4.320   0.555 -0.1377  0.1827  0.3348
 3741ntf    nn323163   1.414   4.333   0.483  0.0467 -0.4741  0.5703
 3741ntf    sn223164   1.483   4.244   0.374 -0.0934  0.1877 -0.0588
 3741ntf    cn123165   1.663   4.268   0.389 -0.1117  0.1704  0.1893
 3741ntf    fn423166   1.122   4.538   0.575  0.0983 -0.1337  0.1717
 3741ntf    fn423167   1.249   4.537   0.409  0.3653  0.3663 -0.1160
 3741ntf    fn423168   1.075   4.416   0.413  0.1554  0.1140  0.3892
 3741ntf    on523169   1.286   4.354   0.695  0.2038 -0.1792  0.3956
 3741ntf    on523170   1.199   4.204   0.517  0.7762 -0.2480 -0.2108
 3741ntf    on523171   1.451   4.298   0.244 -0.0100  0.9811  0.2447
 3741ntf    on523172   1.451   4.104   0.385 -0.2326  0.2316  0.0991
 3741ntf    fn423173   1.711   4.238   0.508  0.3595  0.5097  0.0853
 3741ntf    fn423174   1.726   4.197   0.297  0.1227  0.6007  0.0115
 3741ntf    fn423175   1.686   4.394   0.354 -0.1778  0.0483 -0.2995
 3742ntf    cn123176   3.944   7.139   4.998 -0.0656 -0.2945  0.2006
 3742ntf    sn223177   4.079   7.258   5.024 -0.1889 -0.0556 -0.2493
 3742ntf    nn323178   4.024   7.371   4.930 -0.1258  0.1246 -0.0693
 3742ntf    sn223179   4.108   7.448   4.821 -0.0377 -0.2926 -0.2983
 3742ntf    cn123180   4.064   7.347   4.677 -0.0472  0.3009 -0.7144
 3742ntf    fn423181   3.939   7.092   4.874  0.0840  0.2879 -0.0299
 3742ntf    fn423182   3.943   7.036   5.081  0.1046 -0.4358  0.0308
 3742ntf    fn423183   3.827   7.197   5.012  0.0987  0.1344 -0.1798
 3742ntf    on523184   4.070   7.286   5.165 -0.5140 -0.8533 -0.1042
 3742ntf    on523185   4.195   7.186   4.979 -0.1359  0.4120 -0.8805
 3742ntf    on523186   4.252   7.446   4.829 -0.0695 -0.1058  0.4327
 3742ntf    on523187   4.050   7.579   4.804  0.8641  0.0850 -0.5261
 3742ntf    fn423188   4.115   7.225   4.676 -0.0284  0.3055 -0.3841
 3742ntf    fn423189   3.934   7.327   4.668 -0.1364  0.0099  0.9475
 3742ntf    fn423190   4.099   7.408   4.565  0.2680  0.2127 -0.6673
 3743ntf    cn123191   1.599   2.902   0.488 -0.2875 -0.1958  0.2270
 3743ntf    sn223192   1.756   2.811   0.473 -0.2601 -0.1299  0.1094
 3743ntf    nn323193   1.841   2.924   0.404 -0.6157  0.0368 -0.0557
 3743ntf    sn223194   1.852   2.957   0.251  0.1697 -0.0162 -0.0119
 3743ntf    cn123195   1.803   3.131   0.261  0.3105  0.0065  0.2971
 3743ntf    fn423196   1.534   2.921   0.374  0.4363 -0.1312 -0.1814
 3743ntf    fn423197   1.516   2.830   0.561  0.1356 -0.7792  0.1433
 3743ntf    fn423198   1.610   3.024   0.538 -0.0027  0.2818 -0.9492
 3743ntf    on523199   1.785   2.795   0.613  0.0150  0.1417  0.0859
 3743ntf    on523200   1.730   2.697   0.390  0.9633 -0.1107 -0.3279
 3743ntf    on523201   1.753   2.893   0.167 -0.0119 -0.4381  0.5142
 3743ntf    on523202   1.992   2.957   0.216  0.1969 -0.2554  0.0951
 3743ntf    fn423203   1.824   3.188   0.144 -0.1369 -0.6116 -0.0891
 3743ntf    fn423204   1.677   3.144   0.299  0.2694 -0.3362  0.2760
 3743ntf    fn423205   1.859   3.202   0.358 -0.0590  0.5334  0.1312
 3744ntf    cn123206   4.536   1.646   4.387 -0.3514  0.0486 -0.2644
 3744ntf    sn223207   4.525   1.810   4.310 -0.2565  0.2081  0.0644
 3744ntf    nn323208   4.379   1.805   4.252 -0.1326  0.4581 -0.2742
 3744ntf    sn223209   4.329   1.861   4.114 -0.1408  0.0411 -0.4412
 3744ntf    cn123210   4.347   1.712   4.011 -0.2691 -0.1757 -0.1521
 3744ntf    fn423211   4.466   1.619   4.495  0.3778 -0.7944  0.0161
 3744ntf    fn423212   4.514   1.562   4.286  0.6533 -0.1469 -0.3325
 3744ntf    fn423213   4.662   1.631   4.425 -0.5225  0.4012  0.4406
 3744ntf    on523214   4.538   1.906   4.417 -0.5786  0.5235 -0.1768
 3744ntf    on523215   4.632   1.813   4.214 -0.0540 -0.1009  0.2785
 3744ntf    on523216   4.403   1.968   4.053 -0.4873  0.3837 -0.2640
 3744ntf    on523217   4.186   1.879   4.112 -0.1674 -0.0424  0.2419
 3744ntf    fn423218   4.281   1.617   4.076 -0.3081  0.4546  0.7417
 3744ntf    fn423219   4.296   1.731   3.890 -0.4914  0.3823  0.0238
 3744ntf    fn423220   4.471   1.669   3.995 -0.0422  0.2959  0.3177
 3745ntf    cn123221   6.609   4.721   4.201  0.1564  0.2638 -0.1006
 3745ntf    sn223222   6.711   4.732   4.352  0.3615  0.0541 -0.2225
 3745ntf    nn323223   6.741   4.885   4.365 -0.0593  0.1012  0.2456
 3745ntf    sn223224   6.686   4.988   4.470 -0.1909 -0.0966  0.3701
 3745ntf    cn123225   6.743   5.149   4.409  0.1885 -0.3727 -0.0138
 3745ntf    fn423226   6.499   4.795   4.209 -0.1385 -0.2040  0.1614
 3745ntf    fn423227   6.688   4.767   4.105  0.1486 -0.1928 -0.3234
 3745ntf    fn423228   6.584   4.594   4.179 -0.1570  0.2894  0.1022
 3745ntf    on523229   6.621   4.681   4.452  0.0648  0.7605 -0.1251
 3745ntf    on523230   6.822   4.646   4.319 -0.3141 -0.6678 -0.6650
 3745ntf    on523231   6.748   4.978   4.599  0.4089  0.0174  0.0930
 3745ntf    on523232   6.543   5.008   4.467 -0.1776 -0.0328  0.0873
 3745ntf    fn423233   6.865   5.145   4.358  0.2379  0.2802  0.0407
 3745ntf    fn423234   6.657   5.201   4.323  0.2794 -0.4222 -0.1343
 3745ntf    fn423235   6.754   5.237   4.507 -0.4266 -0.3201  0.0122
 3746ntf    cn123236   1.330   5.716   5.516 -0.0644  0.6831  0.3405
 3746ntf    sn223237   1.239   5.632   5.649  0.0650  0.0172  0.0128
 3746ntf    nn323238   1.195   5.754   5.738 -0.5221  0.1654 -0.4746
 3746ntf    sn223239   1.165   5.771   5.891 -0.0465 -0.0293 -0.3605
 3746ntf    cn123240   0.984   5.761   5.888 -0.0668  0.3667 -0.5018
 3746ntf    fn423241   1.379   5.633   5.426  0.0513  0.4956  0.5750
 3746ntf    fn423242   1.250   5.790   5.441 -0.0206  0.2520 -0.1370
 3746ntf    fn423243   1.432   5.791   5.554 -0.0309  0.6961  0.2258
 3746ntf    on523244   1.128   5.577   5.574 -0.6553  0.6164  0.6181
 3746ntf    on523245   1.331   5.539   5.709 -0.0006  0.1983  0.3986
 3746ntf    on523246   1.193   5.902   5.944  0.3771 -0.1609 -0.2482
 3746ntf    on523247   1.205   5.659   5.973  0.1645  0.2933 -0.0154
 3746ntf    fn423248   0.925   5.867   5.836  0.2462  0.8257  0.0652
 3746ntf    fn423249   0.940   5.659   5.816 -0.3589  0.0954  0.0499
 3746ntf    fn423250   0.943   5.735   6.011 -0.4419  0.1363 -0.6728
 3747ntf    cn123251   2.107   3.402   3.468  0.0766  0.5216  0.3331
 3747ntf    sn223252   2.194   3.561   3.479 -0.0289  0.5893  0.1958
 3747ntf    nn323253   2.262   3.544   3.620 -0.6002  0.1512  0.4199
 3747ntf    sn223254   2.314   3.656   3.716 -0.1753  0.0647  0.2918
 3747ntf    cn123255   2.471   3.583   3.772 -0.0106 -0.0678 -0.3418
 3747ntf    fn423256   2.022   3.389   3.368 -0.0173 -0.3530  0.5195
 3747ntf    fn423257   2.191   3.300   3.466  0.0181  0.4831 -0.5792
 3747ntf    fn423258   2.032   3.381   3.575 -0.2856 -0.2298 -0.0609
 3747ntf    on523259   2.287   3.551   3.369  0.2442 -0.4581  0.5104
 3747ntf    on523260   2.088   3.659   3.483 -0.3113  0.2767  0.4256
 3747ntf    on523261   2.233   3.670   3.835  0.4525  0.0417  0.7302
 3747ntf    on523262   2.355   3.775   3.646 -0.5512  0.3956  0.6301
 3747ntf    fn423263   2.530   3.655   3.865  0.3712 -0.4321 -0.2980
 3747ntf    fn423264   2.453   3.462   3.824  0.7580  0.1311  0.4073
 3747ntf    fn423265   2.552   3.581   3.668 -0.5034 -0.3247 -0.7260
 3748ntf    cn123266   4.141   0.408   6.619 -0.0372 -0.3755  0.5037
 3748ntf    sn223267   3.987   0.381   6.712 -0.2838  0.0553  0.2240
 3748ntf    nn323268   4.019   0.235   6.762 -0.5466 -0.0250  0.1598
 3748ntf    sn223269   3.972   0.097   6.705 -0.0619 -0.1789  0.1238
 3748ntf    cn123270   4.137   0.032   6.668 -0.0217 -0.1424  0.2412
 3748ntf    fn423271   4.142   0.529   6.567  0.2918 -0.8147 -0.5497
 3748ntf    fn423272   4.245   0.398   6.701  0.2146 -0.0424  0.2279
 3748ntf    fn423273   4.161   0.323   6.519 -0.2292 -0.2015  0.3171
 3748ntf    on523274   3.994   0.479   6.817  0.0986 -0.0029  0.2548
 3748ntf    on523275   3.884   0.401   6.613  0.2256  0.2714 -0.2704
 3748ntf    on523276   3.898   0.093   6.581  0.2267 -1.3273 -0.0232
 3748ntf    on523277   3.929   0.001   6.804 -0.1659 -0.2501  0.0108
 3748ntf    fn423278   4.225   0.037   6.767  0.0109  0.2567  0.1927
 3748ntf    fn423279   4.137  -0.096   6.636  0.4498 -0.1189  0.1364
 3748ntf    fn423280   4.197   0.091   6.566 -0.2552 -0.0764  0.1436
 3749ntf    cn123281   6.661   3.482   0.969 -0.1085  0.2145  0.0399
 3749ntf    sn223282   6.671   3.352   1.096  0.1339  0.2368  0.0440
 3749ntf    nn323283   6.801   3.398   1.170  0.5022 -0.1827 -0.3391
 3749ntf    sn223284   6.941   3.329   1.193  0.4308 -0.1630  0.1784
 3749ntf    cn123285   7.015   3.438   1.319  0.0584  0.4723 -0.1462
 3749ntf    fn423286   6.611   3.595   1.017  0.0949  0.2866  0.0799
 3749ntf    fn423287   6.784   3.512   0.931 -0.1467  0.3731  0.0405
 3749ntf    fn423288   6.593   3.446   0.861  0.2162  0.0388 -0.1058
 3749ntf    on523289   6.553   3.382   1.174  0.0136 -0.1623  0.0178
 3749ntf    on523290   6.664   3.228   1.022 -0.2894 -0.2062  0.8072
 3749ntf    on523291   7.034   3.342   1.083 -0.1295  0.4571 -0.2302
 3749ntf    on523292   6.934   3.202   1.260 -0.4394 -0.1786  0.0679
 3749ntf    fn423293   6.950   3.435   1.434  0.2538 -0.7824 -0.0562
 3749ntf    fn423294   7.133   3.386   1.346 -0.3237 -0.3060  0.0751
 3749ntf    fn423295   7.034   3.565   1.287  0.4060  0.4107 -0.1786
 3750ntf    cn123296   1.438   6.317   2.835 -0.1483  0.4997  0.3808
 3750ntf    sn223297   1.498   6.364   2.670 -0.2435 -0.0922  0.1757
 3750ntf    nn323298   1.589   6.238   2.649  0.4685  0.4199  0.1529
 3750ntf    sn223299   1.562   6.107   2.566  0.1811  0.4213  0.2460
 3750ntf    cn123300   1.665   5.998   2.668 -0.1048  0.1531  0.2512
 3750ntf    fn423301   1.345   6.394   2.888 -0.0165  0.5404  0.5543
 3750ntf    fn423302   1.374   6.202   2.819  0.5064  0.1721  0.0523
 3750ntf    fn423303   1.531   6.301   2.928  0.1062  0.2399  0.0860
 3750ntf    on523304   1.382   6.375   2.585  0.1224  0.5249 -0.2530
 3750ntf    on523305   1.583   6.479   2.688 -0.4734  0.1503 -0.2661
 3750ntf    on523306   1.618   6.100   2.434 -0.5132 -0.6330 -0.0060
 3750ntf    on523307   1.437   6.036   2.582  0.0086  0.6997  0.1491
 3750ntf    fn423308   1.613   5.959   2.784  0.3429  0.0514  0.4208
 3750ntf    fn423309   1.716   5.890   2.612  0.4261  0.3284  0.3834
 3750ntf    fn423310   1.774   6.068   2.697  0.2318 -0.0939 -0.4068
 3751ntf    cn123311   5.585   6.847   0.214  0.3333  0.4934  0.1648
 3751ntf    sn223312   5.643   7.005   0.146  0.1305  0.3987 -0.2300
 3751ntf    nn323313   5.575   7.098   0.253 -0.4360  0.1985 -0.4127
 3751ntf    sn223314   5.634   7.159   0.385 -0.0180 -0.1342 -0.4408
 3751ntf    cn123315   5.691   7.320   0.324  0.4451 -0.0558  0.1898
 3751ntf    fn423316   5.574   6.750   0.125 -0.3056  0.1873  0.5684
 3751ntf    fn423317   5.661   6.805   0.315 -0.0930 -0.0787  0.2535
 3751ntf    fn423318   5.467   6.868   0.270  0.2627  0.2934  0.0934
 3751ntf    on523319   5.787   6.993   0.145  0.1079  0.0997 -0.0998
 3751ntf    on523320   5.586   7.015   0.014 -0.2668 -0.7666 -0.1519
 3751ntf    on523321   5.751   7.093   0.436  0.0409 -0.2808 -0.7679
 3751ntf    on523322   5.525   7.190   0.474 -0.1271 -0.0288 -0.6103
 3751ntf    fn423323   5.742   7.399   0.417  0.0834  0.2758  0.1121
 3751ntf    fn423324   5.785   7.301   0.233 -0.2445 -0.5337 -0.4399
 3751ntf    fn423325   5.592   7.389   0.269  0.3306 -0.5422 -0.2240
 3752ntf    cn123326   0.025   0.802   3.179  0.3697 -0.3968  0.3395
 3752ntf    sn223327   0.072   0.629   3.148  0.1392 -0.3636 -0.2155
 3752ntf    nn323328   0.131   0.631   3.003  0.0036 -0.1247 -0.2684
 3752ntf    sn223329   0.063   0.688   2.873  0.1831  0.2681 -0.1914
 3752ntf    cn123330   0.096   0.545   2.765  0.2146 -0.0698  0.2648
 3752ntf    fn423331   0.116   0.895   3.157 -0.0357 -0.0266  0.2049
 3752ntf    fn423332  -0.083   0.834   3.108  0.3275  0.1547  0.6428
 3752ntf    fn423333  -0.011   0.822   3.305 -0.2899  0.4216  0.0342
 3752ntf    on523334   0.181   0.610   3.240 -0.3450 -0.4112  0.3586
 3752ntf    on523335  -0.046   0.552   3.178 -0.1314  0.0408 -0.2296
 3752ntf    on523336   0.124   0.799   2.805  0.0707  0.1479 -0.4903
 3752ntf    on523337  -0.081   0.693   2.872  0.1944  0.5771 -0.1954
 3752ntf    fn423338  -0.014   0.518   2.697  0.1667  0.1673  0.2474
 3752ntf    fn423339   0.189   0.587   2.682 -0.1718 -0.1992 -0.2384
 3752ntf    fn423340   0.124   0.430   2.825 -0.3482 -0.1372  0.4044
 3753ntf    cn123341   0.186   3.197   6.286  0.3340 -0.1792 -0.1704
 3753ntf    sn223342   0.347   3.266   6.238  0.2446  0.1825  0.0489
 3753ntf    nn323343   0.302   3.413   6.208 -0.2782 -0.1289 -0.6971
 3753ntf    sn223344   0.307   3.532   6.310 -0.1025 -0.5240 -0.2432
 3753ntf    cn123345   0.146   3.604   6.268 -0.1578 -0.5646 -0.1006
 3753ntf    fn423346   0.176   3.068   6.256  0.1089 -0.1602 -0.1803
 3753ntf    fn423347   0.163   3.220   6.414 -0.0069  0.3524 -0.3256
 3753ntf    fn423348   0.085   3.243   6.214 -0.1416  0.3476  0.8142
 3753ntf    on523349   0.430   3.240   6.354 -0.3801 -0.0507  0.4466
 3753ntf    on523350   0.368   3.196   6.114  0.5093 -0.1144  0.2572
 3753ntf    on523351   0.398   3.640   6.281 -0.3786 -0.3070 -0.3048
 3753ntf    on523352   0.290   3.500   6.449 -0.1355  0.1413 -0.0931
 3753ntf    fn423353   0.120   3.706   6.347  0.3239 -0.3285 -0.2444
 3753ntf    fn423354   0.157   3.654   6.146 -0.0672 -0.6142 -0.1122
 3753ntf    fn423355   0.039   3.525   6.274 -0.3581 -0.3271 -0.5093
 3754ntf    cn123356   6.618   4.128   2.234  0.3992  0.1273  0.3125
 3754ntf    sn223357   6.558   4.259   2.123  0.3321 -0.0688  0.1174
 3754ntf    nn323358   6.508   4.353   2.238  0.0697 -0.0399 -0.0204
 3754ntf    sn223359   6.585   4.480   2.287 -0.1423  0.0370  0.1119
 3754ntf    cn123360   6.515   4.592   2.161  0.2509 -0.2002 -0.3200
 3754ntf    fn423361   6.706   4.164   2.326  0.3561  0.2459  0.3076
 3754ntf    fn423362   6.527   4.064   2.306  0.2768 -0.1351 -0.0720
 3754ntf    fn423363   6.676   4.030   2.167  0.2142  0.3321 -0.1523
 3754ntf    on523364   6.678   4.290   2.049 -0.1109 -0.5164 -0.8099
 3754ntf    on523365   6.449   4.193   2.056 -0.3587  1.0179  0.1566
 3754ntf    on523366   6.727   4.478   2.267 -0.2409 -0.3207 -0.5939
 3754ntf    on523367   6.538   4.531   2.414  0.1032  1.0193 -0.1798
 3754ntf    fn423368   6.566   4.558   2.044 -0.2094  0.2697 -0.6617
 3754ntf    fn423369   6.384   4.575   2.168  0.2148  0.0987 -0.2363
 3754ntf    fn423370   6.542   4.720   2.181 -0.0517 -0.2354  0.3548
 3755ntf    cn123371   1.823   0.965   4.613 -0.3577 -0.0527 -0.0618
 3755ntf    sn223372   1.774   0.871   4.466 -0.2847  0.2244 -0.2657
 3755ntf    nn323373   1.880   0.756   4.480 -0.2669  0.2694 -0.0394
 3755ntf    sn223374   1.868   0.613   4.417  0.1629  0.1785  0.0794
 3755ntf    cn123375   2.012   0.627   4.307  0.1355  0.1187  0.0361
 3755ntf    fn423376   1.756   1.078   4.626  0.2891  0.3447 -0.1301
 3755ntf    fn423377   1.803   0.901   4.727  0.1953 -0.3117 -0.1073
 3755ntf    fn423378   1.949   1.002   4.598 -0.3889  0.0529 -0.0629
 3755ntf    on523379   1.636   0.833   4.485 -0.4780  0.5493 -0.9678
 3755ntf    on523380   1.809   0.961   4.359  0.2083  0.4989  0.1258
 3755ntf    on523381   1.757   0.572   4.334 -0.0384 -0.3895  0.6151
 3755ntf    on523382   1.908   0.506   4.505 -0.0582 -0.1703 -0.2366
 3755ntf    fn423383   2.127   0.653   4.365  0.1089  0.2355  0.0353
 3755ntf    fn423384   2.029   0.515   4.239 -0.1903  0.0012  0.1420
 3755ntf    fn423385   1.998   0.723   4.218 -0.0229  0.0894  0.0286
 3756ntf    cn123386   6.671   3.645   6.817 -0.2815  0.3155 -0.0159
 3756ntf    sn223387   6.532   3.634   6.701 -0.1125 -0.0714 -0.1817
 3756ntf    nn323388   6.606   3.607   6.565  0.4035 -0.6567  0.2064
 3756ntf    sn223389   6.687   3.712   6.481 -0.0507 -0.4596  0.0081
 3756ntf    cn123390   6.859   3.665   6.516  0.1523  0.2888  0.0313
 3756ntf    fn423391   6.755   3.545   6.795 -0.2832  0.2716  0.1763
 3756ntf    fn423392   6.736   3.760   6.805  0.0268  0.0849 -0.6007
 3756ntf    fn423393   6.629   3.642   6.942  0.7084  0.3222  0.3311
 3756ntf    on523394   6.466   3.519   6.758  0.2415 -0.0596  0.2535
 3756ntf    on523395   6.459   3.758   6.704 -0.0170 -0.0113 -0.3099
 3756ntf    on523396   6.676   3.848   6.527 -0.3422 -0.6608  0.5415
 3756ntf    on523397   6.673   3.684   6.340  0.4530 -1.3620  0.1325
 3756ntf    fn423398   6.949   3.719   6.435 -0.1422 -0.0268 -0.5120
 3756ntf    fn423399   6.897   3.691   6.640 -0.1120 -0.0567  0.1853
 3756ntf    fn423400   6.875   3.536   6.489 -0.2694  0.2663 -0.1191
 3757ntf    cn123401   6.759   4.297   6.119  0.1494  0.2812  0.2933
 3757ntf    sn223402   6.932   4.350   6.100  0.1597  0.1331 -0.0356
 3757ntf    nn323403   7.019   4.222   6.071  0.3071  0.2111  0.0668
 3757ntf    sn223404   7.070   4.164   5.935 -0.1889 -0.0107 -0.0249
 3757ntf    cn123405   7.228   4.255   5.933 -0.1924 -0.0029  0.0751
 3757ntf    fn423406   6.750   4.212   6.220 -0.4026 -0.1825 -0.1362
 3757ntf    fn423407   6.667   4.387   6.148 -0.4346 -0.1927 -0.0672
 3757ntf    fn423408   6.723   4.236   6.007  0.1671  0.6653  0.0759
 3757ntf    on523409   6.934   4.435   5.983  0.0340  0.2913  0.0768
 3757ntf    on523410   6.964   4.417   6.223 -0.1779 -0.1534  0.2131
 3757ntf    on523411   6.991   4.191   5.817 -0.1521 -0.4351 -0.1509
 3757ntf    on523412   7.119   4.028   5.943 -0.3941 -0.0542  0.5382
 3757ntf    fn423413   7.283   4.242   5.813 -0.1591 -0.0413  0.0943
 3757ntf    fn423414   7.216   4.385   5.955  0.1524  0.0222  0.1089
 3757ntf    fn423415   7.321   4.223   6.021  0.2355  0.4057 -0.2288
 3758ntf    cn123416   3.332   0.160   6.075  0.2200 -0.1748 -0.0368
 3758ntf    sn223417   3.451   0.269   6.157 -0.0580  0.0939  0.0138
 3758ntf    nn323418   3.547   0.297   6.036 -0.2316  0.3684 -0.0598
 3758ntf    sn223419   3.640   0.420   6.008  0.2700 -0.0014 -0.0297
 3758ntf    cn123420   3.555   0.505   5.872  0.0501  0.2078  0.2370
 3758ntf    fn423421   3.398   0.097   5.979  0.5237  0.2376 -0.0960
 3758ntf    fn423422   3.273   0.073   6.156  0.5908  0.2748  0.7239
 3758ntf    fn423423   3.233   0.224   6.014  0.1450 -0.5309 -0.2936
 3758ntf    on523424   3.371   0.381   6.198  0.1548  0.1065  0.4042
 3758ntf    on523425   3.504   0.180   6.258 -0.0784 -0.2086 -0.2389
 3758ntf    on523426   3.765   0.373   5.955  0.1237 -0.4786  0.0395
 3758ntf    on523427   3.631   0.525   6.107 -0.6399 -0.3066  0.2206
 3758ntf    fn423428   3.634   0.604   5.834  0.3453 -0.1335 -0.0481
 3758ntf    fn423429   3.551   0.421   5.770 -0.0798  0.2952  0.1695
 3758ntf    fn423430   3.434   0.555   5.896 -0.0031  0.1709  0.0443
 3759ntf    cn123431   2.420   2.533   6.414 -0.0671 -0.1802  0.0820
 3759ntf    sn223432   2.542   2.632   6.322 -0.2130  0.0149  0.0978
 3759ntf    nn323433   2.472   2.773   6.321 -0.1249  0.0588  0.1556
 3759ntf    sn223434   2.463   2.876   6.203  0.0633  0.2267  0.2875
 3759ntf    cn123435   2.632   2.942   6.189  0.1153  0.0436  0.0380
 3759ntf    fn423436   2.463   2.408   6.422 -0.0875 -0.2090 -0.2789
 3759ntf    fn423437   2.407   2.561   6.543 -0.1629  0.3687 -0.0448
 3759ntf    fn423438   2.302   2.526   6.355  0.1881  0.0145 -0.4545
 3759ntf    on523439   2.662   2.633   6.402 -0.3659  0.1059  0.3259
 3759ntf    on523440   2.539   2.561   6.196 -0.2351  0.5065 -0.1813
 3759ntf    on523441   2.396   2.999   6.240 -0.4271  0.0384  0.0372
 3759ntf    on523442   2.430   2.832   6.070 -0.2164  0.2064  0.3628
 3759ntf    fn423443   2.687   2.982   6.303 -0.0137  0.1488  0.0645
 3759ntf    fn423444   2.719   2.865   6.127  0.1515  0.1529 -0.0476
 3759ntf    fn423445   2.630   3.058   6.125  0.1273  0.2062  0.3287
 3760ntf    cn123446   4.881   2.519   5.463  0.4937 -0.2187  0.5623
 3760ntf    sn223447   4.978   2.639   5.559 -0.0396  0.2871  0.4749
 3760ntf    nn323448   5.124   2.598   5.520 -0.1756  0.2366  0.0132
 3760ntf    sn223449   5.211   2.667   5.408 -0.2097 -0.2068 -0.2880
 3760ntf    cn123450   5.269   2.804   5.514  0.4763 -0.4540 -0.3399
 3760ntf    fn423451   4.880   2.539   5.332 -0.5289  0.0019  0.5959
 3760ntf    fn423452   4.920   2.394   5.479  0.6107 -0.3563 -0.7067
 3760ntf    fn423453   4.753   2.517   5.496  0.2250 -0.0075 -0.4315
 3760ntf    on523454   4.942   2.771   5.512 -0.0258  0.2272  0.2961
 3760ntf    on523455   4.940   2.605   5.694 -0.1154  0.3136  0.4606
 3760ntf    on523456   5.140   2.735   5.302 -0.4747  0.2825  0.1948
 3760ntf    on523457   5.331   2.598   5.369  0.0663 -0.1135  0.3679
 3760ntf    fn423458   5.176   2.851   5.596  1.0858  0.2485 -0.0482
 3760ntf    fn423459   5.367   2.770   5.595  0.3304  0.0527  0.0475
 3760ntf    fn423460   5.322   2.906   5.450  0.0499 -0.2564 -0.3860
 3761ntf    cn123461   6.547   4.124   1.011  0.1657  0.6440 -0.3387
 3761ntf    sn223462   6.721   4.097   0.965  0.1901  0.1829  0.0111
 3761ntf    nn323463   6.738   4.195   0.843 -0.1662 -0.2255 -0.3710
 3761ntf    sn223464   6.866   4.270   0.792 -0.0733 -0.0289  0.1363
 3761ntf    cn123465   6.810   4.435   0.842 -0.1276 -0.0732  0.2215
 3761ntf    fn423466   6.464   4.125   0.909 -0.2760  0.2510  0.0112
 3761ntf    fn423467   6.509   4.024   1.088  0.1493 -0.0605 -1.2496
 3761ntf    fn423468   6.525   4.231   1.086 -0.2428 -0.1608  0.7315
 3761ntf    on523469   6.791   4.142   1.083  0.0552 -0.0421  0.1787
 3761ntf    on523470   6.730   3.957   0.934  0.0739  0.1506  0.1218
 3761ntf    on523471   6.862   4.277   0.648 -0.6216 -0.8570  0.1025
 3761ntf    on523472   6.992   4.247   0.858  0.0767  0.4267  0.0097
 3761ntf    fn423473   6.691   4.453   0.787  0.1481 -0.8141 -0.6481
 3761ntf    fn423474   6.800   4.437   0.974  0.2182 -0.4057  0.2523
 3761ntf    fn423475   6.890   4.535   0.809 -0.0908 -0.1708  0.0135
 3762ntf    cn123476   0.318   0.268   0.743  0.0340  0.2205  0.1361
 3762ntf    sn223477   0.291   0.291   0.565 -0.1161  0.0077  0.1309
 3762ntf    nn323478   0.363   0.428   0.536 -0.5615  0.1199 -0.4736
 3762ntf    sn223479   0.305   0.559   0.472  0.4084  0.6011 -0.3686
 3762ntf    cn123480   0.467   0.633   0.435  0.6752  0.0922 -0.2250
 3762ntf    fn423481   0.291   0.373   0.818  0.0416  0.2365  0.1164
 3762ntf    fn423482   0.250   0.162   0.785 -0.1261  0.4323  0.4078
 3762ntf    fn423483   0.447   0.250   0.770  0.0241  0.0334  0.0641
 3762ntf    on523484   0.367   0.182   0.510  0.0892  0.0395  0.3525
 3762ntf    on523485   0.147   0.292   0.552 -0.1634 -0.3250  0.6302
 3762ntf    on523486   0.243   0.651   0.564 -0.3899  0.3993 -0.7047
 3762ntf    on523487   0.238   0.555   0.345 -0.1078 -0.4177 -0.0739
 3762ntf    fn423488   0.531   0.566   0.341  0.1410 -0.1970 -0.3829
 3762ntf    fn423489   0.450   0.757   0.391 -0.2782  0.1184  0.1964
 3762ntf    fn423490   0.548   0.627   0.540 -0.1931 -0.8608  0.4044
 3763ntf    cn123491   2.847   3.657   4.866 -0.4133 -0.0112 -0.0906
 3763ntf    sn223492   2.701   3.712   4.774 -0.1712  0.4015 -0.2302
 3763ntf    nn323493   2.653   3.579   4.705 -0.1740  0.2675  0.0308
 3763ntf    sn223494   2.529   3.550   4.613 -0.0432 -0.4409  0.0751
 3763ntf    cn123495   2.611   3.546   4.451  0.0043  0.0883  0.0837
 3763ntf    fn423496   2.894   3.755   4.941  0.2118 -0.4037  0.0448
 3763ntf    fn423497   2.816   3.549   4.937  0.1648 -0.2803 -0.2363
 3763ntf    fn423498   2.949   3.611   4.794  0.2906  0.0699  0.8366
 3763ntf    on523499   2.612   3.746   4.882  0.0412 -0.0638  0.0943
 3763ntf    on523500   2.745   3.815   4.683 -0.1283  0.2781 -0.3489
 3763ntf    on523501   2.440   3.662   4.599  0.3433 -0.0877  0.3961
 3763ntf    on523502   2.480   3.416   4.636 -0.1212 -0.3928  0.1872
 3763ntf    fn423503   2.673   3.429   4.438  0.3952  0.2668  0.3218
 3763ntf    fn423504   2.523   3.549   4.353  0.1263 -0.4002 -0.0456
 3763ntf    fn423505   2.694   3.645   4.424  0.8333 -0.7395 -0.4904
 3764ntf    cn123506   3.218   2.274   3.262  0.4516  0.0621  0.0307
 3764ntf    sn223507   3.087   2.199   3.364  0.1935  0.2889 -0.1335
 3764ntf    nn323508   3.173   2.083   3.426  0.2949  0.0564 -0.7041
 3764ntf    sn223509   3.146   1.929   3.435  0.0236  0.1286 -0.2699
 3764ntf    cn123510   3.087   1.927   3.607  0.0052  0.0457 -0.2765
 3764ntf    fn423511   3.258   2.189   3.168  0.3433  0.1192 -0.0670
 3764ntf    fn423512   3.180   2.376   3.187 -0.2380 -0.1396  0.0975
 3764ntf    fn423513   3.323   2.314   3.331  0.2442 -0.1931  0.5025
 3764ntf    on523514   3.060   2.304   3.459 -0.1608 -0.3614  0.4944
 3764ntf    on523515   2.987   2.166   3.265  0.0309 -0.6207  0.3264
 3764ntf    on523516   3.270   1.856   3.439 -0.2985 -0.4158 -0.0709
 3764ntf    on523517   3.038   1.874   3.356  0.1541 -0.2232 -0.2074
 3764ntf    fn423518   3.011   2.032   3.631  0.3412  0.2256  0.0270
 3764ntf    fn423519   3.024   1.813   3.627 -0.1094  0.2139  0.3369
 3764ntf    fn423520   3.188   1.932   3.693 -0.2200  0.0573 -0.0130
 3765ntf    cn123521   2.979   3.943   1.326 -0.3609 -0.3421  0.7268
 3765ntf    sn223522   2.974   4.105   1.409 -0.0484  0.0226  0.0407
 3765ntf    nn323523   3.104   4.175   1.356 -0.0069  0.0366  0.1612
 3765ntf    sn223524   3.127   4.313   1.284  0.2117  0.0837  0.3187
 3765ntf    cn123525   3.258   4.267   1.168 -0.2299 -0.2535 -0.0524
 3765ntf    fn423526   2.987   3.951   1.194  0.0516 -0.2443  0.7546
 3765ntf    fn423527   3.084   3.871   1.364  0.4449  0.3133 -0.1999
 3765ntf    fn423528   2.875   3.862   1.335 -0.5942 -0.1461 -0.1404
 3765ntf    on523529   2.853   4.162   1.358 -0.1561 -0.3876 -0.1699
 3765ntf    on523530   2.994   4.074   1.549 -0.2516  0.2660  0.1227
 3765ntf    on523531   3.194   4.412   1.365 -0.2649  0.4501  0.2753
 3765ntf    on523532   3.022   4.368   1.202  0.2325 -0.1447  0.1398
 3765ntf    fn423533   3.371   4.269   1.237  0.1154  0.5232 -0.6173
 3765ntf    fn423534   3.247   4.145   1.118  0.0921 -0.2549 -0.1215
 3765ntf    fn423535   3.269   4.359   1.074  0.2813  0.3382  0.5682
 3766ntf    cn123536   0.862   1.400   4.165 -0.0479  0.0319 -0.0629
 3766ntf    sn223537   0.871   1.578   4.129 -0.0537  0.0360 -0.0433
 3766ntf    nn323538   0.850   1.563   3.974  0.1680 -0.2433 -0.0471
 3766ntf    sn223539   0.955   1.556   3.858 -0.0015 -0.1804 -0.2045
 3766ntf    cn123540   0.908   1.393   3.794  0.0415 -0.3547  0.2065
 3766ntf    fn423541   0.911   1.368   4.284  0.8368  0.0519 -0.4197
 3766ntf    fn423542   0.740   1.353   4.143 -0.0321  0.0856 -0.2682
 3766ntf    fn423543   0.935   1.328   4.082 -0.5246 -0.5304 -0.0040
 3766ntf    on523544   0.753   1.631   4.194 -0.0167  0.3387 -0.2207
 3766ntf    on523545   1.000   1.622   4.177 -0.2112  0.5324 -0.0719
 3766ntf    on523546   1.096   1.548   3.889 -0.0796 -0.4086  0.0899
 3766ntf    on523547   0.918   1.643   3.749 -0.8793  0.1312  0.3324
 3766ntf    fn423548   0.951   1.291   3.866  0.4015 -0.1849  0.2330
 3766ntf    fn423549   0.776   1.383   3.792 -0.0022  0.1014  0.6990
 3766ntf    fn423550   0.955   1.373   3.672 -0.4242 -0.2082 -0.0002
 3767ntf    cn123551   2.144   5.354   6.539 -0.0678  0.0615 -0.0144
 3767ntf    sn223552   2.229   5.514   6.558 -0.5001  0.2409  0.4157
 3767ntf    nn323553   2.371   5.483   6.617 -0.5962 -0.5891  0.2200
 3767ntf    sn223554   2.461   5.356   6.592 -0.0551 -0.2084  0.2224
 3767ntf    cn123555   2.633   5.409   6.616 -0.1218  0.2842 -0.3627
 3767ntf    fn423556   2.124   5.284   6.649 -0.1543  0.1073 -0.0015
 3767ntf    fn423557   2.018   5.369   6.501 -0.1860 -0.0590  0.3245
 3767ntf    fn423558   2.208   5.278   6.452  0.1440  0.0305  0.1685
 3767ntf    on523559   2.249   5.557   6.422 -0.2628  0.1302  0.4158
 3767ntf    on523560   2.132   5.589   6.634 -1.0589  0.8861 -0.9113
 3767ntf    on523561   2.467   5.309   6.456  0.4013 -0.1848  0.2352
 3767ntf    on523562   2.447   5.251   6.689  0.2002  0.0587  0.5531
 3767ntf    fn423563   2.715   5.307   6.599 -0.3803  0.0121 -0.0023
 3767ntf    fn423564   2.676   5.500   6.529  0.3741  0.3023 -0.1049
 3767ntf    fn423565   2.652   5.463   6.735 -0.9516 -0.2891  0.0377
 3768ntf    cn123566   6.463   7.020   3.359 -0.1440  0.2392  0.3648
 3768ntf    sn223567   6.605   6.975   3.463 -0.0295 -0.2063  0.0180
 3768ntf    nn323568   6.541   6.968   3.606 -0.5197 -0.4755 -0.2131
 3768ntf    sn223569   6.514   6.843   3.698  0.3467 -0.3614  0.2034
 3768ntf    cn123570   6.535   6.929   3.857 -0.0964  0.1249  0.0037
 3768ntf    fn423571   6.480   6.992   3.231 -0.1232  0.9131  0.2189
 3768ntf    fn423572   6.353   6.955   3.396 -0.3017  0.0946 -0.3372
 3768ntf    fn423573   6.435   7.149   3.359 -0.3281  0.2020  0.7941
 3768ntf    on523574   6.661   6.853   3.411 -0.2515 -0.1234 -0.4194
 3768ntf    on523575   6.687   7.092   3.450 -0.0575 -0.1400  0.4396
 3768ntf    on523576   6.610   6.736   3.707  0.1791 -0.5448 -0.1644
 3768ntf    on523577   6.377   6.802   3.686  0.3007 -0.1065 -0.1715
 3768ntf    fn423578   6.537   6.855   3.967 -0.4339  0.3976  0.1944
 3768ntf    fn423579   6.656   6.984   3.853 -0.0675  0.0511 -0.1407
 3768ntf    fn423580   6.455   7.032   3.877 -0.5191 -0.2727  0.4044
 3769ntf    cn123581   1.540   1.780   6.056 -0.1264 -0.2775 -0.3441
 3769ntf    sn223582   1.651   1.758   6.199 -0.0127  0.1301 -0.3690
 3769ntf    nn323583   1.787   1.781   6.124 -0.0919 -0.3550 -0.6707
 3769ntf    sn223584   1.896   1.670   6.102 -0.0169 -0.3619 -0.2696
 3769ntf    cn123585   1.820   1.591   5.957 -0.2012 -0.0537 -0.3403
 3769ntf    fn423586   1.412   1.764   6.087 -0.1374  0.0981 -0.1989
 3769ntf    fn423587   1.553   1.903   6.010  0.0668 -0.1594  0.0186
 3769ntf    fn423588   1.574   1.704   5.953 -0.5077 -0.7424 -0.1324
 3769ntf    on523589   1.615   1.865   6.288  0.3972 -0.4131  0.4652
 3769ntf    on523590   1.624   1.623   6.242  0.2781  0.0263 -0.5071
 3769ntf    on523591   1.909   1.567   6.203 -0.0375  0.0113  0.1182
 3769ntf    on523592   2.021   1.720   6.051  0.2896 -0.4508  0.3856
 3769ntf    fn423593   1.913   1.519   5.897 -0.2026 -0.1253 -0.2570
 3769ntf    fn423594   1.718   1.514   5.991 -0.1376  0.0717  0.1423
 3769ntf    fn423595   1.774   1.669   5.860 -0.6075  0.0027 -0.1065
 3770ntf    cn123596   6.438   0.205   5.017  0.0644 -0.0685 -0.0040
 3770ntf    sn223597   6.527   0.233   4.860  0.1874 -0.4584 -0.0045
 3770ntf    nn323598   6.454   0.114   4.788  0.5216 -0.6978  0.0540
 3770ntf    sn223599   6.413   0.090   4.638 -0.2016 -0.4051  0.2054
 3770ntf    cn123600   6.240   0.148   4.630 -0.0292  0.1583  0.4802
 3770ntf    fn423601   6.306   0.197   5.007 -0.0002  0.1971  0.6135
 3770ntf    fn423602   6.479   0.095   5.077 -0.1149  0.2453  0.7040
 3770ntf    fn423603   6.475   0.299   5.102 -0.0170 -0.4656  0.4701
 3770ntf    on523604   6.477   0.365   4.830 -0.1417 -0.5545  0.1076
 3770ntf    on523605   6.665   0.209   4.894  0.3844 -0.0753 -0.5270
 3770ntf    on523606   6.405  -0.052   4.614 -0.1807 -0.3981  0.1569
 3770ntf    on523607   6.479   0.165   4.535 -0.5808  0.1052  0.3249
 3770ntf    fn423608   6.168   0.089   4.537  0.1500  0.2256  0.2996
 3770ntf    fn423609   6.177   0.117   4.743  0.0723  0.4607  0.6204
 3770ntf    fn423610   6.234   0.280   4.623  0.3267  0.1600  0.1794
 3771ntf    cn123611   5.136   6.944   4.412  0.0991  0.1974 -0.1213
 3771ntf    sn223612   5.190   6.789   4.332 -0.0623  0.0457  0.0623
 3771ntf    nn323613   5.081   6.758   4.224 -0.4991  0.0863  0.4877
 3771ntf    sn223614   4.987   6.633   4.214 -0.0193 -0.2277 -0.1279
 3771ntf    cn123615   4.932   6.637   4.040  0.1570 -0.0954 -0.1807
 3771ntf    fn423616   5.234   7.000   4.481 -0.1936 -0.0597  0.5099
 3771ntf    fn423617   5.096   7.035   4.324  0.1180 -0.1496 -0.4953
 3771ntf    fn423618   5.035   6.921   4.495 -0.1675  0.0630 -0.4789
 3771ntf    on523619   5.318   6.808   4.269 -0.0706  0.4191  0.1521
 3771ntf    on523620   5.180   6.701   4.446 -0.0034 -0.5148 -0.3621
 3771ntf    on523621   4.867   6.641   4.294  0.0104 -1.0802  0.0083
 3771ntf    on523622   5.060   6.510   4.224 -0.7473 -0.6506  0.0848
 3771ntf    fn423623   4.852   6.536   4.014  0.4432 -0.2626 -0.4205
 3771ntf    fn423624   4.863   6.746   4.011  0.3067 -0.0536 -0.3808
 3771ntf    fn423625   5.031   6.638   3.952 -0.1056 -0.3102 -0.4758
 3772ntf    cn123626   5.899   5.645   0.664  0.8583 -0.2664 -0.5515
 3772ntf    sn223627   5.912   5.776   0.539  0.1964  0.1155 -0.2265
 3772ntf    nn323628   6.050   5.746   0.472  0.0329 -0.1462 -0.4473
 3772ntf    sn223629   6.193   5.760   0.535 -0.1417  0.0924 -0.1057
 3772ntf    cn123630   6.237   5.586   0.560 -0.3660  0.0927  0.2997
 3772ntf    fn423631   5.784   5.647   0.730  0.6642  0.3072 -0.9020
 3772ntf    fn423632   5.906   5.531   0.596  0.1829 -0.6167 -0.0449
 3772ntf    fn423633   5.996   5.649   0.755  0.0663 -0.6974  0.3317
 3772ntf    on523634   5.797   5.759   0.453  0.0072  0.2551 -0.0042
 3772ntf    on523635   5.917   5.896   0.618 -0.4108  0.0925 -0.1459
 3772ntf    on523636   6.203   5.819   0.667 -0.8476 -0.3042  0.1267
 3772ntf    on523637   6.291   5.796   0.435  0.0761 -0.8592 -0.2429
 3772ntf    fn423638   6.360   5.561   0.602 -0.3993 -0.5305  0.0469
 3772ntf    fn423639   6.156   5.533   0.651 -0.6740  0.1893  0.0809
 3772ntf    fn423640   6.220   5.512   0.452  0.2492  0.3801  0.0016
 3773ntf    cn123641   5.729   1.180   0.469  0.2022  0.0859  0.0010
 3773ntf    sn223642   5.885   1.157   0.378  0.0638 -0.3123 -0.1358
 3773ntf    nn323643   5.952   1.290   0.427 -0.4578 -0.1983  0.2695
 3773ntf    sn223644   6.046   1.306   0.552  0.0229 -0.2525 -0.0877
 3773ntf    cn123645   6.208   1.319   0.469  0.1641  0.0542  0.2352
 3773ntf    fn423646   5.735   1.190   0.601 -0.7311  0.2675  0.0374
 3773ntf    fn423647   5.657   1.282   0.425 -0.0396 -0.2970 -0.5027
 3773ntf    fn423648   5.648   1.080   0.440  0.3075  0.1832 -0.6444
 3773ntf    on523649   5.931   1.030   0.430  0.4269 -0.3226 -0.4789
 3773ntf    on523650   5.846   1.160   0.240 -0.3402  0.3991 -0.0082
 3773ntf    on523651   6.066   1.199   0.646 -0.0540 -0.2551 -0.0746
 3773ntf    on523652   6.028   1.440   0.602 -0.0294 -0.4063  0.3095
 3773ntf    fn423653   6.234   1.216   0.391  0.3765 -0.0251  0.4107
 3773ntf    fn423654   6.220   1.425   0.390 -0.3843  0.1587  0.2905
 3773ntf    fn423655   6.313   1.328   0.550  0.3321 -0.3249  0.0580
 3774ntf    cn123656   6.629   5.480   3.723 -0.3729 -0.1982  0.2096
 3774ntf    sn223657   6.702   5.335   3.805  0.4082  0.1346  0.1100
 3774ntf    nn323658   6.826   5.394   3.882  0.0915  0.1216  0.6347
 3774ntf    sn223659   6.969   5.419   3.824 -0.0563 -0.0898  0.1703
 3774ntf    cn123660   7.012   5.572   3.912  0.4272 -0.2653  0.2432
 3774ntf    fn423661   6.511   5.443   3.676 -0.1452 -0.8198  0.1182
 3774ntf    fn423662   6.621   5.586   3.802  0.7834 -0.1779  0.3134
 3774ntf    fn423663   6.703   5.520   3.621 -0.1421  0.0043  0.4555
 3774ntf    on523664   6.596   5.303   3.897  0.0414 -0.8681 -0.6353
 3774ntf    on523665   6.739   5.246   3.697 -0.0348  0.5993 -0.4362
 3774ntf    on523666   6.963   5.463   3.687  0.3835  0.3789  0.2962
 3774ntf    on523667   7.069   5.320   3.855 -0.0277 -0.1091  0.0182
 3774ntf    fn423668   6.901   5.642   3.926  0.4209 -0.3565  0.6463
 3774ntf    fn423669   7.062   5.562   4.034 -0.2180  0.0840  0.5409
 3774ntf    fn423670   7.094   5.649   3.841 -0.1803 -0.0979 -0.2848
 3775ntf    cn123671   2.053   6.700   1.070  0.0895  0.5303  0.3185
 3775ntf    sn223672   2.054   6.559   0.955  0.0123  0.3308  0.5618
 3775ntf    nn323673   1.965   6.464   1.044 -0.1175  0.2611  0.3572
 3775ntf    sn223674   1.811   6.434   1.031  0.0086 -0.2157 -0.1209
 3775ntf    cn123675   1.778   6.437   1.210  0.1790 -0.2151 -0.0888
 3775ntf    fn423676   2.087   6.811   1.007  0.2359  0.1904 -0.2124
 3775ntf    fn423677   1.931   6.711   1.120 -0.0181 -0.4287  0.2872
 3775ntf    fn423678   2.137   6.680   1.170  0.4075 -0.3637 -0.1149
 3775ntf    on523679   2.002   6.606   0.830  0.2479 -0.3570  0.1980
 3775ntf    on523680   2.192   6.518   0.950 -0.0546  0.1568  0.1324
 3775ntf    on523681   1.785   6.299   0.990 -0.4547  0.1201 -0.9358
 3775ntf    on523682   1.726   6.531   0.967  0.4461  0.3147  0.0896
 3775ntf    fn423683   1.861   6.352   1.269 -0.0821 -0.0343  0.5502
 3775ntf    fn423684   1.805   6.554   1.264 -0.3493 -0.0315 -0.2148
 3775ntf    fn423685   1.656   6.397   1.244  0.0274  0.1868 -0.1564
 3776ntf    cn123686   0.871   4.478   4.468 -0.4912  0.0853 -0.2883
 3776ntf    sn223687   0.772   4.369   4.361 -0.2258 -0.5128  0.0725
 3776ntf    nn323688   0.803   4.429   4.219 -0.0245 -0.4551  0.1405
 3776ntf    sn223689   0.720   4.400   4.089 -0.0138 -0.0413  0.0407
 3776ntf    cn123690   0.613   4.547   4.089 -0.4023 -0.3249  0.3601
 3776ntf    fn423691   0.844   4.464   4.597  0.1892  0.5999 -0.0863
 3776ntf    fn423692   1.001   4.458   4.454 -0.4862 -0.4421  0.4247
 3776ntf    fn423693   0.854   4.606   4.443 -0.6030  0.1535  0.1212
 3776ntf    on523694   0.818   4.233   4.378 -0.2637 -0.5643 -0.2283
 3776ntf    on523695   0.636   4.397   4.399 -0.3729 -0.7405 -0.2788
 3776ntf    on523696   0.635   4.284   4.081  0.0818 -0.0512 -0.9438
 3776ntf    on523697   0.806   4.418   3.975 -0.0259 -0.5647 -0.0488
 3776ntf    fn423698   0.535   4.563   4.195 -0.7074 -0.4283  0.1538
 3776ntf    fn423699   0.675   4.663   4.077 -0.3239 -0.3427  0.5911
 3776ntf    fn423700   0.539   4.531   3.980 -0.7447 -0.6910  0.6428
 3777ntf    cn123701   6.670   1.900   5.064  0.5310 -0.1249  0.3158
 3777ntf    sn223702   6.607   1.942   5.229 -0.3098 -0.3122  0.0470
 3777ntf    nn323703   6.461   1.885   5.241 -0.3569 -0.1409  0.2908
 3777ntf    sn223704   6.388   1.845   5.374  0.0136 -0.4598  0.4027
 3777ntf    cn123705   6.231   1.914   5.313  0.4774  0.0373 -0.2477
 3777ntf    fn423706   6.695   1.770   5.062 -0.4099 -0.3209  0.8801
 3777ntf    fn423707   6.583   1.922   4.967  0.4701 -0.4297  0.3010
 3777ntf    fn423708   6.785   1.960   5.035  0.2807  0.3297  0.2516
 3777ntf    on523709   6.700   1.870   5.311 -0.6938 -0.6930  0.1508
 3777ntf    on523710   6.599   2.086   5.230 -0.4960 -0.3228  0.1501
 3777ntf    on523711   6.412   1.933   5.486 -0.3384  0.1132  0.0346
 3777ntf    on523712   6.345   1.709   5.395 -0.3977 -0.3701  0.1759
 3777ntf    fn423713   6.133   1.897   5.401  0.1821  0.3954 -0.5036
 3777ntf    fn423714   6.231   2.044   5.290  0.3127  0.1004  0.0964
 3777ntf    fn423715   6.187   1.854   5.203 -0.4029  0.9505 -0.4081
 3778ntf    cn123716   0.221   5.070   7.035  0.2395 -0.0870 -0.1678
 3778ntf    sn223717   0.076   5.035   7.140  0.2906  0.2662  0.0209
 3778ntf    nn323718   0.155   5.025   7.276  0.2477  0.2690  0.0463
 3778ntf    sn223719   0.163   4.925   7.396 -0.2690 -0.0666 -0.1949
 3778ntf    cn123720   0.124   5.018   7.547  0.0432 -0.0888 -0.0981
 3778ntf    fn423721   0.296   4.961   7.032  0.3415 -0.0422  0.4936
 3778ntf    fn423722   0.187   5.092   6.909 -0.5813 -0.0954  0.0458
 3778ntf    fn423723   0.307   5.162   7.075 -0.1338  0.1205  0.1750
 3778ntf    on523724  -0.004   5.155   7.133 -0.0073  0.0500 -0.2718
 3778ntf    on523725   0.031   4.911   7.083 -0.4572  0.5701 -0.0568
 3778ntf    on523726   0.294   4.875   7.431 -0.3184 -0.1568 -0.1355
 3778ntf    on523727   0.070   4.815   7.386 -0.1378 -0.2374  0.3784
 3778ntf    fn423728   0.215   5.110   7.573  0.1827 -0.1569 -0.3451
 3778ntf    fn423729   0.009   5.082   7.529  0.0513 -0.1002 -0.1869
 3778ntf    fn423730   0.119   4.943   7.656 -0.5022  0.1030  0.0154
 3779ntf    cn123731   7.039   6.436   0.015 -0.1035  0.1664 -0.3446
 3779ntf    sn223732   7.025   6.342  -0.140 -0.1457 -0.0744 -0.1950
 3779ntf    nn323733   6.869   6.326  -0.125 -0.0975 -0.5015 -0.1444
 3779ntf    sn223734   6.749   6.405  -0.188  0.0917 -0.1632 -0.0771
 3779ntf    cn123735   6.728   6.297  -0.332  0.6421 -0.3262 -0.0376
 3779ntf    fn423736   6.942   6.526   0.021  0.0774  0.3075  0.7003
 3779ntf    fn423737   7.014   6.358   0.119 -0.0809  0.5135 -0.0758
 3779ntf    fn423738   7.154   6.501   0.024 -0.2095  0.3407 -0.2273
 3779ntf    on523739   7.078   6.433  -0.238  0.2809  0.0964  0.1916
 3779ntf    on523740   7.104   6.225  -0.109 -0.2131 -0.1133 -0.1707
 3779ntf    on523741   6.772   6.535  -0.247  0.1302 -0.0179  0.2596
 3779ntf    on523742   6.623   6.392  -0.120  0.0737  0.1571 -0.0468
 3779ntf    fn423743   6.834   6.300  -0.412  0.5652  0.2688 -0.1187
 3779ntf    fn423744   6.701   6.174  -0.289 -0.1418 -0.1249  0.0598
 3779ntf    fn423745   6.629   6.328  -0.414  0.2685 -0.7182  0.2596
 3780ntf    cn123746   6.998   1.671   5.524 -0.4274  0.3407 -0.2439
 3780ntf    sn223747   7.006   1.561   5.668  0.0543  0.5044 -0.1423
 3780ntf    nn323748   7.112   1.645   5.747  0.4494 -0.1377  0.0155
 3780ntf    sn223749   7.099   1.729   5.878 -0.0317 -0.2405  0.0335
 3780ntf    cn123750   7.231   1.847   5.838 -0.2657 -0.0217 -0.1023
 3780ntf    fn423751   6.951   1.789   5.561 -0.5596  0.2059  0.0194
 3780ntf    fn423752   7.116   1.694   5.469 -0.4616  0.1954 -0.3788
 3780ntf    fn423753   6.927   1.624   5.422  0.2323 -0.2547 -0.4385
 3780ntf    on523754   6.872   1.560   5.721 -0.0093  0.0940 -0.2997
 3780ntf    on523755   7.046   1.429   5.625  0.0259  0.2949  0.4589
 3780ntf    on523756   7.143   1.653   5.992 -0.5077 -0.4677  0.0699
 3780ntf    on523757   6.976   1.804   5.893  0.2949  0.1807  0.6639
 3780ntf    fn423758   7.234   1.960   5.906 -0.2533  0.1434 -0.3783
 3780ntf    fn423759   7.352   1.796   5.852 -0.3567 -0.1632  0.1704
 3780ntf    fn423760   7.219   1.886   5.712  0.3942  0.1623 -0.1126
   7.17423   7.17423   7.17423
