Converted from moscito
 1944
    1SOL     ow    1   1.013   0.935   4.273  0.2268  0.1656  0.0092
    1SOL     hw    2   1.018   1.030   4.262  0.0026  0.2672  0.7573
    1SOL     hw    3   0.966   0.922   4.355  0.5078 -0.5926  0.0625
    1SOL     vw    4   1.007   0.946   4.282  0.2343  0.0790  0.1152
    2SOL     ow    5   1.064   1.988   4.506 -0.5779  0.2764  0.4151
    2SOL     hw    6   1.093   1.897   4.497  1.2756  0.8959 -0.4935
    2SOL     hw    7   1.027   1.992   4.594  0.6189 -1.0596  1.0331
    2SOL     vw    8   1.063   1.976   4.517 -0.1754  0.1819  0.3767
    3SOL     ow    9   1.262   2.194   2.314 -0.3734 -0.0407  0.2122
    3SOL     hw   10   1.172   2.164   2.327 -0.3164 -0.3630 -0.1077
    3SOL     hw   11   1.291   2.149   2.235  0.5600 -1.1229  1.1105
    3SOL     vw   12   1.254   2.184   2.306 -0.2428 -0.2260  0.2885
    4SOL     ow   13   2.183   2.055   5.462 -0.3629  0.1618 -0.3126
    4SOL     hw   14   2.247   1.999   5.506 -0.4256  0.4912  0.2077
    4SOL     hw   15   2.104   2.046   5.514 -1.2048 -1.3744 -1.7660
    4SOL     vw   16   2.181   2.046   5.475 -0.4823  0.0026 -0.4356
    5SOL     ow   17   0.145   0.326   4.911 -0.3153  0.1166  0.5335
    5SOL     hw   18   0.051   0.338   4.927 -0.4592 -0.1128 -0.0774
    5SOL     hw   19   0.153   0.234   4.888  0.1365  0.0261  1.0387
    5SOL     vw   20   0.134   0.316   4.910 -0.2747  0.0744  0.5198
    6SOL     ow   21   0.031   1.212   1.480 -0.1519  0.1845  0.1272
    6SOL     hw   22   0.012   1.147   1.548 -0.3101  0.3240  0.2169
    6SOL     hw   23  -0.036   1.280   1.492 -1.2294 -0.5833 -1.2175
    6SOL     vw   24   0.020   1.212   1.491 -0.3149  0.1016 -0.0383
    7SOL     ow   25   1.273   0.468   1.978 -0.1422  0.2193 -0.5346
    7SOL     hw   26   1.264   0.381   2.017 -2.1675  0.8530  0.5360
    7SOL     hw   27   1.353   0.504   2.017  2.0989 -1.9637 -2.7655
    7SOL     vw   28   1.283   0.461   1.988 -0.1137  0.0149 -0.6877
    8SOL     ow   29   0.676   1.755   4.806  0.2016 -0.7883 -1.0324
    8SOL     hw   30   0.726   1.831   4.834  1.3170 -1.3051 -1.5509
    8SOL     hw   31   0.585   1.785   4.805  0.2020 -0.4060  1.8781
    8SOL     vw   32   0.671   1.769   4.809  0.3488 -0.8061 -0.7167
    9SOL     ow   33   2.289   0.350   0.858 -0.0929 -1.0864  0.2443
    9SOL     hw   34   2.215   0.407   0.839  0.0714 -0.1321  2.2160
    9SOL     hw   35   2.331   0.335   0.773 -0.4602  1.3019 -0.4185
    9SOL     vw   36   2.285   0.356   0.844 -0.1197 -0.6454  0.4170
   10SOL     ow   37   0.512   1.755   6.283  0.1846  0.2827  0.3468
   10SOL     hw   38   0.467   1.675   6.312  2.0358 -1.4762 -1.3812
   10SOL     hw   39   0.441   1.818   6.269 -1.1767 -0.1582  4.0559
   10SOL     vw   40   0.497   1.753   6.285  0.2492 -0.0075  0.6080
   11SOL     ow   41   1.219   0.266   0.827 -0.1821 -0.2333  0.2607
   11SOL     hw   42   1.261   0.241   0.909  0.4072 -0.6836 -0.1637
   11SOL     hw   43   1.213   0.362   0.831  1.0211 -0.1427  0.2778
   11SOL     vw   44   1.223   0.275   0.838  0.0544 -0.2808  0.2069
   12SOL     ow   45   1.368   1.722   1.167 -0.0642 -0.1725 -0.3773
   12SOL     hw   46   1.275   1.712   1.188  0.2013  2.4920  3.0155
   12SOL     hw   47   1.413   1.670   1.234  0.9880 -1.1390 -1.7636
   12SOL     vw   48   1.361   1.714   1.179  0.1096  0.0516 -0.1125
   13SOL     ow   49   1.030   0.513   2.996  0.2684  0.3142  0.6268
   13SOL     hw   50   1.006   0.424   2.969 -0.6946 -0.2025  2.9076
   13SOL     hw   51   1.119   0.525   2.961 -0.4193 -0.6363 -1.6267
   13SOL     vw   52   1.039   0.503   2.988  0.0507  0.1206  0.6303
   14SOL     ow   53   0.606   1.422   1.420 -0.4545  0.6316  0.8211
   14SOL     hw   54   0.550   1.345   1.405  1.1078 -0.1383 -1.6924
   14SOL     hw   55   0.692   1.395   1.388 -0.2870  4.0490 -2.1994
   14SOL     vw   56   0.610   1.408   1.413 -0.2263  0.9810  0.0910
   15SOL     ow   57   0.533   1.418   1.836  1.1152  0.2352 -0.0283
   15SOL     hw   58   0.586   1.338   1.829 -1.0439 -1.1854 -1.4978
   15SOL     hw   59   0.499   1.417   1.925  1.0286 -0.5777 -0.0605
   15SOL     vw   60   0.536   1.407   1.847  0.8189 -0.0594 -0.2264
   16SOL     ow   61   1.382   1.822   2.702  0.0722 -0.2928 -0.3762
   16SOL     hw   62   1.410   1.856   2.787  1.3678  4.4817 -2.3285
   16SOL     hw   63   1.455   1.768   2.672  0.1979 -0.8886  0.9568
   16SOL     vw   64   1.395   1.820   2.709  0.2597  0.2585 -0.4580
   17SOL     ow   65   1.299   0.215   1.085  0.0626 -0.4972 -0.3173
   17SOL     hw   66   1.306   0.142   1.145  0.2118 -0.1099  0.1443
   17SOL     hw   67   1.382   0.263   1.095 -0.3190  0.1258 -0.0927
   17SOL     vw   68   1.311   0.212   1.094  0.0319 -0.3639 -0.2268
   18SOL     ow   69   1.550   1.753   0.374  0.4154 -0.5942  0.5974
   18SOL     hw   70   1.600   1.684   0.418 -0.0180 -0.7488  0.8552
   18SOL     hw   71   1.588   1.835   0.408 -0.8841 -0.6847  2.4594
   18SOL     vw   72   1.562   1.755   0.385  0.1868 -0.6265  0.8771
   19SOL     ow   73   2.305   1.801   4.116  0.5083 -0.0488 -0.0901
   19SOL     hw   74   2.230   1.804   4.056  1.8551 -0.3555 -1.8709
   19SOL     hw   75   2.283   1.731   4.178 -0.0382 -1.1644 -1.4958
   19SOL     vw   76   2.292   1.792   4.116  0.6139 -0.2365 -0.5107
   20SOL     ow   77   0.766   0.530   3.136  0.1510 -0.7421 -0.1802
   20SOL     hw   78   0.720   0.590   3.077  0.7017  0.7446  0.8330
   20SOL     hw   79   0.765   0.446   3.091 -1.8971 -0.3293 -1.0357
   20SOL     vw   80   0.760   0.527   3.122 -0.0466 -0.4915 -0.1594
   21SOL     ow   81   1.982   1.060   2.179 -0.2960 -0.2445 -0.1679
   21SOL     hw   82   2.040   0.985   2.167 -0.8994 -0.9009  0.9087
   21SOL     hw   83   2.021   1.129   2.125  0.3572 -1.2675 -1.0508
   21SOL     vw   84   1.995   1.059   2.170 -0.2894 -0.4661 -0.1423
   22SOL     ow   85   1.330   1.189   6.021  0.3738  0.5685 -0.4899
   22SOL     hw   86   1.243   1.149   6.025 -1.0957  3.5951  2.3737
   22SOL     hw   87   1.324   1.252   5.949  1.1670 -0.9927 -1.9925
   22SOL     vw   88   1.318   1.192   6.012  0.2846  0.7619 -0.3102
   23SOL     ow   89   1.026   0.995   2.480  0.0752  0.1189 -0.5790
   23SOL     hw   90   1.075   1.008   2.561  0.4975 -1.0847 -0.6221
   23SOL     hw   91   0.962   1.066   2.479 -1.0811 -0.7783  1.6669
   23SOL     vw   92   1.024   1.006   2.491 -0.0216 -0.1583 -0.2884
   24SOL     ow   93   0.777   0.406   1.329 -0.2256 -0.7033  0.5173
   24SOL     hw   94   0.839   0.478   1.318 -0.8599 -0.4562 -2.3715
   24SOL     hw   95   0.691   0.448   1.323 -0.6157 -1.5163  0.2784
   24SOL     vw   96   0.774   0.421   1.326 -0.3608 -0.7780  0.1047
   25SOL     ow   97   2.066   0.174   2.562  0.0319  0.3592  0.4333
   25SOL     hw   98   2.057   0.126   2.479  2.9686 -0.6766  0.5789
   25SOL     hw   99   1.976   0.191   2.590 -1.1415 -2.3196 -1.2458
   25SOL     vw  100   2.053   0.170   2.555  0.2645 -0.1309  0.2311
   26SOL     ow  101   1.728   1.953   6.009  0.2228 -0.2954  0.0173
   26SOL     hw  102   1.686   2.038   5.997 -0.7108 -0.8047 -0.4738
   26SOL     hw  103   1.704   1.903   5.931  2.2130 -0.4410 -0.5427
   26SOL     vw  104   1.719   1.957   5.997  0.3622 -0.3818 -0.1214
   27SOL     ow  105   0.566   0.293   6.330 -0.8384  0.9747 -0.1731
   27SOL     hw  106   0.646   0.265   6.285 -1.4248 -1.5801  0.2289
   27SOL     hw  107   0.510   0.328   6.260 -0.6721 -0.4188 -1.0458
   27SOL     vw  108   0.569   0.294   6.315 -0.8939  0.4537 -0.2351
   28SOL     ow  109   1.959   0.371   1.907  0.1785 -0.8272  0.2409
   28SOL     hw  110   1.964   0.418   1.990  0.3522 -0.3425 -0.0399
   28SOL     hw  111   1.951   0.440   1.841  1.0980 -1.1698 -0.2337
   28SOL     vw  112   1.958   0.386   1.909  0.3228 -0.8084  0.1413
   29SOL     ow  113   1.331   0.634   6.140  0.5051 -0.8613  0.3957
   29SOL     hw  114   1.353   0.625   6.233  1.8019 -0.8585  0.1048
   29SOL     hw  115   1.240   0.602   6.134  0.3429 -0.6995  1.6801
   29SOL     vw  116   1.322   0.629   6.152  0.6548 -0.8396  0.5267
   30SOL     ow  117   0.245   1.466   5.305  0.0945 -0.3997  0.1738
   30SOL     hw  118   0.217   1.442   5.217  0.4321 -0.3560  0.0537
   30SOL     hw  119   0.174   1.437   5.361 -0.8066  0.8966 -0.2492
   30SOL     vw  120   0.232   1.459   5.301  0.0201 -0.2229  0.1018
   31SOL     ow  121   1.594   0.556   6.048  0.8193  0.5993  0.1004
   31SOL     hw  122   1.645   0.537   6.128 -0.8039  0.2653  1.1052
   31SOL     hw  123   1.510   0.589   6.080  0.2610  0.8189 -1.4960
   31SOL     vw  124   1.590   0.558   6.063  0.5315  0.5842  0.0226
   32SOL     ow  125   1.412   0.712   4.453 -0.3055  0.0067  0.2431
   32SOL     hw  126   1.323   0.702   4.487 -0.4412  0.4157  0.0127
   32SOL     hw  127   1.400   0.750   4.366  0.1439  1.2791  0.7244
   32SOL     vw  128   1.398   0.716   4.446 -0.2642  0.2285  0.2761
   33SOL     ow  129   2.134   1.324   0.490  0.6317  0.1972 -0.2057
   33SOL     hw  130   2.065   1.378   0.529  0.4127 -1.0178  1.1809
   33SOL     hw  131   2.212   1.342   0.542  1.1045  0.7273 -1.0701
   33SOL     vw  132   2.135   1.333   0.502  0.6652  0.1068 -0.1368
   34SOL     ow  133   0.650   1.665   3.656 -0.4391 -0.0155  0.4142
   34SOL     hw  134   0.696   1.664   3.572 -0.6105 -2.6002  0.2773
   34SOL     hw  135   0.663   1.754   3.689  2.5367  0.1104 -0.7572
   34SOL     vw  136   0.658   1.677   3.649 -0.0691 -0.3399  0.2416
   35SOL     ow  137   1.713   0.182   0.456 -0.9607  0.4061 -0.1942
   35SOL     hw  138   1.738   0.174   0.548 -3.4576  1.6848  0.6916
   35SOL     hw  139   1.670   0.098   0.435  0.4190 -0.2470 -0.5281
   35SOL     vw  140   1.711   0.170   0.465 -1.1081  0.4887 -0.1214
   36SOL     ow  141   0.196   0.785   2.805  0.9726  0.3327 -0.1071
   36SOL     hw  142   0.225   0.711   2.753  0.0832  0.2932 -0.5632
   36SOL     hw  143   0.101   0.777   2.807  0.9410  0.8133  0.8093
   36SOL     vw  144   0.187   0.774   2.799  0.8511  0.3909 -0.0465
   37SOL     ow  145   1.605   1.008   6.107 -0.1442 -0.0487 -0.1671
   37SOL     hw  146   1.640   1.003   6.196  0.7505 -1.9899 -0.5848
   37SOL     hw  147   1.680   0.991   6.050 -0.9927 -0.3329 -1.2457
   37SOL     vw  148   1.619   1.005   6.111 -0.1380 -0.3423 -0.3648
   38SOL     ow  149   1.386   0.214   0.573  0.4322  0.4102  0.3470
   38SOL     hw  150   1.449   0.231   0.643  2.0640  0.3620 -1.0371
   38SOL     hw  151   1.439   0.179   0.501 -1.4308 -1.2886 -0.2985
   38SOL     vw  152   1.401   0.211   0.572  0.4017  0.1797  0.0792
   39SOL     ow  153   0.010   0.341   4.428  0.2039 -0.6809 -0.1457
   39SOL     hw  154   0.059   0.258   4.436  1.4138 -0.4124 -3.4122
   39SOL     hw  155  -0.082   0.315   4.434  0.5897 -1.8615  1.3974
   39SOL     vw  156   0.005   0.326   4.430  0.4145 -0.8013 -0.3731
   40SOL     ow  157   0.827   1.657   6.222  0.1474 -0.0979 -0.6320
   40SOL     hw  158   0.812   1.637   6.129  0.9824  1.4181 -1.1281
   40SOL     hw  159   0.863   1.576   6.258  2.1639 -0.0034 -2.2265
   40SOL     vw  160   0.830   1.643   6.214  0.5237  0.1146 -0.9079
   41SOL     ow  161   1.291   0.965   6.180 -0.1225  0.0710  0.1028
   41SOL     hw  162   1.298   0.877   6.141  2.1553 -0.1249  0.8218
   41SOL     hw  163   1.242   0.951   6.261 -1.6480 -0.1294 -0.8018
   41SOL     vw  164   1.285   0.951   6.185 -0.0232  0.0187  0.0782
   42SOL     ow  165   0.382   0.088   3.424  0.5408 -0.0036  0.0117
   42SOL     hw  166   0.371  -0.005   3.443  1.5141 -0.6060 -2.0870
   42SOL     hw  167   0.456   0.116   3.479  1.3839 -0.9326 -0.6248
   42SOL     vw  168   0.390   0.080   3.434  0.7805 -0.2057 -0.3493
   43SOL     ow  169   1.033   1.415   5.300  0.0267  0.1849 -1.0568
   43SOL     hw  170   1.051   1.491   5.355  0.5846 -0.5192 -0.2255
   43SOL     hw  171   1.072   1.435   5.216  2.0682 -0.0346 -0.2169
   43SOL     vw  172   1.040   1.427   5.296  0.3697  0.0631 -0.8364
   44SOL     ow  173   0.830   0.433   2.192 -0.2838 -0.2951  0.2415
   44SOL     hw  174   0.827   0.467   2.103  1.7560 -0.2642  0.1543
   44SOL     hw  175   0.792   0.346   2.186 -0.3714 -0.2010 -0.5997
   44SOL     vw  176   0.824   0.426   2.180 -0.0263 -0.2786  0.1191
   45SOL     ow  177   0.196   0.416   1.126 -0.3991 -0.1340 -0.3663
   45SOL     hw  178   0.251   0.352   1.081 -1.5002 -0.6591 -1.0217
   45SOL     hw  179   0.250   0.495   1.131  0.7925 -0.9520 -0.0004
   45SOL     vw  180   0.210   0.418   1.120 -0.3872 -0.3112 -0.4045
   46SOL     ow  181   0.962   0.768   4.027  0.1722  1.0717 -0.3303
   46SOL     hw  182   0.930   0.696   3.973  4.0846  0.0472 -1.5588
   46SOL     hw  183   0.981   0.838   3.966  1.9203  0.9567  0.0389
   46SOL     vw  184   0.960   0.768   4.012  0.9190  0.9214 -0.4437
   47SOL     ow  185   2.263   1.193   5.327  0.0114  0.0850  0.1593
   47SOL     hw  186   2.302   1.211   5.241 -1.8557  1.8330 -0.4022
   47SOL     hw  187   2.328   1.139   5.372  1.3214 -0.3636 -2.1105
   47SOL     vw  188   2.277   1.188   5.322 -0.0621  0.2565 -0.2143
   48SOL     ow  189   0.923   2.118   3.100  0.3034 -0.1998  0.0684
   48SOL     hw  190   0.957   2.196   3.057  0.9777 -0.4763  0.0847
   48SOL     hw  191   0.828   2.121   3.084  0.3424  0.5267 -0.0715
   48SOL     vw  192   0.915   2.129   3.092  0.3975 -0.1404  0.0521
   49SOL     ow  193   0.104   0.097   1.534 -0.1968 -0.0597  0.0589
   49SOL     hw  194   0.084   0.010   1.500 -2.3790  0.0629  0.8411
   49SOL     hw  195   0.021   0.127   1.573  1.2913  1.0654  2.6487
   49SOL     vw  196   0.090   0.090   1.535 -0.2884  0.1049  0.5038
   50SOL     ow  197   0.192   0.432   5.210 -0.0934 -0.0089  0.4100
   50SOL     hw  198   0.199   0.352   5.261  0.4956 -0.2827 -0.0905
   50SOL     hw  199   0.126   0.484   5.256  0.4876 -0.2115  1.4945
   50SOL     vw  200   0.184   0.429   5.223  0.0610 -0.0718  0.4871
   51SOL     ow  201   0.504   0.232   2.551  0.5247  0.0760 -0.1316
   51SOL     hw  202   0.547   0.251   2.635  3.3033  0.9643 -1.6126
   51SOL     hw  203   0.565   0.173   2.506  1.3410  2.9387 -3.1728
   51SOL     vw  204   0.518   0.227   2.556  0.9990  0.5709 -0.7284
   52SOL     ow  205   1.694   2.189   3.765  0.4170  0.1210 -0.2313
   52SOL     hw  206   1.700   2.105   3.811  0.2741 -1.6888 -3.2484
   52SOL     hw  207   1.784   2.223   3.766  0.4852 -0.0484  0.9799
   52SOL     vw  208   1.707   2.183   3.771  0.4072 -0.1401 -0.4696
   53SOL     ow  209   1.721   0.151   1.932  0.1021 -0.3145 -0.1261
   53SOL     hw  210   1.687   0.084   1.873  1.9211 -0.9276 -0.5471
   53SOL     hw  211   1.672   0.230   1.909 -2.5590 -1.5697  0.8295
   53SOL     vw  212   1.710   0.153   1.921 -0.0090 -0.5610 -0.0556
   54SOL     ow  213   1.541   2.126   2.500 -0.5044  0.3350 -0.3447
   54SOL     hw  214   1.596   2.123   2.578  1.0847 -1.9514 -1.4379
   54SOL     hw  215   1.603   2.131   2.427 -1.6980 -1.6631 -1.5999
   54SOL     vw  216   1.557   2.126   2.500 -0.4522 -0.2304 -0.6545
   55SOL     ow  217   0.347   1.172   1.583  0.5815  0.0560 -0.5075
   55SOL     hw  218   0.353   1.079   1.566 -0.7461 -0.1017 -0.2589
   55SOL     hw  219   0.369   1.181   1.676 -1.4849 -0.3438  0.0791
   55SOL     vw  220   0.351   1.161   1.593  0.1337 -0.0176 -0.3972
   56SOL     ow  221   1.858   0.763   3.491  0.2522 -0.7611 -0.1363
   56SOL     hw  222   1.856   0.845   3.540 -1.7491 -1.2723  0.7675
   56SOL     hw  223   1.856   0.789   3.399 -1.8867  0.2711  0.1239
   56SOL     vw  224   1.857   0.777   3.486 -0.2941 -0.6924  0.0173
   57SOL     ow  225   0.230   1.928   2.751  0.3065 -0.3135 -0.1170
   57SOL     hw  226   0.239   1.967   2.838 -1.8085  1.6025 -0.6612
   57SOL     hw  227   0.168   1.857   2.762 -0.3626  0.2610 -0.1324
   57SOL     vw  228   0.223   1.924   2.764 -0.0608  0.0150 -0.1907
   58SOL     ow  229   1.316   1.527   0.307  0.7366 -0.0280 -0.4254
   58SOL     hw  230   1.373   1.464   0.352  2.6769  1.2290 -1.0108
   58SOL     hw  231   1.294   1.484   0.224  1.2533 -0.3404 -0.4060
   58SOL     vw  232   1.321   1.513   0.302  1.0608  0.0966 -0.5001
   59SOL     ow  233   0.000   1.338   3.607  0.3345  0.0157 -0.1516
   59SOL     hw  234  -0.064   1.381   3.664 -1.0649 -0.0139 -1.6468
   59SOL     hw  235   0.078   1.393   3.613  0.2249  0.0351  1.7356
   59SOL     vw  236   0.002   1.351   3.616  0.1354  0.0144 -0.0998
   60SOL     ow  237   1.030   0.529   5.431  0.2694 -0.0063 -0.0893
   60SOL     hw  238   1.062   0.619   5.428  0.8617 -0.0894  1.8211
   60SOL     hw  239   1.097   0.482   5.481 -1.3238 -0.8659  1.3736
   60SOL     vw  240   1.043   0.535   5.437  0.1373 -0.1307  0.3560
   61SOL     ow  241   2.285   2.175   1.357 -0.1960  0.0531 -0.3827
   61SOL     hw  242   2.358   2.126   1.396  0.4828 -0.3949 -2.1245
   61SOL     hw  243   2.220   2.181   1.427  1.3775  0.2054  1.1375
   61SOL     vw  244   2.286   2.169   1.371  0.1012  0.0141 -0.4119
   62SOL     ow  245   1.974   1.071   0.254 -0.3936 -0.6659  0.4624
   62SOL     hw  246   1.921   1.048   0.178  2.3757  0.3932 -1.9400
   62SOL     hw  247   1.939   1.015   0.324 -3.4003 -1.3269 -1.3558
   62SOL     vw  248   1.962   1.061   0.253 -0.4250 -0.6134 -0.0944
   63SOL     ow  249   1.242   2.136   4.368 -0.0739 -0.4933  0.0867
   63SOL     hw  250   1.285   2.160   4.450  0.9183  1.0031 -0.8078
   63SOL     hw  251   1.313   2.129   4.305 -0.5274 -4.1944 -0.1820
   63SOL     vw  252   1.257   2.138   4.370 -0.0029 -0.7842 -0.0670
   64SOL     ow  253   0.851   1.608   3.886  0.5211 -0.1831  0.4725
   64SOL     hw  254   0.927   1.651   3.848  2.1698 -2.7355  0.6841
   64SOL     hw  255   0.885   1.559   3.961 -1.6285 -0.1280  1.5929
   64SOL     vw  256   0.865   1.608   3.891  0.4550 -0.5125  0.6483
   65SOL     ow  257   2.018   1.577   1.981  0.2429 -0.1964  0.0661
   65SOL     hw  258   2.005   1.488   1.948 -0.9475 -0.6010  1.5128
   65SOL     hw  259   2.071   1.566   2.060  2.2950  0.6650 -1.1280
   65SOL     vw  260   2.023   1.563   1.987  0.3566 -0.1361  0.0994
   66SOL     ow  261   1.271   1.153   2.325  0.1331 -0.1583  0.2938
   66SOL     hw  262   1.297   1.205   2.248 -0.9922  1.2755  0.8286
   66SOL     hw  263   1.353   1.118   2.360  0.6915 -0.6339 -1.3968
   66SOL     vw  264   1.285   1.155   2.319  0.0584 -0.0319  0.1414
   67SOL     ow  265   2.246   0.338   2.747 -0.1255 -0.2137  0.1575
   67SOL     hw  266   2.239   0.399   2.820  0.1318  0.6100 -0.4899
   67SOL     hw  267   2.245   0.394   2.669 -0.8474 -1.0958 -0.4949
   67SOL     vw  268   2.245   0.353   2.746 -0.1869 -0.2214 -0.0141
   68SOL     ow  269   0.248   1.962   4.205  0.8798 -0.2559  0.0206
   68SOL     hw  270   0.233   2.023   4.278 -1.3780  0.2651 -0.8100
   68SOL     hw  271   0.248   1.875   4.246 -1.2054 -0.0374  0.6141
   68SOL     vw  272   0.246   1.958   4.220  0.3068 -0.1584 -0.0107
   69SOL     ow  273   1.948   1.059   5.409 -0.5397  1.0016  0.2381
   69SOL     hw  274   1.881   1.061   5.341  1.1053  2.3862 -1.4553
   69SOL     hw  275   2.004   0.986   5.385 -1.9266 -0.8407  2.2516
   69SOL     vw  276   1.946   1.050   5.397 -0.5056  0.9412  0.2801
   70SOL     ow  277   1.173   0.002   0.633 -0.0643  0.5317  0.6882
   70SOL     hw  278   1.161  -0.025   0.542 -1.0033  0.4382  0.8279
   70SOL     hw  279   1.130  -0.066   0.684  1.6018 -0.1165  1.3003
   70SOL     vw  280   1.166  -0.010   0.628  0.0317  0.4339  0.7874
   71SOL     ow  281   1.814   1.014   1.059  0.3266 -0.2040 -0.2793
   71SOL     hw  282   1.836   0.925   1.085  1.1975  0.2787  0.7095
   71SOL     hw  283   1.898   1.061   1.061 -0.1654  0.7064 -0.4847
   71SOL     vw  284   1.828   1.009   1.063  0.3766 -0.0201 -0.1760
   72SOL     ow  285   1.723   0.271   0.151  0.4090  0.9751 -0.1370
   72SOL     hw  286   1.767   0.265   0.066 -1.9010 -2.5826 -1.2851
   72SOL     hw  287   1.631   0.289   0.130  0.1007  1.9818  1.7829
   72SOL     vw  288   1.716   0.273   0.137  0.0636  0.6385 -0.0352
   73SOL     ow  289   0.467   1.598   5.516  0.3030 -0.7838  0.7358
   73SOL     hw  290   0.469   1.530   5.584  0.1558 -0.9724  0.5504
   73SOL     hw  291   0.432   1.675   5.561 -0.1278 -1.0076  0.7807
   73SOL     vw  292   0.463   1.599   5.531  0.2267 -0.8383  0.7169
   74SOL     ow  293   2.241   2.056   0.882 -0.9230 -0.5488 -0.4539
   74SOL     hw  294   2.198   2.140   0.896 -0.4764 -0.6785  2.1602
   74SOL     hw  295   2.332   2.078   0.865 -0.9546 -0.4834 -0.5392
   74SOL     vw  296   2.247   2.070   0.881 -0.8683 -0.5573 -0.1203
   75SOL     ow  297   1.413   2.121   3.657  0.1237  0.3695 -1.0447
   75SOL     hw  298   1.387   2.038   3.698 -0.2814  0.5776 -0.8790
   75SOL     hw  299   1.392   2.188   3.723  1.4627  0.5158 -0.7202
   75SOL     vw  300   1.407   2.119   3.671  0.2469  0.4162 -0.9800
   76SOL     ow  301   0.243   0.402   1.517  0.3324  0.1275  0.8381
   76SOL     hw  302   0.182   0.454   1.569  1.8166 -0.0992  2.9187
   76SOL     hw  303   0.310   0.464   1.489  0.4216 -0.0806  0.5814
   76SOL     vw  304   0.243   0.417   1.520  0.5400  0.0701  1.0787
   77SOL     ow  305   0.598   1.630   1.608  0.8231  0.4843  0.2773
   77SOL     hw  306   0.613   1.550   1.558  1.5496  1.4559 -1.1265
   77SOL     hw  307   0.634   1.700   1.554 -0.9611  1.9438  0.8379
   77SOL     vw  308   0.604   1.629   1.594  0.6836  0.8051  0.1661
   78SOL     ow  309   0.771   0.464   5.287 -0.5212 -0.8320  0.1485
   78SOL     hw  310   0.696   0.407   5.276 -0.2401 -1.2326  0.2888
   78SOL     hw  311   0.838   0.428   5.228 -0.3728 -0.5951  0.1676
   78SOL     vw  312   0.770   0.452   5.278 -0.4645 -0.8536  0.1695
   79SOL     ow  313   1.471   1.088   2.496 -0.1193 -0.4943 -0.0268
   79SOL     hw  314   1.436   1.039   2.570  0.5679  0.1333  0.7312
   79SOL     hw  315   1.477   1.178   2.527  1.3612 -0.4320 -0.3999
   79SOL     vw  316   1.467   1.093   2.510  0.1667 -0.4033  0.0241
   80SOL     ow  317   1.047   0.266   1.178  0.0894  0.1876 -0.3155
   80SOL     hw  318   1.021   0.326   1.107  1.8998  1.7871  0.3034
   80SOL     hw  319   1.126   0.223   1.145 -0.9953 -1.6791 -0.6076
   80SOL     vw  320   1.054   0.269   1.164  0.1851  0.1523 -0.2724
   81SOL     ow  321   1.599   1.727   6.158  0.4659  0.4175  0.2056
   81SOL     hw  322   1.513   1.725   6.200  0.7197 -1.2591  0.7091
   81SOL     hw  323   1.592   1.663   6.087  1.2830  0.2907  0.2355
   81SOL     vw  324   1.586   1.718   6.154  0.6072  0.1796  0.2761
   82SOL     ow  325   1.775   2.244   5.081  0.3185 -0.1832 -0.2187
   82SOL     hw  326   1.750   2.153   5.096 -0.4502 -0.2984 -1.9202
   82SOL     hw  327   1.773   2.284   5.168  1.5782 -1.9682  0.7039
   82SOL     vw  328   1.771   2.237   5.094  0.3832 -0.4340 -0.3216
   83SOL     ow  329   0.910   1.984   3.408  0.3679  0.2286  0.4602
   83SOL     hw  330   0.823   1.960   3.376  1.0503 -0.1897 -1.2117
   83SOL     hw  331   0.964   1.906   3.393  0.9430  0.3207  1.9073
   83SOL     vw  332   0.906   1.971   3.402  0.5338  0.1856  0.4305
   84SOL     ow  333   1.981   1.921   0.793  0.3648 -0.5028 -0.1747
   84SOL     hw  334   1.976   1.997   0.734 -2.6088 -1.5933 -1.5692
   84SOL     hw  335   1.920   1.858   0.754 -0.8560 -1.7722  3.4212
   84SOL     vw  336   1.972   1.923   0.780 -0.1886 -0.8142  0.1158
   85SOL     ow  337   1.856   0.969   5.949  0.3555 -0.3818  0.0950
   85SOL     hw  338   1.841   0.876   5.965  5.3120 -1.8025 -1.5426
   85SOL     hw  339   1.889   1.002   6.033 -0.2755 -0.4159  0.3582
   85SOL     vw  340   1.858   0.961   5.962  0.9261 -0.5738 -0.0865
   86SOL     ow  341   1.266   0.430   5.527  0.3829 -1.2966 -0.0014
   86SOL     hw  342   1.309   0.483   5.594 -0.0041  1.9607 -2.1083
   86SOL     hw  343   1.315   0.448   5.446 -1.6185 -1.7606 -1.4062
   86SOL     vw  344   1.278   0.439   5.525  0.0677 -0.9281 -0.4644
   87SOL     ow  345   0.817   1.538   0.925 -0.4809  0.1051 -0.2572
   87SOL     hw  346   0.844   1.586   1.004  0.1243 -1.8166  0.7659
   87SOL     hw  347   0.843   1.447   0.942 -0.6363 -0.4241 -2.5576
   87SOL     vw  348   0.824   1.532   0.938 -0.4216 -0.2183 -0.4257
   88SOL     ow  349   0.542   1.522   4.631 -0.3714  0.1958  0.8227
   88SOL     hw  350   0.499   1.467   4.697 -1.9000  0.2949 -0.0486
   88SOL     hw  351   0.573   1.461   4.565 -0.6193  0.2350  0.6653
   88SOL     vw  352   0.540   1.507   4.631 -0.6058  0.2141  0.6871
   89SOL     ow  353   0.069   0.973   2.608 -0.2228  0.0460  0.2588
   89SOL     hw  354   0.083   0.965   2.513  0.7704 -0.0099  0.4048
   89SOL     hw  355  -0.026   0.987   2.616 -0.4958 -1.0715 -0.6657
   89SOL     vw  356   0.058   0.974   2.596 -0.1278 -0.1088  0.1559
   90SOL     ow  357   1.617   2.292   1.773 -0.3078  0.0277  0.1057
   90SOL     hw  358   1.674   2.285   1.697  0.1870  0.1808  0.4554
   90SOL     hw  359   1.551   2.224   1.761  0.0565 -0.2677 -0.2165
   90SOL     vw  360   1.616   2.283   1.762 -0.1944  0.0088  0.1093
   91SOL     ow  361   1.898   1.706   4.355 -0.5569  0.2640  0.1805
   91SOL     hw  362   1.852   1.785   4.384  0.0606  1.1979 -1.2517
   91SOL     hw  363   1.964   1.738   4.293 -1.4146 -1.4948 -1.8022
   91SOL     vw  364   1.901   1.721   4.350 -0.5886  0.1551 -0.2701
   92SOL     ow  365   0.142   2.220   5.481 -0.5651  0.1276 -0.2796
   92SOL     hw  366   0.181   2.146   5.529 -1.0216  0.8380  1.2585
   92SOL     hw  367   0.162   2.296   5.535  0.9448  1.3643 -2.4346
   92SOL     vw  368   0.150   2.220   5.495 -0.4261  0.3844 -0.3610
   93SOL     ow  369   1.519   0.564   5.719  0.1001  0.4633  0.3677
   93SOL     hw  370   1.524   0.660   5.715  0.3714  0.4568  0.5519
   93SOL     hw  371   1.576   0.534   5.648  0.0253  0.4376  0.3185
   93SOL     vw  372   1.527   0.573   5.709  0.1261  0.4591  0.3853
   94SOL     ow  373   0.369   1.691   2.572  0.1017  0.7739 -0.2609
   94SOL     hw  374   0.387   1.618   2.632 -0.0403  0.0422 -1.0905
   94SOL     hw  375   0.340   1.649   2.491 -0.7119  1.7769 -0.5100
   94SOL     vw  376   0.367   1.675   2.569 -0.0244  0.8097 -0.4033
   95SOL     ow  377   0.244   0.255   3.639 -0.2788 -0.6190 -0.1450
   95SOL     hw  378   0.302   0.297   3.702 -0.5167 -2.2090  1.2033
   95SOL     hw  379   0.159   0.253   3.683 -0.1704 -2.9027  0.0808
   95SOL     vw  380   0.240   0.261   3.653 -0.2959 -1.1301  0.0627
   96SOL     ow  381   1.355   2.268   1.189  0.1512 -0.6897  0.3373
   96SOL     hw  382   1.384   2.226   1.270 -0.3697 -1.5551  0.0827
   96SOL     hw  383   1.292   2.207   1.151 -2.1235  1.1304  0.9111
   96SOL     vw  384   1.351   2.255   1.195 -0.2176 -0.5637  0.3794
   97SOL     ow  385   1.790   1.558   4.583 -0.3151 -0.0982  0.5822
   97SOL     hw  386   1.732   1.512   4.643 -0.2331  0.1995  0.8883
   97SOL     hw  387   1.848   1.610   4.639 -0.7840  0.8403  0.2270
   97SOL     vw  388   1.790   1.559   4.598 -0.3662  0.0649  0.5760
   98SOL     ow  389   0.329   0.878   0.436 -0.6265 -0.3023  0.5777
   98SOL     hw  390   0.292   0.790   0.424  0.1223 -0.6752  0.9419
   98SOL     hw  391   0.369   0.875   0.523  1.1133 -0.2222 -0.1871
   98SOL     vw  392   0.329   0.866   0.446 -0.2982 -0.3409  0.5248
   99SOL     ow  393   0.041   0.048   6.400  0.2329  0.1250 -0.8562
   99SOL     hw  394  -0.028   0.105   6.366  0.7273  1.0536 -0.3499
   99SOL     hw  395   0.005   0.013   6.482  0.7040  1.3696 -0.0942
   99SOL     vw  396   0.027   0.051   6.407  0.3603  0.4117 -0.6890
  100SOL     ow  397   0.056   0.592   4.523 -0.3873 -0.3630 -0.0434
  100SOL     hw  398   0.042   0.504   4.488  1.4492 -1.0084  0.7319
  100SOL     hw  399   0.007   0.594   4.604  0.5925 -1.1593  0.5951
  100SOL     vw  400   0.048   0.581   4.529 -0.0157 -0.5532  0.1431
  101SOL     ow  401   1.821   1.414   3.393  0.5640  0.1108  0.0723
  101SOL     hw  402   1.882   1.474   3.351  0.4827  2.4905  3.0441
  101SOL     hw  403   1.845   1.416   3.486 -1.8314 -1.6082  0.8330
  101SOL     vw  404   1.832   1.422   3.400  0.2372  0.1980  0.5647
  102SOL     ow  405   0.324   0.900   5.895 -0.0373  0.1314  0.7641
  102SOL     hw  406   0.319   0.922   5.802  2.4860 -2.5544 -0.1587
  102SOL     hw  407   0.399   0.949   5.928 -0.3590  0.3542  1.1793
  102SOL     vw  408   0.333   0.909   5.887  0.2532 -0.1936  0.6971
  103SOL     ow  409   1.563   1.565   3.309  0.0400 -0.6321 -0.3299
  103SOL     hw  410   1.489   1.605   3.355  0.3274 -0.4920  0.0183
  103SOL     hw  411   1.588   1.629   3.243  0.5715 -0.1711  0.3016
  103SOL     vw  412   1.556   1.579   3.307  0.1481 -0.5528 -0.2007
  104SOL     ow  413   0.860   0.570   3.851  0.2727 -0.1960  0.1651
  104SOL     hw  414   0.776   0.525   3.856  0.6763 -1.2097 -1.3601
  104SOL     hw  415   0.925   0.500   3.855  1.0100  0.4754  0.2555
  104SOL     vw  416   0.858   0.555   3.852  0.4233 -0.2411 -0.0242
  105SOL     ow  417   0.594   0.457   2.408 -0.5333  0.5595 -0.1486
  105SOL     hw  418   0.542   0.464   2.327  1.3062 -0.5708 -1.5189
  105SOL     hw  419   0.566   0.374   2.447 -0.2791  0.3068 -0.4986
  105SOL     vw  420   0.584   0.447   2.402 -0.2570  0.3770 -0.3755
  106SOL     ow  421   0.595   1.395   0.786 -0.1267  0.2806  0.2291
  106SOL     hw  422   0.617   1.317   0.734 -3.3739  0.3897 -1.5783
  106SOL     hw  423   0.512   1.372   0.828 -0.5212  2.3403  0.6519
  106SOL     vw  424   0.587   1.382   0.785 -0.6072  0.5668  0.0464
  107SOL     ow  425   1.871   1.764   2.170 -0.3175 -0.1685 -0.4357
  107SOL     hw  426   1.923   1.819   2.229  0.0610 -1.1628  0.1763
  107SOL     hw  427   1.792   1.743   2.220 -1.0402  0.8033 -1.1249
  107SOL     vw  428   1.867   1.769   2.185 -0.3630 -0.1715 -0.4460
  108SOL     ow  429   1.899   0.425   3.514 -0.6574  0.1275  0.1536
  108SOL     hw  430   1.867   0.390   3.430  0.5679  2.7419 -1.5438
  108SOL     hw  431   1.912   0.348   3.568 -0.5388 -1.8025 -2.4141
  108SOL     vw  432   1.896   0.410   3.510 -0.4801  0.2178 -0.4091
  109poe    c31  433   1.252   1.671   4.462  0.0478 -0.1212 -0.4226
  109poe     o2  434   1.162   1.719   4.364 -0.5524 -0.2571  0.0585
  109poe    c23  435   1.229   1.774   4.253 -0.6216 -0.4062 -0.0575
  109poe    c23  436   1.127   1.838   4.157 -0.2672  0.0379 -0.1412
  109poe     o2  437   1.044   1.942   4.203 -0.4331 -0.2560  0.2268
  109poe    c23  438   0.931   1.974   4.125 -0.1749  0.1297  0.0073
  109poe    c23  439   0.896   2.123   4.145 -0.6302  0.0455 -0.1536
  109poe     o2  440   0.876   2.146   4.283  0.3644  0.2758 -0.0351
  109poe    c23  441   0.818   2.265   4.330  0.4780  0.4051 -0.2239
  109poe    c23  442   0.862   2.278   4.477  0.1831  0.3364 -0.1294
  109poe     o2  443   1.001   2.252   4.479  0.0081 -0.6461 -0.1607
  109poe    c31  444   1.067   2.303   4.593  0.4187 -0.3414 -0.5319
  110poe    c31  445   0.876   1.161   5.069 -0.3570  0.5400 -0.0660
  110poe     o2  446   0.961   1.135   5.179 -0.8086 -0.4079  0.0624
  110poe    c23  447   1.043   1.021   5.173  0.4272  0.4911 -0.3722
  110poe    c23  448   1.191   1.065   5.184  0.4751  0.3349 -0.3827
  110poe     o2  449   1.220   1.148   5.295 -0.0878 -0.7955  0.6429
  110poe    c23  450   1.360   1.161   5.300 -0.1210  0.6439 -0.9274
  110poe    c23  451   1.404   1.257   5.413 -0.3139 -0.0699 -0.2338
  110poe     o2  452   1.299   1.344   5.451 -0.0247  0.1068  0.1648
  110poe    c23  453   1.344   1.444   5.539  0.2211 -0.1440  0.3271
  110poe    c23  454   1.222   1.516   5.600  0.2627  0.0647  0.1652
  110poe     o2  455   1.132   1.566   5.504 -0.4234 -0.2174  0.6482
  110poe    c31  456   1.051   1.660   5.571 -0.2634  0.5915 -0.2586
  111poe    c31  457   1.629   0.982   5.208  0.2672  0.1530 -0.0632
  111poe     o2  458   1.765   1.014   5.223  0.3733 -0.3016 -0.0383
  111poe    c23  459   1.798   1.071   5.098 -0.3616 -0.0014 -0.0996
  111poe    c23  460   1.934   1.143   5.099 -0.4199  0.1130 -0.3909
  111poe     o2  461   1.945   1.236   5.204 -0.6661 -0.6671  0.3332
  111poe    c23  462   1.916   1.366   5.159  1.1735 -0.1798  0.4834
  111poe    c23  463   1.914   1.459   5.282  0.7161  0.6659 -0.1535
  111poe     o2  464   2.012   1.414   5.372  0.2827  0.1322  0.0574
  111poe    c23  465   2.008   1.474   5.500  0.0799 -0.1903  0.2050
  111poe    c23  466   2.105   1.386   5.581  0.0661 -0.3591  0.0381
  111poe     o2  467   2.077   1.250   5.557  0.1891 -0.3650 -0.0694
  111poe    c31  468   2.149   1.166   5.644 -0.4984 -0.4664  0.4005
  112poe    c31  469   1.725   0.926   0.506 -0.1462  0.6141  0.0563
  112poe     o2  470   1.864   0.951   0.503 -0.0402  0.0174 -0.0987
  112poe    c23  471   1.930   1.028   0.601  0.0985  0.1538 -0.2995
  112poe    c23  472   2.079   0.989   0.603  0.0517 -0.0097  0.1785
  112poe     o2  473   2.135   1.040   0.483 -0.0092 -0.0939  0.1141
  112poe    c23  474   2.260   0.982   0.453 -0.2861 -0.3960 -0.4681
  112poe    c23  475   2.295   1.006   0.305  0.0005 -0.2196 -0.3739
  112poe     o2  476   2.288   1.147   0.296  0.1446 -0.1724  0.2798
  112poe    c23  477   2.329   1.201   0.173  0.0912  0.3593  0.4944
  112poe    c23  478   2.258   1.338   0.171 -0.1495  0.2280 -0.3461
  112poe     o2  479   2.120   1.326   0.197 -0.0945  0.2251 -0.0479
  112poe    c31  480   2.050   1.441   0.155 -0.3184 -0.0291 -0.3827
  113poe    c31  481   1.531   0.207   3.540  0.0398  0.0123  0.5812
  113poe     o2  482   1.569   0.072   3.529  0.1177  0.0840 -0.0360
  113poe    c23  483   1.633   0.058   3.404  0.2836  0.6619 -0.0197
  113poe    c23  484   1.602  -0.086   3.359 -0.1759  0.7314  0.0655
  113poe     o2  485   1.623  -0.181   3.461  0.4011  0.3643 -0.3886
  113poe    c23  486   1.638  -0.310   3.405  0.1143  0.0451  0.2537
  113poe    c23  487   1.727  -0.395   3.498 -0.1641 -0.1177  0.3710
  113poe     o2  488   1.648  -0.426   3.610  0.1925  0.0999  0.6838
  113poe    c23  489   1.696  -0.517   3.707 -0.0651 -0.3746  0.3687
  113poe    c23  490   1.679  -0.480   3.856 -0.3447 -0.2498  0.3080
  113poe     o2  491   1.726  -0.358   3.908 -0.0264 -0.2788  0.0918
  113poe    c31  492   1.693  -0.350   4.044 -0.2448  0.4816 -0.0016
  114poe    c31  493   1.246   0.746   2.260  0.3435  0.3723  0.3152
  114poe     o2  494   1.176   0.866   2.241 -0.1319  0.1033  0.3543
  114poe    c23  495   1.144   0.871   2.104  0.0763 -0.2873  0.2907
  114poe    c23  496   1.026   0.968   2.083  0.0777 -0.3826 -0.1817
  114poe     o2  497   1.036   1.073   2.177 -0.4785 -0.5338  0.0457
  114poe    c23  498   0.936   1.169   2.153  0.4381  0.2923 -0.5047
  114poe    c23  499   0.930   1.266   2.272 -0.8751 -0.3284 -0.0433
  114poe     o2  500   0.888   1.204   2.392 -0.3199  0.2341  0.4507
  114poe    c23  501   0.842   1.300   2.485 -0.4516  0.3744  0.2407
  114poe    c23  502   0.803   1.232   2.617 -0.1041 -0.0422  0.1337
  114poe     o2  503   0.915   1.163   2.666  0.0135 -0.1668 -0.3086
  114poe    c31  504   0.904   1.158   2.807 -0.4711 -0.3074 -0.3495
  115poe    c31  505   1.197   0.300   2.239 -0.1022 -0.0691 -0.3657
  115poe     o2  506   1.270   0.251   2.129  0.5481  0.1037 -0.0175
  115poe    c23  507   1.218   0.135   2.067 -0.4548  0.4304  0.1947
  115poe    c23  508   1.297   0.110   1.937 -0.2034  0.2938  0.3728
  115poe     o2  509   1.282   0.207   1.837 -0.1050 -0.3894 -0.3170
  115poe    c23  510   1.369   0.169   1.733  0.0082 -0.4347 -0.2063
  115poe    c23  511   1.364   0.259   1.608 -0.3250  0.1795  0.2442
  115poe     o2  512   1.378   0.393   1.649 -0.3474  0.5039 -0.7706
  115poe    c23  513   1.397   0.478   1.538  0.4055  0.4075 -0.7148
  115poe    c23  514   1.372   0.623   1.585  0.1405  0.1522 -0.0581
  115poe     o2  515   1.266   0.613   1.677  0.3582  0.7601  0.2683
  115poe    c31  516   1.238   0.734   1.744 -0.1330  0.4834  0.5735
  116poe    c31  517   0.301   0.314   2.209  0.8276  0.0137 -0.0866
  116poe     o2  518   0.356   0.442   2.196  0.2622  0.2284 -0.3817
  116poe    c23  519   0.458   0.439   2.098  0.1379 -0.2550 -0.4957
  116poe    c23  520   0.516   0.580   2.078  0.2096 -0.1958  0.0868
  116poe     o2  521   0.584   0.623   2.193 -0.6332  0.1892  0.4462
  116poe    c23  522   0.638   0.752   2.181  0.0228 -0.1182  0.0264
  116poe    c23  523   0.689   0.791   2.322 -0.6903  0.4717  0.1259
  116poe     o2  524   0.772   0.684   2.361 -0.1501  0.5600 -0.7485
  116poe    c23  525   0.826   0.714   2.488  0.1233 -0.2239 -0.6735
  116poe    c23  526   0.935   0.609   2.514  0.4507  0.1961 -0.3259
  116poe     o2  527   0.868   0.486   2.501  0.6619  0.0942 -0.4705
  116poe    c31  528   0.960   0.385   2.536  0.5825  0.2856  0.3049
  117poe    c31  529   1.740   0.119   4.723  0.4895 -0.5273  0.1416
  117poe     o2  530   1.680   0.111   4.850  0.1000 -0.1816 -0.0201
  117poe    c23  531   1.579   0.209   4.863  0.0464 -0.2274 -0.0892
  117poe    c23  532   1.528   0.203   5.009 -0.0262  0.2689 -0.0944
  117poe     o2  533   1.506   0.066   5.034  0.2797  0.3233  0.4839
  117poe    c23  534   1.405   0.037   5.129 -0.0023 -0.4147 -0.0322
  117poe    c23  535   1.368  -0.111   5.146 -0.5339 -0.2054  0.6544
  117poe     o2  536   1.490  -0.176   5.172 -0.0810  0.1881 -0.4391
  117poe    c23  537   1.486  -0.316   5.191  0.0207  0.2268 -0.1164
  117poe    c23  538   1.628  -0.349   5.238 -0.1029  0.3189  0.3237
  117poe     o2  539   1.725  -0.328   5.138 -0.2288  0.5932  0.2585
  117poe    c31  540   1.844  -0.361   5.205 -0.1514  0.8440  0.2449
  118poe    c31  541   1.535   1.323   1.129 -0.9599  0.1573 -0.2830
  118poe     o2  542   1.560   1.197   1.070  0.0356 -0.0272  0.5176
  118poe    c23  543   1.459   1.174   0.975  0.5019 -0.0377  0.0129
  118poe    c23  544   1.484   1.044   0.895  0.0375 -0.1588  0.0598
  118poe     o2  545   1.521   0.955   0.998  0.4728 -0.1838 -0.1188
  118poe    c23  546   1.556   0.840   0.924  0.1815 -0.3573  0.0138
  118poe    c23  547   1.609   0.729   1.017  0.6894 -0.5099 -0.4523
  118poe     o2  548   1.693   0.782   1.118  0.1705 -0.4782 -0.0329
  118poe    c23  549   1.748   0.671   1.186  0.6703 -0.4291 -0.3551
  118poe    c23  550   1.834   0.693   1.312 -0.3375  0.2498  0.2349
  118poe     o2  551   1.961   0.751   1.288 -0.2223 -0.2518 -0.4019
  118poe    c31  552   2.051   0.730   1.393 -0.3149 -0.2982 -0.3313
  119poe    c31  553   0.963   1.923   2.648  0.2402  0.8658 -0.4458
  119poe     o2  554   1.083   1.852   2.626 -0.4038 -0.2652 -0.3832
  119poe    c23  555   1.142   1.896   2.506  0.9874 -0.4471  0.2215
  119poe    c23  556   1.150   1.773   2.414  0.1810 -0.3279 -0.0131
  119poe     o2  557   1.166   1.671   2.511 -0.2863  0.0107  0.4238
  119poe    c23  558   1.248   1.563   2.475 -0.0816  0.1727  0.3990
  119poe    c23  559   1.243   1.464   2.593 -0.1511 -0.3151 -0.0061
  119poe     o2  560   1.257   1.549   2.705 -0.4808  0.0572 -0.2452
  119poe    c23  561   1.220   1.491   2.828  0.0161  0.1993 -0.0249
  119poe    c23  562   1.211   1.595   2.941 -0.9069 -0.3027  0.3739
  119poe     o2  563   1.158   1.709   2.877 -0.5522 -0.1481  0.3557
  119poe    c31  564   1.110   1.796   2.977  0.1531  0.5853  0.0666
  120poe    c31  565   1.053   0.487   6.007 -0.0095 -0.5947  0.0299
  120poe     o2  566   1.084   0.551   6.129  0.1363  0.0734 -0.3559
  120poe    c23  567   0.976   0.617   6.190  0.0799 -0.1097 -0.2581
  120poe    c23  568   0.992   0.678   6.330  0.2109 -0.2519 -0.2122
  120poe     o2  569   1.084   0.784   6.344 -0.1546  0.0136  0.2108
  120poe    c23  570   1.089   0.822   6.480  0.2493 -0.0473  0.2121
  120poe    c23  571   1.220   0.894   6.516  0.7716 -0.7613 -0.2254
  120poe     o2  572   1.257   1.008   6.442 -0.4721 -0.2443 -0.0692
  120poe    c23  573   1.366   1.068   6.509 -0.5808 -0.2316  0.0961
  120poe    c23  574   1.401   1.193   6.426  0.6511 -0.4182  0.3228
  120poe     o2  575   1.474   1.172   6.307  0.5047  0.2858  0.1058
  120poe    c31  576   1.495   1.305   6.266 -0.6116  0.4192 -0.0685
  121poe    c31  577   1.368   0.678   4.144 -0.2010  0.3595 -0.1154
  121poe     o2  578   1.426   0.789   4.209  0.2036  0.0105  0.1239
  121poe    c23  579   1.347   0.901   4.180  0.2126  0.0279  0.1659
  121poe    c23  580   1.438   1.023   4.203 -0.3701  0.4278  0.3702
  121poe     o2  581   1.488   1.033   4.335 -0.5774  0.9778  0.4127
  121poe    c23  582   1.420   1.100   4.438 -0.3831  0.7035  0.7214
  121poe    c23  583   1.475   1.084   4.581 -0.4603  0.3476  0.7122
  121poe     o2  584   1.513   0.954   4.618  0.1192  0.3546  0.1639
  121poe    c23  585   1.528   0.928   4.756  0.3642  0.1838  0.1066
  121poe    c23  586   1.523   0.779   4.794  0.2066  0.1374 -0.0967
  121poe     o2  587   1.587   0.723   4.681  0.1557  0.4168 -0.2638
  121poe    c31  588   1.614   0.587   4.704 -0.4156  0.3778  0.2209
  122poe    c31  589   2.172   1.095   1.004 -0.2144 -0.0570 -0.0163
  122poe     o2  590   2.039   1.140   1.001 -0.3001 -0.2822  0.2917
  122poe    c23  591   2.029   1.273   0.955  0.2236 -0.4488 -0.3222
  122poe    c23  592   1.975   1.359   1.071  0.1813 -0.2364 -0.4987
  122poe     o2  593   1.863   1.309   1.142  0.4987 -0.0090  0.1695
  122poe    c23  594   1.921   1.253   1.257  0.3650 -0.1702  0.1576
  122poe    c23  595   1.812   1.201   1.353  0.1902 -0.1115 -0.0083
  122poe     o2  596   1.729   1.097   1.308  0.0176  0.0127  0.0191
  122poe    c23  597   1.659   1.054   1.422  0.5165  0.1868  0.3959
  122poe    c23  598   1.554   0.947   1.386  0.7521 -0.0057  0.2729
  122poe     o2  599   1.491   0.969   1.261 -0.5063 -0.4183  0.8160
  122poe    c31  600   1.358   0.923   1.267 -0.7095  0.0713  0.1778
  123poe    c31  601   0.083   0.678   1.643 -0.0469  0.0342  0.5590
  123poe     o2  602   0.071   0.538   1.660  0.2094  0.0192  0.6231
  123poe    c23  603   0.005   0.513   1.781 -0.3224 -0.1311  0.3048
  123poe    c23  604  -0.009   0.362   1.811 -0.6552 -0.1307  0.1587
  123poe     o2  605   0.123   0.313   1.821 -0.3772  0.6651  0.5619
  123poe    c23  606   0.124   0.173   1.839  0.2395  0.6722  0.6123
  123poe    c23  607   0.267   0.122   1.817  0.1460  0.6183  0.1107
  123poe     o2  608   0.328   0.172   1.700  0.3121  0.4034  0.1033
  123poe    c23  609   0.454   0.114   1.678 -0.0072 -0.0996 -0.4092
  123poe    c23  610   0.514   0.189   1.558 -0.1202  0.6246 -0.0130
  123poe     o2  611   0.411   0.186   1.462  0.1607  0.0942 -0.3024
  123poe    c31  612   0.464   0.235   1.340  0.0872 -0.3452 -0.5102
  124poe    c31  613   1.537   0.941   5.776 -0.1797  0.1853 -0.0516
  124poe     o2  614   1.607   0.825   5.736 -0.3054  0.1186 -0.0785
  124poe    c23  615   1.741   0.851   5.701 -0.1866 -0.0910  0.2151
  124poe    c23  616   1.821   0.721   5.717  0.3528  0.1713 -0.3440
  124poe     o2  617   1.842   0.691   5.853 -0.2352 -0.5152 -0.3996
  124poe    c23  618   1.910   0.576   5.897 -0.2403 -0.2094  0.4345
  124poe    c23  619   1.871   0.437   5.843  0.0430 -0.2768  0.4005
  124poe     o2  620   1.734   0.408   5.857 -0.0852  0.0000 -0.2174
  124poe    c23  621   1.709   0.270   5.839 -0.6200  0.1275 -0.4625
  124poe    c23  622   1.585   0.226   5.921  0.1138  0.0925  0.6559
  124poe     o2  623   1.483   0.322   5.909  0.1381  0.0916  0.4355
  124poe    c31  624   1.368   0.269   5.971  0.0640 -0.2534  0.0057
  125poe    c31  625   1.454   1.585   1.472 -0.3741 -0.2359  0.1214
  125poe     o2  626   1.508   1.628   1.349  0.0788 -0.2971  0.2936
  125poe    c23  627   1.648   1.635   1.356  0.0525  0.3864  0.2169
  125poe    c23  628   1.715   1.649   1.218  0.8352  0.5073  0.6000
  125poe     o2  629   1.674   1.766   1.150  0.0835 -0.1814 -0.1595
  125poe    c23  630   1.729   1.781   1.020  0.1083 -0.2136 -0.1529
  125poe    c23  631   1.702   1.925   0.972 -0.5774 -0.3118 -0.0687
  125poe     o2  632   1.562   1.939   0.989 -0.4057  0.2677  0.9511
  125poe    c23  633   1.496   2.037   0.913 -0.3276 -0.6658 -0.3606
  125poe    c23  634   1.348   2.002   0.929 -0.5681  0.3333 -0.3354
  125poe     o2  635   1.317   1.998   1.067  0.2798 -0.6615 -0.1610
  125poe    c31  636   1.179   2.016   1.090  0.2867 -0.0320 -0.5734
  126poe    c31  637   1.244   0.302   3.197 -0.6378 -0.8526 -0.8129
  126poe     o2  638   1.119   0.356   3.233 -0.1798 -0.1627 -0.2092
  126poe    c23  639   1.107   0.396   3.367 -0.6323 -0.0089 -0.2946
  126poe    c23  640   0.992   0.491   3.408 -0.2108  0.1441  0.5576
  126poe     o2  641   0.994   0.598   3.316  0.1050 -0.2244  0.1342
  126poe    c23  642   0.917   0.704   3.366 -0.2232 -0.4019  0.0119
  126poe    c23  643   0.924   0.828   3.274  0.1106 -0.0145  0.5511
  126poe     o2  644   0.894   0.774   3.147 -0.1636  0.0744  0.5762
  126poe    c23  645   0.820   0.865   3.069  0.3795  0.1443  0.1348
  126poe    c23  646   0.760   0.798   2.944  0.2458 -0.0863  0.3212
  126poe     o2  647   0.672   0.690   2.966  0.0015 -0.0154 -0.2980
  126poe    c31  648   0.611   0.671   2.840  0.0518  0.1300 -0.3446
  127poe    c31  649   0.576   2.002   2.770  0.4870  0.4082 -0.1894
  127poe     o2  650   0.496   1.975   2.657  0.3138  0.3397 -0.0499
  127poe    c23  651   0.493   2.101   2.594  0.1813  0.1214 -0.4822
  127poe    c23  652   0.448   2.081   2.448  0.5367 -0.1545 -0.5575
  127poe     o2  653   0.352   1.979   2.462  0.1329  0.2018 -0.6877
  127poe    c23  654   0.242   2.009   2.379 -0.4282 -0.5373 -0.2266
  127poe    c23  655   0.132   1.901   2.385 -0.6682 -0.2997 -0.3166
  127poe     o2  656   0.073   1.899   2.513 -0.2708  0.0357 -0.1259
  127poe    c23  657  -0.002   1.781   2.521 -0.2327 -0.0004 -0.3019
  127poe    c23  658  -0.064   1.745   2.658  0.0682  0.3280 -0.0786
  127poe     o2  659   0.036   1.729   2.756 -0.0128  0.3680  0.0107
  127poe    c31  660   0.005   1.644   2.863  0.6320  0.1248  0.0101
  128poe    c31  661   0.661   0.970   5.930 -0.2920 -0.4886  0.1423
  128poe     o2  662   0.531   1.020   5.948 -0.0578  0.3003 -0.2611
  128poe    c23  663   0.526   1.073   6.079  0.1663 -0.3417  0.0150
  128poe    c23  664   0.417   1.181   6.093  0.0022 -0.5393  0.2470
  128poe     o2  665   0.288   1.130   6.067  0.0580 -0.4737 -0.1589
  128poe    c23  666   0.188   1.229   6.063 -0.0853 -0.6146 -0.0918
  128poe    c23  667   0.060   1.169   6.123 -0.5698  0.3864 -0.0976
  128poe     o2  668   0.041   1.047   6.055  0.1648  0.1624  0.0869
  128poe    c23  669  -0.070   0.965   6.084  0.4732 -0.1933  0.2657
  128poe    c23  670  -0.080   0.850   5.982  0.5209 -0.1423  0.2031
  128poe     o2  671   0.048   0.797   5.954  0.5275 -0.0224  0.0060
  128poe    c31  672   0.022   0.678   5.884  0.2801  0.2124 -0.3066
  129poe    c31  673   0.443   0.206   0.915 -0.3602 -0.3326  0.0269
  129poe     o2  674   0.341   0.232   1.009 -0.5849  0.2196 -0.3632
  129poe    c23  675   0.291   0.112   1.063  0.0023  0.1982  0.1546
  129poe    c23  676   0.141   0.105   1.029 -0.0581 -0.0036  0.4617
  129poe     o2  677   0.049   0.198   1.082 -0.0776  0.2979 -0.0968
  129poe    c23  678  -0.034   0.133   1.175  0.1324  0.5483  0.2663
  129poe    c23  679  -0.168   0.209   1.187 -0.4933 -0.3925 -0.6657
  129poe     o2  680  -0.126   0.340   1.159 -0.3666 -0.2624  0.1078
  129poe    c23  681  -0.231   0.429   1.125 -0.2278 -0.1223  0.0458
  129poe    c23  682  -0.158   0.565   1.114  0.4754 -0.4913  0.0673
  129poe     o2  683  -0.041   0.548   1.037  0.4098  0.0633 -0.1566
  129poe    c31  684   0.010   0.675   1.001 -0.1758  0.3472  0.0002
  130poe    c31  685   2.245   1.988   4.373  0.1769 -0.4098  0.1438
  130poe     o2  686   2.309   2.042   4.260 -0.6569 -0.1036 -0.1915
  130poe    c23  687   2.248   2.163   4.222  0.3095  0.5368  0.2632
  130poe    c23  688   2.340   2.234   4.121  0.1631 -0.2289 -0.4068
  130poe     o2  689   2.380   2.128   4.036 -0.4919 -0.9459  0.1581
  130poe    c23  690   2.416   2.173   3.907  0.4023 -0.4360  0.5742
  130poe    c23  691   2.494   2.058   3.842 -0.1955 -0.1664 -0.6417
  130poe     o2  692   2.451   1.931   3.888 -0.4003  0.1969  0.1885
  130poe    c23  693   2.373   1.856   3.798  0.0177  0.9013 -0.7807
  130poe    c23  694   2.234   1.919   3.779  0.0016  1.0211 -0.2725
  130poe     o2  695   2.167   1.903   3.902  0.4169 -0.1376 -0.1873
  130poe    c31  696   2.054   1.988   3.898  0.1739 -0.4237  0.5176
  131poe    c31  697   1.285   1.566   6.172 -0.3159  0.1725 -0.0380
  131poe     o2  698   1.347   1.665   6.250 -0.1237  0.1076 -0.1097
  131poe    c23  699   1.284   1.673   6.375  0.3429 -0.5012  0.1679
  131poe    c23  700   1.376   1.737   6.480  0.2875 -0.1346 -0.0060
  131poe     o2  701   1.326   1.767   6.609  0.8698  0.0685  0.1772
  131poe    c23  702   1.222   1.861   6.621  0.7035 -0.1733  0.6543
  131poe    c23  703   1.159   1.850   6.761 -0.5374  0.1394  0.1340
  131poe     o2  704   1.259   1.818   6.856 -0.0064  0.1310 -0.4187
  131poe    c23  705   1.240   1.888   6.976  0.0092 -0.3414 -0.1381
  131poe    c23  706   1.244   1.793   7.098 -0.1175 -0.4328 -0.2056
  131poe     o2  707   1.374   1.755   7.136  0.0646  0.2287 -0.1602
  131poe    c31  708   1.380   1.661   7.240 -0.1202 -0.0536 -0.4031
  132poe    c31  709   0.990   0.511   4.254  0.2719  0.1906  0.4510
  132poe     o2  710   0.895   0.614   4.266  0.3775  0.3009  0.3324
  132poe    c23  711   0.765   0.565   4.284  0.4338  0.0573  0.0793
  132poe    c23  712   0.680   0.661   4.198 -0.0890 -0.0366  0.4832
  132poe     o2  713   0.728   0.793   4.201  0.3887 -0.1903 -0.1836
  132poe    c23  714   0.658   0.872   4.108  0.2162  0.0264  0.1274
  132poe    c23  715   0.666   1.024   4.132  0.0304 -0.0091  0.4158
  132poe     o2  716   0.609   1.074   4.251 -0.0489  0.4650  0.1806
  132poe    c23  717   0.569   1.209   4.244  0.0715  0.5008  0.1880
  132poe    c23  718   0.538   1.264   4.384  0.0017  0.0483  0.3523
  132poe     o2  719   0.645   1.299   4.470 -0.1314  0.2078  0.4524
  132poe    c31  720   0.702   1.184   4.527 -0.5380 -0.3559 -0.2613
  133poe    c31  721   0.637   1.548   5.911 -0.3381 -0.2114 -0.2483
  133poe     o2  722   0.703   1.661   5.963 -0.5249 -0.4256  0.4590
  133poe    c23  723   0.643   1.780   5.916 -0.1493 -0.3402  0.1917
  133poe    c23  724   0.723   1.898   5.975 -0.2680 -0.2541  0.1804
  133poe     o2  725   0.720   1.903   6.115  0.3492 -0.3598  0.2004
  133poe    c23  726   0.811   1.997   6.167 -0.0438  0.2022 -0.1296
  133poe    c23  727   0.782   2.005   6.318  0.3882 -0.3517 -0.0163
  133poe     o2  728   0.793   1.877   6.376 -0.2277 -0.4116 -0.0252
  133poe    c23  729   0.742   1.867   6.507  0.0736 -0.2874  0.1020
  133poe    c23  730   0.722   1.722   6.557  0.9341 -0.4655 -0.0527
  133poe     o2  731   0.673   1.642   6.452  0.0004  0.2923 -0.2069
  133poe    c31  732   0.650   1.522   6.522  0.4069 -0.0242 -0.6119
  134poe    c31  733   0.805   1.387   3.583  0.3678 -0.3823  0.1696
  134poe     o2  734   0.731   1.406   3.701  0.1772 -0.4808  0.0662
  134poe    c23  735   0.620   1.320   3.715 -0.5714  0.4242 -0.1622
  134poe    c23  736   0.577   1.336   3.862  0.0443  0.0409  0.0634
  134poe     o2  737   0.559   1.474   3.882  0.6866  0.1517 -0.1082
  134poe    c23  738   0.507   1.500   4.010 -0.5460 -0.2557 -0.5168
  134poe    c23  739   0.487   1.649   4.044 -0.2134 -0.1679 -0.7014
  134poe     o2  740   0.596   1.734   4.018 -0.1382  0.0409  0.2705
  134poe    c23  741   0.539   1.857   3.978  0.0636 -0.0258 -0.2225
  134poe    c23  742   0.620   1.955   3.891  0.3283  0.3437  0.4312
  134poe     o2  743   0.635   1.913   3.757  0.3321  0.6470  0.3352
  134poe    c31  744   0.670   2.017   3.669  0.3386  0.7509  0.4608
  135poe    c31  745   1.011   0.661   1.392 -0.1501 -0.9977  0.4292
  135poe     o2  746   0.931   0.606   1.289 -0.1755  0.1104 -0.1545
  135poe    c23  747   0.982   0.640   1.162  0.0881 -0.0747 -0.0986
  135poe    c23  748   0.888   0.581   1.055  0.4071  0.1636 -0.5147
  135poe     o2  749   0.890   0.440   1.065 -0.1366  0.1998  0.2404
  135poe    c23  750   0.770   0.397   1.004  0.0427  0.3006 -0.1917
  135poe    c23  751   0.754   0.245   1.023 -0.2731  0.4337  0.6520
  135poe     o2  752   0.789   0.204   1.154 -0.1764  0.1267  0.5318
  135poe    c23  753   0.780   0.064   1.152 -0.4319  0.1439  0.3621
  135poe    c23  754   0.789   0.012   1.297  0.0392 -0.5033  0.1075
  135poe     o2  755   0.906   0.073   1.347 -0.1924 -0.4826  0.6292
  135poe    c31  756   0.947  -0.008   1.455  0.2627 -0.9377  0.1220
  136poe    c31  757   0.392   0.448   6.071 -0.2457  0.1417 -0.3467
  136poe     o2  758   0.372   0.415   6.207  0.0395  0.3961 -0.2428
  136poe    c23  759   0.240   0.370   6.225  0.2193 -0.1972 -0.3809
  136poe    c23  760   0.198   0.383   6.372 -0.0282 -0.3468 -0.4370
  136poe     o2  761   0.292   0.304   6.443 -0.3158 -0.1224  0.1996
  136poe    c23  762   0.252   0.276   6.575 -0.3002 -0.5418  0.1141
  136poe    c23  763   0.371   0.218   6.654  0.0925  0.2543  0.1163
  136poe     o2  764   0.489   0.294   6.659  0.3783 -0.2071  0.5125
  136poe    c23  765   0.589   0.204   6.701  0.1427 -0.6249  0.1768
  136poe    c23  766   0.727   0.271   6.691 -0.3432  0.4112  0.2649
  136poe     o2  767   0.707   0.349   6.575 -0.4069  0.3652  0.2448
  136poe    c31  768   0.832   0.410   6.553 -0.3452  0.1656  0.0348
  137poe    c31  769   0.044   2.138   5.154 -0.2950 -0.2237 -0.5398
  137poe     o2  770  -0.005   2.234   5.246  0.1468 -0.0779 -0.4560
  137poe    c23  771  -0.052   2.352   5.186  0.3238  0.0374 -0.3686
  137poe    c23  772  -0.042   2.456   5.299  0.3035 -0.4175  0.0540
  137poe     o2  773  -0.108   2.402   5.412 -0.1160  0.0042  0.0120
  137poe    c23  774  -0.106   2.480   5.529 -0.4309 -0.4986  0.3506
  137poe    c23  775  -0.183   2.404   5.640  0.3983 -0.1668  1.1662
  137poe     o2  776  -0.123   2.277   5.646  0.1452 -0.3801 -0.2851
  137poe    c23  777  -0.153   2.199   5.761 -0.0693  0.2239  0.0717
  137poe    c23  778  -0.290   2.131   5.760  0.0223  0.0398 -0.3535
  137poe     o2  779  -0.319   2.040   5.656  0.1320 -0.3621 -0.0381
  137poe    c31  780  -0.453   2.028   5.616  0.0301  0.3228  0.0814
  138poe    c31  781   0.027   0.624   4.187  0.3513  0.1128 -0.4576
  138poe     o2  782   0.102   0.721   4.257 -0.8235  0.4685  0.3329
  138poe    c23  783   0.099   0.854   4.209 -0.8328  0.4862  0.3823
  138poe    c23  784   0.189   0.942   4.299  0.3315 -0.3224  0.0346
  138poe     o2  785   0.149   0.913   4.431 -0.1295  0.0552 -0.0188
  138poe    c23  786   0.171   1.024   4.515  0.2087 -0.0912  0.0903
  138poe    c23  787   0.161   0.965   4.657 -0.1507  0.5353  0.3329
  138poe     o2  788   0.210   0.834   4.679  0.0496  0.4611 -0.5290
  138poe    c23  789   0.349   0.814   4.675  0.1086  0.9060 -0.7324
  138poe    c23  790   0.385   0.682   4.604 -0.2359  0.1291  0.5161
  138poe     o2  791   0.321   0.684   4.478  0.4161 -0.2142  0.1754
  138poe    c31  792   0.353   0.569   4.404 -0.0945  0.0140 -0.4002
  139poe    c31  793   0.110   0.574   3.684  0.5421  0.3775  0.1135
  139poe     o2  794   0.204   0.538   3.585  0.1581 -0.4350  0.0307
  139poe    c23  795   0.338   0.568   3.618 -0.0391  0.5515 -0.0361
  139poe    c23  796   0.434   0.545   3.499  0.0933 -0.1402  0.1977
  139poe     o2  797   0.430   0.414   3.448  0.2941 -0.1852  0.3008
  139poe    c23  798   0.477   0.425   3.316 -0.1402  0.2502  0.1804
  139poe    c23  799   0.349   0.430   3.231 -0.2505 -0.0239  0.3289
  139poe     o2  800   0.268   0.326   3.280 -0.5487 -0.2321 -0.5965
  139poe    c23  801   0.130   0.350   3.266 -0.5731  0.0957  0.1855
  139poe    c23  802   0.050   0.221   3.294 -0.3013 -0.2153 -0.4414
  139poe     o2  803   0.107   0.176   3.415 -0.2357 -0.0867 -0.4235
  139poe    c31  804   0.027   0.073   3.468 -0.4031 -0.1495 -0.7986
  140poe    c31  805   2.109   1.089   2.756  0.4272 -0.2714  0.6436
  140poe     o2  806   2.148   1.036   2.631 -0.2238  0.1341  0.2569
  140poe    c23  807   2.059   1.044   2.523  0.3514 -0.1336 -0.2429
  140poe    c23  808   1.933   0.955   2.531  0.3795 -0.2002 -0.5158
  140poe     o2  809   1.858   0.965   2.412  0.2601 -0.7324 -0.4851
  140poe    c23  810   1.748   0.879   2.432 -0.3870  0.1467 -0.2459
  140poe    c23  811   1.657   0.872   2.308  0.3598  0.2733 -0.8100
  140poe     o2  812   1.661   0.998   2.246 -0.0888  0.6902 -0.0140
  140poe    c23  813   1.563   1.034   2.152  0.0184 -0.0632 -0.4256
  140poe    c23  814   1.627   1.156   2.082  0.5903 -0.1874 -0.1220
  140poe     o2  815   1.724   1.219   2.163  0.2509  0.4061 -0.1718
  140poe    c31  816   1.738   1.350   2.112 -0.5280  0.5144 -0.1235
  141poe    c31  817   1.367   1.898   2.125 -1.1376 -0.0988  0.0673
  141poe     o2  818   1.400   2.034   2.143 -0.2078 -0.3771  0.5476
  141poe    c23  819   1.530   2.072   2.107 -0.5602  0.5830  0.2606
  141poe    c23  820   1.553   2.224   2.110  0.2303  0.4985 -0.7394
  141poe     o2  821   1.549   2.274   2.242 -0.3743  0.0217 -0.5741
  141poe    c23  822   1.575   2.412   2.244  0.2188 -0.0980  0.0333
  141poe    c23  823   1.588   2.442   2.395  0.3056 -0.1103  0.0284
  141poe     o2  824   1.473   2.407   2.469  0.2725  0.5997  0.3138
  141poe    c23  825   1.441   2.473   2.590  0.2737 -0.0659  0.6780
  141poe    c23  826   1.303   2.423   2.634 -0.2147  0.1964 -0.5063
  141poe     o2  827   1.305   2.284   2.606 -0.3051  0.2355 -0.7086
  141poe    c31  828   1.214   2.209   2.684  0.4347 -0.2663 -0.3197
  142poe    c31  829   2.048   0.352   0.213  0.5539 -0.4264 -0.1996
  142poe     o2  830   1.928   0.403   0.266  0.5352  0.2009 -0.8257
  142poe    c23  831   1.916   0.543   0.268 -0.0425  0.1490 -0.0750
  142poe    c23  832   1.812   0.597   0.368 -0.2333  0.8003 -0.6158
  142poe     o2  833   1.699   0.514   0.352  0.1315  0.0664  0.4774
  142poe    c23  834   1.572   0.574   0.348  0.1936  0.1523 -0.6588
  142poe    c23  835   1.450   0.483   0.328  0.3021 -0.1932  0.1890
  142poe     o2  836   1.482   0.386   0.230 -0.1978  0.0247 -0.1994
  142poe    c23  837   1.365   0.344   0.163 -0.2385  1.0181 -0.7649
  142poe    c23  838   1.398   0.269   0.032  0.1400 -0.2974  0.0586
  142poe     o2  839   1.502   0.335  -0.036 -0.4788  0.2286 -0.3970
  142poe    c31  840   1.510   0.295  -0.172  0.3941 -0.1040 -0.2605
  143poe    c31  841   2.150   1.393   2.237 -0.0492  0.4467 -0.3925
  143poe     o2  842   2.182   1.511   2.167 -0.0587 -0.2802 -1.6418
  143poe    c23  843   2.285   1.594   2.216 -0.7817  0.0249 -0.6067
  143poe    c23  844   2.335   1.687   2.104 -1.0151 -0.0123 -0.7450
  143poe     o2  845   2.228   1.778   2.088 -0.7095  0.5931  0.4942
  143poe    c23  846   2.249   1.869   1.983 -0.1807 -0.5306 -0.4052
  143poe    c23  847   2.129   1.965   1.976  0.5700  0.4277 -0.4065
  143poe     o2  848   2.010   1.901   1.935  0.6377 -0.0474  0.1343
  143poe    c23  849   1.907   1.979   1.879  0.0336 -0.8203  0.1487
  143poe    c23  850   1.818   1.875   1.808  0.0975 -0.6217 -0.2230
  143poe     o2  851   1.781   1.770   1.894 -0.0526 -0.1590  0.2776
  143poe    c31  852   1.677   1.688   1.847 -0.1110  0.1727 -0.1807
  144poe    c31  853   0.742   1.757   3.247  0.4025  0.2133  0.1846
  144poe     o2  854   0.707   1.891   3.272 -0.2148  0.1740 -0.4379
  144poe    c23  855   0.645   1.948   3.158 -0.1994  0.0855 -0.4904
  144poe    c23  856   0.583   2.088   3.171  0.5796  0.3932 -0.0000
  144poe     o2  857   0.689   2.180   3.186  0.3471  0.6336  0.1884
  144poe    c23  858   0.666   2.267   3.294  0.1770  0.0724  0.6090
  144poe    c23  859   0.779   2.361   3.339  0.0966  0.4221  0.0865
  144poe     o2  860   0.892   2.278   3.355  0.1648  0.4609 -0.1930
  144poe    c23  861   1.002   2.349   3.408  0.6769 -0.0093 -0.6171
  144poe    c23  862   1.114   2.251   3.447  0.0918 -0.2951  0.3614
  144poe     o2  863   1.126   2.159   3.341  0.3489  0.2332 -0.0691
  144poe    c31  864   1.235   2.074   3.367  0.4328  0.1953 -0.5452
  145poe    c31  865   1.445   2.142   5.902 -0.1902 -0.5636  0.4505
  145poe     o2  866   1.537   2.171   6.006 -0.0444  0.2551  0.1005
  145poe    c23  867   1.469   2.190   6.128 -0.2788 -0.1349  0.0345
  145poe    c23  868   1.577   2.207   6.236 -0.9874  0.2377  0.6903
  145poe     o2  869   1.652   2.090   6.255 -0.4757  0.5788  0.7729
  145poe    c23  870   1.760   2.111   6.344 -0.0293  0.1635  0.3374
  145poe    c23  871   1.828   1.982   6.395  0.0477 -0.0909 -0.3903
  145poe     o2  872   1.844   1.885   6.295 -0.6830 -0.2151 -0.3961
  145poe    c23  873   1.930   1.780   6.335  0.1413  0.3886 -0.5682
  145poe    c23  874   1.997   1.739   6.203  0.8128 -0.3786 -0.0005
  145poe     o2  875   1.899   1.747   6.102  0.4442 -0.2574  0.3674
  145poe    c31  876   1.949   1.704   5.978  0.4713  0.1124  0.2464
  146poe    c31  877   2.011   1.677   3.235  0.1163 -0.2108  0.4728
  146poe     o2  878   1.944   1.556   3.207  0.2240 -0.1592 -0.0160
  146poe    c23  879   1.895   1.548   3.075 -0.3165 -0.1458  0.1814
  146poe    c23  880   1.830   1.410   3.059  0.2066 -0.4124  0.3331
  146poe     o2  881   1.724   1.376   3.145 -0.4856 -0.0233 -0.3528
  146poe    c23  882   1.639   1.281   3.086 -0.7427  0.0108 -0.0420
  146poe    c23  883   1.633   1.152   3.170  0.2949 -0.0909 -0.1064
  146poe     o2  884   1.587   1.207   3.292  0.6441 -0.0154 -0.0095
  146poe    c23  885   1.549   1.109   3.385  0.1204  0.5204  0.3469
  146poe    c23  886   1.554   1.192   3.515  1.2476  0.2835  0.4635
  146poe     o2  887   1.556   1.330   3.485  0.0943  0.1958 -0.0600
  146poe    c31  888   1.521   1.414   3.593 -0.4717  0.3021 -0.3204
  147poe    c31  889   0.317   1.824   4.860 -0.1210  0.0493 -0.4991
  147poe     o2  890   0.432   1.865   4.790 -0.1138  0.8249 -0.0478
  147poe    c23  891   0.387   1.906   4.663 -0.9020 -0.4193 -0.1927
  147poe    c23  892   0.494   1.931   4.556 -0.3696 -0.9584  0.2092
  147poe     o2  893   0.578   1.821   4.530  0.0415 -0.5778 -0.1039
  147poe    c23  894   0.660   1.862   4.423 -0.3510  0.1745 -0.1200
  147poe    c23  895   0.738   1.741   4.369 -0.3569 -0.0232  0.3138
  147poe     o2  896   0.802   1.684   4.481  0.0016 -0.3163 -0.0405
  147poe    c23  897   0.890   1.578   4.449  0.3688  0.0658 -0.3148
  147poe    c23  898   0.929   1.542   4.594 -0.2837 -0.6157 -0.2998
  147poe     o2  899   0.820   1.507   4.675 -0.0331 -0.4247  0.1254
  147poe    c31  900   0.860   1.457   4.800 -0.1403  0.2591  0.4368
  148poe    c31  901   1.194   0.460   4.893 -0.1204 -0.5789 -0.3277
  148poe     o2  902   1.265   0.370   4.811  0.3987 -0.3943 -0.0836
  148poe    c23  903   1.235   0.390   4.675  0.3136  0.0817  0.0002
  148poe    c23  904   1.281   0.279   4.578 -0.2326  0.0801 -0.2589
  148poe     o2  905   1.421   0.287   4.567 -0.1326 -0.0661  0.7801
  148poe    c23  906   1.459   0.206   4.458 -0.4724  0.4393  0.2796
  148poe    c23  907   1.585   0.240   4.377 -0.4647 -0.6469 -0.1829
  148poe     o2  908   1.704   0.230   4.452 -0.4062  0.3073 -0.1302
  148poe    c23  909   1.812   0.293   4.386 -0.0550  0.0183  0.1611
  148poe    c23  910   1.941   0.296   4.470 -0.0276  0.2490  0.1115
  148poe     o2  911   2.059   0.311   4.393 -0.0980 -0.0688 -0.0615
  148poe    c31  912   2.079   0.228   4.281 -0.2245 -0.0597 -0.0907
  149poe    c31  913   0.281   1.296   5.691 -0.5789  0.5364 -0.1610
  149poe     o2  914   0.368   1.353   5.595 -0.2977 -0.1835 -0.3411
  149poe    c23  915   0.401   1.253   5.502  0.1622  0.1909 -0.5810
  149poe    c23  916   0.535   1.271   5.428  0.0123 -0.4051 -1.0056
  149poe     o2  917   0.536   1.385   5.345  0.2614  0.1088 -0.3103
  149poe    c23  918   0.665   1.417   5.298  0.3366  0.2345 -0.0205
  149poe    c23  919   0.652   1.549   5.219 -0.2333  0.0053 -0.3189
  149poe     o2  920   0.541   1.624   5.261 -0.2109  0.0662 -0.3681
  149poe    c23  921   0.541   1.750   5.196 -0.0649  0.4581  0.3814
  149poe    c23  922   0.431   1.841   5.255 -0.1192  0.5715  0.1053
  149poe     o2  923   0.302   1.786   5.246  0.0746  0.0656  0.3599
  149poe    c31  924   0.197   1.848   5.317 -0.1083  0.0539  0.1041
  150poe    c31  925   1.894   0.455   2.605  0.7118  0.5787  0.0320
  150poe     o2  926   1.873   0.328   2.663  0.2632  0.4036 -0.5026
  150poe    c23  927   1.879   0.337   2.804  0.1559 -0.1062 -0.4645
  150poe    c23  928   1.896   0.204   2.880 -0.3665  0.0397 -0.0807
  150poe     o2  929   2.028   0.154   2.875 -0.3522  0.0739 -0.0478
  150poe    c23  930   2.030   0.036   2.952 -0.0489 -0.0349 -0.2207
  150poe    c23  931   2.173  -0.020   2.939  0.0776  0.1472  0.3844
  150poe     o2  932   2.217  -0.006   2.806  0.1499 -0.3884  0.3478
  150poe    c23  933   2.340  -0.070   2.782 -0.0935 -0.7331  0.0246
  150poe    c23  934   2.423  -0.003   2.671 -0.2160  0.1344  0.4564
  150poe     o2  935   2.343   0.095   2.608  0.1249  0.2656  0.2284
  150poe    c31  936   2.412   0.165   2.506 -0.6113  0.4755 -0.1306
  151poe    c31  937   0.652   0.688   5.520  0.1082  0.0672  0.4480
  151poe     o2  938   0.744   0.588   5.561 -0.1832 -0.2480  0.3373
  151poe    c23  939   0.729   0.558   5.697 -0.0674 -0.0650  0.3908
  151poe    c23  940   0.732   0.405   5.714  0.1674 -0.1472 -0.3813
  151poe     o2  941   0.828   0.359   5.621  0.2136  0.0158 -0.4149
  151poe    c23  942   0.840   0.218   5.630 -0.2748 -0.0054 -0.0254
  151poe    c23  943   0.958   0.186   5.537  0.1931 -0.2242  0.6383
  151poe     o2  944   0.938   0.252   5.414  0.5957 -0.0433  0.6670
  151poe    c23  945   1.012   0.182   5.317 -0.0211 -0.0703  0.2094
  151poe    c23  946   1.039   0.262   5.188 -0.1217  0.0469  0.2605
  151poe     o2  947   0.915   0.285   5.124 -0.1398 -0.1153  0.2366
  151poe    c31  948   0.909   0.220   4.999  0.8154 -0.4958  0.3791
  152poe    c31  949   2.087   0.286   4.884 -0.6147  0.4613  0.4892
  152poe     o2  950   2.204   0.324   4.952 -0.2431 -0.3658  0.3270
  152poe    c23  951   2.172   0.419   5.052  0.4243  0.1949  0.0112
  152poe    c23  952   2.222   0.564   5.034 -0.1390  0.6303  1.8204
  152poe     o2  953   2.360   0.574   5.009 -0.4311  0.4852  0.0405
  152poe    c23  954   2.404   0.700   4.964 -0.4341  0.4251 -0.1316
  152poe    c23  955   2.539   0.742   5.024 -0.3472 -0.2782  0.1701
  152poe     o2  956   2.628   0.639   4.990 -0.1287  0.0098 -0.1320
  152poe    c23  957   2.748   0.642   5.064 -0.5972 -0.2289  0.6471
  152poe    c23  958   2.814   0.508   5.026 -0.3853  0.0806 -0.0982
  152poe     o2  959   2.718   0.405   5.017 -0.3674  0.0338  0.2206
  152poe    c31  960   2.782   0.285   4.980 -0.5702 -0.0925  0.2788
  153poe    c31  961   2.110   2.279   0.137 -0.2732  0.0641  0.1141
  153poe     o2  962   2.250   2.289   0.139 -0.2767  0.1265  0.0770
  153poe    c23  963   2.295   2.171   0.203 -0.2582 -0.1385 -0.4206
  153poe    c23  964   2.446   2.172   0.232 -0.3828 -0.0290  0.2404
  153poe     o2  965   2.520   2.183   0.113 -0.3565 -0.2906  0.2312
  153poe    c23  966   2.657   2.199   0.144 -0.4013  0.5854 -0.0081
  153poe    c23  967   2.741   2.174   0.017  0.2119  1.1294  0.2900
  153poe     o2  968   2.694   2.260  -0.085 -0.3754  0.4298 -0.0316
  153poe    c23  969   2.765   2.250  -0.206 -0.1760 -0.0764  0.1234
  153poe    c23  970   2.669   2.321  -0.303  0.1790 -0.2274 -0.3457
  153poe     o2  971   2.529   2.309  -0.290  0.1505  0.0024 -0.4270
  153poe    c31  972   2.445   2.338  -0.399 -0.3156  0.1214 -0.0399
  154poe    c31  973   0.436   1.124   1.230 -0.5550 -0.1014  0.7317
  154poe     o2  974   0.409   1.239   1.307 -0.0692  0.4091  0.1421
  154poe    c23  975   0.288   1.292   1.257 -0.1404  0.2418  0.1385
  154poe    c23  976   0.243   1.427   1.316  0.0070  0.0788  0.6291
  154poe     o2  977   0.213   1.416   1.454 -0.1840 -0.1620  0.5700
  154poe    c23  978   0.276   1.515   1.533  0.2701 -0.0803  0.1130
  154poe    c23  979   0.209   1.520   1.671  0.2212 -0.2087  0.0940
  154poe     o2  980   0.199   1.385   1.711  0.6024 -0.1671  0.3285
  154poe    c23  981   0.105   1.371   1.816 -0.2520  0.0872 -0.3940
  154poe    c23  982   0.073   1.222   1.835 -0.3301  0.1801  0.2013
  154poe     o2  983   0.027   1.156   1.720  0.2535  0.1312 -0.0080
  154poe    c31  984   0.024   1.019   1.755  0.7830  0.2393  0.4798
  155poe    c31  985   0.141   1.130   2.967  0.0304  0.6386 -0.3957
  155poe     o2  986   0.218   1.090   2.857  0.2641 -0.6733  0.2232
  155poe    c23  987   0.355   1.115   2.883  0.2256 -0.1065 -0.1060
  155poe    c23  988   0.422   1.112   2.744  0.0031 -0.2125 -0.2133
  155poe     o2  989   0.377   1.000   2.673 -0.8960  0.2126 -0.3327
  155poe    c23  990   0.448   0.967   2.556 -0.4492 -0.2310  0.0554
  155poe    c23  991   0.376   0.848   2.490  0.2618 -0.4891 -0.2770
  155poe     o2  992   0.358   0.742   2.581 -0.3553  0.0721  0.2708
  155poe    c23  993   0.313   0.626   2.516 -0.0754  0.1207 -0.0127
  155poe    c23  994   0.327   0.513   2.620 -0.2030  0.2178  0.1099
  155poe     o2  995   0.287   0.530   2.754 -0.5506  0.0623  0.0279
  155poe    c31  996   0.278   0.401   2.811 -0.9739  0.0281 -0.1143
  156poe    c31  997   0.461   1.015   1.904 -0.0624  0.0174 -0.5677
  156poe     o2  998   0.520   1.093   1.803  0.6337  0.4418  0.1482
  156poe    c23  999   0.647   1.047   1.762  0.3485 -0.1667 -0.0724
  156poe    c23 1000   0.717   1.138   1.660  0.1818 -0.2263 -0.2393
  156poe     o2 1001   0.736   1.262   1.723  0.1743 -0.3657  0.0379
  156poe    c23 1002   0.849   1.334   1.679 -0.1568 -0.0423 -0.2922
  156poe    c23 1003   0.895   1.428   1.791 -0.4342 -0.5276  0.2296
  156poe     o2 1004   0.815   1.544   1.803  0.2297 -0.0174 -0.2484
  156poe    c23 1005   0.868   1.629   1.903  0.3646 -0.2297 -0.1372
  156poe    c23 1006   0.797   1.759   1.862  0.4516 -0.1888 -0.1585
  156poe     o2 1007   0.659   1.759   1.892  0.5800 -0.1088  0.4361
  156poe    c31 1008   0.600   1.884   1.862  0.5319 -0.1810  0.2295
  157poe    c31 1009   1.969   0.345   3.231  0.1885  0.3071 -0.8428
  157poe     o2 1010   1.834   0.369   3.263  0.0937 -0.4905 -0.6130
  157poe    c23 1011   1.765   0.463   3.183 -0.2745 -0.3388 -0.1249
  157poe    c23 1012   1.616   0.445   3.216 -0.1275 -0.3013  0.5911
  157poe     o2 1013   1.589   0.477   3.351  0.0291 -0.2492  0.6099
  157poe    c23 1014   1.526   0.599   3.383  0.1482 -0.1138  0.3340
  157poe    c23 1015   1.522   0.590   3.536 -0.0086 -0.0627  0.3328
  157poe     o2 1016   1.646   0.593   3.603  0.0176  0.9584  0.2550
  157poe    c23 1017   1.616   0.580   3.740  0.4347 -0.7003  0.2058
  157poe    c23 1018   1.727   0.654   3.817  0.0001 -0.0824  0.2414
  157poe     o2 1019   1.849   0.618   3.757  0.0032 -0.3187  0.3875
  157poe    c31 1020   1.958   0.652   3.841  0.0597  0.0550  0.1645
  158poe    c31 1021   0.043   1.083   3.810 -0.2493  0.3507  0.5426
  158poe     o2 1022   0.005   1.068   3.675  0.1047 -0.3136  0.5153
  158poe    c23 1023  -0.117   0.996   3.671 -0.2850  0.3870 -0.6526
  158poe    c23 1024  -0.167   1.003   3.526 -0.5520  0.9282 -0.5363
  158poe     o2 1025  -0.102   1.113   3.466  0.1956  0.7911  0.0202
  158poe    c23 1026  -0.115   1.111   3.326  1.0985  0.0052 -0.0613
  158poe    c23 1027  -0.078   1.253   3.278 -0.0588  0.2863 -0.1432
  158poe     o2 1028   0.044   1.289   3.339 -0.2357  0.3142  0.1940
  158poe    c23 1029   0.097   1.418   3.325  0.0560  0.1632 -0.0923
  158poe    c23 1030   0.222   1.444   3.412  0.0234 -0.3110  0.0950
  158poe     o2 1031   0.184   1.480   3.543  0.0833  0.0968  0.0002
  158poe    c31 1032   0.299   1.512   3.618  0.0393  0.2828 -0.0109
  159poe    c31 1033   0.152   0.586   0.270 -0.3769  0.3255 -0.1175
  159poe     o2 1034   0.256   0.625   0.357 -0.0724 -0.4991 -0.0983
  159poe    c23 1035   0.357   0.527   0.363  0.3353 -0.0904 -0.1627
  159poe    c23 1036   0.464   0.570   0.464 -0.3474  0.3157  0.3963
  159poe     o2 1037   0.524   0.692   0.425 -0.0297  0.1480  0.3599
  159poe    c23 1038   0.649   0.711   0.488  0.2433  0.4400 -0.2655
  159poe    c23 1039   0.723   0.824   0.414  0.1809  0.3768 -0.4243
  159poe     o2 1040   0.635   0.934   0.398 -0.0919  0.1838 -0.2564
  159poe    c23 1041   0.703   1.057   0.384  0.0269  0.0991 -0.4369
  159poe    c23 1042   0.599   1.168   0.361 -0.3836 -0.1526  0.1619
  159poe     o2 1043   0.500   1.101   0.285 -0.0851 -0.2767 -0.1214
  159poe    c31 1044   0.413   1.197   0.229  0.3946  0.2478  0.0124
  160poe    c31 1045   1.630   1.417   4.179 -0.1739  0.3790 -0.1159
  160poe     o2 1046   1.724   1.418   4.284 -0.3529  0.4267  0.0431
  160poe    c23 1047   1.762   1.284   4.307 -0.2873  0.3616 -0.4232
  160poe    c23 1048   1.915   1.281   4.312 -0.2951  0.5796  0.0251
  160poe     o2 1049   1.957   1.374   4.409 -0.1858  0.3476  0.2044
  160poe    c23 1050   2.090   1.341   4.441 -0.0600  0.1715 -0.4870
  160poe    c23 1051   2.115   1.408   4.577 -0.7699 -0.4591 -0.0365
  160poe     o2 1052   2.097   1.547   4.560 -0.5957 -0.3902  0.3331
  160poe    c23 1053   2.136   1.618   4.676  0.6390 -0.0240 -0.2868
  160poe    c23 1054   2.048   1.744   4.684  0.1567 -0.3445 -0.4599
  160poe     o2 1055   1.924   1.721   4.746  0.2718 -0.1187 -0.1428
  160poe    c31 1056   1.861   1.845   4.768  0.2641 -0.1579  0.0663
  161poe    c31 1057   0.500   1.718   0.974  0.6228 -1.2004  0.5552
  161poe     o2 1058   0.567   1.683   0.855  0.4058  0.3113 -0.0273
  161poe    c23 1059   0.556   1.785   0.758 -0.7281  0.0760 -0.1556
  161poe    c23 1060   0.611   1.736   0.623  0.2708  0.8330 -0.0376
  161poe     o2 1061   0.719   1.654   0.661 -0.3074 -0.0078 -0.1704
  161poe    c23 1062   0.810   1.651   0.554 -0.0135 -0.6655  0.0926
  161poe    c23 1063   0.926   1.556   0.589  0.4624 -0.1253  0.0020
  161poe     o2 1064   0.870   1.443   0.653 -0.1430  0.3038  0.2369
  161poe    c23 1065   0.951   1.328   0.643  0.0557  0.4221  0.4844
  161poe    c23 1066   0.892   1.222   0.737 -0.0528  0.2333  0.2030
  161poe     o2 1067   0.767   1.168   0.697  0.5209 -0.6703 -0.4291
  161poe    c31 1068   0.722   1.081   0.798 -0.4268  0.1044 -0.1682
  162poe    c31 1069   2.228   1.680   0.724  0.3165 -0.3961  0.2447
  162poe     o2 1070   2.249   1.751   0.843 -0.3388 -0.1768  0.2369
  162poe    c23 1071   2.288   1.674   0.955  0.5565 -0.4084 -0.2228
  162poe    c23 1072   2.277   1.757   1.084  0.0550 -0.4632 -0.2258
  162poe     o2 1073   2.157   1.829   1.080  0.2025 -0.1952  0.1006
  162poe    c23 1074   2.134   1.898   1.201  0.1098 -0.1233  0.0428
  162poe    c23 1075   1.998   1.967   1.183  0.0022 -0.3225  0.0806
  162poe     o2 1076   2.006   2.037   1.060 -0.0019 -0.0698  0.2224
  162poe    c23 1077   2.002   2.175   1.085 -0.0358  0.0925 -0.6561
  162poe    c23 1078   1.987   2.267   0.962 -0.9846 -0.1439 -0.7230
  162poe     o2 1079   2.101   2.261   0.879 -0.5269 -0.1542 -0.1023
  162poe    c31 1080   2.098   2.345   0.766  0.4305  0.0488  0.0114
  163lim     li 1081   1.639   2.280   4.955  0.3196 -0.0552 -0.1784
  164lim     li 1082   0.160   0.720   4.437 -0.6876 -1.1016 -0.4143
  165lim     li 1083   1.397   2.250   2.430 -0.0110  0.0868  0.1978
  166lim     li 1084   0.690   1.765   6.277 -0.7280 -0.0145  0.0607
  167lim     li 1085   1.758   0.323   0.328 -0.1966 -1.4673 -0.4060
  168lim     li 1086   0.427   1.520   5.352 -0.6509 -0.3804  0.0602
  169lim     li 1087   0.695   1.554   3.793 -0.6502 -0.1545  0.1808
  170lim     li 1088   1.131   1.012   2.312  0.4356 -1.5663 -0.3937
  171lim     li 1089   1.826   1.085   2.283 -0.0653 -0.1709 -0.8789
  172lim     li 1090   1.429   1.096   6.139  0.0373 -0.5730 -1.7503
  173lim     li 1091   2.106   1.194   0.327 -0.8107  0.2573 -0.7981
  174lim     li 1092   1.263   0.443   1.787 -0.5952 -0.3256  0.2475
  175lim     li 1093   0.081   1.972   4.099 -0.5948 -0.9612  0.3531
  176lim     li 1094   0.279   0.234   3.460  0.4937  0.4136 -0.3406
  177lim     li 1095   0.191   1.268   1.544 -0.1448 -0.3105 -0.3068
  178lim     li 1096   2.267   2.239   5.423  0.5114  0.8052 -0.7867
  179lim     li 1097   1.369   1.702   0.313  0.6502 -0.0191  1.3687
  180lim     li 1098   1.576   0.481   5.885 -0.5404 -0.5641 -0.5114
  181lim     li 1099   1.860   1.528   4.404  1.9374  0.5267 -0.4907
  182lim     li 1100   1.211   0.191   0.649 -0.2124 -0.0530 -1.3847
  183lim     li 1101   1.641   1.059   1.139  1.6906 -0.4693 -0.5086
  184lim     li 1102   0.185   2.259   6.350  1.6580  0.4907  0.0570
  185lim     li 1103   0.933   0.602   3.143 -0.4848 -0.6038 -0.4937
  186lim     li 1104   0.040   1.176   3.530 -0.3723  0.7663  0.2531
  187lim     li 1105   0.764   0.504   2.348 -0.1648  0.9962 -0.3010
  188lim     li 1106   0.533   0.358   0.038 -0.5791  0.2989  0.0452
  189lim     li 1107   0.900   0.255   1.295 -0.4331  0.6110  1.0011
  190lim     li 1108   1.630   1.380   3.339  0.0264 -0.0704  0.2957
  191lim     li 1109   0.222   0.475   5.028  1.1820  1.1573 -0.4875
  192lim     li 1110   1.580   2.191   3.615  0.9370  0.1109 -0.2898
  193lim     li 1111   1.926   1.740   1.992  0.3894  0.7811 -0.5076
  194lim     li 1112   1.755   1.833   6.136  0.2506  0.7511  0.4461
  195lim     li 1113   1.559   0.791   4.527  0.1482 -0.3114 -0.5308
  196lim     li 1114   0.028   0.367   1.054  0.2744 -0.3388  0.2057
  197lim     li 1115   2.192   0.151   2.699  0.0446 -0.9387  0.6262
  198lim     li 1116   0.689   1.649   4.638  1.3667  0.6730 -0.6117
  199lim     li 1117   2.045   1.216   5.375  0.6259 -1.2398 -0.5224
  200lim     li 1118   0.848   0.455   5.469  0.0736  0.3029  1.3407
  201lim     li 1119   0.168   0.918   6.015 -0.1509  0.1839  0.0163
  202lim     li 1120   0.603   1.611   1.799 -0.9432  0.5235  0.3956
  203lim     li 1121   1.455   1.890   1.125 -0.0956 -0.4730 -0.1342
  204lim     li 1122   1.821   0.586   3.578 -0.3615  0.0029  0.3303
  205lim     li 1123   0.252   0.211   1.535  1.0427 -0.5813 -0.6471
  206lim     li 1124   0.905   0.785   4.212 -0.2605 -1.1628  1.4386
  207lim     li 1125   0.957   2.127   3.296 -0.1293 -0.1780  1.0289
  208lim     li 1126   0.212   0.958   2.739  0.0597  0.6203  1.1654
  209lim     li 1127   0.688   1.558   0.798  1.4741  1.2539 -0.4869
  210lim     li 1128   2.110   1.930   0.932 -0.6019  0.4969 -0.6778
  211lim     li 1129   0.469   0.923   0.311 -0.7022  0.3462 -0.4627
  212lim     li 1130   0.351   1.870   2.609 -0.2673  0.3380  0.4733
  213lim     li 1131   1.043   2.097   4.355 -0.0161 -0.0590 -0.4005
  214lim     li 1132   1.201   1.733   2.693  0.4148 -0.7067 -1.3087
  215lim     li 1133   1.139   1.275   5.389 -0.1866  0.0514  0.3140
  216lim     li 1134   1.905   0.179   1.909  0.9172  0.8977  0.3221
  217ntf    cn1 1135   1.674   1.048   3.834  0.0993 -0.7756 -0.0467
  217ntf    sn2 1136   1.828   1.086   3.745 -0.2644 -0.1510 -0.4117
  217ntf    nn3 1137   1.810   1.242   3.738  0.2816 -0.0705 -0.1337
  217ntf    sn2 1138   1.911   1.362   3.741 -0.1305  0.2730  0.1033
  217ntf    cn1 1139   1.882   1.436   3.905 -0.3194 -0.4777  0.4143
  217ntf    fn4 1140   1.567   1.104   3.781  0.0510 -0.3160  0.5305
  217ntf    fn4 1141   1.651   0.917   3.831 -0.2569 -0.7103 -0.1469
  217ntf    fn4 1142   1.683   1.080   3.962  0.7279 -0.1805 -0.2330
  217ntf    on5 1143   1.929   1.047   3.840 -0.8316  0.0632  0.2942
  217ntf    on5 1144   1.816   1.009   3.624  0.5861  0.1143 -0.6769
  217ntf    on5 1145   1.863   1.463   3.650 -0.7422  0.5124  0.6856
  217ntf    on5 1146   2.053   1.339   3.751 -0.2386 -0.5235 -0.1058
  217ntf    fn4 1147   1.953   1.546   3.920 -0.0795 -0.5876  0.0891
  217ntf    fn4 1148   1.757   1.476   3.918 -0.1717  0.1728 -0.0943
  217ntf    fn4 1149   1.911   1.353   4.004 -0.1612  0.0196  0.7907
  218ntf    cn1 1150   1.115   1.927   5.118 -0.2004  0.1941  0.1846
  218ntf    sn2 1151   0.945   1.984   5.149 -0.1389  0.2179  0.4795
  218ntf    nn3 1152   0.895   1.981   5.001  0.2894  0.0871  0.3360
  218ntf    sn2 1153   0.914   2.090   4.889 -0.0433  0.2948  0.4800
  218ntf    cn1 1154   0.781   2.207   4.927 -0.1824  0.3356 -0.1196
  218ntf    fn4 1155   1.111   1.816   5.047  0.2428  0.3786 -0.1326
  218ntf    fn4 1156   1.186   2.013   5.046 -0.2170  0.0932  0.0491
  218ntf    fn4 1157   1.183   1.906   5.230  0.1315 -0.0656 -0.0655
  218ntf    on5 1158   0.889   1.886   5.240 -0.1487 -0.7310 -0.5264
  218ntf    on5 1159   0.957   2.115   5.208 -0.4334  0.2158  0.5455
  218ntf    on5 1160   0.887   2.026   4.763  0.0677  0.3611  0.4227
  218ntf    on5 1161   1.035   2.169   4.897 -0.3644  0.8738 -0.2406
  218ntf    fn4 1162   0.777   2.303   4.836  0.1512  0.1751 -0.3007
  218ntf    fn4 1163   0.660   2.154   4.922 -0.0713  0.0283  0.3718
  218ntf    fn4 1164   0.794   2.274   5.041 -0.0101  0.4857 -0.2258
  219ntf    cn1 1165   0.224   1.786   0.157  0.3118  0.4912 -0.1998
  219ntf    sn2 1166   0.149   1.723   0.004  0.0180  0.1238  0.0956
  219ntf    nn3 1167   0.111   1.860  -0.062  0.5638  0.1394 -0.1900
  219ntf    sn2 1168   0.155   1.938  -0.191 -0.1779  0.2879 -0.3548
  219ntf    cn1 1169   0.020   1.894  -0.305  0.0833  0.0836 -0.5848
  219ntf    fn4 1170   0.141   1.852   0.236 -0.2160 -0.0099 -0.3322
  219ntf    fn4 1171   0.279   1.683   0.220  0.0686  0.1177 -0.5943
  219ntf    fn4 1172   0.325   1.868   0.130  0.4524  0.2353 -0.4647
  219ntf    on5 1173   0.264   1.655  -0.050  0.0037 -0.0897  0.3313
  219ntf    on5 1174   0.029   1.654   0.045  0.0480 -0.2136 -0.3737
  219ntf    on5 1175   0.281   1.897  -0.247 -0.1549 -0.5692  0.3031
  219ntf    on5 1176   0.131   2.075  -0.155 -0.2606  0.1641  0.0599
  219ntf    fn4 1177  -0.008   1.765  -0.294 -0.0142  0.1744  0.2924
  219ntf    fn4 1178  -0.081   1.975  -0.279  0.0525 -0.2329  0.3115
  219ntf    fn4 1179   0.046   1.911  -0.434 -0.3436  0.7295 -0.5885
  220ntf    cn1 1180   1.160   1.537   3.359 -0.3777 -0.3618  0.2891
  220ntf    sn2 1181   1.204   1.705   3.413  0.0841 -0.3845 -0.0119
  220ntf    nn3 1182   1.227   1.666   3.563  0.0121 -0.5893 -0.0538
  220ntf    sn2 1183   1.206   1.745   3.697  0.0631 -0.2595 -0.2405
  220ntf    cn1 1184   1.317   1.646   3.800 -0.4686 -0.4354  0.1664
  220ntf    fn4 1185   1.181   1.526   3.229 -0.4998  0.0237  0.2347
  220ntf    fn4 1186   1.238   1.447   3.417 -0.0808 -0.0374  0.3942
  220ntf    fn4 1187   1.034   1.509   3.388 -0.4715  0.4465  0.6889
  220ntf    on5 1188   1.323   1.734   3.338  0.0956 -0.3024  0.0376
  220ntf    on5 1189   1.081   1.775   3.382  0.1185 -0.2879  0.0696
  220ntf    on5 1190   1.076   1.721   3.755  0.0364  0.0630 -0.1636
  220ntf    on5 1191   1.266   1.876   3.701 -0.5482  0.0242 -0.2271
  220ntf    fn4 1192   1.444   1.655   3.763 -0.6647 -0.0657 -0.4326
  220ntf    fn4 1193   1.319   1.687   3.926 -0.0183 -0.1314  0.0650
  220ntf    fn4 1194   1.287   1.517   3.795  0.0381 -0.5433 -0.2149
  221ntf    cn1 1195   0.199   1.045   0.910  0.2966 -0.0881  0.1308
  221ntf    sn2 1196   0.318   1.080   0.778  0.2179  0.4340  0.1944
  221ntf    nn3 1197   0.222   1.168   0.689  0.0971 -0.0657 -0.1774
  221ntf    sn2 1198   0.200   1.323   0.688 -0.1997 -0.1063 -0.0357
  221ntf    cn1 1199   0.231   1.357   0.512  0.5072  0.3594  0.1732
  221ntf    fn4 1200   0.097   0.969   0.872 -0.3339  0.6518  0.3128
  221ntf    fn4 1201   0.253   0.989   1.017  0.5931 -0.2979 -0.1277
  221ntf    fn4 1202   0.146   1.159   0.953 -0.9505 -0.5211 -0.2001
  221ntf    on5 1203   0.416   1.152   0.855  0.3214  0.4151  0.0807
  221ntf    on5 1204   0.358   0.953   0.722 -0.8925  0.2948 -0.3116
  221ntf    on5 1205   0.301   1.403   0.752 -0.5223  0.3300 -0.0699
  221ntf    on5 1206   0.061   1.355   0.708 -0.2686 -0.3890 -0.0593
  221ntf    fn4 1207   0.342   1.296   0.474  0.2773 -0.2840  0.5188
  221ntf    fn4 1208   0.134   1.309   0.435  0.8365  0.3005 -0.2068
  221ntf    fn4 1209   0.240   1.484   0.476  0.9555  0.1282 -0.5314
  222ntf    cn1 1210   0.459   0.093   5.398  0.5076  0.1121  0.3635
  222ntf    sn2 1211   0.399   0.257   5.448 -0.2372 -0.0734  0.0837
  222ntf    nn3 1212   0.425   0.261   5.603 -0.2832  0.5433  0.0765
  222ntf    sn2 1213   0.320   0.210   5.709 -0.1970 -0.0965 -0.1413
  222ntf    cn1 1214   0.206   0.351   5.726  0.4751  0.4416 -0.0221
  222ntf    fn4 1215   0.590   0.079   5.411  0.4875 -0.6926 -0.1940
  222ntf    fn4 1216   0.405  -0.014   5.454 -0.1479  0.0073 -0.4509
  222ntf    fn4 1217   0.442   0.071   5.269  0.2602  0.2328  0.3742
  222ntf    on5 1218   0.491   0.337   5.372  0.2164 -0.1001  0.5970
  222ntf    on5 1219   0.262   0.255   5.401 -0.1105 -0.2598 -0.2820
  222ntf    on5 1220   0.383   0.207   5.839  0.4456  0.2094 -0.4376
  222ntf    on5 1221   0.247   0.092   5.670  0.4735 -0.6215  0.1596
  222ntf    fn4 1222   0.271   0.466   5.731  0.1648  0.6172 -0.0400
  222ntf    fn4 1223   0.127   0.366   5.621 -0.2370  0.4400  0.5109
  222ntf    fn4 1224   0.123   0.347   5.829  0.3825  0.1312 -0.1047
  223ntf    cn1 1225   1.377   2.188   3.055 -0.3885  0.0221 -0.4031
  223ntf    sn2 1226   1.542   2.200   2.980 -0.3440 -0.1974 -0.3423
  223ntf    nn3 1227   1.609   2.081   3.058  0.0551  0.1988 -0.0727
  223ntf    sn2 1228   1.634   1.937   3.001 -0.3582 -0.0236  0.2992
  223ntf    cn1 1229   1.751   1.968   2.865 -0.2928 -0.0335  0.3531
  223ntf    fn4 1230   1.333   2.063   3.046  0.5343 -0.2714 -0.8919
  223ntf    fn4 1231   1.384   2.209   3.185 -0.4953 -0.1522 -0.3687
  223ntf    fn4 1232   1.280   2.263   3.004  0.0247  0.7795 -0.0863
  223ntf    on5 1233   1.533   2.188   2.837  0.0215  0.5416 -0.4345
  223ntf    on5 1234   1.584   2.331   3.025  0.5536 -0.7243  0.3866
  223ntf    on5 1235   1.524   1.870   2.937 -0.1548  0.1870 -0.2754
  223ntf    on5 1236   1.713   1.859   3.093 -0.2064  0.1784  0.3396
  223ntf    fn4 1237   1.863   2.035   2.889 -0.1192 -0.5211  0.9609
  223ntf    fn4 1238   1.787   1.844   2.835 -0.5217 -0.1409  0.5217
  223ntf    fn4 1239   1.707   2.020   2.752 -0.5647 -0.4471  0.2648
  224ntf    cn1 1240   0.192   1.486   4.486 -0.0655  0.3041  0.1167
  224ntf    sn2 1241   0.182   1.562   4.321 -0.4841  0.2192  0.1012
  224ntf    nn3 1242   0.236   1.446   4.230  0.0749  0.5113  0.0567
  224ntf    sn2 1243   0.155   1.351   4.135  0.1468  0.3463  0.1595
  224ntf    cn1 1244   0.134   1.463   3.993  0.5977  0.1724 -0.0480
  224ntf    fn4 1245   0.312   1.444   4.522 -0.0572  0.4020  0.2018
  224ntf    fn4 1246   0.168   1.587   4.567 -0.2052  0.2076  0.1968
  224ntf    fn4 1247   0.103   1.391   4.511  0.1527  0.0311 -0.1269
  224ntf    on5 1248   0.047   1.609   4.302 -0.5674  0.0838  0.3600
  224ntf    on5 1249   0.286   1.662   4.320 -0.0796 -0.1983 -0.1930
  224ntf    on5 1250   0.027   1.311   4.187  0.0938  0.1960 -0.0858
  224ntf    on5 1251   0.239   1.244   4.087  0.5212  0.4360  0.6071
  224ntf    fn4 1252   0.244   1.462   3.920  0.4634  0.2724 -0.2527
  224ntf    fn4 1253   0.031   1.430   3.916 -0.0350 -0.3503  0.9929
  224ntf    fn4 1254   0.114   1.587   4.034  0.0986 -0.1060  0.5803
  225ntf    cn1 1255   1.784   2.151   4.424 -0.5953 -0.1731 -0.3251
  225ntf    sn2 1256   1.653   2.026   4.445 -0.2855 -0.4268  0.1258
  225ntf    nn3 1257   1.625   2.033   4.599  0.0302 -0.3182  0.1794
  225ntf    sn2 1258   1.511   2.085   4.694 -0.0593  0.1652 -0.1908
  225ntf    cn1 1259   1.447   1.922   4.740  0.0121  0.2498  0.2127
  225ntf    fn4 1260   1.888   2.125   4.502 -0.3352 -0.0072 -0.6164
  225ntf    fn4 1261   1.824   2.169   4.300  0.9095  0.0743  0.1824
  225ntf    fn4 1262   1.733   2.268   4.459  0.0099 -0.0482  0.1600
  225ntf    on5 1263   1.546   2.078   4.364  0.2740  0.4052 -0.0948
  225ntf    on5 1264   1.721   1.904   4.410  0.0285 -0.2447  0.1019
  225ntf    on5 1265   1.398   2.147   4.630 -0.2807  0.1655  0.1960
  225ntf    on5 1266   1.558   2.140   4.819  0.0952 -0.2695 -0.0559
  225ntf    fn4 1267   1.538   1.826   4.750  0.1747  0.3329 -0.4371
  225ntf    fn4 1268   1.385   1.920   4.857 -0.1400 -0.4002  0.1289
  225ntf    fn4 1269   1.364   1.879   4.647  0.2821 -0.4275  0.2773
  226ntf    cn1 1270   0.827   0.488   4.817  0.4274 -0.0863  0.0349
  226ntf    sn2 1271   0.807   0.639   4.719 -0.2044 -0.1412  0.0783
  226ntf    nn3 1272   0.956   0.677   4.687 -0.2660 -0.1744 -0.2491
  226ntf    sn2 1273   1.004   0.776   4.575 -0.4793 -0.0007 -0.1881
  226ntf    cn1 1274   1.078   0.895   4.690 -0.2612 -0.4072  0.0956
  226ntf    fn4 1275   0.713   0.423   4.830  0.0574  0.5064 -0.2249
  226ntf    fn4 1276   0.911   0.399   4.764  0.1738 -0.4735  0.2777
  226ntf    fn4 1277   0.869   0.523   4.938  0.3993 -0.3639  0.1258
  226ntf    on5 1278   0.722   0.597   4.610  0.5471 -0.2305 -0.4792
  226ntf    on5 1279   0.739   0.721   4.816 -0.2259  0.3269 -0.3269
  226ntf    on5 1280   0.909   0.847   4.493 -0.4977  0.3484  0.1347
  226ntf    on5 1281   1.119   0.728   4.502 -0.3592  0.1533 -0.0995
  226ntf    fn4 1282   1.157   0.980   4.627 -0.6220  0.0463  0.2498
  226ntf    fn4 1283   0.989   0.967   4.756  0.2866  0.0764  0.3239
  226ntf    fn4 1284   1.157   0.840   4.780  0.3442 -0.0813 -0.2280
  227ntf    cn1 1285   0.378   1.877   3.469  0.2144  0.1763 -0.2262
  227ntf    sn2 1286   0.261   2.010   3.428  0.0720  0.0579 -0.2014
  227ntf    nn3 1287   0.261   1.995   3.272  0.1802  0.3943 -0.2352
  227ntf    sn2 1288   0.160   2.041   3.161 -0.1267  0.0603 -0.0954
  227ntf    cn1 1289   0.051   1.896   3.146 -0.1079  0.0699 -0.3228
  227ntf    fn4 1290   0.495   1.906   3.413  0.1303  0.1791 -0.4028
  227ntf    fn4 1291   0.386   1.861   3.600 -0.7691 -0.5256 -0.2466
  227ntf    fn4 1292   0.331   1.763   3.423 -0.5865  0.3068  0.2459
  227ntf    on5 1293   0.140   1.967   3.492 -0.0725  0.6523 -0.0666
  227ntf    on5 1294   0.326   2.129   3.478 -0.8459  0.3413  0.3432
  227ntf    on5 1295   0.233   2.042   3.037  0.3079  0.3537  0.1613
  227ntf    on5 1296   0.062   2.141   3.195 -0.2157 -0.0354 -0.0688
  227ntf    fn4 1297   0.106   1.783   3.104 -0.2367 -0.1884  0.2000
  227ntf    fn4 1298  -0.012   1.869   3.259 -0.1702  0.8035 -0.1799
  227ntf    fn4 1299  -0.046   1.928   3.062 -0.5284 -0.1471  0.0777
  228ntf    cn1 1300   0.734   2.216   0.376  0.1726 -0.5721  0.1079
  228ntf    sn2 1301   0.827   2.076   0.447  0.4842 -0.3157  0.2108
  228ntf    nn3 1302   0.796   2.080   0.601 -0.1567 -0.2633  0.0826
  228ntf    sn2 1303   0.884   2.112   0.726 -0.3041 -0.0434  0.1318
  228ntf    cn1 1304   0.791   2.028   0.858  0.0670  0.0951  0.4844
  228ntf    fn4 1305   0.604   2.197   0.367  0.0185  0.3903  0.2396
  228ntf    fn4 1306   0.739   2.327   0.448 -0.3865 -0.2278 -0.3842
  228ntf    fn4 1307   0.777   2.253   0.257  0.1581  0.5058  0.4273
  228ntf    on5 1308   0.768   1.961   0.383 -0.2485  0.3031 -0.2512
  228ntf    on5 1309   0.964   2.102   0.410  0.3516  0.0752 -0.0183
  228ntf    on5 1310   0.886   2.253   0.758 -0.1053 -0.1230  0.4846
  228ntf    on5 1311   1.006   2.035   0.732 -0.1953  0.1139 -0.0407
  228ntf    fn4 1312   0.669   2.080   0.854  0.0701  0.0461 -0.6955
  228ntf    fn4 1313   0.791   1.897   0.843 -0.4420  0.1353  0.1276
  228ntf    fn4 1314   0.833   2.058   0.980  0.7588  0.3999  0.1754
  229ntf    cn1 1315   0.503   0.093   2.956 -0.0666 -0.3147  0.0637
  229ntf    sn2 1316   0.637   0.212   2.927 -0.2547 -0.0956  0.0904
  229ntf    nn3 1317   0.752   0.104   2.923  0.0601  0.2477 -0.1938
  229ntf    sn2 1318   0.904   0.135   2.899  0.0443  0.4930  0.0229
  229ntf    cn1 1319   0.905   0.076   2.727  0.3973 -0.4184  0.3337
  229ntf    fn4 1320   0.516  -0.027   2.902 -0.0145 -0.1902 -0.2018
  229ntf    fn4 1321   0.486   0.074   3.086  0.0872 -0.2139  0.0984
  229ntf    fn4 1322   0.384   0.135   2.917 -0.0300 -0.2402  0.0312
  229ntf    on5 1323   0.607   0.262   2.795  0.0356 -0.3151 -0.0622
  229ntf    on5 1324   0.642   0.302   3.039 -0.0287 -0.0583  0.0506
  229ntf    on5 1325   0.996   0.049   2.968 -0.3660 -0.2211 -0.3167
  229ntf    on5 1326   0.938   0.275   2.893  0.0760  0.4709 -0.3334
  229ntf    fn4 1327   0.907  -0.056   2.729  0.0474 -0.4355 -0.3012
  229ntf    fn4 1328   0.796   0.115   2.664  0.5776  0.1178  0.3456
  229ntf    fn4 1329   1.012   0.120   2.664  0.0344  0.1010  0.0745
  230ntf    cn1 1330   1.766   0.253   1.464  0.3865  0.3018  0.0877
  230ntf    sn2 1331   1.822   0.083   1.432 -0.1268  0.1557 -0.0308
  230ntf    nn3 1332   1.973   0.090   1.473 -0.0867 -0.8871  0.0186
  230ntf    sn2 1333   2.029   0.079   1.619 -0.0325 -0.3666  0.0387
  230ntf    cn1 1334   2.052  -0.101   1.626 -0.2158 -0.3794  0.3137
  230ntf    fn4 1335   1.827   0.346   1.391  0.4286  0.2566  0.0652
  230ntf    fn4 1336   1.636   0.275   1.455  0.4475  0.6820  0.1074
  230ntf    fn4 1337   1.787   0.283   1.591 -0.1093 -0.2792  0.3082
  230ntf    on5 1338   1.741   0.003   1.521  0.0455 -0.2635 -0.2512
  230ntf    on5 1339   1.795   0.072   1.291  0.5655  0.3281 -0.1803
  230ntf    on5 1340   1.942   0.102   1.732 -0.0920  0.8446 -0.2387
  230ntf    on5 1341   2.160   0.138   1.630 -0.4208  0.3971  0.6202
  230ntf    fn4 1342   1.938  -0.168   1.635 -0.2680 -0.2692  0.4929
  230ntf    fn4 1343   2.105  -0.156   1.519 -0.2188 -0.0103  0.1223
  230ntf    fn4 1344   2.121  -0.132   1.735  0.5235  0.1597  0.0021
  231ntf    cn1 1345   0.218   1.236   2.293  0.0853  0.1846 -0.0150
  231ntf    sn2 1346   0.395   1.275   2.289  0.1666 -0.1668  0.1096
  231ntf    nn3 1347   0.398   1.376   2.169  0.4538 -0.0010  0.2540
  231ntf    sn2 1348   0.386   1.532   2.178  0.2912  0.0128 -0.1726
  231ntf    cn1 1349   0.556   1.565   2.234  0.2257 -0.1536  0.1253
  231ntf    fn4 1350   0.170   1.163   2.194  0.1773  0.2046 -0.0746
  231ntf    fn4 1351   0.172   1.183   2.405  0.2283 -0.2023 -0.1366
  231ntf    fn4 1352   0.146   1.346   2.284 -0.0064  0.1360  0.1151
  231ntf    on5 1353   0.427   1.320   2.422 -0.0954 -0.4328  0.2636
  231ntf    on5 1354   0.450   1.147   2.253  0.2105 -0.1742  0.2020
  231ntf    on5 1355   0.307   1.576   2.291  0.0093 -0.9393  0.0076
  231ntf    on5 1356   0.371   1.605   2.054 -0.4531  0.7507  0.3360
  231ntf    fn4 1357   0.571   1.557   2.365 -0.1574  0.1224  0.1870
  231ntf    fn4 1358   0.648   1.492   2.173 -0.1937  0.0863 -0.8208
  231ntf    fn4 1359   0.588   1.690   2.208  0.4326 -0.2993 -0.3235
  232ntf    cn1 1360   1.105   0.805   0.729 -0.0570  0.0985  0.0632
  232ntf    sn2 1361   1.176   0.655   0.654 -0.0134  0.1701 -0.0398
  232ntf    nn3 1362   1.062   0.595   0.565  0.2670 -0.5146  0.0537
  232ntf    sn2 1363   1.004   0.449   0.552  0.0644 -0.4225 -0.0805
  232ntf    cn1 1364   0.889   0.447   0.692  0.4449  0.0111  0.2424
  232ntf    fn4 1365   1.043   0.880   0.640  0.6060  0.4922 -0.0752
  232ntf    fn4 1366   1.021   0.770   0.824  0.0720 -0.4915 -0.0313
  232ntf    fn4 1367   1.204   0.875   0.783 -0.0817 -0.0235  0.2654
  232ntf    on5 1368   1.282   0.707   0.571  0.1713 -0.1922 -0.0364
  232ntf    on5 1369   1.215   0.575   0.768 -0.4127 -0.3028 -0.2293
  232ntf    on5 1370   1.099   0.344   0.577  0.2137 -0.2536  0.0622
  232ntf    on5 1371   0.918   0.433   0.437  0.1046  0.1226 -0.1941
  232ntf    fn4 1372   0.929   0.522   0.794  0.2464 -0.1490  0.4414
  232ntf    fn4 1373   0.767   0.488   0.662  0.2191 -0.5937  0.3055
  232ntf    fn4 1374   0.862   0.329   0.746  0.0522 -0.3366 -0.6962
  233ntf    cn1 1375   1.079   1.263   0.237  0.1195  0.2844  0.5800
  233ntf    sn2 1376   1.035   1.396   0.122  0.0822 -0.0895  0.1616
  233ntf    nn3 1377   0.943   1.313   0.026  0.8057 -0.7374  0.0098
  233ntf    sn2 1378   0.957   1.299  -0.130 -0.0522  0.0935 -0.1571
  233ntf    cn1 1379   0.867   1.141  -0.148 -0.3815  0.2800 -0.1535
  233ntf    fn4 1380   1.192   1.286   0.301  0.4155  0.3109  0.0454
  233ntf    fn4 1381   0.984   1.257   0.330 -0.1610  0.3850  0.3034
  233ntf    fn4 1382   1.097   1.143   0.184  0.1198  0.6164 -0.1736
  233ntf    on5 1383   0.967   1.492   0.205  0.1699 -0.2283  0.3935
  233ntf    on5 1384   1.160   1.440   0.063  0.1873 -0.0308  0.4265
  233ntf    on5 1385   1.082   1.268  -0.195  0.2663  0.0537  0.4642
  233ntf    on5 1386   0.876   1.395  -0.200 -0.2177 -0.1433 -0.2909
  233ntf    fn4 1387   0.894   1.084  -0.264  0.5411  0.2830  0.0450
  233ntf    fn4 1388   0.886   1.052  -0.052 -0.9668 -0.0617 -0.3522
  233ntf    fn4 1389   0.736   1.158  -0.147 -0.4806 -0.4597 -0.0636
  234ntf    cn1 1390   0.063   1.433   4.924  0.2219 -0.0015  0.3037
  234ntf    sn2 1391   0.105   1.257   4.946 -0.1795 -0.1147  0.1754
  234ntf    nn3 1392   0.250   1.255   4.885 -0.3825 -0.1147 -0.3107
  234ntf    sn2 1393   0.389   1.293   4.946 -0.3464 -0.1726 -0.3575
  234ntf    cn1 1394   0.453   1.126   4.981  0.0514 -0.0583 -0.5349
  234ntf    fn4 1395   0.155   1.520   4.963 -0.3574  0.3148  0.9909
  234ntf    fn4 1396   0.052   1.457   4.795  0.5987  0.1508  0.3003
  234ntf    fn4 1397  -0.054   1.463   4.977 -0.0746 -0.2957 -0.1752
  234ntf    on5 1398   0.085   1.245   5.089 -0.0582 -0.5213  0.1578
  234ntf    on5 1399   0.003   1.189   4.871 -0.2957 -0.0438  0.2691
  234ntf    on5 1400   0.372   1.347   5.079 -0.0480 -0.5643 -0.1568
  234ntf    on5 1401   0.492   1.354   4.866  0.1520 -0.2822  0.1936
  234ntf    fn4 1402   0.582   1.124   5.013 -0.0348 -0.3850 -0.2024
  234ntf    fn4 1403   0.392   1.067   5.082  0.4483 -0.1965 -0.3729
  234ntf    fn4 1404   0.446   1.039   4.881  0.4515 -0.3628 -0.3011
  235ntf    cn1 1405   0.598   0.785   1.064 -0.2361  0.4129 -0.2053
  235ntf    sn2 1406   0.494   0.683   1.172 -0.1024  0.4561 -0.0350
  235ntf    nn3 1407   0.466   0.796   1.277  0.5158 -0.0812  0.7240
  235ntf    sn2 1408   0.363   0.786   1.394 -0.2214  0.0259  0.0932
  235ntf    cn1 1409   0.198   0.819   1.325 -0.0270  0.1998 -0.2848
  235ntf    fn4 1410   0.636   0.715   0.959 -0.4663 -0.3207  0.1950
  235ntf    fn4 1411   0.528   0.884   1.010 -1.0389 -0.0681 -0.0709
  235ntf    fn4 1412   0.704   0.842   1.119  0.0864 -0.7031  0.3533
  235ntf    on5 1413   0.378   0.660   1.089  0.1011  0.0900 -0.2243
  235ntf    on5 1414   0.575   0.575   1.221 -0.4862  0.1910  0.0271
  235ntf    on5 1415   0.375   0.900   1.481 -0.4973  0.1303 -0.0049
  235ntf    on5 1416   0.355   0.651   1.445  0.7412  0.0421  0.2996
  235ntf    fn4 1417   0.123   0.891   1.406 -0.0505 -0.1451  0.0017
  235ntf    fn4 1418   0.202   0.887   1.211  0.0248  0.7410  0.0387
  235ntf    fn4 1419   0.132   0.706   1.305 -0.3708  0.4371 -0.5191
  236ntf    cn1 1420   2.303   0.683   3.156 -0.3145 -0.3492 -0.1640
  236ntf    sn2 1421   2.198   0.677   3.008  0.0337 -0.1910 -0.4193
  236ntf    nn3 1422   2.058   0.705   3.074  0.3113  0.1482  0.0322
  236ntf    sn2 1423   1.966   0.831   3.087 -0.1329 -0.1611 -0.0896
  236ntf    cn1 1424   1.858   0.802   2.943 -0.2726  0.3492 -0.0908
  236ntf    fn4 1425   2.432   0.665   3.132 -0.2142 -0.1865  0.2343
  236ntf    fn4 1426   2.301   0.793   3.230 -0.1827 -0.5276  0.1077
  236ntf    fn4 1427   2.259   0.592   3.242 -0.5371  0.1517  0.2548
  236ntf    on5 1428   2.239   0.786   2.923 -0.5258  0.1205 -0.3000
  236ntf    on5 1429   2.216   0.543   2.957  0.2516 -0.3893  0.1750
  236ntf    on5 1430   2.035   0.953   3.053  0.5480 -0.6086 -0.3328
  236ntf    on5 1431   1.882   0.834   3.204  0.1815  0.8295  0.1168
  236ntf    fn4 1432   1.929   0.812   2.833 -0.1610 -0.0040 -0.0528
  236ntf    fn4 1433   1.812   0.678   2.949  0.4571  0.0741 -0.0867
  236ntf    fn4 1434   1.761   0.892   2.938 -0.3681  0.2261 -0.4504
  237ntf    cn1 1435   1.806   1.354   2.721  0.1643 -0.2014  0.2306
  237ntf    sn2 1436   1.735   1.364   2.554  0.3778  0.2195  0.1624
  237ntf    nn3 1437   1.791   1.506   2.516  0.5713 -0.0008 -0.3832
  237ntf    sn2 1438   1.719   1.643   2.492  0.5721  0.0143 -0.2980
  237ntf    cn1 1439   1.850   1.758   2.544  0.2946  0.0155  0.4090
  237ntf    fn4 1440   1.937   1.348   2.704  0.1760 -0.2859  0.3506
  237ntf    fn4 1441   1.794   1.463   2.796  0.7982 -0.1314  0.2338
  237ntf    fn4 1442   1.765   1.251   2.792 -0.0039 -0.7877 -0.6990
  237ntf    on5 1443   1.802   1.264   2.476 -0.6850 -0.0854 -0.3817
  237ntf    on5 1444   1.591   1.353   2.566  0.2787  0.3699 -0.8330
  237ntf    on5 1445   1.617   1.667   2.592  0.4728 -0.7759 -0.2055
  237ntf    on5 1446   1.691   1.674   2.354  0.0957 -0.2556 -0.2630
  237ntf    fn4 1447   1.957   1.743   2.469 -0.0824 -0.0747 -0.1169
  237ntf    fn4 1448   1.816   1.883   2.515  0.0085 -0.2431 -0.3795
  237ntf    fn4 1449   1.877   1.756   2.674  0.0255  0.3032  0.4723
  238ntf    cn1 1450   1.879   2.172   2.422 -0.1501 -0.2013  0.3952
  238ntf    sn2 1451   2.021   2.115   2.325  0.0682  0.0987  0.5387
  238ntf    nn3 1452   2.014   2.200   2.193 -0.5921  0.5850  0.8835
  238ntf    sn2 1453   2.058   2.349   2.167  0.4619  0.1735  0.2460
  238ntf    cn1 1454   2.231   2.315   2.125  0.2721 -0.2306 -0.2218
  238ntf    fn4 1455   1.765   2.133   2.367  0.1624 -0.2933 -0.1851
  238ntf    fn4 1456   1.883   2.128   2.547 -0.3529  0.0775  0.5009
  238ntf    fn4 1457   1.872   2.304   2.430  0.1628 -0.1256 -0.4638
  238ntf    on5 1458   2.138   2.138   2.408  0.4387 -0.6495  0.2308
  238ntf    on5 1459   1.989   1.980   2.288 -0.1992  0.3724 -0.2498
  238ntf    on5 1460   2.057   2.438   2.280  0.4848  0.7664 -0.2142
  238ntf    on5 1461   1.998   2.391   2.043  0.2514 -0.5776  0.0862
  238ntf    fn4 1462   2.287   2.231   2.211 -0.0203  0.1951  0.3920
  238ntf    fn4 1463   2.258   2.265   2.005 -0.2257 -0.1805 -0.3541
  238ntf    fn4 1464   2.310   2.421   2.132  0.0220 -0.0459 -0.2052
  239ntf    cn1 1465   1.152   0.752   5.678 -0.1023 -0.2433  0.0648
  239ntf    sn2 1466   1.091   0.884   5.569  0.0145 -0.4997 -0.3157
  239ntf    nn3 1467   1.009   0.978   5.665 -0.1143 -0.4135 -0.5099
  239ntf    sn2 1468   0.993   1.134   5.661 -0.1081 -0.4024 -0.1397
  239ntf    cn1 1469   1.118   1.184   5.783 -0.8274  0.5306  0.2275
  239ntf    fn4 1470   1.212   0.803   5.784  0.0204  0.6392 -0.4131
  239ntf    fn4 1471   1.060   0.667   5.720  0.1106 -0.1109  0.8048
  239ntf    fn4 1472   1.235   0.671   5.615  0.0374  0.0259 -0.0984
  239ntf    on5 1473   1.210   0.942   5.514 -0.3045  0.2544 -0.2290
  239ntf    on5 1474   1.001   0.822   5.475 -0.2891 -0.1380 -0.2689
  239ntf    on5 1475   0.874   1.187   5.723  0.6115  0.2420  0.7231
  239ntf    on5 1476   1.045   1.198   5.542 -0.0175  0.1100  0.1727
  239ntf    fn4 1477   1.115   1.312   5.816  0.1275  0.4835  0.5360
  239ntf    fn4 1478   1.111   1.116   5.897 -0.6128 -0.3786 -0.2937
  239ntf    fn4 1479   1.240   1.158   5.737 -1.1476 -0.2493 -0.1837
  240ntf    cn1 1480   1.948   0.872   4.318 -0.2037 -0.2229 -0.0124
  240ntf    sn2 1481   1.866   0.864   4.479 -0.0078  0.1739  0.1096
  240ntf    nn3 1482   1.957   0.762   4.557 -0.3720 -0.0109  0.2986
  240ntf    sn2 1483   2.064   0.807   4.662  0.0086 -0.2021 -0.0048
  240ntf    cn1 1484   1.954   0.842   4.802  0.1077 -0.0997  0.0474
  240ntf    fn4 1485   2.011   0.988   4.301 -0.7444  0.1183  0.3042
  240ntf    fn4 1486   2.040   0.778   4.303  0.2949  0.2898 -0.2258
  240ntf    fn4 1487   1.867   0.856   4.215 -0.0685  0.2538 -0.1972
  240ntf    on5 1488   1.853   0.997   4.532  0.2068  0.0552  0.4611
  240ntf    on5 1489   1.736   0.802   4.465  0.0802  0.0481 -0.1549
  240ntf    on5 1490   2.133   0.931   4.636  0.2424 -0.2735  0.2679
  240ntf    on5 1491   2.145   0.700   4.714 -0.3084 -0.2100  0.4779
  240ntf    fn4 1492   1.858   0.930   4.778 -0.0525 -0.1811  0.3782
  240ntf    fn4 1493   1.885   0.737   4.844 -0.2406  0.2476  0.3611
  240ntf    fn4 1494   2.011   0.898   4.907  0.2294  0.2415 -0.2002
  241ntf    cn1 1495   1.366   1.189   1.635  0.3758  0.3044  0.4778
  241ntf    sn2 1496   1.251   1.150   1.770  0.2363 -0.1494  0.2287
  241ntf    nn3 1497   1.214   1.287   1.836 -0.1327 -0.0688 -0.1429
  241ntf    sn2 1498   1.255   1.355   1.972 -0.1974  0.0258 -0.1704
  241ntf    cn1 1499   1.389   1.461   1.911 -0.1823 -0.1840 -0.5054
  241ntf    fn4 1500   1.386   1.086   1.555 -0.9529 -0.0015  0.5115
  241ntf    fn4 1501   1.317   1.282   1.554 -0.1083 -0.2543  0.1307
  241ntf    fn4 1502   1.486   1.222   1.679  0.5438 -0.2358  0.4313
  241ntf    on5 1503   1.142   1.104   1.688  0.5089 -0.5437  0.0823
  241ntf    on5 1504   1.339   1.066   1.849  0.3406 -0.4126 -0.1640
  241ntf    on5 1505   1.322   1.281   2.076  0.2253  0.5491 -0.0664
  241ntf    on5 1506   1.159   1.453   2.018  0.2765  0.2531  0.3441
  241ntf    fn4 1507   1.353   1.541   1.812  0.2247 -0.0696 -0.5604
  241ntf    fn4 1508   1.441   1.536   2.006 -0.0198 -0.4601 -0.3760
  241ntf    fn4 1509   1.490   1.394   1.858  0.3228  0.4556 -0.3751
  242ntf    cn1 1510   1.278   0.929   2.976 -0.5168 -0.4597  0.0289
  242ntf    sn2 1511   1.236   0.871   2.809 -0.1616 -0.1825 -0.1597
  242ntf    nn3 1512   1.326   0.742   2.808  0.8348  0.5077 -0.6075
  242ntf    sn2 1513   1.341   0.628   2.701 -0.0383  0.1587 -0.3603
  242ntf    cn1 1514   1.522   0.631   2.683 -0.0169  0.1288 -0.1610
  242ntf    fn4 1515   1.409   0.932   2.995 -0.5401  0.0183  0.1245
  242ntf    fn4 1516   1.242   1.055   2.997  0.7342  0.0036 -0.4394
  242ntf    fn4 1517   1.236   0.857   3.079  0.2993 -0.1154  0.6150
  242ntf    on5 1518   1.094   0.856   2.832 -0.2470  0.5962 -0.1567
  242ntf    on5 1519   1.280   0.976   2.720  0.2648 -0.1790  0.0535
  242ntf    on5 1520   1.297   0.663   2.569  0.2163  0.1168 -0.4558
  242ntf    on5 1521   1.309   0.500   2.759  0.5923  0.2092  0.1155
  242ntf    fn4 1522   1.581   0.610   2.799 -0.3173  0.2792  0.0203
  242ntf    fn4 1523   1.554   0.529   2.606  0.0748  0.0032  0.0446
  242ntf    fn4 1524   1.574   0.741   2.630  0.0639  0.1637 -0.0078
  243ntf    cn1 1525   1.788   1.290   1.748  0.0895 -0.0519  0.5395
  243ntf    sn2 1526   1.969   1.272   1.752  0.0826 -0.2520 -0.0176
  243ntf    nn3 1527   2.016   1.419   1.724  0.1553 -0.3301 -0.3054
  243ntf    sn2 1528   2.057   1.480   1.585 -0.3644 -0.2363 -0.4203
  243ntf    cn1 1529   2.105   1.648   1.637 -0.2472 -0.3896 -0.0265
  243ntf    fn4 1530   1.751   1.397   1.816  0.0434  0.0599  0.3384
  243ntf    fn4 1531   1.743   1.297   1.624 -0.5087 -0.5790  0.7146
  243ntf    fn4 1532   1.729   1.188   1.810 -0.1060 -0.0363  0.3805
  243ntf    on5 1533   1.992   1.229   1.887  0.4112  0.7948  0.2705
  243ntf    on5 1534   1.986   1.178   1.644  0.2937  0.0882 -0.2791
  243ntf    on5 1535   1.949   1.511   1.494 -0.4876 -0.4701 -0.3547
  243ntf    on5 1536   2.184   1.436   1.533  0.0106  0.0979  0.2001
  243ntf    fn4 1537   2.143   1.717   1.531  0.3706 -0.4033  0.1870
  243ntf    fn4 1538   2.006   1.713   1.697  0.1724  0.1865  0.0447
  243ntf    fn4 1539   2.205   1.649   1.722 -0.1477  0.0883 -0.1488
  244ntf    cn1 1540   0.334   1.944   5.873  0.2123 -0.1967  0.0119
  244ntf    sn2 1541   0.345   1.889   5.700  0.3381  0.1974 -0.1061
  244ntf    nn3 1542   0.259   1.758   5.689  0.4338  0.1705 -0.5624
  244ntf    sn2 1543   0.105   1.732   5.685  0.4486 -0.0506  0.0839
  244ntf    cn1 1544   0.080   1.632   5.834  0.1703 -0.0969  0.0080
  244ntf    fn4 1545   0.348   1.842   5.955 -0.3186  0.5059  1.0032
  244ntf    fn4 1546   0.431   2.032   5.893  0.2231 -0.2213  0.0684
  244ntf    fn4 1547   0.216   1.995   5.905  0.0619 -0.2245 -0.4841
  244ntf    on5 1548   0.288   2.003   5.633  0.1016 -0.0885 -0.3956
  244ntf    on5 1549   0.485   1.857   5.683  0.2410 -0.1213 -0.3072
  244ntf    on5 1550   0.057   1.648   5.578 -0.6646  0.8452 -0.1465
  244ntf    on5 1551   0.029   1.855   5.698  0.1101 -0.2100 -0.3278
  244ntf    fn4 1552  -0.048   1.602   5.850  0.0337  0.1518 -0.6124
  244ntf    fn4 1553   0.129   1.509   5.827 -0.0480 -0.1923  0.1362
  244ntf    fn4 1554   0.131   1.687   5.943  0.6639  0.0610 -0.2949
  245ntf    cn1 1555   0.968   2.314   0.039 -0.0106 -0.0590  0.2954
  245ntf    sn2 1556   1.054   2.397  -0.098 -0.1594 -0.0270  0.2209
  245ntf    nn3 1557   0.967   2.347  -0.218  0.8761  0.0239 -0.5589
  245ntf    sn2 1558   0.858   2.428  -0.296  0.3486  0.0231  0.1666
  245ntf    cn1 1559   0.944   2.442  -0.456 -0.2774  0.0540 -0.1731
  245ntf    fn4 1560   1.011   2.358   0.156 -0.0289 -0.0648  0.3043
  245ntf    fn4 1561   0.837   2.331   0.047  0.0574  0.5561  0.1562
  245ntf    fn4 1562   0.983   2.183   0.041  0.0377 -0.0562  0.1249
  245ntf    on5 1563   1.051   2.537  -0.064 -0.0250  0.0501 -0.0829
  245ntf    on5 1564   1.184   2.335  -0.104  0.1538  0.6067  0.3004
  245ntf    on5 1565   0.829   2.564  -0.257 -0.6870  0.0172 -0.5351
  245ntf    on5 1566   0.747   2.346  -0.336  0.1592  0.4074 -0.1077
  245ntf    fn4 1567   0.867   2.501  -0.546  0.3116  0.2071 -0.5830
  245ntf    fn4 1568   1.048   2.523  -0.450  0.0793 -0.4456  0.5179
  245ntf    fn4 1569   0.973   2.321  -0.500  0.4475  0.2292 -0.2036
  246ntf    cn1 1570   1.192   1.972   1.670 -0.1542  0.4147 -0.2528
  246ntf    sn2 1571   1.372   1.970   1.694 -0.1563  0.1340 -0.2546
  246ntf    nn3 1572   1.429   1.933   1.552 -0.2119 -0.2863 -0.1689
  246ntf    sn2 1573   1.504   2.023   1.447 -0.1595  0.0791  0.1764
  246ntf    cn1 1574   1.677   2.019   1.502 -0.1530  0.2455  0.1659
  246ntf    fn4 1575   1.143   2.069   1.594  0.5844  0.6068 -0.4953
  246ntf    fn4 1576   1.147   1.855   1.627  0.4593 -0.1059  0.5041
  246ntf    fn4 1577   1.136   1.990   1.788 -0.0472 -0.6325 -0.0308
  246ntf    on5 1578   1.403   2.100   1.749 -0.3480 -0.0748  0.3546
  246ntf    on5 1579   1.396   1.867   1.792  0.1293  0.2315 -0.2218
  246ntf    on5 1580   1.459   2.160   1.451  0.1944  0.2034 -0.0606
  246ntf    on5 1581   1.504   1.965   1.315 -0.2232  0.2776  0.0899
  246ntf    fn4 1582   1.694   2.093   1.610 -0.0664  0.0081  0.3158
  246ntf    fn4 1583   1.719   1.896   1.523 -0.3020  0.3113  0.8808
  246ntf    fn4 1584   1.754   2.071   1.407 -0.0423 -0.0167  0.1108
  247ntf    cn1 1585   2.209   0.376   3.950  0.4440 -0.1501 -0.1224
  247ntf    sn2 1586   2.212   0.250   3.820  0.0266 -0.2016 -0.0828
  247ntf    nn3 1587   2.106   0.147   3.873  0.3438 -0.5284 -0.0831
  247ntf    sn2 1588   1.961   0.120   3.819  0.2151  0.1627 -0.0825
  247ntf    cn1 1589   1.863   0.145   3.970 -0.0549  0.1918 -0.2628
  247ntf    fn4 1590   2.087   0.419   3.977  0.3413 -0.5105 -0.0027
  247ntf    fn4 1591   2.253   0.327   4.065 -0.1056 -0.2162  0.0645
  247ntf    fn4 1592   2.282   0.483   3.925 -0.3390  0.2676 -0.6648
  247ntf    on5 1593   2.180   0.329   3.704 -0.0751 -0.0557  0.0447
  247ntf    on5 1594   2.350   0.212   3.833  0.2395  0.1576 -1.1714
  247ntf    on5 1595   1.944  -0.017   3.778  0.1404  0.0154  0.4358
  247ntf    on5 1596   1.905   0.224   3.736 -0.3552  0.3332  0.5086
  247ntf    fn4 1597   1.900   0.061   4.066 -0.2403  0.2304 -0.1575
  247ntf    fn4 1598   1.883   0.268   4.014  0.2048  0.1831 -0.3563
  247ntf    fn4 1599   1.732   0.127   3.956 -0.0466 -0.3346  0.2710
  248ntf    cn1 1600   0.025   0.162   0.410  0.1776  0.2570 -0.0914
  248ntf    sn2 1601   0.149   0.159   0.543 -0.0365  0.1877  0.1061
  248ntf    nn3 1602   0.180   0.005   0.538  0.0185  0.1952  0.2027
  248ntf    sn2 1603   0.242  -0.085   0.651  0.1455  0.1215  0.0753
  248ntf    cn1 1604   0.395  -0.118   0.559  0.0772  0.0710 -0.0203
  248ntf    fn4 1605   0.073   0.094   0.308  0.2436 -0.3235  0.3240
  248ntf    fn4 1606  -0.093   0.110   0.439  0.0050  0.6261 -0.1174
  248ntf    fn4 1607   0.012   0.286   0.365 -0.0005  0.0761 -0.5420
  248ntf    on5 1608   0.257   0.242   0.496  0.6341 -0.6602  0.1318
  248ntf    on5 1609   0.073   0.190   0.662 -0.4607 -0.2410 -0.0494
  248ntf    on5 1610   0.186  -0.217   0.664 -0.4264  0.3765  0.2540
  248ntf    on5 1611   0.285  -0.011   0.767 -0.6614  0.2900  0.2731
  248ntf    fn4 1612   0.496  -0.161   0.633  0.0146 -0.0149  0.0151
  248ntf    fn4 1613   0.376  -0.211   0.466 -0.0468  0.4863 -0.4151
  248ntf    fn4 1614   0.442  -0.009   0.501 -0.0349  0.5023  0.6874
  249ntf    cn1 1615   1.587   0.081   5.516  0.4095 -0.1130  0.3102
  249ntf    sn2 1616   1.730   0.150   5.428  0.1763 -0.3079 -0.2226
  249ntf    nn3 1617   1.648   0.261   5.353  0.4139 -0.1231 -0.2100
  249ntf    sn2 1618   1.618   0.412   5.386  0.2289 -0.1115 -0.4232
  249ntf    cn1 1619   1.695   0.524   5.265  0.1849  0.4983  0.1064
  249ntf    fn4 1620   1.621  -0.033   5.575 -0.1290 -0.3587  0.1518
  249ntf    fn4 1621   1.542   0.163   5.610 -0.3676 -0.0699 -0.0893
  249ntf    fn4 1622   1.485   0.051   5.437  0.5004  0.0237  0.1405
  249ntf    on5 1623   1.826   0.186   5.529  0.1934  0.5688 -0.5387
  249ntf    on5 1624   1.756   0.040   5.339  0.0356 -0.2883 -0.2888
  249ntf    on5 1625   1.670   0.456   5.513 -0.2006  0.7853 -0.5463
  249ntf    on5 1626   1.481   0.443   5.355 -0.0258 -0.0878  0.6649
  249ntf    fn4 1627   1.662   0.488   5.142  0.2946  0.9141 -0.0442
  249ntf    fn4 1628   1.656   0.649   5.284 -0.3036  0.2877  0.5371
  249ntf    fn4 1629   1.827   0.529   5.262  0.2082 -0.0030  0.2100
  250ntf    cn1 1630   0.522   0.010   2.173 -0.1288  0.4447 -0.1487
  250ntf    sn2 1631   0.678   0.066   2.248 -0.0092 -0.0076 -0.0541
  250ntf    nn3 1632   0.782  -0.045   2.207  0.1550  0.1429 -0.0483
  250ntf    sn2 1633   0.855  -0.154   2.292  0.1001  0.1270 -0.0215
  250ntf    cn1 1634   0.798  -0.302   2.202  0.3913 -0.1184  0.1968
  250ntf    fn4 1635   0.523   0.035   2.043 -0.3374 -0.2797 -0.2959
  250ntf    fn4 1636   0.510  -0.122   2.181 -0.2551  0.4544 -0.1826
  250ntf    fn4 1637   0.411   0.068   2.216 -0.4108 -0.1472 -0.0728
  250ntf    on5 1638   0.706   0.189   2.178 -0.1004 -0.0936 -0.2433
  250ntf    on5 1639   0.652   0.076   2.389 -0.0507  0.2654 -0.0799
  250ntf    on5 1640   0.801  -0.186   2.421 -0.1087  0.4269 -0.0351
  250ntf    on5 1641   0.999  -0.156   2.282  0.0900 -0.5334 -0.1144
  250ntf    fn4 1642   0.818  -0.283   2.073 -0.3939 -0.0580  0.0794
  250ntf    fn4 1643   0.842  -0.420   2.242 -0.1827 -0.3735  0.0789
  250ntf    fn4 1644   0.668  -0.320   2.215  0.4002 -0.1214  0.2863
  251ntf    cn1 1645   1.924   0.029   6.102  0.3052  0.4848  0.0998
  251ntf    sn2 1646   2.057   0.148   6.136  0.5985  0.3038 -0.4054
  251ntf    nn3 1647   1.970   0.279   6.136 -0.3438 -0.3040 -0.0586
  251ntf    sn2 1648   1.904   0.360   6.252 -0.4389  0.0903 -0.3861
  251ntf    cn1 1649   2.055   0.459   6.276 -0.3599 -0.0330 -0.3784
  251ntf    fn4 1650   1.820   0.048   6.183 -0.2370 -0.2883 -0.4026
  251ntf    fn4 1651   1.873   0.024   5.980 -0.3778 -0.3991  0.4104
  251ntf    fn4 1652   1.966  -0.096   6.114 -0.5982  0.1977  0.3732
  251ntf    on5 1653   2.111   0.110   6.264  0.7225  0.9609 -0.2614
  251ntf    on5 1654   2.132   0.144   6.013  0.6126 -0.2081 -0.3819
  251ntf    on5 1655   1.885   0.283   6.372 -0.0840  0.2100 -0.2525
  251ntf    on5 1656   1.810   0.464   6.215  0.3591  0.6676 -0.8013
  251ntf    fn4 1657   2.040   0.545   6.376 -0.4617  0.0339 -0.4508
  251ntf    fn4 1658   2.156   0.384   6.318 -0.3290  0.1232 -0.1725
  251ntf    fn4 1659   2.091   0.519   6.164 -0.0000  0.1860 -0.1452
  252ntf    cn1 1660   1.588   2.201   0.180  0.1572  0.2101  0.1738
  252ntf    sn2 1661   1.531   2.249   0.346 -0.1149 -0.2220  0.2069
  252ntf    nn3 1662   1.665   2.235   0.427  0.4503 -0.2996 -0.7230
  252ntf    sn2 1663   1.719   2.118   0.515  0.1094 -0.0869 -0.2229
  252ntf    cn1 1664   1.887   2.101   0.446  0.0331  0.0300 -0.4343
  252ntf    fn4 1665   1.498   2.195   0.084  0.7601 -0.3168 -0.3659
  252ntf    fn4 1666   1.678   2.286   0.134  0.5624 -0.2804  0.0442
  252ntf    fn4 1667   1.644   2.081   0.181 -0.0118  0.1326  0.5117
  252ntf    on5 1668   1.498   2.388   0.327 -0.0712 -0.2144  0.1869
  252ntf    on5 1669   1.422   2.160   0.377  0.3160 -0.7052  0.3409
  252ntf    on5 1670   1.667   1.984   0.500  0.1175 -0.0913 -0.2115
  252ntf    on5 1671   1.736   2.162   0.651 -0.4206  0.0519 -0.2025
  252ntf    fn4 1672   1.972   2.029   0.516 -0.3166  0.0685  0.0304
  252ntf    fn4 1673   1.872   2.042   0.328 -0.1693 -0.2692 -0.2608
  252ntf    fn4 1674   1.945   2.219   0.430  0.1028  0.1328  0.5441
  253ntf    cn1 1675   0.120   0.817   2.103  0.0417 -0.1947 -0.1259
  253ntf    sn2 1676   0.031   0.838   2.261  0.1324  0.1597 -0.1212
  253ntf    nn3 1677   0.027   0.693   2.321  0.1500  0.0946 -0.2767
  253ntf    sn2 1678  -0.089   0.606   2.380  0.4061  0.1740  0.3529
  253ntf    cn1 1679  -0.120   0.498   2.237  0.0374  0.7468 -0.0037
  253ntf    fn4 1680   0.129   0.925   2.028 -0.2059 -0.1877 -0.1462
  253ntf    fn4 1681   0.241   0.772   2.130  0.1166 -0.3955 -0.7830
  253ntf    fn4 1682   0.060   0.721   2.034 -0.1960 -0.0714 -0.0908
  253ntf    on5 1683   0.107   0.925   2.347 -0.1803 -0.2640  0.5960
  253ntf    on5 1684  -0.089   0.895   2.205 -0.1524 -0.3022  0.0121
  253ntf    on5 1685  -0.218   0.667   2.400  0.0527 -0.4305 -0.0428
  253ntf    on5 1686  -0.058   0.518   2.490  0.1912 -0.4807 -0.1028
  253ntf    fn4 1687  -0.149   0.572   2.131 -0.3960  0.8210  0.1656
  253ntf    fn4 1688  -0.020   0.421   2.195 -0.3251  0.3550 -0.1556
  253ntf    fn4 1689  -0.223   0.418   2.260 -0.0732  0.9042  0.0492
  254ntf    cn1 1690   1.133   1.219   3.695 -0.0497 -0.4961 -0.2769
  254ntf    sn2 1691   1.153   1.140   3.857  0.2436  0.1773  0.0218
  254ntf    nn3 1692   1.122   1.265   3.947 -0.0607  0.5321 -0.5758
  254ntf    sn2 1693   1.031   1.295   4.072  0.2612 -0.2544 -0.1497
  254ntf    cn1 1694   1.152   1.382   4.177 -0.0660 -0.0550  0.0614
  254ntf    fn4 1695   1.242   1.290   3.668 -0.1781  0.2829  1.1050
  254ntf    fn4 1696   1.121   1.128   3.600 -0.4912 -0.4300 -0.2838
  254ntf    fn4 1697   1.023   1.292   3.693  0.1612 -0.1572  0.2563
  254ntf    on5 1698   1.054   1.036   3.867  0.3535  0.0956  0.2769
  254ntf    on5 1699   1.293   1.105   3.857  0.3146  0.4637 -0.1518
  254ntf    on5 1700   0.997   1.185   4.158  0.1570  0.0765  0.2325
  254ntf    on5 1701   0.930   1.394   4.046  0.5116  0.1755  0.4884
  254ntf    fn4 1702   1.210   1.485   4.117  0.4923 -0.5195 -0.2018
  254ntf    fn4 1703   1.086   1.420   4.285 -0.2422 -0.6797  0.1786
  254ntf    fn4 1704   1.253   1.306   4.215 -0.1759 -0.1054  0.2517
  255ntf    cn1 1705   1.616   1.386   0.691  0.4426  0.3345 -0.3748
  255ntf    sn2 1706   1.651   1.413   0.515 -0.0348 -0.0119 -0.5252
  255ntf    nn3 1707   1.704   1.561   0.526  0.1192 -0.1288  0.4197
  255ntf    sn2 1708   1.845   1.610   0.573  0.1695 -0.1121  0.2538
  255ntf    cn1 1709   1.896   1.711   0.431  0.5003 -0.4880  0.1044
  255ntf    fn4 1710   1.665   1.476   0.774 -0.7228  0.7569 -0.1217
  255ntf    fn4 1711   1.486   1.375   0.715  0.7138 -0.4086  0.8369
  255ntf    fn4 1712   1.667   1.272   0.734 -0.2273  0.1437 -0.0730
  255ntf    on5 1713   1.747   1.312   0.479 -0.0429 -0.0612 -0.4073
  255ntf    on5 1714   1.521   1.418   0.451 -0.2263  0.6798 -0.0913
  255ntf    on5 1715   1.950   1.514   0.595 -0.5543 -0.7855  0.8400
  255ntf    on5 1716   1.829   1.712   0.674 -0.1972  0.1076 -0.0209
  255ntf    fn4 1717   1.936   1.651   0.321  0.8356  0.0684 -0.0845
  255ntf    fn4 1718   1.792   1.787   0.400  0.7939 -0.0872  0.0832
  255ntf    fn4 1719   1.994   1.795   0.463 -0.1969  0.3763  0.0029
  256ntf    cn1 1720   1.854   0.599   0.729  0.0697 -0.3051 -0.3106
  256ntf    sn2 1721   1.899   0.425   0.758  0.4407 -0.1754 -0.1015
  256ntf    nn3 1722   1.801   0.388   0.875  0.2475 -0.3230 -0.3075
  256ntf    sn2 1723   1.660   0.323   0.855 -0.0667  0.2371  0.0561
  256ntf    cn1 1724   1.651   0.218   1.004  0.1255  0.2737  0.0930
  256ntf    fn4 1725   1.733   0.613   0.678  0.2157  0.4844 -0.4493
  256ntf    fn4 1726   1.854   0.667   0.842 -0.0256 -0.3376 -0.2908
  256ntf    fn4 1727   1.942   0.650   0.645  0.0141  0.0230 -0.1680
  256ntf    on5 1728   1.875   0.360   0.631  0.2413 -0.1128 -0.0958
  256ntf    on5 1729   2.038   0.439   0.792  0.3769  0.1467  0.0303
  256ntf    on5 1730   1.642   0.228   0.748  0.5168  0.3208 -0.1189
  256ntf    on5 1731   1.552   0.416   0.875  0.3516  0.6721  0.2957
  256ntf    fn4 1732   1.634   0.293   1.112 -0.4805  0.4732 -0.1398
  256ntf    fn4 1733   1.559   0.124   1.002 -0.0935  0.4898  0.0197
  256ntf    fn4 1734   1.767   0.156   1.018  0.1165  0.3027  0.3069
  257ntf    cn1 1735   0.452   1.908   1.329 -0.2064 -0.1500 -0.2291
  257ntf    sn2 1736   0.461   2.002   1.485 -0.1456 -0.3254 -0.1272
  257ntf    nn3 1737   0.354   1.932   1.576  0.0579 -0.6416 -0.1277
  257ntf    sn2 1738   0.210   1.977   1.620  0.3045  0.1007 -0.0743
  257ntf    cn1 1739   0.243   2.057   1.780  0.3526  0.0971 -0.0823
  257ntf    fn4 1740   0.336   1.912   1.265 -0.4094 -0.5504  0.1072
  257ntf    fn4 1741   0.548   1.944   1.246 -0.2045  0.2269 -0.0687
  257ntf    fn4 1742   0.469   1.781   1.360 -0.2425 -0.0281  0.3089
  257ntf    on5 1743   0.597   1.977   1.527 -0.2122 -0.6129 -0.0762
  257ntf    on5 1744   0.422   2.134   1.443 -0.2119 -0.2886  0.0509
  257ntf    on5 1745   0.127   1.865   1.654  0.2834  0.3023  0.5607
  257ntf    on5 1746   0.151   2.083   1.543 -0.0580 -0.0742 -0.0379
  257ntf    fn4 1747   0.152   2.146   1.814 -0.2692 -0.3958 -0.4347
  257ntf    fn4 1748   0.229   1.968   1.877 -0.2043  0.2533 -0.0190
  257ntf    fn4 1749   0.362   2.114   1.788  0.3218  0.1225  0.2018
  258ntf    cn1 1750   0.009   2.152   4.742 -0.1641 -0.3692 -0.2439
  258ntf    sn2 1751   0.107   2.304   4.725 -0.2803 -0.2759 -0.0666
  258ntf    nn3 1752   0.218   2.248   4.630 -0.6837 -0.2644 -0.5471
  258ntf    sn2 1753   0.245   2.287   4.480  0.2187  0.0702 -0.3049
  258ntf    cn1 1754   0.414   2.349   4.501  0.1838 -0.0446  0.3590
  258ntf    fn4 1755  -0.082   2.175   4.834 -0.0082  0.1369 -0.2148
  258ntf    fn4 1756  -0.056   2.120   4.631 -0.7019  0.5044 -0.1853
  258ntf    fn4 1757   0.080   2.047   4.780 -0.2575 -0.3155  0.0735
  258ntf    on5 1758   0.012   2.400   4.675  0.0912  0.2357  0.1938
  258ntf    on5 1759   0.167   2.333   4.853 -0.2798 -0.6104  0.0091
  258ntf    on5 1760   0.171   2.397   4.424 -0.1941 -0.0353  0.0252
  258ntf    on5 1761   0.272   2.170   4.400  0.5698 -0.2718  0.3010
  258ntf    fn4 1762   0.410   2.459   4.575  0.0644  0.1378  0.0846
  258ntf    fn4 1763   0.499   2.266   4.559  0.0590 -0.3997  0.0391
  258ntf    fn4 1764   0.466   2.380   4.383 -0.5311  0.5211  0.1855
  259ntf    cn1 1765   1.848   0.741   6.426  0.1524 -0.0843 -0.2461
  259ntf    sn2 1766   1.766   0.899   6.459  0.2188 -0.1277  0.1274
  259ntf    nn3 1767   1.892   0.992   6.466  0.3599 -0.3413  0.4241
  259ntf    sn2 1768   1.984   1.056   6.356 -0.3303 -0.2269 -0.0914
  259ntf    cn1 1769   1.932   1.230   6.361 -0.2571 -0.2025 -0.1669
  259ntf    fn4 1770   1.953   0.727   6.505  0.1400 -0.8861 -0.3633
  259ntf    fn4 1771   1.776   0.634   6.455 -0.3421  0.2130 -0.3747
  259ntf    fn4 1772   1.888   0.730   6.300 -0.1076  0.5363 -0.3872
  259ntf    on5 1773   1.668   0.920   6.355 -0.2781  0.4449  0.6910
  259ntf    on5 1774   1.712   0.888   6.592 -0.5723 -0.1573 -0.1897
  259ntf    on5 1775   1.961   1.020   6.218 -1.0619  0.0179 -0.0363
  259ntf    on5 1776   2.121   1.063   6.400 -0.2152 -0.4420 -0.4130
  259ntf    fn4 1777   1.911   1.267   6.487 -0.6028  0.1036 -0.3144
  259ntf    fn4 1778   2.014   1.318   6.307 -0.2563  0.0192  0.1922
  259ntf    fn4 1779   1.813   1.250   6.306 -0.3807 -0.0188  0.1605
  260ntf    cn1 1780   1.755   0.514   2.136  0.5188 -0.1403  0.1111
  260ntf    sn2 1781   1.648   0.555   1.995  0.4636 -0.4528  0.0624
  260ntf    nn3 1782   1.732   0.664   1.918  0.0766 -0.3359 -0.1964
  260ntf    sn2 1783   1.789   0.669   1.772  0.3339  0.3514 -0.0751
  260ntf    cn1 1784   1.846   0.841   1.763  0.1352  0.4374  0.3076
  260ntf    fn4 1785   1.780   0.612   2.221 -0.4614  0.1631  0.0645
  260ntf    fn4 1786   1.701   0.415   2.204  0.5118 -0.4240 -0.3034
  260ntf    fn4 1787   1.875   0.480   2.091  0.1792  0.1106 -1.0142
  260ntf    on5 1788   1.646   0.427   1.928  0.5599 -0.0739 -0.6835
  260ntf    on5 1789   1.529   0.610   2.053  0.7167  0.5732 -0.3695
  260ntf    on5 1790   1.687   0.665   1.670  0.2320 -0.1944  0.0422
  260ntf    on5 1791   1.905   0.588   1.745 -0.1791 -0.3944 -0.0674
  260ntf    fn4 1792   1.748   0.917   1.810 -0.2940  0.1786 -0.1533
  260ntf    fn4 1793   1.953   0.863   1.837  0.0736  0.7204  0.3136
  260ntf    fn4 1794   1.868   0.873   1.637 -0.0007 -0.4433  0.0588
  261ntf    cn1 1795   1.316   0.393   3.833  0.1832  0.2438 -0.3520
  261ntf    sn2 1796   1.175   0.279   3.824  0.0860  0.2899  0.5135
  261ntf    nn3 1797   1.206   0.179   3.941 -0.3757 -0.3254  0.1151
  261ntf    sn2 1798   1.257   0.031   3.932 -0.1812 -0.2443 -0.1074
  261ntf    cn1 1799   1.359   0.024   4.082 -0.2516  0.2537 -0.0373
  261ntf    fn4 1800   1.419   0.329   3.779  0.4821  0.1366  0.3394
  261ntf    fn4 1801   1.302   0.505   3.764  0.1563  0.2895 -0.2717
  261ntf    fn4 1802   1.355   0.423   3.956  0.3813 -0.6967 -0.1793
  261ntf    on5 1803   1.066   0.368   3.851 -0.0664  0.2974 -0.1169
  261ntf    on5 1804   1.200   0.238   3.688  0.5791 -0.2741  0.7686
  261ntf    on5 1805   1.350  -0.001   3.826 -0.2953 -0.7260 -0.0637
  261ntf    on5 1806   1.150  -0.064   3.953  0.2227 -0.6533  0.1207
  261ntf    fn4 1807   1.406  -0.092   4.126  0.1475  0.3934 -0.0868
  261ntf    fn4 1808   1.468   0.095   4.055 -0.1054 -0.0199 -0.1686
  261ntf    fn4 1809   1.314   0.090   4.188 -0.3522  0.2917 -0.1028
  262ntf    cn1 1810   0.643   0.632   1.759  0.3668  0.0960 -0.2962
  262ntf    sn2 1811   0.819   0.596   1.792  0.2367  0.1297  0.4556
  262ntf    nn3 1812   0.852   0.488   1.683  0.0709  0.2068  0.3271
  262ntf    sn2 1813   0.953   0.368   1.677 -0.2668 -0.0629  0.0330
  262ntf    cn1 1814   0.867   0.249   1.784  0.0878 -0.5242 -0.1869
  262ntf    fn4 1815   0.622   0.658   1.632 -0.1313 -0.3097 -0.2996
  262ntf    fn4 1816   0.563   0.533   1.794  0.0705  0.3657 -0.2036
  262ntf    fn4 1817   0.604   0.736   1.832  0.1300 -0.1795 -0.0288
  262ntf    on5 1818   0.904   0.710   1.770 -0.5271  0.5510 -0.3697
  262ntf    on5 1819   0.805   0.551   1.929  0.2400 -0.2346  0.3366
  262ntf    on5 1820   1.083   0.385   1.737 -0.2064  0.2445 -0.1856
  262ntf    on5 1821   0.952   0.318   1.541 -0.1395 -0.6355  0.2386
  262ntf    fn4 1822   0.902   0.263   1.911 -0.6143  0.5124 -0.0881
  262ntf    fn4 1823   0.737   0.271   1.779  0.2029  0.3521  0.4563
  262ntf    fn4 1824   0.884   0.121   1.755 -0.2041 -0.5411 -0.2836
  263ntf    cn1 1825   0.937   1.742   1.393  0.0384  0.0398 -0.2386
  263ntf    sn2 1826   0.977   1.654   1.239 -0.4665 -0.0392 -0.3288
  263ntf    nn3 1827   0.973   1.507   1.294  0.1781  0.0076 -0.1455
  263ntf    sn2 1828   0.940   1.368   1.229  0.2678 -0.0349 -0.1010
  263ntf    cn1 1829   1.079   1.273   1.295 -0.2319 -0.4859  0.3084
  263ntf    fn4 1830   0.958   1.872   1.390 -0.1578  0.0905  0.4715
  263ntf    fn4 1831   0.810   1.734   1.431  0.3123  0.7440  0.8744
  263ntf    fn4 1832   1.009   1.695   1.494 -0.1633  0.7623  0.2509
  263ntf    on5 1833   0.874   1.691   1.146 -0.5035 -0.2116 -0.3563
  263ntf    on5 1834   1.109   1.705   1.208 -0.4916  0.2205 -0.0164
  263ntf    on5 1835   0.954   1.352   1.086  0.3918 -0.2811 -0.0604
  263ntf    on5 1836   0.823   1.306   1.286  0.3672 -0.1423 -0.0161
  263ntf    fn4 1837   1.193   1.340   1.294 -0.5187  0.0063  0.1578
  263ntf    fn4 1838   1.052   1.235   1.419 -0.5940  0.3155  0.4761
  263ntf    fn4 1839   1.101   1.164   1.223  0.0480 -0.3039  0.1155
  264ntf    cn1 1840   0.255   0.870   3.309  0.1545 -0.3592 -0.2344
  264ntf    sn2 1841   0.336   1.002   3.404 -0.5316 -0.3037  0.2824
  264ntf    nn3 1842   0.422   0.922   3.507  0.1189  0.1811  0.1215
  264ntf    sn2 1843   0.573   0.931   3.550  0.0997  0.2996  0.1637
  264ntf    cn1 1844   0.558   0.927   3.731  0.5554  0.2342  0.2008
  264ntf    fn4 1845   0.177   0.792   3.383 -0.4157  0.5933  0.1889
  264ntf    fn4 1846   0.188   0.920   3.206 -0.1403 -0.1667  0.0480
  264ntf    fn4 1847   0.347   0.794   3.252 -0.1050 -0.3993 -0.6029
  264ntf    on5 1848   0.408   1.088   3.313 -0.7673  0.0602  0.4366
  264ntf    on5 1849   0.229   1.074   3.469 -0.0017  0.6586  0.0992
  264ntf    on5 1850   0.630   1.062   3.528  0.4316  0.1479  0.1177
  264ntf    on5 1851   0.650   0.812   3.528 -0.7232 -0.1871 -0.1054
  264ntf    fn4 1852   0.678   0.954   3.781  0.5768  0.3192  0.1042
  264ntf    fn4 1853   0.485   1.022   3.788 -0.3714 -0.5255  0.3120
  264ntf    fn4 1854   0.521   0.811   3.781  0.4575  0.4276  0.5808
  265ntf    cn1 1855   2.174   0.624   5.559  0.2339  0.3256 -0.2097
  265ntf    sn2 1856   2.268   0.727   5.443  0.5780  0.2047 -0.0398
  265ntf    nn3 1857   2.375   0.779   5.546  0.0001  0.1235  0.6060
  265ntf    sn2 1858   2.464   0.908   5.535 -0.3764  0.3206 -0.1958
  265ntf    cn1 1859   2.608   0.834   5.452 -0.5416  0.0298 -0.2283
  265ntf    fn4 1860   2.120   0.687   5.663  0.1125 -0.5065  0.2379
  265ntf    fn4 1861   2.072   0.560   5.503  0.4088 -0.3548  0.2418
  265ntf    fn4 1862   2.252   0.532   5.613 -0.0373  0.1015 -0.1936
  265ntf    on5 1863   2.315   0.626   5.352 -0.2564  0.4846 -0.7984
  265ntf    on5 1864   2.169   0.822   5.398  0.3830 -0.1193 -0.2940
  265ntf    on5 1865   2.513   0.950   5.664  0.1066  0.2762 -0.3637
  265ntf    on5 1866   2.425   1.009   5.440 -0.2404  0.4119 -0.1533
  265ntf    fn4 1867   2.642   0.711   5.486 -0.0067  0.2061 -0.1100
  265ntf    fn4 1868   2.606   0.834   5.320 -0.1186 -0.4434 -0.2386
  265ntf    fn4 1869   2.707   0.914   5.488 -0.1466 -0.2412 -0.7092
  266ntf    cn1 1870   0.460   1.440   3.032 -0.1048  0.1010 -0.0340
  266ntf    sn2 1871   0.471   1.545   2.885  0.0007 -0.0985 -0.1686
  266ntf    nn3 1872   0.609   1.507   2.820  0.5534 -0.3237  1.1210
  266ntf    sn2 1873   0.750   1.574   2.832  0.5400 -0.0574 -0.1315
  266ntf    cn1 1874   0.785   1.631   2.663  0.0385  0.0760 -0.1906
  266ntf    fn4 1875   0.488   1.313   3.004 -0.0812  0.0495  0.2142
  266ntf    fn4 1876   0.555   1.476   3.117  0.0205 -0.6867  0.1675
  266ntf    fn4 1877   0.340   1.441   3.088 -0.2636 -0.1490 -0.3690
  266ntf    on5 1878   0.363   1.497   2.801 -0.0361 -0.1697 -0.0804
  266ntf    on5 1879   0.450   1.680   2.929  0.7393 -0.0193 -0.0497
  266ntf    on5 1880   0.854   1.477   2.856  0.2433 -0.1888  0.6448
  266ntf    on5 1881   0.766   1.697   2.905 -0.3375 -0.2680  0.4226
  266ntf    fn4 1882   0.733   1.538   2.584 -0.2036 -0.0245  0.0879
  266ntf    fn4 1883   0.728   1.744   2.623  0.1478  0.3112  0.3055
  266ntf    fn4 1884   0.915   1.639   2.638  0.1411 -0.1620  0.2717
  267ntf    cn1 1885   0.616   0.754   6.389  0.0267 -0.2790  0.0537
  267ntf    sn2 1886   0.473   0.703   6.489 -0.0154  0.2849  0.2866
  267ntf    nn3 1887   0.358   0.719   6.383  0.0437  0.2761  0.2209
  267ntf    sn2 1888   0.276   0.848   6.347 -0.1036  0.0341 -0.3156
  267ntf    cn1 1889   0.116   0.816   6.428  0.0471 -0.4593 -0.2131
  267ntf    fn4 1890   0.664   0.660   6.310  0.3789 -0.0532 -0.0019
  267ntf    fn4 1891   0.583   0.856   6.311  0.4414  0.1653  0.4537
  267ntf    fn4 1892   0.719   0.789   6.463 -0.0032 -0.4766  0.1881
  267ntf    on5 1893   0.498   0.565   6.521 -0.3382  0.2051  0.1984
  267ntf    on5 1894   0.479   0.794   6.601  0.0393  0.7977 -0.1288
  267ntf    on5 1895   0.236   0.856   6.208 -0.3093 -0.4960 -0.2927
  267ntf    on5 1896   0.320   0.972   6.405 -0.3908 -0.2545  0.5371
  267ntf    fn4 1897   0.133   0.802   6.559 -0.3138 -0.7820 -0.1993
  267ntf    fn4 1898   0.023   0.907   6.408  0.2997 -0.2408 -0.3936
  267ntf    fn4 1899   0.053   0.705   6.394  0.1331 -0.7047  0.3991
  268ntf    cn1 1900   0.378   0.342   3.976 -0.1275  0.0752  0.1486
  268ntf    sn2 1901   0.552   0.297   3.953 -0.1442 -0.0561  0.2708
  268ntf    nn3 1902   0.541   0.217   3.819  0.0241  0.4637 -0.0604
  268ntf    sn2 1903   0.643   0.196   3.701 -0.0128  0.0303 -0.0188
  268ntf    cn1 1904   0.750   0.074   3.783 -0.2237 -0.1402  0.0046
  268ntf    fn4 1905   0.322   0.247   4.050 -0.0860 -0.3419 -0.3457
  268ntf    fn4 1906   0.367   0.455   4.044  0.4776 -0.1828  0.6916
  268ntf    fn4 1907   0.309   0.363   3.865  0.2036  0.1586 -0.0432
  268ntf    on5 1908   0.606   0.431   3.945  1.0982 -0.5737 -0.3363
  268ntf    on5 1909   0.584   0.207   4.061  0.0809  0.0458  0.2915
  268ntf    on5 1910   0.727   0.307   3.663  0.2945 -0.2466 -0.1559
  268ntf    on5 1911   0.581   0.127   3.591 -0.4892 -0.0007  0.2651
  268ntf    fn4 1912   0.860   0.050   3.712  0.0307  0.0954  0.3150
  268ntf    fn4 1913   0.792   0.116   3.901 -0.2948  0.2176 -0.0952
  268ntf    fn4 1914   0.701  -0.046   3.809 -0.0685 -0.1931  0.0540
  269ntf    cn1 1915   1.688   1.325   5.774  0.0592 -0.2948 -0.2936
  269ntf    sn2 1916   1.574   1.456   5.828 -0.0091 -0.3212 -0.3752
  269ntf    nn3 1917   1.590   1.544   5.699  1.0674 -0.1977 -0.1663
  269ntf    sn2 1918   1.665   1.681   5.684  0.1963  0.3148  0.0249
  269ntf    cn1 1919   1.525   1.793   5.653  0.1718  0.3537  0.2704
  269ntf    fn4 1920   1.810   1.369   5.745  0.1693 -0.4372 -0.0512
  269ntf    fn4 1921   1.697   1.241   5.876 -0.9423 -0.4138 -0.2991
  269ntf    fn4 1922   1.641   1.257   5.671 -0.6489 -0.4399  0.1227
  269ntf    on5 1923   1.446   1.389   5.833 -0.3710  0.3531 -0.4280
  269ntf    on5 1924   1.618   1.511   5.954 -0.8261 -0.0768 -0.1888
  269ntf    on5 1925   1.732   1.696   5.557  0.0080 -0.4405 -0.1679
  269ntf    on5 1926   1.715   1.743   5.805  0.3731  0.4588 -0.1213
  269ntf    fn4 1927   1.449   1.815   5.759 -0.0948 -0.2818  0.2196
  269ntf    fn4 1928   1.566   1.912   5.612  0.0490  0.3359  0.0941
  269ntf    fn4 1929   1.440   1.730   5.573 -0.0578  0.4185  0.4628
  270ntf    cn1 1930   1.574   1.403   5.098  0.0376  0.5808 -0.2043
  270ntf    sn2 1931   1.538   1.323   4.938  0.1230  0.0605  0.0357
  270ntf    nn3 1932   1.451   1.435   4.870 -0.0164 -0.0233  0.0754
  270ntf    sn2 1933   1.296   1.455   4.865  0.0335  0.3163 -0.1293
  270ntf    cn1 1934   1.270   1.620   4.937 -0.1046  0.0883  0.3499
  270ntf    fn4 1935   1.461   1.429   5.161  0.0696 -0.0936  0.1353
  270ntf    fn4 1936   1.636   1.314   5.174 -0.3787  0.3910 -0.0836
  270ntf    fn4 1937   1.646   1.514   5.096  0.9572  0.0091  0.3647
  270ntf    on5 1938   1.664   1.311   4.869  0.1627  0.5292  0.0251
  270ntf    on5 1939   1.465   1.206   4.980 -0.1569  0.1246 -0.2697
  270ntf    on5 1940   1.216   1.366   4.946  0.1036  0.3364 -0.0378
  270ntf    on5 1941   1.253   1.464   4.728  0.2074 -0.1281 -0.2153
  270ntf    fn4 1942   1.270   1.622   5.069 -0.9387  0.0264  0.3573
  270ntf    fn4 1943   1.357   1.713   4.903 -0.0237 -0.0438  0.1922
  270ntf    fn4 1944   1.148   1.660   4.904 -0.0619 -0.0832 -0.0239
   2.31443   2.31443   6.46502
