Converted from moscito
25920
    1SOL     ow    1   3.255   6.195   3.387 -0.4739  0.2472  0.0166
    1SOL     hw    2   3.279   6.136   3.316 -0.0865 -0.0048  0.3550
    1SOL     hw    3   3.283   6.150   3.466  0.3493  1.1196  0.2464
    1SOL     vw    4   3.262   6.181   3.388 -0.3141  0.3288  0.0914
    2SOL     ow    5   5.673   2.396   5.578 -0.0862 -0.6148  0.0538
    2SOL     hw    6   5.765   2.371   5.585  0.5256  1.1567 -1.1349
    2SOL     hw    7   5.637   2.335   5.514  0.0024 -1.8735  1.1501
    2SOL     vw    8   5.680   2.384   5.571  0.0060 -0.5472  0.0417
    3SOL     ow    9   1.770   5.749   4.942  0.5191  0.1938 -0.0805
    3SOL     hw   10   1.760   5.656   4.964  0.5008 -0.5039 -2.6929
    3SOL     hw   11   1.848   5.776   4.991  0.8121 -1.3139  0.3556
    3SOL     vw   12   1.779   5.740   4.952  0.5553 -0.0970 -0.3674
    4SOL     ow   13   3.057   3.678   5.287 -0.0473 -0.0312 -0.3891
    4SOL     hw   14   3.070   3.663   5.194 -1.6794 -0.0399 -0.6558
    4SOL     hw   15   3.127   3.738   5.312 -0.2475  0.8785 -1.8829
    4SOL     vw   16   3.068   3.684   5.278 -0.2890  0.0875 -0.6211
    5SOL     ow   17   4.671   5.865   2.947 -0.0789 -0.0076  0.0284
    5SOL     hw   18   4.654   5.784   2.899 -2.8136 -1.1465  2.5545
    5SOL     hw   19   4.633   5.849   3.034  3.5385  2.2854  2.2741
    5SOL     vw   20   4.664   5.852   2.953  0.0379  0.1450  0.6579
    6SOL     ow   21   5.770   0.169   6.979  0.2131 -0.3012 -0.2620
    6SOL     hw   22   5.865   0.175   6.990  0.5443 -2.4750 -1.4733
    6SOL     hw   23   5.737   0.252   7.015  2.7630  1.9588 -2.5987
    6SOL     vw   24   5.778   0.181   6.985  0.5932 -0.2898 -0.7300
    7SOL     ow   25   6.821   7.219   4.952 -0.8578 -0.3517  0.0270
    7SOL     hw   26   6.789   7.272   5.025  1.2335  0.4721  0.4037
    7SOL     hw   27   6.764   7.242   4.878  0.2026  2.8188  0.0549
    7SOL     vw   28   6.809   7.229   4.952 -0.4418  0.1755  0.0801
    8SOL     ow   29   6.208   0.762   0.381  0.2980 -0.1240  0.1976
    8SOL     hw   30   6.124   0.777   0.337  0.5662 -0.2421 -0.3486
    8SOL     hw   31   6.198   0.677   0.423 -0.9557  1.1143  2.6765
    8SOL     vw   32   6.195   0.753   0.381  0.1681  0.0238  0.4526
    9SOL     ow   33   6.170   0.664   5.649 -0.4365 -0.2960 -0.5984
    9SOL     hw   34   6.200   0.573   5.645 -0.8123 -0.4025 -1.2781
    9SOL     hw   35   6.194   0.701   5.564  1.5155  0.8471  0.3839
    9SOL     vw   36   6.177   0.657   5.637 -0.2286 -0.1592 -0.5584
   10SOL     ow   37   3.492   5.567   2.134 -0.0599 -0.1335  0.3428
   10SOL     hw   38   3.504   5.505   2.062 -0.6203 -0.5130  0.5668
   10SOL     hw   39   3.478   5.512   2.211  2.8906  0.1999  1.2340
   10SOL     vw   40   3.492   5.552   2.134  0.2553 -0.1395  0.4900
   11SOL     ow   41   6.502   5.708   3.688  0.2432  0.3603 -0.0989
   11SOL     hw   42   6.507   5.766   3.764  0.2033 -0.7431  0.7697
   11SOL     hw   43   6.446   5.755   3.625 -1.7341  0.2925  1.5059
   11SOL     vw   44   6.495   5.722   3.689 -0.0229  0.2060  0.2275
   12SOL     ow   45   4.347   4.072   5.374  0.0967 -0.3577  0.2348
   12SOL     hw   46   4.353   4.102   5.464 -0.0747  0.7775 -0.1129
   12SOL     hw   47   4.405   3.997   5.369  1.4004  0.5791  0.8809
   12SOL     vw   48   4.355   4.066   5.385  0.2460 -0.0846  0.2742
   13SOL     ow   49   4.217   6.986   4.887 -0.8736  0.3533 -0.2085
   13SOL     hw   50   4.124   6.992   4.864 -0.3476  1.0006 -2.4333
   13SOL     hw   51   4.241   6.896   4.864 -0.7159  0.5030 -0.6317
   13SOL     vw   52   4.208   6.975   4.881 -0.7832  0.4585 -0.5577
   14SOL     ow   53   3.232   1.884   3.963  0.0317 -0.8217 -0.0546
   14SOL     hw   54   3.201   1.804   3.921  0.2001 -0.5610 -0.6787
   14SOL     hw   55   3.312   1.857   4.009 -0.4476 -1.2269  0.5729
   14SOL     vw   56   3.238   1.870   3.964 -0.0092 -0.8407 -0.0541
   15SOL     ow   57   1.792   6.705   4.123  0.6177 -0.2014  0.0455
   15SOL     hw   58   1.764   6.629   4.173  2.8445 -0.5552  0.8704
   15SOL     hw   59   1.871   6.676   4.077  0.9879  1.3396 -0.3506
   15SOL     vw   60   1.799   6.692   4.124  0.9603 -0.0451  0.1018
   16SOL     ow   61   6.365   3.806   4.555  0.0787 -0.0911 -0.0302
   16SOL     hw   62   6.436   3.749   4.584 -0.4551 -0.5175  0.4616
   16SOL     hw   63   6.405   3.892   4.546  0.8349 -0.4859 -0.5173
   16SOL     vw   64   6.379   3.810   4.558  0.1078 -0.1994 -0.0298
   17SOL     ow   65   2.710   0.536   5.069  0.8590 -0.3274  0.4968
   17SOL     hw   66   2.681   0.490   4.990  0.3147  0.8772 -0.0372
   17SOL     hw   67   2.801   0.509   5.080  0.3293 -2.1463  0.6947
   17SOL     vw   68   2.718   0.526   5.060  0.7173 -0.4084  0.4525
   18SOL     ow   69   0.724   3.852   3.828  0.4645  0.5746 -0.1088
   18SOL     hw   70   0.748   3.818   3.742 -1.4416  1.0142 -0.8633
   18SOL     hw   71   0.630   3.838   3.835  0.8268 -1.2839  2.7799
   18SOL     vw   72   0.715   3.846   3.818  0.2608  0.3873  0.1726
   19SOL     ow   73   6.056   3.546   5.437 -0.3295 -0.4340  0.1999
   19SOL     hw   74   5.985   3.605   5.412  0.5415  0.9036  0.7717
   19SOL     hw   75   6.111   3.597   5.496  1.6061 -1.1265 -0.9030
   19SOL     vw   76   6.054   3.560   5.441  0.0408 -0.3488  0.1297
   20SOL     ow   77   1.000   4.103   6.909 -0.0948  0.0548 -0.0478
   20SOL     hw   78   0.945   4.057   6.846 -1.8654  0.2592  1.2869
   20SOL     hw   79   0.971   4.194   6.905  1.2942  0.5123 -0.4725
   20SOL     vw   80   0.989   4.109   6.901 -0.1451  0.1421  0.0722
   21SOL     ow   81   4.416   2.953   2.768 -0.4503  0.1634  0.3556
   21SOL     hw   82   4.448   2.863   2.757 -1.0447 -0.0889  0.6474
   21SOL     hw   83   4.463   3.003   2.701 -0.5045 -0.4623 -0.1660
   21SOL     vw   84   4.427   2.948   2.757 -0.5360  0.0477  0.3253
   22SOL     ow   85   0.466   2.796   3.539  0.2341 -0.2646 -0.6127
   22SOL     hw   86   0.439   2.795   3.447 -1.8104  0.7859 -0.0933
   22SOL     hw   87   0.421   2.872   3.576  0.3892 -1.0928  1.4279
   22SOL     vw   88   0.456   2.806   3.532 -0.0152 -0.2352 -0.2749
   23SOL     ow   89   0.030   4.084   3.261  0.5649  0.0257  0.3214
   23SOL     hw   90   0.047   4.130   3.343  2.6179  1.9942 -1.0851
   23SOL     hw   91  -0.060   4.105   3.239 -0.2062 -0.9899  2.2840
   23SOL     vw   92   0.021   4.093   3.269  0.7341  0.1514  0.3948
   24SOL     ow   93   4.392   2.111   1.491 -0.4455  0.6565 -0.7102
   24SOL     hw   94   4.359   2.162   1.566 -0.1719  0.2808 -0.3348
   24SOL     hw   95   4.342   2.030   1.494 -0.1063  0.4493 -0.6616
   24SOL     vw   96   4.381   2.107   1.501 -0.3643  0.5795 -0.6543
   25SOL     ow   97   1.054   6.974   6.227 -0.1236  0.0731 -0.4575
   25SOL     hw   98   1.131   6.923   6.201  1.5399  1.5751  1.2620
   25SOL     hw   99   1.061   7.055   6.177 -0.1242  0.5399  0.2885
   25SOL     vw  100   1.065   6.978   6.217  0.0958  0.3328 -0.1321
   26SOL     ow  101   3.009   2.044   4.403 -0.4229  0.6257 -0.1071
   26SOL     hw  102   3.023   1.952   4.425 -1.0430  0.8594  1.3973
   26SOL     hw  103   3.008   2.089   4.488 -0.8777  1.9067 -0.7640
   26SOL     vw  104   3.010   2.038   4.417 -0.5647  0.8255  0.0045
   27SOL     ow  105   5.172   3.705   2.526 -0.0755 -0.3396 -0.5531
   27SOL     hw  106   5.101   3.711   2.590  0.1828 -0.4521 -0.2587
   27SOL     hw  107   5.208   3.793   2.521  0.8945 -0.6495  0.5833
   27SOL     vw  108   5.167   3.717   2.534  0.0865 -0.3952 -0.3643
   28SOL     ow  109   0.348   5.594   3.219 -0.1920  0.0750 -0.8239
   28SOL     hw  110   0.349   5.690   3.211 -0.0704  0.0646 -0.9405
   28SOL     hw  111   0.441   5.570   3.229 -0.3712  0.2237  2.2874
   28SOL     vw  112   0.361   5.604   3.219 -0.1996  0.0935 -0.4289
   29SOL     ow  113   5.805   7.110   7.003  0.0997 -0.0447 -0.8012
   29SOL     hw  114   5.900   7.112   7.008  0.1347 -1.5008 -0.5882
   29SOL     hw  115   5.785   7.038   6.943 -0.8696  0.2300 -0.8231
   29SOL     vw  116   5.815   7.101   6.996 -0.0236 -0.2003 -0.7761
   30SOL     ow  117   1.555   0.898   5.897  0.2794 -0.2120  0.2398
   30SOL     hw  118   1.520   0.977   5.938 -1.1771 -0.5807 -0.2126
   30SOL     hw  119   1.543   0.830   5.962  0.0430 -0.3608  0.0443
   30SOL     vw  120   1.548   0.899   5.911  0.0560 -0.2803  0.1543
   31SOL     ow  121   6.473   4.783   0.608 -0.0146 -0.1814 -0.5490
   31SOL     hw  122   6.449   4.697   0.641 -2.3960  0.2279 -1.0809
   31SOL     hw  123   6.422   4.845   0.660  1.6521  0.9500 -0.1843
   31SOL     vw  124   6.463   4.780   0.619 -0.1090  0.0217 -0.5711
   32SOL     ow  125   0.867   0.088   2.531 -0.5129 -0.2707 -0.3077
   32SOL     hw  126   0.817   0.078   2.612 -2.2177  3.7523 -0.6863
   32SOL     hw  127   0.808   0.060   2.462  0.1264 -1.4960 -0.3954
   32SOL     vw  128   0.853   0.083   2.533 -0.6535  0.0984 -0.3692
   33SOL     ow  129   5.682   5.576   0.091  0.2659 -0.0261 -0.3658
   33SOL     hw  130   5.608   5.629   0.122 -0.7060 -1.1930 -0.6365
   33SOL     hw  131   5.730   5.635   0.033  0.7438  1.4182  1.3914
   33SOL     vw  132   5.679   5.591   0.087  0.2007  0.0105 -0.1696
   34SOL     ow  133   3.136   1.675   3.262 -0.1307 -0.2158 -0.2886
   34SOL     hw  134   3.045   1.644   3.261 -0.0881 -0.4234  0.9293
   34SOL     hw  135   3.133   1.758   3.215 -0.5391 -1.2353 -2.1784
   34SOL     vw  136   3.124   1.682   3.256 -0.1791 -0.3777 -0.3773
   35SOL     ow  137   0.522   6.750   2.312 -0.5360 -0.1423 -0.3860
   35SOL     hw  138   0.592   6.697   2.274 -0.0257  1.0449 -1.1487
   35SOL     hw  139   0.450   6.688   2.326 -0.0520 -0.9891 -1.4742
   35SOL     vw  140   0.522   6.735   2.309 -0.4048 -0.0973 -0.6301
   36SOL     ow  141   2.463   2.835   4.599 -0.1546  0.5701  0.5432
   36SOL     hw  142   2.535   2.838   4.663  0.5433  1.2052 -0.2404
   36SOL     hw  143   2.506   2.816   4.516 -1.1340 -1.0290  0.3490
   36SOL     vw  144   2.478   2.833   4.597 -0.1918  0.4427  0.4141
   37SOL     ow  145   6.517   2.784   1.984  0.2733  0.0323  0.0660
   37SOL     hw  146   6.589   2.836   2.019 -0.4911  0.5880  0.8705
   37SOL     hw  147   6.534   2.695   2.015  0.1070  0.3439  1.1066
   37SOL     vw  148   6.529   2.779   1.993  0.1504  0.1467  0.3095
   38SOL     ow  149   2.249   1.818   0.155  0.4253 -0.3285 -0.1739
   38SOL     hw  150   2.247   1.895   0.099  0.9050 -0.5760 -0.5423
   38SOL     hw  151   2.342   1.794   0.160  0.4351 -0.1202  1.0009
   38SOL     vw  152   2.261   1.825   0.148  0.4898 -0.3337 -0.0675
   39SOL     ow  153   1.758   1.759   4.904 -0.1244 -0.1123 -0.1289
   39SOL     hw  154   1.829   1.776   4.967 -0.1528  0.3843 -0.2231
   39SOL     hw  155   1.678   1.782   4.952 -0.1492  0.2182 -0.3260
   39SOL     vw  156   1.757   1.764   4.919 -0.1315 -0.0032 -0.1674
   40SOL     ow  157   2.898   7.197   0.199  0.2876 -0.1678 -0.0853
   40SOL     hw  158   2.922   7.285   0.229  0.6504  0.0977 -1.1304
   40SOL     hw  159   2.802   7.198   0.197  0.3058  0.8062 -1.7872
   40SOL     vw  160   2.889   7.209   0.203  0.3378 -0.0043 -0.4477
   41SOL     ow  161   3.580   2.932   3.391 -0.3998 -0.3224  0.3994
   41SOL     hw  162   3.658   2.987   3.392 -1.0606  0.6590 -0.1606
   41SOL     hw  163   3.569   2.908   3.298 -0.6441 -0.6270  0.5042
   41SOL     vw  164   3.589   2.936   3.379 -0.5192 -0.2331  0.3393
   42SOL     ow  165   5.044   4.113   2.236  0.1901 -0.2171  0.4868
   42SOL     hw  166   5.115   4.056   2.269  3.1523  1.8355 -1.7744
   42SOL     hw  167   5.028   4.174   2.308  3.5235  1.5698 -0.0646
   42SOL     vw  168   5.052   4.113   2.250  1.0209  0.2894  0.1158
   43SOL     ow  169   0.912   5.048   2.195 -0.0020 -0.3013 -0.3347
   43SOL     hw  170   0.995   5.013   2.226 -1.0774 -0.5888  2.4497
   43SOL     hw  171   0.846   5.009   2.251 -1.6551  3.0661  0.3447
   43SOL     vw  172   0.914   5.039   2.206 -0.3620  0.1049  0.1223
   44SOL     ow  173   0.032   2.863   5.231 -0.0403 -0.7594 -0.4540
   44SOL     hw  174   0.004   2.790   5.287 -1.3393 -0.0677 -0.1592
   44SOL     hw  175   0.055   2.821   5.148 -0.6069 -1.5401 -0.2374
   44SOL     vw  176   0.031   2.848   5.227 -0.2863 -0.7712 -0.3862
   45SOL     ow  177   0.240   1.952   0.119 -0.1628  0.0130 -0.9664
   45SOL     hw  178   0.276   1.903   0.045 -0.1428  0.7863 -1.4824
   45SOL     hw  179   0.316   1.988   0.164 -0.1895 -0.2118 -0.7391
   45SOL     vw  180   0.255   1.950   0.115 -0.1637  0.0853 -1.0045
   46SOL     ow  181   2.539   2.857   5.921  0.5363 -0.2082 -0.1110
   46SOL     hw  182   2.537   2.903   6.004  1.9330 -1.6618  0.8014
   46SOL     hw  183   2.632   2.856   5.896  0.3244 -1.0054 -0.9571
   46SOL     vw  184   2.551   2.863   5.929  0.6926 -0.5052 -0.1023
   47SOL     ow  185   0.304   4.344   4.048 -0.0226  0.1193  0.3446
   47SOL     hw  186   0.337   4.419   3.998 -0.5349 -0.1329 -0.3937
   47SOL     hw  187   0.380   4.287   4.059 -0.4080 -1.2017 -2.6766
   47SOL     vw  188   0.318   4.347   4.043 -0.1410 -0.0885 -0.1516
   48SOL     ow  189   0.978   6.766   5.819 -0.0119  0.5020  0.1509
   48SOL     hw  190   0.931   6.686   5.844  0.4178 -0.4911 -1.9894
   48SOL     hw  191   1.070   6.740   5.818  0.1413  1.0442 -0.4657
   48SOL     vw  192   0.984   6.752   5.822  0.0650  0.4425 -0.2129
   49SOL     ow  193   4.021   3.051   1.057  0.4600  0.0870 -0.1651
   49SOL     hw  194   4.109   3.017   1.075  0.7078  0.6092 -0.3673
   49SOL     hw  195   3.999   3.016   0.970  0.9932  0.9685 -0.6745
   49SOL     vw  196   4.030   3.042   1.048  0.5629  0.2724 -0.2591
   50SOL     ow  197   1.931   3.494   2.613 -0.1621  0.2181  0.3979
   50SOL     hw  198   1.890   3.577   2.641  0.4448  0.1126  1.6823
   50SOL     hw  199   2.025   3.513   2.612 -0.1072 -0.0695 -0.7025
   50SOL     vw  200   1.938   3.508   2.617 -0.0749  0.1664  0.4222
   51SOL     ow  201   5.293   0.825   2.711  0.1145  0.3443 -0.1007
   51SOL     hw  202   5.243   0.876   2.647 -0.0680 -0.8097 -0.9007
   51SOL     hw  203   5.384   0.844   2.690  0.0602 -0.1541 -0.8299
   51SOL     vw  204   5.298   0.835   2.700  0.0832  0.1262 -0.3024
   52SOL     ow  205   4.374   4.441   0.594 -0.3325 -0.2922  0.0151
   52SOL     hw  206   4.401   4.532   0.610 -1.3673  0.0321  0.0186
   52SOL     hw  207   4.454   4.397   0.566  0.3215  0.4672  0.6203
   52SOL     vw  208   4.388   4.447   0.592 -0.3829 -0.1493  0.0954
   53SOL     ow  209   3.956   2.260   0.590  0.4574  0.6047 -0.4080
   53SOL     hw  210   4.001   2.244   0.507  0.6066 -0.8108 -0.0826
   53SOL     hw  211   3.865   2.278   0.565 -0.1477 -2.4704 -0.8162
   53SOL     vw  212   3.949   2.260   0.576  0.3972  0.0123 -0.4190
   54SOL     ow  213   1.591   5.796   4.666  0.3517  0.1241 -0.1882
   54SOL     hw  214   1.514   5.852   4.665 -0.2790 -0.6867 -1.7521
   54SOL     hw  215   1.577   5.735   4.594  1.8668 -0.8714  0.2971
   54SOL     vw  216   1.579   5.795   4.656  0.4684 -0.1142 -0.3304
   55SOL     ow  217   0.107   4.806   5.697 -0.1461  0.6054 -0.3258
   55SOL     hw  218   0.154   4.801   5.614  1.2377  2.6890  0.2622
   55SOL     hw  219   0.055   4.886   5.690 -1.6562 -0.2986  0.0525
   55SOL     vw  220   0.106   4.816   5.685 -0.1627  0.7610 -0.1984
   56SOL     ow  221   6.302   0.547   1.528  0.7908  0.2175  0.4155
   56SOL     hw  222   6.239   0.480   1.554  2.8735 -1.2078  2.1748
   56SOL     hw  223   6.297   0.551   1.433 -0.6707 -1.1002  0.4123
   56SOL     vw  224   6.293   0.539   1.519  0.8726 -0.1444  0.6472
   57SOL     ow  225   6.882   7.075   7.186  0.8606  0.3539  0.5871
   57SOL     hw  226   6.945   7.058   7.256  2.4438  0.3357 -0.8071
   57SOL     hw  227   6.934   7.103   7.112 -0.6127 -1.0304 -1.0858
   57SOL     vw  228   6.897   7.076   7.186  0.8750  0.1690  0.1824
   58SOL     ow  229   6.765   2.919   3.437  0.3208 -0.1995  0.0965
   58SOL     hw  230   6.776   2.983   3.367 -0.9527 -0.6511 -0.5477
   58SOL     hw  231   6.701   2.959   3.496 -0.3113 -0.7752 -0.1920
   58SOL     vw  232   6.758   2.933   3.436  0.0691 -0.3351 -0.0265
   59SOL     ow  233   2.154   6.328   6.800 -0.2408  0.2933 -0.1009
   59SOL     hw  234   2.092   6.255   6.796  1.0376 -0.9495  1.4981
   59SOL     hw  235   2.098   6.406   6.802 -1.6982 -0.7103 -0.1605
   59SOL     vw  236   2.138   6.329   6.800 -0.2644 -0.0031  0.1020
   60SOL     ow  237   6.377   2.225   3.727 -0.3113  0.0400 -1.3085
   60SOL     hw  238   6.359   2.220   3.821 -0.8911 -1.0292 -1.4645
   60SOL     hw  239   6.307   2.280   3.692 -0.3071  0.1358 -1.1669
   60SOL     vw  240   6.365   2.232   3.734 -0.3872 -0.0883 -1.3103
   61SOL     ow  241   5.863   2.644   3.516  0.0835  0.3435  0.5160
   61SOL     hw  242   5.956   2.663   3.520 -0.2378  2.2175 -0.0672
   61SOL     hw  243   5.842   2.640   3.423 -0.3761 -0.3062  0.6379
   61SOL     vw  244   5.872   2.646   3.504 -0.0198  0.5050  0.4551
   62SOL     ow  245   2.223   3.767   1.787 -0.2525 -0.2482  0.1092
   62SOL     hw  246   2.275   3.779   1.707  1.2924 -1.7160  0.8275
   62SOL     hw  247   2.150   3.713   1.760 -1.3193  1.5565 -0.8480
   62SOL     vw  248   2.220   3.762   1.773 -0.1893 -0.2037  0.0777
   63SOL     ow  249   2.726   0.263   6.445 -0.5413  0.4706  0.4591
   63SOL     hw  250   2.641   0.227   6.469  0.8615 -2.3739  1.5653
   63SOL     hw  251   2.761   0.202   6.380  1.1128  0.9572  0.8455
   63SOL     vw  252   2.719   0.250   6.439 -0.1378  0.1595  0.6559
   64SOL     ow  253   6.154   0.701   5.988 -0.4819  0.3536  0.0538
   64SOL     hw  254   6.101   0.753   6.049  0.8209  0.3333  1.2603
   64SOL     hw  255   6.117   0.613   5.995 -0.4914  0.3967  0.6519
   64SOL     vw  256   6.142   0.696   5.997 -0.3111  0.3566  0.2921
   65SOL     ow  257   6.277   4.779   3.351 -0.9729 -0.3097 -0.0316
   65SOL     hw  258   6.285   4.684   3.340 -2.3063 -0.3091 -1.5246
   65SOL     hw  259   6.270   4.812   3.261 -1.8112  1.0558  0.5083
   65SOL     vw  260   6.277   4.771   3.338 -1.2593 -0.1292 -0.1574
   66SOL     ow  261   6.425   6.994   5.158 -0.5711  0.0429  0.0355
   66SOL     hw  262   6.392   6.908   5.132  0.7408 -0.4384 -0.1105
   66SOL     hw  263   6.393   7.053   5.090 -1.3872 -0.3394  0.0771
   66SOL     vw  264   6.417   6.991   5.145 -0.5057 -0.0710  0.0217
   67SOL     ow  265   2.852   1.251   0.784  0.7711  0.1832 -0.3776
   67SOL     hw  266   2.926   1.312   0.786  0.2145  0.9348  2.4987
   67SOL     hw  267   2.793   1.287   0.718  1.9559  0.8169 -1.1313
   67SOL     vw  268   2.854   1.264   0.776  0.8539  0.3659 -0.0976
   68SOL     ow  269   1.005   3.198   5.856  0.1327  0.3323  0.8332
   68SOL     hw  270   0.917   3.183   5.822  0.2223 -0.0034  0.7522
   68SOL     hw  271   1.033   3.279   5.812 -0.2098  0.5507  1.0128
   68SOL     vw  272   0.997   3.207   5.845  0.0994  0.3170  0.8461
   69SOL     ow  273   1.052   4.162   4.590  0.3924 -0.1580 -0.8089
   69SOL     hw  274   1.033   4.237   4.533  0.1056  0.6842  0.3652
   69SOL     hw  275   0.971   4.111   4.591 -0.0415  0.5363 -0.1023
   69SOL     vw  276   1.039   4.165   4.582  0.2974  0.0448 -0.5608
   70SOL     ow  277   2.465   2.784   1.774  0.2084 -0.2678  0.5876
   70SOL     hw  278   2.435   2.770   1.864 -3.2642 -1.9278 -0.6313
   70SOL     hw  279   2.502   2.873   1.775 -0.4858  0.1107  3.4579
   70SOL     vw  280   2.466   2.794   1.786 -0.3414 -0.4368  0.8055
   71SOL     ow  281   7.053   7.177   5.358 -0.2426 -0.1799  0.4954
   71SOL     hw  282   7.129   7.178   5.416  0.6970 -1.2966 -0.6539
   71SOL     hw  283   7.076   7.239   5.288  0.3285 -1.6368 -0.6653
   71SOL     vw  284   7.066   7.185   5.356 -0.0432 -0.5198  0.1907
   72SOL     ow  285   0.908   2.029   6.275 -0.2031 -0.3889 -0.1325
   72SOL     hw  286   0.887   2.028   6.182  1.1909 -0.6782 -0.4600
   72SOL     hw  287   0.823   2.042   6.318 -1.0311 -1.3969 -1.3790
   72SOL     vw  288   0.894   2.030   6.269 -0.1284 -0.5602 -0.3402
   73SOL     ow  289   6.252   0.988   0.524  0.3316  0.1388 -0.4535
   73SOL     hw  290   6.308   0.941   0.585  0.3856  1.5558  0.6340
   73SOL     hw  291   6.222   0.921   0.463  0.7019 -1.2230  0.8005
   73SOL     vw  292   6.256   0.973   0.524  0.3879  0.1461 -0.1445
   74SOL     ow  293   2.663   5.009   2.836  0.2463 -0.4809  0.2883
   74SOL     hw  294   2.706   4.968   2.761  0.4196 -1.8674  1.1153
   74SOL     hw  295   2.636   5.095   2.803 -1.9597 -1.9583 -2.1520
   74SOL     vw  296   2.665   5.015   2.821 -0.0219 -0.8588  0.0755
   75SOL     ow  297   1.745   5.418   2.240  0.5264 -0.4243 -0.3943
   75SOL     hw  298   1.684   5.364   2.191  0.7175 -1.8736  0.9190
   75SOL     hw  299   1.690   5.483   2.284  0.2702  0.2905 -1.7123
   75SOL     vw  300   1.730   5.420   2.239  0.5178 -0.5212 -0.3951
   76SOL     ow  301   4.784   5.926   2.262 -0.4463  0.0209  0.0927
   76SOL     hw  302   4.844   5.858   2.229  1.4551  1.5511  0.2358
   76SOL     hw  303   4.745   5.887   2.340  1.2782 -0.6227  0.6841
   76SOL     vw  304   4.787   5.912   2.268  0.0324  0.1376  0.1897
   77SOL     ow  305   3.999   3.912   6.416 -0.0312  0.0235  0.1820
   77SOL     hw  306   4.044   3.968   6.353 -0.8346 -0.1272 -0.5490
   77SOL     hw  307   3.949   3.973   6.470  0.0417  0.0990  0.1649
   77SOL     vw  308   3.998   3.927   6.415 -0.1277  0.0136  0.0834
   78SOL     ow  309   5.798   7.130   3.939  0.2577 -0.7162 -0.3910
   78SOL     hw  310   5.840   7.093   4.017  0.9412 -1.0695 -0.9165
   78SOL     hw  311   5.746   7.203   3.972  1.4641 -0.1162  0.2633
   78SOL     vw  312   5.797   7.135   3.953  0.5074 -0.6835 -0.3741
   79SOL     ow  313   3.122   3.438   3.569 -0.3100  0.0289 -0.4219
   79SOL     hw  314   3.193   3.375   3.553 -0.6943 -0.2322 -1.1913
   79SOL     hw  315   3.049   3.384   3.601 -1.0693 -0.1552 -2.3071
   79SOL     vw  316   3.122   3.423   3.571 -0.4610 -0.0300 -0.7721
   80SOL     ow  317   1.901   4.911   5.850  0.5020 -0.0990  0.7593
   80SOL     hw  318   1.812   4.945   5.863  0.1621 -1.2774  1.7556
   80SOL     hw  319   1.911   4.844   5.917  2.4776  0.5739  1.2051
   80SOL     vw  320   1.890   4.906   5.861  0.7178 -0.1655  0.9494
   81SOL     ow  321   4.887   5.838   3.963  0.2499 -0.1277 -0.2160
   81SOL     hw  322   4.817   5.775   3.982 -0.3714 -0.0276 -1.9633
   81SOL     hw  323   4.841   5.922   3.951  0.5536 -0.1837 -2.0039
   81SOL     vw  324   4.872   5.841   3.964  0.2081 -0.1218 -0.6822
   82SOL     ow  325   6.166   0.421   6.216  0.2991 -0.1586 -0.4937
   82SOL     hw  326   6.244   0.456   6.260 -0.7543 -0.0025  1.3642
   82SOL     hw  327   6.145   0.341   6.265 -0.6020 -0.2832 -1.0730
   82SOL     vw  328   6.174   0.415   6.229  0.0412 -0.1545 -0.3252
   83SOL     ow  329   1.728   7.143   1.413  0.3856  0.4651 -0.2660
   83SOL     hw  330   1.781   7.161   1.335  0.6358  0.7030 -0.0436
   83SOL     hw  331   1.757   7.056   1.442 -0.0087  0.1942 -0.6824
   83SOL     vw  332   1.739   7.134   1.407  0.3666  0.4606 -0.2916
   84SOL     ow  333   5.490   3.573   3.639 -0.2214  0.0529 -0.2757
   84SOL     hw  334   5.507   3.577   3.545  0.8581 -2.2739 -0.2283
   84SOL     hw  335   5.397   3.549   3.645 -0.4293  0.7025 -0.7167
   84SOL     vw  336   5.480   3.571   3.627 -0.1066 -0.1683 -0.3276
   85SOL     ow  337   3.686   3.480   2.865 -0.0791  0.6731  0.0051
   85SOL     hw  338   3.771   3.508   2.831  0.6494 -0.3907  0.8939
   85SOL     hw  339   3.679   3.522   2.951 -0.3644  0.6145  0.0108
   85SOL     vw  340   3.696   3.489   2.872 -0.0206  0.5250  0.1230
   86SOL     ow  341   2.784   0.114   0.879 -0.1799  0.5840  0.1473
   86SOL     hw  342   2.730   0.181   0.921  0.2672  1.5953 -0.8501
   86SOL     hw  343   2.720   0.052   0.842 -0.7369  2.0603 -1.5143
   86SOL     vw  344   2.768   0.115   0.880 -0.1945  0.9122 -0.2035
   87SOL     ow  345   5.510   3.658   0.303  0.0475 -0.0640 -0.9235
   87SOL     hw  346   5.470   3.612   0.377  0.3000  0.3402 -0.5312
   87SOL     hw  347   5.459   3.738   0.294  2.3285  1.8107  1.3182
   87SOL     vw  348   5.498   3.663   0.312  0.3822  0.2365 -0.5760
   88SOL     ow  349   4.533   5.348   4.990  0.0623  0.1099 -0.1084
   88SOL     hw  350   4.516   5.256   5.009 -0.5677  0.1852 -0.2859
   88SOL     hw  351   4.587   5.379   5.063  0.8274 -0.5597 -0.3717
   88SOL     vw  352   4.538   5.340   5.002  0.0801  0.0315 -0.1667
   89SOL     ow  353   5.088   1.271   6.239 -0.6431 -0.2857 -0.4387
   89SOL     hw  354   4.993   1.262   6.245 -0.7184  0.8016  0.3526
   89SOL     hw  355   5.112   1.323   6.316  0.5900 -0.5440 -0.6357
   89SOL     vw  356   5.078   1.277   6.250 -0.4902 -0.1764 -0.3603
   90SOL     ow  357   6.397   6.167   1.833 -0.7288 -0.3095 -0.4129
   90SOL     hw  358   6.491   6.177   1.846 -0.7802 -0.5807  0.2023
   90SOL     hw  359   6.358   6.200   1.914 -1.2766  1.7028 -1.4396
   90SOL     vw  360   6.404   6.172   1.845 -0.8078 -0.0796 -0.4672
   91SOL     ow  361   4.752   5.393   6.893  0.2750 -0.6743 -0.3879
   91SOL     hw  362   4.778   5.318   6.947 -1.1755 -1.2332 -0.4205
   91SOL     hw  363   4.741   5.465   6.955  0.4000 -0.8324 -0.1812
   91SOL     vw  364   4.754   5.392   6.908  0.1001 -0.7687 -0.3648
   92SOL     ow  365   3.447   4.006   2.726  0.1089 -0.5311  0.0763
   92SOL     hw  366   3.351   4.005   2.729  0.0806 -2.7342  0.7907
   92SOL     hw  367   3.473   4.023   2.817  0.4437  1.0108 -0.2819
   92SOL     vw  368   3.438   4.008   2.739  0.1491 -0.6185  0.1230
   93SOL     ow  369   6.771   2.623   3.520  0.3501 -0.3176 -0.9896
   93SOL     hw  370   6.704   2.605   3.455 -2.2073  2.9294  0.4454
   93SOL     hw  371   6.724   2.626   3.603  2.6509  0.1308  0.4126
   93SOL     vw  372   6.756   2.621   3.523  0.3159  0.1700 -0.6154
   94SOL     ow  373   5.415   2.497   6.630 -0.5155  0.2880 -0.0366
   94SOL     hw  374   5.400   2.412   6.588 -4.0158 -0.3051  2.0630
   94SOL     hw  375   5.461   2.477   6.711 -3.4203 -0.0737  1.6501
   94SOL     vw  376   5.419   2.483   6.635 -1.3604  0.1619  0.4630
   95SOL     ow  377   1.882   5.698   6.676 -0.2107  0.4883  0.1840
   95SOL     hw  378   1.871   5.666   6.766 -0.0212 -2.1718 -0.6720
   95SOL     hw  379   1.964   5.748   6.678  0.8767 -1.2553  1.0788
   95SOL     vw  380   1.891   5.700   6.688 -0.0423 -0.0927  0.1893
   96SOL     ow  381   5.902   0.919   5.553  0.1746  0.7913  0.4141
   96SOL     hw  382   5.920   0.863   5.478  2.5768 -1.2826  2.3388
   96SOL     hw  383   5.955   0.998   5.538 -0.0417  0.7830 -0.4295
   96SOL     vw  384   5.911   0.922   5.541  0.4630  0.5166  0.5567
   97SOL     ow  385   5.297   5.366   2.855 -0.3642  0.4515 -0.2100
   97SOL     hw  386   5.286   5.294   2.917 -0.0732 -0.3861 -1.1073
   97SOL     hw  387   5.209   5.380   2.820 -0.5041  0.8392  0.2746
   97SOL     vw  388   5.284   5.359   2.859 -0.3445  0.3920 -0.2644
   98SOL     ow  389   3.877   1.937   6.992  0.0479 -0.1237  0.0650
   98SOL     hw  390   3.880   1.981   6.907 -0.7907 -1.2016 -0.5458
   98SOL     hw  391   3.835   2.000   7.050  1.8065  1.1403  0.0290
   98SOL     vw  392   3.872   1.951   6.989  0.1693 -0.0991 -0.0205
   99SOL     ow  393   2.988   5.567   5.938  0.0490  0.2574 -0.0422
   99SOL     hw  394   3.000   5.520   5.856  1.2786 -1.0759  0.8566
   99SOL     hw  395   2.897   5.549   5.963  0.4703 -1.6679  0.2542
   99SOL     vw  396   2.978   5.558   5.931  0.2668 -0.1724  0.1154
  100SOL     ow  397   6.955   3.714   3.300 -0.2950 -0.0105  0.1753
  100SOL     hw  398   6.903   3.795   3.295 -0.2409 -0.0299 -0.7900
  100SOL     hw  399   7.045   3.745   3.309 -0.1272  0.0730 -1.5316
  100SOL     vw  400   6.960   3.729   3.301 -0.2658 -0.0020 -0.1773
  101SOL     ow  401   6.567   5.914   0.174  0.3750  0.7014 -0.1442
  101SOL     hw  402   6.593   6.006   0.168  0.3132  0.9080  1.9646
  101SOL     hw  403   6.643   5.865   0.144  0.9417  1.4336  0.0600
  101SOL     vw  404   6.580   5.920   0.170  0.4413  0.8252  0.1610
  102SOL     ow  405   2.402   1.684   1.160  0.1686  0.2042  0.2225
  102SOL     hw  406   2.324   1.724   1.123  0.2649  0.7100  0.5586
  102SOL     hw  407   2.423   1.613   1.100 -0.2290  0.4160 -0.1708
  102SOL     vw  408   2.395   1.680   1.147  0.1290  0.2989  0.2149
  103SOL     ow  409   5.991   0.920   1.901  0.2705  0.0363 -0.5459
  103SOL     hw  410   5.935   0.990   1.865 -0.3212  0.7440  1.6057
  103SOL     hw  411   5.931   0.847   1.915 -0.5734  1.2299  3.0113
  103SOL     vw  412   5.976   0.920   1.898  0.0813  0.2871  0.2072
  104SOL     ow  413   4.881   4.544   0.603 -0.2290 -0.0244 -0.0250
  104SOL     hw  414   4.850   4.501   0.524 -0.9292 -2.6850  1.5598
  104SOL     hw  415   4.974   4.521   0.608 -0.4780 -0.9981  0.5330
  104SOL     vw  416   4.889   4.535   0.593 -0.3541 -0.5038  0.2577
  105SOL     ow  417   3.228   2.703   2.683 -0.2648 -0.7854  0.2364
  105SOL     hw  418   3.187   2.626   2.642 -0.3707  0.3585 -1.9433
  105SOL     hw  419   3.284   2.740   2.614 -1.1910  1.8048  0.7622
  105SOL     vw  420   3.230   2.698   2.668 -0.4010 -0.2927  0.0181
  106SOL     ow  421   5.761   4.112   5.900  0.2501  0.9914 -0.6293
  106SOL     hw  422   5.784   4.184   5.841  0.6224  1.8809  0.5722
  106SOL     hw  423   5.724   4.154   5.977  2.6626  0.1061  1.1577
  106SOL     vw  424   5.759   4.127   5.902  0.6175  0.9921 -0.2348
  107SOL     ow  425   3.418   5.458   5.110 -0.3808  0.2883  0.2770
  107SOL     hw  426   3.484   5.443   5.178  0.7017 -1.6497 -1.0607
  107SOL     hw  427   3.357   5.385   5.120 -1.0455  0.8107  0.0760
  107SOL     vw  428   3.419   5.446   5.120 -0.3257  0.1013  0.0739
  108SOL     ow  429   2.943   0.185   6.638 -0.2564 -0.1921 -0.7308
  108SOL     hw  430   2.956   0.274   6.671 -0.6176 -0.3701 -0.0937
  108SOL     hw  431   2.859   0.189   6.591  0.0978 -0.0184 -1.3609
  108SOL     vw  432   2.933   0.198   6.636 -0.2574 -0.1926 -0.7298
  109SOL     ow  433   6.251   4.602   2.357 -0.0939 -0.4895  0.3346
  109SOL     hw  434   6.227   4.536   2.422 -0.3172 -2.3074 -1.5066
  109SOL     hw  435   6.318   4.559   2.303 -0.4971  0.6565 -1.1355
  109SOL     vw  436   6.257   4.588   2.359 -0.1767 -0.5782 -0.1023
  110SOL     ow  437   0.155   0.586   5.735 -0.8312 -0.3947 -0.0602
  110SOL     hw  438   0.138   0.538   5.654  0.2993 -0.5855 -0.2043
  110SOL     hw  439   0.241   0.626   5.721 -1.6320  1.5047  0.1431
  110SOL     vw  440   0.164   0.585   5.722 -0.7877 -0.1692 -0.0525
  111SOL     ow  441   2.955   3.228   0.802  0.0803 -0.4537 -0.3534
  111SOL     hw  442   2.965   3.208   0.895  1.3206 -1.0252 -0.5811
  111SOL     hw  443   3.030   3.285   0.782  1.3913 -2.4485 -1.5396
  111SOL     vw  444   2.967   3.233   0.812  0.4170 -0.7924 -0.5400
  112SOL     ow  445   4.772   1.105   0.212 -0.0480 -0.4767  0.1708
  112SOL     hw  446   4.866   1.088   0.199  0.4803  0.2920  2.4797
  112SOL     hw  447   4.729   1.025   0.181  1.4478 -1.2696  0.0427
  112SOL     vw  448   4.779   1.092   0.206  0.2191 -0.4798  0.4585
  113SOL     ow  449   0.533   3.500   0.238  0.0256  0.1678 -0.5471
  113SOL     hw  450   0.582   3.582   0.248  0.4739  0.1381 -2.2332
  113SOL     hw  451   0.442   3.528   0.234 -0.0991  0.2933  1.7899
  113SOL     vw  452   0.528   3.515   0.239  0.0683  0.1805 -0.4612
  114SOL     ow  453   0.746   0.311   7.063  0.8411  0.4215  0.9026
  114SOL     hw  454   0.662   0.266   7.060  1.7208 -1.2518 -0.1370
  114SOL     hw  455   0.768   0.317   7.156 -0.2569  0.5958  1.1604
  114SOL     vw  456   0.738   0.306   7.075  0.8123  0.2237  0.7994
  115SOL     ow  457   1.984   1.951   0.235  0.5084 -0.7518 -0.9690
  115SOL     hw  458   1.913   1.966   0.172 -1.1897 -1.0034  0.7637
  115SOL     hw  459   1.999   2.036   0.275 -1.5413 -1.3330  1.2819
  115SOL     vw  460   1.976   1.964   0.232  0.0139 -0.8617 -0.4434
  116SOL     ow  461   6.111   1.082   3.189 -0.2138 -0.0681  0.3576
  116SOL     hw  462   6.053   1.072   3.264  0.3776  0.5011  0.9129
  116SOL     hw  463   6.170   1.006   3.194 -0.4270 -0.2402  0.2404
  116SOL     vw  464   6.111   1.071   3.200 -0.1640 -0.0157  0.4154
  117SOL     ow  465   7.209   1.313   2.509  0.3745  0.4044 -0.0597
  117SOL     hw  466   7.223   1.407   2.521  1.4220  0.2740 -0.2277
  117SOL     hw  467   7.134   1.308   2.449 -0.9052  1.0974  1.4074
  117SOL     vw  468   7.201   1.325   2.502  0.3440  0.4786  0.1116
  118SOL     ow  469   3.478   3.240   1.766  0.3417 -0.4696  0.1565
  118SOL     hw  470   3.491   3.311   1.704 -0.1053  1.2819  1.9880
  118SOL     hw  471   3.565   3.224   1.803  0.2304 -0.0195  0.6218
  118SOL     vw  472   3.491   3.247   1.763  0.2681 -0.1792  0.4596
  119SOL     ow  473   1.903   6.639   7.214 -0.2959 -0.5398 -0.1020
  119SOL     hw  474   1.988   6.597   7.225  1.4871  3.0932  1.8047
  119SOL     hw  475   1.924   6.728   7.187 -3.3464  0.9424  1.8705
  119SOL     vw  476   1.917   6.645   7.212 -0.4632  0.1352  0.4096
  120SOL     ow  477   4.891   3.097   0.680 -0.2968  0.7272 -0.2765
  120SOL     hw  478   4.810   3.048   0.663 -0.2925  1.5722 -3.5663
  120SOL     hw  479   4.959   3.047   0.634  0.5702  1.3898  0.2647
  120SOL     vw  480   4.889   3.084   0.671 -0.1819  0.9261 -0.6391
  121SOL     ow  481   4.413   3.223   2.953  0.1401  0.1073 -0.4369
  121SOL     hw  482   4.407   3.273   2.872  1.5912 -0.5244 -0.9601
  121SOL     hw  483   4.365   3.275   3.017 -1.5446  0.3188 -1.8169
  121SOL     vw  484   4.406   3.236   2.951  0.1092  0.0517 -0.6881
  122SOL     ow  485   6.946   6.628   0.748  0.3303  0.0751  1.6974
  122SOL     hw  486   6.902   6.688   0.808  0.5974  0.8549  1.1272
  122SOL     hw  487   6.962   6.680   0.669  0.4476 -0.7881  1.1401
  122SOL     vw  488   6.943   6.643   0.746  0.3812  0.0644  1.5486
  123SOL     ow  489   1.678   0.077   4.772  0.3019 -0.4622  0.1173
  123SOL     hw  490   1.740   0.011   4.802  0.1796 -0.1517  1.1157
  123SOL     hw  491   1.595   0.031   4.764 -0.2122 -0.1106  2.5951
  123SOL     vw  492   1.676   0.062   4.775  0.2180 -0.3748  0.5758
  124SOL     ow  493   5.463   1.443   7.040  0.1453  0.2110 -0.1688
  124SOL     hw  494   5.399   1.498   7.085  0.1399  2.2698 -2.4823
  124SOL     hw  495   5.413   1.369   7.006 -0.2296 -0.2310  1.2863
  124SOL     vw  496   5.448   1.440   7.041  0.0954  0.4243 -0.2820
  125SOL     ow  497   1.281   1.193   5.237 -0.2076 -0.3516 -0.5136
  125SOL     hw  498   1.251   1.254   5.305  1.7928 -0.6071  0.6747
  125SOL     hw  499   1.215   1.124   5.236  0.8200 -1.6234  2.9957
  125SOL     vw  500   1.268   1.192   5.246  0.1919 -0.5531  0.1061
  126SOL     ow  501   4.351   0.926   2.421  0.1158 -0.1540  0.1443
  126SOL     hw  502   4.310   0.964   2.343  1.5378 -1.3602 -1.2683
  126SOL     hw  503   4.287   0.863   2.453 -0.0036 -0.5159 -0.7771
  126SOL     vw  504   4.337   0.923   2.415  0.2875 -0.3609 -0.1637
  127SOL     ow  505   0.660   4.496   2.643  0.4334  0.0196 -0.0486
  127SOL     hw  506   0.709   4.462   2.717 -0.0730  2.1611  1.3730
  127SOL     hw  507   0.727   4.529   2.583  0.8419  1.5520  1.1809
  127SOL     vw  508   0.676   4.496   2.645  0.4205  0.5043  0.3011
  128SOL     ow  509   6.039   7.154   1.413 -0.3464 -0.0171  0.6073
  128SOL     hw  510   5.964   7.213   1.427 -1.1326 -1.1578  1.4292
  128SOL     hw  511   6.041   7.100   1.492  0.7016 -0.7263  0.1150
  128SOL     vw  512   6.029   7.155   1.426 -0.3116 -0.2615  0.6508
  129SOL     ow  513   5.620   5.176   5.506 -0.1283  0.2154 -0.2926
  129SOL     hw  514   5.556   5.241   5.537  0.9597  2.0332 -1.6562
  129SOL     hw  515   5.583   5.144   5.424 -0.0148  0.1014 -0.2985
  129SOL     vw  516   5.606   5.181   5.499  0.0303  0.4401 -0.4733
  130SOL     ow  517   0.532   1.678   4.884  0.4731  0.1089 -0.0072
  130SOL     hw  518   0.540   1.641   4.972  1.5370  0.0578 -0.1107
  130SOL     hw  519   0.449   1.726   4.885  0.2890 -0.2136  0.8954
  130SOL     vw  520   0.522   1.679   4.895  0.5892  0.0597  0.0982
  131SOL     ow  521   6.367   1.625   1.988  0.2468  0.2045  0.1560
  131SOL     hw  522   6.393   1.671   2.068 -0.2043  2.3791 -0.8786
  131SOL     hw  523   6.274   1.643   1.978 -0.1257 -1.5616  0.0424
  131SOL     vw  524   6.358   1.633   1.997  0.1380  0.2584  0.0045
  132SOL     ow  525   4.219   5.570   0.119  0.5363 -0.0320 -0.1221
  132SOL     hw  526   4.312   5.565   0.097  0.2263  0.2753 -1.5832
  132SOL     hw  527   4.174   5.571   0.035 -0.7535  0.6360  0.5418
  132SOL     vw  528   4.225   5.570   0.105  0.3252  0.0968 -0.2273
  133SOL     ow  529   4.900   1.990   3.915 -0.1237  0.3882  0.2456
  133SOL     hw  530   4.889   1.982   4.010  0.1157  1.4011  0.3622
  133SOL     hw  531   4.824   1.944   3.878  0.5799 -1.3927  0.8833
  133SOL     vw  532   4.889   1.983   3.922  0.0005  0.2869  0.3451
  134SOL     ow  533   0.598   1.868   0.990  0.0295  0.1537 -0.5334
  134SOL     hw  534   0.557   1.938   0.940  2.1199  2.0617  0.2051
  134SOL     hw  535   0.577   1.888   1.081  3.4262  2.0226  0.0166
  134SOL     vw  536   0.590   1.880   0.996  0.7534  0.6520 -0.3634
  135SOL     ow  537   0.030   2.198   4.741 -0.6371 -0.1152  0.7515
  135SOL     hw  538   0.032   2.280   4.791 -0.3027 -0.1375  0.7793
  135SOL     hw  539  -0.031   2.143   4.789 -2.3279  0.7656 -0.3075
  135SOL     vw  540   0.022   2.202   4.754 -0.8161 -0.0019  0.6154
  136SOL     ow  541   4.493   5.452   3.927  0.1915  0.3697 -0.5883
  136SOL     hw  542   4.428   5.464   3.996 -0.7246 -1.1225 -1.1452
  136SOL     hw  543   4.578   5.461   3.972 -0.3559  2.4012  0.1354
  136SOL     vw  544   4.496   5.455   3.942 -0.0019  0.4408 -0.5664
  137SOL     ow  545   3.974   2.297   2.924  0.3100 -0.0576  0.1567
  137SOL     hw  546   4.009   2.306   3.012 -2.4699  0.8187  1.2896
  137SOL     hw  547   3.951   2.386   2.897 -2.7354 -0.6442  0.3804
  137SOL     vw  548   3.975   2.310   2.932 -0.4587 -0.0193  0.3356
  138SOL     ow  549   5.766   6.801   6.176  0.1173  0.1840 -0.2152
  138SOL     hw  550   5.861   6.814   6.169  0.1479  0.1551  0.1440
  138SOL     hw  551   5.745   6.826   6.266 -0.0778 -0.6526 -0.0219
  138SOL     vw  552   5.776   6.806   6.187  0.0956  0.0696 -0.1423
  139SOL     ow  553   6.902   1.788   5.981  0.4439  0.6410 -0.3238
  139SOL     hw  554   6.947   1.713   5.943  1.0851  0.3549  0.9532
  139SOL     hw  555   6.888   1.764   6.072 -3.0301  0.3945 -0.7916
  139SOL     vw  556   6.906   1.775   5.988  0.0701  0.5708 -0.2172
  140SOL     ow  557   0.090   5.378   3.433 -0.4989  0.3474  0.3355
  140SOL     hw  558  -0.002   5.355   3.445 -0.7987  0.6252 -1.1524
  140SOL     hw  559   0.125   5.307   3.378 -0.6402  1.7198 -1.6573
  140SOL     vw  560   0.083   5.366   3.427 -0.5571  0.5651 -0.1237
  141SOL     ow  561   1.578   1.405   0.427 -0.1247  0.4003  0.1878
  141SOL     hw  562   1.575   1.426   0.334 -0.5457 -0.5212 -0.0125
  141SOL     hw  563   1.591   1.490   0.470 -3.0847  1.3356 -0.4982
  141SOL     vw  564   1.579   1.419   0.421 -0.5708  0.4021  0.0708
  142SOL     ow  565   6.388   3.699   2.636 -0.4140 -0.1332 -0.5990
  142SOL     hw  566   6.404   3.662   2.723 -2.1098  1.5721  0.5046
  142SOL     hw  567   6.473   3.691   2.591  0.2340 -1.9915  0.7935
  142SOL     vw  568   6.402   3.693   2.642 -0.5522 -0.1534 -0.2697
  143SOL     ow  569   6.992   1.055   6.037  0.1989 -0.4373  0.6365
  143SOL     hw  570   6.903   1.078   6.011  0.0327 -0.9744  0.7253
  143SOL     hw  571   7.041   1.137   6.031  0.2010 -0.5299 -1.5222
  143SOL     vw  572   6.987   1.069   6.033  0.1774 -0.5204  0.3633
  144SOL     ow  573   5.945   1.427   1.044  0.4062  0.5635  0.4628
  144SOL     hw  574   5.979   1.453   0.959  0.6323 -0.7763  0.1316
  144SOL     hw  575   5.990   1.484   1.106  0.2458  1.5426 -0.2942
  144SOL     vw  576   5.955   1.438   1.041  0.4148  0.5159  0.3192
  145SOL     ow  577   5.411   1.411   2.440  0.2629  0.0504  0.5643
  145SOL     hw  578   5.423   1.505   2.458  1.9482 -0.3749  1.9042
  145SOL     hw  579   5.327   1.406   2.395  1.2505  2.4975 -1.8363
  145SOL     vw  580   5.402   1.423   2.436  0.6156  0.3172  0.4244
  146SOL     ow  581   5.684   4.941   0.894  0.3332  0.0006 -0.3254
  146SOL     hw  582   5.662   4.935   0.801 -1.7260 -0.9650  0.1716
  146SOL     hw  583   5.707   5.033   0.907 -0.2489  0.3486 -1.5965
  146SOL     vw  584   5.684   4.953   0.883 -0.0153 -0.0811 -0.4276
  147SOL     ow  585   3.680   4.664   6.489 -0.3042  0.5012  0.3064
  147SOL     hw  586   3.768   4.639   6.464  0.0663  1.1485  0.9285
  147SOL     hw  587   3.680   4.760   6.485 -1.0748  0.4969 -0.0056
  147SOL     vw  588   3.691   4.674   6.486 -0.3570  0.5860  0.3474
  148SOL     ow  589   2.002   4.773   1.197  0.4712 -0.2682 -0.3014
  148SOL     hw  590   2.067   4.824   1.148  1.3069  1.2139  2.1390
  148SOL     hw  591   1.921   4.822   1.188 -0.1956 -1.6542 -2.6279
  148SOL     vw  592   2.000   4.786   1.189  0.4935 -0.2556 -0.2864
  149SOL     ow  593   5.654   4.495   4.231 -0.2877  0.0154 -0.0965
  149SOL     hw  594   5.561   4.493   4.207 -0.6699 -1.1248  1.2920
  149SOL     hw  595   5.662   4.429   4.301  1.8934 -1.1599 -1.3324
  149SOL     vw  596   5.643   4.486   4.237 -0.0505 -0.2899 -0.0765
  150SOL     ow  597   6.279   0.153   4.280  0.2756  0.1798 -0.1859
  150SOL     hw  598   6.220   0.222   4.311 -0.9913 -1.4439  1.1853
  150SOL     hw  599   6.346   0.200   4.230 -1.0339  2.2977 -0.0765
  150SOL     vw  600   6.280   0.168   4.278 -0.0641  0.2450  0.0095
  151SOL     ow  601   4.703   1.439   0.173  0.2534  0.5002 -0.2902
  151SOL     hw  602   4.656   1.502   0.117  1.9765  1.3078 -0.8831
  151SOL     hw  603   4.791   1.475   0.181  0.3221 -0.0192  2.2943
  151SOL     vw  604   4.708   1.452   0.167  0.4900  0.5382 -0.0274
  152SOL     ow  605   3.819   6.106   5.598  0.6919  0.1389 -0.3912
  152SOL     hw  606   3.831   6.098   5.693  1.6310 -1.2048 -0.6106
  152SOL     hw  607   3.848   6.022   5.562  0.0654  0.5131 -1.8567
  152SOL     vw  608   3.824   6.094   5.606  0.7331  0.0110 -0.6135
  153SOL     ow  609   1.021   2.098   1.319  0.4804 -0.1083 -0.7647
  153SOL     hw  610   1.044   2.016   1.275  0.8330  0.0846 -0.9385
  153SOL     hw  611   0.925   2.097   1.321  0.4849 -1.0554  0.2319
  153SOL     vw  612   1.011   2.087   1.313  0.5276 -0.2079 -0.6561
  154SOL     ow  613   5.390   1.556   6.615  0.3110 -0.5238  0.5582
  154SOL     hw  614   5.436   1.481   6.653 -0.7675 -0.4078  2.1636
  154SOL     hw  615   5.440   1.632   6.645 -0.5012 -0.4361  1.7252
  154SOL     vw  616   5.403   1.556   6.624  0.0618 -0.4969  0.9239
  155SOL     ow  617   0.763   3.337   2.462  1.3170  0.1012 -0.3760
  155SOL     hw  618   0.725   3.289   2.389 -0.7512 -0.3302  0.9188
  155SOL     hw  619   0.771   3.273   2.532  0.0875  1.2044  0.8353
  155SOL     vw  620   0.759   3.322   2.462  0.8819  0.1899 -0.0454
  156SOL     ow  621   1.121   4.038   4.848 -0.1119 -0.5789  0.3111
  156SOL     hw  622   1.147   4.012   4.936 -1.4338 -1.5654  0.4431
  156SOL     hw  623   1.055   3.974   4.823 -1.8911  1.3670 -0.2387
  156SOL     vw  624   1.116   4.026   4.856 -0.5210 -0.4523  0.2561
  157SOL     ow  625   1.400   5.027   0.205  0.0103 -0.1962  0.3512
  157SOL     hw  626   1.454   5.007   0.128  0.1454 -0.4076  0.5003
  157SOL     hw  627   1.440   5.105   0.242  1.3476 -1.3774  1.5121
  157SOL     vw  628   1.413   5.034   0.199  0.2046 -0.3798  0.5241
  158SOL     ow  629   2.357   4.182   6.189  0.2011  0.2366  0.2019
  158SOL     hw  630   2.349   4.202   6.096  1.5163 -0.9285 -0.2003
  158SOL     hw  631   2.446   4.148   6.198 -0.6260 -1.7413  1.4566
  158SOL     vw  632   2.368   4.180   6.178  0.2654 -0.1781  0.3142
  159SOL     ow  633   0.048   5.115   0.509  0.5169 -0.4531 -0.0983
  159SOL     hw  634   0.008   5.201   0.522  0.1028 -0.3747 -1.6803
  159SOL     hw  635  -0.027   5.056   0.500  0.7955 -0.8736  0.3143
  159SOL     vw  636   0.033   5.119   0.510  0.4990 -0.4983 -0.2525
  160SOL     ow  637   4.514   3.238   4.133 -0.5782  0.2204  0.0202
  160SOL     hw  638   4.480   3.236   4.223 -0.2594  0.5860  0.1495
  160SOL     hw  639   4.609   3.228   4.144 -0.7332 -2.8482 -0.4227
  160SOL     vw  640   4.522   3.236   4.147 -0.5567 -0.1361 -0.0212
  161SOL     ow  641   6.285   6.193   7.120 -0.4229  0.3130 -0.9579
  161SOL     hw  642   6.196   6.226   7.108 -0.5509  0.6210  0.7123
  161SOL     hw  643   6.277   6.119   7.180  0.0231 -2.1474 -3.6582
  161SOL     vw  644   6.272   6.188   7.126 -0.3808  0.0288 -1.0939
  162SOL     ow  645   4.953   5.590   6.723 -0.1267 -0.3375  0.5593
  162SOL     hw  646   4.957   5.602   6.628  1.3085 -0.1762  0.6191
  162SOL     hw  647   4.940   5.678   6.758  0.2628 -0.2690  0.5412
  162SOL     vw  648   4.952   5.603   6.715  0.1144 -0.3071  0.5648
  163SOL     ow  649   1.528   1.383   2.055  0.0969  0.3110  0.8211
  163SOL     hw  650   1.543   1.477   2.070  0.5187  0.3253  0.3230
  163SOL     hw  651   1.434   1.372   2.068 -0.3485  1.2150 -1.2922
  163SOL     vw  652   1.518   1.394   2.059  0.0938  0.4323  0.4765
  164SOL     ow  653   5.742   5.569   3.741  0.8644  0.4466  0.4242
  164SOL     hw  654   5.811   5.546   3.804  1.4776  1.9256  0.3327
  164SOL     hw  655   5.758   5.661   3.721 -0.1423  0.3568 -0.8861
  164SOL     vw  656   5.753   5.578   3.747  0.8123  0.6299  0.2393
  165SOL     ow  657   1.524   2.769   6.913 -0.5254  0.5583 -1.1043
  165SOL     hw  658   1.433   2.767   6.884 -0.5867  0.4072 -0.9017
  165SOL     hw  659   1.566   2.697   6.865 -0.6264  0.3098 -0.8232
  165SOL     vw  660   1.518   2.759   6.903 -0.5468  0.5056 -1.0405
  166SOL     ow  661   6.251   3.746   1.172  0.7933 -0.3285 -0.3818
  166SOL     hw  662   6.173   3.730   1.118 -1.1266 -0.0547  2.1079
  166SOL     hw  663   6.277   3.835   1.150 -0.6565  0.1981 -0.0998
  166SOL     vw  664   6.244   3.756   1.162  0.3483 -0.2229 -0.0162
  167SOL     ow  665   6.607   3.451   7.146  0.6008  0.3805  0.1079
  167SOL     hw  666   6.631   3.407   7.064  1.8917  1.1526  0.0337
  167SOL     hw  667   6.630   3.543   7.131 -1.9250  1.0942  0.3028
  167SOL     vw  668   6.613   3.457   7.133  0.4377  0.5766  0.1240
  168SOL     ow  669   3.536   2.892   3.661  0.3385 -0.4268  0.1473
  168SOL     hw  670   3.554   2.902   3.567 -0.3699  0.4645  0.0919
  168SOL     hw  671   3.460   2.833   3.664 -0.3414  0.4315  0.0961
  168SOL     vw  672   3.529   2.885   3.649  0.1552 -0.1959  0.1332
  169SOL     ow  673   1.655   4.353   4.087 -0.1955 -0.8268  0.3274
  169SOL     hw  674   1.732   4.359   4.029 -1.3622 -0.7943 -1.2994
  169SOL     hw  675   1.621   4.442   4.090 -1.0485 -1.1194 -0.2600
  169SOL     vw  676   1.661   4.365   4.080 -0.4619 -0.8609  0.0350
  170SOL     ow  677   1.953   4.496   1.221  0.0763  0.7148 -0.7173
  170SOL     hw  678   1.989   4.451   1.145 -0.3382  0.4177 -0.7420
  170SOL     hw  679   1.956   4.589   1.197 -2.2198  0.5256 -2.1156
  170SOL     vw  680   1.958   4.503   1.208 -0.2814  0.6506 -0.9051
  171SOL     ow  681   4.999   1.103   4.142 -0.7449 -0.3871 -0.4090
  171SOL     hw  682   4.963   1.045   4.075 -2.0762  2.4612 -2.3637
  171SOL     hw  683   4.939   1.178   4.143  0.6202  0.8033  2.2676
  171SOL     vw  684   4.986   1.105   4.133 -0.7403  0.1457 -0.3138
  172SOL     ow  685   0.612   3.114   1.247 -0.1767  0.8112 -0.2145
  172SOL     hw  686   0.678   3.161   1.196  0.5561 -0.8335 -0.8784
  172SOL     hw  687   0.579   3.178   1.309  1.7884  1.8114 -0.1165
  172SOL     vw  688   0.617   3.128   1.248  0.1793  0.7262 -0.2891
  173SOL     ow  689   3.355   3.069   4.093 -0.3545  0.1286  0.1417
  173SOL     hw  690   3.442   3.079   4.132  0.6630  0.3056 -2.0496
  173SOL     hw  691   3.357   2.981   4.055 -1.9519 -0.7317  1.8775
  173SOL     vw  692   3.367   3.058   4.093 -0.4309  0.0385  0.0815
  174SOL     ow  693   0.009   4.829   6.382 -0.0051  0.2675 -0.3283
  174SOL     hw  694  -0.033   4.797   6.302  0.7931  0.1192 -0.6947
  174SOL     hw  695  -0.004   4.759   6.446  0.1235  0.0101 -0.5847
  174SOL     vw  696   0.002   4.815   6.380  0.1171  0.2141 -0.4106
  175SOL     ow  697   4.597   5.002   1.075 -0.2975 -0.6684  0.1110
  175SOL     hw  698   4.604   5.097   1.086  4.5339 -0.6083 -1.0123
  175SOL     hw  699   4.569   4.990   0.984 -0.2835 -0.2888  0.0548
  175SOL     vw  700   4.594   5.013   1.064  0.3419 -0.6106 -0.0446
  176SOL     ow  701   7.059   6.951   5.205  0.0541 -0.1201 -0.0711
  176SOL     hw  702   7.132   6.914   5.255  0.7727  1.7420  0.3543
  176SOL     hw  703   7.042   7.035   5.248 -1.4130  0.1049 -1.0431
  176SOL     vw  704   7.067   6.957   5.217 -0.0448  0.1554 -0.1433
  177SOL     ow  705   3.490   2.197   5.923  0.1287 -0.0930 -0.0370
  177SOL     hw  706   3.512   2.257   5.851  0.4789 -0.3715 -0.1665
  177SOL     hw  707   3.571   2.148   5.938  0.2245  0.3155  0.8935
  177SOL     vw  708   3.504   2.199   5.916  0.1876 -0.0759  0.0687
  178SOL     ow  709   6.190   0.882   3.897  0.2834  0.7294 -0.3285
  178SOL     hw  710   6.217   0.888   3.805  0.7393  0.0546 -0.2548
  178SOL     hw  711   6.248   0.814   3.933 -0.3437  0.5173  0.2866
  178SOL     vw  712   6.202   0.874   3.890  0.2608  0.6124 -0.2377
  179SOL     ow  713   4.973   0.509   3.100  0.2867 -1.0906 -0.2256
  179SOL     hw  714   5.040   0.569   3.132  0.1105 -0.6855 -0.6068
  179SOL     hw  715   4.989   0.503   3.006  0.1862 -1.4980 -0.2193
  179SOL     vw  716   4.984   0.516   3.092  0.2501 -1.0909 -0.2750
  180SOL     ow  717   3.421   5.846   2.438 -0.5538 -0.0068  0.0083
  180SOL     hw  718   3.437   5.783   2.508 -1.8248 -0.2501  0.1004
  180SOL     hw  719   3.394   5.926   2.483  0.1553  0.3378 -0.1533
  180SOL     vw  720   3.420   5.849   2.453 -0.6280  0.0067 -0.0010
  181SOL     ow  721   2.213   3.940   6.148  0.1518 -0.2321 -0.2743
  181SOL     hw  722   2.259   4.024   6.157  1.5222 -1.1286  2.1152
  181SOL     hw  723   2.121   3.963   6.157  0.5582  0.9507  1.4180
  181SOL     vw  724   2.207   3.954   6.150  0.3862 -0.1944  0.2642
  182SOL     ow  725   6.126   5.008   3.493  0.3256  0.8067 -0.6258
  182SOL     hw  726   6.093   5.066   3.562  0.8733  1.7559 -1.1334
  182SOL     hw  727   6.153   5.067   3.423  1.9684  0.0101 -0.7105
  182SOL     vw  728   6.125   5.023   3.493  0.6149  0.8268 -0.7039
  183SOL     ow  729   3.259   6.261   5.554  0.3118 -0.8650  0.0270
  183SOL     hw  730   3.303   6.178   5.574  0.8170 -1.4425 -2.9568
  183SOL     hw  731   3.267   6.269   5.459 -1.1897  1.8197  0.0479
  183SOL     vw  732   3.266   6.251   5.544  0.1802 -0.5870 -0.3641
  184SOL     ow  733   1.604   4.013   3.530 -0.4881 -0.3213 -0.1114
  184SOL     hw  734   1.597   4.102   3.565  0.7276  0.8785 -2.6359
  184SOL     hw  735   1.696   4.004   3.505 -0.9539 -1.6280 -1.5214
  184SOL     vw  736   1.615   4.023   3.532 -0.3892 -0.3352 -0.6305
  185SOL     ow  737   5.731   1.743   6.421  0.3691 -0.2786 -0.0297
  185SOL     hw  738   5.743   1.814   6.357  0.6694 -0.6392 -0.3765
  185SOL     hw  739   5.817   1.702   6.428  0.3640 -0.1778  0.6910
  185SOL     vw  740   5.744   1.747   6.414  0.4082 -0.3129  0.0198
  186SOL     ow  741   2.646   0.489   4.822  0.2075  1.2095  0.2290
  186SOL     hw  742   2.736   0.456   4.813  0.3707  1.8466 -0.6195
  186SOL     hw  743   2.656   0.583   4.834 -0.1689  0.8989  4.2076
  186SOL     vw  744   2.659   0.497   4.822  0.1794  1.2526  0.6418
  187SOL     ow  745   1.930   2.398   6.495  0.7265  0.7893 -0.4128
  187SOL     hw  746   1.916   2.326   6.433 -1.1495  0.2326  0.5696
  187SOL     hw  747   2.018   2.383   6.530  1.0932  0.0538 -1.5766
  187SOL     vw  748   1.940   2.386   6.491  0.5273  0.6189 -0.4368
  188SOL     ow  749   3.376   3.462   6.825 -0.0627 -0.4902  0.1230
  188SOL     hw  750   3.302   3.448   6.766  0.1872 -0.3078 -0.2388
  188SOL     hw  751   3.429   3.382   6.815  0.8030  0.2030 -1.1195
  188SOL     vw  752   3.374   3.449   6.816  0.0846 -0.3746 -0.0887
  189SOL     ow  753   0.042   0.012   3.910  0.1468  0.2114  0.4622
  189SOL     hw  754   0.062   0.044   3.998  1.1647 -1.9154  1.0609
  189SOL     hw  755  -0.016  -0.063   3.924  1.6722 -1.2183 -0.5295
  189SOL     vw  756   0.037   0.006   3.923  0.4824 -0.2577  0.4103
  190SOL     ow  757   4.413   1.336   7.018  0.7645 -1.2009  0.2511
  190SOL     hw  758   4.428   1.243   7.034  0.1255 -1.2714  0.4559
  190SOL     hw  759   4.448   1.380   7.096 -0.1180 -1.3681  0.7476
  190SOL     vw  760   4.420   1.330   7.030  0.5639 -1.2322  0.3438
  191SOL     ow  761   0.018   3.718   6.452  0.5533 -0.0611 -0.1361
  191SOL     hw  762  -0.036   3.682   6.523  0.7171 -0.4235 -0.1940
  191SOL     hw  763  -0.010   3.809   6.446 -3.3907 -1.1815 -3.1789
  191SOL     vw  764   0.007   3.725   6.461  0.0546 -0.2568 -0.5453
  192SOL     ow  765   3.027   7.135   6.545  0.1274 -0.3734  0.2747
  192SOL     hw  766   3.033   7.059   6.603 -0.5948 -0.6385  0.0142
  192SOL     hw  767   2.983   7.102   6.467  1.5710 -0.1539 -0.6654
  192SOL     vw  768   3.022   7.120   6.542  0.2226 -0.3796  0.1166
  193SOL     ow  769   1.653   1.111   0.545 -0.2686 -0.3582 -0.3285
  193SOL     hw  770   1.724   1.050   0.567  2.2942  2.3849 -0.3830
  193SOL     hw  771   1.577   1.077   0.592  1.7977 -1.8562  2.1853
  193SOL     vw  772   1.652   1.098   0.554  0.3422 -0.1940 -0.0040
  194SOL     ow  773   1.403   1.663   1.152 -0.4816  0.1408 -0.3960
  194SOL     hw  774   1.438   1.713   1.078 -0.9986  1.3757  0.1690
  194SOL     hw  775   1.388   1.575   1.116  2.7747 -0.3885 -0.7686
  194SOL     vw  776   1.406   1.658   1.137 -0.1201  0.2338 -0.3706
  195SOL     ow  777   3.166   3.124   5.173  0.7670  0.3305 -0.1169
  195SOL     hw  778   3.089   3.115   5.117  0.5467 -0.1090  0.2505
  195SOL     hw  779   3.193   3.034   5.192  1.5574  0.4863 -0.4972
  195SOL     vw  780   3.159   3.111   5.168  0.8422  0.2930 -0.1185
  196SOL     ow  781   5.792   1.483   1.430 -0.4686 -0.4979 -0.2637
  196SOL     hw  782   5.797   1.507   1.523 -1.0688  1.5240 -0.7152
  196SOL     hw  783   5.815   1.390   1.429  0.9577 -0.2482  1.7469
  196SOL     vw  784   5.796   1.474   1.442 -0.3595 -0.1982 -0.0580
  197SOL     ow  785   5.799   2.676   5.779 -0.2622 -0.1125 -0.5134
  197SOL     hw  786   5.774   2.585   5.797 -1.2012 -0.0685 -1.5505
  197SOL     hw  787   5.760   2.696   5.695  0.8201  0.9312 -0.7987
  197SOL     vw  788   5.791   2.666   5.771 -0.2432  0.0310 -0.6881
  198SOL     ow  789   1.259   6.359   6.051  0.0753  0.1352 -0.3815
  198SOL     hw  790   1.334   6.328   6.001 -0.9197  0.8636 -2.4869
  198SOL     hw  791   1.245   6.449   6.019 -1.4553  0.1314  0.1912
  198SOL     vw  792   1.267   6.367   6.040 -0.2579  0.2308 -0.5836
  199SOL     ow  793   0.057   4.058   4.446  0.2497  0.1465 -0.3682
  199SOL     hw  794   0.123   4.114   4.487  0.9509 -0.1153 -1.1102
  199SOL     hw  795   0.048   4.092   4.357  0.0517 -0.3830 -0.5575
  199SOL     vw  796   0.065   4.070   4.439  0.3161  0.0422 -0.4909
  200SOL     ow  797   2.001   4.266   6.620 -0.4079  0.8502 -1.1152
  200SOL     hw  798   1.937   4.308   6.562 -0.4696  3.6556  0.7409
  200SOL     hw  799   1.949   4.230   6.691 -0.1993 -1.0070 -1.8487
  200SOL     vw  800   1.986   4.267   6.622 -0.3885  0.9754 -0.9673
  201SOL     ow  801   6.195   4.991   6.822  0.3186  0.4782  0.3367
  201SOL     hw  802   6.197   4.930   6.895 -2.5906  1.8988  1.8043
  201SOL     hw  803   6.114   4.970   6.775  1.8788 -0.0770 -2.2775
  201SOL     vw  804   6.185   4.980   6.825  0.1409  0.5925  0.1855
  202SOL     ow  805   4.670   5.687   3.998  0.8077  0.5413  0.4309
  202SOL     hw  806   4.647   5.638   4.077 -1.3672  2.0444  0.8200
  202SOL     hw  807   4.600   5.666   3.936  0.6155  1.9807  0.1199
  202SOL     vw  808   4.658   5.678   4.000  0.4957  0.9296  0.4414
  203SOL     ow  809   4.283   1.090   1.086  0.5857 -1.0178 -0.0181
  203SOL     hw  810   4.305   1.131   1.002  2.0730 -1.5197  0.1031
  203SOL     hw  811   4.245   1.005   1.062 -0.1680 -0.6367 -0.2019
  203SOL     vw  812   4.281   1.084   1.072  0.6826 -1.0337 -0.0264
  204SOL     ow  813   4.930   0.394   5.375 -0.0410  0.4600  0.2824
  204SOL     hw  814   4.844   0.433   5.363  0.3372  0.9713 -0.8647
  204SOL     hw  815   4.987   0.468   5.396  0.4311  0.3659 -0.6191
  204SOL     vw  816   4.926   0.409   5.376  0.0713  0.5150  0.0124
  205SOL     ow  817   3.135   4.709   2.006 -0.1878  0.3503  0.0807
  205SOL     hw  818   3.229   4.724   2.011  0.3256 -1.8846 -1.2632
  205SOL     hw  819   3.108   4.751   1.924  0.2811 -1.5343 -1.0965
  205SOL     vw  820   3.144   4.717   1.995 -0.0583 -0.1931 -0.2519
  206SOL     ow  821   5.756   1.579   7.071 -0.1039  0.2606  0.2243
  206SOL     hw  822   5.785   1.670   7.063  1.3190  0.0602  2.3069
  206SOL     hw  823   5.837   1.529   7.081 -0.9542 -0.9074  1.5816
  206SOL     vw  824   5.771   1.584   7.071 -0.0286  0.0800  0.6778
  207SOL     ow  825   0.282   4.947   1.359  0.3022  0.1262  0.0402
  207SOL     hw  826   0.318   4.996   1.433 -0.8327  0.5259  0.3507
  207SOL     hw  827   0.255   4.863   1.397  0.3430  0.0668 -0.0628
  207SOL     vw  828   0.283   4.942   1.374  0.1578  0.1714  0.0676
  208SOL     ow  829   6.451   2.878   1.676  0.7248  0.2963 -0.0743
  208SOL     hw  830   6.506   2.955   1.665  0.6696  0.4636  0.7332
  208SOL     hw  831   6.441   2.842   1.588  0.9705  1.0581 -0.4200
  208SOL     vw  832   6.457   2.883   1.663  0.7503  0.4190 -0.0134
  209SOL     ow  833   5.843   4.261   4.264  0.4565  0.3949 -0.0056
  209SOL     hw  834   5.924   4.305   4.290  0.7151  0.0739 -0.2594
  209SOL     hw  835   5.813   4.216   4.343  1.1723 -0.4737 -0.2140
  209SOL     vw  836   5.849   4.261   4.278  0.5851  0.2379 -0.0665
  210SOL     ow  837   2.275   1.169   1.513  0.4797 -0.0419  0.5199
  210SOL     hw  838   2.363   1.132   1.506 -0.1970 -1.4402 -1.2159
  210SOL     hw  839   2.281   1.231   1.586  2.1564 -2.2171  2.3568
  210SOL     vw  840   2.287   1.172   1.522  0.6117 -0.5134  0.5332
  211SOL     ow  841   5.353   6.315   0.637 -0.0366  0.3916  0.1942
  211SOL     hw  842   5.287   6.356   0.693  0.2387 -0.1037  0.8897
  211SOL     hw  843   5.306   6.245   0.591 -0.0869  0.2897  0.3990
  211SOL     vw  844   5.338   6.311   0.638 -0.0069  0.3128  0.3130
  212SOL     ow  845   1.797   4.043   5.205 -0.0163  0.4701  0.8545
  212SOL     hw  846   1.893   4.046   5.198 -0.0160 -1.5223 -0.5812
  212SOL     hw  847   1.769   4.132   5.183  1.4099  0.5319 -0.9781
  212SOL     vw  848   1.806   4.055   5.202  0.1719  0.2153  0.4237
  213SOL     ow  849   6.419   3.659   0.043  0.1196 -0.0693  0.4758
  213SOL     hw  850   6.447   3.651   0.135 -0.9802 -2.5245  0.6823
  213SOL     hw  851   6.355   3.729   0.044 -0.0910 -0.2429  1.6669
  213SOL     vw  852   6.415   3.667   0.056 -0.0536 -0.4160  0.6602
  214SOL     ow  853   4.825   4.004   2.675  0.6010  0.3939 -0.1604
  214SOL     hw  854   4.816   3.919   2.633 -2.1233  0.6166 -0.2390
  214SOL     hw  855   4.896   3.993   2.738  1.2002 -1.5167 -1.1108
  214SOL     vw  856   4.833   3.991   2.678  0.3209  0.1712 -0.2962
  215SOL     ow  857   3.422   6.430   5.680  0.3461 -0.0922  0.3792
  215SOL     hw  858   3.359   6.393   5.619 -0.0882 -1.7431  1.7592
  215SOL     hw  859   3.384   6.514   5.706 -1.0330 -0.7992  0.7408
  215SOL     vw  860   3.409   6.437   5.676  0.1067 -0.4034  0.6092
  216SOL     ow  861   3.911   4.209   5.077  0.0390 -0.0769  0.2143
  216SOL     hw  862   3.900   4.181   4.986 -0.5016 -0.8194  0.4960
  216SOL     hw  863   3.823   4.235   5.105  0.5248  2.0261 -0.0482
  216SOL     vw  864   3.898   4.208   5.069  0.0317  0.1025  0.2167
  217SOL     ow  865   1.644   4.586   6.809 -0.2847 -0.1107 -0.4597
  217SOL     hw  866   1.725   4.602   6.760  1.1852  0.4837  1.9609
  217SOL     hw  867   1.639   4.660   6.870 -0.9371 -1.7365  1.5471
  217SOL     vw  868   1.654   4.598   6.811 -0.1768 -0.2470  0.1247
  218SOL     ow  869   6.305   6.514   7.139  0.2168 -0.3006  0.0710
  218SOL     hw  870   6.286   6.544   7.050  0.7057 -3.3586 -1.2139
  218SOL     hw  871   6.272   6.584   7.196 -1.0210  1.3365 -2.4617
  218SOL     vw  872   6.298   6.527   7.135  0.1178 -0.4880 -0.4325
  219SOL     ow  873   3.564   5.844   7.103  0.0420 -0.4954  0.1435
  219SOL     hw  874   3.546   5.933   7.135 -0.9293 -0.5991 -0.0678
  219SOL     hw  875   3.481   5.797   7.118  0.1260 -1.0070 -0.9629
  219SOL     vw  876   3.550   5.849   7.109 -0.0751 -0.5765 -0.0303
  220SOL     ow  877   3.503   6.273   2.844  0.0309  0.4825 -0.1681
  220SOL     hw  878   3.453   6.193   2.856  0.9852  0.0050  0.7031
  220SOL     hw  879   3.582   6.246   2.798  1.1308  0.6068  1.5480
  220SOL     vw  880   3.507   6.259   2.839  0.3018  0.4361  0.1732
  221SOL     ow  881   2.686   7.056   5.558 -0.4702  0.0998 -0.3654
  221SOL     hw  882   2.770   7.055   5.512 -0.7595  0.4281 -0.9147
  221SOL     hw  883   2.709   7.063   5.651  0.1240 -0.6000 -0.4533
  221SOL     vw  884   2.700   7.057   5.564 -0.4299  0.0510 -0.4497
  222SOL     ow  885   2.623   0.256   5.839 -0.3717 -0.1139  0.6148
  222SOL     hw  886   2.599   0.340   5.799  1.5926  0.0908 -0.2416
  222SOL     hw  887   2.646   0.279   5.929  1.1460  0.4846  0.1081
  222SOL     vw  888   2.623   0.270   5.845  0.0877 -0.0079  0.4349
  223SOL     ow  889   0.494   1.994   4.512  0.5252 -0.0423 -0.2218
  223SOL     hw  890   0.426   1.936   4.477 -0.6049 -0.1823  2.0426
  223SOL     hw  891   0.556   2.003   4.440 -0.7067 -1.7700 -1.6043
  223SOL     vw  892   0.493   1.987   4.498  0.2136 -0.2888 -0.1054
  224SOL     ow  893   6.893   0.556   2.632 -0.3876  0.0573  0.6774
  224SOL     hw  894   6.813   0.561   2.580  0.9298 -0.3940 -1.5684
  224SOL     hw  895   6.907   0.463   2.646  2.2516 -0.3930 -3.4162
  224SOL     vw  896   6.884   0.545   2.627  0.1347 -0.0616 -0.1593
  225SOL     ow  897   3.305   6.287   4.261  0.4737 -0.0789  0.3178
  225SOL     hw  898   3.252   6.248   4.330  0.9439  2.3728  2.2326
  225SOL     hw  899   3.276   6.378   4.257  2.1643  0.4620 -0.9878
  225SOL     vw  900   3.294   6.294   4.270  0.7588  0.3159  0.3982
  226SOL     ow  901   7.229   0.275   3.294 -0.5243  0.0355  0.2725
  226SOL     hw  902   7.135   0.291   3.283 -0.3957  0.8585  0.2678
  226SOL     hw  903   7.259   0.250   3.207 -0.6729  0.1446  0.1890
  226SOL     vw  904   7.221   0.274   3.281 -0.5267  0.1585  0.2607
  227SOL     ow  905   3.920   2.631   7.084 -0.0091 -0.0195 -0.1716
  227SOL     hw  906   3.902   2.539   7.100  0.8311 -0.0295  0.9041
  227SOL     hw  907   3.978   2.632   7.008 -0.4409 -0.3259 -0.5110
  227SOL     vw  908   3.925   2.619   7.076  0.0447 -0.0612 -0.0746
  228SOL     ow  909   2.187   7.006   6.951  0.0603 -0.4041 -0.2555
  228SOL     hw  910   2.197   7.078   7.013 -0.7609 -0.2899 -0.2486
  228SOL     hw  911   2.271   6.961   6.953  0.5321  0.4582 -0.1434
  228SOL     vw  912   2.199   7.010   6.959  0.0142 -0.2754 -0.2398
  229SOL     ow  913   5.318   1.717   6.337 -0.0783  0.4033  0.1725
  229SOL     hw  914   5.262   1.738   6.262  0.0259 -0.4374 -0.1533
  229SOL     hw  915   5.314   1.795   6.392 -1.7810  0.2869  0.2883
  229SOL     vw  916   5.310   1.730   6.334 -0.2894  0.2770  0.1450
  230SOL     ow  917   6.085   0.845   6.216 -0.1756 -0.7406  0.0871
  230SOL     hw  918   6.173   0.810   6.228  0.1561 -0.0245 -0.2359
  230SOL     hw  919   6.097   0.939   6.203 -1.1039 -0.3747  1.5579
  230SOL     vw  920   6.098   0.853   6.216 -0.2546 -0.5979  0.2387
  231SOL     ow  921   2.244   4.936   1.529  0.0430 -0.0153 -0.0456
  231SOL     hw  922   2.296   4.920   1.607  2.3530 -1.0077 -1.6686
  231SOL     hw  923   2.235   5.032   1.525  1.9136  0.1999  0.2193
  231SOL     vw  924   2.249   4.947   1.539  0.5946 -0.1178 -0.2248
  232SOL     ow  925   5.608   6.716   6.981 -0.2026 -0.0583  0.2946
  232SOL     hw  926   5.646   6.698   7.067  2.6718 -0.5498 -0.9531
  232SOL     hw  927   5.570   6.804   6.990  0.9142  0.3181  1.7964
  232SOL     vw  928   5.608   6.725   6.994  0.3238 -0.0734  0.3281
  233SOL     ow  929   3.106   2.805   2.113 -0.4699 -0.2900 -0.6400
  233SOL     hw  930   3.178   2.749   2.142  0.1011  1.0199  0.5875
  233SOL     hw  931   3.071   2.761   2.035  1.6978 -0.9232 -1.3149
  233SOL     vw  932   3.111   2.792   2.106 -0.1086 -0.2006 -0.5671
  234SOL     ow  933   3.826   2.905   3.737 -0.1601  0.4239 -0.1180
  234SOL     hw  934   3.835   2.816   3.772  0.7097  1.2198  1.8700
  234SOL     hw  935   3.915   2.932   3.717  0.0777  1.9554  2.4704
  234SOL     vw  936   3.839   2.896   3.739 -0.0139  0.7310  0.4858
  235SOL     ow  937   2.142   0.761   2.143  0.3760  0.2148  0.7176
  235SOL     hw  938   2.167   0.850   2.168 -0.4444  1.0758 -1.2950
  235SOL     hw  939   2.064   0.743   2.195 -0.5828  1.4686 -0.2116
  235SOL     vw  940   2.135   0.771   2.153  0.1414  0.4938  0.3295
  236SOL     ow  941   3.310   1.782   1.107 -0.1219  0.3447 -0.3964
  236SOL     hw  942   3.324   1.755   1.198  0.6461  0.1920 -0.5594
  236SOL     hw  943   3.366   1.724   1.056 -3.0730 -1.9559 -1.2974
  236SOL     vw  944   3.319   1.771   1.112 -0.4101  0.0210 -0.5368
  237SOL     ow  945   1.798   5.979   1.088  0.1311 -0.0872  0.2461
  237SOL     hw  946   1.737   5.995   1.161 -0.0758  2.7326 -0.4338
  237SOL     hw  947   1.883   5.971   1.130  0.0608  1.8523  0.8399
  237SOL     vw  948   1.801   5.980   1.103  0.0946  0.5405  0.2348
  238SOL     ow  949   2.825   5.626   3.247 -0.3615 -0.2765 -0.6015
  238SOL     hw  950   2.808   5.537   3.216 -1.8333 -0.1499 -0.2199
  238SOL     hw  951   2.910   5.621   3.290  0.7383 -0.9380 -2.7243
  238SOL     vw  952   2.834   5.614   3.248 -0.4104 -0.3471 -0.8311
  239SOL     ow  953   4.911   0.157   5.499  0.5705  0.5480 -0.2522
  239SOL     hw  954   4.983   0.097   5.482 -0.1675 -0.5704  0.4406
  239SOL     hw  955   4.937   0.239   5.457  2.6251  0.4287  0.6701
  239SOL     vw  956   4.924   0.160   5.491  0.7441  0.3847 -0.0391
  240SOL     ow  957   0.298   6.930   4.257  0.1955  0.2357 -0.1378
  240SOL     hw  958   0.307   6.845   4.301  0.3211  0.0248 -0.5687
  240SOL     hw  959   0.358   6.988   4.304 -0.7342  0.3928  0.9102
  240SOL     vw  960   0.307   6.926   4.269  0.0894  0.2284 -0.0563
  241SOL     ow  961   3.642   4.492   0.533 -0.0085  0.3439 -0.5264
  241SOL     hw  962   3.598   4.575   0.514 -1.0089 -0.1314 -0.3829
  241SOL     hw  963   3.715   4.488   0.472  0.4755  1.6571 -0.0568
  241SOL     vw  964   3.646   4.503   0.523 -0.0765  0.4544 -0.4455
  242SOL     ow  965   1.564   3.397   2.924  0.2458  0.4212 -0.3660
  242SOL     hw  966   1.643   3.342   2.921  1.0799  1.5390  0.2828
  242SOL     hw  967   1.491   3.335   2.920  1.1523 -0.6435 -0.8759
  242SOL     vw  968   1.565   3.381   2.923  0.4755  0.4281 -0.3477
  243SOL     ow  969   2.378   3.005   5.710  0.5320 -0.5931  0.0158
  243SOL     hw  970   2.452   3.066   5.712  1.3519 -1.4609 -1.6779
  243SOL     hw  971   2.339   3.018   5.623  0.2336 -1.8984 -0.0622
  243SOL     vw  972   2.383   3.015   5.699  0.6008 -0.8799 -0.2182
  244SOL     ow  973   5.838   0.513   6.144 -0.0033  0.1387  0.2599
  244SOL     hw  974   5.770   0.455   6.110 -0.7845  1.4706 -0.5140
  244SOL     hw  975   5.857   0.479   6.231 -0.1053 -1.5491 -0.3363
  244SOL     vw  976   5.832   0.501   6.151 -0.1197  0.0917  0.0792
  245SOL     ow  977   1.513   4.831   1.137 -0.1932  0.3369  0.1228
  245SOL     hw  978   1.533   4.749   1.182  1.9405  0.6658 -0.1529
  245SOL     hw  979   1.437   4.810   1.083  0.0139 -1.3266  0.4118
  245SOL     vw  980   1.505   4.817   1.136  0.1156  0.1607  0.1246
  246SOL     ow  981   0.211   5.702   1.296  0.6645  0.3551 -1.3819
  246SOL     hw  982   0.246   5.672   1.380 -0.1660 -2.9889 -2.0905
  246SOL     hw  983   0.285   5.693   1.236  0.5437  0.1955 -1.5067
  246SOL     vw  984   0.226   5.697   1.299  0.5390 -0.1070 -1.4918
  247SOL     ow  985   1.404   6.337   7.187  0.1619 -0.2949  0.1537
  247SOL     hw  986   1.379   6.315   7.277  2.6097  0.2949  1.0599
  247SOL     hw  987   1.392   6.256   7.138 -3.2683 -0.1161  0.4033
  247SOL     vw  988   1.399   6.323   7.192  0.0322 -0.1934  0.3062
  248SOL     ow  989   7.221   5.037   5.724  0.1873  0.4361  0.4438
  248SOL     hw  990   7.137   5.058   5.764 -0.0200  1.3252 -0.4334
  248SOL     hw  991   7.246   5.116   5.677  0.2699 -0.6597 -1.4574
  248SOL     vw  992   7.213   5.050   5.723  0.1707  0.4089  0.0775
  249SOL     ow  993   4.596   6.396   0.011  0.2341  0.0194 -0.4105
  249SOL     hw  994   4.610   6.483   0.047 -2.4231  0.2577  0.2731
  249SOL     hw  995   4.609   6.337   0.085  1.1325 -0.1184 -0.6611
  249SOL     vw  996   4.600   6.400   0.025  0.0019  0.0327 -0.3534
  250SOL     ow  997   5.191   2.000   3.514 -0.0849 -0.4560  0.6489
  250SOL     hw  998   5.276   2.018   3.475 -0.7234 -0.0594 -0.6349
  250SOL     hw  999   5.140   2.079   3.497 -0.7962 -0.7989  1.1457
  250SOL     vw 1000   5.195   2.013   3.506 -0.2630 -0.4488  0.5450
  251SOL     ow 1001   5.494   5.767   1.293  0.1487 -0.9168  0.1470
  251SOL     hw 1002   5.547   5.789   1.217 -0.9749  0.2546 -0.3326
  251SOL     hw 1003   5.547   5.705   1.342  1.5027 -0.5826 -0.8445
  251SOL     vw 1004   5.508   5.762   1.289  0.1793 -0.7181 -0.0471
  252SOL     ow 1005   5.430   1.990   2.423  0.8336 -0.0778  0.5469
  252SOL     hw 1006   5.476   2.022   2.346  0.3308  1.9537  1.0220
  252SOL     hw 1007   5.497   1.990   2.492  0.9986 -0.7381  0.3898
  252SOL     vw 1008   5.445   1.994   2.422  0.7889  0.1031  0.5889
  253SOL     ow 1009   5.621   2.397   1.905  0.6130 -0.1620  0.4404
  253SOL     hw 1010   5.572   2.443   1.837  0.2308  1.7846  1.9459
  253SOL     hw 1011   5.583   2.309   1.906 -1.4133  0.6390  0.0826
  253SOL     vw 1012   5.609   2.391   1.896  0.2952  0.2006  0.5918
  254SOL     ow 1013   4.347   1.175   5.349  0.5680 -0.2715  0.8449
  254SOL     hw 1014   4.365   1.095   5.398  0.2561 -1.1855 -0.4752
  254SOL     hw 1015   4.376   1.156   5.260 -1.5884  0.2574 -0.0377
  254SOL     vw 1016   4.354   1.162   5.344  0.2422 -0.3223  0.5546
  255SOL     ow 1017   5.536   0.886   2.662  0.3930 -0.4909  0.7381
  255SOL     hw 1018   5.533   0.957   2.597  1.1895 -0.2154  0.9958
  255SOL     hw 1019   5.542   0.806   2.609 -1.6848 -0.4856  0.4078
  255SOL     vw 1020   5.536   0.885   2.646  0.2239 -0.4539  0.7285
  256SOL     ow 1021   7.026   2.644   2.509  0.1042 -0.5088 -0.3981
  256SOL     hw 1022   7.118   2.671   2.503 -0.4874  1.6993 -0.3258
  256SOL     hw 1023   7.003   2.656   2.601 -0.2525 -1.1461 -0.3959
  256SOL     vw 1024   7.035   2.649   2.520 -0.0205 -0.3015 -0.3884
  257SOL     ow 1025   3.563   4.225   0.700  0.5394 -0.1732  0.0423
  257SOL     hw 1026   3.611   4.147   0.670 -0.2118 -0.6042 -0.0562
  257SOL     hw 1027   3.535   4.202   0.789  0.9264  0.2681  0.2811
  257SOL     vw 1028   3.566   4.211   0.708  0.4913 -0.1721  0.0607
  258SOL     ow 1029   2.792   5.797   4.838  0.0272 -0.1214  0.7692
  258SOL     hw 1030   2.709   5.776   4.880 -0.9264  1.4466 -0.2404
  258SOL     hw 1031   2.787   5.891   4.819  1.4644 -0.2645 -0.5263
  258SOL     vw 1032   2.781   5.807   4.841  0.0910  0.0665  0.4652
  259SOL     ow 1033   6.732   6.960   0.159 -0.6019 -0.0699  1.0068
  259SOL     hw 1034   6.822   6.928   0.158 -0.6627 -0.3181 -1.3351
  259SOL     hw 1035   6.685   6.897   0.213 -0.2140 -2.6445 -1.4556
  259SOL     vw 1036   6.738   6.948   0.166 -0.5584 -0.4423  0.3729
  260SOL     ow 1037   2.966   2.059   6.491  0.3041  0.2875  0.0226
  260SOL     hw 1038   2.910   2.066   6.569 -0.1371  0.1060 -0.2731
  260SOL     hw 1039   2.905   2.064   6.417  0.7021  0.2965 -0.3102
  260SOL     vw 1040   2.950   2.060   6.491  0.2984  0.2648 -0.0601
  261SOL     ow 1041   5.149   1.435   5.992 -0.8431  0.0487  0.1238
  261SOL     hw 1042   5.120   1.396   6.075 -0.2107  1.4217  1.0410
  261SOL     hw 1043   5.103   1.519   5.988 -1.9634 -0.5962 -1.6639
  261SOL     vw 1044   5.139   1.441   6.003 -0.9074  0.1448  0.0088
  262SOL     ow 1045   2.629   0.903   3.781  0.2690  0.2132 -0.5115
  262SOL     hw 1046   2.600   0.931   3.694  0.7295 -2.2059 -1.5380
  262SOL     hw 1047   2.556   0.851   3.816  1.0113 -0.9278 -0.5809
  262SOL     vw 1048   2.616   0.899   3.774  0.4276 -0.2565 -0.6561
  263SOL     ow 1049   6.716   3.307   6.487 -0.8053 -0.1529  0.9337
  263SOL     hw 1050   6.791   3.264   6.526 -0.4936  0.2885  0.8345
  263SOL     hw 1051   6.641   3.255   6.515 -0.4218 -0.8943  0.6186
  263SOL     vw 1052   6.716   3.295   6.496 -0.7138 -0.1924  0.8790
  264SOL     ow 1053   1.361   4.598   5.676 -0.1012  0.7764  0.5864
  264SOL     hw 1054   1.267   4.590   5.666 -0.2257 -0.0900  2.1773
  264SOL     hw 1055   1.389   4.517   5.719  1.2480  1.3408  0.8469
  264SOL     vw 1056   1.352   4.587   5.680  0.0604  0.7367  0.8309
  265SOL     ow 1057   0.483   6.045   4.755 -0.0407 -0.2983 -0.3967
  265SOL     hw 1058   0.412   5.994   4.794  0.1353 -0.7139 -0.6128
  265SOL     hw 1059   0.469   6.134   4.787 -1.0078 -0.2548 -0.9248
  265SOL     vw 1060   0.472   6.050   4.764 -0.1451 -0.3476 -0.4952
  266SOL     ow 1061   1.709   1.313   5.493 -0.3454 -0.2677 -0.1895
  266SOL     hw 1062   1.725   1.264   5.574 -0.1781 -1.4216 -0.8954
  266SOL     hw 1063   1.766   1.389   5.499  0.3229 -0.8006  0.3944
  266SOL     vw 1064   1.718   1.317   5.504 -0.2351 -0.4902 -0.2058
  267SOL     ow 1065   4.574   5.601   6.385 -0.2046  0.3570 -0.1677
  267SOL     hw 1066   4.630   5.675   6.409  0.9121 -0.2520 -0.8314
  267SOL     hw 1067   4.510   5.639   6.325 -1.3860  1.3363  1.6119
  267SOL     vw 1068   4.573   5.616   6.380 -0.2134  0.4058 -0.0205
  268SOL     ow 1069   4.991   0.034   3.196  0.3466 -0.1883  0.0821
  268SOL     hw 1070   5.072   0.039   3.145 -0.7404 -0.5929 -1.8012
  268SOL     hw 1071   4.939   0.109   3.166  0.8917  1.5277  3.0314
  268SOL     vw 1072   4.995   0.045   3.185  0.2749 -0.0153  0.2229
  269SOL     ow 1073   0.074   3.640   0.584 -0.4192 -0.2462 -0.2306
  269SOL     hw 1074   0.064   3.644   0.489  2.1531  0.4365 -0.5408
  269SOL     hw 1075   0.057   3.548   0.606 -1.2282 -0.3749 -1.2916
  269SOL     vw 1076   0.070   3.628   0.574 -0.1865 -0.1731 -0.4115
  270SOL     ow 1077   6.419   6.900   2.208 -0.1610 -0.3435 -0.5019
  270SOL     hw 1078   6.397   6.991   2.189 -0.8718 -0.0864  1.3333
  270SOL     hw 1079   6.366   6.848   2.148 -0.6483  0.4309 -0.7431
  270SOL     vw 1080   6.409   6.905   2.198 -0.3192 -0.2077 -0.2916
  271SOL     ow 1081   4.614   5.647   2.799  0.0985 -0.2331 -0.1208
  271SOL     hw 1082   4.666   5.650   2.719 -0.8992  0.1731 -0.7667
  271SOL     hw 1083   4.525   5.671   2.772 -0.3670 -0.5856  1.0150
  271SOL     vw 1084   4.609   5.651   2.785 -0.0944 -0.2258 -0.0561
  272SOL     ow 1085   6.952   2.879   2.420 -1.1059  0.0615  0.0896
  272SOL     hw 1086   6.961   2.793   2.461 -0.2532  0.2402  0.2962
  272SOL     hw 1087   6.904   2.862   2.339 -2.5151 -0.3396  0.9818
  272SOL     vw 1088   6.947   2.865   2.415 -1.1792  0.0322  0.2345
  273SOL     ow 1089   4.527   4.873   6.465  0.1056  0.1376 -0.3770
  273SOL     hw 1090   4.533   4.869   6.560  0.5150  1.1426 -0.3511
  273SOL     hw 1091   4.614   4.847   6.434 -0.8502 -3.2395 -0.6183
  273SOL     vw 1092   4.540   4.869   6.473  0.0334 -0.1752 -0.4051
  274SOL     ow 1093   1.084   0.879   6.888  0.1502  0.2395 -0.0354
  274SOL     hw 1094   1.098   0.945   6.956  0.5788 -0.1152  0.2335
  274SOL     hw 1095   1.054   0.802   6.936  1.6783 -0.4227 -0.0695
  274SOL     vw 1096   1.082   0.877   6.903  0.4084  0.1054 -0.0045
  275SOL     ow 1097   3.774   7.176   0.709  0.1719 -0.4362  0.0524
  275SOL     hw 1098   3.767   7.144   0.619  0.9485 -1.5827  0.3753
  275SOL     hw 1099   3.738   7.265   0.706  0.7770 -0.2154 -1.5228
  275SOL     vw 1100   3.768   7.184   0.696  0.3543 -0.5586 -0.1128
  276SOL     ow 1101   6.296   7.180   1.268  0.2860  0.3666 -0.8419
  276SOL     hw 1102   6.326   7.102   1.313 -0.4021  0.4550 -0.1972
  276SOL     hw 1103   6.289   7.154   1.176 -1.2737 -0.7626 -0.4433
  276SOL     vw 1104   6.299   7.167   1.262 -0.0105  0.2294 -0.7042
  277SOL     ow 1105   3.905   5.795   4.705  0.7939  0.7345  0.0415
  277SOL     hw 1106   3.939   5.872   4.659  0.6750  0.9497  0.3045
  277SOL     hw 1107   3.861   5.832   4.782  0.2148  0.4467 -0.1419
  277SOL     vw 1108   3.903   5.810   4.709  0.7019  0.7250  0.0520
  278SOL     ow 1109   2.880   1.146   1.066 -0.0030 -0.7273 -0.0067
  278SOL     hw 1110   2.896   1.080   1.133 -0.7868 -0.2315  0.6951
  278SOL     hw 1111   2.952   1.208   1.075  0.1836 -0.9456  0.0107
  278SOL     vw 1112   2.892   1.145   1.076 -0.0820 -0.6906  0.0883
  279SOL     ow 1113   3.566   5.782   6.365  0.0274  0.4457 -0.8179
  279SOL     hw 1114   3.606   5.787   6.452 -1.2107  0.1798 -0.2082
  279SOL     hw 1115   3.630   5.735   6.311 -0.5355 -2.5330  0.8433
  279SOL     vw 1116   3.579   5.776   6.369 -0.2103  0.0176 -0.5181
  280SOL     ow 1117   3.697   2.993   0.983 -0.6192  0.0221 -0.4910
  280SOL     hw 1118   3.721   2.944   0.904  1.0619  2.0598 -1.3609
  280SOL     hw 1119   3.718   2.934   1.055  1.3185 -0.6096 -1.4819
  280SOL     vw 1120   3.703   2.979   0.982 -0.1417  0.2077 -0.7365
  281SOL     ow 1121   4.480   1.569   6.796  0.0413 -0.8435  0.4821
  281SOL     hw 1122   4.551   1.565   6.732  0.1565 -0.0412  0.5495
  281SOL     hw 1123   4.504   1.641   6.854 -0.9398 -0.3986  0.3556
  281SOL     vw 1124   4.493   1.578   6.795 -0.0727 -0.6790  0.4745
  282SOL     ow 1125   4.518   1.148   1.276 -0.3407  0.2528 -0.1498
  282SOL     hw 1126   4.544   1.234   1.245 -0.6216  1.1636  1.9855
  282SOL     hw 1127   4.574   1.132   1.352  0.2795 -1.8377 -0.9558
  282SOL     vw 1128   4.529   1.157   1.282 -0.2959  0.0971  0.0256
  283SOL     ow 1129   1.564   5.587   0.289 -0.1835 -0.0270  0.4949
  283SOL     hw 1130   1.598   5.632   0.366  1.8579  0.5354 -0.6713
  283SOL     hw 1131   1.607   5.501   0.290 -0.9828 -0.4466  0.5275
  283SOL     vw 1132   1.574   5.581   0.300 -0.0196 -0.0083  0.3453
  284SOL     ow 1133   3.294   5.814   5.038  0.2363  0.5756 -0.0534
  284SOL     hw 1134   3.381   5.852   5.048 -0.1593  2.3811 -2.4669
  284SOL     hw 1135   3.238   5.887   5.014 -1.8092 -0.6822  0.5997
  284SOL     vw 1136   3.299   5.828   5.036 -0.0857  0.6483 -0.2856
  285SOL     ow 1137   5.149   3.580   0.889 -0.4047  0.4156 -0.2640
  285SOL     hw 1138   5.123   3.612   0.803 -3.7635 -2.5778 -0.6385
  285SOL     hw 1139   5.175   3.489   0.874  0.4518  0.2781  1.7156
  285SOL     vw 1140   5.149   3.572   0.876 -0.7350  0.0025 -0.0522
  286SOL     ow 1141   1.880   1.091   5.617 -0.3308 -0.0410  0.4236
  286SOL     hw 1142   1.811   1.034   5.650 -0.2948  0.1245  0.8018
  286SOL     hw 1143   1.869   1.092   5.522 -1.4810  0.7912  0.5479
  286SOL     vw 1144   1.870   1.084   5.609 -0.4778  0.0906  0.4902
  287SOL     ow 1145   0.007   4.574   6.232  0.0943 -0.2112  0.2502
  287SOL     hw 1146   0.101   4.579   6.214 -0.4641  0.5030 -3.2537
  287SOL     hw 1147  -0.005   4.487   6.270  2.1013 -0.5702  0.1796
  287SOL     vw 1148   0.018   4.563   6.234  0.2854 -0.1640 -0.2215
  288SOL     ow 1149   6.302   0.070   1.530 -0.5682  0.6713 -0.4355
  288SOL     hw 1150   6.287   0.112   1.615 -0.2437  1.2555 -0.6612
  288SOL     hw 1151   6.375   0.009   1.546 -0.1976  1.1205 -0.4031
  288SOL     vw 1152   6.309   0.067   1.543 -0.4764  0.8076 -0.4610
  289SOL     ow 1153   1.582   3.835   6.379  0.5127  0.2619  0.0520
  289SOL     hw 1154   1.655   3.779   6.350 -0.3484 -1.6057  1.2515
  289SOL     hw 1155   1.620   3.891   6.446  1.5581  1.6807 -1.6525
  289SOL     vw 1156   1.597   3.835   6.384  0.5370  0.2027 -0.0143
  290SOL     ow 1157   6.961   5.642   2.742  0.0229  0.1384  0.6629
  290SOL     hw 1158   6.910   5.705   2.793  0.0370 -0.2369  1.1474
  290SOL     hw 1159   7.049   5.679   2.739  0.1294 -0.0595  1.3000
  290SOL     vw 1160   6.966   5.655   2.748  0.0389  0.0629  0.8110
  291SOL     ow 1161   2.346   0.940   4.463  0.5033  0.4551  0.6195
  291SOL     hw 1162   2.405   0.874   4.501 -0.2568  0.1435  1.2895
  291SOL     hw 1163   2.258   0.909   4.486  0.1228  1.5385  0.6679
  291SOL     vw 1164   2.342   0.927   4.471  0.3530  0.5570  0.7143
  292SOL     ow 1165   3.282   6.752   2.176 -0.0448  0.9511  0.4889
  292SOL     hw 1166   3.351   6.712   2.228  0.3685  0.2673 -0.5534
  292SOL     hw 1167   3.324   6.826   2.133 -0.5761  1.9851  1.6858
  292SOL     vw 1168   3.297   6.756   2.177 -0.0602  0.9971  0.5093
  293SOL     ow 1169   0.258   6.731   2.861 -0.0902  0.0918  0.3087
  293SOL     hw 1170   0.352   6.719   2.848 -0.2106  0.3879 -0.9943
  293SOL     hw 1171   0.243   6.704   2.952  1.3017  0.3817  0.6592
  293SOL     vw 1172   0.269   6.726   2.871  0.0775  0.1690  0.1831
  294SOL     ow 1173   5.673   6.431   6.853 -0.0624 -0.2982  0.6484
  294SOL     hw 1174   5.734   6.484   6.800  0.7653 -0.0488  1.8022
  294SOL     hw 1175   5.702   6.341   6.839 -0.3160 -0.3027  0.1119
  294SOL     vw 1176   5.685   6.426   6.844  0.0134 -0.2661  0.7300
  295SOL     ow 1177   5.326   4.516   3.435 -0.1339 -0.0276  0.6081
  295SOL     hw 1178   5.259   4.469   3.484 -0.4585  1.3471  1.5301
  295SOL     hw 1179   5.341   4.462   3.358 -1.0570 -1.2302  1.2298
  295SOL     vw 1180   5.319   4.503   3.431 -0.2985 -0.0048  0.8118
  296SOL     ow 1181   2.587   0.574   4.392  0.0629 -0.0728  0.3713
  296SOL     hw 1182   2.642   0.635   4.342 -0.9973  0.3495 -0.3387
  296SOL     hw 1183   2.558   0.625   4.468  0.7362 -0.3374  0.8151
  296SOL     vw 1184   2.590   0.589   4.395  0.0119 -0.0520  0.3362
  297SOL     ow 1185   5.126   4.410   6.684 -0.4186 -0.2630 -0.1021
  297SOL     hw 1186   5.179   4.476   6.728 -0.7140 -0.3130  0.3375
  297SOL     hw 1187   5.048   4.402   6.738  0.4363 -2.3336  0.9309
  297SOL     vw 1188   5.123   4.417   6.697 -0.3448 -0.5429  0.0923
  298SOL     ow 1189   1.669   3.644   0.585  0.4008  0.3277  0.4446
  298SOL     hw 1190   1.627   3.726   0.560  2.4255  2.1755  2.5884
  298SOL     hw 1191   1.650   3.584   0.513  0.8992  3.3881 -2.5047
  298SOL     vw 1192   1.661   3.647   0.572  0.7336  0.9753  0.3384
  299SOL     ow 1193   2.805   0.043   6.258 -0.3464  0.6578 -0.5934
  299SOL     hw 1194   2.864  -0.025   6.291 -2.0298  0.1975  1.6542
  299SOL     hw 1195   2.730  -0.006   6.222 -1.6164  1.2373  1.1276
  299SOL     vw 1196   2.803   0.027   6.257 -0.7361  0.6736 -0.0699
  300SOL     ow 1197   3.487   2.148   5.525 -0.2657 -0.0344  0.3445
  300SOL     hw 1198   3.553   2.187   5.468 -1.0364  0.0347 -0.5117
  300SOL     hw 1199   3.440   2.087   5.469 -0.3926 -0.7092  1.1626
  300SOL     vw 1200   3.490   2.145   5.510 -0.3841 -0.1142  0.3395
  301SOL     ow 1201   3.923   6.376   5.474  0.3805 -0.4501  0.1658
  301SOL     hw 1202   4.000   6.391   5.529  1.0910 -1.5673 -0.4844
  301SOL     hw 1203   3.957   6.373   5.385 -0.5593 -0.0263 -0.2243
  301SOL     vw 1204   3.937   6.378   5.469  0.3502 -0.5414  0.0284
  302SOL     ow 1205   6.382   1.084   7.093  0.0929  0.1493 -0.0739
  302SOL     hw 1206   6.401   0.991   7.077 -1.1546 -0.3179  0.9653
  302SOL     hw 1207   6.466   1.128   7.076  0.5582 -1.0728 -1.1680
  302SOL     vw 1208   6.396   1.077   7.089 -0.0105 -0.0736 -0.0808
  303SOL     ow 1209   5.895   0.883   0.036  0.3061 -0.1683 -0.2614
  303SOL     hw 1210   5.961   0.890  -0.033  0.4877 -0.2916 -0.0991
  303SOL     hw 1211   5.819   0.844  -0.008  0.4045 -0.2010 -0.4036
  303SOL     vw 1212   5.893   0.879   0.021  0.3428 -0.1888 -0.2587
  304SOL     ow 1213   1.291   1.601   3.278  0.3942 -0.4642 -0.3011
  304SOL     hw 1214   1.378   1.587   3.315 -0.1608  1.8704  2.1400
  304SOL     hw 1215   1.294   1.557   3.193  4.4488  0.8350 -1.0277
  304SOL     vw 1216   1.303   1.593   3.272  0.8559  0.0152 -0.0750
  305SOL     ow 1217   5.869   0.877   6.402 -0.2940 -0.5074  0.1509
  305SOL     hw 1218   5.797   0.888   6.464 -1.3562 -0.5615 -1.0441
  305SOL     hw 1219   5.829   0.884   6.315  1.3406  0.9449 -0.5797
  305SOL     vw 1220   5.855   0.880   6.399 -0.2186 -0.3230 -0.1032
  306SOL     ow 1221   7.141   2.603   1.246 -0.0733 -0.3386 -0.4919
  306SOL     hw 1222   7.231   2.626   1.270 -0.4433 -0.1356  0.8169
  306SOL     hw 1223   7.104   2.564   1.326 -0.7843 -1.5368 -1.3675
  306SOL     vw 1224   7.148   2.600   1.260 -0.2158 -0.4700 -0.4348
  307SOL     ow 1225   1.293   0.926   3.160  0.3558 -0.1847 -0.5088
  307SOL     hw 1226   1.259   0.937   3.248  1.6789 -1.6495  0.2456
  307SOL     hw 1227   1.278   1.010   3.117 -1.8803  0.0030  0.5346
  307SOL     vw 1228   1.287   0.938   3.166  0.2354 -0.3532 -0.2716
  308SOL     ow 1229   5.864   5.261   5.365  0.3839 -0.4741 -0.3047
  308SOL     hw 1230   5.843   5.319   5.292 -0.3732  1.1997  1.1479
  308SOL     hw 1231   5.781   5.252   5.413  0.5805 -2.4730 -0.2482
  308SOL     vw 1232   5.850   5.267   5.362  0.3099 -0.5171 -0.1056
  309SOL     ow 1233   7.120   1.267   4.910 -0.0703 -0.1913 -0.0502
  309SOL     hw 1234   7.064   1.214   4.854  1.4850 -2.4270  0.3680
  309SOL     hw 1235   7.139   1.345   4.857 -1.3844 -0.6144 -1.2274
  309SOL     vw 1236   7.115   1.270   4.895 -0.0384 -0.5422 -0.1507
  310SOL     ow 1237   3.022   0.910   2.594  0.1240 -0.4278  0.3701
  310SOL     hw 1238   3.072   0.974   2.544 -0.6480 -0.4255 -0.4312
  310SOL     hw 1239   2.967   0.963   2.653 -0.6962 -0.3157 -0.4659
  310SOL     vw 1240   3.021   0.926   2.595 -0.0859 -0.4127  0.1540
  311SOL     ow 1241   3.784   2.166   3.786  0.0844  0.3777 -0.4135
  311SOL     hw 1242   3.876   2.165   3.760  0.3497  1.1363  0.4205
  311SOL     hw 1243   3.737   2.197   3.709  0.4304 -0.6529 -1.0686
  311SOL     vw 1244   3.790   2.170   3.773  0.1651  0.3418 -0.3899
  312SOL     ow 1245   0.140   5.521   3.722 -0.1682  0.6340 -0.0374
  312SOL     hw 1246   0.076   5.467   3.768 -2.4526  1.3827 -2.0873
  312SOL     hw 1247   0.178   5.577   3.790 -2.2719  0.6860  1.1901
  312SOL     vw 1248   0.136   5.521   3.737 -0.7472  0.7398 -0.1459
  313SOL     ow 1249   3.795   1.907   2.114 -0.3151  0.0238 -0.1195
  313SOL     hw 1250   3.842   1.838   2.161 -0.6176  0.2778  0.5715
  313SOL     hw 1251   3.772   1.971   2.182 -0.6022  0.4910 -0.6446
  313SOL     vw 1252   3.798   1.906   2.129 -0.3928  0.1190 -0.0976
  314SOL     ow 1253   5.527   2.736   2.543  0.8206 -0.5153 -0.0078
  314SOL     hw 1254   5.515   2.831   2.545  2.9743 -0.1673  2.5727
  314SOL     hw 1255   5.610   2.723   2.497  2.2683 -0.7342  2.4449
  314SOL     vw 1256   5.537   2.747   2.537  1.2960 -0.4982  0.6562
  315SOL     ow 1257   1.464   3.779   3.641  0.2582 -0.5250  0.2423
  315SOL     hw 1258   1.537   3.719   3.623 -1.8395 -3.1513 -0.1518
  315SOL     hw 1259   1.396   3.723   3.678 -1.2311  1.9980  1.5701
  315SOL     vw 1260   1.465   3.764   3.643 -0.2151 -0.5386  0.3656
  316SOL     ow 1261   4.908   1.457   0.852  0.3370 -0.2361 -0.3392
  316SOL     hw 1262   4.827   1.505   0.865  0.3649 -0.6541  1.7988
  316SOL     hw 1263   4.913   1.443   0.757 -2.9369 -1.6894 -0.4328
  316SOL     vw 1264   4.898   1.461   0.841 -0.0911 -0.4830 -0.0694
  317SOL     ow 1265   2.845   0.150   2.896  0.3140 -0.1152  0.2294
  317SOL     hw 1266   2.904   0.100   2.952  0.8258  0.5334  0.2742
  317SOL     hw 1267   2.868   0.124   2.807  0.6126  0.0785  0.2504
  317SOL     vw 1268   2.856   0.140   2.892  0.4209 -0.0041  0.2382
  318SOL     ow 1269   1.000   2.560   2.809  0.2809  0.5705 -0.0089
  318SOL     hw 1270   0.962   2.630   2.754  0.1746  1.1278  0.7549
  318SOL     hw 1271   1.093   2.562   2.789 -0.1751 -1.9992 -3.2551
  318SOL     vw 1272   1.007   2.570   2.799  0.2067  0.3049 -0.3364
  319SOL     ow 1273   2.153   6.940   3.220  0.0221  0.1576 -0.2184
  319SOL     hw 1274   2.075   6.973   3.265 -2.1244 -0.9355 -2.8474
  319SOL     hw 1275   2.162   6.997   3.144  2.0479  0.4448  0.1876
  319SOL     vw 1276   2.144   6.952   3.216  0.0062  0.0513 -0.5118
  320SOL     ow 1277   1.160   0.404   3.805  0.2095 -0.2969 -0.5914
  320SOL     hw 1278   1.073   0.406   3.765 -0.0331  0.0574 -0.0537
  320SOL     hw 1279   1.191   0.495   3.800  0.6090 -0.4448 -0.9045
  320SOL     vw 1280   1.153   0.416   3.799  0.2302 -0.2697 -0.5617
  321SOL     ow 1281   6.703   6.995   5.031  0.2791  0.0075 -0.1401
  321SOL     hw 1282   6.745   7.068   4.985 -0.0275 -0.8757 -1.8658
  321SOL     hw 1283   6.624   7.033   5.069  0.9376  0.9264  0.3788
  321SOL     vw 1284   6.698   7.010   5.030  0.3257  0.0122 -0.2992
  322SOL     ow 1285   5.543   2.768   6.703 -0.1929  0.3055  0.9875
  322SOL     hw 1286   5.533   2.843   6.760  2.7032  2.4682 -1.0154
  322SOL     hw 1287   5.614   2.717   6.742 -0.9485 -0.4628  1.3967
  322SOL     vw 1288   5.551   2.771   6.716  0.0896  0.4895  0.7772
  323SOL     ow 1289   0.155   6.369   3.770 -0.6073  1.0527  0.1421
  323SOL     hw 1290   0.097   6.437   3.734 -0.0665  1.3471 -0.2057
  323SOL     hw 1291   0.136   6.291   3.718 -1.3694  0.8767  0.6702
  323SOL     vw 1292   0.145   6.368   3.758 -0.6365  1.0684  0.1659
  324SOL     ow 1293   3.133   0.308   1.392  0.6196 -0.2196  0.5348
  324SOL     hw 1294   3.149   0.371   1.322 -2.2866 -0.4157 -0.4467
  324SOL     hw 1295   3.112   0.226   1.346 -1.4150 -0.3297  1.5623
  324SOL     vw 1296   3.132   0.305   1.377 -0.0323 -0.2600  0.5410
  325SOL     ow 1297   6.395   6.285   0.109 -0.6827 -0.1470  0.0244
  325SOL     hw 1298   6.317   6.324   0.147 -1.0504 -0.3172 -0.5356
  325SOL     hw 1299   6.443   6.248   0.183 -1.5702 -0.8071  0.2841
  325SOL     vw 1300   6.391   6.285   0.123 -0.8483 -0.2565 -0.0152
  326SOL     ow 1301   3.610   4.791   4.823  0.6422 -0.2809 -0.4999
  326SOL     hw 1302   3.651   4.741   4.893  0.5008 -1.0884 -0.9704
  326SOL     hw 1303   3.535   4.834   4.864  0.6634 -0.6071 -0.1165
  326SOL     vw 1304   3.605   4.790   4.837  0.6263 -0.4306 -0.5114
  327SOL     ow 1305   5.471   0.530   2.959 -0.3878  0.2871 -0.4276
  327SOL     hw 1306   5.397   0.547   2.901  1.2672  1.3197 -2.3651
  327SOL     hw 1307   5.496   0.616   2.992  1.7333  0.4261 -2.1896
  327SOL     vw 1308   5.464   0.544   2.955  0.1104  0.4417 -0.9156
  328SOL     ow 1309   7.161   5.401   6.792  0.6348 -0.0642 -0.2305
  328SOL     hw 1310   7.071   5.401   6.760  0.5543  1.0680 -0.0589
  328SOL     hw 1311   7.163   5.471   6.857  1.7310  0.1702 -0.5010
  328SOL     vw 1312   7.149   5.410   6.797  0.7691  0.1163 -0.2439
  329SOL     ow 1313   1.585   2.404   1.771  0.4371 -0.4242 -0.4760
  329SOL     hw 1314   1.647   2.469   1.806 -1.8047  0.4078  2.2918
  329SOL     hw 1315   1.619   2.320   1.802  0.6660 -0.0631  0.2751
  329SOL     vw 1316   1.598   2.402   1.780  0.1715 -0.2668 -0.0117
  330SOL     ow 1317   5.597   0.741   3.043  0.1432  0.1094  0.6446
  330SOL     hw 1318   5.572   0.752   3.135 -0.3916  1.8372  0.3294
  330SOL     hw 1319   5.673   0.683   3.046  1.5711  1.9132  2.4087
  330SOL     vw 1320   5.604   0.735   3.055  0.2608  0.5753  0.8357
  331SOL     ow 1321   0.441   6.808   4.035 -0.2797 -0.3094  0.4026
  331SOL     hw 1322   0.478   6.749   4.101  0.4738  0.5716  0.7754
  331SOL     hw 1323   0.516   6.852   3.996 -0.7527 -0.4830 -0.7428
  331SOL     vw 1324   0.455   6.806   4.038 -0.2427 -0.2162  0.3009
  332SOL     ow 1325   3.036   2.785   2.415 -0.5705  0.3794  0.3691
  332SOL     hw 1326   3.023   2.692   2.436 -1.3828  0.5793  0.7833
  332SOL     hw 1327   3.028   2.829   2.500 -2.0661  1.0189 -0.0974
  332SOL     vw 1328   3.034   2.778   2.429 -0.8750  0.4902  0.3620
  333SOL     ow 1329   6.199   0.554   1.273 -0.2467 -0.0728 -0.3265
  333SOL     hw 1330   6.161   0.501   1.204 -2.4328 -0.5536  1.1409
  333SOL     hw 1331   6.150   0.636   1.270 -0.2700 -0.0453  0.5552
  333SOL     vw 1332   6.188   0.558   1.264 -0.5381 -0.1326 -0.0165
  334SOL     ow 1333   2.003   3.519   3.119  0.2973  0.1511  0.2685
  334SOL     hw 1334   1.995   3.459   3.044  4.1342 -2.0343  1.3516
  334SOL     hw 1335   2.023   3.604   3.081 -1.7772  0.0389 -1.2206
  334SOL     vw 1336   2.004   3.522   3.104  0.5299 -0.1521  0.2149
  335SOL     ow 1337   2.796   2.015   4.214 -0.4467 -0.4487 -0.2685
  335SOL     hw 1338   2.713   1.993   4.256 -0.0471 -0.2932  0.6281
  335SOL     hw 1339   2.857   2.029   4.286  0.4612 -0.9183 -0.9084
  335SOL     vw 1340   2.793   2.014   4.229 -0.2741 -0.4902 -0.2346
  336SOL     ow 1341   5.495   0.652   2.525  0.0981 -0.9121  0.3144
  336SOL     hw 1342   5.404   0.623   2.528 -0.6010  0.9924 -0.6829
  336SOL     hw 1343   5.532   0.626   2.609 -0.8694 -3.1559  0.1190
  336SOL     vw 1344   5.488   0.644   2.536 -0.1218 -0.9568  0.1570
  337SOL     ow 1345   5.456   1.774   1.502 -0.4340  0.0571 -0.8660
  337SOL     hw 1346   5.384   1.770   1.439 -1.6628 -0.8836  0.5275
  337SOL     hw 1347   5.415   1.807   1.582  0.5428 -1.1324  0.1493
  337SOL     vw 1348   5.441   1.778   1.504 -0.4675 -0.2239 -0.5483
  338SOL     ow 1349   1.406   6.761   4.093 -0.4453  0.4089 -0.3191
  338SOL     hw 1350   1.499   6.764   4.116 -0.4351 -1.4499  0.0309
  338SOL     hw 1351   1.404   6.728   4.004 -0.7897 -1.7334  0.4186
  338SOL     vw 1352   1.418   6.757   4.084 -0.4894 -0.1190 -0.1760
  339SOL     ow 1353   4.803   3.644   4.808 -0.7324 -0.3316  0.5786
  339SOL     hw 1354   4.731   3.592   4.844 -0.6240 -0.0528  1.2250
  339SOL     hw 1355   4.772   3.734   4.815  0.0646 -0.1250  1.8206
  339SOL     vw 1356   4.790   3.649   4.814 -0.6130 -0.2675  0.8278
  340SOL     ow 1357   3.173   7.219   0.125 -0.6378  0.4029  0.0616
  340SOL     hw 1358   3.084   7.246   0.103 -0.0018  1.2574 -1.6061
  340SOL     hw 1359   3.179   7.129   0.093 -0.9964  0.2204  0.4953
  340SOL     vw 1360   3.162   7.210   0.118 -0.6012  0.4914 -0.1012
  341SOL     ow 1361   1.281   6.179   3.285 -0.3509 -0.3679 -0.0638
  341SOL     hw 1362   1.332   6.213   3.211  1.7376  3.1474  2.6775
  341SOL     hw 1363   1.324   6.097   3.309  0.3032 -0.4212 -1.3511
  341SOL     vw 1364   1.293   6.172   3.278  0.0110  0.0889  0.1281
  342SOL     ow 1365   2.100   5.864   6.659  0.0540 -1.1794  0.2422
  342SOL     hw 1366   2.165   5.802   6.626 -0.4000 -0.9684 -1.1197
  342SOL     hw 1367   2.073   5.914   6.582 -0.5712 -0.1955  1.0674
  342SOL     vw 1368   2.105   5.863   6.645 -0.0883 -1.0219  0.1712
  343SOL     ow 1369   4.129   3.869   1.199  0.0897 -0.4702  0.2628
  343SOL     hw 1370   4.058   3.894   1.257  0.1105 -0.9249  0.4872
  343SOL     hw 1371   4.117   3.923   1.121 -1.2348 -1.3972 -0.2195
  343SOL     vw 1372   4.118   3.879   1.196 -0.0825 -0.6526  0.2288
  344SOL     ow 1373   2.447   1.399   6.603  0.1343 -0.3641 -0.1403
  344SOL     hw 1374   2.531   1.354   6.618  0.1149 -0.5495 -0.5627
  344SOL     hw 1375   2.471   1.491   6.592  0.4404 -0.5899 -1.5454
  344SOL     vw 1376   2.462   1.405   6.603  0.1721 -0.4184 -0.3815
  345SOL     ow 1377   4.115   1.937   2.655  0.2844  0.6209  0.6102
  345SOL     hw 1378   4.110   1.842   2.658 -1.0279  0.4650 -2.5837
  345SOL     hw 1379   4.038   1.966   2.705  0.9114  0.0783  1.9417
  345SOL     vw 1380   4.104   1.928   2.662  0.1941  0.5287  0.3644
  346SOL     ow 1381   7.048   1.043   6.299 -0.1832 -0.3680 -0.1199
  346SOL     hw 1382   7.030   1.033   6.206 -0.3017  0.7624 -0.2236
  346SOL     hw 1383   6.962   1.062   6.338 -0.2263 -1.3514  0.3115
  346SOL     vw 1384   7.034   1.044   6.292 -0.2048 -0.3486 -0.0768
  347SOL     ow 1385   3.887   0.873   1.632  0.0775  0.2518  0.2796
  347SOL     hw 1386   3.806   0.844   1.591  2.4384 -2.8637 -2.7877
  347SOL     hw 1387   3.911   0.952   1.584  0.3747 -0.6400 -1.1019
  347SOL     vw 1388   3.880   0.879   1.620  0.4283 -0.2769 -0.3074
  348SOL     ow 1389   2.530   6.782   1.841  0.4030  0.6544  0.2677
  348SOL     hw 1390   2.515   6.690   1.864 -0.1889  0.6755 -0.0073
  348SOL     hw 1391   2.554   6.780   1.748  2.5123  0.5924  0.7578
  348SOL     vw 1392   2.531   6.770   1.831  0.6031  0.6492  0.2961
  349SOL     ow 1393   1.705   6.608   3.784 -0.3523  0.0324  0.0463
  349SOL     hw 1394   1.770   6.678   3.781 -0.1877 -0.1412 -0.4873
  349SOL     hw 1395   1.756   6.528   3.798 -0.5686  0.0498  1.0389
  349SOL     vw 1396   1.720   6.606   3.785 -0.3591  0.0117  0.1070
  350SOL     ow 1397   2.990   0.171   0.335 -0.2821 -0.2147 -0.4535
  350SOL     hw 1398   2.989   0.266   0.344  0.4876 -0.2961  0.7040
  350SOL     hw 1399   2.951   0.139   0.416  1.6044 -0.9104  0.2271
  350SOL     vw 1400   2.985   0.180   0.347  0.0684 -0.3172 -0.2110
  351SOL     ow 1401   1.700   5.291   3.439  0.0528 -0.2813 -0.3385
  351SOL     hw 1402   1.778   5.289   3.495 -0.5420  0.3933  0.5392
  351SOL     hw 1403   1.715   5.365   3.380 -0.4288  0.6044  0.6158
  351SOL     vw 1404   1.712   5.300   3.439 -0.0892 -0.0756 -0.0968
  352SOL     ow 1405   5.329   1.547   4.252  0.3489 -0.3071  0.5953
  352SOL     hw 1406   5.321   1.476   4.188  1.3397  1.1665 -1.2613
  352SOL     hw 1407   5.366   1.505   4.330 -1.7251 -2.3371  0.5927
  352SOL     vw 1408   5.333   1.532   4.254  0.2060 -0.3805  0.3498
  353SOL     ow 1409   6.771   6.782   0.945 -0.3926  0.1687  0.3050
  353SOL     hw 1410   6.717   6.861   0.958 -0.8464  0.0625 -0.7729
  353SOL     hw 1411   6.858   6.807   0.976 -0.2568  1.4943 -0.9993
  353SOL     vw 1412   6.775   6.796   0.951 -0.4346  0.3295 -0.0094
  354SOL     ow 1413   1.991   6.117   6.807 -0.3825  0.2666  0.2368
  354SOL     hw 1414   2.029   6.039   6.765  0.7046  0.7137  0.3595
  354SOL     hw 1415   1.898   6.097   6.814  0.2122 -2.3501  2.9663
  354SOL     vw 1416   1.984   6.104   6.802 -0.1606 -0.0196  0.6130
  355SOL     ow 1417   3.516   4.209   0.408 -0.2038 -0.0162  0.0304
  355SOL     hw 1418   3.458   4.145   0.367  1.1855 -1.9663  0.8890
  355SOL     hw 1419   3.603   4.187   0.374  0.5500  0.2817  1.6718
  355SOL     vw 1420   3.520   4.197   0.398  0.0790 -0.2344  0.3603
  356SOL     ow 1421   4.337   2.955   6.847  0.2670 -0.2970 -0.0091
  356SOL     hw 1422   4.304   3.008   6.919  0.5647  0.5147 -0.4471
  356SOL     hw 1423   4.266   2.954   6.783  0.5394  0.2358 -0.3307
  356SOL     vw 1424   4.324   2.962   6.848  0.3424 -0.1194 -0.1094
  357SOL     ow 1425   0.187   5.826   0.639  0.1695  0.0816 -0.1033
  357SOL     hw 1426   0.241   5.748   0.631  1.7475  1.2574 -1.5711
  357SOL     hw 1427   0.098   5.794   0.623  0.4680 -1.7419  1.4661
  357SOL     vw 1428   0.182   5.811   0.635  0.4171 -0.0041 -0.0899
  358SOL     ow 1429   5.677   2.854   6.093  0.1100  0.4398  0.2158
  358SOL     hw 1430   5.761   2.840   6.050 -0.0883  3.3658 -1.3529
  358SOL     hw 1431   5.699   2.904   6.172 -0.1867  1.8277 -0.5648
  358SOL     vw 1432   5.691   2.858   6.098  0.0448  1.0091 -0.0942
  359SOL     ow 1433   5.278   2.282   4.968  0.0407 -0.3844  0.7948
  359SOL     hw 1434   5.311   2.253   5.053 -0.9351 -1.0121  0.9755
  359SOL     hw 1435   5.241   2.369   4.985  0.9565  0.0275  0.7344
  359SOL     vw 1436   5.277   2.289   4.981  0.0327 -0.4128  0.8104
  360SOL     ow 1437   1.657   1.523   1.487 -0.5210  0.3480  0.5358
  360SOL     hw 1438   1.734   1.513   1.543  0.4784  2.4823 -0.3321
  360SOL     hw 1439   1.691   1.567   1.408 -2.2663 -0.5957 -0.7998
  360SOL     vw 1440   1.672   1.527   1.484 -0.6195  0.5051  0.2451
  361SOL     ow 1441   5.468   3.321   0.982  0.1368 -0.4007 -0.2377
  361SOL     hw 1442   5.561   3.330   0.961  0.3654 -0.7345  0.5786
  361SOL     hw 1443   5.465   3.250   1.047 -0.6107  0.0479  0.2408
  361SOL     vw 1444   5.480   3.312   0.988  0.0684 -0.3855 -0.0668
  362SOL     ow 1445   6.366   6.574   1.619  0.5062  0.8288  0.3659
  362SOL     hw 1446   6.280   6.555   1.582  0.6041 -0.6034  0.7842
  362SOL     hw 1447   6.404   6.639   1.561 -0.3938  0.6019 -0.5047
  362SOL     vw 1448   6.360   6.580   1.607  0.4005  0.6096  0.3061
  363SOL     ow 1449   2.248   3.451   5.765  0.6203  0.4851  0.4129
  363SOL     hw 1450   2.189   3.395   5.816  0.7264  0.6487  0.7229
  363SOL     hw 1451   2.200   3.470   5.685 -0.4678  1.9881  1.3690
  363SOL     vw 1452   2.234   3.446   5.761  0.4908  0.7050  0.5801
  364SOL     ow 1453   0.924   3.065   3.833 -0.7942  0.6416  0.0318
  364SOL     hw 1454   0.931   2.983   3.783  1.2565  0.8186 -0.0408
  364SOL     hw 1455   1.004   3.068   3.885  0.1696  3.5419 -1.4373
  364SOL     vw 1456   0.936   3.054   3.833 -0.3965  1.0477 -0.1717
  365SOL     ow 1457   6.822   3.488   3.232  0.1759 -0.2118  0.7137
  365SOL     hw 1458   6.865   3.574   3.232 -1.4355  0.6298  0.1978
  365SOL     hw 1459   6.864   3.440   3.161  0.0746  0.6843  0.0417
  365SOL     vw 1460   6.833   3.493   3.223 -0.0498  0.0175  0.5569
  366SOL     ow 1461   3.171   0.924   7.212  0.0838 -0.4487  0.7290
  366SOL     hw 1462   3.191   0.847   7.159 -1.8729 -3.0330  3.4179
  366SOL     hw 1463   3.253   0.975   7.212  2.7169 -4.2615  1.5636
  366SOL     vw 1464   3.185   0.921   7.205  0.1731 -1.2927  1.1940
  367SOL     ow 1465   0.819   7.087   5.374  0.0370  0.6201 -0.4085
  367SOL     hw 1466   0.885   7.155   5.363  0.5834  0.2537  0.4606
  367SOL     hw 1467   0.773   7.084   5.290 -1.0363  3.0991  0.0196
  367SOL     vw 1468   0.822   7.095   5.361 -0.0325  0.8986 -0.2375
  368SOL     ow 1469   0.184   4.310   2.875 -0.1125 -0.2277  0.0768
  368SOL     hw 1470   0.091   4.294   2.860  0.1464 -0.5484 -1.2432
  368SOL     hw 1471   0.202   4.267   2.959 -1.5598  1.5031  1.3348
  368SOL     vw 1472   0.174   4.302   2.884 -0.2693 -0.0415  0.0685
  369SOL     ow 1473   0.627   1.120   2.731 -0.5346  0.4782 -0.2434
  369SOL     hw 1474   0.659   1.119   2.641  0.5640 -0.5492  0.1326
  369SOL     hw 1475   0.702   1.149   2.783 -1.3378  1.6779  0.2985
  369SOL     vw 1476   0.641   1.124   2.726 -0.4956  0.5009 -0.1222
  370SOL     ow 1477   2.351   6.963   5.594 -0.1924  0.3177  0.0623
  370SOL     hw 1478   2.309   7.036   5.640 -0.1699  0.4793 -0.1723
  370SOL     hw 1479   2.282   6.927   5.538  0.4961  1.8977 -1.9196
  370SOL     vw 1480   2.336   6.968   5.593 -0.0986  0.5479 -0.2301
  371SOL     ow 1481   1.155   0.542   2.401  0.3591 -0.3039 -0.1710
  371SOL     hw 1482   1.096   0.592   2.346 -2.0813 -2.7373  0.0037
  371SOL     hw 1483   1.157   0.590   2.484 -1.2348 -0.0215 -0.2661
  371SOL     vw 1484   1.148   0.555   2.405 -0.1732 -0.5877 -0.1607
  372SOL     ow 1485   5.505   0.864   7.058  0.8137 -0.9771  0.1635
  372SOL     hw 1486   5.467   0.882   7.144  2.4688 -0.1837  0.7602
  372SOL     hw 1487   5.491   0.945   7.009  0.9298 -1.0041  0.0851
  372SOL     vw 1488   5.498   0.877   7.062  1.0471 -0.8760  0.2317
  373SOL     ow 1489   0.052   2.209   0.128 -0.3136 -0.1664 -0.2981
  373SOL     hw 1490   0.022   2.277   0.189  2.6462  1.3092 -0.3179
  373SOL     hw 1491   0.047   2.250   0.042  0.4519 -0.3269 -0.4271
  373SOL     vw 1492   0.048   2.224   0.125  0.1779  0.0070 -0.3177
  374SOL     ow 1493   1.991   6.832   1.813  0.3899 -0.1154  0.0094
  374SOL     hw 1494   1.954   6.894   1.750 -1.1266 -0.7891  0.1828
  374SOL     hw 1495   1.928   6.831   1.885  1.5418 -0.1821  1.0481
  374SOL     vw 1496   1.978   6.840   1.815  0.3419 -0.2131  0.1693
  375SOL     ow 1497   3.138   5.093   3.502  0.1301  0.5281 -0.2564
  375SOL     hw 1498   3.157   5.012   3.456  0.4257 -0.2944  1.2613
  375SOL     hw 1499   3.224   5.133   3.517 -0.0294  1.3273 -1.2821
  375SOL     vw 1500   3.152   5.088   3.498  0.1481  0.5250 -0.1916
  376SOL     ow 1501   3.857   1.660   6.855 -0.4341  0.5169 -0.1646
  376SOL     hw 1502   3.770   1.620   6.848 -0.2976  0.2016 -0.0441
  376SOL     hw 1503   3.870   1.704   6.771 -0.2420 -0.3743 -0.6147
  376SOL     vw 1504   3.847   1.661   6.843 -0.3906  0.3578 -0.2084
  377SOL     ow 1505   4.929   2.915   1.102 -0.0395  0.4300  0.0321
  377SOL     hw 1506   4.915   2.902   1.196  2.3406 -0.4071  0.3466
  377SOL     hw 1507   4.901   2.832   1.062  0.8701 -0.0081  0.2729
  377SOL     vw 1508   4.924   2.902   1.109  0.3943  0.2615  0.1054
  378SOL     ow 1509   6.509   4.878   0.038 -0.1117  0.3774 -0.2038
  378SOL     hw 1510   6.485   4.919  -0.045 -1.1846  0.4608  0.1328
  378SOL     hw 1511   6.604   4.888   0.044 -0.0956  0.8317 -1.1711
  378SOL     vw 1512   6.519   4.884   0.028 -0.2511  0.4485 -0.2871
  379SOL     ow 1513   4.710   0.045   0.361 -0.2279  0.1044 -0.0160
  379SOL     hw 1514   4.698   0.008   0.274 -2.9567  0.4692  0.0995
  379SOL     hw 1515   4.757   0.127   0.346 -1.2300  0.4960 -1.2723
  379SOL     vw 1516   4.715   0.051   0.348 -0.7203  0.2042 -0.1665
  380SOL     ow 1517   1.336   0.787   0.809 -0.1442 -0.2776 -0.6811
  380SOL     hw 1518   1.397   0.761   0.878 -0.3551 -0.4150 -0.5484
  380SOL     hw 1519   1.263   0.726   0.816 -1.2102  1.0338  0.4007
  380SOL     vw 1520   1.335   0.776   0.819 -0.3127 -0.1227 -0.5208
  381SOL     ow 1521   6.950   0.847   2.693  0.1607 -0.1437 -0.2024
  381SOL     hw 1522   6.877   0.903   2.665  1.0841  1.6597  0.8021
  381SOL     hw 1523   6.978   0.885   2.776  1.0105 -1.9908  0.3976
  381SOL     vw 1524   6.944   0.860   2.700  0.3948 -0.1495  0.0093
  382SOL     ow 1525   5.964   0.750   0.259 -0.3019 -0.4357  0.0776
  382SOL     hw 1526   5.951   0.795   0.176 -2.5588  1.5805  1.4023
  382SOL     hw 1527   5.903   0.676   0.256  0.1571 -0.8069 -0.3216
  382SOL     vw 1528   5.954   0.746   0.248 -0.5391 -0.2186  0.1997
  383SOL     ow 1529   6.121   6.625   1.314 -0.0394 -0.0623  0.3908
  383SOL     hw 1530   6.115   6.585   1.401  1.1949 -0.9574  0.1012
  383SOL     hw 1531   6.209   6.603   1.284 -0.0764  1.1238 -0.6704
  383SOL     vw 1532   6.132   6.617   1.322  0.1185 -0.0241  0.2126
  384SOL     ow 1533   2.981   0.375   3.194  0.3652  0.1819 -0.3009
  384SOL     hw 1534   3.055   0.343   3.246  0.1727 -2.5321 -1.5216
  384SOL     hw 1535   2.905   0.327   3.227 -0.6532  1.8669 -0.0415
  384SOL     vw 1536   2.981   0.365   3.205  0.2054  0.0461 -0.4278
  385SOL     ow 1537   5.578   4.917   2.840 -0.3461 -0.1845 -0.1797
  385SOL     hw 1538   5.620   4.835   2.866 -0.9437  0.3754  3.0074
  385SOL     hw 1539   5.484   4.898   2.843 -0.4815  0.5049  0.3320
  385SOL     vw 1540   5.571   4.903   2.844 -0.4427 -0.0196  0.3083
  386SOL     ow 1541   5.107   1.648   4.391 -0.3277 -0.2506  0.0830
  386SOL     hw 1542   5.137   1.602   4.469  2.8433 -0.5762 -1.1676
  386SOL     hw 1543   5.141   1.596   4.318  0.3383  2.1801 -1.4407
  386SOL     vw 1544   5.115   1.635   4.391  0.1786  0.0272 -0.2828
  387SOL     ow 1545   1.594   7.031   4.377 -0.2430  0.0026  0.5419
  387SOL     hw 1546   1.516   6.977   4.388  0.7799 -1.5887  0.4253
  387SOL     hw 1547   1.574   7.113   4.423 -1.9477 -0.3686  0.5164
  387SOL     vw 1548   1.581   7.035   4.384 -0.3330 -0.2563  0.5233
  388SOL     ow 1549   5.483   3.107   2.858 -0.0654 -0.2711 -0.2473
  388SOL     hw 1550   5.407   3.098   2.916  0.0519 -0.7094 -0.1598
  388SOL     hw 1551   5.480   3.198   2.830  0.0157  0.0137  0.6394
  388SOL     vw 1552   5.472   3.118   2.862 -0.0391 -0.2913 -0.1189
  389SOL     ow 1553   1.835   1.531   6.032  0.0142 -0.3447  0.7000
  389SOL     hw 1554   1.748   1.491   6.036 -0.1150 -0.1325  0.1174
  389SOL     hw 1555   1.893   1.460   6.003 -0.1555 -0.2159  0.0147
  389SOL     vw 1556   1.831   1.516   6.029 -0.0252 -0.2997  0.5326
  390SOL     ow 1557   0.069   4.724   2.035 -0.3030 -0.3614  0.2530
  390SOL     hw 1558   0.118   4.671   2.098 -0.3609 -1.4979 -0.6133
  390SOL     hw 1559   0.128   4.795   2.011 -1.3122  1.8648  3.7177
  390SOL     vw 1560   0.083   4.726   2.040 -0.4438 -0.2179  0.5958
  391SOL     ow 1561   4.535   2.246   2.425  0.4714  1.0478 -0.0700
  391SOL     hw 1562   4.548   2.251   2.331 -0.8597  1.2467 -0.2686
  391SOL     hw 1563   4.608   2.194   2.457 -0.7537 -1.8501 -1.6221
  391SOL     vw 1564   4.546   2.240   2.417  0.1342  0.6917 -0.3010
  392SOL     ow 1565   1.785   1.074   2.330 -0.3693 -0.4193  0.1362
  392SOL     hw 1566   1.730   1.119   2.394 -0.9955 -0.1810 -0.5602
  392SOL     hw 1567   1.818   0.997   2.376 -0.0669  0.2281  1.0380
  392SOL     vw 1568   1.782   1.070   2.344 -0.4121 -0.3024  0.1633
  393SOL     ow 1569   2.930   6.849   0.528 -0.1569  0.0599  0.6835
  393SOL     hw 1570   2.972   6.799   0.598  0.4295  0.2896  0.5021
  393SOL     hw 1571   2.860   6.898   0.572 -0.2496 -0.3416  0.9854
  393SOL     vw 1572   2.926   6.849   0.543 -0.0917  0.0372  0.6994
  394SOL     ow 1573   3.485   6.545   2.676 -0.2501 -0.6726 -0.0992
  394SOL     hw 1574   3.494   6.502   2.591  0.2983  0.3303 -0.5646
  394SOL     hw 1575   3.473   6.638   2.655  0.5560 -0.3159  0.9382
  394SOL     vw 1576   3.485   6.551   2.662 -0.0713 -0.4933 -0.0238
  395SOL     ow 1577   6.348   5.865   3.493  0.5659  0.7418 -0.2645
  395SOL     hw 1578   6.394   5.910   3.422 -0.7220 -0.2589 -1.8015
  395SOL     hw 1579   6.255   5.875   3.472  0.2048 -2.2315 -0.4639
  395SOL     vw 1580   6.342   5.872   3.481  0.3483  0.2174 -0.4936
  396SOL     ow 1581   2.962   4.892   2.102 -0.2855 -0.1519 -0.1667
  396SOL     hw 1582   3.040   4.838   2.090 -1.2751 -1.2563 -2.3137
  396SOL     hw 1583   2.930   4.907   2.013 -1.0476  2.5588  0.4805
  396SOL     vw 1584   2.968   4.887   2.089 -0.5165  0.0601 -0.3647
  397SOL     ow 1585   4.946   7.051   3.591  0.0961 -0.5012  0.1920
  397SOL     hw 1586   4.873   7.111   3.601 -0.1558 -0.7440 -0.1988
  397SOL     hw 1587   4.949   7.031   3.498  0.2356 -1.0203  0.3026
  397SOL     vw 1588   4.937   7.056   3.580  0.0811 -0.6018  0.1550
  398SOL     ow 1589   4.057   3.071   3.752 -0.2122 -0.7032 -0.1644
  398SOL     hw 1590   4.093   3.062   3.664  1.0545  0.4604  0.2054
  398SOL     hw 1591   4.012   3.156   3.751  1.6068  0.3310  0.8635
  398SOL     vw 1592   4.056   3.081   3.740  0.1950 -0.4132  0.0199
  399SOL     ow 1593   5.109   7.209   5.369  0.1780 -0.5109  0.1239
  399SOL     hw 1594   5.073   7.124   5.343 -0.7101 -0.4954  1.2222
  399SOL     hw 1595   5.151   7.192   5.453 -0.5718  0.2539  0.6738
  399SOL     vw 1596   5.110   7.195   5.377 -0.0381 -0.4077  0.3414
  400SOL     ow 1597   6.863   6.933   6.065  0.4912 -1.2563  0.3172
  400SOL     hw 1598   6.895   6.859   6.115 -0.7820 -2.3267 -0.3828
  400SOL     hw 1599   6.910   6.927   5.981  0.9898 -0.7821  0.5603
  400SOL     vw 1600   6.874   6.923   6.060  0.3891 -1.3351  0.2568
  401SOL     ow 1601   4.694   0.988   0.526 -0.2246 -0.5410 -0.1145
  401SOL     hw 1602   4.724   0.964   0.614 -0.1826  1.9966  0.6420
  401SOL     hw 1603   4.771   0.976   0.470 -0.0801 -1.6089  0.2968
  401SOL     vw 1604   4.708   0.983   0.531 -0.1998 -0.3471  0.0396
  402SOL     ow 1605   6.177   3.563   2.566  0.0857 -0.4772  0.0225
  402SOL     hw 1606   6.246   3.613   2.608  0.2410 -0.3852 -0.3410
  402SOL     hw 1607   6.098   3.585   2.616 -0.0192  0.8401 -0.6808
  402SOL     vw 1608   6.175   3.572   2.578  0.0923 -0.2912 -0.1183
  403SOL     ow 1609   1.720   2.921   0.073 -0.0835 -0.7425 -0.8510
  403SOL     hw 1610   1.789   2.858   0.051  1.2916  0.4758 -0.1683
  403SOL     hw 1611   1.763   3.006   0.069 -1.5305  0.0415 -0.2896
  403SOL     vw 1612   1.735   2.924   0.070 -0.0929 -0.4781 -0.6869
  404SOL     ow 1613   4.831   0.357   1.008 -0.1486 -0.1468  0.4550
  404SOL     hw 1614   4.901   0.292   0.997  0.5853  0.0753  3.1443
  404SOL     hw 1615   4.783   0.354   0.926  0.3878 -3.4915  0.1174
  404SOL     vw 1616   4.834   0.348   0.996  0.0191 -0.5588  0.7652
  405SOL     ow 1617   1.768   5.086   2.725 -0.1650  0.6364 -0.5364
  405SOL     hw 1618   1.790   5.178   2.714  0.6122  0.3523 -1.4892
  405SOL     hw 1619   1.852   5.040   2.719 -0.8175 -0.4185 -3.4576
  405SOL     vw 1620   1.782   5.092   2.723 -0.1485  0.4597 -1.0475
  406SOL     ow 1621   2.206   1.048   2.778 -0.0407 -0.1665 -0.2246
  406SOL     hw 1622   2.113   1.067   2.787 -0.1284 -0.9097  0.5905
  406SOL     hw 1623   2.222   0.976   2.840  1.1575  0.2369 -0.0354
  406SOL     vw 1624   2.196   1.041   2.788  0.1059 -0.2113 -0.0921
  407SOL     ow 1625   6.885   0.884   0.965  0.0171 -0.1888 -0.0956
  407SOL     hw 1626   6.846   0.970   0.982  1.3540  0.7357 -1.4345
  407SOL     hw 1627   6.944   0.869   1.039  0.1832  0.2953 -0.1294
  407SOL     vw 1628   6.888   0.893   0.977  0.2151 -0.0029 -0.2767
  408SOL     ow 1629   5.306   5.259   2.440  0.0529 -0.8570  0.4375
  408SOL     hw 1630   5.350   5.324   2.495 -1.0344  1.7790 -1.6449
  408SOL     hw 1631   5.220   5.297   2.421 -1.1689 -3.5369  0.1823
  408SOL     vw 1632   5.301   5.272   2.445 -0.2518 -0.8626  0.1291
  409SOL     ow 1633   7.210   0.197   3.712 -0.4607 -0.4456  0.4589
  409SOL     hw 1634   7.243   0.157   3.631 -0.7661  0.6656 -0.2412
  409SOL     hw 1635   7.223   0.130   3.779 -0.3506 -1.4565 -0.5409
  409SOL     vw 1636   7.216   0.183   3.710 -0.4865 -0.4324  0.2347
  410SOL     ow 1637   3.403   3.997   0.235 -0.0225  0.2416  0.1600
  410SOL     hw 1638   3.318   3.988   0.192  0.4307 -0.6946 -0.5763
  410SOL     hw 1639   3.417   3.912   0.277  1.4683 -0.3819 -1.4740
  410SOL     vw 1640   3.393   3.984   0.235  0.2340  0.0356 -0.1527
  411SOL     ow 1641   0.911   5.791   3.036 -0.1104 -0.2533  0.2348
  411SOL     hw 1642   0.816   5.786   3.038 -0.1071 -0.3419  0.1845
  411SOL     hw 1643   0.933   5.793   2.943  0.0868 -3.4551  0.0773
  411SOL     vw 1644   0.902   5.790   3.024 -0.0839 -0.6874  0.2074
  412SOL     ow 1645   0.649   3.575   6.215 -0.2471  0.1086  0.1323
  412SOL     hw 1646   0.674   3.618   6.134 -1.1852  0.2138 -0.1146
  412SOL     hw 1647   0.564   3.613   6.238  0.2209  0.4254  1.4203
  412SOL     vw 1648   0.641   3.585   6.208 -0.3091  0.1644  0.2697
  413SOL     ow 1649   7.177   4.627   2.597 -0.8421 -0.0005 -0.4424
  413SOL     hw 1650   7.197   4.539   2.566  1.5803  0.8374 -1.4912
  413SOL     hw 1651   7.095   4.650   2.554 -0.2602 -0.8586 -2.0799
  413SOL     vw 1652   7.169   4.618   2.587 -0.4458 -0.0033 -0.7967
  414SOL     ow 1653   0.059   6.604   3.067  0.7775 -0.0538 -0.0642
  414SOL     hw 1654   0.087   6.554   3.144  0.8344  0.5522  0.3144
  414SOL     hw 1655   0.043   6.692   3.100 -0.3226 -0.0653 -0.5256
  414SOL     vw 1656   0.061   6.609   3.081  0.6399  0.0246 -0.0751
  415SOL     ow 1657   6.267   7.071   1.003 -0.1511 -0.5187 -0.5249
  415SOL     hw 1658   6.337   7.023   0.958  1.8597  1.7573 -0.0893
  415SOL     hw 1659   6.241   7.139   0.940  0.5961  0.8490  0.5985
  415SOL     vw 1660   6.273   7.074   0.989  0.2129 -0.0379 -0.3193
  416SOL     ow 1661   4.019   1.392   4.398 -0.6479 -0.3393  0.2572
  416SOL     hw 1662   4.087   1.380   4.464 -1.0808 -0.6292  0.6544
  416SOL     hw 1663   3.983   1.305   4.384 -0.6985 -0.2469 -0.2192
  416SOL     vw 1664   4.024   1.379   4.404 -0.7117 -0.3653  0.2468
  417SOL     ow 1665   1.523   3.003   2.892  0.2658 -0.0117  0.0340
  417SOL     hw 1666   1.558   2.968   2.810  1.4983 -0.2972  0.6601
  417SOL     hw 1667   1.437   2.962   2.901 -0.8709  1.6635 -2.1678
  417SOL     vw 1668   1.516   2.993   2.882  0.2784  0.1717 -0.1739
  418SOL     ow 1669   1.606   0.891   3.165 -0.1974 -0.5519  0.4932
  418SOL     hw 1670   1.632   0.956   3.100 -0.5009  0.3078  1.2127
  418SOL     hw 1671   1.688   0.862   3.204 -0.1892  2.0000  2.6147
  418SOL     vw 1672   1.621   0.896   3.162 -0.2365 -0.1017  0.8680
  419SOL     ow 1673   0.578   1.643   1.952 -0.1858 -0.2060 -0.1621
  419SOL     hw 1674   0.578   1.551   1.923  1.4235 -0.1044 -0.5588
  419SOL     hw 1675   0.618   1.640   2.039  0.4977  0.1899 -0.4600
  419SOL     vw 1676   0.583   1.630   1.959  0.1167 -0.1404 -0.2538
  420SOL     ow 1677   4.935   5.804   5.522 -0.1680 -0.2055  0.5223
  420SOL     hw 1678   4.923   5.736   5.587  0.4450 -0.8350 -0.0155
  420SOL     hw 1679   4.848   5.814   5.482  0.1688 -2.2029 -0.8670
  420SOL     vw 1680   4.922   5.797   5.525 -0.0429 -0.5519  0.2682
  421SOL     ow 1681   1.396   4.899   5.594 -0.6239  0.2604  0.0788
  421SOL     hw 1682   1.363   4.934   5.677  0.4295 -0.4724  0.8327
  421SOL     hw 1683   1.402   4.975   5.536 -2.2969  0.6290  0.3356
  421SOL     vw 1684   1.392   4.914   5.597 -0.7057  0.2122  0.2120
  422SOL     ow 1685   6.349   1.725   3.528  0.1134 -0.5062  0.5775
  422SOL     hw 1686   6.383   1.807   3.565  0.6565 -0.6141  0.3296
  422SOL     hw 1687   6.276   1.701   3.585  0.9996 -0.7164  1.6577
  422SOL     vw 1688   6.344   1.732   3.541  0.3021 -0.5481  0.6874
  423SOL     ow 1689   1.051   0.037   4.408 -0.0361 -0.6576 -0.2293
  423SOL     hw 1690   1.077  -0.046   4.449 -0.0466 -0.3261  0.4638
  423SOL     hw 1691   0.964   0.055   4.443  1.0779  1.0505  1.8657
  423SOL     vw 1692   1.043   0.028   4.418  0.1095 -0.3885  0.1390
  424SOL     ow 1693   4.219   2.686   0.845 -0.1917  0.0922  0.3031
  424SOL     hw 1694   4.212   2.774   0.807 -0.7992  1.0516  2.4576
  424SOL     hw 1695   4.274   2.698   0.922  1.0352 -1.7648 -0.2392
  424SOL     vw 1696   4.225   2.699   0.850 -0.1099 -0.0262  0.5158
  425SOL     ow 1697   4.548   3.856   1.724 -0.6126  0.2425 -0.1323
  425SOL     hw 1698   4.604   3.796   1.774  2.2525  1.4939 -1.5928
  425SOL     hw 1699   4.482   3.799   1.685  0.1232 -1.4906  1.0124
  425SOL     vw 1700   4.547   3.841   1.725 -0.1376  0.1789 -0.1740
  426SOL     ow 1701   4.509   2.176   2.980 -0.1889 -1.3972  0.0823
  426SOL     hw 1702   4.549   2.236   3.043  0.1956 -0.4182 -1.0550
  426SOL     hw 1703   4.497   2.094   3.028  0.2311 -0.7203  1.3690
  426SOL     vw 1704   4.512   2.173   2.994 -0.0830 -1.1787  0.1020
  427SOL     ow 1705   1.518   0.393   3.299 -0.4003  0.1391  0.0554
  427SOL     hw 1706   1.534   0.305   3.331 -1.5558 -0.4731 -0.9535
  427SOL     hw 1707   1.588   0.410   3.237  1.7191  1.2407  2.5599
  427SOL     vw 1708   1.529   0.384   3.295 -0.2732  0.2037  0.2527
  428SOL     ow 1709   6.384   0.154   3.152 -0.6295  0.3417  0.4159
  428SOL     hw 1710   6.476   0.142   3.128 -0.5107 -2.1558  1.7497
  428SOL     hw 1711   6.337   0.153   3.068  0.4005 -0.5040 -0.1751
  428SOL     vw 1712   6.390   0.152   3.138 -0.4778 -0.0994  0.5138
  429SOL     ow 1713   0.549   5.869   5.596 -0.1402  0.0844 -0.3121
  429SOL     hw 1714   0.510   5.883   5.510 -1.5264  1.2864  0.4623
  429SOL     hw 1715   0.616   5.936   5.603  0.9441 -0.8980 -0.9733
  429SOL     vw 1716   0.553   5.879   5.585 -0.1801  0.1135 -0.2975
  430SOL     ow 1717   0.796   2.701   2.990  0.9432 -0.4533  0.4971
  430SOL     hw 1718   0.723   2.672   3.045  0.9431  0.3375  0.9317
  430SOL     hw 1719   0.754   2.731   2.909  0.8983 -1.1365  0.2622
  430SOL     vw 1720   0.781   2.701   2.987  0.9373 -0.4392  0.5234
  431SOL     ow 1721   2.498   0.979   1.034 -0.7698  0.2955  0.0159
  431SOL     hw 1722   2.431   1.046   1.022  1.3839  2.5909 -0.0880
  431SOL     hw 1723   2.548   1.009   1.110 -0.4458 -1.8928  0.7306
  431SOL     vw 1724   2.496   0.992   1.043 -0.4429  0.3096  0.0966
  432SOL     ow 1725   1.790   3.176   0.674  0.6066 -0.3039 -0.1537
  432SOL     hw 1726   1.777   3.128   0.756 -0.2341  0.7117  0.3347
  432SOL     hw 1727   1.706   3.169   0.629  0.5179  0.5616 -0.1394
  432SOL     vw 1728   1.778   3.169   0.679  0.4840 -0.0557 -0.0874
  433SOL     ow 1729   3.260   3.062   0.757  0.2803  0.6902 -0.5925
  433SOL     hw 1730   3.222   3.111   0.830 -0.6095 -0.1432 -0.4781
  433SOL     hw 1731   3.346   3.034   0.789  0.1247  0.8045 -0.0672
  433SOL     vw 1732   3.267   3.065   0.771  0.1422  0.5953 -0.5081
  434SOL     ow 1733   4.728   0.517   6.330 -0.3070  0.2908  0.0188
  434SOL     hw 1734   4.722   0.560   6.415 -0.7468 -0.9756  0.6520
  434SOL     hw 1735   4.643   0.535   6.289 -1.3825 -1.7534  1.1962
  434SOL     vw 1736   4.716   0.525   6.336 -0.5071 -0.1460  0.2580
  435SOL     ow 1737   4.213   6.453   1.271 -0.3403  0.1699 -0.0970
  435SOL     hw 1738   4.269   6.458   1.193  0.2685 -1.4382  0.1914
  435SOL     hw 1739   4.130   6.419   1.238 -0.1013 -0.4555 -0.0764
  435SOL     vw 1740   4.210   6.449   1.256 -0.2284 -0.1245 -0.0562
  436SOL     ow 1741   0.797   2.293   0.729  0.5956 -0.0828 -0.2714
  436SOL     hw 1742   0.826   2.244   0.652  0.8008 -0.5258  0.0796
  436SOL     hw 1743   0.871   2.287   0.790 -0.4709 -1.9288  0.9657
  436SOL     vw 1744   0.810   2.285   0.727  0.4819 -0.3849 -0.0619
  437SOL     ow 1745   6.313   4.815   5.150 -0.1686 -0.5132  0.3551
  437SOL     hw 1746   6.245   4.813   5.083 -0.9200  2.0384  0.9328
  437SOL     hw 1747   6.394   4.827   5.101 -0.6466  0.7396 -0.1687
  437SOL     vw 1748   6.315   4.816   5.135 -0.3309 -0.0112  0.3624
  438SOL     ow 1749   6.156   0.738   1.654  1.0449 -0.2797  0.4084
  438SOL     hw 1750   6.068   0.725   1.619  0.9677  1.1310  0.0372
  438SOL     hw 1751   6.206   0.662   1.623  0.0671 -0.8840  0.2883
  438SOL     vw 1752   6.151   0.726   1.645  0.9058 -0.1733  0.3436
  439SOL     ow 1753   4.197   6.728   1.221  0.4638 -0.6910 -0.4469
  439SOL     hw 1754   4.285   6.743   1.186  1.3662 -1.1115  1.5027
  439SOL     hw 1755   4.203   6.645   1.268 -0.7863 -0.3885  0.3057
  439SOL     vw 1756   4.209   6.719   1.223  0.4177 -0.7064 -0.0904
  440SOL     ow 1757   0.479   0.501   3.238  0.9281 -0.1793 -0.7122
  440SOL     hw 1758   0.543   0.540   3.299  1.2652 -1.7625 -0.0083
  440SOL     hw 1759   0.533   0.466   3.167  0.6730  0.1041 -1.0488
  440SOL     vw 1760   0.495   0.502   3.237  0.9389 -0.3508 -0.6638
  441SOL     ow 1761   6.906   3.665   3.557  0.4278 -0.3139 -0.0282
  441SOL     hw 1762   6.920   3.691   3.465  3.3932 -2.5434 -0.3443
  441SOL     hw 1763   6.938   3.740   3.607 -0.4712  0.5994 -0.7428
  441SOL     vw 1764   6.912   3.679   3.551  0.7005 -0.4876 -0.1642
  442SOL     ow 1765   5.790   5.836   3.731  0.7398 -0.0547  0.6678
  442SOL     hw 1766   5.802   5.922   3.690  2.9536 -2.1358 -3.5602
  442SOL     hw 1767   5.862   5.829   3.794  2.4560  0.0996 -1.1963
  442SOL     vw 1768   5.801   5.847   3.734  1.2584 -0.3090 -0.1360
  443SOL     ow 1769   3.433   4.672   4.316 -0.3210  0.3235 -0.7172
  443SOL     hw 1770   3.391   4.598   4.273 -0.5004 -0.3271  0.5237
  443SOL     hw 1771   3.365   4.706   4.375  0.2144  0.5976 -0.2568
  443SOL     vw 1772   3.418   4.667   4.318 -0.2739  0.2739 -0.4926
  444SOL     ow 1773   1.701   1.886   2.986  0.2894  0.1068 -0.5756
  444SOL     hw 1774   1.706   1.882   2.891  1.8416 -2.2191 -0.4747
  444SOL     hw 1775   1.609   1.905   3.005 -0.3925 -1.0003 -2.5364
  444SOL     vw 1776   1.690   1.888   2.976  0.4042 -0.3461 -0.8210
  445SOL     ow 1777   4.517   4.091   6.737  0.2338 -0.2662  0.3924
  445SOL     hw 1778   4.445   4.073   6.678  0.3408 -0.9078  0.4548
  445SOL     hw 1779   4.544   4.005   6.770  0.0260  0.0898  1.5434
  445SOL     vw 1780   4.511   4.077   6.734  0.2205 -0.3040  0.5527
  446SOL     ow 1781   5.390   7.113   3.848 -0.1107 -0.1854 -0.2208
  446SOL     hw 1782   5.389   7.198   3.892  1.4594  0.1499 -0.7524
  446SOL     hw 1783   5.351   7.130   3.762 -1.7206 -0.4874  0.4303
  446SOL     vw 1784   5.385   7.127   3.842 -0.1159 -0.1810 -0.2049
  447SOL     ow 1785   4.337   1.466   1.571 -0.5774  0.2796  0.1799
  447SOL     hw 1786   4.284   1.439   1.646 -1.1548 -1.8611 -0.9112
  447SOL     hw 1787   4.284   1.533   1.527 -1.5681 -0.4980  0.1396
  447SOL     vw 1788   4.323   1.471   1.575 -0.7844 -0.1054  0.0306
  448SOL     ow 1789   6.643   4.995   0.838 -0.3251  0.0288 -0.2639
  448SOL     hw 1790   6.557   4.979   0.876 -0.8178 -1.0546 -1.7266
  448SOL     hw 1791   6.703   4.944   0.892 -0.1749  2.6930  2.2692
  448SOL     vw 1792   6.639   4.986   0.850 -0.3703  0.2375 -0.1226
  449SOL     ow 1793   5.224   2.218   4.058  0.0575 -0.3643  0.3843
  449SOL     hw 1794   5.289   2.287   4.060 -0.1494 -0.1470 -0.1281
  449SOL     hw 1795   5.165   2.238   4.131  0.4779 -0.4875  0.7653
  449SOL     vw 1796   5.224   2.230   4.068  0.0854 -0.3518  0.3667
  450SOL     ow 1797   4.745   3.748   1.939 -0.6414  0.1588 -0.2026
  450SOL     hw 1798   4.789   3.672   1.902 -1.7581 -0.2742 -0.6827
  450SOL     hw 1799   4.689   3.713   2.008 -0.0813  0.7291  0.5647
  450SOL     vw 1800   4.743   3.733   1.944 -0.7150  0.1768 -0.1647
  451SOL     ow 1801   5.514   4.708   5.867  0.0348 -0.1500  0.2298
  451SOL     hw 1802   5.469   4.775   5.918  0.2838  0.5819 -0.4855
  451SOL     hw 1803   5.481   4.625   5.901 -1.3856  0.3537  0.1329
  451SOL     vw 1804   5.504   4.706   5.878 -0.1199  0.0131  0.1225
  452SOL     ow 1805   6.517   5.029   6.761  0.2798  0.3473 -0.0836
  452SOL     hw 1806   6.544   4.965   6.696 -0.5640  1.8394 -2.0426
  452SOL     hw 1807   6.590   5.035   6.823  1.3526 -0.7607 -1.2003
  452SOL     vw 1808   6.530   5.022   6.761  0.3099  0.3982 -0.4895
  453SOL     ow 1809   2.044   2.665   6.576 -0.4206 -0.3957 -0.2358
  453SOL     hw 1810   2.083   2.752   6.570  0.7192 -0.8466  0.2175
  453SOL     hw 1811   2.083   2.627   6.655  0.6443 -2.0267 -1.4742
  453SOL     vw 1812   2.054   2.671   6.586 -0.1297 -0.6704 -0.3393
  454SOL     ow 1813   0.442   5.905   3.477 -0.5300  0.3708 -0.3443
  454SOL     hw 1814   0.477   5.854   3.550 -0.9240  1.4929  0.6561
  454SOL     hw 1815   0.422   5.991   3.515 -0.1591  1.1784 -1.9181
  454SOL     vw 1816   0.444   5.909   3.492 -0.5330  0.6254 -0.4199
  455SOL     ow 1817   3.094   4.376   6.865  0.4610  0.0718 -0.2823
  455SOL     hw 1818   3.006   4.379   6.902  0.9600 -1.0146  1.0809
  455SOL     hw 1819   3.109   4.284   6.846  0.6131  0.4730 -2.3504
  455SOL     vw 1820   3.084   4.365   6.867  0.5468 -0.0186 -0.3755
  456SOL     ow 1821   1.359   6.953   5.037  0.3438  0.2424  0.1800
  456SOL     hw 1822   1.323   6.911   4.959  2.8136 -0.4952 -0.6491
  456SOL     hw 1823   1.350   7.046   5.020 -2.8906  0.1893  0.9251
  456SOL     vw 1824   1.353   6.959   5.024  0.2429  0.1380  0.1690
  457SOL     ow 1825   1.415   6.991   3.879 -0.2309  0.0558 -0.2847
  457SOL     hw 1826   1.398   7.037   3.796  0.5810 -0.5750 -0.8144
  457SOL     hw 1827   1.328   6.979   3.918 -0.4393  2.6749  0.2434
  457SOL     vw 1828   1.401   6.996   3.873 -0.1513  0.3183 -0.2848
  458SOL     ow 1829   4.794   2.876   6.296  0.4379  0.4755  0.9975
  458SOL     hw 1830   4.797   2.810   6.227 -2.9940  1.0119  0.1776
  458SOL     hw 1831   4.824   2.956   6.254  3.1908 -0.1216  1.6076
  458SOL     vw 1832   4.798   2.878   6.282  0.3483  0.4673  0.9696
  459SOL     ow 1833   2.087   5.123   5.871 -0.1024  0.3786  0.6006
  459SOL     hw 1834   2.146   5.119   5.946 -0.2255  0.4385  0.7012
  459SOL     hw 1835   2.037   5.041   5.876  1.7008 -0.8896 -0.9230
  459SOL     vw 1836   2.088   5.111   5.882  0.1193  0.2196  0.4127
  460SOL     ow 1837   3.107   7.231   6.811 -0.2560 -1.0186 -0.0136
  460SOL     hw 1838   3.102   7.148   6.859 -2.6865 -0.9452 -0.0347
  460SOL     hw 1839   3.087   7.298   6.876  0.2577 -0.5653 -0.3124
  460SOL     vw 1840   3.104   7.229   6.826 -0.5089 -0.9491 -0.0558
  461SOL     ow 1841   4.792   6.110   2.576 -0.5283  0.7405  0.1508
  461SOL     hw 1842   4.781   6.019   2.549 -0.3224  0.3374  1.3646
  461SOL     hw 1843   4.887   6.121   2.586 -0.0690  2.3075 -3.9201
  461SOL     vw 1844   4.803   6.099   2.574 -0.4404  0.8941 -0.2261
  462SOL     ow 1845   4.660   2.385   3.065  0.0439 -0.0265 -0.6545
  462SOL     hw 1846   4.717   2.370   2.990  0.6398  0.4147 -0.3020
  462SOL     hw 1847   4.713   2.358   3.141 -1.2597 -2.4316 -0.4958
  462SOL     vw 1848   4.675   2.379   3.065 -0.0498 -0.2856 -0.5871
  463SOL     ow 1849   7.227   1.929   4.568  0.5482  0.0003 -0.5023
  463SOL     hw 1850   7.228   1.874   4.489  0.2616 -0.3159 -0.2871
  463SOL     hw 1851   7.245   1.868   4.640 -2.2754 -0.3021  0.0422
  463SOL     vw 1852   7.230   1.913   4.567  0.1378 -0.0813 -0.4020
  464SOL     ow 1853   1.093   5.780   6.652  0.1458  0.0033  0.2205
  464SOL     hw 1854   1.093   5.755   6.744  3.8267  1.0195  0.6703
  464SOL     hw 1855   1.005   5.760   6.621 -1.1147 -0.7010  3.8380
  464SOL     vw 1856   1.082   5.774   6.660  0.4652  0.0441  0.7575
  465SOL     ow 1857   5.669   0.114   4.011  0.1918  0.2494  0.0188
  465SOL     hw 1858   5.670   0.186   4.073 -1.0172  0.3244 -0.0221
  465SOL     hw 1859   5.585   0.122   3.965 -0.7855 -2.1215  1.1765
  465SOL     vw 1860   5.658   0.124   4.013 -0.0968 -0.0535  0.1662
  466SOL     ow 1861   6.449   1.070   0.321 -0.7123 -0.1304  0.0994
  466SOL     hw 1862   6.412   1.050   0.407  2.0206  1.1917  1.7503
  466SOL     hw 1863   6.412   1.155   0.298 -1.5941 -0.5720 -0.1420
  466SOL     vw 1864   6.439   1.078   0.330 -0.4683 -0.0142  0.2853
  467SOL     ow 1865   5.508   5.428   3.580  0.0642  0.1811  0.1687
  467SOL     hw 1866   5.448   5.368   3.534  0.8222  1.5953 -2.9383
  467SOL     hw 1867   5.500   5.510   3.532  1.3821  1.6801  2.3612
  467SOL     vw 1868   5.499   5.431   3.568  0.3381  0.5658  0.0480
  468SOL     ow 1869   2.322   6.912   2.873 -0.2167  0.1885 -0.3803
  468SOL     hw 1870   2.251   6.951   2.925  0.7022  1.0184  0.2982
  468SOL     hw 1871   2.327   6.967   2.795  0.6104  1.0529  0.2490
  468SOL     vw 1872   2.313   6.924   2.870  0.0137  0.4120 -0.2077
  469SOL     ow 1873   2.332   0.479   2.955  0.2080  0.5936 -0.4380
  469SOL     hw 1874   2.332   0.463   3.049 -1.1836  3.6988  0.2045
  469SOL     hw 1875   2.240   0.498   2.934  0.7416  1.5579 -2.1018
  469SOL     vw 1876   2.320   0.479   2.964  0.0950  1.1306 -0.5729
  470SOL     ow 1877   4.507   5.023   0.241  0.2662 -0.4213 -0.2047
  470SOL     hw 1878   4.566   4.953   0.270 -2.0667 -1.1152  3.6538
  470SOL     hw 1879   4.489   5.072   0.321 -0.8270  2.5975 -2.1576
  470SOL     vw 1880   4.513   5.020   0.256 -0.1860 -0.1147  0.0468
  471SOL     ow 1881   1.980   4.646   0.624 -0.3396 -0.1814 -0.3669
  471SOL     hw 1882   2.014   4.590   0.554  0.1572  0.3026 -0.5284
  471SOL     hw 1883   2.013   4.733   0.602 -1.7299  0.3252 -0.5415
  471SOL     vw 1884   1.989   4.650   0.612 -0.4575 -0.0510 -0.4112
  472SOL     ow 1885   2.270   0.840   2.950  0.0361  0.2493  0.0181
  472SOL     hw 1886   2.191   0.838   3.005 -0.4012  1.9707 -0.4874
  472SOL     hw 1887   2.341   0.862   3.011  0.5995 -3.2752  0.8784
  472SOL     vw 1888   2.269   0.843   2.965  0.0527  0.0114  0.0647
  473SOL     ow 1889   2.869   3.587   3.741  0.6729 -0.1708 -0.0902
  473SOL     hw 1890   2.783   3.556   3.712 -0.9288  0.4384  3.4535
  473SOL     hw 1891   2.921   3.507   3.752  0.2522 -0.6282 -1.2293
  473SOL     vw 1892   2.865   3.573   3.738  0.4060 -0.1507  0.2271
  474SOL     ow 1893   5.293   7.145   3.599 -0.0410  0.5856  0.1377
  474SOL     hw 1894   5.362   7.098   3.552 -1.5136 -2.1437  0.5457
  474SOL     hw 1895   5.251   7.199   3.532  1.1077  0.6778 -0.5419
  474SOL     vw 1896   5.297   7.146   3.584 -0.0837  0.2377  0.1019
  475SOL     ow 1897   3.198   5.896   2.297 -0.1840  0.1149 -0.6402
  475SOL     hw 1898   3.286   5.878   2.329  0.1224 -0.1489 -1.5956
  475SOL     hw 1899   3.140   5.863   2.366  0.4533 -0.0874 -0.1900
  475SOL     vw 1900   3.202   5.889   2.310 -0.0595  0.0532 -0.7068
  476SOL     ow 1901   6.050   0.456   5.967 -0.1956  0.5819 -0.5628
  476SOL     hw 1902   5.964   0.461   6.009 -0.6424 -1.0411 -1.2201
  476SOL     hw 1903   6.110   0.435   6.039 -0.6691 -0.2838 -0.4027
  476SOL     vw 1904   6.046   0.454   5.982 -0.3169  0.2536 -0.6287
  477SOL     ow 1905   3.447   6.915   1.117 -0.1495 -0.0566 -0.1525
  477SOL     hw 1906   3.492   6.830   1.115 -1.2762 -0.7031  0.4125
  477SOL     hw 1907   3.403   6.916   1.202 -0.3287  1.0121 -0.2483
  477SOL     vw 1908   3.447   6.904   1.128 -0.3217 -0.0010 -0.0906
  478SOL     ow 1909   5.167   0.114   5.926  0.1981 -0.0089 -0.0259
  478SOL     hw 1910   5.120   0.113   5.843  0.2910  0.6914 -0.0948
  478SOL     hw 1911   5.101   0.139   5.991  0.1605 -0.4030  0.0919
  478SOL     vw 1912   5.152   0.117   5.924  0.2053  0.0315 -0.0196
  479SOL     ow 1913   3.621   0.724   2.644 -0.2071 -0.0285  1.0761
  479SOL     hw 1914   3.582   0.648   2.687 -2.5452 -0.4242 -1.4742
  479SOL     hw 1915   3.685   0.686   2.584 -1.9398 -0.1771 -0.7854
  479SOL     vw 1916   3.625   0.709   2.642 -0.7441 -0.1004  0.4940
  480SOL     ow 1917   6.190   3.306   5.240 -0.1966 -0.0004  0.0125
  480SOL     hw 1918   6.164   3.214   5.233  1.0409 -0.3177 -0.7088
  480SOL     hw 1919   6.273   3.303   5.287  1.1173  0.4979 -2.1363
  480SOL     vw 1920   6.197   3.293   5.245  0.1402  0.0236 -0.3662
  481SOL     ow 1921   3.453   0.175   4.844  0.7396  0.2266  0.0349
  481SOL     hw 1922   3.373   0.224   4.866  0.8151  0.3439  0.0483
  481SOL     hw 1923   3.488   0.219   4.767 -1.0063 -1.8335 -2.1008
  481SOL     vw 1924   3.447   0.187   4.837  0.5192 -0.0298 -0.2453
  482SOL     ow 1925   3.261   1.049   6.940 -0.1073 -0.3524 -0.3067
  482SOL     hw 1926   3.311   0.968   6.954 -1.7223 -1.1468  1.1312
  482SOL     hw 1927   3.174   1.020   6.915 -0.1546  1.0197 -1.9515
  482SOL     vw 1928   3.256   1.035   6.938 -0.3268 -0.2761 -0.3340
  483SOL     ow 1929   2.644   5.292   4.220  0.3900  0.1087  0.0962
  483SOL     hw 1930   2.608   5.207   4.194  1.7072 -0.0532 -1.3323
  483SOL     hw 1931   2.632   5.348   4.144 -0.1105  1.1051  0.8966
  483SOL     vw 1932   2.638   5.288   4.207  0.4977  0.2189  0.0134
  484SOL     ow 1933   5.062   0.411   3.335  0.2857  0.3104 -0.1436
  484SOL     hw 1934   5.015   0.371   3.408  1.5228 -0.3058  0.3370
  484SOL     hw 1935   4.997   0.416   3.265 -1.1818  1.7292  1.2437
  484SOL     vw 1936   5.047   0.407   3.335  0.2553  0.4163  0.1029
  485SOL     ow 1937   2.909   2.523   0.985 -0.3974 -0.3043  0.0271
  485SOL     hw 1938   2.965   2.591   1.023  0.0765 -0.2596 -0.7267
  485SOL     hw 1939   2.965   2.446   0.979 -0.1268 -0.0189 -1.5351
  485SOL     vw 1940   2.924   2.522   0.989 -0.2992 -0.2607 -0.2785
  486SOL     ow 1941   6.316   5.769   6.738 -0.0030  0.2908  0.7335
  486SOL     hw 1942   6.299   5.718   6.818  0.5803 -0.6599  0.2639
  486SOL     hw 1943   6.331   5.858   6.770 -3.5431  0.7840  1.3739
  486SOL     vw 1944   6.316   5.774   6.753 -0.3932  0.2306  0.7560
  487SOL     ow 1945   3.808   3.179   2.861  0.0313  1.0253 -0.3960
  487SOL     hw 1946   3.810   3.097   2.811 -1.8810  1.6190 -1.5540
  487SOL     hw 1947   3.842   3.156   2.947 -0.9879 -1.1292 -0.5131
  487SOL     vw 1948   3.813   3.165   2.866 -0.3556  0.8193 -0.5642
  488SOL     ow 1949   5.682   4.613   1.013 -0.2183 -0.0463  1.1486
  488SOL     hw 1950   5.724   4.543   1.063 -0.0611  0.0342  1.1296
  488SOL     hw 1951   5.588   4.604   1.033 -0.1686 -0.0831  1.3695
  488SOL     vw 1952   5.675   4.602   1.022 -0.1910 -0.0403  1.1752
  489SOL     ow 1953   5.141   1.454   6.436 -0.2736 -0.6325  0.1689
  489SOL     hw 1954   5.071   1.516   6.415 -0.8318 -1.1911  0.3512
  489SOL     hw 1955   5.129   1.433   6.528  2.0102  1.5993  1.0790
  489SOL     vw 1956   5.130   1.459   6.445 -0.0458 -0.4117  0.3130
  490SOL     ow 1957   3.401   1.506   3.382 -0.2689  0.1047  0.6695
  490SOL     hw 1958   3.362   1.419   3.389 -1.0117  0.3910  0.2357
  490SOL     hw 1959   3.462   1.511   3.455 -0.1610 -0.8082  0.6518
  490SOL     vw 1960   3.404   1.495   3.392 -0.3526  0.0221  0.6099
  491SOL     ow 1961   4.636   0.597   2.568  0.5610  0.1481 -0.4543
  491SOL     hw 1962   4.602   0.542   2.497  1.8468 -2.7827  1.0039
  491SOL     hw 1963   4.572   0.585   2.639 -0.0701  2.0535 -0.6532
  491SOL     vw 1964   4.623   0.588   2.568  0.6475  0.0128 -0.2880
  492SOL     ow 1965   0.831   1.429   0.281 -0.0934  0.3873  0.0452
  492SOL     hw 1966   0.758   1.369   0.297 -1.2389  1.7931  0.3129
  492SOL     hw 1967   0.790   1.515   0.276  1.3791  1.0526 -1.3347
  492SOL     vw 1968   0.816   1.432   0.283 -0.0502  0.6606 -0.1016
  493SOL     ow 1969   2.014   0.909   3.046 -1.0579 -0.8816  0.0032
  493SOL     hw 1970   2.063   0.965   3.107 -1.2700 -0.6156 -0.0703
  493SOL     hw 1971   1.958   0.970   2.997  0.5275 -0.8040 -1.8476
  493SOL     vw 1972   2.013   0.925   3.047 -0.8767 -0.8362 -0.2506
  494SOL     ow 1973   0.526   2.579   0.191  0.3257  1.1999  0.0994
  494SOL     hw 1974   0.519   2.597   0.285  0.8631 -2.0784  0.8935
  494SOL     hw 1975   0.619   2.561   0.177  0.0382  0.3015 -0.7283
  494SOL     vw 1976   0.537   2.579   0.202  0.3586  0.6487  0.0950
  495SOL     ow 1977   4.351   6.407   0.113  0.1475 -0.7212 -0.2305
  495SOL     hw 1978   4.444   6.411   0.093  0.3499  1.1636  0.8803
  495SOL     hw 1979   4.312   6.364   0.037  1.6397  0.5841 -1.8165
  495SOL     vw 1980   4.358   6.402   0.100  0.3712 -0.3002 -0.2932
  496SOL     ow 1981   2.241   3.268   2.567  0.0079  0.0427 -0.0873
  496SOL     hw 1982   2.219   3.232   2.653 -0.8417  2.1093  0.6100
  496SOL     hw 1983   2.234   3.363   2.578  3.9652  0.6390 -1.3165
  496SOL     vw 1984   2.237   3.276   2.580  0.4179  0.3941 -0.1576
  497SOL     ow 1985   2.993   1.762   1.119 -0.1997  0.3134 -0.7923
  497SOL     hw 1986   2.991   1.680   1.169  0.5834  1.1787  0.7308
  497SOL     hw 1987   2.901   1.780   1.100 -0.3851 -0.9166 -1.1826
  497SOL     vw 1988   2.980   1.753   1.123 -0.1209  0.2654 -0.6428
  498SOL     ow 1989   5.471   3.014   2.475 -0.7543  0.5037  0.1125
  498SOL     hw 1990   5.399   3.006   2.537 -1.2065 -1.3679 -0.5909
  498SOL     hw 1991   5.430   3.010   2.389 -0.0793  2.5275 -0.3780
  498SOL     vw 1992   5.456   3.013   2.472 -0.7248  0.5238 -0.0451
  499SOL     ow 1993   5.825   6.611   5.953  0.2749  0.0409 -0.4607
  499SOL     hw 1994   5.854   6.602   5.863  0.1842  0.8517 -0.5786
  499SOL     hw 1995   5.905   6.630   6.002  0.1676  0.7887 -0.5600
  499SOL     vw 1996   5.839   6.612   5.948  0.2489  0.2463 -0.4895
  500SOL     ow 1997   0.060   1.004   5.526 -0.4344  0.2529  0.3900
  500SOL     hw 1998   0.010   0.927   5.498 -0.5942  0.3912  0.2953
  500SOL     hw 1999  -0.006   1.065   5.559 -0.1733 -0.2810  1.9849
  500SOL     vw 2000   0.045   1.002   5.527 -0.4210  0.2007  0.5879
  501SOL     ow 2001   2.907   4.004   4.163  0.1201  0.1825 -0.5638
  501SOL     hw 2002   2.818   4.032   4.142  0.0289  0.8524  0.6592
  501SOL     hw 2003   2.898   3.950   4.241  0.6461 -0.8858 -1.2114
  501SOL     vw 2004   2.894   4.001   4.170  0.1776  0.1299 -0.4878
  502SOL     ow 2005   3.253   2.992   2.339  0.3731 -0.1200 -0.7018
  502SOL     hw 2006   3.307   2.922   2.376  0.0877  0.1180  0.1846
  502SOL     hw 2007   3.313   3.065   2.326  0.5524 -0.3317 -1.0732
  502SOL     vw 2008   3.268   2.992   2.342  0.3589 -0.1166 -0.6338
  503SOL     ow 2009   4.703   2.039   4.781 -0.3249 -0.1634 -0.1474
  503SOL     hw 2010   4.662   2.098   4.844  1.3795 -0.5449  1.4119
  503SOL     hw 2011   4.796   2.041   4.804 -0.1206 -3.0593 -0.3336
  503SOL     vw 2012   4.710   2.047   4.792 -0.0730 -0.5958  0.0336
  504SOL     ow 2013   2.889   4.213   6.538 -0.5105  0.2235 -0.1741
  504SOL     hw 2014   2.838   4.135   6.518 -2.0780  1.5243 -1.5365
  504SOL     hw 2015   2.865   4.236   6.628  0.8382 -1.4472  0.6643
  504SOL     vw 2016   2.879   4.206   6.547 -0.5393  0.1745 -0.2429
  505SOL     ow 2017   4.838   1.228   3.394 -0.2063 -0.5112 -0.3207
  505SOL     hw 2018   4.842   1.242   3.299 -1.2189 -0.2852 -0.3368
  505SOL     hw 2019   4.911   1.279   3.429  0.9205 -1.5554 -1.0682
  505SOL     vw 2020   4.848   1.236   3.386 -0.1912 -0.6192 -0.4214
  506SOL     ow 2021   4.678   3.407   3.726  0.2832 -0.4891 -0.2702
  506SOL     hw 2022   4.739   3.426   3.654  0.7606  1.2639  0.5270
  506SOL     hw 2023   4.731   3.418   3.805 -0.1419 -2.7456  0.3823
  506SOL     vw 2024   4.693   3.411   3.727  0.2902 -0.5556 -0.0789
  507SOL     ow 2025   7.159   6.617   4.944 -0.0008  0.6494  0.2726
  507SOL     hw 2026   7.237   6.582   4.987 -0.1687  1.6744  1.4560
  507SOL     hw 2027   7.169   6.591   4.852  0.2789 -1.7425  0.9072
  507SOL     vw 2028   7.171   6.609   4.937  0.0141  0.4692  0.5126
  508SOL     ow 2029   4.888   1.906   0.163  0.2103  0.1715  0.2919
  508SOL     hw 2030   4.881   2.000   0.176  0.7878  0.1902  0.4691
  508SOL     hw 2031   4.850   1.868   0.242  1.4777  0.2710  0.9629
  508SOL     vw 2032   4.882   1.913   0.175  0.4537  0.1872  0.4038
  509SOL     ow 2033   4.782   6.039   6.887  0.2853 -0.3721 -0.0960
  509SOL     hw 2034   4.803   6.036   6.980 -2.4043  0.1626  0.6161
  509SOL     hw 2035   4.825   5.962   6.850  0.2036 -1.4379  1.8764
  509SOL     vw 2036   4.791   6.029   6.894 -0.0803 -0.4423  0.2582
  510SOL     ow 2037   2.799   4.638   2.881 -0.3060  0.0256  0.1123
  510SOL     hw 2038   2.798   4.696   2.957 -0.9860 -2.0228  1.7633
  510SOL     hw 2039   2.836   4.556   2.914  0.5728 -0.5551 -2.1106
  510SOL     vw 2040   2.804   4.635   2.895 -0.2795 -0.3211  0.0370
  511SOL     ow 2041   0.544   3.573   2.306 -0.4476  0.6835 -0.0975
  511SOL     hw 2042   0.606   3.546   2.238 -1.2374  1.7879 -1.3178
  511SOL     hw 2043   0.500   3.492   2.332  0.5492  0.0984 -0.2025
  511SOL     vw 2044   0.546   3.559   2.301 -0.4202  0.7520 -0.2723
  512SOL     ow 2045   0.760   4.888   3.603 -0.0780  0.0338  0.5040
  512SOL     hw 2046   0.668   4.869   3.585 -0.0772  0.1861  0.3329
  512SOL     hw 2047   0.772   4.979   3.574  0.0129  0.1629  0.9431
  512SOL     vw 2048   0.750   4.898   3.597 -0.0659  0.0710  0.5393
  513SOL     ow 2049   4.512   5.814   3.188 -0.3351 -0.4364 -0.1203
  513SOL     hw 2050   4.542   5.878   3.253  0.3030  0.4446 -1.2345
  513SOL     hw 2051   4.539   5.729   3.222 -1.2791 -0.1478  1.4476
  513SOL     vw 2052   4.519   5.812   3.201 -0.3753 -0.2818 -0.0606
  514SOL     ow 2053   5.636   0.562   0.079  0.0178  0.6971  0.0701
  514SOL     hw 2054   5.651   0.622   0.006 -0.9722  0.0590 -0.6883
  514SOL     hw 2055   5.543   0.540   0.073  0.0803  0.0770  1.1034
  514SOL     vw 2056   5.626   0.567   0.068 -0.1047  0.5311  0.1064
  515SOL     ow 2057   5.519   5.835   3.642  0.3397  0.4154 -0.2275
  515SOL     hw 2058   5.609   5.835   3.674  0.3255  0.5321 -0.1882
  515SOL     hw 2059   5.476   5.906   3.690 -0.1704 -0.6128  0.8967
  515SOL     vw 2060   5.525   5.844   3.653  0.2704  0.2952 -0.0739
  516SOL     ow 2061   0.792   3.232   4.072 -0.2946 -0.0943  0.3514
  516SOL     hw 2062   0.870   3.280   4.099  1.8303 -4.5576  3.2833
  516SOL     hw 2063   0.730   3.244   4.144 -1.3983  1.2929 -0.7616
  516SOL     vw 2064   0.794   3.240   4.085 -0.1599 -0.5002  0.5910
  517SOL     ow 2065   6.330   5.737   0.217  0.2933  0.0013 -0.1743
  517SOL     hw 2066   6.239   5.721   0.242  0.0504  1.9399  0.2611
  517SOL     hw 2067   6.380   5.730   0.299  0.0320  2.3721  0.2460
  517SOL     vw 2068   6.325   5.734   0.231  0.2267  0.5698 -0.0614
  518SOL     ow 2069   1.672   6.567   7.014 -0.8126 -0.0067 -0.3799
  518SOL     hw 2070   1.678   6.522   6.930  0.7714 -0.4795 -0.0345
  518SOL     hw 2071   1.671   6.660   6.991 -1.5546 -0.1481 -0.9637
  518SOL     vw 2072   1.672   6.573   7.000 -0.7015 -0.0880 -0.4115
  519SOL     ow 2073   1.679   2.436   7.184  0.4178  0.4880  0.8022
  519SOL     hw 2074   1.670   2.367   7.118  0.4143  1.9828 -0.8211
  519SOL     hw 2075   1.762   2.417   7.227 -0.3210 -1.4104  1.4944
  519SOL     vw 2076   1.689   2.424   7.181  0.3198  0.4349  0.6793
  520SOL     ow 2077   5.955   3.110   2.705  0.3100  0.1420  0.3864
  520SOL     hw 2078   5.932   3.201   2.724  0.4104  0.4390 -0.8362
  520SOL     hw 2079   6.012   3.084   2.777  1.7293  1.6165 -0.1424
  520SOL     vw 2080   5.959   3.119   2.717  0.5105  0.3757  0.1553
  521SOL     ow 2081   1.755   5.986   6.421 -0.6678 -0.3388 -0.1442
  521SOL     hw 2082   1.779   5.908   6.372  1.2467 -0.8031  1.3996
  521SOL     hw 2083   1.703   5.954   6.495 -0.7921 -0.0413 -0.0995
  521SOL     vw 2084   1.752   5.972   6.425 -0.4316 -0.3610  0.0653
  522SOL     ow 2085   2.871   0.352   0.662 -0.0858  0.3306 -0.2495
  522SOL     hw 2086   2.892   0.392   0.577  1.4544 -1.8289 -0.9647
  522SOL     hw 2087   2.873   0.425   0.724  0.4099  1.7006 -1.8041
  522SOL     vw 2088   2.874   0.367   0.659  0.1829  0.2264 -0.5490
  523SOL     ow 2089   6.957   2.844   6.445  0.2900 -0.1079 -0.0278
  523SOL     hw 2090   6.915   2.761   6.420 -0.1015 -0.0926  0.5390
  523SOL     hw 2091   6.973   2.834   6.539 -0.5643  0.7999  0.2276
  523SOL     vw 2092   6.953   2.832   6.454  0.1259  0.0138  0.0808
  524SOL     ow 2093   1.279   5.722   6.378  0.0865  0.0690 -0.1532
  524SOL     hw 2094   1.295   5.772   6.298  0.3059 -1.2968 -1.0107
  524SOL     hw 2095   1.362   5.676   6.394 -0.0498  0.1038  0.7035
  524SOL     vw 2096   1.292   5.722   6.369  0.0975 -0.1063 -0.1533
  525SOL     ow 2097   7.011   2.812   5.115  0.2510  0.2710  0.5262
  525SOL     hw 2098   7.103   2.792   5.135  0.5986 -0.2284 -1.3955
  525SOL     hw 2099   6.961   2.752   5.170  1.1127 -0.6105  0.3768
  525SOL     vw 2100   7.017   2.802   5.125  0.4103  0.0888  0.2530
  526SOL     ow 2101   1.377   4.380   0.440 -0.1379  0.6766 -0.1520
  526SOL     hw 2102   1.448   4.353   0.381 -0.4831 -1.9132  0.4973
  526SOL     hw 2103   1.306   4.318   0.421 -1.0072  1.1013  1.5549
  526SOL     vw 2104   1.377   4.368   0.430 -0.2981  0.3910  0.1589
  527SOL     ow 2105   4.445   4.840   3.479 -0.0670 -0.0389  0.5376
  527SOL     hw 2106   4.512   4.857   3.413 -0.7818  0.1181 -0.1671
  527SOL     hw 2107   4.370   4.807   3.429 -1.2076  1.6357  1.0597
  527SOL     vw 2108   4.444   4.837   3.464 -0.3119  0.2029  0.5134
  528SOL     ow 2109   5.126   4.708   4.595  0.3888 -0.5775  0.0649
  528SOL     hw 2110   5.047   4.736   4.642  0.7808  1.4019 -0.3285
  528SOL     hw 2111   5.194   4.705   4.663  0.1528 -1.4635  0.2631
  528SOL     vw 2112   5.124   4.712   4.611  0.4094 -0.4332  0.0389
  529SOL     ow 2113   2.598   3.650   6.963 -0.4656 -0.5591  0.3214
  529SOL     hw 2114   2.684   3.680   6.994 -1.6252  0.1931  3.1396
  529SOL     hw 2115   2.614   3.622   6.873  2.0508  2.7666 -0.4986
  529SOL     vw 2116   2.612   3.650   6.955 -0.2867 -0.0210  0.5853
  530SOL     ow 2117   6.300   4.076   0.399  0.5814  0.0185 -0.6776
  530SOL     hw 2118   6.241   4.099   0.327  0.2792  1.2368 -0.0770
  530SOL     hw 2119   6.253   4.104   0.478  1.4049 -0.2087 -0.0909
  530SOL     vw 2120   6.286   4.083   0.400  0.6502  0.1493 -0.5210
  531SOL     ow 2121   0.666   1.883   2.986  1.0393 -0.4448 -0.0013
  531SOL     hw 2122   0.686   1.976   2.985  2.3052 -0.6864  0.2564
  531SOL     hw 2123   0.637   1.865   3.075 -0.6570 -0.0424 -0.4429
  531SOL     vw 2124   0.665   1.893   2.998  0.9825 -0.4236 -0.0257
  532SOL     ow 2125   6.045   0.630   6.496  0.7720 -0.3286  0.1223
  532SOL     hw 2126   6.107   0.561   6.521  0.0995 -1.9697 -2.3329
  532SOL     hw 2127   5.962   0.584   6.485  0.8729  0.1315 -4.3894
  532SOL     vw 2128   6.042   0.614   6.498  0.6967 -0.4845 -0.7970
  533SOL     ow 2129   5.939   5.818   0.455 -0.1916  0.7466 -0.3706
  533SOL     hw 2130   5.870   5.825   0.521  0.4058 -0.6427  0.4496
  533SOL     hw 2131   5.982   5.904   0.457 -1.8388  1.6179 -0.8786
  533SOL     vw 2132   5.936   5.830   0.464 -0.3300  0.6783 -0.3294
  534SOL     ow 2133   2.877   4.193   4.904 -0.3564  0.3217  0.0944
  534SOL     hw 2134   2.934   4.122   4.874 -1.2696  0.0255 -1.0147
  534SOL     hw 2135   2.828   4.155   4.977  0.6110  0.4811  0.8492
  534SOL     vw 2136   2.878   4.179   4.910 -0.3492  0.3035  0.0472
  535SOL     ow 2137   5.241   3.318   0.856 -0.2244  0.0974  0.0183
  535SOL     hw 2138   5.331   3.312   0.889  0.1467 -0.2839 -1.0229
  535SOL     hw 2139   5.202   3.233   0.875  0.2735 -0.4434 -1.2904
  535SOL     vw 2140   5.248   3.306   0.863 -0.1099 -0.0241 -0.2918
  536SOL     ow 2141   0.177   1.709   7.123 -0.0945 -0.1975  0.4063
  536SOL     hw 2142   0.107   1.677   7.180 -0.7277  0.7885  0.1978
  536SOL     hw 2143   0.147   1.795   7.094  1.1725  0.2046  0.2479
  536SOL     vw 2144   0.164   1.716   7.127 -0.0109 -0.0144  0.3579
  537SOL     ow 2145   6.209   1.346   3.042  0.1034 -0.2482  0.6458
  537SOL     hw 2146   6.278   1.379   3.100 -0.4131 -0.2974  1.3103
  537SOL     hw 2147   6.224   1.390   2.959  1.5994 -1.0839  0.4387
  537SOL     vw 2148   6.220   1.356   3.039  0.2327 -0.3650  0.7060
  538SOL     ow 2149   2.757   1.477   6.219 -0.9223  0.5405  0.2417
  538SOL     hw 2150   2.801   1.471   6.134 -2.3648  3.7102 -0.8703
  538SOL     hw 2151   2.773   1.392   6.260  3.2085  0.2588 -1.4749
  538SOL     vw 2152   2.765   1.465   6.213 -0.5676  0.9215 -0.1314
  539SOL     ow 2153   3.371   3.789   3.275  0.1388  0.0668 -0.2762
  539SOL     hw 2154   3.323   3.858   3.229  0.7513  1.5997  1.2448
  539SOL     hw 2155   3.463   3.805   3.253  0.3498  0.2189  0.6741
  539SOL     vw 2156   3.377   3.800   3.266  0.2476  0.2890  0.0498
  540SOL     ow 2157   4.683   1.685   1.785  0.3400 -0.3246 -0.4436
  540SOL     hw 2158   4.644   1.667   1.699 -0.2527  0.0790 -0.2672
  540SOL     hw 2159   4.663   1.778   1.801 -0.7455 -0.7323  0.7210
  540SOL     vw 2160   4.675   1.695   1.776  0.1185 -0.3251 -0.2667
  541SOL     ow 2161   4.498   0.105   1.650 -0.2535 -0.0207  0.2310
  541SOL     hw 2162   4.530   0.167   1.716  1.3135  0.3151 -0.8019
  541SOL     hw 2163   4.439   0.047   1.699  1.5599 -0.3640  2.1675
  541SOL     vw 2164   4.494   0.106   1.665  0.1926 -0.0217  0.3501
  542SOL     ow 2165   1.794   2.055   3.273 -0.1767  0.6605 -0.0156
  542SOL     hw 2166   1.872   2.057   3.328 -0.4865 -0.9314  0.5292
  542SOL     hw 2167   1.744   2.132   3.301  0.6063  0.9987  0.5058
  542SOL     vw 2168   1.797   2.065   3.284 -0.1143  0.4950  0.1252
  543SOL     ow 2169   5.982   2.884   1.901 -0.2776 -0.5820  0.2425
  543SOL     hw 2170   5.918   2.814   1.912 -0.7196 -0.1739  0.3112
  543SOL     hw 2171   6.067   2.839   1.896 -0.5808 -1.1340 -0.0008
  543SOL     vw 2172   5.985   2.869   1.902 -0.3757 -0.6011  0.2195
  544SOL     ow 2173   1.369   2.176   4.262 -0.2643  0.6694 -0.0645
  544SOL     hw 2174   1.298   2.216   4.211 -0.0126  1.8409  0.4652
  544SOL     hw 2175   1.331   2.164   4.350  0.3964  2.0237  0.4379
  544SOL     vw 2176   1.354   2.180   4.267 -0.1439  1.0027  0.0718
  545SOL     ow 2177   5.336   4.851   2.874  0.0008 -0.4730 -0.0763
  545SOL     hw 2178   5.345   4.760   2.843 -1.0884 -0.6662  0.1371
  545SOL     hw 2179   5.302   4.898   2.798  0.2470 -0.3042 -0.0831
  545SOL     vw 2180   5.333   4.845   2.860 -0.1106 -0.4761 -0.0490
  546SOL     ow 2181   5.359   5.564   3.061 -0.2511  0.1873  0.5436
  546SOL     hw 2182   5.408   5.642   3.035 -0.1884  0.0770  0.3298
  546SOL     hw 2183   5.350   5.513   2.980  0.0917 -0.2405  0.7693
  546SOL     vw 2184   5.364   5.568   3.046 -0.1974  0.1161  0.5450
  547SOL     ow 2185   5.671   2.692   5.552 -0.9013 -0.3318 -1.1835
  547SOL     hw 2186   5.678   2.599   5.531 -2.2303 -0.4924 -0.9874
  547SOL     hw 2187   5.704   2.737   5.475  0.8343 -0.9464 -0.8509
  547SOL     vw 2188   5.676   2.686   5.539 -0.8476 -0.4340 -1.1137
  548SOL     ow 2189   6.207   0.637   5.183  0.4300  0.5059 -0.0413
  548SOL     hw 2190   6.254   0.646   5.265  2.1725 -1.0934 -0.7875
  548SOL     hw 2191   6.203   0.543   5.167 -2.7242  0.5636 -0.2591
  548SOL     vw 2192   6.213   0.626   5.191  0.2437  0.3026 -0.1688
  549SOL     ow 2193   3.869   2.722   5.051  0.0752 -0.3953  0.4729
  549SOL     hw 2194   3.939   2.689   4.995 -2.7664 -2.0794 -2.4490
  549SOL     hw 2195   3.829   2.793   5.000 -2.3812 -1.7119  0.4244
  549SOL     vw 2196   3.873   2.727   5.037 -0.6238 -0.7912  0.0811
  550SOL     ow 2197   5.603   2.717   3.618 -0.0370  0.1742  0.2157
  550SOL     hw 2198   5.508   2.715   3.632 -0.4528 -1.8638 -2.1232
  550SOL     hw 2199   5.620   2.804   3.582 -1.1821  0.2813 -0.1187
  550SOL     vw 2200   5.593   2.728   3.615 -0.2432 -0.0807 -0.1369
  551SOL     ow 2201   4.674   5.117   2.110 -0.5176  0.6656 -0.2205
  551SOL     hw 2202   4.697   5.104   2.202 -2.9422 -1.1351  0.2175
  551SOL     hw 2203   4.582   5.144   2.112 -1.4854 -2.0828 -2.1550
  551SOL     vw 2204   4.665   5.119   2.122 -0.9654  0.0656 -0.4179
  552SOL     ow 2205   6.085   2.088   1.293  0.0752  0.1576 -0.5820
  552SOL     hw 2206   6.050   2.031   1.224  0.4897  0.1193 -0.7654
  552SOL     hw 2207   6.140   2.030   1.346 -1.6175 -0.2266  0.8530
  552SOL     vw 2208   6.088   2.073   1.291 -0.0935  0.1019 -0.4169
  553SOL     ow 2209   6.993   2.876   6.950  0.5884 -0.0738 -0.6947
  553SOL     hw 2210   7.061   2.935   6.984 -0.4568 -0.4591  2.3950
  553SOL     hw 2211   6.918   2.934   6.935  0.3726 -0.2276 -0.2126
  553SOL     vw 2212   6.992   2.892   6.952  0.4220 -0.1448 -0.2236
  554SOL     ow 2213   2.656   2.999   7.089  0.1307 -0.0037  0.0006
  554SOL     hw 2214   2.750   2.988   7.079  0.2707  0.7160  0.4350
  554SOL     hw 2215   2.628   2.924   7.142  0.2219 -0.9702 -1.2688
  554SOL     vw 2216   2.665   2.988   7.094  0.1612 -0.0364 -0.1097
  555SOL     ow 2217   6.223   1.603   2.343 -0.6443  0.9291 -0.5494
  555SOL     hw 2218   6.149   1.632   2.396 -0.3983  2.1192 -0.8286
  555SOL     hw 2219   6.184   1.539   2.282 -0.5225 -2.3585  2.4842
  555SOL     vw 2220   6.208   1.598   2.342 -0.5958  0.6523 -0.1861
  556SOL     ow 2221   3.293   0.886   4.872 -0.3668 -0.0518  0.0072
  556SOL     hw 2222   3.256   0.798   4.868  0.4178 -0.3600 -1.0263
  556SOL     hw 2223   3.240   0.931   4.937 -1.3147 -1.0379 -0.0405
  556SOL     vw 2224   3.281   0.880   4.880 -0.3884 -0.2226 -0.1352
  557SOL     ow 2225   3.002   0.426   4.611 -1.2550 -0.4232 -0.1138
  557SOL     hw 2226   2.968   0.513   4.590 -2.3099 -0.8839 -0.4174
  557SOL     hw 2227   2.972   0.410   4.700  0.5530  0.2686  0.6523
  557SOL     vw 2228   2.994   0.435   4.620 -1.1557 -0.3927 -0.0527
  558SOL     ow 2229   4.434   4.760   0.815  0.1275  0.5525 -0.7089
  558SOL     hw 2230   4.378   4.715   0.879  1.4227 -2.1859 -1.3330
  558SOL     hw 2231   4.380   4.831   0.782 -3.1209 -1.9878 -1.4156
  558SOL     vw 2232   4.420   4.763   0.819 -0.1302 -0.1438 -0.8845
  559SOL     ow 2233   1.988   6.889   7.110 -0.4690 -0.3533  0.2109
  559SOL     hw 2234   2.060   6.935   7.067 -0.4719  1.9409  2.3805
  559SOL     hw 2235   1.911   6.941   7.090 -0.7595 -0.3013  1.3764
  559SOL     vw 2236   1.988   6.902   7.102 -0.5077 -0.0441  0.6509
  560SOL     ow 2237   6.759   3.287   6.188 -0.0416 -0.9059  0.0207
  560SOL     hw 2238   6.695   3.282   6.118 -0.8759  2.2573  0.4325
  560SOL     hw 2239   6.842   3.264   6.146 -0.6969 -0.2563 -1.7146
  560SOL     vw 2240   6.762   3.283   6.173 -0.2379 -0.4028 -0.1540
  561SOL     ow 2241   0.715   4.230   5.873  0.0792 -0.7354  0.3974
  561SOL     hw 2242   0.768   4.209   5.951  0.9094  1.7289  0.5676
  561SOL     hw 2243   0.768   4.293   5.824 -2.5712  1.7749  0.5090
  561SOL     vw 2244   0.729   4.235   5.877 -0.1610 -0.0792  0.4346
  562SOL     ow 2245   0.154   4.504   4.254 -0.0956  0.2723 -0.0765
  562SOL     hw 2246   0.204   4.535   4.330 -1.2710 -0.2750  0.9604
  562SOL     hw 2247   0.091   4.575   4.237  0.4302  0.5762 -0.8269
  562SOL     vw 2248   0.152   4.518   4.262 -0.1813  0.2403 -0.0386
  563SOL     ow 2249   6.158   3.562   4.576 -0.4807  0.3813  0.0504
  563SOL     hw 2250   6.182   3.508   4.652 -0.9272  1.2129  0.7968
  563SOL     hw 2251   6.120   3.500   4.514 -1.2022 -0.1314  0.9814
  563SOL     vw 2252   6.156   3.547   4.578 -0.6347  0.4232  0.2720
  564SOL     ow 2253   5.387   1.772   4.125 -0.1647  0.0148 -0.0480
  564SOL     hw 2254   5.481   1.762   4.109 -0.2950 -0.6374 -0.4434
  564SOL     hw 2255   5.358   1.685   4.153 -0.9795 -0.2861 -1.7092
  564SOL     vw 2256   5.396   1.759   4.127 -0.2894 -0.1109 -0.3190
  565SOL     ow 2257   6.923   3.048   5.048  0.3633 -0.0090 -0.1001
  565SOL     hw 2258   6.836   3.060   5.088  0.2916 -1.2334  0.1387
  565SOL     hw 2259   6.961   2.975   5.096  1.6432  0.6747 -0.0388
  565SOL     vw 2260   6.917   3.040   5.060  0.5229 -0.0803 -0.0606
  566SOL     ow 2261   0.408   1.188   1.793 -0.0079  0.4819 -0.2602
  566SOL     hw 2262   0.468   1.246   1.840  0.5901 -0.0979 -0.2871
  566SOL     hw 2263   0.453   1.103   1.792 -0.8462  0.0291 -0.2580
  566SOL     vw 2264   0.422   1.184   1.799 -0.0396  0.3456 -0.2635
  567SOL     ow 2265   4.682   4.318   6.121  0.1794 -0.5219 -0.0744
  567SOL     hw 2266   4.769   4.358   6.130  0.7486 -2.0085  1.7372
  567SOL     hw 2267   4.676   4.257   6.195 -1.8381 -1.5198 -0.9796
  567SOL     vw 2268   4.693   4.315   6.132 -0.0119 -0.8497  0.0451
  568SOL     ow 2269   5.596   0.290   5.789 -0.2662  0.2359 -0.1771
  568SOL     hw 2270   5.604   0.333   5.704 -1.5676 -0.9100 -0.9237
  568SOL     hw 2271   5.540   0.214   5.772  2.5323 -2.2562  0.8676
  568SOL     vw 2272   5.590   0.286   5.776 -0.0687 -0.2441 -0.1376
  569SOL     ow 2273   5.739   5.190   2.554  0.4017 -0.0215 -0.3352
  569SOL     hw 2274   5.696   5.235   2.481 -1.4310 -2.5236 -0.9322
  569SOL     hw 2275   5.733   5.097   2.532  3.3736 -0.6941  1.1436
  569SOL     vw 2276   5.732   5.184   2.541  0.5517 -0.4401 -0.2187
  570SOL     ow 2277   3.540   0.177   3.133 -0.0474 -0.1832 -0.6846
  570SOL     hw 2278   3.487   0.254   3.154  1.1816  0.7876 -1.0474
  570SOL     hw 2279   3.506   0.148   3.048 -1.0685 -0.5709 -0.1657
  570SOL     vw 2280   3.529   0.183   3.124 -0.0199 -0.1063 -0.6641
  571SOL     ow 2281   5.828   0.522   0.281 -0.5768 -0.0497 -0.4486
  571SOL     hw 2282   5.779   0.552   0.204 -0.0482  2.8874  0.2408
  571SOL     hw 2283   5.777   0.554   0.355  0.9449  0.6930  0.3180
  571SOL     vw 2284   5.815   0.530   0.280 -0.3061  0.4358 -0.2565
  572SOL     ow 2285   2.470   3.576   5.812  0.1419  0.6859  0.0188
  572SOL     hw 2286   2.513   3.555   5.895  0.0994  4.5126  1.1910
  572SOL     hw 2287   2.390   3.523   5.812  1.3439 -1.2463  1.1639
  572SOL     vw 2288   2.465   3.566   5.823  0.2948  0.9358  0.3245
  573SOL     ow 2289   3.299   1.972   5.408  1.0675 -0.0464 -0.3212
  573SOL     hw 2290   3.216   1.927   5.394 -0.1533  2.0692 -0.0922
  573SOL     hw 2291   3.355   1.906   5.450 -1.6586 -0.4809  2.9887
  573SOL     vw 2292   3.296   1.957   5.411  0.5467  0.1754  0.1457
  574SOL     ow 2293   0.083   3.993   4.743  0.0254  0.4348 -0.4620
  574SOL     hw 2294   0.079   4.086   4.763  1.4728  0.6137 -0.9337
  574SOL     hw 2295   0.176   3.971   4.745 -0.0624 -0.4410 -2.8050
  574SOL     vw 2296   0.095   4.002   4.746  0.2048  0.3426 -0.8335
  575SOL     ow 2297   1.116   6.360   1.371  0.1982 -0.3704 -0.7921
  575SOL     hw 2298   1.207   6.384   1.352 -0.2254  0.8521 -1.3549
  575SOL     hw 2299   1.123   6.275   1.415  1.5886 -0.4658 -1.1364
  575SOL     vw 2300   1.129   6.352   1.374  0.3257 -0.2217 -0.9118
  576SOL     ow 2301   6.235   1.021   0.136 -0.0485  0.4637  0.0670
  576SOL     hw 2302   6.147   1.030   0.173 -0.6624 -2.8146 -0.3207
  576SOL     hw 2303   6.292   1.007   0.211 -0.1486  0.7701  0.2013
  576SOL     vw 2304   6.231   1.021   0.151 -0.1426  0.0717  0.0335
  577SOL     ow 2305   6.066   5.059   5.200  0.0898  0.3983  0.1511
  577SOL     hw 2306   6.145   5.111   5.184  0.5969 -0.9498 -2.0864
  577SOL     hw 2307   6.037   5.032   5.113 -1.4381 -1.1990  1.1032
  577SOL     vw 2308   6.072   5.062   5.187 -0.0451  0.0095 -0.0184
  578SOL     ow 2309   6.530   4.742   1.440  0.1501 -0.3055  0.2548
  578SOL     hw 2310   6.556   4.833   1.427 -0.6655  0.0189  0.8348
  578SOL     hw 2311   6.438   4.739   1.413  0.4751 -1.2173 -0.8463
  578SOL     vw 2312   6.521   4.753   1.435  0.0856 -0.3829  0.1861
  579SOL     ow 2313   1.567   2.247   4.034 -0.6949  0.6048  0.2081
  579SOL     hw 2314   1.636   2.297   3.991 -0.7213  0.5097  0.0549
  579SOL     hw 2315   1.503   2.231   3.965 -0.2068 -0.5275 -0.0102
  579SOL     vw 2316   1.568   2.251   4.019 -0.6340  0.4430  0.1590
  580SOL     ow 2317   0.532   1.060   4.554  0.3997  0.0658  0.3438
  580SOL     hw 2318   0.613   1.095   4.517  1.0876 -1.9421 -0.1958
  580SOL     hw 2319   0.476   1.043   4.478 -0.1478  0.5001  0.6390
  580SOL     vw 2320   0.535   1.062   4.539  0.4183 -0.1418  0.3116
  581SOL     ow 2321   5.978   2.353   3.932 -0.1560  0.2363 -0.4267
  581SOL     hw 2322   6.021   2.299   3.998 -0.8394 -1.0904 -1.0351
  581SOL     hw 2323   6.041   2.358   3.860  0.1315  0.7320 -0.1454
  581SOL     vw 2324   5.992   2.347   3.931 -0.2081  0.1266 -0.4699
  582SOL     ow 2325   2.993   5.377   3.403  0.5089 -1.1715 -0.0810
  582SOL     hw 2326   3.013   5.461   3.445  1.2888 -0.4339 -1.8049
  582SOL     hw 2327   3.047   5.377   3.324 -0.0159 -2.9991 -0.4781
  582SOL     vw 2328   3.002   5.388   3.398  0.5425 -1.3151 -0.3610
  583SOL     ow 2329   5.554   2.217   4.844  0.5475 -0.1310 -0.0351
  583SOL     hw 2330   5.586   2.190   4.930  0.0277  1.1007  0.5590
  583SOL     hw 2331   5.631   2.215   4.788  1.0724 -0.0508  0.6784
  583SOL     vw 2332   5.568   2.213   4.848  0.5481  0.0421  0.1376
  584SOL     ow 2333   7.107   4.895   0.538  0.6173  0.2912 -0.5502
  584SOL     hw 2334   7.067   4.882   0.452  2.3276  0.6557 -1.4455
  584SOL     hw 2335   7.084   4.817   0.588 -0.9525  0.3738 -1.0874
  584SOL     vw 2336   7.099   4.883   0.533  0.6359  0.3500 -0.7392
  585SOL     ow 2337   4.885   0.965   2.654 -0.6190 -0.0008 -0.3945
  585SOL     hw 2338   4.952   0.982   2.589  1.5883 -0.1337  1.7048
  585SOL     hw 2339   4.896   1.035   2.719 -3.2031  0.5566 -0.4364
  585SOL     vw 2340   4.895   0.977   2.654 -0.6690  0.0552 -0.1229
  586SOL     ow 2341   2.296   4.612   2.716  0.3048  0.3782 -0.1641
  586SOL     hw 2342   2.335   4.590   2.631 -1.3712 -0.0161 -0.8891
  586SOL     hw 2343   2.348   4.685   2.749  1.0827  0.4438 -1.4633
  586SOL     vw 2344   2.308   4.619   2.709  0.1863  0.3350 -0.4311
  587SOL     ow 2345   3.574   6.469   4.257  0.4429  0.4234 -0.0062
  587SOL     hw 2346   3.542   6.540   4.202 -1.7445  0.4661  1.1828
  587SOL     hw 2347   3.503   6.454   4.320  0.7713 -2.8766 -0.2608
  587SOL     vw 2348   3.560   6.476   4.258  0.1976 -0.0067  0.1171
  588SOL     ow 2349   1.868   3.068   0.943  0.6677  0.1372 -0.0088
  588SOL     hw 2350   1.801   3.021   0.992  0.6625  0.0012 -0.1431
  588SOL     hw 2351   1.909   3.001   0.888 -1.6469  0.8384 -2.8188
  588SOL     vw 2352   1.865   3.053   0.942  0.3616  0.2118 -0.3973
  589SOL     ow 2353   2.416   2.896   6.859  0.4820  0.2597  0.0814
  589SOL     hw 2354   2.420   2.800   6.856  0.2918  0.2737 -0.7155
  589SOL     hw 2355   2.407   2.923   6.768  2.0266  1.1110  0.1462
  589SOL     vw 2356   2.416   2.887   6.847  0.6608  0.3738 -0.0153
  590SOL     ow 2357   5.106   6.841   3.277  0.2856  0.0665  0.0153
  590SOL     hw 2358   5.175   6.905   3.261  0.7674 -0.2879  0.6238
  590SOL     hw 2359   5.153   6.762   3.305 -0.3048 -0.4983 -0.5432
  590SOL     vw 2360   5.121   6.839   3.278  0.2713 -0.0548  0.0219
  591SOL     ow 2361   4.633   4.045   2.441 -0.2611  0.0639  0.3971
  591SOL     hw 2362   4.595   3.970   2.397  0.4186  0.0683 -0.2236
  591SOL     hw 2363   4.678   4.093   2.371  0.1749  0.4924  0.9627
  591SOL     vw 2364   4.634   4.042   2.426 -0.1137  0.1209  0.3898
  592SOL     ow 2365   6.438   0.121   3.781 -0.2135 -0.3506 -0.5741
  592SOL     hw 2366   6.519   0.138   3.827 -0.9380  1.5473  0.0908
  592SOL     hw 2367   6.443   0.029   3.756  1.6566 -0.5371  0.3626
  592SOL     vw 2368   6.449   0.111   3.784 -0.0622 -0.1248 -0.3628
  593SOL     ow 2369   1.700   3.991   1.085 -0.0084 -0.0534  0.3033
  593SOL     hw 2370   1.709   3.929   1.158 -1.6139 -0.2402  0.3688
  593SOL     hw 2371   1.630   3.955   1.031  1.2696 -0.0364 -1.4900
  593SOL     vw 2372   1.692   3.978   1.087 -0.0516 -0.0758  0.0753
  594SOL     ow 2373   3.836   4.743   4.653 -0.2847 -0.4208  0.1483
  594SOL     hw 2374   3.901   4.695   4.705  2.0510  1.2754 -1.0284
  594SOL     hw 2375   3.883   4.769   4.574 -2.2417  1.4348 -0.5072
  594SOL     vw 2376   3.851   4.740   4.649 -0.2347  0.0479 -0.0935
  595SOL     ow 2377   5.694   5.165   2.895 -0.1328  0.1312  0.5078
  595SOL     hw 2378   5.635   5.186   2.968 -0.2459 -0.6613  0.6538
  595SOL     hw 2379   5.697   5.069   2.894  2.4373  0.1403  1.5541
  595SOL     vw 2380   5.686   5.155   2.905  0.1917  0.0279  0.6649
  596SOL     ow 2381   5.602   0.482   2.308 -0.1533 -0.3192 -0.6958
  596SOL     hw 2382   5.676   0.538   2.286 -0.2494 -0.5530 -1.6592
  596SOL     hw 2383   5.540   0.540   2.352  0.2408  0.0629 -0.6421
  596SOL     vw 2384   5.604   0.497   2.311 -0.1140 -0.2996 -0.8159
  597SOL     ow 2385   0.238   4.774   5.480  0.5544  0.0499  0.0884
  597SOL     hw 2386   0.249   4.743   5.390 -0.5569  2.3757 -0.9407
  597SOL     hw 2387   0.275   4.862   5.479 -0.7539  0.6615  1.5019
  597SOL     vw 2388   0.244   4.782   5.468  0.2352  0.4375  0.1395
  598SOL     ow 2389   5.599   5.200   7.085 -0.6704 -0.0207 -0.1905
  598SOL     hw 2390   5.689   5.174   7.066 -0.4372  0.6125  0.0270
  598SOL     hw 2391   5.547   5.122   7.065 -0.0924 -0.3479 -0.4491
  598SOL     vw 2392   5.604   5.186   7.080 -0.5636  0.0198 -0.1957
  599SOL     ow 2393   5.072   1.673   0.267 -0.4881  0.2164  0.0624
  599SOL     hw 2394   5.054   1.585   0.233 -0.6675  0.2316  0.1188
  599SOL     hw 2395   5.125   1.657   0.345 -2.0307  0.0638  1.1078
  599SOL     vw 2396   5.077   1.659   0.273 -0.7153  0.1982  0.2078
  600SOL     ow 2397   3.250   2.133   6.602 -0.5571  0.7256 -0.3020
  600SOL     hw 2398   3.278   2.108   6.690 -0.4322  1.3111 -0.1725
  600SOL     hw 2399   3.260   2.228   6.599 -0.3363  0.6871 -1.0314
  600SOL     vw 2400   3.255   2.142   6.613 -0.5116  0.7977 -0.3812
  601SOL     ow 2401   6.110   2.265   4.133  0.5949  0.2013  0.2936
  601SOL     hw 2402   6.110   2.310   4.218  1.5163 -0.1058  0.4681
  601SOL     hw 2403   6.076   2.178   4.152 -1.6540  0.9381 -0.1316
  601SOL     vw 2404   6.106   2.259   4.147  0.4199  0.2578  0.2604
  602SOL     ow 2405   5.021   3.150   0.970 -0.4160  0.4924 -0.2744
  602SOL     hw 2406   5.040   3.223   1.029  0.0090  0.1545  0.0120
  602SOL     hw 2407   5.017   3.073   1.026  1.3570 -0.0543 -0.8139
  602SOL     vw 2408   5.023   3.149   0.985 -0.1261  0.3757 -0.3079
  603SOL     ow 2409   6.038   6.325   1.242 -0.8012 -0.2244 -0.2648
  603SOL     hw 2410   5.945   6.348   1.233 -0.8932 -0.6392 -0.3836
  603SOL     hw 2411   6.076   6.400   1.288 -1.3016 -0.2788  0.2639
  603SOL     vw 2412   6.031   6.338   1.247 -0.8793 -0.2861 -0.2107
  604SOL     ow 2413   0.138   0.021   0.193 -0.3263  0.1331  0.6160
  604SOL     hw 2414   0.212   0.062   0.148  0.4450  0.2665  1.9551
  604SOL     hw 2415   0.069   0.087   0.192  0.2965  0.8111  1.1796
  604SOL     vw 2416   0.139   0.035   0.187 -0.1424  0.2401  0.8670
  605SOL     ow 2417   5.090   4.635   4.304 -0.0117 -0.7103 -0.2729
  605SOL     hw 2418   5.036   4.556   4.301 -1.0313 -0.1097  1.2999
  605SOL     hw 2419   5.038   4.701   4.258  0.1132 -0.5400 -0.1685
  605SOL     vw 2420   5.076   4.633   4.297 -0.1297 -0.6084 -0.0517
  606SOL     ow 2421   5.257   4.577   6.845 -0.5966  0.2346 -0.0492
  606SOL     hw 2422   5.343   4.582   6.885 -0.5801 -0.3082 -0.0063
  606SOL     hw 2423   5.199   4.623   6.906 -0.9435 -2.2635  1.6835
  606SOL     vw 2424   5.261   4.583   6.859 -0.6402 -0.1667  0.1853
  607SOL     ow 2425   4.263   3.843   1.488  0.6592  0.2974 -0.1653
  607SOL     hw 2426   4.268   3.914   1.551  0.2852  1.1497 -1.0703
  607SOL     hw 2427   4.274   3.763   1.540 -0.3205  0.9373  1.0688
  607SOL     vw 2428   4.265   3.842   1.503  0.4807  0.4942 -0.1219
  608SOL     ow 2429   1.171   0.135   2.647 -0.2617  0.0392  0.1399
  608SOL     hw 2430   1.167   0.078   2.724 -1.3928  2.0873  1.7218
  608SOL     hw 2431   1.251   0.186   2.660 -0.1660  0.0069 -0.3238
  608SOL     vw 2432   1.181   0.134   2.659 -0.3983  0.3051  0.2873
  609SOL     ow 2433   6.784   7.136   5.449  0.6556 -0.2334  0.3150
  609SOL     hw 2434   6.864   7.180   5.421 -0.7061  2.6634  0.6427
  609SOL     hw 2435   6.782   7.055   5.398  4.3432 -1.0452  1.2135
  609SOL     vw 2436   6.794   7.131   5.438  0.9623  0.0417  0.4766
  610SOL     ow 2437   1.974   6.583   3.986  0.0850 -0.4773 -0.7493
  610SOL     hw 2438   2.004   6.517   4.049 -0.7919 -2.0851 -1.9290
  610SOL     hw 2439   1.943   6.532   3.911  0.8245  1.3485 -2.3850
  610SOL     vw 2440   1.974   6.567   3.984  0.0669 -0.4485 -1.1208
  611SOL     ow 2441   1.289   3.751   0.819  0.2173 -0.2261 -0.1965
  611SOL     hw 2442   1.217   3.694   0.846  0.1634  0.6496  1.6772
  611SOL     hw 2443   1.367   3.696   0.828  0.3391  0.2518  2.9998
  611SOL     vw 2444   1.290   3.736   0.824  0.2262 -0.0474  0.4725
  612SOL     ow 2445   4.930   1.753   4.216  0.2865 -0.3267  0.0400
  612SOL     hw 2446   4.982   1.731   4.139  1.8420 -0.3531  1.0510
  612SOL     hw 2447   4.982   1.723   4.290 -1.1997 -0.3753  1.1223
  612SOL     vw 2448   4.943   1.746   4.215  0.2959 -0.3366  0.3164
  613SOL     ow 2449   5.472   3.612   4.918 -0.0775  0.1222 -0.5659
  613SOL     hw 2450   5.479   3.517   4.908 -0.4440 -0.2770  2.1648
  613SOL     hw 2451   5.527   3.647   4.849  1.9242 -2.1520 -0.2802
  613SOL     vw 2452   5.481   3.604   4.908  0.1383 -0.2306 -0.1678
  614SOL     ow 2453   5.300   0.946   6.211 -0.4169 -0.1694  0.1256
  614SOL     hw 2454   5.259   0.929   6.296  0.8622 -0.2289  0.7562
  614SOL     hw 2455   5.388   0.909   6.219  0.9501  2.7601  0.0092
  614SOL     vw 2456   5.307   0.939   6.223 -0.0677  0.2093  0.1934
  615SOL     ow 2457   0.073   6.382   2.894 -0.5573  0.1682  0.1587
  615SOL     hw 2458   0.047   6.456   2.949 -0.1573  3.5431 -3.6962
  615SOL     hw 2459   0.015   6.387   2.818  0.6282 -2.4765 -1.0713
  615SOL     vw 2460   0.062   6.392   2.891 -0.3481  0.2644 -0.5121
  616SOL     ow 2461   0.925   2.016   6.008  0.4507 -0.1351  0.6055
  616SOL     hw 2462   0.938   1.928   6.043 -2.5230 -0.7060  0.4966
  616SOL     hw 2463   0.857   2.007   5.942  1.9609  1.8671 -1.3854
  616SOL     vw 2464   0.918   2.004   6.004  0.2576  0.0536  0.3285
  617SOL     ow 2465   0.687   6.845   1.033  0.1872  0.3291 -0.0375
  617SOL     hw 2466   0.755   6.909   1.009 -0.1845  1.0437  0.7851
  617SOL     hw 2467   0.669   6.798   0.951  1.2299  0.5401 -0.4071
  617SOL     vw 2468   0.693   6.847   1.019  0.2757  0.4511  0.0222
  618SOL     ow 2469   5.111   3.588   6.060 -0.5121 -0.2672 -0.0227
  618SOL     hw 2470   5.178   3.634   6.009 -2.4564 -0.3937 -2.9741
  618SOL     hw 2471   5.084   3.652   6.126  1.2106  0.4299  0.0654
  618SOL     vw 2472   5.116   3.603   6.062 -0.5410 -0.1918 -0.4003
  619SOL     ow 2473   6.714   5.241   0.632 -0.3931  0.4457  0.0761
  619SOL     hw 2474   6.621   5.233   0.611 -0.6466 -0.1671  1.3504
  619SOL     hw 2475   6.756   5.260   0.548 -1.5297 -0.3774 -0.7084
  619SOL     vw 2476   6.707   5.243   0.618 -0.5765  0.2561  0.1407
  620SOL     ow 2477   1.540   2.505   6.345 -0.2695  0.0274  0.1564
  620SOL     hw 2478   1.486   2.532   6.270  0.9300  1.7766 -0.1467
  620SOL     hw 2479   1.564   2.415   6.326 -2.9661 -0.8007  0.2733
  620SOL     vw 2480   1.536   2.497   6.332 -0.4669  0.1489  0.1318
  621SOL     ow 2481   2.957   3.481   4.090  0.0432  0.1324 -0.7719
  621SOL     hw 2482   2.877   3.464   4.140  0.3457  0.4341 -0.1774
  621SOL     hw 2483   2.955   3.417   4.019  0.3736 -1.3601  0.5036
  621SOL     vw 2484   2.946   3.470   4.087  0.1266 -0.0247 -0.5252
  622SOL     ow 2485   0.753   7.066   5.676 -0.2025  0.2532 -0.0290
  622SOL     hw 2486   0.759   7.025   5.762  0.0940 -0.5680 -0.4359
  622SOL     hw 2487   0.669   7.111   5.677  0.1922  1.0066  1.0142
  622SOL     vw 2488   0.743   7.067   5.688 -0.1113  0.2444  0.0548
  623SOL     ow 2489   2.806   6.580   1.838 -0.1255  0.3211 -0.5570
  623SOL     hw 2490   2.796   6.660   1.889  1.5717  0.2060  0.0136
  623SOL     hw 2491   2.787   6.509   1.900  1.2189  0.2078 -0.2422
  623SOL     vw 2492   2.802   6.581   1.853  0.2759  0.2911 -0.4402
  624SOL     ow 2493   0.034   0.624   0.428 -0.7080 -0.0844 -0.4368
  624SOL     hw 2494   0.114   0.605   0.380 -0.4617 -1.9779  0.6372
  624SOL     hw 2495  -0.018   0.544   0.420 -1.7908  0.5236  0.2504
  624SOL     vw 2496   0.037   0.611   0.421 -0.8184 -0.2540 -0.2044
  625SOL     ow 2497   6.451   5.781   7.157  0.9263 -0.5202  0.0377
  625SOL     hw 2498   6.398   5.766   7.079  1.5868  1.0259 -0.7308
  625SOL     hw 2499   6.533   5.817   7.124  1.2728  0.0209  1.4309
  625SOL     vw 2500   6.455   5.783   7.142  1.0593 -0.2451  0.1202
  626SOL     ow 2501   6.321   5.292   6.826  0.1779  0.4520 -0.3056
  626SOL     hw 2502   6.271   5.360   6.870  1.8440  1.6906 -0.2446
  626SOL     hw 2503   6.358   5.335   6.749 -0.3833 -0.9482 -1.4230
  626SOL     vw 2504   6.319   5.306   6.822  0.3240  0.4306 -0.4449
  627SOL     ow 2505   4.221   5.295   0.147 -0.1409  0.5380  0.1838
  627SOL     hw 2506   4.195   5.385   0.127 -1.1540 -0.0015 -1.0711
  627SOL     hw 2507   4.139   5.250   0.167  0.1720 -0.4529 -0.6826
  627SOL     vw 2508   4.207   5.301   0.147 -0.2334  0.3357 -0.0961
  628SOL     ow 2509   6.987   1.562   3.651  0.0354  0.0951 -0.6138
  628SOL     hw 2510   7.051   1.600   3.591  0.7953  2.4732  1.5433
  628SOL     hw 2511   7.039   1.522   3.721 -0.8376 -0.5653 -0.3148
  628SOL     vw 2512   7.002   1.562   3.652  0.0203  0.3217 -0.2897
  629SOL     ow 2513   1.913   6.391   7.080  0.1934  0.1407  0.1757
  629SOL     hw 2514   1.996   6.438   7.063  0.0247  0.7458  0.9629
  629SOL     hw 2515   1.940   6.301   7.099  0.5768  0.0580 -0.7308
  629SOL     vw 2516   1.928   6.386   7.080  0.2217  0.2098  0.1600
  630SOL     ow 2517   3.024   1.843   5.369  0.1166 -0.4536  0.3146
  630SOL     hw 2518   2.948   1.820   5.422  0.3725 -6.1641 -1.0772
  630SOL     hw 2519   2.996   1.829   5.279  2.3064 -1.0048 -0.3484
  630SOL     vw 2520   3.010   1.838   5.364  0.4393 -1.2797  0.0434
  631SOL     ow 2521   6.906   2.807   4.543 -0.2372 -0.7249 -0.0939
  631SOL     hw 2522   6.965   2.788   4.470 -1.9374 -1.8918 -1.2519
  631SOL     hw 2523   6.876   2.896   4.528  0.9112 -0.2496  0.3109
  631SOL     vw 2524   6.910   2.816   4.532 -0.3099 -0.8162 -0.1931
  632SOL     ow 2525   5.213   6.602   5.757 -0.4337  0.5067  0.2685
  632SOL     hw 2526   5.162   6.609   5.838  1.1065  1.6932  1.2013
  632SOL     hw 2527   5.197   6.684   5.711  1.0232  1.1705  0.8681
  632SOL     vw 2528   5.204   6.613   5.762 -0.0381  0.7510  0.4706
  633SOL     ow 2529   2.157   2.373   2.753  0.4265  0.3292 -0.5518
  633SOL     hw 2530   2.183   2.448   2.806 -2.4771  1.0067  0.0963
  633SOL     hw 2531   2.194   2.297   2.799  1.8119  1.2135 -0.1635
  633SOL     vw 2532   2.165   2.373   2.766  0.2261  0.5351 -0.4151
  634SOL     ow 2533   3.181   0.264   1.709 -0.6413  0.4449 -0.1219
  634SOL     hw 2534   3.088   0.243   1.699 -0.4231 -0.4622 -0.3073
  634SOL     hw 2535   3.183   0.328   1.780 -1.4251  0.6120 -0.2409
  634SOL     vw 2536   3.169   0.269   1.717 -0.7159  0.3473 -0.1621
  635SOL     ow 2537   5.619   0.661   1.780  0.5031  0.2008  0.4258
  635SOL     hw 2538   5.694   0.682   1.835  0.2307 -0.5407  1.0984
  635SOL     hw 2539   5.596   0.745   1.738  1.5523  0.4830  0.3697
  635SOL     vw 2540   5.626   0.675   1.781  0.6056  0.1402  0.5072
  636SOL     ow 2541   3.153   2.046   1.143 -0.0870 -0.3885  0.3648
  636SOL     hw 2542   3.127   2.121   1.088  1.5296 -0.0666  0.0003
  636SOL     hw 2543   3.145   2.078   1.232  2.3504  0.9125  0.2025
  636SOL     vw 2544   3.148   2.060   1.147  0.4479 -0.1744  0.2952
  637SOL     ow 2545   1.981   3.339   0.513 -0.4412  0.0794  0.2295
  637SOL     hw 2546   2.057   3.333   0.455 -0.5684  0.8426 -0.0332
  637SOL     hw 2547   1.910   3.368   0.455 -0.3325  1.9359  0.9348
  637SOL     vw 2548   1.981   3.342   0.497 -0.4437  0.4250  0.2879
  638SOL     ow 2549   2.812   5.691   4.559  0.2616 -0.2059 -0.5726
  638SOL     hw 2550   2.858   5.765   4.520  0.5966  0.5690  1.1976
  638SOL     hw 2551   2.789   5.721   4.648 -0.9163 -1.6902 -0.3341
  638SOL     vw 2552   2.815   5.705   4.566  0.1503 -0.2997 -0.3076
  639SOL     ow 2553   1.888   5.924   4.723  0.1335 -0.2424 -0.0664
  639SOL     hw 2554   1.980   5.935   4.698  0.0982 -0.1587 -0.1578
  639SOL     hw 2555   1.860   6.011   4.751  0.2977 -0.4195  0.6895
  639SOL     vw 2556   1.897   5.937   4.724  0.1505 -0.2549  0.0215
  640SOL     ow 2557   2.821   2.171   0.506  0.3563  0.0393  0.0105
  640SOL     hw 2558   2.757   2.233   0.470  0.7431  0.7920  0.6042
  640SOL     hw 2559   2.900   2.183   0.454  0.6972  0.6438  0.6514
  640SOL     vw 2560   2.823   2.181   0.495  0.4524  0.2184  0.1734
  641SOL     ow 2561   7.045   4.670   5.684  0.0387 -0.8527  0.0341
  641SOL     hw 2562   6.996   4.669   5.602 -0.3890 -0.8748  0.2810
  641SOL     hw 2563   7.002   4.738   5.736  1.5320  0.5353 -0.4779
  641SOL     vw 2564   7.033   4.679   5.680  0.1793 -0.6726 -0.0010
  642SOL     ow 2565   4.654   5.442   2.999 -0.4996  0.3875  0.7666
  642SOL     hw 2566   4.642   5.504   3.071 -2.2140 -0.4852  1.2667
  642SOL     hw 2567   4.630   5.492   2.921 -2.2109  0.3037  1.1998
  642SOL     vw 2568   4.649   5.457   2.998 -0.9518  0.2613  0.8897
  643SOL     ow 2569   4.281   2.324   3.054  0.3618  0.0160 -0.1473
  643SOL     hw 2570   4.353   2.272   3.017 -0.4342 -1.3278  0.1182
  643SOL     hw 2571   4.218   2.259   3.085 -0.8289  1.1653 -0.0719
  643SOL     vw 2572   4.282   2.308   3.054  0.0997 -0.0098 -0.1026
  644SOL     ow 2573   2.057   4.657   4.654 -0.4872 -0.0990 -0.2518
  644SOL     hw 2574   2.148   4.665   4.625  0.1957 -0.9078  1.5257
  644SOL     hw 2575   2.061   4.595   4.727 -2.3006  0.7704  0.6326
  644SOL     vw 2576   2.070   4.650   4.660 -0.6365 -0.0911  0.0997
  645SOL     ow 2577   0.637   2.617   4.647 -0.0317  0.1336 -0.5871
  645SOL     hw 2578   0.542   2.610   4.637 -0.2179  1.3569  0.0462
  645SOL     hw 2579   0.652   2.603   4.741  0.4724 -0.4675 -0.7470
  645SOL     vw 2580   0.626   2.614   4.658  0.0102  0.2158 -0.5245
  646SOL     ow 2581   3.573   4.617   4.557  0.5954 -0.3094 -0.1049
  646SOL     hw 2582   3.529   4.537   4.586  0.5957 -0.4163 -0.3930
  646SOL     hw 2583   3.525   4.643   4.478  0.6756 -0.0942 -0.0849
  646SOL     vw 2584   3.561   4.610   4.550  0.6061 -0.2949 -0.1404
  647SOL     ow 2585   6.771   6.937   5.279  0.2530 -0.1014  0.0585
  647SOL     hw 2586   6.768   6.963   5.187  3.8941  2.6415  0.4955
  647SOL     hw 2587   6.858   6.900   5.290 -0.3968 -1.1260  2.3007
  647SOL     vw 2588   6.782   6.936   5.268  0.6475  0.1254  0.4120
  648SOL     ow 2589   3.133   5.374   6.069 -0.4277  0.3966  0.1964
  648SOL     hw 2590   3.097   5.452   6.027 -0.2937  0.3038 -0.0970
  648SOL     hw 2591   3.209   5.405   6.118 -1.0177  0.6258  0.9755
  648SOL     vw 2592   3.138   5.388   6.070 -0.4878  0.4146  0.2606
  649SOL     ow 2593   6.634   2.629   3.752  0.3807  0.1332  0.2715
  649SOL     hw 2594   6.590   2.555   3.711  2.2101 -0.3940 -0.8758
  649SOL     hw 2595   6.572   2.702   3.744 -0.7949 -0.8820 -0.0475
  649SOL     vw 2596   6.620   2.629   3.746  0.4671 -0.0702  0.0781
  650SOL     ow 2597   3.138   0.708   2.746  0.0243 -0.1704 -0.0128
  650SOL     hw 2598   3.096   0.775   2.691 -1.4275 -0.5100  0.6294
  650SOL     hw 2599   3.162   0.639   2.685 -2.7175 -1.1246 -0.1724
  650SOL     vw 2600   3.135   0.708   2.730 -0.5289 -0.3411  0.0508
  651SOL     ow 2601   5.494   5.492   7.047 -0.1278  0.6537  0.0431
  651SOL     hw 2602   5.548   5.412   7.048 -0.1800  0.5956 -0.8403
  651SOL     hw 2603   5.552   5.560   7.082  0.8308  0.7664 -1.6619
  651SOL     vw 2604   5.509   5.490   7.052 -0.0081  0.6604 -0.2985
  652SOL     ow 2605   6.085   3.273   2.507  0.4979  0.2020  0.0939
  652SOL     hw 2606   6.061   3.218   2.582  0.4637 -2.9990 -2.0625
  652SOL     hw 2607   6.003   3.283   2.458  0.9347  0.3822 -0.6079
  652SOL     vw 2608   6.071   3.267   2.511  0.5510 -0.1965 -0.2832
  653SOL     ow 2609   1.089   4.555   5.638  0.3565 -0.4308 -0.0586
  653SOL     hw 2610   1.080   4.522   5.548  2.6664 -0.7019 -0.2577
  653SOL     hw 2611   1.089   4.477   5.693  1.5747 -0.4837 -0.1102
  653SOL     vw 2612   1.088   4.541   5.633  0.8220 -0.4735 -0.0916
  654SOL     ow 2613   1.868   5.622   4.701  0.1068 -0.0270  0.0475
  654SOL     hw 2614   1.909   5.575   4.773  2.0035  0.1095 -0.8968
  654SOL     hw 2615   1.849   5.554   4.636 -1.1098 -0.0732  0.4298
  654SOL     vw 2616   1.871   5.607   4.702  0.1965 -0.0150 -0.0265
  655SOL     ow 2617   5.216   2.022   3.792 -0.2425 -0.3022 -0.9871
  655SOL     hw 2618   5.261   1.948   3.834  1.3028  0.6021 -0.9924
  655SOL     hw 2619   5.202   1.992   3.702 -3.4061 -2.1734 -0.0432
  655SOL     vw 2620   5.220   2.008   3.785 -0.4559 -0.4297 -0.8631
  656SOL     ow 2621   5.562   2.883   4.795 -0.3161 -0.5721 -0.2330
  656SOL     hw 2622   5.640   2.938   4.805  0.3948 -1.2790 -1.6269
  656SOL     hw 2623   5.511   2.925   4.726  1.3651 -2.7504 -3.0466
  656SOL     vw 2624   5.566   2.896   4.787 -0.0005 -0.9528 -0.7880
  657SOL     ow 2625   4.060   0.570   6.285  0.3877  0.1475  0.4025
  657SOL     hw 2626   4.109   0.487   6.289 -0.1575 -0.1870  0.2310
  657SOL     hw 2627   4.007   0.562   6.206 -0.0633  0.4487  0.6758
  657SOL     vw 2628   4.060   0.558   6.275  0.2565  0.1431  0.4160
  658SOL     ow 2629   2.187   0.656   2.758 -0.5238 -0.1995  0.3271
  658SOL     hw 2630   2.227   0.709   2.827 -0.1160 -0.5902  0.3918
  658SOL     hw 2631   2.122   0.714   2.719  1.0719  0.9589 -0.7255
  658SOL     vw 2632   2.184   0.671   2.762 -0.2595 -0.0982  0.1967
  659SOL     ow 2633   1.917   5.595   2.120  0.2602 -0.3007  0.5382
  659SOL     hw 2634   1.990   5.533   2.123  2.2369  1.3468 -3.9450
  659SOL     hw 2635   1.842   5.546   2.154  2.4891 -3.6390  1.1643
  659SOL     vw 2636   1.917   5.580   2.125  0.8150 -0.5238  0.0292
  660SOL     ow 2637   7.231   3.603   3.064  0.4062  0.5068  0.2586
  660SOL     hw 2638   7.279   3.604   2.980  1.3380 -0.5293  0.7535
  660SOL     hw 2639   7.202   3.513   3.074  0.6396  0.5350  1.2419
  660SOL     vw 2640   7.234   3.591   3.054  0.5598  0.3740  0.4536
  661SOL     ow 2641   1.171   1.761   3.933 -0.4989 -0.1626 -0.3053
  661SOL     hw 2642   1.091   1.746   3.884  0.4423 -1.5739 -1.4749
  661SOL     hw 2643   1.216   1.831   3.886 -0.9858  0.5836  0.3133
  661SOL     vw 2644   1.167   1.768   3.920 -0.4390 -0.2504 -0.3780
  662SOL     ow 2645   5.341   3.499   2.355 -0.2754  0.7180 -0.1574
  662SOL     hw 2646   5.380   3.457   2.279 -0.0919  1.6508 -0.5944
  662SOL     hw 2647   5.409   3.497   2.422 -0.0369  0.8866 -0.3908
  662SOL     vw 2648   5.355   3.493   2.354 -0.2198  0.8632 -0.2459
  663SOL     ow 2649   6.156   1.284   0.581 -0.8988  0.4586  0.2297
  663SOL     hw 2650   6.098   1.346   0.626 -1.2823  1.1935 -1.2139
  663SOL     hw 2651   6.242   1.327   0.581 -1.2450  1.2326 -1.1111
  663SOL     vw 2652   6.160   1.298   0.587 -0.9949  0.6576 -0.1377
  664SOL     ow 2653   0.344   5.324   6.643 -0.0674  0.4563  0.5675
  664SOL     hw 2654   0.391   5.387   6.589  0.6833  0.0222  0.6962
  664SOL     hw 2655   0.376   5.239   6.613 -1.3596  0.0999  0.1158
  664SOL     vw 2656   0.354   5.321   6.632 -0.1388  0.3519  0.5248
  665SOL     ow 2657   0.959   0.312   1.743 -0.0606 -0.1913 -0.4081
  665SOL     hw 2658   1.009   0.230   1.749  0.9329  0.1121 -3.0020
  665SOL     hw 2659   0.887   0.291   1.684  1.1624  1.1083 -2.5075
  665SOL     vw 2660   0.956   0.298   1.736  0.2319  0.0202 -1.0274
  666SOL     ow 2661   5.282   1.503   5.047  0.5080  0.3717  0.5950
  666SOL     hw 2662   5.272   1.593   5.016 -0.5947  0.3061  0.7302
  666SOL     hw 2663   5.343   1.463   4.985  0.9767  1.1944  0.5067
  666SOL     vw 2664   5.289   1.509   5.035  0.4241  0.4716  0.6013
  667SOL     ow 2665   6.273   6.677   6.925  0.3919 -0.1292  0.6965
  667SOL     hw 2666   6.223   6.750   6.962  0.3230  0.6023 -0.7593
  667SOL     hw 2667   6.343   6.718   6.875 -0.3728 -0.9665 -1.1902
  667SOL     vw 2668   6.276   6.692   6.923  0.2818 -0.1428  0.2553
  668SOL     ow 2669   2.142   6.027   6.061 -0.0358 -0.1282  0.4533
  668SOL     hw 2670   2.111   6.029   5.970  1.2329 -1.9026 -0.0723
  668SOL     hw 2671   2.237   6.038   6.054 -0.0672  1.3164  1.7251
  668SOL     vw 2672   2.150   6.029   6.048  0.1274 -0.1717  0.5519
  669SOL     ow 2673   5.909   4.841   1.838 -0.4353 -0.0225 -0.2582
  669SOL     hw 2674   5.936   4.790   1.762 -1.0762  0.2182 -0.6502
  669SOL     hw 2675   5.986   4.895   1.859  0.3478 -1.3122  0.3288
  669SOL     vw 2676   5.923   4.842   1.831 -0.4168 -0.1607 -0.2325
  670SOL     ow 2677   5.030   1.040   3.567  0.3072  0.2057 -0.1287
  670SOL     hw 2678   4.979   0.971   3.525  0.0645  1.4046 -1.8992
  670SOL     hw 2679   5.095   1.066   3.502  0.6192  1.4106  0.6154
  670SOL     vw 2680   5.032   1.035   3.553  0.3166  0.5229 -0.2640
  671SOL     ow 2681   6.659   3.554   3.423  0.7801 -0.7944 -0.1770
  671SOL     hw 2682   6.595   3.613   3.384 -0.9271 -2.1521  0.4281
  671SOL     hw 2683   6.712   3.522   3.350  0.7928  0.3706 -0.6847
  671SOL     vw 2684   6.657   3.557   3.408  0.5567 -0.8198 -0.1640
  672SOL     ow 2685   3.975   5.886   5.464 -0.0778 -0.2310 -0.3798
  672SOL     hw 2686   3.956   5.895   5.370 -0.8073  1.9239 -0.0631
  672SOL     hw 2687   4.070   5.877   5.468 -0.1205 -1.4822 -1.3698
  672SOL     vw 2688   3.985   5.886   5.452 -0.1798 -0.1116 -0.4685
  673SOL     ow 2689   5.212   4.941   3.099 -0.5027 -0.1773  0.0360
  673SOL     hw 2690   5.267   4.899   3.034  0.1883  0.7991 -0.0387
  673SOL     hw 2691   5.173   4.869   3.149 -0.6779 -0.9208 -1.1499
  673SOL     vw 2692   5.214   4.926   3.097 -0.4346 -0.1466 -0.1302
  674SOL     ow 2693   5.300   4.475   4.509  0.0589 -0.5950  0.4443
  674SOL     hw 2694   5.394   4.463   4.523  0.5701  0.1058 -1.9439
  674SOL     hw 2695   5.264   4.386   4.507  0.4370 -0.8342  2.4814
  674SOL     vw 2696   5.308   4.461   4.511  0.1762 -0.5341  0.3979
  675SOL     ow 2697   0.061   5.707   2.370 -0.2277 -0.2938  0.4226
  675SOL     hw 2698   0.029   5.797   2.363 -0.6810 -0.5268 -0.7026
  675SOL     hw 2699  -0.016   5.653   2.354  0.1622 -0.8785  0.5112
  675SOL     vw 2700   0.047   5.712   2.367 -0.2360 -0.4017  0.2859
  676SOL     ow 2701   5.156   1.801   0.001  0.1067  0.5254  0.3794
  676SOL     hw 2702   5.217   1.868  -0.031 -1.1104  2.0530  1.1158
  676SOL     hw 2703   5.093   1.792  -0.070  0.1070  0.3713  0.3992
  676SOL     vw 2704   5.156   1.809  -0.013 -0.0539  0.7066  0.4795
  677SOL     ow 2705   4.705   1.513   6.607  0.0318  0.1143  0.1383
  677SOL     hw 2706   4.704   1.561   6.524 -2.3450  0.7386  0.4680
  677SOL     hw 2707   4.793   1.529   6.642  1.0971 -0.1608 -2.2147
  677SOL     vw 2708   4.716   1.521   6.600 -0.1411  0.1603 -0.1287
  678SOL     ow 2709   0.185   0.963   6.677  0.2124 -0.0710  0.5114
  678SOL     hw 2710   0.113   0.973   6.739 -0.7254 -0.8403 -0.4271
  678SOL     hw 2711   0.211   0.871   6.685  0.1321 -0.1573 -0.1746
  678SOL     vw 2712   0.179   0.952   6.687  0.0780 -0.1839  0.2968
  679SOL     ow 2713   1.117   4.918   0.430 -0.1154 -0.7938  0.1384
  679SOL     hw 2714   1.028   4.951   0.443 -0.0503 -0.8078  0.6472
  679SOL     hw 2715   1.165   4.949   0.506  1.3260  2.5015 -1.8805
  679SOL     vw 2716   1.112   4.926   0.442  0.0834 -0.3607 -0.0609
  680SOL     ow 2717   4.390   5.112   7.206 -0.3798 -0.3338 -0.1245
  680SOL     hw 2718   4.334   5.049   7.161 -0.2952 -0.3422 -0.2160
  680SOL     hw 2719   4.328   5.173   7.247 -0.5443 -1.6979  1.7728
  680SOL     vw 2720   4.374   5.112   7.206 -0.3903 -0.5150  0.1138
  681SOL     ow 2721   2.949   5.391   4.246  0.8544 -0.6906 -0.0747
  681SOL     hw 2722   3.031   5.405   4.293 -0.2729 -0.0197  1.7803
  681SOL     hw 2723   2.929   5.476   4.207 -0.0910 -0.1872  1.4251
  681SOL     vw 2724   2.957   5.404   4.247  0.5809 -0.5355  0.3681
  682SOL     ow 2725   5.303   4.372   6.186  0.0972 -0.7416 -0.3924
  682SOL     hw 2726   5.361   4.307   6.226  0.6914 -0.9430 -1.5447
  682SOL     hw 2727   5.263   4.326   6.112 -1.5252 -0.5891  0.3355
  682SOL     vw 2728   5.305   4.357   6.182 -0.0389 -0.7482 -0.4485
  683SOL     ow 2729   2.920   0.101   2.642 -0.2646  0.8307 -0.3483
  683SOL     hw 2730   2.849   0.095   2.578  0.7982  1.1594 -1.5981
  683SOL     hw 2731   2.962   0.015   2.639 -1.8384 -0.1165  1.9405
  683SOL     vw 2732   2.916   0.089   2.633 -0.3319  0.7491 -0.2114
  684SOL     ow 2733   2.554   6.759   2.623 -0.3180 -0.8794  0.1721
  684SOL     hw 2734   2.648   6.742   2.609  0.0191  0.3966  0.7018
  684SOL     hw 2735   2.546   6.773   2.717 -0.5222  1.5824 -0.1294
  684SOL     vw 2736   2.566   6.759   2.633 -0.3004 -0.3860  0.2021
  685SOL     ow 2737   5.808   5.286   3.233 -0.2247 -0.1284 -0.2275
  685SOL     hw 2738   5.842   5.360   3.182 -0.0397 -1.2022 -1.7208
  685SOL     hw 2739   5.877   5.220   3.229 -1.3620 -1.3223 -1.0385
  685SOL     vw 2740   5.821   5.287   3.226 -0.3502 -0.4277 -0.5314
  686SOL     ow 2741   5.252   5.312   4.062 -0.0915 -0.5101  0.3798
  686SOL     hw 2742   5.221   5.237   4.012  0.8280 -0.8405  0.2989
  686SOL     hw 2743   5.341   5.290   4.088  0.6285  1.0014 -0.6071
  686SOL     vw 2744   5.259   5.299   4.059  0.1249 -0.3541  0.2387
  687SOL     ow 2745   0.742   2.105   5.435  0.1196  0.1159 -0.2459
  687SOL     hw 2746   0.727   2.085   5.343 -0.4329  0.7671 -0.3070
  687SOL     hw 2747   0.654   2.121   5.470  0.3335 -0.0502  0.3748
  687SOL     vw 2748   0.728   2.105   5.428  0.0749  0.1799 -0.1721
  688SOL     ow 2749   4.101   4.402   5.104 -0.1972  0.0578 -0.2037
  688SOL     hw 2750   4.045   4.349   5.047  0.9629 -0.6574 -0.7101
  688SOL     hw 2751   4.039   4.450   5.160 -1.3197 -0.3829 -1.0202
  688SOL     vw 2752   4.085   4.401   5.104 -0.1922 -0.0944 -0.3781
  689SOL     ow 2753   3.468   0.503   4.246 -0.2815 -0.0595 -0.2562
  689SOL     hw 2754   3.454   0.519   4.340 -1.6828 -1.5917 -0.1552
  689SOL     hw 2755   3.383   0.472   4.214  0.3433 -0.1681 -1.9093
  689SOL     vw 2756   3.455   0.501   4.254 -0.3840 -0.2760 -0.4611
  690SOL     ow 2757   2.308   6.900   2.455 -0.3926 -0.3652  0.0833
  690SOL     hw 2758   2.221   6.896   2.415 -0.8424 -0.1201  0.9906
  690SOL     hw 2759   2.302   6.972   2.518 -0.1493 -1.5248  1.5026
  690SOL     vw 2760   2.296   6.909   2.458 -0.4199 -0.4861  0.3903
  691SOL     ow 2761   3.133   3.055   4.313 -0.0819 -0.2445 -0.1206
  691SOL     hw 2762   3.117   3.148   4.328 -0.3505 -0.4272  0.8311
  691SOL     hw 2763   3.219   3.052   4.270  0.5375  0.3885  1.0157
  691SOL     vw 2764   3.143   3.067   4.310 -0.0358 -0.1851  0.1547
  692SOL     ow 2765   3.133   0.293   6.858 -0.5721  0.1551 -0.5345
  692SOL     hw 2766   3.199   0.345   6.905  0.1448 -0.7737 -0.4870
  692SOL     hw 2767   3.061   0.283   6.920 -0.9794  1.5679 -0.7451
  692SOL     vw 2768   3.132   0.299   6.872 -0.5311  0.2189 -0.5560
  693SOL     ow 2769   5.628   0.345   6.061 -0.1376  0.6850  0.2744
  693SOL     hw 2770   5.599   0.277   6.121  1.2750  0.3068  0.5715
  693SOL     hw 2771   5.628   0.304   5.975 -0.0968  0.5758  0.3275
  693SOL     vw 2772   5.624   0.331   6.058  0.0541  0.6207  0.3207
  694SOL     ow 2773   2.926   4.055   3.301  0.4705 -0.0125 -0.0889
  694SOL     hw 2774   3.010   4.009   3.305  0.3811 -0.2307 -0.6458
  694SOL     hw 2775   2.929   4.116   3.375  0.4267 -1.1701  0.8974
  694SOL     vw 2776   2.937   4.057   3.311  0.4529 -0.1941 -0.0322
  695SOL     ow 2777   4.387   4.791   4.629  0.0410  0.3424  0.6983
  695SOL     hw 2778   4.327   4.717   4.640 -1.3612  1.1022 -1.2776
  695SOL     hw 2779   4.335   4.858   4.585  2.4661  0.7421 -1.8948
  695SOL     vw 2780   4.372   4.790   4.624  0.1762  0.4952  0.0956
  696SOL     ow 2781   5.321   3.869   0.951 -0.4215  0.0445  0.0255
  696SOL     hw 2782   5.315   3.943   1.010 -1.7882  0.2958 -0.3794
  696SOL     hw 2783   5.332   3.907   0.864  0.9551 -0.3036  0.0243
  696SOL     vw 2784   5.321   3.884   0.947 -0.4201  0.0317 -0.0281
  697SOL     ow 2785   4.684   2.330   5.640  0.0090  0.5459 -0.1501
  697SOL     hw 2786   4.754   2.362   5.696 -0.8994 -2.3473  3.0014
  697SOL     hw 2787   4.723   2.256   5.593 -0.0173  1.1879 -1.2132
  697SOL     vw 2788   4.698   2.324   5.641 -0.1142  0.2490  0.1256
  698SOL     ow 2789   3.563   4.945   4.229 -0.5866  0.8171 -0.4188
  698SOL     hw 2790   3.493   4.991   4.182 -0.1526  1.4354 -0.4684
  698SOL     hw 2791   3.583   5.000   4.304 -0.3554  0.4946 -0.2378
  698SOL     vw 2792   3.557   4.958   4.233 -0.4989  0.8562 -0.4013
  699SOL     ow 2793   1.381   3.941   3.356 -0.0709  0.0273 -0.1380
  699SOL     hw 2794   1.360   4.014   3.298  2.5408  0.1310 -1.0886
  699SOL     hw 2795   1.372   3.863   3.301  0.9919  0.0035 -0.3031
  699SOL     vw 2796   1.377   3.940   3.341  0.4138  0.0378 -0.2853
  700SOL     ow 2797   5.402   0.124   4.210 -0.2028  0.5279 -0.2937
  700SOL     hw 2798   5.333   0.116   4.276  0.1608 -2.5442 -0.1687
  700SOL     hw 2799   5.456   0.196   4.242 -2.4337  2.0064  0.4086
  700SOL     vw 2800   5.400   0.133   4.223 -0.4489  0.3177 -0.1845
  701SOL     ow 2801   5.254   4.701   6.480 -0.1180  0.6871 -0.0661
  701SOL     hw 2802   5.233   4.731   6.569 -2.5137  1.4212 -0.8085
  701SOL     hw 2803   5.265   4.782   6.430  0.8743  0.2722 -0.5505
  701SOL     vw 2804   5.253   4.716   6.485 -0.3033  0.7291 -0.2279
  702SOL     ow 2805   3.227   0.660   0.644 -0.0982  0.3203 -0.6885
  702SOL     hw 2806   3.139   0.666   0.681  0.0168 -0.5474 -0.2471
  702SOL     hw 2807   3.264   0.748   0.656  0.4329 -0.2272  2.5934
  702SOL     vw 2808   3.220   0.673   0.651 -0.0130  0.1337 -0.1973
  703SOL     ow 2809   6.042   4.382   4.406  0.5932  0.2431  0.4049
  703SOL     hw 2810   6.014   4.462   4.450  1.6155  0.5322  0.5617
  703SOL     hw 2811   6.127   4.362   4.445  0.9561 -0.1836 -0.5800
  703SOL     vw 2812   6.049   4.390   4.417  0.7761  0.2251  0.2956
  704SOL     ow 2813   2.671   3.731   5.270  0.2848 -0.3135 -0.0926
  704SOL     hw 2814   2.606   3.662   5.265 -0.4896  0.4364 -0.7694
  704SOL     hw 2815   2.689   3.754   5.179  1.1289 -0.1590  0.0962
  704SOL     vw 2816   2.665   3.725   5.257  0.2940 -0.1941 -0.1571
  705SOL     ow 2817   6.197   4.826   4.646 -0.4901 -0.0944 -0.4898
  705SOL     hw 2818   6.155   4.745   4.616 -0.3031 -0.6554  0.6983
  705SOL     hw 2819   6.176   4.831   4.739  0.5200  0.5900 -0.2792
  705SOL     vw 2820   6.189   4.816   4.654 -0.3324 -0.0782 -0.3047
  706SOL     ow 2821   5.274   5.600   4.064  0.3941 -0.1341 -0.1957
  706SOL     hw 2822   5.359   5.632   4.033  1.3452 -0.5474  1.8337
  706SOL     hw 2823   5.273   5.508   4.039  1.3778 -0.5964  1.3078
  706SOL     vw 2824   5.285   5.592   4.057  0.6497 -0.2496  0.2704
  707SOL     ow 2825   0.791   4.428   5.645  0.0460  0.6735 -0.0991
  707SOL     hw 2826   0.755   4.440   5.557 -2.1670  1.7038  0.8568
  707SOL     hw 2827   0.875   4.384   5.631 -0.5952  0.0888 -2.6568
  707SOL     vw 2828   0.797   4.423   5.631 -0.3306  0.7319 -0.3104
  708SOL     ow 2829   5.360   6.072   3.739  0.9584  0.3815 -0.3023
  708SOL     hw 2830   5.363   6.137   3.669  1.2416  0.7605  0.0512
  708SOL     hw 2831   5.340   6.123   3.818  0.5449 -0.0530 -0.1255
  708SOL     vw 2832   5.358   6.087   3.740  0.9410  0.3738 -0.2325
  709SOL     ow 2833   5.702   1.524   1.130 -0.2667 -0.6341 -0.4800
  709SOL     hw 2834   5.789   1.490   1.107  1.8079  2.5414  1.7588
  709SOL     hw 2835   5.661   1.543   1.046  3.0531  1.7703 -1.7725
  709SOL     vw 2836   5.708   1.522   1.116  0.4451  0.1022 -0.3551
  710SOL     ow 2837   2.780   5.433   4.508 -0.0939  0.0627 -0.8388
  710SOL     hw 2838   2.728   5.393   4.578  1.5928 -0.4777  0.1375
  710SOL     hw 2839   2.779   5.526   4.527  1.9307 -0.2341  1.0825
  710SOL     vw 2840   2.773   5.440   4.519  0.3955 -0.0479 -0.4566
  711SOL     ow 2841   4.769   5.113   1.816 -0.0149  0.8726 -0.5295
  711SOL     hw 2842   4.839   5.079   1.760 -0.1598 -1.2955  0.4961
  711SOL     hw 2843   4.699   5.136   1.756  0.4165  0.0873 -1.3660
  711SOL     vw 2844   4.769   5.111   1.801  0.0226  0.4833 -0.5046
  712SOL     ow 2845   6.921   6.083   0.984  0.7407 -0.6162 -0.8705
  712SOL     hw 2846   6.923   6.012   0.921 -2.2837 -2.1365  0.5216
  712SOL     hw 2847   6.829   6.111   0.985  1.3679  1.6472  0.4109
  712SOL     vw 2848   6.909   6.078   0.976  0.4244 -0.5181 -0.5178
  713SOL     ow 2849   0.626   3.027   3.849 -0.3115  0.5698  0.0462
  713SOL     hw 2850   0.660   2.975   3.776 -1.1855 -0.1833  0.1648
  713SOL     hw 2851   0.549   3.072   3.814 -0.4942  0.5326  0.3940
  713SOL     vw 2852   0.620   3.026   3.835 -0.4510  0.4655  0.1076
  714SOL     ow 2853   2.449   7.057   5.321 -0.8995  0.3161  0.3087
  714SOL     hw 2854   2.430   7.144   5.286 -1.4751 -0.0347 -0.2903
  714SOL     hw 2855   2.489   7.010   5.247  2.0367  0.8946  1.4101
  714SOL     vw 2856   2.451   7.062   5.307 -0.5881  0.3462  0.3748
  715SOL     ow 2857   1.336   1.193   0.859  0.2922 -0.5637  0.0039
  715SOL     hw 2858   1.389   1.215   0.935 -0.7603  0.6788  0.4182
  715SOL     hw 2859   1.279   1.122   0.889  0.2372 -0.4258  0.2300
  715SOL     vw 2860   1.335   1.186   0.873  0.1461 -0.3816  0.0884
  716SOL     ow 2861   1.596   4.000   6.597 -0.6426  0.1010  0.5557
  716SOL     hw 2862   1.633   3.948   6.669  0.0383 -0.2618 -0.0402
  716SOL     hw 2863   1.509   4.026   6.627  0.3009  1.4939  2.2699
  716SOL     vw 2864   1.590   3.997   6.610 -0.4283  0.2370  0.7029
  717SOL     ow 2865   2.658   5.866   3.230  0.3820  0.5528  0.3473
  717SOL     hw 2866   2.590   5.912   3.180  1.1421  0.3605 -0.9156
  717SOL     hw 2867   2.658   5.908   3.315 -1.1664  0.7018  0.2929
  717SOL     vw 2868   2.649   5.877   3.234  0.2780  0.5469  0.1736
  718SOL     ow 2869   6.246   1.926   7.018  0.5432 -0.2983  0.0687
  718SOL     hw 2870   6.154   1.941   7.036  0.4069 -1.0586  0.0338
  718SOL     hw 2871   6.291   1.949   7.100  0.5975  2.2867 -0.5886
  718SOL     vw 2872   6.240   1.931   7.031  0.5324 -0.0576 -0.0229
  719SOL     ow 2873   1.987   2.835   5.974 -0.5555  0.1478 -0.4964
  719SOL     hw 2874   1.932   2.870   5.904  0.0336  0.2801 -0.9029
  719SOL     hw 2875   1.964   2.888   6.051 -2.2626 -0.9487 -0.1969
  719SOL     vw 2876   1.976   2.847   5.975 -0.7030  0.0206 -0.5107
  720SOL     ow 2877   2.847   3.666   5.465 -0.7797  0.0066 -0.3244
  720SOL     hw 2878   2.922   3.664   5.405 -1.1361  1.9739 -0.8947
  720SOL     hw 2879   2.777   3.707   5.414 -1.1404  1.6090  1.3894
  720SOL     vw 2880   2.847   3.671   5.450 -0.8742  0.4778 -0.1736
  721SOL     ow 2881   4.596   0.897   1.161  0.4388 -0.1900  0.2554
  721SOL     hw 2882   4.583   0.989   1.184  1.6546  0.2707 -0.7519
  721SOL     hw 2883   4.508   0.862   1.151 -0.1125  1.6678 -2.3496
  721SOL     vw 2884   4.583   0.904   1.163  0.5264  0.1159 -0.2212
  722SOL     ow 2885   0.358   3.575   5.436  0.1721 -0.9563  0.1562
  722SOL     hw 2886   0.341   3.660   5.396 -3.4816 -0.4433  2.3358
  722SOL     hw 2887   0.396   3.523   5.366 -0.5161  1.4903 -2.2260
  722SOL     vw 2888   0.361   3.580   5.422 -0.4008 -0.5659  0.1297
  723SOL     ow 2889   4.587   1.318   3.582  0.4924  0.4144 -0.3810
  723SOL     hw 2890   4.569   1.342   3.492 -0.6877  0.0497 -0.2622
  723SOL     hw 2891   4.545   1.386   3.634 -0.6914 -0.4989 -0.0918
  723SOL     vw 2892   4.579   1.330   3.577  0.1807  0.2458 -0.3271
  724SOL     ow 2893   0.864   0.910   6.706 -0.1576 -0.2723 -0.0181
  724SOL     hw 2894   0.828   0.982   6.654 -0.5132 -0.5835 -0.2069
  724SOL     hw 2895   0.789   0.873   6.752  0.4993  1.6931  2.8885
  724SOL     vw 2896   0.850   0.914   6.705 -0.1178 -0.0541  0.3407
  725SOL     ow 2897   3.064   6.060   5.731 -0.0053  0.1550 -0.5861
  725SOL     hw 2898   3.159   6.067   5.727 -0.0332  3.2957  1.2889
  725SOL     hw 2899   3.048   5.969   5.759  2.4544 -0.2499 -0.2777
  725SOL     vw 2900   3.074   6.049   5.734  0.3157  0.5159 -0.2978
  726SOL     ow 2901   2.587   4.755   0.258  0.9175 -0.0412  0.0286
  726SOL     hw 2902   2.580   4.842   0.220 -0.8311 -0.1593 -0.0099
  726SOL     hw 2903   2.565   4.767   0.351  0.7792 -0.4007  0.0471
  726SOL     vw 2904   2.583   4.768   0.266  0.6686 -0.1042  0.0260
  727SOL     ow 2905   6.562   2.393   3.668  0.1627  0.0031 -0.0697
  727SOL     hw 2906   6.501   2.332   3.711  1.1546 -0.4864  0.6856
  727SOL     hw 2907   6.566   2.364   3.577 -0.3855 -0.2359 -0.0203
  727SOL     vw 2908   6.554   2.381   3.662  0.2213 -0.0929  0.0365
  728SOL     ow 2909   1.799   0.822   3.898 -0.4396  0.0917 -0.2994
  728SOL     hw 2910   1.792   0.797   3.989  0.6584 -0.3701 -0.3282
  728SOL     hw 2911   1.866   0.890   3.897  0.3476 -0.6772 -0.8937
  728SOL     vw 2912   1.807   0.828   3.910 -0.1909 -0.0707 -0.3816
  729SOL     ow 2913   3.528   2.314   5.111 -0.1709  0.0763  0.2126
  729SOL     hw 2914   3.438   2.288   5.091 -0.2847  1.7788 -1.8067
  729SOL     hw 2915   3.579   2.280   5.037  0.4567  1.1879  0.1229
  729SOL     vw 2916   3.523   2.306   5.098 -0.1031  0.4475 -0.0658
  730SOL     ow 2917   2.882   2.327   4.384  0.4941  0.0499  1.0467
  730SOL     hw 2918   2.818   2.325   4.313  1.6400  0.2680 -0.0432
  730SOL     hw 2919   2.964   2.352   4.341  0.5576  3.8446  2.9740
  730SOL     vw 2920   2.884   2.330   4.369  0.6536  0.5794  1.1573
  731SOL     ow 2921   4.476   1.266   6.731 -0.4591  0.1373  0.2287
  731SOL     hw 2922   4.562   1.291   6.699 -0.0024 -1.7792 -0.1409
  731SOL     hw 2923   4.473   1.171   6.723 -3.0585  0.2201 -0.9359
  731SOL     vw 2924   4.487   1.257   6.726 -0.7417 -0.1047  0.0262
  732SOL     ow 2925   3.949   5.377   0.942  0.3444 -0.0811  0.1803
  732SOL     hw 2926   3.920   5.450   0.887 -2.5805  0.6184  2.4256
  732SOL     hw 2927   4.021   5.337   0.892  0.7152  3.0366 -2.0844
  732SOL     vw 2928   3.955   5.381   0.928  0.0074  0.4227  0.1777
  733SOL     ow 2929   6.440   4.843   0.343  0.1261 -0.1878  0.3797
  733SOL     hw 2930   6.522   4.848   0.295  1.1749  2.2883  2.2027
  733SOL     hw 2931   6.465   4.814   0.431 -0.8243  0.9848  1.0833
  733SOL     vw 2932   6.454   4.840   0.348  0.1390  0.2935  0.7130
  734SOL     ow 2933   7.171   5.632   1.184  0.4955  0.4763  0.2962
  734SOL     hw 2934   7.111   5.640   1.110  0.9384  3.1539  0.1415
  734SOL     hw 2935   7.115   5.601   1.256 -0.2597 -0.6230 -0.7165
  734SOL     vw 2936   7.155   5.629   1.184  0.4544  0.6847  0.1422
  735SOL     ow 2937   5.477   0.983   0.741 -0.8498 -0.0663  0.4577
  735SOL     hw 2938   5.456   1.010   0.651 -0.5804  0.2745  0.4976
  735SOL     hw 2939   5.424   0.904   0.754  1.2864 -1.8607 -1.0395
  735SOL     vw 2940   5.467   0.976   0.731 -0.5324 -0.2581  0.2654
  736SOL     ow 2941   3.596   6.074   2.007 -0.0505 -0.7726  0.4874
  736SOL     hw 2942   3.662   6.100   1.942 -0.8459 -0.4147 -0.1912
  736SOL     hw 2943   3.614   6.129   2.083  0.5994 -0.8648  0.4106
  736SOL     vw 2944   3.607   6.084   2.008 -0.0696 -0.7374  0.3877
  737SOL     ow 2945   3.493   1.218   7.060  0.2173  0.5523 -0.0357
  737SOL     hw 2946   3.473   1.162   7.135  0.9407  0.1423 -0.1416
  737SOL     hw 2947   3.567   1.175   7.017 -1.3505 -0.2558 -2.0802
  737SOL     vw 2948   3.500   1.205   7.064  0.1059  0.3916 -0.3192
  738SOL     ow 2949   1.721   2.552   1.536  0.2207  0.2009  0.6841
  738SOL     hw 2950   1.816   2.555   1.532  0.1786  1.4258  0.1863
  738SOL     hw 2951   1.694   2.643   1.542 -0.9243 -0.1366  0.9361
  738SOL     vw 2952   1.730   2.564   1.536  0.0641  0.3182  0.6517
  739SOL     ow 2953   6.099   0.180   1.274  0.4081  0.1746 -0.4532
  739SOL     hw 2954   6.049   0.140   1.204  0.8873 -0.5461 -0.3891
  739SOL     hw 2955   6.155   0.245   1.230  2.3408 -1.7894 -1.0835
  739SOL     vw 2956   6.100   0.183   1.259  0.7262 -0.1796 -0.5279
  740SOL     ow 2957   1.814   2.737   4.155  0.8660 -0.0587 -0.2674
  740SOL     hw 2958   1.866   2.793   4.098  0.1480  0.5798 -0.3010
  740SOL     hw 2959   1.726   2.739   4.118  0.7201 -0.8235  0.0128
  740SOL     vw 2960   1.809   2.745   4.143  0.7521 -0.0753 -0.2348
  741SOL     ow 2961   4.001   4.941   1.526  0.0680  0.0927 -0.0212
  741SOL     hw 2962   4.059   4.944   1.450 -1.3173  1.3749 -1.0921
  741SOL     hw 2963   3.917   4.910   1.491 -0.3244 -0.3111  1.2065
  741SOL     vw 2964   3.998   4.937   1.512 -0.1664  0.2086 -0.0005
  742SOL     ow 2965   0.131   6.864   4.041  0.1400 -0.5338 -0.6540
  742SOL     hw 2966   0.082   6.815   4.107  0.8415 -1.3423 -0.7063
  742SOL     hw 2967   0.064   6.911   3.991 -0.4617 -0.5626  0.1057
  742SOL     vw 2968   0.116   6.864   4.043  0.1532 -0.6442 -0.5608
  743SOL     ow 2969   6.974   3.160   2.405  0.6639 -0.0544  0.1176
  743SOL     hw 2970   6.879   3.173   2.411  0.5998 -1.2040  3.8095
  743SOL     hw 2971   7.012   3.242   2.437  0.8207 -0.4746  1.0352
  743SOL     vw 2972   6.966   3.173   2.410  0.6762 -0.2615  0.7257
  744SOL     ow 2973   5.713   3.742   3.652  0.3135 -0.2287  0.1101
  744SOL     hw 2974   5.733   3.661   3.699  0.9964  0.8564  1.7629
  744SOL     hw 2975   5.793   3.763   3.604  1.0721  0.7664  1.7142
  744SOL     vw 2976   5.726   3.734   3.652  0.5038  0.0459  0.5398
  745SOL     ow 2977   0.020   6.550   3.650 -0.2050  0.2751 -0.1109
  745SOL     hw 2978   0.061   6.633   3.673  0.2216  0.1828 -0.5344
  745SOL     hw 2979   0.027   6.545   3.555  0.4684 -0.6018 -0.0237
  745SOL     vw 2980   0.026   6.560   3.641 -0.0599  0.1476 -0.1552
  746SOL     ow 2981   4.712   3.498   4.553  0.1461 -0.2997  0.0881
  746SOL     hw 2982   4.671   3.556   4.489 -2.5148 -0.0210  1.9111
  746SOL     hw 2983   4.648   3.489   4.623  1.6535 -3.0964  1.2937
  746SOL     vw 2984   4.698   3.504   4.554 -0.0060 -0.6319  0.4876
  747SOL     ow 2985   3.027   5.108   5.946  0.3448  0.0503 -0.4298
  747SOL     hw 2986   2.933   5.099   5.930  0.5544 -3.3099 -0.5305
  747SOL     hw 2987   3.066   5.108   5.859  0.5077 -0.1589 -0.3571
  747SOL     vw 2988   3.020   5.107   5.933  0.3939 -0.4206 -0.4332
  748SOL     ow 2989   6.003   1.123   2.901  0.1898 -0.0714  0.1886
  748SOL     hw 2990   5.983   1.185   2.831  0.3606 -0.6630 -0.3946
  748SOL     hw 2991   5.997   1.037   2.859 -0.0738 -0.4554  0.9920
  748SOL     vw 2992   5.999   1.120   2.886  0.1774 -0.2002  0.2177
  749SOL     ow 2993   2.856   4.221   3.053 -0.0129  0.3743 -0.1119
  749SOL     hw 2994   2.810   4.198   2.973  0.1162 -1.0555  0.1901
  749SOL     hw 2995   2.883   4.312   3.041 -0.9449  0.5149 -1.2185
  749SOL     vw 2996   2.854   4.230   3.041 -0.1189  0.2041 -0.2182
  750SOL     ow 2997   6.108   0.006   4.115  0.3887 -0.4470 -0.4339
  750SOL     hw 2998   6.111  -0.073   4.060 -0.0726  0.2462 -1.4883
  750SOL     hw 2999   6.131   0.077   4.056 -1.5303  0.5042 -0.1091
  750SOL     vw 3000   6.111   0.005   4.100  0.0749 -0.2298 -0.5305
  751SOL     ow 3001   4.745   6.154   5.608 -0.0323 -0.1678  0.0175
  751SOL     hw 3002   4.749   6.072   5.656  1.1359  0.1886  0.5609
  751SOL     hw 3003   4.753   6.129   5.516  1.4550 -0.5943  0.2453
  751SOL     vw 3004   4.747   6.140   5.602  0.3183 -0.1769  0.1194
  752SOL     ow 3005   3.401   1.057   0.032 -0.2316 -0.2716 -0.2231
  752SOL     hw 3006   3.461   1.003   0.082 -0.6358 -0.9782 -0.4919
  752SOL     hw 3007   3.401   1.142   0.077  2.0146  0.2026 -1.0116
  752SOL     vw 3008   3.409   1.061   0.045  0.0113 -0.3023 -0.3626
  753SOL     ow 3009   0.524   7.177   5.652  0.0904  0.3481  0.5574
  753SOL     hw 3010   0.472   7.167   5.732  0.1135 -1.1312  0.4217
  753SOL     hw 3011   0.462   7.163   5.581  0.2564  0.7133  0.3395
  753SOL     vw 3012   0.509   7.174   5.653  0.1153  0.2010  0.5107
  754SOL     ow 3013   1.323   1.610   4.167 -0.1258  0.3147  0.1298
  754SOL     hw 3014   1.361   1.551   4.102  1.7940  0.6270  0.9004
  754SOL     hw 3015   1.328   1.562   4.250  0.6015  1.1896  0.6074
  754SOL     vw 3016   1.329   1.596   4.169  0.2235  0.4714  0.2942
  755SOL     ow 3017   0.852   6.092   6.513 -0.1989  0.1265  0.2651
  755SOL     hw 3018   0.769   6.123   6.478 -0.6128 -0.9931  0.2221
  755SOL     hw 3019   0.889   6.168   6.559 -0.3364  1.1971 -1.3157
  755SOL     vw 3020   0.846   6.106   6.514 -0.2716  0.1199  0.0508
  756SOL     ow 3021   5.086   4.620   5.946 -0.3423 -0.3438  0.2377
  756SOL     hw 3022   5.132   4.585   5.870  0.1718 -1.0579  0.8552
  756SOL     hw 3023   5.055   4.706   5.919  2.7386  0.8955  0.2833
  756SOL     vw 3024   5.088   4.626   5.932  0.1318 -0.2749  0.3252
  757SOL     ow 3025   1.971   4.762   3.104  0.1824 -0.2433 -0.4316
  757SOL     hw 3026   2.009   4.849   3.101  0.2440 -0.1450  1.5623
  757SOL     hw 3027   1.877   4.776   3.098  0.2668 -0.2140 -1.9607
  757SOL     vw 3028   1.964   4.775   3.103  0.2016 -0.2265 -0.3701
  758SOL     ow 3029   5.635   6.615   5.194  0.0235 -0.4106  0.0463
  758SOL     hw 3030   5.689   6.670   5.251  0.1620  0.0719 -0.5480
  758SOL     hw 3031   5.547   6.620   5.232  0.6136 -2.4247  1.9531
  758SOL     vw 3032   5.630   6.623   5.207  0.1197 -0.6127  0.2196
  759SOL     ow 3033   4.880   6.708   4.217 -1.0780 -0.0084 -0.7945
  759SOL     hw 3034   4.881   6.631   4.159  1.7956 -1.5000  0.9905
  759SOL     hw 3035   4.943   6.768   4.179 -1.5028  0.3830 -0.8814
  759SOL     vw 3036   4.888   6.706   4.205 -0.7548 -0.1538 -0.5705
  760SOL     ow 3037   6.445   6.224   6.275  0.0740 -0.6700  0.4404
  760SOL     hw 3038   6.523   6.191   6.321 -0.2833 -1.3637  0.5545
  760SOL     hw 3039   6.481   6.281   6.207  0.6219  0.3349  1.5216
  760SOL     vw 3040   6.460   6.227   6.272  0.0992 -0.6289  0.5980
  761SOL     ow 3041   2.277   6.886   1.871 -0.5497  0.4031 -0.2951
  761SOL     hw 3042   2.369   6.858   1.862 -0.4327  0.5357  0.4452
  761SOL     hw 3043   2.278   6.946   1.945 -0.8653  2.0836 -1.5854
  761SOL     vw 3044   2.289   6.890   1.879 -0.5758  0.6423 -0.3676
  762SOL     ow 3045   0.926   0.067   5.620  0.0685 -0.1461 -0.3449
  762SOL     hw 3046   0.857   0.001   5.624  1.7032 -1.9246 -0.3491
  762SOL     hw 3047   0.928   0.094   5.528 -0.8781  0.2608 -0.2627
  762SOL     vw 3048   0.917   0.062   5.608  0.1594 -0.3270 -0.3345
  763SOL     ow 3049   3.644   1.192   5.032 -0.9179  0.1954  0.1921
  763SOL     hw 3050   3.573   1.255   5.041 -0.3097  1.1800 -1.4663
  763SOL     hw 3051   3.721   1.239   5.064 -0.3175  0.6403 -1.7831
  763SOL     vw 3052   3.645   1.207   5.038 -0.7583  0.3840 -0.2873
  764SOL     ow 3053   3.629   0.762   6.714  0.2760  0.3683  0.0627
  764SOL     hw 3054   3.634   0.764   6.618 -0.8138  0.4399 -0.0055
  764SOL     hw 3055   3.692   0.828   6.743  2.3388 -1.2171 -0.5122
  764SOL     vw 3056   3.638   0.771   6.705  0.4044  0.1686 -0.0222
  765SOL     ow 3057   3.561   2.344   5.708  0.5037  0.2267 -0.0323
  765SOL     hw 3058   3.523   2.275   5.654 -1.3256  2.8138 -2.3422
  765SOL     hw 3059   3.611   2.398   5.647  2.2030  0.7958  1.7511
  765SOL     vw 3060   3.563   2.342   5.693  0.4865  0.6430 -0.1018
  766SOL     ow 3061   0.934   4.778   5.605 -0.6298  0.5287 -0.0259
  766SOL     hw 3062   0.992   4.703   5.590  2.3151  2.6628 -0.2225
  766SOL     hw 3063   0.945   4.832   5.526  0.5013  3.0195  1.7048
  766SOL     vw 3064   0.943   4.776   5.592 -0.0920  1.1392  0.1767
  767SOL     ow 3065   2.454   6.610   5.232 -0.4837  0.4027  0.4063
  767SOL     hw 3066   2.447   6.516   5.217 -2.0736  0.3239  1.3493
  767SOL     hw 3067   2.421   6.650   5.151  0.8138  0.1912 -0.2524
  767SOL     vw 3068   2.449   6.603   5.219 -0.5223  0.3645  0.4437
  768SOL     ow 3069   3.807   3.026   4.172  0.6948  0.0290  0.2837
  768SOL     hw 3070   3.875   3.002   4.109 -1.1498 -0.3397 -1.6394
  768SOL     hw 3071   3.826   2.971   4.249 -0.2848 -3.9158 -2.0128
  768SOL     vw 3072   3.819   3.015   4.174  0.3221 -0.5401 -0.2730
  769SOL     ow 3073   3.164   5.508   4.392  0.2492 -0.2522  0.3508
  769SOL     hw 3074   3.254   5.511   4.422 -0.5011  1.2268  2.7416
  769SOL     hw 3075   3.158   5.578   4.327  0.8796 -0.6099 -0.1077
  769SOL     vw 3076   3.175   5.517   4.387  0.2334 -0.1044  0.6056
  770SOL     ow 3077   7.054   6.205   0.027  0.0622  0.4805  0.0673
  770SOL     hw 3078   7.121   6.233   0.088 -0.8146  1.1834  0.7353
  770SOL     hw 3079   7.086   6.121  -0.007  2.2436  1.7263 -1.1902
  770SOL     vw 3080   7.067   6.197   0.031  0.2344  0.7377 -0.0104
  771SOL     ow 3081   2.699   3.501   5.684  0.4946  0.8994 -0.3280
  771SOL     hw 3082   2.607   3.522   5.701  0.3959 -0.4250  1.0552
  771SOL     hw 3083   2.748   3.559   5.742  0.2987 -1.1929  2.1047
  771SOL     vw 3084   2.693   3.511   5.694  0.4557  0.4486  0.1755
  772SOL     ow 3085   1.296   5.195   1.570  0.1105  0.1308 -0.3416
  772SOL     hw 3086   1.362   5.133   1.601  0.3607  1.8038  2.8481
  772SOL     hw 3087   1.338   5.281   1.575 -1.5077  0.9990 -0.6479
  772SOL     vw 3088   1.310   5.198   1.575 -0.0700  0.4661  0.0388
  773SOL     ow 3089   0.051   7.196   5.493 -0.6146 -1.0995 -0.1057
  773SOL     hw 3090   0.137   7.220   5.458 -0.3048  0.1137  1.4033
  773SOL     hw 3091   0.069   7.126   5.555 -0.8598 -1.5206 -0.5009
  773SOL     vw 3092   0.065   7.190   5.496 -0.6061 -0.9949  0.0412
  774SOL     ow 3093   4.309   3.794   6.169  0.3432  0.9269  0.5555
  774SOL     hw 3094   4.359   3.874   6.185 -2.1161  2.3294  1.7923
  774SOL     hw 3095   4.284   3.799   6.076 -0.2953  1.9635  0.7605
  774SOL     vw 3096   4.312   3.805   6.158 -0.0656  1.2487  0.7455
  775SOL     ow 3097   4.117   7.129   5.427  0.6590  0.2762  0.9184
  775SOL     hw 3098   4.150   7.050   5.471 -1.3800 -1.9265 -1.2466
  775SOL     hw 3099   4.023   7.130   5.447  0.0611  0.3361 -1.6103
  775SOL     vw 3100   4.109   7.118   5.436  0.3111 -0.0064  0.2990
  776SOL     ow 3101   2.586   5.673   3.029  0.0726  0.4137  0.2653
  776SOL     hw 3102   2.648   5.651   2.959  0.8061  1.4732  0.5517
  776SOL     hw 3103   2.509   5.707   2.983  0.0583 -0.0619 -0.0671
  776SOL     vw 3104   2.584   5.675   3.014  0.1675  0.4907  0.2593
  777SOL     ow 3105   6.750   3.043   6.312  0.1160  0.1630  0.0155
  777SOL     hw 3106   6.727   2.971   6.255  2.8870  0.2991 -1.4767
  777SOL     hw 3107   6.761   3.118   6.253  2.2630  0.5002  0.7256
  777SOL     vw 3108   6.749   3.044   6.297  0.7646  0.2257 -0.0877
  778SOL     ow 3109   1.380   2.437   7.165 -0.4089  0.4614 -0.1227
  778SOL     hw 3110   1.358   2.381   7.090  0.0752 -0.4494  0.4033
  778SOL     hw 3111   1.313   2.416   7.230  0.8053 -0.8881  0.7579
  778SOL     vw 3112   1.368   2.426   7.164 -0.1848  0.1631  0.0627
  779SOL     ow 3113   0.748   1.614   0.956 -0.5681 -0.5795 -0.8759
  779SOL     hw 3114   0.791   1.626   1.040 -1.5737 -1.0111 -0.2835
  779SOL     hw 3115   0.751   1.519   0.941 -2.4161 -0.7787 -0.2041
  779SOL     vw 3116   0.754   1.603   0.965 -0.9446 -0.6627 -0.7091
  780SOL     ow 3117   7.124   3.053   2.630  0.7785 -0.0790 -0.3410
  780SOL     hw 3118   7.146   2.975   2.681  0.8872  0.7684  0.9335
  780SOL     hw 3119   7.051   3.093   2.676 -1.0326 -0.7529 -2.4086
  780SOL     vw 3120   7.117   3.048   2.643  0.5538 -0.0561 -0.4456
  781SOL     ow 3121   5.136   6.080   5.384 -0.2272 -0.2223  0.6081
  781SOL     hw 3122   5.163   6.154   5.438 -1.2011  0.9640 -0.4610
  781SOL     hw 3123   5.188   6.089   5.304  0.4151 -1.3329  0.8741
  781SOL     vw 3124   5.146   6.091   5.380 -0.2711 -0.2122  0.5021
  782SOL     ow 3125   5.956   1.110   0.477  0.1885 -0.1001 -0.1963
  782SOL     hw 3126   5.969   1.108   0.382  0.7228 -1.0402 -0.1126
  782SOL     hw 3127   5.861   1.121   0.488  0.0534 -0.5952 -0.8347
  782SOL     vw 3128   5.945   1.111   0.466  0.2410 -0.2894 -0.2695
  783SOL     ow 3129   5.475   1.242   5.844  0.4674 -0.8463  0.1964
  783SOL     hw 3130   5.564   1.210   5.853  0.6469  0.2049  3.1418
  783SOL     hw 3131   5.436   1.230   5.930 -1.7394  0.1770 -0.5746
  783SOL     vw 3132   5.481   1.237   5.856  0.1998 -0.5726  0.4833
  784SOL     ow 3133   3.835   4.946   1.783  0.3302  0.6819  0.8342
  784SOL     hw 3134   3.752   4.898   1.775 -0.4166  2.1103 -0.4430
  784SOL     hw 3135   3.813   5.021   1.839  0.0339  2.4252 -1.4437
  784SOL     vw 3136   3.821   4.950   1.789  0.1926  1.1003  0.3651
  785SOL     ow 3137   0.304   2.420   0.094  0.2654  0.0260 -0.1574
  785SOL     hw 3138   0.245   2.405   0.021  0.5160 -1.4461 -0.0882
  785SOL     hw 3139   0.373   2.355   0.083 -0.2759 -0.9964  1.9760
  785SOL     vw 3140   0.305   2.409   0.083  0.2270 -0.3029  0.1333
  786SOL     ow 3141   0.848   6.702   0.455 -0.1614  0.1886  0.1716
  786SOL     hw 3142   0.864   6.619   0.409 -0.8276  0.1247  0.0534
  786SOL     hw 3143   0.794   6.753   0.395 -0.3633  0.4265  0.5501
  786SOL     vw 3144   0.843   6.698   0.441 -0.2759  0.2117  0.2059
  787SOL     ow 3145   2.826   3.626   3.299 -0.2975  0.1773 -0.1856
  787SOL     hw 3146   2.769   3.550   3.310  0.9746 -0.4853  3.0931
  787SOL     hw 3147   2.894   3.597   3.239 -0.7532 -0.6781 -0.3047
  787SOL     vw 3148   2.827   3.612   3.293 -0.1898 -0.0231  0.2314
  788SOL     ow 3149   4.802   0.228   6.226  0.7674  0.3000 -0.8545
  788SOL     hw 3150   4.766   0.313   6.251 -0.8271  0.5066 -3.4544
  788SOL     hw 3151   4.740   0.165   6.263 -0.0084  0.4686 -1.8285
  788SOL     vw 3152   4.789   0.231   6.234  0.4549  0.3495 -1.3261
  789SOL     ow 3153   7.089   0.427   6.820  0.2594  0.4475  0.2648
  789SOL     hw 3154   7.184   0.435   6.811  0.3999  0.0734  1.2646
  789SOL     hw 3155   7.068   0.346   6.773  0.2718  1.1308 -0.9309
  789SOL     vw 3156   7.099   0.417   6.813  0.2794  0.4883  0.2389
  790SOL     ow 3157   5.015   5.667   1.021 -0.8566  0.1709  0.4802
  790SOL     hw 3158   4.964   5.619   0.956 -1.6522 -1.4830  2.2481
  790SOL     hw 3159   4.964   5.747   1.037 -0.3856  0.8669 -1.2378
  790SOL     vw 3160   5.001   5.671   1.015 -0.8996  0.0443  0.4868
  791SOL     ow 3161   4.952   0.284   5.132  0.1857 -0.0059  0.2106
  791SOL     hw 3162   4.945   0.317   5.222 -0.6453 -0.8226  0.4507
  791SOL     hw 3163   5.023   0.220   5.136  0.9363  0.7923  0.0183
  791SOL     vw 3164   4.961   0.280   5.145  0.1750 -0.0084  0.2167
  792SOL     ow 3165   6.724   3.275   6.903  0.6049  0.5460 -0.4736
  792SOL     hw 3166   6.691   3.346   6.847 -1.2259  0.7477  0.7474
  792SOL     hw 3167   6.793   3.317   6.955 -0.9364  1.7069  0.7431
  792SOL     vw 3168   6.729   3.290   6.903  0.1597  0.7259 -0.1521
  793SOL     ow 3169   3.860   5.693   7.062  0.2879 -0.2222  0.2688
  793SOL     hw 3170   3.935   5.666   7.115  1.2075 -1.1512 -1.4146
  793SOL     hw 3171   3.875   5.652   6.977 -0.6515  1.9211 -1.0085
  793SOL     vw 3172   3.872   5.684   7.058  0.2853 -0.0620 -0.1218
  794SOL     ow 3173   0.483   4.014   5.912  0.1047 -0.0149 -0.1644
  794SOL     hw 3174   0.400   3.987   5.951 -0.6622 -0.5683 -2.0418
  794SOL     hw 3175   0.547   4.006   5.983 -1.5858  1.4042  1.6061
  794SOL     vw 3176   0.481   4.009   5.927 -0.2196  0.0992 -0.1783
  795SOL     ow 3177   5.831   0.264   2.589  0.2441 -0.1584  0.0054
  795SOL     hw 3178   5.875   0.302   2.513  0.9497  0.9695  0.9479
  795SOL     hw 3179   5.853   0.171   2.585  0.2505 -0.1223 -1.1723
  795SOL     vw 3180   5.840   0.256   2.578  0.3381 -0.0048 -0.0255
  796SOL     ow 3181   4.087   6.216   3.713 -0.2236  0.2750  0.9209
  796SOL     hw 3182   4.084   6.289   3.776  0.3084  1.0729  0.0489
  796SOL     hw 3183   4.009   6.229   3.658  1.4023  2.0217 -1.1602
  796SOL     vw 3184   4.076   6.228   3.714  0.0613  0.6106  0.5313
  797SOL     ow 3185   6.574   4.709   3.735 -0.1233  0.6118 -0.3209
  797SOL     hw 3186   6.557   4.706   3.829 -0.5401  0.4237 -0.3987
  797SOL     hw 3187   6.516   4.643   3.698  0.4098  0.3233 -0.6615
  797SOL     vw 3188   6.564   4.700   3.742 -0.1080  0.5491 -0.3761
  798SOL     ow 3189   5.860   3.191   1.911  0.3556 -0.0678  0.1551
  798SOL     hw 3190   5.910   3.207   1.991  0.0047 -0.3402  0.4341
  798SOL     hw 3191   5.786   3.251   1.917 -0.3490 -0.9650  0.6492
  798SOL     vw 3192   5.857   3.201   1.922  0.2162 -0.2220  0.2571
  799SOL     ow 3193   2.613   0.105   5.594 -0.1716 -0.1600  0.1118
  799SOL     hw 3194   2.671   0.166   5.549 -0.0589  0.6501  1.3179
  799SOL     hw 3195   2.624   0.022   5.547  1.0908  0.2664 -0.3803
  799SOL     vw 3196   2.622   0.102   5.582  0.0098  0.0032  0.2060
  800SOL     ow 3197   1.098   6.692   2.383 -0.5359 -0.8037  0.7949
  800SOL     hw 3198   1.081   6.602   2.356 -0.4808 -0.8223  0.8220
  800SOL     hw 3199   1.049   6.746   2.321 -1.5157 -0.8814  1.4689
  800SOL     vw 3200   1.089   6.687   2.372 -0.6580 -0.8166  0.8874
  801SOL     ow 3201   6.469   1.442   2.357 -0.5028  0.2992 -0.1505
  801SOL     hw 3202   6.521   1.423   2.435 -1.5430 -0.5611  0.3449
  801SOL     hw 3203   6.400   1.377   2.357 -0.8385  0.6163 -1.5133
  801SOL     vw 3204   6.467   1.431   2.367 -0.6845  0.2275 -0.2650
  802SOL     ow 3205   1.192   4.301   1.381  0.0507  0.1856 -0.4991
  802SOL     hw 3206   1.167   4.289   1.289 -0.7775 -0.8512 -0.1567
  802SOL     hw 3207   1.232   4.388   1.383  0.0642  0.2401 -1.8359
  802SOL     vw 3208   1.194   4.311   1.369 -0.0567  0.0560 -0.6303
  803SOL     ow 3209   5.389   1.452   6.276 -0.2415  0.3104 -0.4892
  803SOL     hw 3210   5.432   1.512   6.216 -0.9760  0.4443 -0.8971
  803SOL     hw 3211   5.372   1.373   6.225 -1.1964  0.5595 -0.5842
  803SOL     vw 3212   5.392   1.450   6.262 -0.4642  0.3608 -0.5555
  804SOL     ow 3213   3.474   1.069   4.793  0.0132  0.2621  0.3793
  804SOL     hw 3214   3.397   1.025   4.830  0.6683  0.6423  2.3323
  804SOL     hw 3215   3.438   1.132   4.731 -1.1384 -0.5841  0.1337
  804SOL     vw 3216   3.459   1.071   4.790 -0.0523  0.2007  0.6046
  805SOL     ow 3217   5.152   0.126   5.158 -0.4940  0.2160 -0.4319
  805SOL     hw 3218   5.142   0.079   5.241  0.1530 -0.1730 -0.5694
  805SOL     hw 3219   5.235   0.174   5.168 -0.7747  0.7463 -0.5795
  805SOL     vw 3220   5.162   0.126   5.171 -0.4456  0.2347 -0.4694
  806SOL     ow 3221   3.781   3.309   6.581 -0.3079 -0.6962 -0.7181
  806SOL     hw 3222   3.848   3.353   6.633 -0.1366  1.1889 -2.4088
  806SOL     hw 3223   3.818   3.222   6.563  1.9039  0.4073 -1.9031
  806SOL     vw 3224   3.795   3.303   6.585  0.0066 -0.3018 -1.0977
  807SOL     ow 3225   4.558   4.863   3.766  0.4076  0.3365 -0.1437
  807SOL     hw 3226   4.586   4.777   3.734 -0.5627 -0.7724  1.7637
  807SOL     hw 3227   4.523   4.845   3.854 -1.6690  2.3693 -0.4547
  807SOL     vw 3228   4.557   4.849   3.774  0.0057  0.4582  0.0668
  808SOL     ow 3229   6.375   3.959   2.580 -0.1726 -0.0447 -0.7344
  808SOL     hw 3230   6.397   3.867   2.592  3.0127  0.7267  0.2342
  808SOL     hw 3231   6.392   3.975   2.487  0.7906 -0.1216 -0.5844
  808SOL     vw 3232   6.380   3.949   2.569  0.3748  0.0470 -0.5867
  809SOL     ow 3233   0.556   6.606   1.512 -0.0949 -0.0894 -0.3099
  809SOL     hw 3234   0.493   6.572   1.448  0.9479  0.3083 -1.5981
  809SOL     hw 3235   0.610   6.668   1.462  1.5057 -0.6186  0.6846
  809SOL     vw 3236   0.555   6.610   1.497  0.2539 -0.1066 -0.3487
  810SOL     ow 3237   2.516   0.286   6.846  0.3512  0.2371 -0.7450
  810SOL     hw 3238   2.546   0.247   6.928 -0.9319 -0.1416 -0.4408
  810SOL     hw 3239   2.546   0.376   6.850 -0.5632  0.5078  0.6213
  810SOL     vw 3240   2.524   0.292   6.857  0.0612  0.2228 -0.5245
  811SOL     ow 3241   4.423   4.050   3.435  0.1689 -0.8146 -0.3954
  811SOL     hw 3242   4.364   4.089   3.500  1.3642  1.3690 -0.5616
  811SOL     hw 3243   4.463   3.976   3.482  1.7537  1.2704  1.7935
  811SOL     vw 3244   4.420   4.045   3.450  0.5355 -0.2513 -0.1285
  812SOL     ow 3245   2.985   0.949   6.872  0.5130  0.6420 -0.0883
  812SOL     hw 3246   2.949   0.998   6.947  2.3705  2.0270 -0.0382
  812SOL     hw 3247   2.960   1.001   6.796 -0.3622 -0.1477 -0.3623
  812SOL     vw 3248   2.977   0.963   6.872  0.6428  0.7205 -0.1180
  813SOL     ow 3249   3.318   1.326   1.881  0.4308 -0.1527 -0.5495
  813SOL     hw 3250   3.311   1.299   1.789 -1.1339  1.4604 -0.9698
  813SOL     hw 3251   3.248   1.391   1.892  0.7434 -0.1213  1.7308
  813SOL     vw 3252   3.308   1.331   1.870  0.2656  0.0643 -0.3041
  814SOL     ow 3253   3.829   6.482   5.929 -0.4036  0.1336 -0.5329
  814SOL     hw 3254   3.890   6.534   5.876  0.2620  0.4653  0.5271
  814SOL     hw 3255   3.885   6.440   5.995 -0.9239 -1.9108 -1.3203
  814SOL     vw 3256   3.845   6.483   5.931 -0.3844 -0.0920 -0.4971
  815SOL     ow 3257   5.607   3.866   6.001 -0.5961  0.1371 -0.4711
  815SOL     hw 3258   5.523   3.877   5.957 -1.2352 -2.5003 -0.0756
  815SOL     hw 3259   5.586   3.819   6.082  1.2982 -1.4010 -0.7782
  815SOL     vw 3260   5.593   3.861   6.006 -0.4303 -0.4138 -0.4597
  816SOL     ow 3261   2.725   4.134   5.126  0.1611 -0.1986  0.1032
  816SOL     hw 3262   2.791   4.150   5.194  0.9592  0.8638 -0.8869
  816SOL     hw 3263   2.661   4.077   5.169  1.2778 -0.5786  1.3565
  816SOL     vw 3264   2.725   4.129   5.141  0.4138 -0.1085  0.1380
  817SOL     ow 3265   4.205   5.936   1.050  0.6207 -0.0939 -0.3403
  817SOL     hw 3266   4.111   5.949   1.049  0.3118 -1.8769  0.9615
  817SOL     hw 3267   4.217   5.845   1.023  1.9287 -0.0610  0.0655
  817SOL     vw 3268   4.194   5.926   1.046  0.7527 -0.3250 -0.1150
  818SOL     ow 3269   1.559   2.533   6.744  0.2602 -0.2071 -0.6120
  818SOL     hw 3270   1.585   2.454   6.792  0.1479 -0.1090 -0.3851
  818SOL     hw 3271   1.488   2.504   6.686 -0.8716  0.0261  0.5954
  818SOL     vw 3272   1.553   2.519   6.743  0.0961 -0.1634 -0.4227
  819SOL     ow 3273   1.634   6.934   4.120  0.0445 -1.3565 -0.8434
  819SOL     hw 3274   1.656   6.975   4.203  1.1137 -1.3435 -1.1187
  819SOL     hw 3275   1.694   6.860   4.113  0.6760 -0.7576 -2.0732
  819SOL     vw 3276   1.645   6.929   4.130  0.2689 -1.2758 -1.0421
  820SOL     ow 3277   1.649   4.899   1.421  0.4241  0.4120  0.3746
  820SOL     hw 3278   1.586   4.918   1.491  0.8660  1.9681  0.3913
  820SOL     hw 3279   1.727   4.867   1.467  0.2174  0.0499  0.4773
  820SOL     vw 3280   1.651   4.897   1.436  0.4551  0.5693  0.3904
  821SOL     ow 3281   0.745   1.144   4.405  0.1771 -0.2034 -0.2510
  821SOL     hw 3282   0.760   1.239   4.407 -1.1438  0.0623 -1.3186
  821SOL     hw 3283   0.822   1.107   4.449  0.7821  1.3443  0.0859
  821SOL     vw 3284   0.757   1.152   4.411  0.0827  0.0359 -0.3471
  822SOL     ow 3285   3.018   2.188   4.650 -0.6609  0.4602  0.3098
  822SOL     hw 3286   3.101   2.233   4.633 -1.2618  0.9109 -1.7370
  822SOL     hw 3287   3.026   2.157   4.740  0.8582  2.3495  0.9085
  822SOL     vw 3288   3.030   2.190   4.660 -0.5398  0.7689  0.1187
  823SOL     ow 3289   4.521   0.996   6.637  0.7312  0.1676 -0.5158
  823SOL     hw 3290   4.547   0.911   6.672  1.6608  1.0982  1.2093
  823SOL     hw 3291   4.591   1.018   6.575 -0.3710 -1.0139 -2.2620
  823SOL     vw 3292   4.534   0.988   6.633  0.7083  0.1345 -0.5186
  824SOL     ow 3293   4.769   5.417   4.797  0.1909 -0.2364 -0.0611
  824SOL     hw 3294   4.696   5.386   4.852 -1.1865  0.0127 -1.6673
  824SOL     hw 3295   4.831   5.344   4.798 -0.2053 -0.5960  1.0740
  824SOL     vw 3296   4.767   5.403   4.805 -0.0434 -0.2508 -0.1235
  825SOL     ow 3297   3.157   0.245   3.028  0.3645 -0.2534  0.1016
  825SOL     hw 3298   3.116   0.166   3.063  0.7703 -0.4641  0.1051
  825SOL     hw 3299   3.232   0.214   2.978 -0.3680  0.0091 -1.2363
  825SOL     vw 3300   3.161   0.231   3.026  0.3214 -0.2465 -0.0744
  826SOL     ow 3301   4.718   2.451   1.207 -0.1029  1.0741  0.4493
  826SOL     hw 3302   4.696   2.544   1.206  2.0393  1.6439 -1.2211
  826SOL     hw 3303   4.806   2.446   1.169  0.1292 -1.5827  1.0928
  826SOL     vw 3304   4.727   2.463   1.202  0.2100  0.7988  0.3138
  827SOL     ow 3305   0.086   2.103   2.023  0.2079  0.4591 -0.7160
  827SOL     hw 3306   0.178   2.119   2.004  1.3036  0.0400  3.4023
  827SOL     hw 3307   0.077   2.008   2.020 -0.8469  0.5597 -3.5948
  827SOL     vw 3308   0.097   2.093   2.020  0.2133  0.4170 -0.5524
  828SOL     ow 3309   3.074   1.796   4.473 -0.1687 -0.1651  0.5833
  828SOL     hw 3310   3.028   1.739   4.412 -0.2948  0.1987  0.3367
  828SOL     hw 3311   3.044   1.768   4.560  0.1817 -0.8344  0.5017
  828SOL     vw 3312   3.064   1.785   4.477 -0.1391 -0.2053  0.5398
  829SOL     ow 3313   3.064   5.961   2.065  0.3945 -0.1613  0.1530
  829SOL     hw 3314   3.086   5.964   2.158  2.9488  2.5366 -0.4103
  829SOL     hw 3315   3.001   6.031   2.053 -0.5782 -1.0482 -0.0583
  829SOL     vw 3316   3.059   5.970   2.076  0.6033  0.0775  0.0509
  830SOL     ow 3317   4.705   6.914   4.087  0.3636 -0.1898 -0.0124
  830SOL     hw 3318   4.677   7.004   4.103  1.2024  0.2508 -0.9028
  830SOL     hw 3319   4.740   6.915   3.998 -1.5002 -1.8728 -0.8511
  830SOL     vw 3320   4.706   6.926   4.078  0.2284 -0.3538 -0.2403
  831SOL     ow 3321   0.433   6.013   0.622 -0.2469  0.1566 -0.6288
  831SOL     hw 3322   0.426   6.105   0.648 -0.7129 -0.3190  1.0867
  831SOL     hw 3323   0.527   5.998   0.611  0.0124  0.3714  1.0456
  831SOL     vw 3324   0.445   6.023   0.624 -0.2742  0.1221 -0.1815
  832SOL     ow 3325   1.825   0.542   3.213 -0.2580  0.2663 -0.1911
  832SOL     hw 3326   1.825   0.638   3.207  1.4792  0.3630  0.7168
  832SOL     hw 3327   1.866   0.514   3.131 -0.1956  0.3159 -0.1770
  832SOL     vw 3328   1.830   0.551   3.201 -0.0206  0.2856 -0.0694
  833SOL     ow 3329   4.492   6.058   6.786 -0.7926 -0.0182 -0.2367
  833SOL     hw 3330   4.409   6.096   6.757 -1.9255 -0.9947  1.5369
  833SOL     hw 3331   4.477   5.964   6.785  0.5219 -0.2408 -0.4730
  833SOL     vw 3332   4.479   6.051   6.782 -0.7684 -0.1767 -0.0336
  834SOL     ow 3333   6.292   1.009   1.557 -0.2640 -0.0732  0.3257
  834SOL     hw 3334   6.219   1.064   1.585  0.6971  0.7932  1.1879
  834SOL     hw 3335   6.362   1.070   1.536  0.4374 -0.9216  0.1218
  834SOL     vw 3336   6.291   1.024   1.558 -0.0448 -0.0708  0.4125
  835SOL     ow 3337   2.961   7.132   1.732  0.8639 -0.4485 -0.2185
  835SOL     hw 3338   2.960   7.109   1.638 -0.2954  0.3478 -0.4232
  835SOL     hw 3339   2.905   7.065   1.773  0.1801  0.0440 -0.3265
  835SOL     vw 3340   2.953   7.120   1.725  0.6207 -0.2785 -0.2598
  836SOL     ow 3341   5.290   1.772   3.891 -0.2082 -0.4321 -0.1196
  836SOL     hw 3342   5.329   1.756   3.977  0.6344  2.2831  0.1156
  836SOL     hw 3343   5.318   1.698   3.838  2.0577 -0.5562  1.1134
  836SOL     vw 3344   5.299   1.760   3.896  0.2019 -0.0903  0.0741
  837SOL     ow 3345   2.638   1.359   0.627 -0.0329  0.4082  0.3576
  837SOL     hw 3346   2.643   1.384   0.534  0.0899  2.1018  0.7800
  837SOL     hw 3347   2.545   1.343   0.643 -0.0363 -0.0357 -0.0890
  837SOL     vw 3348   2.627   1.360   0.617 -0.0173  0.5731  0.3544
  838SOL     ow 3349   3.386   1.950   4.321 -0.2374 -0.2743 -0.2016
  838SOL     hw 3350   3.369   1.865   4.360  1.6011 -1.0775 -0.9961
  838SOL     hw 3351   3.442   1.996   4.384  3.0841 -1.7349 -1.8500
  838SOL     vw 3352   3.391   1.945   4.334  0.4435 -0.5730 -0.5240
  839SOL     ow 3353   3.212   1.657   5.293 -0.1043 -0.2291 -0.1637
  839SOL     hw 3354   3.238   1.712   5.220 -2.3905  0.4321 -0.5508
  839SOL     hw 3355   3.141   1.705   5.336  0.5326 -1.0351  1.9529
  839SOL     vw 3356   3.206   1.670   5.289 -0.3220 -0.2483  0.0644
  840SOL     ow 3357   6.107   0.531   2.868  0.1558 -0.0634 -0.3551
  840SOL     hw 3358   6.131   0.487   2.950 -0.8664 -1.0036 -0.5285
  840SOL     hw 3359   6.019   0.499   2.849 -0.2282  1.3199 -1.0322
  840SOL     vw 3360   6.099   0.521   2.876 -0.0296 -0.0049 -0.4673
  841SOL     ow 3361   4.848   6.269   2.940 -0.5434  0.2515  0.2463
  841SOL     hw 3362   4.919   6.264   2.876 -0.5886 -2.9818  0.3005
  841SOL     hw 3363   4.879   6.333   3.004  2.5482 -1.2442  0.4314
  841SOL     vw 3364   4.862   6.277   2.940 -0.1414 -0.3724  0.2778
  842SOL     ow 3365   4.825   3.557   5.992 -0.9428  0.2902 -0.4004
  842SOL     hw 3366   4.805   3.594   5.906  1.4667  1.3772 -0.5790
  842SOL     hw 3367   4.783   3.617   6.055 -0.3777  1.0929 -0.7754
  842SOL     vw 3368   4.817   3.570   5.989 -0.5503  0.5394 -0.4733
  843SOL     ow 3369   3.125   2.370   4.298 -0.7204 -0.6327 -0.3171
  843SOL     hw 3370   3.202   2.374   4.356 -1.6530 -1.3682  1.0399
  843SOL     hw 3371   3.128   2.451   4.248  0.3463 -0.1510  0.4903
  843SOL     vw 3372   3.136   2.381   4.299 -0.7026 -0.6663 -0.0315
  844SOL     ow 3373   2.456   4.791   2.797 -0.2184 -0.4176  0.6160
  844SOL     hw 3374   2.471   4.880   2.829  0.6952 -1.0226  1.9459
  844SOL     hw 3375   2.511   4.784   2.719  2.4324 -0.8584  2.4060
  844SOL     vw 3376   2.465   4.802   2.790  0.2519 -0.5555  1.0277
  845SOL     ow 3377   4.157   4.308   5.373 -0.3949  0.2095 -0.1100
  845SOL     hw 3378   4.136   4.325   5.465 -0.3458  0.2560 -0.1073
  845SOL     hw 3379   4.113   4.225   5.354 -1.4389  0.8090 -0.3906
  845SOL     vw 3380   4.149   4.299   5.383 -0.5262  0.2944 -0.1469
  846SOL     ow 3381   3.050   5.126   6.259 -0.5227 -0.3321  0.7040
  846SOL     hw 3382   2.973   5.085   6.298 -1.0629 -1.0129 -1.0181
  846SOL     hw 3383   3.123   5.098   6.314 -1.4089 -0.0587  2.0810
  846SOL     vw 3384   3.050   5.117   6.272 -0.7108 -0.3858  0.6585
  847SOL     ow 3385   6.881   1.625   0.856  0.2759  0.7563  0.2844
  847SOL     hw 3386   6.787   1.634   0.841 -0.0124 -0.6974  1.0753
  847SOL     hw 3387   6.921   1.652   0.773 -0.8574  0.7947 -0.2695
  847SOL     vw 3388   6.874   1.630   0.843  0.0880  0.5695  0.3157
  848SOL     ow 3389   4.864   1.898   3.566 -0.1814 -0.4920  0.1826
  848SOL     hw 3390   4.912   1.961   3.513  0.4059  1.0044  2.3513
  848SOL     hw 3391   4.775   1.932   3.570  0.1118  0.1944  1.2711
  848SOL     vw 3392   4.859   1.910   3.560 -0.0651 -0.2040  0.6124
  849SOL     ow 3393   0.687   1.862   5.083  0.7672 -0.2484 -0.4789
  849SOL     hw 3394   0.686   1.817   5.167 -2.2539 -0.4877 -0.5434
  849SOL     hw 3395   0.734   1.944   5.101  1.9721 -1.1860  0.8806
  849SOL     vw 3396   0.693   1.867   5.097  0.5276 -0.4037 -0.3080
  850SOL     ow 3397   0.225   6.041   3.076  0.0483  0.0963 -0.1733
  850SOL     hw 3398   0.204   6.095   3.153 -1.6768 -0.2913 -0.3452
  850SOL     hw 3399   0.288   5.977   3.109  1.4762  1.6070  0.2362
  850SOL     vw 3400   0.231   6.040   3.091  0.0091  0.2446 -0.1420
  851SOL     ow 3401   0.756   5.007   1.761  0.3107  0.6344  0.0819
  851SOL     hw 3402   0.692   4.992   1.831 -1.1323  1.0150 -1.1069
  851SOL     hw 3403   0.735   4.942   1.695  0.4473  1.4739 -0.8059
  851SOL     vw 3404   0.745   4.997   1.762  0.1383  0.7954 -0.1920
  852SOL     ow 3405   3.153   3.600   3.960 -0.1683  0.2880 -0.8505
  852SOL     hw 3406   3.189   3.533   3.901 -0.3324  0.1654 -0.8143
  852SOL     hw 3407   3.082   3.554   4.006  0.7883 -0.0030  0.3792
  852SOL     vw 3408   3.148   3.585   3.958 -0.0639  0.2335 -0.6835
  853SOL     ow 3409   2.020   4.891   5.620  0.1635  0.3095  0.4525
  853SOL     hw 3410   2.014   4.796   5.609  0.2160  0.2594  0.8331
  853SOL     hw 3411   1.979   4.908   5.705  0.5039  0.5791  0.5682
  853SOL     vw 3412   2.014   4.880   5.630  0.2152  0.3383  0.5178
  854SOL     ow 3413   3.633   2.564   1.037  0.3332 -0.6663 -0.3992
  854SOL     hw 3414   3.692   2.603   0.972  0.2783 -0.8395 -0.5548
  854SOL     hw 3415   3.625   2.630   1.105  1.5572 -1.0641  0.1516
  854SOL     vw 3416   3.639   2.578   1.037  0.4874 -0.7416 -0.3470
  855SOL     ow 3417   2.838   6.190   1.137  0.0102  0.1004 -0.6714
  855SOL     hw 3418   2.885   6.273   1.135 -2.5023  1.7765  1.8082
  855SOL     hw 3419   2.746   6.214   1.153 -0.8782 -3.1481 -0.0103
  855SOL     vw 3420   2.832   6.204   1.139 -0.4385 -0.1073 -0.2571
  856SOL     ow 3421   6.349   4.965   5.414  0.2645 -0.3323 -0.4321
  856SOL     hw 3422   6.316   5.046   5.377 -1.8790 -0.9029  0.1189
  856SOL     hw 3423   6.353   4.981   5.508  0.5887 -0.6140 -0.3939
  856SOL     vw 3424   6.345   4.978   5.422  0.0246 -0.4449 -0.3543
  857SOL     ow 3425   6.357   1.749   3.224 -0.0381  0.0798  0.1155
  857SOL     hw 3426   6.271   1.728   3.186 -0.2460  0.9997  0.0553
  857SOL     hw 3427   6.341   1.755   3.318 -0.1964  0.9629  0.0369
  857SOL     vw 3428   6.343   1.747   3.231 -0.0865  0.3177  0.0973
  858SOL     ow 3429   3.255   6.941   0.389  0.3565 -0.1912  0.0360
  858SOL     hw 3430   3.176   6.979   0.352  0.5869 -1.4301 -1.9118
  858SOL     hw 3431   3.321   7.009   0.381  0.8667 -0.8782 -3.7392
  858SOL     vw 3432   3.253   6.955   0.383  0.4541 -0.4451 -0.7191
  859SOL     ow 3433   0.155   1.698   1.037  0.3748  0.1946 -0.3165
  859SOL     hw 3434   0.153   1.783   0.993  0.6412  1.0862  1.3052
  859SOL     hw 3435   0.069   1.659   1.018  0.5593  0.4415 -1.7498
  859SOL     vw 3436   0.143   1.704   1.029  0.4343  0.3448 -0.2916
  860SOL     ow 3437   2.950   1.927   4.010 -0.1629  0.1168  0.1176
  860SOL     hw 3438   2.947   1.832   4.006  0.0231  0.0671  1.0455
  860SOL     hw 3439   2.877   1.951   4.067 -0.7164  0.5872 -0.7626
  860SOL     vw 3440   2.940   1.918   4.017 -0.2115  0.1724  0.1237
  861SOL     ow 3441   0.717   1.353   0.930 -0.1650 -0.1836  0.1511
  861SOL     hw 3442   0.671   1.329   0.849  2.0295 -1.7288 -0.7525
  861SOL     hw 3443   0.720   1.271   0.980 -2.1978  0.9281  2.2734
  861SOL     vw 3444   0.712   1.339   0.926 -0.1437 -0.2408  0.3119
  862SOL     ow 3445   5.545   2.944   6.896  0.0994 -0.0422  0.1511
  862SOL     hw 3446   5.524   3.037   6.905 -1.6561 -0.4713  1.0329
  862SOL     hw 3447   5.638   2.938   6.916 -0.5557  1.0409  4.6801
  862SOL     vw 3448   5.554   2.955   6.900 -0.2189  0.0441  0.8650
  863SOL     ow 3449   4.269   6.226   7.074 -0.3824 -0.4822 -0.0967
  863SOL     hw 3450   4.200   6.180   7.120 -0.0517 -0.8802  0.0088
  863SOL     hw 3451   4.224   6.277   7.006 -0.7486 -0.9494 -0.2049
  863SOL     vw 3452   4.254   6.227   7.071 -0.3872 -0.5965 -0.0970
  864SOL     ow 3453   2.220   0.377   6.728  0.0233 -0.0846  0.4091
  864SOL     hw 3454   2.240   0.406   6.639  2.8175  2.6098  1.7346
  864SOL     hw 3455   2.126   0.393   6.739 -0.2407  0.1608 -1.8017
  864SOL     vw 3456   2.210   0.383   6.718  0.3572  0.3032  0.2923
  865SOL     ow 3457   6.816   4.446   5.872 -0.5155  0.0051  0.6552
  865SOL     hw 3458   6.840   4.461   5.780 -0.5934 -0.6633  0.5222
  865SOL     hw 3459   6.897   4.459   5.920  0.2304 -2.4219  0.1930
  865SOL     vw 3460   6.830   4.450   5.866 -0.4272 -0.4032  0.5770
  866SOL     ow 3461   0.326   5.225   0.550 -0.5501 -0.3218  0.1829
  866SOL     hw 3462   0.287   5.237   0.637 -1.5442  0.7211 -0.3804
  866SOL     hw 3463   0.419   5.241   0.563 -0.8331  0.8906  0.8737
  866SOL     vw 3464   0.333   5.228   0.564 -0.7186 -0.0243  0.1998
  867SOL     ow 3465   4.924   1.418   0.597 -0.9663  0.0040 -0.2245
  867SOL     hw 3466   4.891   1.502   0.565 -0.1282 -0.4302 -2.4045
  867SOL     hw 3467   4.849   1.358   0.590 -0.3944 -0.5408 -3.4146
  867SOL     vw 3468   4.910   1.421   0.592 -0.7803 -0.1252 -0.9330
  868SOL     ow 3469   2.783   4.832   3.043  0.3109  0.0424  0.1431
  868SOL     hw 3470   2.746   4.871   2.964  0.4060 -0.6270 -0.2347
  868SOL     hw 3471   2.850   4.896   3.071  1.9007 -0.7376 -1.6198
  868SOL     vw 3472   2.787   4.846   3.036  0.5331 -0.1488 -0.1394
  869SOL     ow 3473   3.555   4.760   0.750  0.0101 -0.6427  0.4667
  869SOL     hw 3474   3.616   4.727   0.816  2.6022  1.3409 -0.7523
  869SOL     hw 3475   3.610   4.805   0.686 -2.8214  2.8158  0.0994
  869SOL     vw 3476   3.570   4.762   0.750 -0.0215  0.0751  0.2574
  870SOL     ow 3477   1.707   5.099   5.828 -0.1367  0.2434 -0.2665
  870SOL     hw 3478   1.626   5.081   5.876  0.2471 -0.2620  0.1993
  870SOL     hw 3479   1.679   5.107   5.737 -0.4927 -1.6976 -0.3647
  870SOL     vw 3480   1.693   5.098   5.822 -0.1330 -0.0792 -0.2177
  871SOL     ow 3481   3.261   6.992   1.824  0.6491 -0.3043  0.1801
  871SOL     hw 3482   3.251   7.087   1.835 -0.6976 -0.4073  0.0290
  871SOL     hw 3483   3.255   6.978   1.729 -0.8917 -0.6890  0.3108
  871SOL     vw 3484   3.259   7.003   1.813  0.2681 -0.3686  0.1774
  872SOL     ow 3485   5.346   1.207   6.157 -0.3780  0.0670  0.0806
  872SOL     hw 3486   5.333   1.119   6.192  0.0248 -0.4171 -0.9333
  872SOL     hw 3487   5.260   1.248   6.164 -0.4106 -0.1604  1.1907
  872SOL     vw 3488   5.333   1.200   6.162 -0.3290 -0.0269  0.0932
  873SOL     ow 3489   6.270   6.173   1.597 -0.2058 -0.1628  0.6603
  873SOL     hw 3490   6.182   6.211   1.596  0.6134  1.8514  0.9868
  873SOL     hw 3491   6.303   6.192   1.685  0.7604 -0.3714  0.3510
  873SOL     vw 3492   6.262   6.181   1.609  0.0298  0.0756  0.6626
  874SOL     ow 3493   3.896   5.808   3.255  0.1322 -0.7356 -0.2355
  874SOL     hw 3494   3.860   5.895   3.272 -1.4749 -1.2657 -0.7474
  874SOL     hw 3495   3.841   5.749   3.306  0.1369 -1.5910 -1.1880
  874SOL     vw 3496   3.884   5.812   3.264 -0.0792 -0.9186 -0.4288
  875SOL     ow 3497   0.918   5.399   1.574  0.4799  0.0517  0.5063
  875SOL     hw 3498   0.953   5.312   1.593  0.5161  0.1665  0.9662
  875SOL     hw 3499   0.994   5.450   1.546  0.3393 -0.2699 -0.5270
  875SOL     vw 3500   0.933   5.394   1.573  0.4661  0.0246  0.4306
  876SOL     ow 3501   6.943   5.023   0.706 -0.3788 -0.3137  0.0143
  876SOL     hw 3502   6.978   4.971   0.779 -2.6661 -0.4688  1.0918
  876SOL     hw 3503   6.973   4.977   0.628  0.7724 -1.0888  0.8695
  876SOL     vw 3504   6.952   5.010   0.706 -0.5286 -0.4363  0.2693
  877SOL     ow 3505   6.428   2.523   6.894 -0.1477 -0.0254  0.7501
  877SOL     hw 3506   6.454   2.533   6.802  1.3989  1.4327  1.2924
  877SOL     hw 3507   6.368   2.449   6.894  2.7417 -2.6111 -0.9095
  877SOL     vw 3508   6.424   2.515   6.882  0.4373 -0.1742  0.6027
  878SOL     ow 3509   6.325   5.016   0.660 -0.1165 -0.0367  0.2315
  878SOL     hw 3510   6.309   5.075   0.733  1.9883  2.0656 -0.8680
  878SOL     hw 3511   6.400   5.054   0.614 -0.1441 -2.3119 -1.9297
  878SOL     vw 3512   6.333   5.029   0.663  0.1574 -0.0594 -0.1987
  879SOL     ow 3513   5.800   0.779   3.678 -0.5030  0.8647 -0.3753
  879SOL     hw 3514   5.879   0.725   3.685 -1.5846 -0.5865  1.5651
  879SOL     hw 3515   5.744   0.732   3.615 -0.9253  0.3868  0.3472
  879SOL     vw 3516   5.803   0.766   3.670 -0.7014  0.6102 -0.0240
  880SOL     ow 3517   4.350   0.040   5.465 -0.3895 -0.1479 -0.4441
  880SOL     hw 3518   4.262   0.002   5.469 -1.5993  2.2284 -2.0112
  880SOL     hw 3519   4.336   0.133   5.452  2.3780  0.2248 -1.5957
  880SOL     vw 3520   4.337   0.047   5.464 -0.1841  0.2148 -0.8030
  881SOL     ow 3521   4.358   6.189   0.478 -0.1627  0.5090 -0.3465
  881SOL     hw 3522   4.312   6.155   0.554  0.6648 -0.1093 -0.1165
  881SOL     hw 3523   4.422   6.250   0.514  0.6078 -0.2023 -0.4942
  881SOL     vw 3524   4.360   6.193   0.493  0.0482  0.3335 -0.3356
  882SOL     ow 3525   5.360   6.494   7.043 -0.0608 -0.5016 -0.2174
  882SOL     hw 3526   5.310   6.508   7.123 -0.9166 -1.2714 -0.6023
  882SOL     hw 3527   5.294   6.484   6.974  0.6681  0.4375 -1.0744
  882SOL     vw 3528   5.345   6.494   7.044 -0.0775 -0.4795 -0.3812
  883SOL     ow 3529   7.220   3.999   2.041  0.1115 -0.5271 -0.5444
  883SOL     hw 3530   7.171   4.046   1.973  3.0662 -0.8743 -3.1532
  883SOL     hw 3531   7.234   3.912   2.005 -0.6022 -1.7229  1.8411
  883SOL     vw 3532   7.216   3.994   2.027  0.4072 -0.7310 -0.5739
  884SOL     ow 3533   5.494   4.737   6.913 -0.1896  0.0919  0.4808
  884SOL     hw 3534   5.458   4.825   6.910 -0.8244 -0.1574  0.6717
  884SOL     hw 3535   5.550   4.737   6.991  0.1536  0.4463  0.2406
  884SOL     vw 3536   5.497   4.748   6.923 -0.2282  0.1056  0.4745
  885SOL     ow 3537   2.177   2.419   4.981  0.0571 -0.4645 -0.3762
  885SOL     hw 3538   2.149   2.508   5.007  0.0416 -0.3812 -0.6792
  885SOL     hw 3539   2.145   2.409   4.892 -1.6719 -1.5140  0.3084
  885SOL     vw 3540   2.169   2.430   4.973 -0.1732 -0.5920 -0.3262
  886SOL     ow 3541   6.338   7.108   5.379  0.0815  0.3346  0.1068
  886SOL     hw 3542   6.365   7.041   5.317 -1.1697 -0.2377  0.1500
  886SOL     hw 3543   6.294   7.060   5.449  1.6601  0.9435  1.5912
  886SOL     vw 3544   6.336   7.093   5.380  0.1245  0.3395  0.3083
  887SOL     ow 3545   0.806   5.782   1.518  0.1577 -0.1348  0.1320
  887SOL     hw 3546   0.888   5.762   1.562  0.5171  0.5256 -0.2243
  887SOL     hw 3547   0.747   5.809   1.588  0.4516  0.0358  0.3152
  887SOL     vw 3548   0.809   5.783   1.533  0.2439 -0.0255  0.1093
  888SOL     ow 3549   5.851   2.760   3.808  0.0986  0.0199 -0.0387
  888SOL     hw 3550   5.880   2.732   3.895  1.4336  1.1754 -0.0820
  888SOL     hw 3551   5.899   2.841   3.791 -0.2671 -0.0853 -1.7831
  888SOL     vw 3552   5.861   2.767   3.817  0.2267  0.1585 -0.2747
  889SOL     ow 3553   5.670   6.896   6.419  0.1197  0.2724 -0.3518
  889SOL     hw 3554   5.613   6.955   6.370  1.4431  0.8957 -1.2100
  889SOL     hw 3555   5.610   6.843   6.472 -1.1586  1.7845 -0.2093
  889SOL     vw 3556   5.654   6.897   6.420  0.1254  0.5543 -0.4461
  890SOL     ow 3557   3.167   0.955   1.743 -0.6109  0.6888 -0.1895
  890SOL     hw 3558   3.165   0.862   1.766  1.7401  0.4682 -0.6073
  890SOL     hw 3559   3.127   0.959   1.656  0.5150 -0.1752 -0.7721
  890SOL     vw 3560   3.161   0.943   1.735 -0.1521  0.5457 -0.3215
  891SOL     ow 3561   1.252   3.118   6.027 -0.3842  0.6789 -0.1878
  891SOL     hw 3562   1.289   3.038   5.989  0.1774 -0.4743  2.5516
  891SOL     hw 3563   1.307   3.188   5.993  1.9580 -0.6040  0.6854
  891SOL     vw 3564   1.264   3.116   6.018 -0.0011  0.3575  0.2890
  892SOL     ow 3565   1.208   6.432   3.376 -0.3381  0.0260  0.3490
  892SOL     hw 3566   1.243   6.349   3.342  0.0389  0.1555  0.4132
  892SOL     hw 3567   1.138   6.455   3.316  0.2775  0.2179 -0.3015
  892SOL     vw 3568   1.203   6.424   3.364 -0.2071  0.0687  0.2716
  893SOL     ow 3569   1.601   2.146   5.644 -0.4899 -0.2084 -0.1496
  893SOL     hw 3570   1.542   2.172   5.574 -0.7088 -1.3050 -0.3852
  893SOL     hw 3571   1.546   2.139   5.722 -0.6468 -1.0073 -0.3209
  893SOL     vw 3572   1.586   2.148   5.645 -0.5395 -0.4586 -0.2031
  894SOL     ow 3573   5.616   1.980   5.039  0.0434 -0.7143  0.6539
  894SOL     hw 3574   5.701   2.002   5.001  0.8080 -1.5058  1.8223
  894SOL     hw 3575   5.615   2.026   5.123 -1.1629  0.1674  0.1900
  894SOL     vw 3576   5.627   1.989   5.045 -0.0145 -0.7025  0.7470
  895SOL     ow 3577   3.048   4.741   6.573 -0.6992  0.7507 -0.1121
  895SOL     hw 3578   2.990   4.713   6.644 -1.8962  1.0754 -0.9442
  895SOL     hw 3579   3.007   4.820   6.538 -0.4288  0.2918 -1.5241
  895SOL     vw 3580   3.035   4.747   6.578 -0.8216  0.7329 -0.4082
  896SOL     ow 3581   2.788   1.857   0.272 -0.4019 -0.2558 -0.4372
  896SOL     hw 3582   2.738   1.837   0.193  0.4065 -1.7044 -0.6190
  896SOL     hw 3583   2.868   1.899   0.240 -0.3500 -0.2789 -0.3381
  896SOL     vw 3584   2.792   1.860   0.258 -0.2885 -0.4500 -0.4481
  897SOL     ow 3585   0.849   3.599   0.470 -0.4503  0.6110 -0.0554
  897SOL     hw 3586   0.894   3.525   0.429 -0.5623  0.8854 -0.7001
  897SOL     hw 3587   0.843   3.576   0.562 -0.7904 -0.3444 -0.3030
  897SOL     vw 3588   0.854   3.586   0.477 -0.5099  0.5211 -0.1731
  898SOL     ow 3589   3.583   5.875   2.193  0.0492  0.0787  0.2908
  898SOL     hw 3590   3.577   5.941   2.123  2.0976 -0.4525 -0.4624
  898SOL     hw 3591   3.534   5.912   2.266  1.2264  2.5236 -0.0681
  898SOL     vw 3592   3.576   5.888   2.193  0.4748  0.3312  0.1441
  899SOL     ow 3593   5.437   1.302   0.834 -0.5855 -0.0200 -0.4116
  899SOL     hw 3594   5.490   1.374   0.869 -0.0682 -0.0533 -1.1008
  899SOL     hw 3595   5.352   1.341   0.817 -0.8511  0.0006  0.8440
  899SOL     vw 3596   5.433   1.317   0.837 -0.5519 -0.0216 -0.3368
  900SOL     ow 3597   6.393   1.640   6.944 -0.4514  0.1893  0.1479
  900SOL     hw 3598   6.461   1.634   7.012 -0.9472  1.1022  0.7504
  900SOL     hw 3599   6.360   1.551   6.935  1.8993 -0.6157 -1.3230
  900SOL     vw 3600   6.398   1.627   6.952 -0.2067  0.2035  0.0331
  901SOL     ow 3601   3.579   1.042   2.534  0.1235 -0.4419  0.0014
  901SOL     hw 3602   3.626   1.104   2.479 -0.9605 -0.2955 -0.7694
  901SOL     hw 3603   3.499   1.087   2.559  0.2108 -0.8210  1.0194
  901SOL     vw 3604   3.575   1.056   2.530 -0.0081 -0.4726  0.0341
  902SOL     ow 3605   5.034   0.536   5.035 -0.0515 -0.5466 -0.3399
  902SOL     hw 3606   5.039   0.508   4.944 -1.6655  0.7665 -0.8811
  902SOL     hw 3607   4.995   0.461   5.081  0.3322 -1.0322 -0.7908
  902SOL     vw 3608   5.030   0.522   5.029 -0.2139 -0.4374 -0.4709
  903SOL     ow 3609   0.027   2.185   3.072 -0.1848 -0.6739  0.4781
  903SOL     hw 3610  -0.047   2.247   3.077  0.1817 -0.3617  3.1561
  903SOL     hw 3611   0.035   2.150   3.160  2.2827 -1.4506  0.0035
  903SOL     vw 3612   0.018   2.189   3.084  0.1891 -0.7350  0.7688
  904SOL     ow 3613   5.538   1.498   5.788 -0.7765 -0.2714  0.1234
  904SOL     hw 3614   5.539   1.570   5.851  0.2391 -0.2727  0.1242
  904SOL     hw 3615   5.523   1.419   5.842  1.2428 -0.4180  0.5646
  904SOL     vw 3616   5.536   1.497   5.804 -0.3757 -0.2909  0.1814
  905SOL     ow 3617   0.034   6.610   3.389 -0.0559 -0.0796  0.2657
  905SOL     hw 3618   0.008   6.701   3.403 -0.1431 -0.4058  2.6639
  905SOL     hw 3619  -0.047   6.565   3.365 -0.2482  0.2570  0.2817
  905SOL     vw 3620   0.020   6.616   3.387 -0.0928 -0.0782  0.5844
  906SOL     ow 3621   5.416   0.081   5.813  0.5120  0.0128  0.0559
  906SOL     hw 3622   5.451   0.039   5.891 -0.2285  1.1486  1.0332
  906SOL     hw 3623   5.336   0.124   5.843  1.5172  2.6083 -0.7292
  906SOL     vw 3624   5.410   0.081   5.827  0.5472  0.5051  0.0813
  907SOL     ow 3625   5.845   1.997   4.885  0.4122  0.0915 -0.0661
  907SOL     hw 3626   5.874   1.906   4.881  0.0192  0.0099 -1.0705
  907SOL     hw 3627   5.921   2.044   4.920  0.7995 -0.5358 -0.0464
  907SOL     vw 3628   5.859   1.991   4.889  0.4113 -0.0020 -0.1960
  908SOL     ow 3629   5.264   1.554   7.154  0.0926  0.0430  0.4106
  908SOL     hw 3630   5.195   1.488   7.164 -0.0167  0.3859  2.3060
  908SOL     hw 3631   5.229   1.632   7.197  0.5575  1.1138 -1.0665
  908SOL     vw 3632   5.250   1.556   7.161  0.1395  0.2295  0.4659
  909SOL     ow 3633   2.645   1.893   3.374  0.4532  0.0382 -0.3919
  909SOL     hw 3634   2.589   1.851   3.308  0.0464  0.4056 -0.2887
  909SOL     hw 3635   2.726   1.913   3.327  0.2380  0.1225 -0.7318
  909SOL     vw 3636   2.648   1.890   3.359  0.3712  0.0978 -0.4232
  910SOL     ow 3637   7.025   6.808   4.767  0.2997  0.0581  0.5308
  910SOL     hw 3638   7.034   6.761   4.685  0.9350 -1.0474  1.2139
  910SOL     hw 3639   7.066   6.751   4.833 -0.7782  0.5987  1.7230
  910SOL     vw 3640   7.031   6.794   4.765  0.2415 -0.0165  0.7782
  911SOL     ow 3641   1.497   6.094   6.361 -0.3938 -0.8940  0.0270
  911SOL     hw 3642   1.491   6.062   6.271  0.1034  2.2327 -1.2413
  911SOL     hw 3643   1.590   6.088   6.383 -0.2540 -0.0329 -0.3285
  911SOL     vw 3644   1.508   6.089   6.352 -0.3098 -0.3679 -0.1872
  912SOL     ow 3645   7.137   2.548   7.162 -0.0130 -0.6157 -0.0064
  912SOL     hw 3646   7.150   2.636   7.196 -1.1344 -0.7701  0.8826
  912SOL     hw 3647   7.064   2.556   7.101 -1.9717 -1.3408  2.0961
  912SOL     vw 3648   7.129   2.560   7.159 -0.4191 -0.7318  0.3884
  913SOL     ow 3649   7.130   4.486   1.970  0.2423  0.6588  0.2993
  913SOL     hw 3650   7.188   4.435   1.913 -2.1308  0.0584 -1.7356
  913SOL     hw 3651   7.065   4.424   2.001 -2.1886  2.0842 -1.5153
  913SOL     vw 3652   7.129   4.471   1.966 -0.3912  0.7679 -0.2087
  914SOL     ow 3653   5.019   2.122   5.087  0.1808  0.1563  0.1391
  914SOL     hw 3654   5.093   2.172   5.121 -0.0653  0.8143 -0.2713
  914SOL     hw 3655   4.961   2.111   5.163  0.4947  0.0000  0.3612
  914SOL     vw 3656   5.021   2.127   5.102  0.1898  0.2224  0.1142
  915SOL     ow 3657   6.436   5.878   2.046 -0.5899  0.0676  0.0736
  915SOL     hw 3658   6.391   5.799   2.018  0.8446 -0.4464 -0.8946
  915SOL     hw 3659   6.505   5.891   1.981  2.2996 -0.6306  2.7467
  915SOL     vw 3660   6.439   5.869   2.034 -0.0193 -0.0925  0.2987
  916SOL     ow 3661   3.692   1.909   3.998 -0.5792  0.5377 -0.1490
  916SOL     hw 3662   3.731   1.963   4.066 -2.6197 -0.1693  1.7171
  916SOL     hw 3663   3.624   1.859   4.044  1.9272 -4.6517 -1.3351
  916SOL     vw 3664   3.688   1.909   4.013 -0.5177 -0.2403 -0.0594
  917SOL     ow 3665   2.728   0.316   4.313  0.5304  0.3631  0.5371
  917SOL     hw 3666   2.732   0.221   4.305 -0.8290  0.2649  0.9087
  917SOL     hw 3667   2.805   0.347   4.264  0.7608 -0.8942  0.0664
  917SOL     vw 3668   2.739   0.307   4.306  0.3815  0.1843  0.5243
  918SOL     ow 3669   5.425   2.730   2.824  0.7767  1.0175  0.1041
  918SOL     hw 3670   5.436   2.734   2.919  1.3813  0.7498  0.0478
  918SOL     hw 3671   5.393   2.817   2.801 -1.0102  0.5775  0.7443
  918SOL     vw 3672   5.422   2.742   2.834  0.6208  0.9241  0.1811
  919SOL     ow 3673   6.331   3.452   7.033 -0.4593 -0.4277  0.2305
  919SOL     hw 3674   6.334   3.372   6.981  1.2522  0.0155 -0.4315
  919SOL     hw 3675   6.246   3.491   7.011 -0.5690 -1.1857 -0.8003
  919SOL     vw 3676   6.320   3.447   7.023 -0.2480 -0.4693  0.0072
  920SOL     ow 3677   5.498   0.377   1.871  0.3815  0.4664  0.0830
  920SOL     hw 3678   5.520   0.331   1.790  2.0570  0.6054  0.4268
  920SOL     hw 3679   5.446   0.313   1.921 -0.3583  0.2508 -0.9172
  920SOL     vw 3680   5.494   0.362   1.867  0.5050  0.4563 -0.0036
  921SOL     ow 3681   4.459   2.673   4.197 -0.2294 -0.1320 -0.6926
  921SOL     hw 3682   4.447   2.578   4.198 -2.1471  0.0207  2.3940
  921SOL     hw 3683   4.427   2.702   4.282  3.6843  2.9664 -0.0198
  921SOL     vw 3684   4.453   2.664   4.208  0.0336  0.2970 -0.1967
  922SOL     ow 3685   2.982   0.729   0.739  0.4047  0.2102 -0.3012
  922SOL     hw 3686   2.984   0.804   0.798 -0.8918  0.3187 -0.3767
  922SOL     hw 3687   2.937   0.660   0.788 -0.8207  0.3442 -1.1918
  922SOL     vw 3688   2.976   0.730   0.753  0.0719  0.2422 -0.4287
  923SOL     ow 3689   1.953   0.708   2.302  0.5054 -0.0039  0.1110
  923SOL     hw 3690   1.884   0.711   2.235  1.6344 -0.2406 -1.1049
  923SOL     hw 3691   1.926   0.638   2.361 -1.4328  1.3700  0.9798
  923SOL     vw 3692   1.940   0.699   2.301  0.3987  0.1462  0.0653
  924SOL     ow 3693   6.369   6.503   1.899 -0.2186 -0.5114 -0.3377
  924SOL     hw 3694   6.452   6.492   1.852 -0.2534  0.5286 -0.6784
  924SOL     hw 3695   6.306   6.529   1.832 -1.0019 -1.9458 -0.1921
  924SOL     vw 3696   6.372   6.505   1.884 -0.3266 -0.5636 -0.3635
  925SOL     ow 3697   4.082   0.151   3.113  0.6617  1.0834  0.1439
  925SOL     hw 3698   4.108   0.084   3.175  1.0107 -0.3298 -1.4635
  925SOL     hw 3699   3.992   0.172   3.137  0.6741  0.3074  0.8980
  925SOL     vw 3700   4.073   0.145   3.124  0.7095  0.7946  0.0314
  926SOL     ow 3701   2.025   2.669   0.723 -0.6489 -0.5334  0.1962
  926SOL     hw 3702   1.984   2.634   0.643 -1.4134 -1.6488  1.0445
  926SOL     hw 3703   2.118   2.675   0.701 -0.5216 -2.8069 -0.1422
  926SOL     vw 3704   2.032   2.665   0.709 -0.7330 -0.9806  0.2635
  927SOL     ow 3705   0.070   5.579   4.384 -0.2130 -0.2514  0.8668
  927SOL     hw 3706   0.139   5.578   4.317 -2.8502 -0.5955 -2.1075
  927SOL     hw 3707   0.031   5.666   4.377 -1.7194 -0.9101  0.5110
  927SOL     vw 3708   0.074   5.590   4.374 -0.7597 -0.3836  0.4275
  928SOL     ow 3709   6.100   6.945   1.226  0.1115 -0.0379  0.4027
  928SOL     hw 3710   6.177   6.978   1.180 -1.4146  1.3350 -1.3176
  928SOL     hw 3711   6.076   7.015   1.287 -1.1071  0.6138 -0.7698
  928SOL     vw 3712   6.107   6.958   1.228 -0.2506  0.2291  0.0210
  929SOL     ow 3713   7.187   0.729   2.464 -0.2382  0.1329 -0.0698
  929SOL     hw 3714   7.103   0.724   2.508 -0.3153  0.5269 -0.1680
  929SOL     hw 3715   7.183   0.660   2.397  0.6651 -1.8734  1.8195
  929SOL     vw 3716   7.176   0.719   2.461 -0.1292 -0.0798  0.1665
  930SOL     ow 3717   4.320   2.374   0.835  0.1487 -0.2624 -0.1904
  930SOL     hw 3718   4.384   2.392   0.767 -0.9111  1.0475 -0.8935
  930SOL     hw 3719   4.288   2.286   0.816 -0.5907  0.3118 -1.8141
  930SOL     vw 3720   4.324   2.365   0.824 -0.0885 -0.0137 -0.4974
  931SOL     ow 3721   0.332   7.154   5.478 -0.3308 -0.4280 -0.2426
  931SOL     hw 3722   0.342   7.224   5.414  1.4876 -0.6309 -0.2549
  931SOL     hw 3723   0.347   7.074   5.428  0.8719 -0.6001  0.3397
  931SOL     vw 3724   0.335   7.153   5.463  0.0678 -0.4773 -0.1674
  932SOL     ow 3725   6.212   6.091   6.441 -0.8155  0.7295  0.0260
  932SOL     hw 3726   6.242   6.139   6.519 -1.3649  1.7190 -0.3462
  932SOL     hw 3727   6.119   6.114   6.433 -1.3992 -1.2817  0.4476
  932SOL     vw 3728   6.204   6.101   6.450 -0.9649  0.5949  0.0324
  933SOL     ow 3729   1.348   4.166   4.745 -0.5994  0.6957 -0.2544
  933SOL     hw 3730   1.325   4.074   4.757 -1.8253  0.5015 -3.1879
  933SOL     hw 3731   1.442   4.170   4.762 -0.8233 -0.7242  1.5988
  933SOL     vw 3732   1.357   4.154   4.749 -0.7907  0.4828 -0.3970
  934SOL     ow 3733   4.609   6.659   0.127  0.0679  0.0590 -0.4374
  934SOL     hw 3734   4.641   6.738   0.082 -1.5382  2.1688  1.8851
  934SOL     hw 3735   4.679   6.639   0.190 -0.2216  0.6537  0.0874
  934SOL     vw 3736   4.623   6.667   0.129 -0.1822  0.4156 -0.0617
  935SOL     ow 3737   5.304   5.333   0.009 -0.2118  0.6627  1.0094
  935SOL     hw 3738   5.345   5.354  -0.075  0.4891 -1.1683  0.8513
  935SOL     hw 3739   5.220   5.379   0.007 -1.5963 -1.6185 -2.0391
  935SOL     vw 3740   5.298   5.342  -0.003 -0.3021  0.1202  0.5863
  936SOL     ow 3741   4.611   5.825   7.083 -0.5715  0.2066 -0.6001
  936SOL     hw 3742   4.591   5.842   7.175  0.7700  0.8878 -0.4066
  936SOL     hw 3743   4.528   5.839   7.037 -0.9697  1.1076  0.3583
  936SOL     vw 3744   4.598   5.829   7.089 -0.4473  0.4156 -0.4482
  937SOL     ow 3745   3.246   3.210   1.586  0.7978  0.5860 -0.1003
  937SOL     hw 3746   3.199   3.292   1.602  0.6114  0.5235 -0.3276
  937SOL     hw 3747   3.197   3.167   1.516  0.6152  0.0554  0.3460
  937SOL     vw 3748   3.234   3.215   1.579  0.7491  0.5077 -0.0715
  938SOL     ow 3749   3.810   6.346   4.356 -0.2668  0.2366 -0.1235
  938SOL     hw 3750   3.724   6.370   4.319 -0.4002 -2.0543 -1.4878
  938SOL     hw 3751   3.869   6.346   4.281  1.0142  1.9369  0.8318
  938SOL     vw 3752   3.806   6.349   4.341 -0.1154  0.1585 -0.1776
  939SOL     ow 3753   5.589   2.811   0.362 -0.3458 -0.3646  0.1670
  939SOL     hw 3754   5.680   2.828   0.384 -0.9228 -0.1211  2.6149
  939SOL     hw 3755   5.589   2.804   0.266  2.4878 -1.9363  0.1478
  939SOL     vw 3756   5.601   2.812   0.352 -0.0482 -0.5400  0.4874
  940SOL     ow 3757   5.348   2.705   6.432 -0.0435  0.5577  0.4289
  940SOL     hw 3758   5.302   2.787   6.447 -2.8232 -0.7719 -0.2512
  940SOL     hw 3759   5.282   2.645   6.398  2.2542 -1.4904 -0.8139
  940SOL     vw 3760   5.333   2.708   6.430 -0.1073  0.1121  0.1750
  941SOL     ow 3761   2.011   2.245   0.278  0.1703 -0.1542  0.9861
  941SOL     hw 3762   2.091   2.288   0.249  0.4544 -0.8815  0.6717
  941SOL     hw 3763   1.945   2.269   0.213  0.7789 -1.7023 -0.2740
  941SOL     vw 3764   2.013   2.254   0.266  0.2880 -0.4544  0.7783
  942SOL     ow 3765   1.043   5.184   1.693  0.2936 -0.6535  0.8398
  942SOL     hw 3766   1.124   5.163   1.647 -0.5884  0.2167 -1.2724
  942SOL     hw 3767   1.060   5.267   1.736 -0.7030  2.1541 -3.5286
  942SOL     vw 3768   1.056   5.192   1.693  0.0457 -0.1683 -0.0153
  943SOL     ow 3769   2.752   3.185   0.570 -0.2148 -0.0203 -0.4948
  943SOL     hw 3770   2.826   3.202   0.512 -0.0557 -0.6406 -0.4750
  943SOL     hw 3771   2.683   3.151   0.514  0.2648 -1.5550 -0.2008
  943SOL     vw 3772   2.753   3.183   0.555 -0.1305 -0.3047 -0.4534
  944SOL     ow 3773   6.926   3.155   6.539 -0.1564  0.2704  0.2121
  944SOL     hw 3774   6.996   3.209   6.504 -0.4769 -0.2860 -1.3954
  944SOL     hw 3775   6.970   3.091   6.596  1.0559 -1.6221 -2.6036
  944SOL     vw 3776   6.941   3.153   6.542 -0.0386 -0.0525 -0.3712
  945SOL     ow 3777   6.845   5.636   6.191 -0.2670 -0.5045 -0.0832
  945SOL     hw 3778   6.827   5.585   6.270  0.7893 -2.0055 -0.7606
  945SOL     hw 3779   6.921   5.689   6.214 -1.3414  0.7964  0.6098
  945SOL     vw 3780   6.853   5.636   6.205 -0.2694 -0.5310 -0.0808
  946SOL     ow 3781   5.175   7.156   2.319  0.3992  0.5492  0.0818
  946SOL     hw 3782   5.167   7.249   2.342  3.4512  0.9397 -0.0626
  946SOL     hw 3783   5.196   7.156   2.226  0.8823 -0.2513  0.1811
  946SOL     vw 3784   5.176   7.168   2.310  0.8655  0.4952  0.0758
  947SOL     ow 3785   5.829   5.495   6.212 -0.1900  0.1442  0.3129
  947SOL     hw 3786   5.845   5.475   6.119  3.4278  2.3208  0.2651
  947SOL     hw 3787   5.742   5.536   6.213 -0.4808 -0.2642 -2.0468
  947SOL     vw 3788   5.819   5.498   6.200  0.2489  0.3774 -0.0048
  948SOL     ow 3789   3.245   1.083   2.751 -0.2134 -0.2843  0.3282
  948SOL     hw 3790   3.294   1.095   2.833 -0.9927  0.2775  0.7260
  948SOL     hw 3791   3.158   1.118   2.770  0.1479  1.6664 -1.3385
  948SOL     vw 3792   3.240   1.089   2.764 -0.2686  0.0472  0.1607
  949SOL     ow 3793   7.151   3.049   7.194 -0.0609 -0.0809  0.7048
  949SOL     hw 3794   7.160   3.076   7.103 -0.2946  0.8202  0.9368
  949SOL     hw 3795   7.183   3.124   7.245  2.2478 -1.4165  1.3575
  949SOL     vw 3796   7.157   3.063   7.189  0.2131 -0.1383  0.8214
  950SOL     ow 3797   0.855   3.996   6.702 -0.1119 -0.1120  0.6095
  950SOL     hw 3798   0.792   3.948   6.648  0.8835 -1.8854  0.9520
  950SOL     hw 3799   0.839   4.089   6.681 -2.4344 -0.5210  0.2937
  950SOL     vw 3800   0.845   4.002   6.692 -0.2870 -0.3998  0.6132
  951SOL     ow 3801   3.523   2.333   1.138 -0.3733  0.1579 -0.2779
  951SOL     hw 3802   3.554   2.408   1.089 -0.1485  0.6893  0.6597
  951SOL     hw 3803   3.571   2.335   1.221 -0.2815 -1.0779 -0.2712
  951SOL     vw 3804   3.533   2.343   1.143 -0.3316  0.0650 -0.1534
  952SOL     ow 3805   2.076   3.383   2.373  0.0892 -0.2601 -0.3510
  952SOL     hw 3806   2.057   3.378   2.280  1.5094 -1.4524 -0.6204
  952SOL     hw 3807   1.991   3.394   2.415 -0.3747  3.6852 -1.9201
  952SOL     vw 3808   2.062   3.384   2.367  0.2154  0.1032 -0.5937
  953SOL     ow 3809   6.058   1.158   7.183 -0.5019  0.2369  0.4280
  953SOL     hw 3810   6.012   1.114   7.112 -2.3866  0.8950  1.1883
  953SOL     hw 3811   6.007   1.237   7.200  0.1384  0.3092  2.2452
  953SOL     vw 3812   6.045   1.163   7.175 -0.6661  0.3333  0.7682
  954SOL     ow 3813   3.343   4.423   0.562 -0.2053  0.2283  0.0513
  954SOL     hw 3814   3.343   4.515   0.538 -1.9298  0.1160 -0.5712
  954SOL     hw 3815   3.326   4.422   0.656 -0.5178  0.5407 -0.0005
  954SOL     vw 3816   3.341   4.435   0.571 -0.4741  0.2546 -0.0377
  955SOL     ow 3817   0.011   0.066   3.459  0.1359  0.1296  0.3238
  955SOL     hw 3818  -0.056   0.001   3.438 -1.4049  1.5249  0.7332
  955SOL     hw 3819   0.021   0.116   3.379 -0.1689  0.6526  0.6102
  955SOL     vw 3820   0.003   0.064   3.446 -0.1076  0.3827  0.4157
  956SOL     ow 3821   6.606   6.267   3.934 -0.1034 -0.3161  0.1932
  956SOL     hw 3822   6.578   6.288   4.023 -1.6584 -1.5776  0.0694
  956SOL     hw 3823   6.701   6.279   3.935  0.1450 -1.7528  2.4767
  956SOL     vw 3824   6.615   6.271   3.946 -0.2759 -0.6723  0.4783
  957SOL     ow 3825   3.744   5.686   2.017 -0.6218 -0.7858  0.5672
  957SOL     hw 3826   3.699   5.628   1.955 -1.2605  0.3655 -0.0730
  957SOL     hw 3827   3.834   5.653   2.019 -0.1182  0.1581 -2.3278
  957SOL     vw 3828   3.750   5.674   2.009 -0.6397 -0.5093  0.1007
  958SOL     ow 3829   2.326   6.587   3.785  0.1577 -0.2296  0.1076
  958SOL     hw 3830   2.333   6.644   3.861 -2.2666 -1.9779  1.8116
  958SOL     hw 3831   2.307   6.501   3.822 -1.0554 -1.1641 -2.4609
  958SOL     vw 3832   2.325   6.583   3.800 -0.3223 -0.5834 -0.0066
  959SOL     ow 3833   1.392   2.151   6.537  0.1775 -0.1969 -0.1039
  959SOL     hw 3834   1.426   2.185   6.620 -1.9867 -1.3478  1.3402
  959SOL     hw 3835   1.456   2.180   6.472  0.3064  3.5881  1.4302
  959SOL     vw 3836   1.405   2.160   6.540 -0.0911  0.1509  0.2890
  960SOL     ow 3837   4.793   0.016   1.568 -0.7326 -0.9200 -0.2281
  960SOL     hw 3838   4.855   0.023   1.640 -1.4715 -0.6511  0.3976
  960SOL     hw 3839   4.817  -0.066   1.524  0.5323 -0.4477 -0.4646
  960SOL     vw 3840   4.804   0.006   1.572 -0.6630 -0.8221 -0.1767
  961SOL     ow 3841   5.093   7.023   0.720 -0.2125 -0.6638  0.0488
  961SOL     hw 3842   5.183   7.010   0.747  0.3922 -0.8538 -1.9091
  961SOL     hw 3843   5.041   6.996   0.796  1.3112 -2.8454  0.4022
  961SOL     vw 3844   5.098   7.018   0.733  0.0684 -0.9766 -0.1629
  962SOL     ow 3845   1.698   3.535   5.424  0.4697 -0.2966 -0.6775
  962SOL     hw 3846   1.676   3.447   5.394 -3.4956  0.0575  0.5966
  962SOL     hw 3847   1.631   3.556   5.489  2.8335  2.6914  1.0796
  962SOL     vw 3848   1.686   3.526   5.429  0.2584  0.1442 -0.2775
  963SOL     ow 3849   6.794   0.565   1.237  0.8026  0.2920 -0.2329
  963SOL     hw 3850   6.778   0.500   1.305  1.1305  0.0250 -0.4041
  963SOL     hw 3851   6.890   0.567   1.229  0.7449 -0.1606 -1.1413
  963SOL     vw 3852   6.805   0.556   1.245  0.8383  0.1971 -0.3753
  964SOL     ow 3853   4.610   4.690   0.606 -0.3683 -0.2032 -0.5063
  964SOL     hw 3854   4.544   4.732   0.661 -2.0287 -4.1690  0.9026
  964SOL     hw 3855   4.606   4.736   0.522 -1.4294  2.7354  1.0566
  964SOL     vw 3856   4.601   4.701   0.602 -0.7274 -0.3390 -0.1142
  965SOL     ow 3857   3.452   0.843   6.922  0.3127  0.2158  0.0971
  965SOL     hw 3858   3.497   0.823   7.004  2.5530  2.3598 -0.4975
  965SOL     hw 3859   3.513   0.817   6.854 -0.6592  0.3719 -0.8666
  965SOL     vw 3860   3.466   0.837   6.924  0.4799  0.5193 -0.1082
  966SOL     ow 3861   5.400   6.590   0.423 -0.1725 -0.2354  0.2582
  966SOL     hw 3862   5.333   6.617   0.360  0.4626 -0.9012 -0.7501
  966SOL     hw 3863   5.456   6.667   0.433 -1.3165  0.4600  1.4414
  966SOL     vw 3864   5.399   6.603   0.416 -0.2396 -0.2313  0.2813
  967SOL     ow 3865   2.555   6.805   5.393 -0.4628  0.2154 -0.0265
  967SOL     hw 3866   2.647   6.796   5.370 -0.7552  0.9381 -1.6369
  967SOL     hw 3867   2.511   6.735   5.345 -0.7136 -0.4776  1.1701
  967SOL     vw 3868   2.561   6.795   5.384 -0.5345  0.2191 -0.0808
  968SOL     ow 3869   1.881   1.292   0.497  0.0648 -0.8007 -0.8437
  968SOL     hw 3870   1.913   1.204   0.481  0.7126 -0.8350  0.5704
  968SOL     hw 3871   1.954   1.338   0.536 -1.3642 -0.7122  1.9427
  968SOL     vw 3872   1.895   1.287   0.500 -0.0383 -0.7936 -0.2895
  969SOL     ow 3873   3.892   1.791   3.073  0.3651 -0.4609 -0.1640
  969SOL     hw 3874   3.964   1.762   3.129 -1.1262 -1.2355  1.4062
  969SOL     hw 3875   3.889   1.726   3.002  1.2189 -0.3927 -0.2715
  969SOL     vw 3876   3.901   1.779   3.071  0.2810 -0.5541  0.0288
  970SOL     ow 3877   5.797   3.231   6.085  0.4098 -0.0396 -0.2166
  970SOL     hw 3878   5.730   3.260   6.146  0.2225 -0.2974 -0.3003
  970SOL     hw 3879   5.752   3.172   6.025  0.4887  0.5894 -0.8998
  970SOL     vw 3880   5.782   3.227   6.085  0.3955  0.0093 -0.3176
  971SOL     ow 3881   5.004   5.300   1.529  0.3480  0.1782  0.1604
  971SOL     hw 3882   4.923   5.288   1.481  0.7033 -0.2515 -0.3443
  971SOL     hw 3883   5.046   5.214   1.529  0.9643  0.4691  0.1188
  971SOL     vw 3884   4.999   5.287   1.523  0.4764  0.1597  0.0883
  972SOL     ow 3885   5.980   6.731   2.645  0.1242 -0.0332 -0.1865
  972SOL     hw 3886   5.989   6.800   2.710 -2.0526  0.9798 -0.8558
  972SOL     hw 3887   5.885   6.720   2.634  0.3901 -2.4932 -0.7922
  972SOL     vw 3888   5.969   6.739   2.652 -0.1283 -0.2241 -0.3548
  973SOL     ow 3889   6.414   1.399   0.524 -0.1623 -0.1800 -0.1801
  973SOL     hw 3890   6.466   1.383   0.604 -0.8761 -2.0143 -0.0350
  973SOL     hw 3891   6.387   1.491   0.532  2.0648  0.5133  0.2965
  973SOL     vw 3892   6.417   1.409   0.536  0.0372 -0.3306 -0.0981
  974SOL     ow 3893   0.422   4.353   2.727 -0.8804 -0.0713 -0.7274
  974SOL     hw 3894   0.462   4.278   2.684  0.7677  0.1836  0.3024
  974SOL     hw 3895   0.341   4.319   2.765 -0.2404 -1.2720 -0.4186
  974SOL     vw 3896   0.417   4.339   2.726 -0.5785 -0.1965 -0.5509
  975SOL     ow 3897   0.093   4.858   4.817 -0.2279  0.2065  0.3891
  975SOL     hw 3898   0.011   4.808   4.808 -0.6286  1.2609 -3.0247
  975SOL     hw 3899   0.160   4.801   4.778  0.1046  0.5822  0.4059
  975SOL     vw 3900   0.091   4.844   4.811 -0.2369  0.3948 -0.0591
  976SOL     ow 3901   3.428   3.061   4.522  0.4181  0.8448  0.0707
  976SOL     hw 3902   3.490   3.002   4.565 -0.9021 -0.1600  0.6331
  976SOL     hw 3903   3.466   3.076   4.435  2.2592  1.5543  0.9459
  976SOL     vw 3904   3.441   3.055   4.516  0.4867  0.8059  0.2604
  977SOL     ow 3905   6.134   2.091   0.815  0.1900  0.1179 -0.5174
  977SOL     hw 3906   6.162   2.008   0.778  1.8906  0.1719  0.5141
  977SOL     hw 3907   6.043   2.100   0.789  0.1244 -1.8068 -1.0924
  977SOL     vw 3908   6.126   2.081   0.807  0.4055 -0.1290 -0.4572
  978SOL     ow 3909   6.850   6.235   0.410 -0.1252 -0.5138  0.5987
  978SOL     hw 3910   6.912   6.307   0.411 -1.8232  1.0355  1.1664
  978SOL     hw 3911   6.891   6.168   0.356  2.5233 -0.0720  1.9050
  978SOL     vw 3912   6.863   6.236   0.403  0.0000 -0.2508  0.8460
  979SOL     ow 3913   5.894   2.836   2.590 -0.2286 -0.1984 -0.4663
  979SOL     hw 3914   5.866   2.772   2.526  0.0229  1.5559 -2.4280
  979SOL     hw 3915   5.989   2.826   2.594 -0.1501  0.2546 -1.0400
  979SOL     vw 3916   5.903   2.826   2.582 -0.1850  0.0927 -0.8007
  980SOL     ow 3917   0.112   4.179   4.227  0.0524 -0.0876 -0.0758
  980SOL     hw 3918   0.197   4.146   4.258  0.4524  0.8296 -0.1598
  980SOL     hw 3919   0.077   4.109   4.172  1.3331  0.0051 -1.0545
  980SOL     vw 3920   0.119   4.166   4.224  0.2742  0.0455 -0.2158
  981SOL     ow 3921   4.846   2.733   6.558  0.5230  0.0140 -0.3356
  981SOL     hw 3922   4.890   2.649   6.543 -0.7210 -0.9271  0.9541
  981SOL     hw 3923   4.829   2.734   6.652  0.0499  1.5004 -0.4142
  981SOL     vw 3924   4.849   2.722   6.568  0.2966  0.0862 -0.1760
  982SOL     ow 3925   2.344   5.174   7.099  0.5445 -0.0488  0.2214
  982SOL     hw 3926   2.257   5.168   7.138  0.4073  3.1080  0.6456
  982SOL     hw 3927   2.337   5.129   7.016 -0.7718 -1.9286  1.2849
  982SOL     vw 3928   2.332   5.167   7.094  0.3529  0.1194  0.4179
  983SOL     ow 3929   0.001   1.225   6.534  0.1280 -0.0751  0.1146
  983SOL     hw 3930  -0.025   1.194   6.621  1.4523 -0.1799  0.5035
  983SOL     hw 3931  -0.024   1.318   6.533  0.1899 -0.0505  0.6461
  983SOL     vw 3932  -0.006   1.234   6.546  0.3109 -0.0857  0.2358
  984SOL     ow 3933   6.954   5.534   4.218 -0.0635  0.1151  0.1450
  984SOL     hw 3934   6.966   5.565   4.308 -2.1070  0.7336  0.2579
  984SOL     hw 3935   7.009   5.591   4.165  1.1024 -0.2016  0.9792
  984SOL     vw 3936   6.963   5.546   4.223 -0.1793  0.1547  0.2704
  985SOL     ow 3937   4.688   3.301   0.196  0.3501  0.3539 -0.3161
  985SOL     hw 3938   4.767   3.251   0.219  0.2522  0.4881  0.3263
  985SOL     hw 3939   4.633   3.239   0.148 -0.2308 -0.4993  1.3741
  985SOL     vw 3940   4.691   3.286   0.192  0.2604  0.2590 -0.0083
  986SOL     ow 3941   4.465   0.309   3.313  0.1525 -0.4161  0.3659
  986SOL     hw 3942   4.371   0.324   3.317  0.5555  2.3713  2.3496
  986SOL     hw 3943   4.489   0.332   3.223 -0.9765 -0.4100  0.0619
  986SOL     vw 3944   4.456   0.314   3.301  0.0570 -0.0475  0.5876
  987SOL     ow 3945   1.029   2.562   3.110 -0.0194 -0.7645  0.2162
  987SOL     hw 3946   1.075   2.478   3.103  1.3321 -0.1952  1.5057
  987SOL     hw 3947   1.026   2.579   3.205  0.2840  0.9036 -0.0424
  987SOL     vw 3948   1.035   2.553   3.122  0.1990 -0.4694  0.3521
  988SOL     ow 3949   4.727   0.985   0.808  0.2796 -0.0941  0.4632
  988SOL     hw 3950   4.741   1.054   0.872 -1.0170  0.1843  0.4697
  988SOL     hw 3951   4.636   0.959   0.820  0.6001 -1.4689  0.1292
  988SOL     vw 3952   4.717   0.990   0.818  0.1507 -0.2387  0.4200
  989SOL     ow 3953   4.340   3.902   3.844 -0.2718 -0.2301  0.2279
  989SOL     hw 3954   4.406   3.858   3.897  0.8954  0.0810 -0.9077
  989SOL     hw 3955   4.339   3.853   3.762 -0.3393  0.6883 -0.3364
  989SOL     vw 3956   4.349   3.890   3.840 -0.1268 -0.0678  0.0036
  990SOL     ow 3957   0.147   0.487   3.235 -0.3214  0.5252  0.0668
  990SOL     hw 3958   0.088   0.416   3.260 -0.5810 -0.0830 -2.0751
  990SOL     hw 3959   0.090   0.554   3.199  0.1540  0.5220 -0.7253
  990SOL     vw 3960   0.132   0.486   3.234 -0.2930  0.4445 -0.3203
  991SOL     ow 3961   4.591   4.388   6.814  0.4548 -0.1820  0.5239
  991SOL     hw 3962   4.600   4.432   6.729  2.5550 -1.7883 -0.1580
  991SOL     hw 3963   4.658   4.428   6.868 -1.0392  1.0099  1.5835
  991SOL     vw 3964   4.601   4.399   6.810  0.5348 -0.2365  0.5739
  992SOL     ow 3965   3.677   3.162   3.714 -0.5402 -0.1532 -0.3323
  992SOL     hw 3966   3.731   3.182   3.637 -0.6093  1.8278  0.0652
  992SOL     hw 3967   3.606   3.227   3.711  0.5981  1.4079  2.4599
  992SOL     vw 3968   3.675   3.173   3.703 -0.3991  0.3142  0.0886
  993SOL     ow 3969   7.123   5.520   2.925  0.4133 -0.3452 -0.4926
  993SOL     hw 3970   7.063   5.465   2.976 -0.7805  1.4627  0.1588
  993SOL     hw 3971   7.070   5.554   2.853  0.3109  1.9705  0.5721
  993SOL     vw 3972   7.108   5.517   2.923  0.2422  0.1986 -0.2662
  994SOL     ow 3973   4.719   5.570   7.101  0.1652  0.0794 -0.3181
  994SOL     hw 3974   4.778   5.590   7.173  0.0349 -0.6890  0.0167
  994SOL     hw 3975   4.675   5.653   7.082 -1.9507 -0.2403  2.4456
  994SOL     vw 3976   4.721   5.583   7.108 -0.1311 -0.0644  0.0904
  995SOL     ow 3977   4.177   5.095   5.440  0.3701 -0.2299  0.0031
  995SOL     hw 3978   4.252   5.080   5.383  0.4256  1.7476 -0.5205
  995SOL     hw 3979   4.189   5.185   5.473 -0.9121 -0.4612  1.2205
  995SOL     vw 3980   4.189   5.105   5.437  0.2086  0.0002  0.0947
  996SOL     ow 3981   4.275   5.019   6.500  0.3399  0.0267 -0.5914
  996SOL     hw 3982   4.268   5.054   6.589 -0.4008 -1.4493 -0.0294
  996SOL     hw 3983   4.193   4.972   6.486 -0.2601  1.5578 -2.6888
  996SOL     vw 3984   4.263   5.017   6.510  0.1631  0.0341 -0.7942
  997SOL     ow 3985   4.935   0.832   0.373  0.6241 -0.6312  0.3516
  997SOL     hw 3986   4.969   0.882   0.298 -2.8215  0.3224 -0.7293
  997SOL     hw 3987   4.974   0.745   0.362  3.2502  0.5057 -0.2571
  997SOL     vw 3988   4.945   0.827   0.362  0.5159 -0.3555  0.1287
  998SOL     ow 3989   6.449   0.770   1.634  0.2458  0.0467  0.2849
  998SOL     hw 3990   6.490   0.732   1.712  0.6237  0.7771  0.4580
  998SOL     hw 3991   6.419   0.695   1.583  1.3834 -0.4969  0.3808
  998SOL     vw 3992   6.450   0.755   1.638  0.4461  0.0713  0.3204
  999SOL     ow 3993   6.403   4.109   0.088  0.1588 -0.1486  0.4629
  999SOL     hw 3994   6.387   4.023   0.049  0.3287  0.4888 -1.0947
  999SOL     hw 3995   6.317   4.140   0.114 -0.3583  0.4554 -1.7603
  999SOL     vw 3996   6.390   4.101   0.086  0.1132  0.0153 -0.0359
 1000SOL     ow 3997   4.199   0.353   3.258  0.0912 -0.2108  0.4810
 1000SOL     hw 3998   4.137   0.360   3.331 -0.3398  1.3157  0.0093
 1000SOL     hw 3999   4.153   0.302   3.192 -0.4323  0.3662  0.3867
 1000SOL     vw 4000   4.185   0.348   3.259 -0.0348  0.0667  0.4065
 1001SOL     ow 4001   2.082   6.434   0.851  0.5085 -0.0193 -0.4312
 1001SOL     hw 4002   2.054   6.376   0.780 -1.3417 -1.6188  1.4800
 1001SOL     hw 4003   2.012   6.499   0.858  1.2595  0.8522 -0.7905
 1001SOL     vw 4004   2.069   6.435   0.843  0.3633 -0.1152 -0.2265
 1002SOL     ow 4005   1.419   0.671   3.250  0.3115  0.0301  0.1660
 1002SOL     hw 4006   1.438   0.581   3.276 -0.7181 -0.8846 -2.0902
 1002SOL     hw 4007   1.344   0.696   3.303 -0.0013 -0.7880  0.1193
 1002SOL     vw 4008   1.412   0.663   3.261  0.1343 -0.1985 -0.1379
 1003SOL     ow 4009   5.404   2.319   4.625 -0.0317  0.3418 -0.5816
 1003SOL     hw 4010   5.345   2.357   4.560  0.5448  0.3970 -1.0828
 1003SOL     hw 4011   5.485   2.301   4.577  0.1556 -0.3023 -0.0479
 1003SOL     vw 4012   5.407   2.322   4.610  0.0689  0.2640 -0.5772
 1004SOL     ow 4013   5.159   4.486   6.362  0.3374 -0.2120 -0.7271
 1004SOL     hw 4014   5.193   4.560   6.413  0.9807 -0.9577 -0.0581
 1004SOL     hw 4015   5.222   4.474   6.291  0.5833 -0.5201 -0.4611
 1004SOL     vw 4016   5.172   4.494   6.359  0.4549 -0.3507 -0.6037
 1005SOL     ow 4017   2.620   6.806   3.461  0.3957 -0.8033  0.3295
 1005SOL     hw 4018   2.695   6.818   3.404  0.3148 -0.2248  0.3364
 1005SOL     hw 4019   2.657   6.799   3.549  0.4217 -0.1801  0.3700
 1005SOL     vw 4020   2.635   6.807   3.465  0.3885 -0.6447  0.3358
 1006SOL     ow 4021   7.124   1.340   6.032  0.2951  0.2868  0.4631
 1006SOL     hw 4022   7.116   1.379   5.945 -0.6576 -0.4669  0.1849
 1006SOL     hw 4023   7.074   1.398   6.089 -0.4953 -0.1075  0.1878
 1006SOL     vw 4024   7.116   1.352   6.028  0.0651  0.1353  0.3901
 1007SOL     ow 4025   6.151   4.169   0.148  0.4010 -0.0073 -0.7859
 1007SOL     hw 4026   6.102   4.108   0.093 -1.1217 -0.2753  0.7814
 1007SOL     hw 4027   6.084   4.229   0.182  1.4168  0.6224  0.1573
 1007SOL     vw 4028   6.136   4.169   0.145  0.3340  0.0403 -0.4547
 1008SOL     ow 4029   2.688   0.265   6.121  0.0600 -0.3281 -0.1279
 1008SOL     hw 4030   2.742   0.204   6.172  1.3363 -0.6092 -1.7166
 1008SOL     hw 4031   2.704   0.351   6.160  1.7148 -0.4065 -0.5326
 1008SOL     vw 4032   2.698   0.268   6.133  0.4468 -0.3755 -0.3910
 1009SOL     ow 4033   6.103   1.013   0.753  0.3297  0.3706  0.3708
 1009SOL     hw 4034   6.120   1.069   0.830  0.3693  1.2073 -0.2306
 1009SOL     hw 4035   6.128   0.925   0.781  2.7544  1.0503  0.5309
 1009SOL     vw 4036   6.109   1.009   0.767  0.6549  0.5707  0.3126
 1010SOL     ow 4037   2.523   5.748   2.684 -0.2032 -0.2639 -0.3606
 1010SOL     hw 4038   2.520   5.661   2.645 -1.8577 -0.1130 -0.6297
 1010SOL     hw 4039   2.614   5.758   2.713 -0.2731 -2.6007  0.8775
 1010SOL     vw 4040   2.534   5.738   2.683 -0.4306 -0.5524 -0.2328
 1011SOL     ow 4041   2.950   7.057   6.280  0.2557 -0.2341 -0.3541
 1011SOL     hw 4042   2.912   6.972   6.305 -1.6809  0.4100 -0.9267
 1011SOL     hw 4043   3.030   7.034   6.232 -0.5206 -1.7777 -0.9846
 1011SOL     vw 4044   2.956   7.043   6.277 -0.1023 -0.3531 -0.5126
 1012SOL     ow 4045   4.112   3.367   5.261  0.1073 -0.2137 -0.1051
 1012SOL     hw 4046   4.021   3.347   5.281  0.0350 -0.2836 -0.4920
 1012SOL     hw 4047   4.154   3.379   5.346  0.0025 -1.3262  0.1220
 1012SOL     vw 4048   4.106   3.366   5.275  0.0842 -0.3697 -0.1259
 1013SOL     ow 4049   6.430   2.103   3.402 -0.0794 -0.4741 -0.8919
 1013SOL     hw 4050   6.348   2.145   3.428 -0.2406 -1.0106 -0.4993
 1013SOL     hw 4051   6.497   2.170   3.415 -0.2760 -0.4483  0.1058
 1013SOL     vw 4052   6.428   2.117   3.407 -0.1266 -0.5414 -0.7083
 1014SOL     ow 4053   2.817   4.493   6.409 -0.2289 -0.0721 -0.2439
 1014SOL     hw 4054   2.828   4.588   6.395 -1.1713 -0.0447 -0.9357
 1014SOL     hw 4055   2.724   4.478   6.392  0.3854 -1.5316 -2.7801
 1014SOL     vw 4056   2.806   4.504   6.405 -0.2722 -0.2608 -0.6697
 1015SOL     ow 4057   3.322   1.824   5.120  1.2220 -0.5433  0.3545
 1015SOL     hw 4058   3.271   1.896   5.084  3.1750  0.3908 -0.6881
 1015SOL     hw 4059   3.366   1.862   5.196 -1.4633 -2.0189  2.8422
 1015SOL     vw 4060   3.321   1.839   5.126  1.1253 -0.6148  0.5453
 1016SOL     ow 4061   3.101   1.650   2.158 -0.0362 -0.3918  0.1150
 1016SOL     hw 4062   3.115   1.595   2.081 -0.0554 -2.2612  1.3673
 1016SOL     hw 4063   3.188   1.665   2.193 -0.0891 -0.2554  0.1877
 1016SOL     vw 4064   3.114   1.645   2.152 -0.0458 -0.6204  0.2897
 1017SOL     ow 4065   3.296   5.577   4.890  0.2820  0.1180  0.4648
 1017SOL     hw 4066   3.323   5.518   4.961 -0.3151 -0.8632 -0.0923
 1017SOL     hw 4067   3.285   5.662   4.932 -0.2291 -0.4843  1.6010
 1017SOL     vw 4068   3.298   5.580   4.905  0.1357 -0.0908  0.5412
 1018SOL     ow 4069   4.815   1.420   1.793  0.0875  0.1804 -0.4881
 1018SOL     hw 4070   4.850   1.359   1.729  0.0235 -0.3503 -0.0225
 1018SOL     hw 4071   4.802   1.368   1.872 -2.4395  0.1484 -0.8458
 1018SOL     vw 4072   4.818   1.405   1.795 -0.2542  0.1062 -0.4739
 1019SOL     ow 4073   1.834   3.759   5.341 -0.2828  0.1558  0.0655
 1019SOL     hw 4074   1.871   3.788   5.424 -0.9067 -1.7441  1.0712
 1019SOL     hw 4075   1.799   3.672   5.360 -1.0870 -0.0239 -2.0186
 1019SOL     vw 4076   1.834   3.752   5.355 -0.4712 -0.1185 -0.0768
 1020SOL     ow 4077   0.887   4.946   0.053 -0.0172  0.2697  0.0148
 1020SOL     hw 4078   0.807   4.901   0.080  0.2191  0.3139  0.7979
 1020SOL     hw 4079   0.869   5.039   0.067  0.2890  0.2564  0.5237
 1020SOL     vw 4080   0.874   4.952   0.058  0.0543  0.2735  0.1853
 1021SOL     ow 4081   6.590   5.426   3.547 -0.0574 -0.8813  0.3523
 1021SOL     hw 4082   6.642   5.346   3.540  0.9983 -0.0711 -2.8125
 1021SOL     hw 4083   6.525   5.418   3.478 -1.1484  0.2057  1.2155
 1021SOL     vw 4084   6.588   5.414   3.537 -0.0620 -0.6311  0.0486
 1022SOL     ow 4085   1.099   0.546   2.768 -0.2144 -0.5452 -0.0006
 1022SOL     hw 4086   1.146   0.502   2.839  0.9051 -0.8076 -0.8719
 1022SOL     hw 4087   1.128   0.637   2.774 -0.3381 -0.5096  0.0546
 1022SOL     vw 4088   1.109   0.552   2.778 -0.0830 -0.5751 -0.1082
 1023SOL     ow 4089   1.849   3.430   4.217  0.2094  0.2218  0.4640
 1023SOL     hw 4090   1.823   3.338   4.222  1.0298  0.0464  2.6227
 1023SOL     hw 4091   1.867   3.444   4.124  0.4575 -1.9005  0.1277
 1023SOL     vw 4092   1.848   3.420   4.205  0.3504 -0.0814  0.7045
 1024SOL     ow 4093   0.209   6.395   6.659 -0.5873  0.1966 -0.8606
 1024SOL     hw 4094   0.276   6.453   6.695 -0.4818 -0.7345  0.5110
 1024SOL     hw 4095   0.258   6.334   6.603 -0.2749 -0.4441  0.0902
 1024SOL     vw 4096   0.225   6.395   6.656 -0.5322 -0.0110 -0.5541
 1025SOL     ow 4097   0.721   0.870   4.367  0.2227  0.2641 -0.1666
 1025SOL     hw 4098   0.750   0.782   4.343 -0.5230 -0.0720  0.1169
 1025SOL     hw 4099   0.650   0.855   4.430  0.4600  1.0812  0.3038
 1025SOL     vw 4100   0.715   0.856   4.372  0.1557  0.3276 -0.0672
 1026SOL     ow 4101   2.551   3.990   5.278 -0.2541 -0.0142 -0.6066
 1026SOL     hw 4102   2.468   4.007   5.322  0.4737  0.4703  0.6030
 1026SOL     hw 4103   2.559   3.895   5.278 -1.0089 -0.0890 -1.1340
 1026SOL     vw 4104   2.541   3.980   5.283 -0.2578  0.0398 -0.5169
 1027SOL     ow 4105   4.609   5.007   1.388 -0.0181 -0.6445 -0.5658
 1027SOL     hw 4106   4.561   5.050   1.459 -1.1117 -2.3506 -0.1914
 1027SOL     hw 4107   4.684   5.064   1.371  0.2244 -0.1143  1.8721
 1027SOL     vw 4108   4.612   5.020   1.395 -0.1302 -0.7997 -0.1947
 1028SOL     ow 4109   0.177   4.531   0.889  0.5962  0.5094  0.1273
 1028SOL     hw 4110   0.135   4.609   0.923  0.3455  1.3340 -1.8966
 1028SOL     hw 4111   0.257   4.564   0.846  0.5639 -0.3509 -0.6299
 1028SOL     vw 4112   0.182   4.546   0.888  0.5588  0.5047 -0.2396
 1029SOL     ow 4113   3.627   2.965   3.963  0.2693  0.3678 -0.0290
 1029SOL     hw 4114   3.695   2.978   4.029  0.6342 -1.5422  0.0325
 1029SOL     hw 4115   3.593   2.877   3.980 -1.4610  0.8362 -0.7687
 1029SOL     vw 4116   3.631   2.955   3.973  0.0890  0.1777 -0.1184
 1030SOL     ow 4117   4.145   4.175   3.930  0.7428 -0.1620 -0.7699
 1030SOL     hw 4118   4.069   4.120   3.947  1.1459 -1.1474 -2.0286
 1030SOL     hw 4119   4.118   4.262   3.960  0.5104 -1.1780  2.3969
 1030SOL     vw 4120   4.131   4.180   3.936  0.7653 -0.4258 -0.5181
 1031SOL     ow 4121   1.037   3.744   0.035  0.0541 -0.1553  0.3044
 1031SOL     hw 4122   1.097   3.752  -0.039 -0.6061 -2.3083 -0.5530
 1031SOL     hw 4123   0.950   3.758  -0.002 -0.2995 -1.4245  0.5940
 1031SOL     vw 4124   1.034   3.747   0.021 -0.0797 -0.6069  0.2295
 1032SOL     ow 4125   2.275   4.466   2.999  0.4103 -0.6091 -0.3281
 1032SOL     hw 4126   2.281   4.374   3.025 -0.1689 -0.1830  1.4429
 1032SOL     hw 4127   2.254   4.513   3.080  2.8935  1.3844 -0.6786
 1032SOL     vw 4128   2.273   4.460   3.013  0.6615 -0.2897 -0.1408
 1033SOL     ow 4129   3.706   1.874   3.280  0.2836 -0.0502  0.0824
 1033SOL     hw 4130   3.700   1.970   3.285 -2.2028 -0.1759  0.6942
 1033SOL     hw 4131   3.751   1.857   3.197 -1.1960  1.6411 -1.1310
 1033SOL     vw 4132   3.711   1.885   3.270 -0.2396  0.1563  0.0030
 1034SOL     ow 4133   5.333   4.294   6.498 -0.0544 -0.1472  0.2042
 1034SOL     hw 4134   5.424   4.290   6.468  0.2445  2.2940  0.5298
 1034SOL     hw 4135   5.332   4.244   6.579  0.4850 -1.9224 -0.8413
 1034SOL     vw 4136   5.345   4.287   6.504  0.0560 -0.0591  0.1092
 1035SOL     ow 4137   2.900   0.416   4.868  0.4589 -0.2769  0.2577
 1035SOL     hw 4138   2.954   0.473   4.923 -1.1755  0.3996  1.2361
 1035SOL     hw 4139   2.892   0.335   4.918  0.3032 -0.2495  0.2786
 1035SOL     vw 4140   2.906   0.413   4.882  0.2227 -0.1841  0.3896
 1036SOL     ow 4141   5.055   1.347   3.477 -0.7039 -0.1392 -0.1832
 1036SOL     hw 4142   5.101   1.271   3.439 -0.6694 -0.4370  0.4490
 1036SOL     hw 4143   5.125   1.404   3.509 -0.7665 -0.7603  1.1044
 1036SOL     vw 4144   5.071   1.344   3.476 -0.7076 -0.2604  0.0700
 1037SOL     ow 4145   3.495   0.867   0.426  0.5418 -0.3325 -1.2682
 1037SOL     hw 4146   3.533   0.793   0.474 -1.1119 -0.7610 -0.5468
 1037SOL     hw 4147   3.539   0.944   0.463  0.6014 -0.7980 -0.3235
 1037SOL     vw 4148   3.506   0.867   0.437  0.3315 -0.4505 -1.0484
 1038SOL     ow 4149   4.111   7.130   2.263 -0.3526 -0.2494  0.3033
 1038SOL     hw 4150   4.185   7.176   2.302 -0.0791 -0.8523  0.5129
 1038SOL     hw 4151   4.151   7.063   2.207 -0.6975 -1.4861  1.4603
 1038SOL     vw 4152   4.126   7.127   2.261 -0.3622 -0.4921  0.4835
 1039SOL     ow 4153   1.014   4.934   1.840 -0.3746  0.8422  0.3420
 1039SOL     hw 4154   1.096   4.915   1.795 -0.9859  0.5558 -0.6915
 1039SOL     hw 4155   0.969   4.850   1.847 -1.7956  1.3586 -1.6341
 1039SOL     vw 4156   1.019   4.921   1.835 -0.6427  0.8724 -0.0551
 1040SOL     ow 4157   0.036   4.272   0.744 -0.3527  0.1751  0.5476
 1040SOL     hw 4158   0.024   4.309   0.657 -0.4076 -0.1613  0.4112
 1040SOL     hw 4159  -0.051   4.238   0.768 -0.2206 -0.1841  0.5223
 1040SOL     vw 4160   0.023   4.272   0.736 -0.3425  0.0832  0.5262
 1041SOL     ow 4161   3.898   4.947   5.421  0.9245 -0.0782  0.2891
 1041SOL     hw 4162   3.912   4.912   5.333  1.6588 -1.7280  1.0234
 1041SOL     hw 4163   3.805   4.934   5.438  0.6709  0.6970 -0.3937
 1041SOL     vw 4164   3.888   4.941   5.412  0.9880 -0.1936  0.2956
 1042SOL     ow 4165   2.288   0.404   2.684  0.9488 -0.0707 -0.3002
 1042SOL     hw 4166   2.204   0.360   2.677  0.8385  0.0345  0.3340
 1042SOL     hw 4167   2.266   0.495   2.702  1.2004 -0.1733  0.5640
 1042SOL     vw 4168   2.274   0.410   2.686  0.9674 -0.0703 -0.1024
 1043SOL     ow 4169   4.699   2.474   2.673 -0.1286  0.0057  0.1502
 1043SOL     hw 4170   4.760   2.511   2.609  0.0364 -0.5247 -0.0019
 1043SOL     hw 4171   4.749   2.406   2.718 -1.0535 -1.5548 -1.0678
 1043SOL     vw 4172   4.713   2.470   2.670 -0.2289 -0.2702 -0.0304
 1044SOL     ow 4173   4.253   6.131   2.267 -0.7659  0.1375 -0.2553
 1044SOL     hw 4174   4.327   6.108   2.212 -0.2481  3.4703 -1.1768
 1044SOL     hw 4175   4.189   6.062   2.252  0.3029 -0.3391 -3.1687
 1044SOL     vw 4176   4.254   6.119   2.258 -0.5567  0.5143 -0.7612
 1045SOL     ow 4177   0.150   3.809   3.590  0.3821 -0.2153 -1.0774
 1045SOL     hw 4178   0.226   3.857   3.557  0.2087  0.0643 -1.0700
 1045SOL     hw 4179   0.137   3.843   3.679  0.1990 -0.2049 -1.1079
 1045SOL     vw 4180   0.158   3.820   3.598  0.3351 -0.1770 -1.0805
 1046SOL     ow 4181   4.492   2.911   3.089 -0.6340  0.6053  0.3571
 1046SOL     hw 4182   4.517   2.928   3.179 -1.5514  2.6653  0.2776
 1046SOL     hw 4183   4.439   2.831   3.093  1.5709 -0.9084  1.2044
 1046SOL     vw 4184   4.488   2.902   3.101 -0.4642  0.6773  0.4585
 1047SOL     ow 4185   4.341   6.730   0.184  0.1068  0.2471  0.1089
 1047SOL     hw 4186   4.315   6.808   0.135 -0.1090  1.4441  2.0393
 1047SOL     hw 4187   4.436   6.727   0.175 -0.0832 -0.9529 -2.3250
 1047SOL     vw 4188   4.350   6.740   0.177  0.0532  0.2468  0.0425
 1048SOL     ow 4189   5.391   4.897   6.015  0.6772 -0.0178  0.3253
 1048SOL     hw 4190   5.311   4.870   6.059  0.8628 -1.4289 -0.1707
 1048SOL     hw 4191   5.367   4.976   5.967  0.1347  0.7850  1.8492
 1048SOL     vw 4192   5.377   4.904   6.015  0.6304 -0.0978  0.4609
 1049SOL     ow 4193   1.075   6.198   0.797 -0.5382 -0.4581 -0.8528
 1049SOL     hw 4194   1.020   6.219   0.722 -0.1235  3.5778 -0.2569
 1049SOL     hw 4195   1.164   6.219   0.769 -0.1999 -0.2300  0.3247
 1049SOL     vw 4196   1.079   6.203   0.783 -0.4389  0.1047 -0.6188
 1050SOL     ow 4197   6.054   0.905   5.776  0.3303 -0.6840  0.7532
 1050SOL     hw 4198   5.993   0.913   5.849 -0.3210 -0.1812  0.1746
 1050SOL     hw 4199   6.000   0.917   5.698  1.4220  1.9174  0.2579
 1050SOL     vw 4200   6.039   0.908   5.775  0.3881 -0.2744  0.6115
 1051SOL     ow 4201   5.120   0.886   4.366 -0.1264 -0.2311 -0.5678
 1051SOL     hw 4202   5.031   0.869   4.396 -0.3267 -3.0800 -2.3710
 1051SOL     hw 4203   5.174   0.825   4.416  0.5376  0.1913 -0.7601
 1051SOL     vw 4204   5.115   0.876   4.376 -0.0653 -0.5513 -0.8311
 1052SOL     ow 4205   6.261   0.960   1.861  0.7023  0.4386 -1.0246
 1052SOL     hw 4206   6.173   0.952   1.898 -0.0898  2.1628 -2.3890
 1052SOL     hw 4207   6.318   0.965   1.937 -0.3074 -1.1353 -0.1119
 1052SOL     vw 4208   6.257   0.960   1.876  0.4647  0.4585 -1.0843
 1053SOL     ow 4209   4.564   6.232   7.019  0.4347 -0.0929  0.1649
 1053SOL     hw 4210   4.479   6.199   7.049  0.7276  0.5678  1.8443
 1053SOL     hw 4211   4.594   6.288   7.091  2.8415 -1.2907  0.1875
 1053SOL     vw 4212   4.557   6.235   7.033  0.7908 -0.1640  0.3896
 1054SOL     ow 4213   1.904   3.170   3.246 -0.2615  0.2497  0.0649
 1054SOL     hw 4214   1.835   3.109   3.220 -0.1916 -0.4751  1.5381
 1054SOL     hw 4215   1.861   3.255   3.248 -1.5800 -0.3883  2.4882
 1054SOL     vw 4216   1.890   3.173   3.243 -0.4263  0.0700  0.5790
 1055SOL     ow 4217   3.336   5.719   7.133 -0.5350 -0.3985  0.4413
 1055SOL     hw 4218   3.303   5.679   7.053  0.5998 -1.4938  0.4934
 1055SOL     hw 4219   3.280   5.683   7.202 -0.5756 -0.5993  0.3057
 1055SOL     vw 4220   3.324   5.709   7.132 -0.3905 -0.5693  0.4303
 1056SOL     ow 4221   1.780   4.128   4.268  0.0362 -0.9387 -0.7136
 1056SOL     hw 4222   1.844   4.140   4.338 -0.7458  0.5588 -0.2076
 1056SOL     hw 4223   1.750   4.038   4.279 -0.1604 -0.7024  0.9921
 1056SOL     vw 4224   1.784   4.117   4.279 -0.0929 -0.7098 -0.4218
 1057SOL     ow 4225   4.953   4.384   6.135 -0.3490 -0.0844 -0.8568
 1057SOL     hw 4226   4.991   4.451   6.078  1.4130  0.2938  0.6699
 1057SOL     hw 4227   4.964   4.302   6.087 -0.2733  0.4228 -1.7111
 1057SOL     vw 4228   4.960   4.382   6.121 -0.1066  0.0324 -0.7679
 1058SOL     ow 4229   6.613   1.938   2.509 -0.1492  0.1872 -0.0647
 1058SOL     hw 4230   6.619   2.014   2.452  0.7363 -1.8948 -2.9428
 1058SOL     hw 4231   6.704   1.909   2.520 -0.3209  0.2724  2.1864
 1058SOL     vw 4232   6.626   1.944   2.503 -0.0551 -0.0764 -0.1475
 1059SOL     ow 4233   5.429   3.876   3.616  0.0118 -0.6889  0.3566
 1059SOL     hw 4234   5.336   3.872   3.595 -0.2524  0.3939  1.2019
 1059SOL     hw 4235   5.440   3.962   3.658  1.2351 -1.1311  0.9833
 1059SOL     vw 4236   5.419   3.887   3.619  0.1383 -0.6045  0.5509
 1060SOL     ow 4237   6.234   5.250   0.337  0.0536  0.0093 -0.1926
 1060SOL     hw 4238   6.264   5.268   0.247  0.1111  1.0943  0.0286
 1060SOL     hw 4239   6.234   5.155   0.343  0.7562 -0.0726 -1.1127
 1060SOL     vw 4240   6.238   5.240   0.326  0.1540  0.1416 -0.2848
 1061SOL     ow 4241   0.785   0.976   5.785 -0.6134 -0.0621  0.2423
 1061SOL     hw 4242   0.841   1.052   5.772  0.1974 -0.1706  2.5355
 1061SOL     hw 4243   0.802   0.919   5.710  0.5552  0.9664 -0.3045
 1061SOL     vw 4244   0.794   0.978   5.774 -0.3523  0.0593  0.4728
 1062SOL     ow 4245   1.891   3.139   3.548 -0.6273  0.3693 -0.5148
 1062SOL     hw 4246   1.873   3.199   3.620  0.1543  1.3626 -1.1166
 1062SOL     hw 4247   1.807   3.095   3.531 -1.4514  1.9451 -0.6441
 1062SOL     vw 4248   1.878   3.141   3.555 -0.6329  0.7082 -0.6113
 1063SOL     ow 4249   6.863   0.373   5.251  0.4111  0.0144  0.5988
 1063SOL     hw 4250   6.811   0.400   5.327  0.2235 -0.7202  0.7313
 1063SOL     hw 4251   6.949   0.412   5.266  0.3318 -0.0036  1.1086
 1063SOL     vw 4252   6.867   0.382   5.263  0.3760 -0.0849  0.6835
 1064SOL     ow 4253   0.183   6.158   3.331  0.1927 -0.4344 -0.3229
 1064SOL     hw 4254   0.126   6.114   3.394 -1.0844  1.4649 -0.0467
 1064SOL     hw 4255   0.270   6.155   3.371  0.0015 -1.9379  0.0397
 1064SOL     vw 4256   0.187   6.152   3.344 -0.0010 -0.3822 -0.2388
 1065SOL     ow 4257   1.744   3.577   2.993  0.3366 -0.1886 -0.1991
 1065SOL     hw 4258   1.760   3.622   2.910 -0.2776  0.6084  0.0975
 1065SOL     hw 4259   1.681   3.509   2.973 -0.3547  0.4592 -0.2670
 1065SOL     vw 4260   1.738   3.574   2.980  0.1644  0.0020 -0.1689
 1066SOL     ow 4261   6.231   3.190   1.701 -0.0998 -0.1307 -0.2595
 1066SOL     hw 4262   6.302   3.219   1.643 -1.3017 -0.4006 -1.9304
 1066SOL     hw 4263   6.193   3.272   1.734  0.7368  0.0220  0.3738
 1066SOL     vw 4264   6.236   3.205   1.698 -0.1481 -0.1460 -0.3964
 1067SOL     ow 4265   6.181   0.049   3.521 -0.2471 -0.6479 -0.8138
 1067SOL     hw 4266   6.228  -0.003   3.455  0.7176 -1.3004  0.3590
 1067SOL     hw 4267   6.242   0.118   3.546 -0.4878 -0.5978 -0.3650
 1067SOL     vw 4268   6.195   0.051   3.515 -0.1516 -0.7274 -0.5999
 1068SOL     ow 4269   2.907   4.645   3.229 -0.4183  0.3343 -0.0408
 1068SOL     hw 4270   2.995   4.681   3.235 -0.1770 -0.3060  0.3404
 1068SOL     hw 4271   2.856   4.715   3.187  0.3593  0.5430 -0.6747
 1068SOL     vw 4272   2.912   4.659   3.224 -0.2837  0.2773 -0.0740
 1069SOL     ow 4273   4.817   6.773   2.543 -0.5236 -0.1851  0.0055
 1069SOL     hw 4274   4.860   6.804   2.464 -0.5463 -2.4484 -0.9621
 1069SOL     hw 4275   4.728   6.809   2.537 -0.3748  0.0748 -0.7397
 1069SOL     vw 4276   4.811   6.782   2.532 -0.5071 -0.4492 -0.2204
 1070SOL     ow 4277   6.685   2.006   5.916  0.3307 -0.3357  0.2560
 1070SOL     hw 4278   6.644   2.057   5.846 -0.8613  0.9057  1.7837
 1070SOL     hw 4279   6.640   1.922   5.915  0.3463 -0.3369 -0.4730
 1070SOL     vw 4280   6.674   2.002   5.907  0.1757 -0.1720  0.3617
 1071SOL     ow 4281   1.840   0.671   5.743  0.6008  1.0423  0.0821
 1071SOL     hw 4282   1.815   0.643   5.831 -0.9765  0.9936 -0.3563
 1071SOL     hw 4283   1.788   0.616   5.685  1.2420  1.4342 -0.8826
 1071SOL     vw 4284   1.830   0.660   5.747  0.4773  1.0875 -0.1032
 1072SOL     ow 4285   1.848   5.791   6.257  0.0821 -0.5261 -0.3891
 1072SOL     hw 4286   1.831   5.777   6.164 -1.2750 -0.2673 -0.1980
 1072SOL     hw 4287   1.942   5.809   6.262 -0.0494  0.7748 -1.8729
 1072SOL     vw 4288   1.858   5.792   6.246 -0.1143 -0.3202 -0.5598
 1073SOL     ow 4289   3.235   1.496   5.554  0.3975 -0.9505 -0.3926
 1073SOL     hw 4290   3.267   1.551   5.626 -0.8959 -0.0216 -0.4879
 1073SOL     hw 4291   3.244   1.407   5.586 -1.1921 -0.5348  1.4406
 1073SOL     vw 4292   3.240   1.492   5.568  0.0173 -0.7731 -0.1633
 1074SOL     ow 4293   3.323   3.160   5.434  0.1543  0.5139  0.2214
 1074SOL     hw 4294   3.247   3.115   5.471 -0.2811 -0.0372 -1.2868
 1074SOL     hw 4295   3.394   3.140   5.495 -0.8696  0.9619  1.6075
 1074SOL     vw 4296   3.322   3.151   5.447 -0.0383  0.5002  0.2053
 1075SOL     ow 4297   5.785   2.486   3.772  0.6300  0.3821 -0.1153
 1075SOL     hw 4298   5.861   2.453   3.819 -0.3568  1.1174  2.1355
 1075SOL     hw 4299   5.719   2.417   3.782  0.5236  0.3639 -0.8421
 1075SOL     vw 4300   5.786   2.473   3.779  0.4857  0.4767  0.0857
 1076SOL     ow 4301   2.836   5.409   1.079  0.2992 -0.2650 -0.3158
 1076SOL     hw 4302   2.889   5.349   1.131 -0.1051 -1.8815 -1.7038
 1076SOL     hw 4303   2.888   5.489   1.076  1.0714 -0.6643  1.1721
 1076SOL     vw 4304   2.850   5.412   1.086  0.3476 -0.5307 -0.3026
 1077SOL     ow 4305   5.082   7.218   3.790  0.3925 -0.8103 -0.4900
 1077SOL     hw 4306   4.997   7.258   3.772 -0.3495 -2.7794 -1.7968
 1077SOL     hw 4307   5.130   7.283   3.840 -1.8630  0.4011  0.2177
 1077SOL     vw 4308   5.077   7.232   3.794 -0.0031 -0.9103 -0.5691
 1078SOL     ow 4309   3.252   0.168   6.644  0.2874 -0.1654 -0.2565
 1078SOL     hw 4310   3.325   0.201   6.592  0.1073 -2.6738 -2.2375
 1078SOL     hw 4311   3.263   0.210   6.730  2.0651  2.1068 -1.4976
 1078SOL     vw 4312   3.263   0.178   6.649  0.4983 -0.1966 -0.6814
 1079SOL     ow 4313   4.380   0.918   2.712 -0.7331 -0.3524 -0.2663
 1079SOL     hw 4314   4.295   0.886   2.741 -1.5189  1.6348 -0.1821
 1079SOL     hw 4315   4.398   0.993   2.770 -0.0560  0.7033 -1.7744
 1079SOL     vw 4316   4.371   0.924   2.724 -0.7472  0.0491 -0.4542
 1080SOL     ow 4317   2.928   2.968   7.041  0.0784 -0.3117  0.3722
 1080SOL     hw 4318   2.996   3.035   7.047 -0.9428  0.8089 -0.1450
 1080SOL     hw 4319   2.974   2.889   7.014  0.8695  1.0012 -2.4540
 1080SOL     vw 4320   2.943   2.966   7.038  0.0482  0.0094 -0.0689
 1081SOL     ow 4321   1.197   0.981   0.923 -0.7611  0.0177 -0.8120
 1081SOL     hw 4322   1.104   0.960   0.919 -0.4791 -1.2173 -1.5008
 1081SOL     hw 4323   1.240   0.906   0.881  0.5844  0.2711  0.0573
 1081SOL     vw 4324   1.190   0.968   0.917 -0.5464 -0.1118 -0.7882
 1082SOL     ow 4325   1.675   6.400   0.048 -0.8450 -0.2815 -0.2817
 1082SOL     hw 4326   1.594   6.359   0.018  0.4535 -2.5227 -0.9068
 1082SOL     hw 4327   1.697   6.355   0.129  1.5720 -2.3385 -1.9134
 1082SOL     vw 4328   1.667   6.389   0.055 -0.3548 -0.8485 -0.5795
 1083SOL     ow 4329   3.407   2.554   2.841  0.3092  0.2091  0.0463
 1083SOL     hw 4330   3.500   2.559   2.820  0.2524 -0.0365 -0.2644
 1083SOL     hw 4331   3.365   2.615   2.781  0.4450  1.6349  1.3254
 1083SOL     vw 4332   3.414   2.563   2.831  0.3196  0.3649  0.1740
 1084SOL     ow 4333   6.521   6.977   7.149 -1.0834  0.2224 -0.0531
 1084SOL     hw 4334   6.432   6.971   7.183 -1.6513 -1.7665 -1.7136
 1084SOL     hw 4335   6.520   6.925   7.069  1.8980 -0.9441  0.5219
 1084SOL     vw 4336   6.509   6.970   7.143 -0.7648 -0.1941 -0.1962
 1085SOL     ow 4337   5.258   2.090   4.711 -0.5250  0.1134 -0.0947
 1085SOL     hw 4338   5.167   2.079   4.738 -0.9262 -0.2540 -1.4912
 1085SOL     hw 4339   5.259   2.065   4.618  0.8420  0.8694 -0.3221
 1085SOL     vw 4340   5.246   2.085   4.702 -0.3977  0.1649 -0.3090
 1086SOL     ow 4341   4.069   2.485   0.663  0.1220 -0.0007  0.0000
 1086SOL     hw 4342   4.031   2.398   0.658  0.1197 -0.0019  0.0397
 1086SOL     hw 4343   3.998   2.544   0.635  0.5466 -0.1170 -1.3986
 1086SOL     vw 4344   4.055   2.481   0.659  0.1779 -0.0163 -0.1792
 1087SOL     ow 4345   0.021   2.281   4.475 -0.0270  0.4714 -0.0133
 1087SOL     hw 4346   0.075   2.254   4.401  0.3060 -3.5212  1.3974
 1087SOL     hw 4347   0.058   2.364   4.503 -0.1300  2.1361 -4.1252
 1087SOL     vw 4348   0.033   2.288   4.469  0.0033  0.1642 -0.3698
 1088SOL     ow 4349   6.326   5.913   1.468 -0.0407 -0.1181 -0.5334
 1088SOL     hw 4350   6.297   5.842   1.410 -0.8701 -0.7341  0.5905
 1088SOL     hw 4351   6.332   5.872   1.554 -0.5375  1.1743  0.1342
 1088SOL     vw 4352   6.323   5.898   1.471 -0.2158 -0.0291 -0.2971
 1089SOL     ow 4353   4.793   2.278   2.842 -0.2575 -0.0311 -0.0565
 1089SOL     hw 4354   4.781   2.183   2.839 -0.4211  0.0007 -0.6083
 1089SOL     hw 4355   4.886   2.290   2.822 -0.2972 -0.0656 -0.2701
 1089SOL     vw 4356   4.804   2.267   2.839 -0.2844 -0.0314 -0.1574
 1090SOL     ow 4357   6.099   3.839   4.712  0.2817  0.0477  0.7569
 1090SOL     hw 4358   6.159   3.894   4.761  0.8599 -1.2141  1.5083
 1090SOL     hw 4359   6.015   3.884   4.717  1.1041  1.7589 -0.1889
 1090SOL     vw 4360   6.096   3.852   4.719  0.4666  0.1070  0.7315
 1091SOL     ow 4361   6.848   2.448   3.874  0.4690 -0.5343 -0.2394
 1091SOL     hw 4362   6.912   2.467   3.806 -0.2685  1.6579 -0.3991
 1091SOL     hw 4363   6.852   2.353   3.886  1.7833 -0.7550 -2.1554
 1091SOL     vw 4364   6.857   2.438   3.867  0.5453 -0.2742 -0.5132
 1092SOL     ow 4365   5.723   2.997   1.722 -0.0185 -1.0113 -0.8547
 1092SOL     hw 4366   5.696   3.025   1.635  0.5858  0.7510 -0.5347
 1092SOL     hw 4367   5.643   2.967   1.764 -0.2274 -2.3850 -2.1665
 1092SOL     vw 4368   5.709   2.997   1.716  0.0336 -0.9599 -0.9854
 1093SOL     ow 4369   4.582   7.214   5.301 -0.0051 -0.1789  0.2496
 1093SOL     hw 4370   4.489   7.223   5.280 -0.4573 -0.8812  1.8168
 1093SOL     hw 4371   4.628   7.242   5.221 -1.5849 -2.1718 -1.4661
 1093SOL     vw 4372   4.576   7.219   5.287 -0.2735 -0.5345  0.2301
 1094SOL     ow 4373   7.220   3.028   2.299 -0.0019  0.6570  0.5062
 1094SOL     hw 4374   7.194   3.042   2.208  2.0541 -0.7667 -0.3980
 1094SOL     hw 4375   7.261   2.941   2.298  1.1424  1.1271  2.5269
 1094SOL     vw 4376   7.222   3.018   2.287  0.4203  0.5311  0.6534
 1095SOL     ow 4377   5.504   6.618   5.737 -0.2690 -0.1744  0.0329
 1095SOL     hw 4378   5.541   6.593   5.821  0.7846  0.2501 -0.2813
 1095SOL     hw 4379   5.411   6.601   5.745 -0.5397  1.8766  2.0410
 1095SOL     vw 4380   5.497   6.613   5.749 -0.1655  0.1521  0.2563
 1096SOL     ow 4381   6.626   2.325   6.954 -0.5731 -0.0510 -0.2898
 1096SOL     hw 4382   6.642   2.282   6.870  1.8972  0.2731 -0.0684
 1096SOL     hw 4383   6.708   2.316   7.001 -1.0768  1.9583  1.1070
 1096SOL     vw 4384   6.639   2.319   6.949 -0.3138  0.2568 -0.0765
 1097SOL     ow 4385   3.812   7.080   3.995 -0.3994  0.0553  0.8339
 1097SOL     hw 4386   3.730   7.119   4.024 -0.5646  0.1368  0.2688
 1097SOL     hw 4387   3.880   7.132   4.038 -0.5919  1.6776 -0.7368
 1097SOL     vw 4388   3.810   7.092   4.005 -0.4467  0.2799  0.5519
 1098SOL     ow 4389   5.117   4.745   3.507 -0.0754 -0.1446 -0.3666
 1098SOL     hw 4390   5.083   4.759   3.418 -1.2940 -0.4583  0.0342
 1098SOL     hw 4391   5.041   4.717   3.558  1.1380 -2.7142  0.1616
 1098SOL     vw 4392   5.102   4.743   3.502 -0.0758 -0.5248 -0.2441
 1099SOL     ow 4393   6.415   5.815   2.349 -0.2363  0.0201  0.1855
 1099SOL     hw 4394   6.440   5.791   2.438  0.3073  0.5719  0.1904
 1099SOL     hw 4395   6.319   5.814   2.350 -0.2606  0.9661  1.0640
 1099SOL     vw 4396   6.405   5.812   2.361 -0.1676  0.2177  0.3021
 1100SOL     ow 4397   3.665   5.296   0.972  0.2176 -0.2512 -0.6288
 1100SOL     hw 4398   3.642   5.374   1.021  0.8161  0.4613 -1.4640
 1100SOL     hw 4399   3.602   5.294   0.900  0.0653 -0.6686 -0.4902
 1100SOL     vw 4400   3.653   5.306   0.969  0.2766 -0.2124 -0.7207
 1101SOL     ow 4401   5.545   4.867   3.772 -0.2995 -0.2434  0.2038
 1101SOL     hw 4402   5.536   4.959   3.797 -0.6532 -0.1699 -0.1772
 1101SOL     hw 4403   5.620   4.835   3.822  0.2792  0.4459 -0.2107
 1101SOL     vw 4404   5.554   4.875   3.782 -0.2699 -0.1428  0.0989
 1102SOL     ow 4405   0.380   6.534   3.916  0.0732 -0.3262 -0.0584
 1102SOL     hw 4406   0.475   6.544   3.906  0.2298 -1.2788  0.3935
 1102SOL     hw 4407   0.354   6.610   3.968  1.0107 -1.3504  2.0529
 1102SOL     vw 4408   0.389   6.545   3.922  0.2176 -0.5867  0.2798
 1103SOL     ow 4409   4.005   6.178   0.954  0.1142  0.0961  0.5836
 1103SOL     hw 4410   4.075   6.233   0.921  0.3365 -0.5742 -0.0773
 1103SOL     hw 4411   3.991   6.113   0.886 -0.2134 -0.6099  1.3126
 1103SOL     vw 4412   4.012   6.177   0.941  0.1001 -0.0856  0.5925
 1104SOL     ow 4413   5.644   5.320   0.149  0.8459  0.0556 -0.7109
 1104SOL     hw 4414   5.668   5.406   0.116  1.9540 -0.0087 -0.1163
 1104SOL     hw 4415   5.644   5.263   0.072  1.1410  0.3725 -0.9478
 1104SOL     vw 4416   5.647   5.324   0.135  1.0314  0.0887 -0.6637
 1105SOL     ow 4417   0.455   2.070   0.302  0.2880  0.2203 -0.1732
 1105SOL     hw 4418   0.550   2.063   0.308  0.2658  0.4081  0.4938
 1105SOL     hw 4419   0.435   2.156   0.340 -0.1508  0.1737 -0.2956
 1105SOL     vw 4420   0.465   2.080   0.308  0.2272  0.2389 -0.1014
 1106SOL     ow 4421   6.949   3.543   5.075  0.1406 -0.0652  0.0983
 1106SOL     hw 4422   6.894   3.500   5.009  2.2803 -3.2335  0.1494
 1106SOL     hw 4423   6.919   3.507   5.158 -1.5657  2.8018  0.8419
 1106SOL     vw 4424   6.938   3.532   5.077  0.1976 -0.1049  0.2034
 1107SOL     ow 4425   1.063   5.913   6.397  0.0810  0.3521 -0.2679
 1107SOL     hw 4426   1.009   5.992   6.395  0.6053  0.7053 -1.7014
 1107SOL     hw 4427   1.013   5.848   6.348  0.4238  0.3448 -0.6227
 1107SOL     vw 4428   1.050   5.915   6.390  0.1954  0.3977 -0.5040
 1108SOL     ow 4429   6.107   5.916   3.413 -0.1701 -0.6553  0.5985
 1108SOL     hw 4430   6.087   5.836   3.365  0.9154 -0.8087  0.3817
 1108SOL     hw 4431   6.059   5.908   3.495 -0.0530 -1.5332  0.5821
 1108SOL     vw 4432   6.098   5.905   3.417 -0.0114 -0.7911  0.5678
 1109SOL     ow 4433   5.023   1.013   0.171  0.3372 -0.3034 -0.0255
 1109SOL     hw 4434   5.110   1.049   0.154  0.3049 -0.1231  0.1914
 1109SOL     hw 4435   5.013   0.944   0.105  0.0605  0.6429 -0.9914
 1109SOL     vw 4436   5.033   1.009   0.160  0.2966 -0.1547 -0.1243
 1110SOL     ow 4437   3.911   7.105   3.422  0.4377  0.4192  0.0544
 1110SOL     hw 4438   3.894   7.039   3.355 -0.0944  1.6054 -1.0161
 1110SOL     hw 4439   3.987   7.153   3.390 -1.5281  2.8970 -1.2931
 1110SOL     vw 4440   3.919   7.103   3.409  0.1080  0.9027 -0.2646
 1111SOL     ow 4441   1.047   5.885   0.786 -0.7792  0.4172 -0.1735
 1111SOL     hw 4442   0.998   5.808   0.816  1.9290 -0.8659  1.3426
 1111SOL     hw 4443   1.058   5.872   0.692 -0.8811 -0.7500 -0.0330
 1111SOL     vw 4444   1.042   5.873   0.777 -0.4354  0.0937  0.0450
 1112SOL     ow 4445   2.988   3.729   3.502  0.0028  0.9019 -0.0719
 1112SOL     hw 4446   2.920   3.700   3.440 -1.0038  0.2898  1.2763
 1112SOL     hw 4447   2.941   3.782   3.566  0.6298 -0.1115  1.2791
 1112SOL     vw 4448   2.973   3.732   3.502 -0.0473  0.6872  0.2843
 1113SOL     ow 4449   5.310   0.641   1.836 -0.7616  0.2506 -0.4032
 1113SOL     hw 4450   5.262   0.705   1.888 -2.1874 -2.0348  1.2968
 1113SOL     hw 4451   5.242   0.592   1.790  0.1480 -1.0134 -0.4435
 1113SOL     vw 4452   5.295   0.643   1.837 -0.8295 -0.2177 -0.1842
 1114SOL     ow 4453   4.602   1.307   0.375 -0.7730 -0.0784  1.0288
 1114SOL     hw 4454   4.654   1.386   0.365 -2.7344  1.0996 -0.7981
 1114SOL     hw 4455   4.632   1.268   0.457  1.5302  1.5434  1.0441
 1114SOL     vw 4456   4.613   1.312   0.384 -0.7281  0.2909  0.7898
 1115SOL     ow 4457   2.213   2.507   5.943  0.4758  0.4827 -0.4722
 1115SOL     hw 4458   2.207   2.420   5.983 -0.5134  0.1189 -1.3670
 1115SOL     hw 4459   2.267   2.493   5.865 -0.6489  0.4044 -1.2611
 1115SOL     vw 4460   2.219   2.494   5.938  0.1969  0.4245 -0.6943
 1116SOL     ow 4461   2.552   6.814   2.898 -0.0118  0.1481 -0.1092
 1116SOL     hw 4462   2.551   6.755   2.973  2.8236  1.8082  1.4091
 1116SOL     hw 4463   2.473   6.867   2.908 -0.8119 -1.0971  0.4010
 1116SOL     vw 4464   2.541   6.813   2.909  0.2567  0.2029  0.1585
 1117SOL     ow 4465   1.827   4.260   1.375 -0.5444 -0.1285 -0.8055
 1117SOL     hw 4466   1.742   4.268   1.420 -0.5667 -0.8798 -0.7007
 1117SOL     hw 4467   1.862   4.175   1.404  2.0700  1.7791  2.2990
 1117SOL     vw 4468   1.820   4.250   1.385 -0.2024  0.0243 -0.3821
 1118SOL     ow 4469   4.750   2.793   4.090 -0.8184  0.0083 -0.5914
 1118SOL     hw 4470   4.781   2.872   4.047  1.2534 -0.3877  0.0750
 1118SOL     hw 4471   4.826   2.735   4.092 -1.6674 -1.1255  0.9357
 1118SOL     vw 4472   4.764   2.796   4.085 -0.6568 -0.1935 -0.3021
 1119SOL     ow 4473   6.955   2.942   6.695 -0.3660  0.1138  0.6693
 1119SOL     hw 4474   7.000   2.876   6.748 -0.7976 -1.7863 -1.1968
 1119SOL     hw 4475   6.874   2.960   6.743 -0.8883 -1.7870  0.5819
 1119SOL     vw 4476   6.950   2.935   6.708 -0.4916 -0.3877  0.4115
 1120SOL     ow 4477   6.410   6.059   3.916 -0.1824 -0.2479 -0.3344
 1120SOL     hw 4478   6.351   6.133   3.932 -0.7702 -0.9305  0.7612
 1120SOL     hw 4479   6.415   6.015   4.000  0.5631 -1.1769 -0.8567
 1120SOL     vw 4480   6.403   6.063   3.929 -0.1616 -0.4609 -0.2588
 1121SOL     ow 4481   0.223   6.636   2.568 -0.2222 -0.7424 -0.5043
 1121SOL     hw 4482   0.256   6.624   2.480 -0.3273  0.5729 -0.7500
 1121SOL     hw 4483   0.130   6.614   2.563  0.1863 -2.7227 -0.2115
 1121SOL     vw 4484   0.215   6.632   2.556 -0.1821 -0.8302 -0.4981
 1122SOL     ow 4485   3.490   0.298   6.544  0.0484 -0.0341  0.1886
 1122SOL     hw 4486   3.466   0.335   6.459  0.4480 -0.1477  0.0245
 1122SOL     hw 4487   3.493   0.373   6.603  0.2280  0.1062  0.0013
 1122SOL     vw 4488   3.487   0.313   6.541  0.1249 -0.0306  0.1421
 1123SOL     ow 4489   0.675   4.560   5.442  0.3848 -0.0433 -0.3114
 1123SOL     hw 4490   0.712   4.606   5.367  2.1148  1.6821  1.4951
 1123SOL     hw 4491   0.582   4.551   5.421  0.9982 -0.8152 -3.1868
 1123SOL     vw 4492   0.667   4.565   5.430  0.6940  0.0825 -0.4525
 1124SOL     ow 4493   3.300   6.502   3.389  0.1458 -0.1610  0.1355
 1124SOL     hw 4494   3.293   6.588   3.348  1.9089  0.5264  1.1594
 1124SOL     hw 4495   3.297   6.520   3.483 -1.6427 -1.4836  0.4011
 1124SOL     vw 4496   3.298   6.515   3.396  0.1426 -0.2446  0.3055
 1125SOL     ow 4497   4.518   2.628   5.561  0.2617 -0.0782 -0.2761
 1125SOL     hw 4498   4.600   2.663   5.525  0.2290  0.7339  0.3957
 1125SOL     hw 4499   4.451   2.656   5.499  0.4127 -0.1974 -0.4959
 1125SOL     vw 4500   4.520   2.637   5.548  0.2775  0.0132 -0.2162
 1126SOL     ow 4501   1.937   4.743   6.054 -0.2295  0.6507 -0.4885
 1126SOL     hw 4502   1.907   4.652   6.062  1.7261 -0.0454 -0.6552
 1126SOL     hw 4503   1.983   4.760   6.136 -0.6818  1.5426 -0.4123
 1126SOL     vw 4504   1.939   4.733   6.066 -0.0312  0.6764 -0.5002
 1127SOL     ow 4505   3.568   7.182   4.062 -0.3371 -0.0325 -0.0048
 1127SOL     hw 4506   3.482   7.152   4.091 -0.9321  2.0302  0.5719
 1127SOL     hw 4507   3.550   7.266   4.019  1.3253  0.1589 -0.3693
 1127SOL     vw 4508   3.554   7.189   4.061 -0.1962  0.2650  0.0234
 1128SOL     ow 4509   1.268   6.756   2.585 -0.2067 -0.3724 -0.4578
 1128SOL     hw 4510   1.289   6.665   2.606 -1.2479 -0.2640  1.2297
 1128SOL     hw 4511   1.224   6.751   2.500 -0.1153 -1.4180 -0.4578
 1128SOL     vw 4512   1.265   6.743   2.577 -0.3320 -0.4961 -0.2352
 1129SOL     ow 4513   2.265   6.704   2.706 -0.4105  0.5265  0.2175
 1129SOL     hw 4514   2.259   6.753   2.788 -0.6978 -1.2693  1.3501
 1129SOL     hw 4515   2.235   6.616   2.729  2.6637 -0.9943 -0.9799
 1129SOL     vw 4516   2.260   6.699   2.720 -0.0429  0.0887  0.2090
 1130SOL     ow 4517   2.575   0.849   5.164  0.2604  0.0534  0.2342
 1130SOL     hw 4518   2.563   0.933   5.207  1.9317  1.2725 -1.4868
 1130SOL     hw 4519   2.515   0.850   5.090  1.0260  0.2271 -0.4046
 1130SOL     vw 4520   2.566   0.860   5.159  0.5816  0.2371 -0.0772
 1131SOL     ow 4521   6.056   1.536   1.244  1.1166 -0.3219  0.1171
 1131SOL     hw 4522   6.149   1.515   1.238  0.8585 -1.5465  0.2014
 1131SOL     hw 4523   6.040   1.548   1.337  1.1905 -0.0944  0.1012
 1131SOL     vw 4524   6.066   1.535   1.255  1.0922 -0.4534  0.1262
 1132SOL     ow 4525   0.537   2.662   4.383 -0.1569  0.4003 -0.3338
 1132SOL     hw 4526   0.483   2.741   4.381 -1.7198 -0.4542  2.6783
 1132SOL     hw 4527   0.484   2.595   4.341 -0.0195  0.3088 -0.3619
 1132SOL     vw 4528   0.523   2.664   4.377 -0.3450  0.2754  0.0598
 1133SOL     ow 4529   5.641   0.838   6.561 -0.0894  0.1852 -0.3527
 1133SOL     hw 4530   5.689   0.795   6.631 -0.9750  0.8731  0.7159
 1133SOL     hw 4531   5.582   0.899   6.606  0.6792  2.0850 -1.7660
 1133SOL     vw 4532   5.639   0.840   6.576 -0.1047  0.5266 -0.3982
 1134SOL     ow 4533   3.583   3.345   4.598  0.0108  0.7605 -0.6218
 1134SOL     hw 4534   3.676   3.337   4.622  0.0624 -0.1419 -1.0744
 1134SOL     hw 4535   3.584   3.383   4.510  0.1074 -1.6296 -1.7556
 1134SOL     vw 4536   3.596   3.349   4.589  0.0303  0.3260 -0.8311
 1135SOL     ow 4537   2.844   5.148   4.389  0.6554 -0.0822 -0.1797
 1135SOL     hw 4538   2.776   5.093   4.428  0.6072  0.2549  0.2180
 1135SOL     hw 4539   2.924   5.095   4.394  1.1800  0.8195  2.5725
 1135SOL     vw 4540   2.846   5.134   4.395  0.7182  0.0815  0.2358
 1136SOL     ow 4541   2.253   5.120   5.679 -0.2775 -0.6241  0.2401
 1136SOL     hw 4542   2.344   5.130   5.704 -0.0788  0.1356 -0.7477
 1136SOL     hw 4543   2.204   5.140   5.759  0.3560  1.4209  0.1824
 1136SOL     vw 4544   2.258   5.124   5.693 -0.1676 -0.2542  0.1023
 1137SOL     ow 4545   1.419   4.643   0.574  0.7289  0.4293  0.0914
 1137SOL     hw 4546   1.407   4.728   0.533  1.1406  0.1488 -0.6276
 1137SOL     hw 4547   1.372   4.649   0.657  1.1653  1.5236  0.2770
 1137SOL     vw 4548   1.411   4.655   0.580  0.8408  0.5369  0.0211
 1138SOL     ow 4549   5.014   2.225   3.861  0.1069 -0.1429  0.8498
 1138SOL     hw 4550   4.944   2.281   3.827  0.7746  0.7459  0.9297
 1138SOL     hw 4551   4.970   2.142   3.879 -0.6692 -0.0191 -0.3216
 1138SOL     vw 4552   4.999   2.221   3.859  0.0927 -0.0092  0.7058
 1139SOL     ow 4553   0.711   1.104   6.024  0.1814 -1.0874  0.1747
 1139SOL     hw 4554   0.698   1.180   6.080  2.5456 -1.4759  1.3446
 1139SOL     hw 4555   0.754   1.139   5.946 -0.8568 -0.9175 -0.3401
 1139SOL     vw 4556   0.715   1.118   6.021  0.3563 -1.1163  0.2611
 1140SOL     ow 4557   6.376   3.330   2.430  0.4576  0.3745 -0.0671
 1140SOL     hw 4558   6.432   3.262   2.394  0.3376 -0.0134  0.4679
 1140SOL     hw 4559   6.402   3.410   2.385  2.1677  0.4103  0.9226
 1140SOL     vw 4560   6.387   3.332   2.419  0.6673  0.3279  0.1340
 1141SOL     ow 4561   2.356   6.217   6.919  0.0839 -0.1147 -0.2496
 1141SOL     hw 4562   2.315   6.164   6.988  0.6607 -0.0798  0.1302
 1141SOL     hw 4563   2.285   6.238   6.859 -0.7058  0.9270  0.9942
 1141SOL     vw 4564   2.342   6.212   6.920  0.0558  0.0274 -0.0353
 1142SOL     ow 4565   2.177   2.304   2.438 -0.1607 -0.0357 -0.1638
 1142SOL     hw 4566   2.241   2.375   2.445  0.3072 -0.4438 -0.2774
 1142SOL     hw 4567   2.229   2.226   2.421 -0.5882 -0.5797  0.9277
 1142SOL     vw 4568   2.192   2.303   2.437 -0.1553 -0.1613 -0.0348
 1143SOL     ow 4569   6.815   2.971   4.835 -0.2695  0.0383 -0.0684
 1143SOL     hw 4570   6.853   3.004   4.916  0.3782 -0.5843 -0.1108
 1143SOL     hw 4571   6.761   3.043   4.803  2.4881  1.8039 -1.1006
 1143SOL     vw 4572   6.813   2.985   4.841  0.1800  0.1891 -0.2100
 1144SOL     ow 4573   4.900   0.227   3.016 -0.3782  0.2537 -0.3755
 1144SOL     hw 4574   4.892   0.223   2.921 -1.7645  0.4497 -0.2914
 1144SOL     hw 4575   4.842   0.299   3.042  0.7240  0.8535  0.5468
 1144SOL     vw 4576   4.891   0.236   3.007 -0.4156  0.3587 -0.2428
 1145SOL     ow 4577   5.488   5.542   2.518  0.7215  0.5755  0.2996
 1145SOL     hw 4578   5.564   5.564   2.464  0.2335  1.4586 -0.0680
 1145SOL     hw 4579   5.413   5.568   2.464  0.0818 -1.5407  0.0694
 1145SOL     vw 4580   5.488   5.548   2.504  0.5729  0.4129  0.2207
 1146SOL     ow 4581   2.234   7.197   7.131 -0.0904  0.0409  0.6329
 1146SOL     hw 4582   2.242   7.285   7.168 -0.6279 -0.2093  1.3745
 1146SOL     hw 4583   2.318   7.155   7.152 -0.1221  0.1331  0.9518
 1146SOL     vw 4584   2.246   7.203   7.139 -0.1655  0.0200  0.7730
 1147SOL     ow 4585   2.436   4.311   2.790  0.4895 -0.3384 -0.3624
 1147SOL     hw 4586   2.525   4.339   2.807  0.1650  0.3599  0.2417
 1147SOL     hw 4587   2.429   4.310   2.694  0.9167  0.3756 -0.4107
 1147SOL     vw 4588   2.447   4.315   2.779  0.5031 -0.1519 -0.2891
 1148SOL     ow 4589   1.733   5.038   0.911  0.4008 -0.4133 -0.0159
 1148SOL     hw 4590   1.799   5.064   0.847  0.5719 -1.3784 -0.2459
 1148SOL     hw 4591   1.652   5.076   0.878  0.9317  1.3136  0.6004
 1148SOL     vw 4592   1.731   5.046   0.898  0.4934 -0.3130  0.0351
 1149SOL     ow 4593   4.954   5.861   6.802  0.7337  0.3870 -0.2112
 1149SOL     hw 4594   5.010   5.896   6.871  0.8710  1.0648 -0.6599
 1149SOL     hw 4595   4.965   5.921   6.729 -1.3559  1.1413  0.0199
 1149SOL     vw 4596   4.962   5.873   6.802  0.4759  0.5758 -0.2396
 1150SOL     ow 4597   5.584   0.200   2.455  0.0367  0.1332  0.2656
 1150SOL     hw 4598   5.554   0.109   2.465  1.1917 -0.1551  1.4606
 1150SOL     hw 4599   5.627   0.220   2.539  0.9612  1.3324 -0.4611
 1150SOL     vw 4600   5.586   0.190   2.468  0.3109  0.2534  0.3275
 1151SOL     ow 4601   3.013   6.965   1.993  0.2663  0.2952 -0.3321
 1151SOL     hw 4602   3.083   6.940   1.932 -0.2928  2.0893 -1.8110
 1151SOL     hw 4603   2.942   6.903   1.974  1.4325 -1.7141  1.3642
 1151SOL     vw 4604   3.013   6.953   1.983  0.3465  0.2668 -0.3034
 1152SOL     ow 4605   4.464   0.025   0.573 -0.3838  0.2506  0.5420
 1152SOL     hw 4606   4.400   0.056   0.637 -1.5578  1.1491 -0.9976
 1152SOL     hw 4607   4.427  -0.057   0.540  0.3787 -0.3805  1.2121
 1152SOL     vw 4608   4.451   0.018   0.577 -0.4382  0.2861  0.4273
 1153SOL     ow 4609   6.729   1.433   4.199  0.1819  0.0159 -1.2778
 1153SOL     hw 4610   6.794   1.475   4.142 -0.5873 -1.4571 -3.4035
 1153SOL     hw 4611   6.714   1.348   4.158 -1.0736 -0.7959  0.7225
 1153SOL     vw 4612   6.736   1.427   4.186 -0.0851 -0.2856 -1.2946
 1154SOL     ow 4613   2.696   4.323   1.405  0.1517 -0.0883 -0.6176
 1154SOL     hw 4614   2.680   4.349   1.496  0.1696  0.7579 -0.8449
 1154SOL     hw 4615   2.617   4.277   1.379 -0.9156  1.8392 -0.9359
 1154SOL     vw 4616   2.684   4.320   1.414  0.0132  0.2775 -0.6896
 1155SOL     ow 4617   2.911   7.144   2.246 -0.0044  0.7499  0.0597
 1155SOL     hw 4618   2.958   7.226   2.233  0.5908  0.4512  0.2835
 1155SOL     hw 4619   2.821   7.164   2.222 -0.4696  2.1992  2.6627
 1155SOL     vw 4620   2.906   7.157   2.241  0.0128  0.9017  0.4328
 1156SOL     ow 4621   0.409   0.896   2.748  0.0944 -0.7047 -0.4956
 1156SOL     hw 4622   0.464   0.824   2.778 -2.6708 -2.6284  0.3913
 1156SOL     hw 4623   0.348   0.855   2.685 -1.0063  1.0386 -0.6318
 1156SOL     vw 4624   0.408   0.881   2.743 -0.4157 -0.7285 -0.3966
 1157SOL     ow 4625   1.133   4.221   1.701  0.0973  0.4711  0.1469
 1157SOL     hw 4626   1.111   4.159   1.770  2.0792  0.4798  0.8403
 1157SOL     hw 4627   1.144   4.305   1.746 -0.1976  0.8311 -0.4283
 1157SOL     vw 4628   1.132   4.224   1.716  0.3200  0.5198  0.1625
 1158SOL     ow 4629   6.229   0.029   5.706  0.0158  0.5165  0.5515
 1158SOL     hw 4630   6.136   0.027   5.681  0.3752 -1.4029 -0.8237
 1158SOL     hw 4631   6.248  -0.060   5.736  1.3745  0.9486  1.0610
 1158SOL     vw 4632   6.219   0.017   5.707  0.2427  0.3204  0.4373
 1159SOL     ow 4633   1.908   3.264   1.531  0.4804  0.2530  0.2369
 1159SOL     hw 4634   1.897   3.208   1.609  3.3283  1.4612  1.6804
 1159SOL     hw 4635   1.994   3.238   1.496  0.9686  2.3260 -0.2203
 1159SOL     vw 4636   1.918   3.253   1.537  0.9205  0.6857  0.3670
 1160SOL     ow 4637   4.992   3.776   0.463  0.0641 -0.1323  0.5064
 1160SOL     hw 4638   5.064   3.739   0.515  1.9519  0.9856 -1.1649
 1160SOL     hw 4639   4.914   3.732   0.495  1.7668 -3.1342  0.8413
 1160SOL     vw 4640   4.991   3.766   0.474  0.5376 -0.3810  0.3301
 1161SOL     ow 4641   4.665   4.832   0.331 -0.0279  0.3402 -0.0207
 1161SOL     hw 4642   4.651   4.763   0.266  2.5329  0.2349 -0.5709
 1161SOL     hw 4643   4.744   4.877   0.302  1.5604 -0.0345  3.2394
 1161SOL     vw 4644   4.673   4.829   0.319  0.5198  0.2766  0.3368
 1162SOL     ow 4645   2.794   3.896   3.764  0.1548  0.2452  0.1799
 1162SOL     hw 4646   2.850   3.963   3.803  1.2981 -1.1981  1.1096
 1162SOL     hw 4647   2.706   3.935   3.767  0.6061  1.2745  1.7088
 1162SOL     vw 4648   2.789   3.910   3.770  0.3651  0.1906  0.5044
 1163SOL     ow 4649   2.248   1.599   2.801 -0.3557  0.8368 -0.2031
 1163SOL     hw 4650   2.282   1.681   2.838 -0.2002  1.0299 -0.7632
 1163SOL     hw 4651   2.159   1.620   2.772 -0.2480  0.8656 -0.5228
 1163SOL     vw 4652   2.240   1.613   2.802 -0.3209  0.8661 -0.3192
 1164SOL     ow 4653   6.208   0.389   5.675 -0.2986 -0.5512  0.5746
 1164SOL     hw 4654   6.146   0.364   5.606 -0.3791  1.7274 -0.2712
 1164SOL     hw 4655   6.288   0.340   5.654 -0.0602  0.6632 -1.6823
 1164SOL     vw 4656   6.211   0.379   5.663 -0.2778 -0.0903  0.1650
 1165SOL     ow 4657   3.409   2.075   1.035  0.2083 -0.7437 -0.2108
 1165SOL     hw 4658   3.434   2.151   1.088 -0.9514 -0.1880 -0.4241
 1165SOL     hw 4659   3.323   2.049   1.069  0.9315 -2.4735  0.3796
 1165SOL     vw 4660   3.401   2.082   1.047  0.1506 -0.8985 -0.1611
 1166SOL     ow 4661   6.337   2.253   4.020 -0.3064 -0.3466  0.1436
 1166SOL     hw 4662   6.260   2.270   4.074  0.7787  0.8327  1.4149
 1166SOL     hw 4663   6.355   2.160   4.032 -0.2250 -0.1603  1.6949
 1166SOL     vw 4664   6.329   2.243   4.029 -0.1523 -0.1663  0.5162
 1167SOL     ow 4665   0.180   5.265   4.356  0.4310 -0.1822 -0.5088
 1167SOL     hw 4666   0.189   5.171   4.376  0.4710  0.2278  1.6104
 1167SOL     hw 4667   0.270   5.298   4.357  0.3377  0.0691 -0.1537
 1167SOL     vw 4668   0.193   5.257   4.359  0.4240 -0.0949 -0.1824
 1168SOL     ow 4669   6.497   5.420   3.813 -0.1116  0.0129 -0.0194
 1168SOL     hw 4670   6.488   5.420   3.909 -0.6857 -0.7279 -0.0653
 1168SOL     hw 4671   6.433   5.356   3.783 -0.1952  0.5030 -0.9308
 1168SOL     vw 4672   6.487   5.412   3.822 -0.1986 -0.0203 -0.1458
 1169SOL     ow 4673   0.645   4.809   5.662  0.6487  0.3462 -0.2366
 1169SOL     hw 4674   0.625   4.809   5.568  2.0959  0.3843 -0.5551
 1169SOL     hw 4675   0.570   4.853   5.702 -0.4017 -0.4274 -1.2764
 1169SOL     vw 4676   0.632   4.814   5.655  0.7010  0.2491 -0.4158
 1170SOL     ow 4677   3.421   3.954   4.321  0.0082  0.2457 -0.3634
 1170SOL     hw 4678   3.431   3.885   4.385 -1.1908 -0.4142 -0.8453
 1170SOL     hw 4679   3.420   4.035   4.373 -0.0286 -0.2040  0.3519
 1170SOL     vw 4680   3.422   3.956   4.336 -0.1549  0.0994 -0.3326
 1171SOL     ow 4681   0.385   2.894   4.394  0.2593  0.0135  0.1317
 1171SOL     hw 4682   0.293   2.900   4.369  0.1335  0.3579  0.6593
 1171SOL     hw 4683   0.394   2.953   4.469  0.4272 -1.6186  1.4471
 1171SOL     vw 4684   0.374   2.903   4.400  0.2649 -0.1564  0.3750
 1172SOL     ow 4685   2.568   4.987   0.956 -0.0461 -0.5900  0.6186
 1172SOL     hw 4686   2.550   5.024   1.042 -0.4183 -0.8109  0.6379
 1172SOL     hw 4687   2.582   4.894   0.972  1.5137 -0.3809  0.6560
 1172SOL     vw 4688   2.567   4.980   0.969  0.1106 -0.5915  0.6261
 1173SOL     ow 4689   0.414   6.938   1.439 -0.2888  0.1909 -0.3192
 1173SOL     hw 4690   0.423   7.012   1.500 -0.1395 -0.9306  1.0526
 1173SOL     hw 4691   0.504   6.912   1.420 -0.2823  1.2279 -1.9600
 1173SOL     vw 4692   0.427   6.945   1.444 -0.2682  0.1798 -0.3548
 1174SOL     ow 4693   5.019   6.793   4.009 -0.1669  0.1380 -0.1624
 1174SOL     hw 4694   4.963   6.812   3.934 -0.8898  0.5407  0.4589
 1174SOL     hw 4695   5.061   6.710   3.988 -0.9184 -0.1131 -0.7001
 1174SOL     vw 4696   5.017   6.785   3.997 -0.3614  0.1581 -0.1514
 1175SOL     ow 4697   5.463   3.793   3.892  0.1056  0.1341  0.1088
 1175SOL     hw 4698   5.387   3.849   3.908  0.1984  0.7549 -1.5075
 1175SOL     hw 4699   5.476   3.747   3.975 -1.2100  1.0028  0.8329
 1175SOL     vw 4700   5.454   3.794   3.905 -0.0558  0.3307 -0.0088
 1176SOL     ow 4701   4.566   4.550   6.565 -0.0422  0.0307 -0.5674
 1176SOL     hw 4702   4.576   4.627   6.509 -1.1716  0.7325  0.1680
 1176SOL     hw 4703   4.479   4.559   6.604 -0.0093 -1.3823 -0.1030
 1176SOL     vw 4704   4.556   4.561   6.563 -0.1867 -0.0634 -0.4091
 1177SOL     ow 4705   4.505   5.558   0.065  0.1267  0.4782 -0.6443
 1177SOL     hw 4706   4.578   5.557   0.002  0.3921  0.3351 -0.3394
 1177SOL     hw 4707   4.523   5.635   0.120 -0.3699  0.8876 -1.0482
 1177SOL     vw 4708   4.517   5.568   0.064  0.0963  0.5133 -0.6574
 1178SOL     ow 4709   4.357   6.703   6.288  0.2583  0.2623  0.6522
 1178SOL     hw 4710   4.281   6.649   6.268 -0.0013  0.5934  0.7338
 1178SOL     hw 4711   4.321   6.789   6.311  0.7738  1.3811 -2.2957
 1178SOL     vw 4712   4.343   6.708   6.288  0.2921  0.4537  0.2742
 1179SOL     ow 4713   6.710   4.048   0.147  0.1241  0.2934  0.3689
 1179SOL     hw 4714   6.730   3.955   0.137  0.0253  0.3816 -0.7668
 1179SOL     hw 4715   6.794   4.093   0.141 -0.0093  0.4049 -0.9930
 1179SOL     vw 4716   6.724   4.042   0.145  0.0935  0.3195  0.0393
 1180SOL     ow 4717   2.320   1.285   2.872  0.0552 -0.0265 -0.1738
 1180SOL     hw 4718   2.351   1.263   2.961  0.4450  0.4516 -0.1893
 1180SOL     hw 4719   2.289   1.201   2.838  0.0712 -0.2556  0.3480
 1180SOL     vw 4720   2.320   1.271   2.880  0.1086  0.0063 -0.1069
 1181SOL     ow 4721   4.508   4.549   6.061 -0.0038 -0.1739  0.5192
 1181SOL     hw 4722   4.532   4.641   6.069 -1.7935  0.5009 -1.1773
 1181SOL     hw 4723   4.499   4.518   6.151  0.4161  1.3536  1.1145
 1181SOL     vw 4724   4.510   4.557   6.074 -0.1845  0.1166  0.3738
 1182SOL     ow 4725   6.946   1.487   6.171 -0.4452 -0.6571  0.4529
 1182SOL     hw 4726   6.902   1.569   6.190 -0.0605 -0.1714 -0.6592
 1182SOL     hw 4727   6.875   1.425   6.153 -0.7074  0.0343 -1.0074
 1182SOL     vw 4728   6.931   1.489   6.171 -0.4289 -0.5019  0.1135
 1183SOL     ow 4729   0.449   4.786   0.260  0.5309 -0.4333  0.2152
 1183SOL     hw 4730   0.413   4.750   0.178  0.0305  0.5809 -0.0417
 1183SOL     hw 4731   0.537   4.815   0.236 -0.2358  1.5091 -0.5023
 1183SOL     vw 4732   0.456   4.785   0.246  0.3637 -0.0432  0.0867
 1184SOL     ow 4733   2.218   4.964   3.419  0.1442  0.7472  0.3403
 1184SOL     hw 4734   2.216   5.053   3.454 -0.6521  0.5204  0.9002
 1184SOL     hw 4735   2.129   4.931   3.434  0.9415 -0.8241  1.9524
 1184SOL     vw 4736   2.206   4.972   3.426  0.1444  0.5100  0.6269
 1185SOL     ow 4737   5.829   7.055   6.568 -0.4508  0.4672 -0.1388
 1185SOL     hw 4738   5.917   7.020   6.554  0.1431  1.3649  1.0980
 1185SOL     hw 4739   5.772   7.000   6.516  0.7082 -0.9104 -0.0040
 1185SOL     vw 4740   5.833   7.043   6.560 -0.2196  0.4039  0.0422
 1186SOL     ow 4741   0.217   0.775   0.595  0.3776  0.4667  0.1499
 1186SOL     hw 4742   0.130   0.779   0.556  0.3452 -0.1349  0.1451
 1186SOL     hw 4743   0.242   0.866   0.609 -0.0075  0.6580 -0.3920
 1186SOL     vw 4744   0.209   0.787   0.592  0.3225  0.4126  0.0778
 1187SOL     ow 4745   2.611   4.530   0.058 -0.0923 -0.0376  0.4555
 1187SOL     hw 4746   2.638   4.474  -0.014 -0.8512  0.4109 -0.1840
 1187SOL     hw 4747   2.540   4.583   0.023  2.4304  3.4426  0.0800
 1187SOL     vw 4748   2.605   4.530   0.044  0.1405  0.4804  0.3216
 1188SOL     ow 4749   5.274   2.518   1.604 -0.1299 -0.1824 -0.5451
 1188SOL     hw 4750   5.202   2.557   1.654  0.2275 -0.5559  0.2710
 1188SOL     hw 4751   5.352   2.534   1.656  0.3205 -0.1883 -1.2004
 1188SOL     vw 4752   5.275   2.525   1.617 -0.0231 -0.2325 -0.5239
 1189SOL     ow 4753   1.672   3.374   4.444  0.4195  0.6177 -0.0044
 1189SOL     hw 4754   1.608   3.381   4.515 -0.0143 -0.4105 -0.2756
 1189SOL     hw 4755   1.741   3.318   4.479 -0.7834 -1.6171 -1.0457
 1189SOL     vw 4756   1.673   3.368   4.458  0.2035  0.1872 -0.1774
 1190SOL     ow 4757   3.900   6.618   4.486  0.0461 -0.0516 -0.1596
 1190SOL     hw 4758   3.979   6.615   4.433 -0.0639  0.0648 -0.3292
 1190SOL     hw 4759   3.891   6.710   4.511  0.2003 -0.1352  0.2173
 1190SOL     vw 4760   3.909   6.629   4.482  0.0521 -0.0472 -0.1321
 1191SOL     ow 4761   7.214   2.787   0.041  0.1602  0.8972  0.5887
 1191SOL     hw 4762   7.193   2.870  -0.003 -0.1709  1.2517  1.3977
 1191SOL     hw 4763   7.181   2.798   0.130  2.3746  0.8824  1.4756
 1191SOL     vw 4764   7.207   2.800   0.047  0.4086  0.9421  0.8125
 1192SOL     ow 4765   3.775   3.984   1.906 -0.3480 -0.1356 -0.5272
 1192SOL     hw 4766   3.693   3.935   1.901  0.2956 -1.2257 -0.5656
 1192SOL     hw 4767   3.750   4.068   1.944 -1.1048 -1.3645  1.8822
 1192SOL     vw 4768   3.761   3.989   1.910 -0.3631 -0.4417 -0.2144
 1193SOL     ow 4769   4.922   5.627   0.018 -0.0017 -0.1922  0.2835
 1193SOL     hw 4770   4.980   5.697  -0.014 -0.1031 -0.2692 -0.0668
 1193SOL     hw 4771   4.953   5.610   0.107  1.5424 -1.3151 -0.4193
 1193SOL     vw 4772   4.934   5.634   0.026  0.1888 -0.3505  0.1446
 1194SOL     ow 4773   3.615   6.459   4.573  0.0957 -0.3247  0.1644
 1194SOL     hw 4774   3.588   6.375   4.609 -1.2194  0.0600  0.1468
 1194SOL     hw 4775   3.533   6.501   4.545  0.8339  0.4027 -1.0499
 1194SOL     vw 4776   3.600   6.454   4.574  0.0197 -0.1779  0.0019
 1195SOL     ow 4777   5.540   2.642   6.257 -0.3677  0.3406 -0.5422
 1195SOL     hw 4778   5.621   2.648   6.307 -0.5894 -0.0420 -0.1344
 1195SOL     hw 4779   5.470   2.655   6.322 -0.6440  0.4157 -0.8470
 1195SOL     vw 4780   5.541   2.645   6.272 -0.4332  0.3000 -0.5286
 1196SOL     ow 4781   5.703   0.706   7.111  0.4116  0.8693 -0.2878
 1196SOL     hw 4782   5.628   0.763   7.095  0.8084  1.7303  0.7910
 1196SOL     hw 4783   5.717   0.660   7.028 -0.3193  1.8711 -0.9814
 1196SOL     vw 4784   5.695   0.707   7.098  0.3676  1.1151 -0.2370
 1197SOL     ow 4785   3.949   0.165   2.360 -0.0524  0.3689 -0.2088
 1197SOL     hw 4786   4.025   0.216   2.334  0.3472  0.3844  0.9340
 1197SOL     hw 4787   3.892   0.229   2.405 -0.5264  0.2557 -0.6351
 1197SOL     vw 4788   3.951   0.180   2.363 -0.0622  0.3560 -0.1143
 1198SOL     ow 4789   6.423   3.903   2.884  0.3819 -0.0427 -0.2398
 1198SOL     hw 4790   6.423   3.808   2.883 -0.6091 -0.0911  1.5294
 1198SOL     hw 4791   6.484   3.927   2.954  0.1024  0.6086 -0.2064
 1198SOL     vw 4792   6.431   3.894   2.893  0.2143  0.0370 -0.0019
 1199SOL     ow 4793   6.716   0.207   5.082 -0.4946  0.0517 -0.3184
 1199SOL     hw 4794   6.698   0.226   4.990  1.2997 -1.3505 -1.0221
 1199SOL     hw 4795   6.762   0.284   5.114 -0.1991  0.1251 -0.9066
 1199SOL     vw 4796   6.720   0.220   5.074 -0.2186 -0.1236 -0.4888
 1200SOL     ow 4797   3.311   0.796   5.904 -0.0443 -0.0545 -0.0213
 1200SOL     hw 4798   3.369   0.830   5.836 -0.1063 -0.8520 -0.4827
 1200SOL     hw 4799   3.315   0.862   5.974 -0.6868  1.2387 -1.1525
 1200SOL     vw 4800   3.319   0.810   5.905 -0.1372  0.0109 -0.2313
 1201SOL     ow 4801   5.691   3.289   3.775 -0.3440  0.2650 -0.6365
 1201SOL     hw 4802   5.638   3.280   3.854 -0.3801  0.7796 -0.5967
 1201SOL     hw 4803   5.778   3.257   3.801 -1.2134 -3.0460 -1.4291
 1201SOL     vw 4804   5.696   3.284   3.789 -0.4635 -0.1038 -0.7358
 1202SOL     ow 4805   3.740   3.685   4.499  0.4242 -0.3388 -0.4330
 1202SOL     hw 4806   3.801   3.715   4.432  1.8744 -1.0390  0.5148
 1202SOL     hw 4807   3.796   3.655   4.571 -1.0532  1.7870  1.7601
 1202SOL     vw 4808   3.755   3.685   4.500  0.4206 -0.1507 -0.0191
 1203SOL     ow 4809   1.786   3.698   2.749  0.1289 -0.1296 -0.1987
 1203SOL     hw 4810   1.705   3.709   2.699 -0.1002  0.7187  0.3247
 1203SOL     hw 4811   1.828   3.784   2.746  0.4507 -0.2547  0.4755
 1203SOL     vw 4812   1.781   3.711   2.742  0.1412 -0.0341 -0.0407
 1204SOL     ow 4813   6.815   1.397   3.559  0.6076 -0.1684 -0.8669
 1204SOL     hw 4814   6.816   1.325   3.622 -0.6698  0.8460  0.4012
 1204SOL     hw 4815   6.886   1.455   3.588 -0.9989  1.1150  0.7503
 1204SOL     vw 4816   6.824   1.395   3.571  0.2270  0.1348 -0.4863
 1205SOL     ow 4817   6.919   3.500   6.373 -0.0361  0.2505  0.2253
 1205SOL     hw 4818   6.979   3.560   6.328  2.7679 -1.6332  1.1814
 1205SOL     hw 4819   6.942   3.508   6.466 -0.9133 -0.9227  0.5734
 1205SOL     vw 4820   6.930   3.509   6.379  0.2182 -0.1528  0.3974
 1206SOL     ow 4821   0.287   1.641   0.557  0.3067  0.0919 -0.0686
 1206SOL     hw 4822   0.331   1.568   0.514  0.8155  0.1411  0.3549
 1206SOL     hw 4823   0.196   1.613   0.565  0.7407 -1.0438  1.2421
 1206SOL     vw 4824   0.281   1.628   0.552  0.4311 -0.0515  0.1602
 1207SOL     ow 4825   4.359   3.244   5.814 -0.4570 -0.0122 -0.2630
 1207SOL     hw 4826   4.284   3.237   5.873 -1.1639 -1.0391 -1.2419
 1207SOL     hw 4827   4.327   3.211   5.730  1.7082 -2.9649 -0.1163
 1207SOL     vw 4828   4.345   3.238   5.811 -0.2649 -0.5370 -0.3729
 1208SOL     ow 4829   3.571   2.571   5.098 -0.2631 -0.0886 -0.0615
 1208SOL     hw 4830   3.512   2.623   5.153  1.0016  1.8317 -0.3893
 1208SOL     hw 4831   3.525   2.489   5.083 -2.7181  1.2004 -0.0696
 1208SOL     vw 4832   3.557   2.567   5.103 -0.4202  0.3350 -0.1056
 1209SOL     ow 4833   2.156   1.141   5.709  0.1870 -0.2391  0.1692
 1209SOL     hw 4834   2.205   1.105   5.783  0.5117 -2.8849 -1.2066
 1209SOL     hw 4835   2.092   1.200   5.748 -1.0634 -3.0884  2.8219
 1209SOL     vw 4836   2.154   1.144   5.724  0.0647 -0.9640  0.3378
 1210SOL     ow 4837   2.821   2.667   0.782 -0.0580  0.1263 -0.5055
 1210SOL     hw 4838   2.856   2.607   0.847  0.6118  0.3485 -0.6508
 1210SOL     hw 4839   2.727   2.669   0.798  0.0708 -0.0254  0.2779
 1210SOL     vw 4840   2.814   2.660   0.792  0.0472  0.1355 -0.4213
 1211SOL     ow 4841   2.495   0.571   5.287 -0.8421 -0.1600  0.1948
 1211SOL     hw 4842   2.473   0.480   5.267  0.8481 -1.1357  2.2950
 1211SOL     hw 4843   2.453   0.587   5.372  0.6482  0.2677  0.8751
 1211SOL     vw 4844   2.487   0.561   5.296 -0.4226 -0.2323  0.5620
 1212SOL     ow 4845   3.983   5.525   4.602 -0.2650 -0.0350 -0.4541
 1212SOL     hw 4846   4.064   5.548   4.556 -0.6470  1.4081 -0.4669
 1212SOL     hw 4847   3.952   5.445   4.559  0.6106 -0.0205 -1.1361
 1212SOL     vw 4848   3.989   5.518   4.590 -0.1998  0.1571 -0.5460
 1213SOL     ow 4849   0.993   1.773   6.112 -0.2256  0.2105  0.4792
 1213SOL     hw 4850   1.056   1.703   6.129 -0.5835 -0.1550  0.3098
 1213SOL     hw 4851   0.911   1.742   6.149 -0.2801  0.7435  0.8189
 1213SOL     vw 4852   0.990   1.760   6.119 -0.2800  0.2326  0.5016
 1214SOL     ow 4853   1.010   4.037   1.510 -0.3545  0.9826 -0.6118
 1214SOL     hw 4854   0.968   3.987   1.580 -0.4860  2.7101  0.6074
 1214SOL     hw 4855   1.082   3.982   1.481 -0.7087 -0.0657  0.4336
 1214SOL     vw 4856   1.014   4.023   1.515 -0.4185  1.0722 -0.3130
 1215SOL     ow 4857   5.192   1.253   5.158  0.4002  0.5537 -0.0455
 1215SOL     hw 4858   5.173   1.175   5.211 -1.3518  0.3725 -0.8512
 1215SOL     hw 4859   5.223   1.219   5.074  0.9737  0.7781  0.0702
 1215SOL     vw 4860   5.193   1.238   5.154  0.2446  0.5594 -0.1366
 1216SOL     ow 4861   5.993   0.823   5.320  0.4135 -0.1198  0.3638
 1216SOL     hw 4862   6.056   0.759   5.288  0.5988 -0.5082  1.4636
 1216SOL     hw 4863   5.954   0.861   5.241  2.5387  0.6524 -0.3777
 1216SOL     vw 4864   5.996   0.820   5.306  0.7184 -0.0691  0.4110
 1217SOL     ow 4865   4.940   0.316   4.649 -0.2997 -0.2470 -0.0754
 1217SOL     hw 4866   5.027   0.291   4.680 -0.2565 -0.6073 -0.4846
 1217SOL     hw 4867   4.955   0.353   4.562 -0.3386  1.3871  0.5733
 1217SOL     vw 4868   4.954   0.318   4.642 -0.2990 -0.0789 -0.0436
 1218SOL     ow 4869   1.208   5.557   2.617  0.0600 -0.2217 -0.7948
 1218SOL     hw 4870   1.232   5.581   2.707  0.6204 -0.6253 -0.8341
 1218SOL     hw 4871   1.243   5.627   2.563 -0.6489  0.2414 -0.6633
 1218SOL     vw 4872   1.216   5.569   2.622  0.0404 -0.2136 -0.7826
 1219SOL     ow 4873   2.900   2.604   5.785 -0.0796 -0.8338  0.1968
 1219SOL     hw 4874   2.947   2.686   5.766  1.4392 -2.1645 -2.3281
 1219SOL     hw 4875   2.820   2.611   5.732 -0.1728 -0.7995  0.3419
 1219SOL     vw 4876   2.896   2.616   5.775  0.1086 -1.0049 -0.1173
 1220SOL     ow 4877   6.276   5.972   5.055  0.4257 -0.1387  0.3412
 1220SOL     hw 4878   6.266   6.062   5.088 -1.5167 -0.0076 -0.5065
 1220SOL     hw 4879   6.269   5.918   5.134 -0.0032  0.3805  0.6727
 1220SOL     vw 4880   6.274   5.977   5.070  0.1128 -0.0527  0.2732
 1221SOL     ow 4881   5.673   5.392   4.410 -0.3137  0.3628  0.0569
 1221SOL     hw 4882   5.717   5.424   4.489 -0.8101 -2.7022  1.7124
 1221SOL     hw 4883   5.662   5.470   4.356  1.8829  2.2426  2.0875
 1221SOL     vw 4884   5.678   5.407   4.414 -0.0894  0.2062  0.5434
 1222SOL     ow 4885   3.437   1.380   5.028  0.3013  0.1760 -0.1075
 1222SOL     hw 4886   3.371   1.368   4.960  1.1087  0.5719 -0.9810
 1222SOL     hw 4887   3.459   1.473   5.025  0.6091  0.1296  0.4444
 1222SOL     vw 4888   3.431   1.391   5.019  0.4485  0.2221 -0.1500
 1223SOL     ow 4889   7.159   2.517   5.742 -0.2468 -0.0845  0.4282
 1223SOL     hw 4890   7.239   2.569   5.746  0.5350 -1.0580 -1.1247
 1223SOL     hw 4891   7.190   2.426   5.738 -1.3693 -0.4528 -0.8303
 1223SOL     vw 4892   7.174   2.512   5.742 -0.2918 -0.2615  0.0572
 1224SOL     ow 4893   4.119   3.982   0.943 -0.2713 -0.4815 -0.6836
 1224SOL     hw 4894   4.188   4.043   0.917 -0.9326  0.7555  0.3404
 1224SOL     hw 4895   4.056   3.985   0.871  0.8703 -1.9384 -1.8271
 1224SOL     vw 4896   4.120   3.990   0.930 -0.2079 -0.5105 -0.6994
 1225SOL     ow 4897   2.996   7.092   0.456 -0.4300  0.4211  0.0280
 1225SOL     hw 4898   2.976   7.002   0.483 -1.7381  0.7510  0.2354
 1225SOL     hw 4899   2.967   7.097   0.365 -0.2050  0.5959 -0.0370
 1225SOL     vw 4900   2.990   7.081   0.447 -0.5728  0.4878  0.0468
 1226SOL     ow 4901   3.379   1.241   2.576 -0.3493  0.2762 -0.3374
 1226SOL     hw 4902   3.413   1.321   2.617 -0.4505  0.3649 -0.4273
 1226SOL     hw 4903   3.326   1.200   2.644 -1.0757  0.7723 -0.5982
 1226SOL     vw 4904   3.377   1.246   2.590 -0.4585  0.3533 -0.3837
 1227SOL     ow 4905   2.487   6.668   3.229 -0.3644 -0.4538  0.1877
 1227SOL     hw 4906   2.419   6.646   3.166 -0.3393 -2.4042  0.7760
 1227SOL     hw 4907   2.569   6.659   3.180 -0.3549 -1.7717  0.4166
 1227SOL     vw 4908   2.489   6.664   3.214 -0.3599 -0.8850  0.2954
 1228SOL     ow 4909   5.032   1.754   3.968  0.0096  0.2312 -0.6579
 1228SOL     hw 4910   5.018   1.846   3.943  0.7014  0.5790  0.1572
 1228SOL     hw 4911   5.123   1.737   3.945  0.0785 -0.0393 -0.1957
 1228SOL     vw 4912   5.042   1.764   3.962  0.1099  0.2413 -0.4894
 1229SOL     ow 4913   0.177   1.441   6.384 -0.5807 -0.4327 -0.0121
 1229SOL     hw 4914   0.120   1.458   6.459 -0.6903  0.0276 -0.1908
 1229SOL     hw 4915   0.257   1.489   6.404 -0.9286  0.4205 -0.5706
 1229SOL     vw 4916   0.180   1.450   6.396 -0.6410 -0.2595 -0.1092
 1230SOL     ow 4917   0.718   2.878   3.643  0.1698  0.6154  0.6490
 1230SOL     hw 4918   0.649   2.829   3.598  0.7391 -1.4827  1.9460
 1230SOL     hw 4919   0.788   2.815   3.656  2.4763  2.7353 -0.7567
 1230SOL     vw 4920   0.718   2.863   3.639  0.5492  0.6182  0.6347
 1231SOL     ow 4921   0.952   2.266   5.298  0.2116  0.3630 -0.0322
 1231SOL     hw 4922   0.978   2.357   5.286  1.0171  0.5913  2.6525
 1231SOL     hw 4923   1.034   2.217   5.296 -0.2580 -0.4315 -1.9330
 1231SOL     vw 4924   0.966   2.271   5.297  0.2559  0.2884  0.0708
 1232SOL     ow 4925   1.753   2.862   6.735 -0.0927 -0.1001  0.1163
 1232SOL     hw 4926   1.849   2.852   6.742 -0.2711 -1.5734  1.0242
 1232SOL     hw 4927   1.735   2.856   6.642  0.8066  1.5765 -0.2006
 1232SOL     vw 4928   1.764   2.860   6.724  0.0025 -0.0732  0.1943
 1233SOL     ow 4929   1.669   3.000   7.029  0.1341 -0.0405  0.6687
 1233SOL     hw 4930   1.658   2.964   7.117 -2.2412 -0.7771  0.1206
 1233SOL     hw 4931   1.634   3.089   7.034  0.8412  0.2538  0.6482
 1233SOL     vw 4932   1.663   3.007   7.041 -0.0859 -0.0989  0.5939
 1234SOL     ow 4933   6.909   3.835   6.338  0.2973 -0.1844 -0.5691
 1234SOL     hw 4934   6.957   3.916   6.354 -0.7593  0.4904 -0.6974
 1234SOL     hw 4935   6.969   3.780   6.289  1.1313  0.4156 -0.2390
 1234SOL     vw 4936   6.923   3.839   6.334  0.2682 -0.0162 -0.5426
 1235SOL     ow 4937   1.209   2.367   3.100  0.1089 -0.1742 -0.3196
 1235SOL     hw 4938   1.245   2.292   3.054  1.8290  0.2672  0.2180
 1235SOL     hw 4939   1.278   2.392   3.162  0.1410  2.5897 -1.3310
 1235SOL     vw 4940   1.223   2.361   3.102  0.3401  0.2487 -0.3821
 1236SOL     ow 4941   2.679   4.716   2.636 -0.5928 -0.1677 -0.1038
 1236SOL     hw 4942   2.714   4.670   2.560  2.2565  3.0922 -1.0223
 1236SOL     hw 4943   2.730   4.682   2.710  1.3147  1.1768 -0.7340
 1236SOL     vw 4944   2.691   4.705   2.636  0.0348  0.4399 -0.3082
 1237SOL     ow 4945   5.751   2.214   4.010  0.0495 -0.2313 -0.6385
 1237SOL     hw 4946   5.787   2.129   3.985 -2.0431 -0.5265 -3.1260
 1237SOL     hw 4947   5.822   2.276   3.992  1.0211 -1.2697 -0.4941
 1237SOL     vw 4948   5.765   2.211   4.004 -0.0982 -0.4072 -0.9475
 1238SOL     ow 4949   6.848   1.719   6.246 -0.3066  0.8910  1.4261
 1238SOL     hw 4950   6.774   1.779   6.236 -0.5810  0.5035  1.1102
 1238SOL     hw 4951   6.861   1.711   6.341  0.2600  2.0897  1.4654
 1238SOL     vw 4952   6.840   1.726   6.257 -0.2682  0.9980  1.3895
 1239SOL     ow 4953   2.515   1.530   6.109 -0.8449 -0.2331  0.1740
 1239SOL     hw 4954   2.597   1.509   6.155 -0.4464 -1.0793 -0.8903
 1239SOL     hw 4955   2.541   1.546   6.019 -1.8339 -0.3339 -0.1451
 1239SOL     vw 4956   2.529   1.529   6.103 -0.9229 -0.3580 -0.0086
 1240SOL     ow 4957   1.229   3.697   0.550 -0.0090  0.5033  0.1752
 1240SOL     hw 4958   1.235   3.701   0.646 -0.8734 -1.7634  0.3849
 1240SOL     hw 4959   1.279   3.620   0.525  0.8726  1.4988 -1.3317
 1240SOL     vw 4960   1.236   3.688   0.559 -0.0068  0.3356  0.0041
 1241SOL     ow 4961   3.485   1.784   4.103  0.0835  0.1416 -0.2665
 1241SOL     hw 4962   3.491   1.689   4.112 -1.1627  0.1820  1.4669
 1241SOL     hw 4963   3.478   1.816   4.193 -0.1179  1.8268 -0.8570
 1241SOL     vw 4964   3.484   1.775   4.116 -0.1075  0.3693 -0.1159
 1242SOL     ow 4965   3.174   5.780   1.801  0.0065 -0.2897 -0.7441
 1242SOL     hw 4966   3.192   5.812   1.712  2.9545  0.7672  0.1227
 1242SOL     hw 4967   3.219   5.695   1.805 -2.4050 -1.6712 -1.0159
 1242SOL     vw 4968   3.183   5.773   1.790  0.0774 -0.3326 -0.6656
 1243SOL     ow 4969   2.840   1.661   2.015  0.1833  0.4625  0.0844
 1243SOL     hw 4970   2.874   1.607   1.943 -0.5608 -0.6604  0.5425
 1243SOL     hw 4971   2.749   1.632   2.026  0.0259  1.2227  0.9112
 1243SOL     vw 4972   2.833   1.650   2.007  0.0644  0.4147  0.2539
 1244SOL     ow 4973   3.577   6.795   6.330 -0.2479 -0.2076  0.2004
 1244SOL     hw 4974   3.548   6.778   6.420 -0.1465 -0.1221  0.2498
 1244SOL     hw 4975   3.496   6.804   6.280 -0.3074 -0.0066  0.3301
 1244SOL     vw 4976   3.562   6.794   6.335 -0.2425 -0.1698  0.2241
 1245SOL     ow 4977   0.605   3.635   4.348  0.8554  0.1677  0.0201
 1245SOL     hw 4978   0.612   3.586   4.431  2.0122 -0.4177 -0.4057
 1245SOL     hw 4979   0.555   3.713   4.371  0.4917 -0.3563  1.1069
 1245SOL     vw 4980   0.599   3.639   4.362  0.9600  0.0213  0.1070
 1246SOL     ow 4981   1.389   1.671   1.428  0.1501  0.5765 -0.4104
 1246SOL     hw 4982   1.373   1.680   1.334 -1.2480  0.0863 -0.2485
 1246SOL     hw 4983   1.316   1.717   1.469  0.7505  0.7839  0.4357
 1246SOL     vw 4984   1.377   1.678   1.421  0.0448  0.5392 -0.2773
 1247SOL     ow 4985   2.671   6.073   6.912 -0.1863 -0.0714 -0.2172
 1247SOL     hw 4986   2.653   6.016   6.837  0.1716 -0.2210 -0.1891
 1247SOL     hw 4987   2.761   6.101   6.900  0.2358 -0.9640  0.7229
 1247SOL     vw 4988   2.680   6.069   6.901 -0.0834 -0.2086 -0.0894
 1248SOL     ow 4989   0.381   1.088   5.098 -0.5499  0.3532  0.3492
 1248SOL     hw 4990   0.329   1.027   5.151 -1.9487  0.3280 -0.9585
 1248SOL     hw 4991   0.437   1.133   5.160 -0.2476 -1.5154  1.4908
 1248SOL     vw 4992   0.381   1.086   5.113 -0.6945  0.1033  0.3273
 1249SOL     ow 4993   7.188   4.758   2.883  0.0811  0.2827  0.0337
 1249SOL     hw 4994   7.147   4.687   2.932 -1.4726  1.1954  0.1565
 1249SOL     hw 4995   7.115   4.816   2.862  0.6936  0.0435 -3.2053
 1249SOL     vw 4996   7.173   4.756   2.887 -0.0432  0.3717 -0.3774
 1250SOL     ow 4997   1.766   1.890   4.616 -1.1117 -0.0712 -0.1997
 1250SOL     hw 4998   1.833   1.946   4.576 -1.0400 -0.8103 -1.1318
 1250SOL     hw 4999   1.688   1.906   4.564 -1.5986  0.5580  0.6976
 1250SOL     vw 5000   1.765   1.900   4.604 -1.1666 -0.0857 -0.2043
 1251SOL     ow 5001   4.803   6.325   6.440 -0.2372 -0.4713 -0.6537
 1251SOL     hw 5002   4.841   6.244   6.406  0.7770 -0.0223 -0.6150
 1251SOL     hw 5003   4.848   6.395   6.393  0.5179  0.1296  0.8850
 1251SOL     vw 5004   4.814   6.323   6.430 -0.0038 -0.3328 -0.4456
 1252SOL     ow 5005   3.336   5.939   6.464  0.0290  0.3727  0.2896
 1252SOL     hw 5006   3.372   5.915   6.549 -0.4578 -1.6752 -0.0254
 1252SOL     hw 5007   3.267   6.002   6.484  0.2429  0.2812  1.3614
 1252SOL     vw 5008   3.332   5.944   6.477 -0.0070  0.0904  0.3896
 1253SOL     ow 5009   3.853   0.592   1.819 -0.0682 -0.2791 -1.0156
 1253SOL     hw 5010   3.843   0.599   1.914  3.1648 -1.3919 -0.4908
 1253SOL     hw 5011   3.809   0.510   1.796 -1.6022  0.4090 -0.6927
 1253SOL     vw 5012   3.846   0.582   1.828  0.1560 -0.3351 -0.9037
 1254SOL     ow 5013   3.023   6.057   0.949 -0.4727  0.1753 -0.1570
 1254SOL     hw 5014   3.054   6.049   0.859  0.4899  0.4265  0.1450
 1254SOL     hw 5015   3.102   6.061   1.002 -1.0267 -0.4538  0.7546
 1254SOL     vw 5016   3.038   6.056   0.944 -0.4187  0.1254  0.0032
 1255SOL     ow 5017   1.813   2.934   5.774  0.1475 -0.0208  0.3229
 1255SOL     hw 5018   1.812   2.925   5.679 -0.0400 -0.0085  0.3224
 1255SOL     hw 5019   1.724   2.962   5.796 -0.0640 -0.8718  0.5874
 1255SOL     vw 5020   1.801   2.937   5.765  0.0948 -0.1315  0.3576
 1256SOL     ow 5021   4.904   4.216   5.228  1.0545  0.4521 -0.1049
 1256SOL     hw 5022   4.837   4.149   5.229  0.8897  0.6157 -0.1033
 1256SOL     hw 5023   4.873   4.281   5.164  0.4630  1.2870  1.0026
 1256SOL     vw 5024   4.891   4.216   5.219  0.9549  0.5836  0.0415
 1257SOL     ow 5025   1.290   1.940   3.743  0.2577  0.2704  0.0273
 1257SOL     hw 5026   1.261   2.030   3.762  0.2005 -0.1585  2.1708
 1257SOL     hw 5027   1.385   1.945   3.744  0.2554  0.3302 -0.0028
 1257SOL     vw 5028   1.299   1.953   3.746  0.2499  0.2216  0.3061
 1258SOL     ow 5029   3.431   2.957   1.650 -0.5215  0.3089  0.5701
 1258SOL     hw 5030   3.478   2.948   1.567  1.3865  1.2373  1.4982
 1258SOL     hw 5031   3.477   2.899   1.710 -2.0305 -0.5359  0.9836
 1258SOL     vw 5032   3.443   2.948   1.647 -0.4690  0.3198  0.7471
 1259SOL     ow 5033   0.708   4.833   0.232  0.0201 -0.7322  0.5207
 1259SOL     hw 5034   0.711   4.922   0.266 -1.1631 -0.3901 -0.2186
 1259SOL     hw 5035   0.737   4.778   0.306 -1.2952  0.0842  1.6993
 1259SOL     vw 5036   0.712   4.837   0.247 -0.3096 -0.5794  0.5786
 1260SOL     ow 5037   4.093   0.763   1.822  0.3140  0.1714 -0.1585
 1260SOL     hw 5038   4.172   0.805   1.787  0.0078  0.6882 -0.2501
 1260SOL     hw 5039   4.126   0.701   1.887  0.7986  0.3388 -0.2368
 1260SOL     vw 5040   4.108   0.761   1.826  0.3376  0.2617 -0.1808
 1261SOL     ow 5041   2.926   0.175   1.699  0.0523  0.1565 -0.2481
 1261SOL     hw 5042   2.839   0.213   1.702 -0.3183 -0.6612 -0.3130
 1261SOL     hw 5043   2.912   0.082   1.720  0.8047 -0.1364 -1.0048
 1261SOL     vw 5044   2.913   0.168   1.702  0.1028  0.0099 -0.3565
 1262SOL     ow 5045   1.890   4.574   0.914  0.0892  0.0400 -0.9236
 1262SOL     hw 5046   1.823   4.537   0.971 -1.2056 -0.1551 -2.5031
 1262SOL     hw 5047   1.941   4.498   0.885  0.5229  0.1020 -0.3678
 1262SOL     vw 5048   1.888   4.559   0.918 -0.0244  0.0224 -1.0587
 1263SOL     ow 5049   5.560   2.796   2.223 -0.2536 -0.5318  0.3166
 1263SOL     hw 5050   5.492   2.860   2.243 -0.7360 -0.7577 -0.5576
 1263SOL     hw 5051   5.513   2.714   2.212  0.4141 -1.1895  1.9900
 1263SOL     vw 5052   5.545   2.794   2.224 -0.2289 -0.6484  0.4219
 1264SOL     ow 5053   2.950   3.325   3.739  0.8160  0.1841  0.3359
 1264SOL     hw 5054   2.903   3.258   3.689  1.2898  0.0879  0.0032
 1264SOL     hw 5055   2.944   3.296   3.830  0.6466 -0.0834  0.2400
 1264SOL     vw 5056   2.943   3.312   3.744  0.8562  0.1361  0.2793
 1265SOL     ow 5057   2.201   6.018   2.858 -0.2992 -0.4371 -0.5012
 1265SOL     hw 5058   2.243   6.091   2.812 -1.9183  0.1064 -1.1754
 1265SOL     hw 5059   2.271   5.954   2.871  1.2130  1.2673  0.2312
 1265SOL     vw 5060   2.216   6.019   2.854 -0.3134 -0.1402 -0.4935
 1266SOL     ow 5061   6.162   0.349   1.100  0.7777  0.3149 -0.6108
 1266SOL     hw 5062   6.205   0.332   1.016 -0.9948 -0.8767 -1.3384
 1266SOL     hw 5063   6.071   0.367   1.077 -0.3746 -2.5503  1.1464
 1266SOL     vw 5064   6.156   0.349   1.086  0.3920 -0.2203 -0.4750
 1267SOL     ow 5065   1.060   2.214   5.836 -0.2343 -0.1106 -0.4957
 1267SOL     hw 5066   1.131   2.260   5.790  1.4839  0.9753  2.9011
 1267SOL     hw 5067   0.995   2.283   5.853 -1.0306 -0.5849 -1.5188
 1267SOL     vw 5068   1.061   2.229   5.832 -0.1127 -0.0299 -0.1826
 1268SOL     ow 5069   2.278   1.433   4.645 -0.1916  0.2426  0.5478
 1268SOL     hw 5070   2.193   1.404   4.611  0.2793  0.3381 -0.8052
 1268SOL     hw 5071   2.267   1.527   4.658 -0.4761  0.1526  0.9737
 1268SOL     vw 5072   2.265   1.442   4.642 -0.1670  0.2433  0.4256
 1269SOL     ow 5073   3.012   0.963   0.864 -0.2874 -0.2118  0.3798
 1269SOL     hw 5074   2.988   0.911   0.940  0.4928 -0.8878  0.1850
 1269SOL     hw 5075   3.108   0.965   0.865 -0.2875  1.2794  0.4014
 1269SOL     vw 5076   3.022   0.957   0.874 -0.1844 -0.1042  0.3569
 1270SOL     ow 5077   6.602   6.378   7.100 -0.1471 -0.0226  0.4023
 1270SOL     hw 5078   6.680   6.365   7.153  0.1249  0.7249  0.2102
 1270SOL     hw 5079   6.622   6.455   7.046 -0.5618 -0.5269 -0.5045
 1270SOL     vw 5080   6.615   6.387   7.100 -0.1657  0.0095  0.2575
 1271SOL     ow 5081   0.087   5.285   6.579  0.2137  0.9410 -0.1417
 1271SOL     hw 5082   0.030   5.331   6.640  0.7553  0.5416  0.6867
 1271SOL     hw 5083   0.174   5.321   6.595  0.5181  0.1808 -0.0197
 1271SOL     vw 5084   0.091   5.296   6.589  0.3253  0.7880 -0.0167
 1272SOL     ow 5085   4.552   3.499   7.121 -0.3356  0.1826  0.3461
 1272SOL     hw 5086   4.643   3.491   7.090 -0.1466 -1.4271  1.2336
 1272SOL     hw 5087   4.502   3.443   7.062 -0.6430  0.4153  0.3822
 1272SOL     vw 5088   4.557   3.491   7.109 -0.3512  0.0011  0.4683
 1273SOL     ow 5089   6.551   4.767   5.288 -0.1968 -0.2164 -0.1044
 1273SOL     hw 5090   6.598   4.684   5.297 -0.2579 -0.7471 -3.4185
 1273SOL     hw 5091   6.612   4.824   5.242 -1.1245  0.6765 -0.2565
 1273SOL     vw 5092   6.565   4.763   5.283 -0.3273 -0.1688 -0.5617
 1274SOL     ow 5093   4.068   3.147   0.214  0.0603 -0.0331 -0.2628
 1274SOL     hw 5094   4.046   3.235   0.244  0.2932 -0.1444  0.2415
 1274SOL     hw 5095   3.983   3.106   0.195 -0.1371 -0.2050  0.9382
 1274SOL     vw 5096   4.054   3.153   0.215  0.0651 -0.0705 -0.0378
 1275SOL     ow 5097   2.913   0.388   2.899 -0.2134  0.2835  0.1317
 1275SOL     hw 5098   2.893   0.294   2.898 -0.1789  0.2745 -0.8555
 1275SOL     hw 5099   2.828   0.431   2.898 -0.2314  0.2484 -1.6370
 1275SOL     vw 5100   2.899   0.381   2.899 -0.2112  0.2777 -0.2319
 1276SOL     ow 5101   4.430   3.330   3.579  0.4910 -0.0196  0.5038
 1276SOL     hw 5102   4.453   3.272   3.506  2.3111 -0.3123  1.2568
 1276SOL     hw 5103   4.340   3.357   3.560  0.3574 -1.3347 -1.0167
 1276SOL     vw 5104   4.421   3.326   3.567  0.7136 -0.2317  0.4025
 1277SOL     ow 5105   2.317   4.233   3.197  0.1119 -0.0715  0.2010
 1277SOL     hw 5106   2.241   4.218   3.252  0.5250  0.5733  0.9762
 1277SOL     hw 5107   2.298   4.186   3.115 -0.2484 -1.5654  1.1112
 1277SOL     vw 5108   2.305   4.225   3.193  0.1187 -0.1833  0.4233
 1278SOL     ow 5109   4.257   4.154   5.137 -0.3234 -0.4766  0.6852
 1278SOL     hw 5110   4.327   4.169   5.074 -1.1563 -1.8741 -0.6355
 1278SOL     hw 5111   4.300   4.109   5.210  0.3602 -0.2899  0.4097
 1278SOL     vw 5112   4.272   4.150   5.139 -0.3428 -0.6363  0.4747
 1279SOL     ow 5113   1.421   2.431   1.493  0.0630 -0.5177  0.1734
 1279SOL     hw 5114   1.360   2.495   1.456  1.2137  1.5516  1.6385
 1279SOL     hw 5115   1.407   2.352   1.441 -2.2917  0.5242 -0.9427
 1279SOL     vw 5116   1.411   2.429   1.481 -0.0958 -0.1073  0.2194
 1280SOL     ow 5117   5.822   3.611   0.471 -0.0577 -0.1450 -0.4243
 1280SOL     hw 5118   5.753   3.674   0.488  0.6276  0.9461 -1.4919
 1280SOL     hw 5119   5.829   3.560   0.552 -1.2751  0.5110  0.1157
 1280SOL     vw 5120   5.814   3.613   0.484 -0.1278  0.0855 -0.4939
 1281SOL     ow 5121   1.298   2.750   2.374  0.0997 -0.0659 -0.8181
 1281SOL     hw 5122   1.306   2.843   2.353 -1.9910  0.3740  0.0722
 1281SOL     hw 5123   1.351   2.738   2.452  0.1810  0.4300 -0.7928
 1281SOL     vw 5124   1.306   2.761   2.381 -0.1654  0.0576 -0.6973
 1282SOL     ow 5125   7.227   1.502   6.588  0.6569  0.2627 -0.6337
 1282SOL     hw 5126   7.169   1.577   6.576  0.4337 -0.1615 -2.5045
 1282SOL     hw 5127   7.244   1.499   6.682 -2.3403  0.4397  0.0133
 1282SOL     vw 5128   7.222   1.511   6.599  0.2320  0.2302 -0.7951
 1283SOL     ow 5129   2.844   5.175   2.183 -0.1224  0.2542 -0.0373
 1283SOL     hw 5130   2.773   5.232   2.216 -0.9038  0.1988 -1.5315
 1283SOL     hw 5131   2.923   5.229   2.191 -0.6382  1.0476 -0.1450
 1283SOL     vw 5132   2.845   5.190   2.188 -0.2935  0.3517 -0.2486
 1284SOL     ow 5133   1.318   5.899   6.192 -0.0014 -0.2129 -0.5817
 1284SOL     hw 5134   1.399   5.880   6.144  0.3809 -1.6161  0.5688
 1284SOL     hw 5135   1.250   5.893   6.125  0.7144 -0.1416 -1.3446
 1284SOL     vw 5136   1.320   5.896   6.177  0.1435 -0.3886 -0.5307
 1285SOL     ow 5137   4.731   5.843   2.510 -0.4828  0.1479  0.5201
 1285SOL     hw 5138   4.802   5.779   2.515  0.4526  0.9939 -1.1970
 1285SOL     hw 5139   4.651   5.790   2.513  0.2498 -1.0098  0.2363
 1285SOL     vw 5140   4.730   5.828   2.511 -0.2625  0.1068  0.2561
 1286SOL     ow 5141   0.159   3.860   0.824 -0.0826  1.0306  0.3373
 1286SOL     hw 5142   0.253   3.874   0.831 -0.0267  0.2206  1.3789
 1286SOL     hw 5143   0.128   3.855   0.914 -0.5313 -2.2983  0.1311
 1286SOL     vw 5144   0.167   3.861   0.837 -0.1345  0.4846  0.4475
 1287SOL     ow 5145   2.310   0.088   6.806 -0.2973 -0.0734  0.2003
 1287SOL     hw 5146   2.269   0.033   6.740 -0.1785 -1.1037  0.9720
 1287SOL     hw 5147   2.263   0.069   6.887  1.2687 -0.8455  0.9772
 1287SOL     vw 5148   2.299   0.079   6.808 -0.0750 -0.3112  0.4046
 1288SOL     ow 5149   4.488   3.262   3.320 -0.2991 -0.4823  0.4506
 1288SOL     hw 5150   4.519   3.173   3.304 -1.4429 -0.9681  0.8662
 1288SOL     hw 5151   4.567   3.315   3.316  0.8596 -1.8468  2.8112
 1288SOL     vw 5152   4.503   3.257   3.318 -0.2971 -0.7263  0.8169
 1289SOL     ow 5153   5.590   3.299   3.509 -0.4102 -0.1852 -0.0973
 1289SOL     hw 5154   5.595   3.312   3.604  0.7094  1.9167 -0.3719
 1289SOL     hw 5155   5.510   3.344   3.483  1.1884  2.6459 -0.5184
 1289SOL     vw 5156   5.580   3.307   3.519 -0.0517  0.4656 -0.1891
 1290SOL     ow 5157   5.403   2.466   4.077  0.2248 -0.2316 -0.3976
 1290SOL     hw 5158   5.467   2.419   4.131  0.7105 -1.3386 -1.8676
 1290SOL     hw 5159   5.412   2.557   4.103 -0.7630 -0.8782  2.5984
 1290SOL     vw 5160   5.413   2.472   4.087  0.1588 -0.4630 -0.1962
 1291SOL     ow 5161   5.050   3.874   0.816  0.2526  0.3788 -0.0259
 1291SOL     hw 5162   4.988   3.914   0.756  1.5315  2.4437 -0.0357
 1291SOL     hw 5163   5.087   3.947   0.866  2.6970 -0.7415 -0.0467
 1291SOL     vw 5164   5.047   3.889   0.815  0.7439  0.5034 -0.0299
 1292SOL     ow 5165   4.721   4.202   6.589 -0.2670 -0.6404  0.4147
 1292SOL     hw 5166   4.639   4.195   6.638  0.1810 -0.9461  1.1424
 1292SOL     hw 5167   4.784   4.152   6.641  0.9123  1.3803  1.0492
 1292SOL     vw 5168   4.719   4.194   6.603 -0.0522 -0.4141  0.5941
 1293SOL     ow 5169   3.311   5.945   3.848 -0.0531 -0.1940  0.5875
 1293SOL     hw 5170   3.252   5.900   3.788 -1.5744  2.4755 -0.0562
 1293SOL     hw 5171   3.372   5.877   3.877 -1.4253 -2.3350 -1.2459
 1293SOL     vw 5172   3.311   5.930   3.844 -0.4350 -0.1242  0.2607
 1294SOL     ow 5173   5.611   2.607   0.564 -0.0765 -0.1683  0.2917
 1294SOL     hw 5174   5.670   2.537   0.593  1.6645  0.0508 -2.3472
 1294SOL     hw 5175   5.627   2.678   0.627  1.9668 -0.4096  0.1370
 1294SOL     vw 5176   5.621   2.607   0.576  0.4225 -0.1714 -0.0769
 1295SOL     ow 5177   5.554   4.524   6.765  0.5027 -0.1151  0.5128
 1295SOL     hw 5178   5.556   4.460   6.836  0.3591  0.0296  0.6468
 1295SOL     hw 5179   5.543   4.609   6.809  3.3327  0.3290  0.5410
 1295SOL     vw 5180   5.553   4.527   6.780  0.8571 -0.0372  0.5343
 1296SOL     ow 5181   0.606   1.075   4.130  0.6519 -0.1661  0.0002
 1296SOL     hw 5182   0.523   1.117   4.153  0.6405 -0.5161  0.6227
 1296SOL     hw 5183   0.584   1.020   4.054  0.1520 -0.7690  0.5659
 1296SOL     vw 5184   0.592   1.073   4.123  0.5845 -0.2918  0.1571
 1297SOL     ow 5185   5.844   0.490   3.376  0.4482 -0.2045 -0.0496
 1297SOL     hw 5186   5.882   0.413   3.418  0.9140 -0.2683 -0.5860
 1297SOL     hw 5187   5.903   0.562   3.399 -1.9653  0.8536  3.7287
 1297SOL     vw 5188   5.857   0.489   3.385  0.1910 -0.0733  0.3780
 1298SOL     ow 5189   5.948   3.003   3.720 -0.2265 -0.3168 -0.9710
 1298SOL     hw 5190   5.903   3.027   3.640  0.0739  1.0982 -0.7307
 1298SOL     hw 5191   6.041   3.012   3.700 -0.1626  1.8282  0.0176
 1298SOL     vw 5192   5.955   3.007   3.707 -0.1786  0.1528 -0.8090
 1299SOL     ow 5193   4.798   4.894   3.385 -0.3621 -0.2180  0.1186
 1299SOL     hw 5194   4.820   4.831   3.454 -0.7848 -0.3466  0.1407
 1299SOL     hw 5195   4.784   4.840   3.307 -1.4734 -0.2425  0.3085
 1299SOL     vw 5196   4.799   4.878   3.384 -0.5643 -0.2382  0.1466
 1300SOL     ow 5197   1.181   0.804   2.782  0.0430  0.4516 -1.1404
 1300SOL     hw 5198   1.141   0.878   2.829  1.7594 -1.0434  3.2309
 1300SOL     hw 5199   1.222   0.844   2.706 -0.5956  3.7335  0.0637
 1300SOL     vw 5200   1.181   0.819   2.778  0.1851  0.6874 -0.4048
 1301SOL     ow 5201   6.483   5.154   0.483 -0.2366  0.0785  0.5888
 1301SOL     hw 5202   6.519   5.118   0.402  0.8259  1.0978  0.5888
 1301SOL     hw 5203   6.414   5.213   0.455 -0.8064 -0.6093  0.5097
 1301SOL     vw 5204   6.479   5.157   0.469 -0.1714  0.1223  0.5784
 1302SOL     ow 5205   3.585   7.162   1.158  0.1554 -0.2314 -0.4520
 1302SOL     hw 5206   3.566   7.190   1.248  0.8754  2.5033 -1.0526
 1302SOL     hw 5207   3.524   7.090   1.142 -2.6448  1.6312  1.0257
 1302SOL     vw 5208   3.574   7.156   1.168 -0.1191  0.3753 -0.3363
 1303SOL     ow 5209   1.780   5.605   6.461  0.0437  0.0890 -0.2258
 1303SOL     hw 5210   1.816   5.629   6.547  2.5780 -0.6099 -1.0228
 1303SOL     hw 5211   1.817   5.669   6.401 -0.0757 -0.6442 -1.0957
 1303SOL     vw 5212   1.789   5.617   6.465  0.3623 -0.0997 -0.4456
 1304SOL     ow 5213   1.985   5.829   2.719 -0.2973  0.0433  0.5486
 1304SOL     hw 5214   1.958   5.743   2.750 -0.8190  0.0110  0.0249
 1304SOL     hw 5215   1.995   5.818   2.624  2.9905 -0.3479  0.8207
 1304SOL     vw 5216   1.983   5.816   2.710  0.0677 -0.0124  0.5153
 1305SOL     ow 5217   5.247   4.964   2.654  0.4874  0.3268  0.3674
 1305SOL     hw 5218   5.268   4.901   2.584 -1.1983 -0.6421  0.6878
 1305SOL     hw 5219   5.253   5.049   2.611 -0.7806 -0.2523 -1.0824
 1305SOL     vw 5220   5.251   4.967   2.639  0.0978  0.1223  0.2184
 1306SOL     ow 5221   3.367   4.983   4.042 -0.7380 -0.7827 -0.1085
 1306SOL     hw 5222   3.290   5.037   4.023 -0.7130 -0.8678 -0.4595
 1306SOL     hw 5223   3.361   4.910   3.980 -0.0589 -0.4761 -0.5365
 1306SOL     vw 5224   3.356   4.980   4.032 -0.6453 -0.7536 -0.2112
 1307SOL     ow 5225   1.028   6.358   6.256 -0.0725 -0.3305  0.0048
 1307SOL     hw 5226   0.986   6.436   6.221 -0.3884 -0.3814  0.2703
 1307SOL     hw 5227   1.049   6.381   6.346  2.7418  0.6178 -0.7668
 1307SOL     vw 5228   1.025   6.371   6.263  0.2571 -0.2122 -0.0620
 1308SOL     ow 5229   2.121   4.365   2.668  0.0176 -0.1160 -0.0517
 1308SOL     hw 5230   2.197   4.351   2.613 -0.7331 -1.1041 -0.8806
 1308SOL     hw 5231   2.091   4.277   2.691 -0.3877  0.2665  0.9424
 1308SOL     vw 5232   2.127   4.352   2.664 -0.1349 -0.1960 -0.0299
 1309SOL     ow 5233   5.167   5.631   4.929  0.2666  0.3186 -0.2891
 1309SOL     hw 5234   5.123   5.548   4.944 -1.2896  0.8787 -1.4740
 1309SOL     hw 5235   5.246   5.627   4.982 -0.9444 -0.9530  1.4925
 1309SOL     vw 5236   5.172   5.620   4.938 -0.0982  0.2251 -0.2103
 1310SOL     ow 5237   5.289   5.303   3.492 -0.1862  0.0438  0.0374
 1310SOL     hw 5238   5.227   5.235   3.517 -1.4372  0.9125 -0.5829
 1310SOL     hw 5239   5.264   5.379   3.546  1.3792 -0.0452  0.9464
 1310SOL     vw 5240   5.277   5.304   3.503 -0.1450  0.1466  0.0756
 1311SOL     ow 5241   5.778   4.687   6.643 -0.2538 -0.4230  0.7705
 1311SOL     hw 5242   5.752   4.773   6.675 -0.2326 -0.5715  1.1889
 1311SOL     hw 5243   5.873   4.690   6.638 -0.1213 -0.9363  2.3104
 1311SOL     vw 5244   5.787   4.698   6.646 -0.2334 -0.5102  1.0290
 1312SOL     ow 5245   5.587   2.293   3.813 -0.1671 -0.3323  0.1114
 1312SOL     hw 5246   5.627   2.265   3.895 -0.8360 -0.4584  0.3995
 1312SOL     hw 5247   5.608   2.223   3.751 -0.6173 -0.7889  0.4650
 1312SOL     vw 5248   5.595   2.280   3.816 -0.3145 -0.4092  0.1961
 1313SOL     ow 5249   6.425   5.049   7.023  0.1225  0.0604  0.0261
 1313SOL     hw 5250   6.348   5.054   7.080  0.4404  0.5964  0.4126
 1313SOL     hw 5251   6.489   5.108   7.063  0.0007  1.2340 -1.4373
 1313SOL     vw 5252   6.423   5.057   7.036  0.1483  0.2863 -0.1159
 1314SOL     ow 5253   5.102   5.612   4.680  0.2294  0.4684 -0.5266
 1314SOL     hw 5254   5.109   5.632   4.773  1.4404 -2.6729  0.1689
 1314SOL     hw 5255   5.188   5.576   4.656 -0.9615 -1.5915 -2.0715
 1314SOL     vw 5256   5.114   5.610   4.689  0.2317 -0.2179 -0.6385
 1315SOL     ow 5257   3.144   2.835   4.955  0.4035 -0.4406 -0.4785
 1315SOL     hw 5258   3.134   2.755   5.007 -3.6454  0.5523  0.6430
 1315SOL     hw 5259   3.058   2.848   4.915  0.6279  3.6839 -0.0652
 1315SOL     vw 5260   3.131   2.826   4.956 -0.1012  0.2346 -0.2761
 1316SOL     ow 5261   1.418   3.648   2.984  0.2631 -0.4490 -0.3277
 1316SOL     hw 5262   1.472   3.571   2.967  0.9655  0.1240 -0.7576
 1316SOL     hw 5263   1.453   3.715   2.925 -0.0636  0.3213  0.3374
 1316SOL     vw 5264   1.430   3.646   2.974  0.3127 -0.2718 -0.2967
 1317SOL     ow 5265   5.147   4.817   6.155  0.7274 -0.3400 -0.4487
 1317SOL     hw 5266   5.123   4.737   6.107  0.5484 -0.0765 -0.8049
 1317SOL     hw 5267   5.071   4.873   6.147  0.9495 -0.0334 -0.4123
 1317SOL     vw 5268   5.134   4.814   6.147  0.7331 -0.2651 -0.4911
 1318SOL     ow 5269   4.040   0.612   1.553 -0.0016 -0.2282  0.2309
 1318SOL     hw 5270   4.078   0.527   1.577 -0.3699 -1.5143 -3.1430
 1318SOL     hw 5271   4.109   0.657   1.505 -0.7156  0.0621 -0.5621
 1318SOL     vw 5272   4.054   0.607   1.550 -0.1442 -0.3596 -0.3189
 1319SOL     ow 5273   1.318   4.043   3.624 -0.6076 -0.6431 -0.4000
 1319SOL     hw 5274   1.241   4.021   3.676 -1.6982 -0.3065 -1.7752
 1319SOL     hw 5275   1.291   4.120   3.574  0.9215 -0.0255 -0.3339
 1319SOL     vw 5276   1.304   4.050   3.624 -0.5497 -0.5171 -0.5727
 1320SOL     ow 5277   3.277   2.390   1.196 -0.4505  0.2541 -0.2145
 1320SOL     hw 5278   3.283   2.458   1.262 -1.1182  1.0641 -0.9639
 1320SOL     hw 5279   3.368   2.370   1.174 -0.0320 -2.0601  2.8964
 1320SOL     vw 5280   3.290   2.396   1.202 -0.4835  0.0557  0.0970
 1321SOL     ow 5281   7.083   5.939   5.039 -0.8715  0.4112 -0.2094
 1321SOL     hw 5282   7.075   5.957   4.945  0.6153  0.2094 -0.3995
 1321SOL     hw 5283   7.172   5.905   5.049 -1.7957 -1.9037  0.9045
 1321SOL     vw 5284   7.094   5.936   5.028 -0.7973  0.0792 -0.0875
 1322SOL     ow 5285   0.163   2.628   5.754  0.2275  0.1015  0.1653
 1322SOL     hw 5286   0.178   2.681   5.832  0.3609  0.6035 -0.1954
 1322SOL     hw 5287   0.247   2.586   5.737  0.7113  1.3468 -0.6950
 1322SOL     vw 5288   0.176   2.629   5.762  0.3090  0.3320  0.0043
 1323SOL     ow 5289   1.932   1.739   5.103 -0.4504 -0.3788  0.6741
 1323SOL     hw 5290   1.984   1.674   5.055  0.6409  1.2231 -0.3955
 1323SOL     hw 5291   1.963   1.733   5.193 -0.8114 -1.7457  0.7308
 1323SOL     vw 5292   1.943   1.729   5.108 -0.3541 -0.3479  0.5403
 1324SOL     ow 5293   5.969   1.022   3.662 -0.0064  0.0014 -0.1397
 1324SOL     hw 5294   5.957   1.042   3.569 -1.7971  0.0393  0.0535
 1324SOL     hw 5295   6.028   1.090   3.694 -2.6824  2.6476 -0.3902
 1324SOL     vw 5296   5.975   1.034   3.654 -0.5958  0.3555 -0.1473
 1325SOL     ow 5297   5.811   6.943   3.470  0.4205 -0.1688 -0.1444
 1325SOL     hw 5298   5.741   6.883   3.445 -0.5380  1.7623 -2.4951
 1325SOL     hw 5299   5.886   6.916   3.416  0.5691 -0.3314  0.1355
 1325SOL     vw 5300   5.812   6.931   3.459  0.3135  0.0644 -0.4176
 1326SOL     ow 5301   2.211   6.687   1.626 -1.3007 -0.3394 -0.6843
 1326SOL     hw 5302   2.196   6.769   1.579 -0.2449 -0.0485 -0.5390
 1326SOL     hw 5303   2.197   6.618   1.561 -0.3082  0.0422 -1.3188
 1326SOL     vw 5304   2.207   6.688   1.611 -1.0303 -0.2508 -0.7488
 1327SOL     ow 5305   3.843   0.199   3.215  0.5251  0.2384 -0.1670
 1327SOL     hw 5306   3.842   0.290   3.188  1.9302 -0.0924 -1.4269
 1327SOL     hw 5307   3.886   0.200   3.301  0.9900  0.6978 -0.4054
 1327SOL     vw 5308   3.848   0.211   3.223  0.7719  0.2554 -0.3645
 1328SOL     ow 5309   3.391   2.918   5.099 -0.2072 -0.8130 -0.0717
 1328SOL     hw 5310   3.373   2.831   5.135  0.3879 -0.4834  1.0658
 1328SOL     hw 5311   3.362   2.913   5.008 -1.3447 -1.8130  0.3286
 1328SOL     vw 5312   3.385   2.906   5.092 -0.2788 -0.9013  0.1314
 1329SOL     ow 5313   0.335   3.093   1.162  0.6131 -0.0746  0.3989
 1329SOL     hw 5314   0.290   3.087   1.078 -0.5768 -0.4937  1.0542
 1329SOL     hw 5315   0.301   3.172   1.203  0.4770 -0.3839  0.8936
 1329SOL     vw 5316   0.325   3.102   1.156  0.4381 -0.1705  0.5507
 1330SOL     ow 5317   3.698   6.641   6.082  0.3383 -0.3863 -0.2241
 1330SOL     hw 5318   3.759   6.596   6.023  0.0213 -0.2126 -0.6945
 1330SOL     hw 5319   3.661   6.712   6.028 -0.0659 -0.3155  0.1408
 1330SOL     vw 5320   3.701   6.645   6.067  0.2431 -0.3541 -0.2379
 1331SOL     ow 5321   6.756   5.169   3.835  0.7584 -0.2659  0.6831
 1331SOL     hw 5322   6.741   5.208   3.749 -0.3974  0.3623  1.1488
 1331SOL     hw 5323   6.678   5.191   3.885  0.8136 -1.7635  1.4920
 1331SOL     vw 5324   6.744   5.177   3.830  0.6130 -0.3805  0.8513
 1332SOL     ow 5325   2.159   5.485   2.108  0.3766 -0.5514 -0.7919
 1332SOL     hw 5326   2.216   5.561   2.112  2.3756 -2.0410  0.6677
 1332SOL     hw 5327   2.146   5.470   2.014 -2.2884  3.0210 -1.2097
 1332SOL     vw 5328   2.165   5.493   2.096  0.2887 -0.2766 -0.6543
 1333SOL     ow 5329   1.809   6.773   2.002  0.6507 -0.5543  0.4203
 1333SOL     hw 5330   1.800   6.840   2.070  0.4269  0.3307 -0.4612
 1333SOL     hw 5331   1.843   6.696   2.048 -0.0680 -0.1681  1.6445
 1333SOL     vw 5332   1.812   6.771   2.017  0.5264 -0.3870  0.4654
 1334SOL     ow 5333   2.204   1.394   2.601 -0.0473  0.0040 -0.1803
 1334SOL     hw 5334   2.221   1.358   2.514 -1.1319  1.1526 -0.8857
 1334SOL     hw 5335   2.119   1.358   2.625  2.0222 -3.8943  2.3686
 1334SOL     vw 5336   2.195   1.384   2.593  0.0826 -0.3588  0.0628
 1335SOL     ow 5337   3.533   4.706   4.016  0.9779 -0.4119 -0.6412
 1335SOL     hw 5338   3.532   4.747   3.929  1.2291 -0.5313 -0.7017
 1335SOL     hw 5339   3.518   4.613   3.998 -1.8067 -0.0914 -0.3444
 1335SOL     vw 5340   3.531   4.699   4.002  0.6435 -0.3853 -0.6099
 1336SOL     ow 5341   4.352   6.059   3.588  0.1960 -0.2584  0.0681
 1336SOL     hw 5342   4.415   6.029   3.522  1.4836  1.5643  0.4021
 1336SOL     hw 5343   4.351   6.154   3.580 -1.8580 -0.1816  0.7178
 1336SOL     vw 5344   4.361   6.067   3.578  0.0951 -0.0076  0.1979
 1337SOL     ow 5345   1.760   3.695   4.413  0.4965  0.5629  0.2810
 1337SOL     hw 5346   1.797   3.748   4.484  1.3450 -0.8046  0.8923
 1337SOL     hw 5347   1.710   3.758   4.360  0.4715  1.7504  1.6468
 1337SOL     vw 5348   1.758   3.710   4.415  0.6052  0.5392  0.5417
 1338SOL     ow 5349   5.780   7.219   3.650  0.3094 -0.3468 -0.7760
 1338SOL     hw 5350   5.737   7.167   3.582 -2.5654  0.9701 -0.1608
 1338SOL     hw 5351   5.719   7.291   3.665  2.4176  1.1882  0.9241
 1338SOL     vw 5352   5.766   7.222   3.643  0.2081  0.0296 -0.4706
 1339SOL     ow 5353   6.597   2.445   4.469  0.6445 -0.2328 -0.3360
 1339SOL     hw 5354   6.608   2.538   4.451  1.7701 -0.5915 -1.7478
 1339SOL     hw 5355   6.503   2.430   4.463 -0.4303  1.7936  5.5261
 1339SOL     vw 5356   6.586   2.455   4.466  0.6514 -0.0128  0.2511
 1340SOL     ow 5357   1.178   0.591   0.550  0.4864  0.8485 -0.2423
 1340SOL     hw 5358   1.238   0.665   0.536 -0.3409  1.9123  1.4498
 1340SOL     hw 5359   1.096   0.632   0.576  0.5317 -0.6526  2.6801
 1340SOL     vw 5360   1.175   0.607   0.552  0.3832  0.7908  0.3665
 1341SOL     ow 5361   4.729   1.241   0.893 -0.3457 -0.3214  0.2048
 1341SOL     hw 5362   4.807   1.295   0.878  0.6310 -0.7577  3.1922
 1341SOL     hw 5363   4.671   1.297   0.944 -0.2505 -1.3311  1.4466
 1341SOL     vw 5364   4.732   1.256   0.897 -0.2046 -0.5122  0.7628
 1342SOL     ow 5365   4.672   4.464   2.217  0.2355 -0.1139 -0.2430
 1342SOL     hw 5366   4.597   4.471   2.157  1.7156  2.2684 -1.9781
 1342SOL     hw 5367   4.634   4.475   2.304 -1.5859 -0.3383 -0.9587
 1342SOL     vw 5368   4.657   4.466   2.220  0.1905  0.1709 -0.5665
 1343SOL     ow 5369   6.049   1.103   6.158 -0.6277 -0.1424 -0.2096
 1343SOL     hw 5370   6.050   1.165   6.231 -2.0683 -0.1592 -0.1616
 1343SOL     hw 5371   6.108   1.141   6.094 -0.8822  0.8818  0.1449
 1343SOL     vw 5372   6.057   1.116   6.160 -0.8514 -0.0095 -0.1564
 1344SOL     ow 5373   0.529   2.473   0.817  0.2725  0.1214 -0.1204
 1344SOL     hw 5374   0.490   2.439   0.898  2.8086  0.8100  1.5276
 1344SOL     hw 5375   0.478   2.551   0.797  0.3422  0.6651  1.5934
 1344SOL     vw 5376   0.517   2.479   0.825  0.6163  0.2838  0.3231
 1345SOL     ow 5377   0.333   5.604   3.501  0.5510  0.6031 -0.6894
 1345SOL     hw 5378   0.355   5.582   3.410 -0.2233  1.7605 -1.1833
 1345SOL     hw 5379   0.418   5.613   3.544  0.9120 -0.7761 -1.0835
 1345SOL     vw 5380   0.347   5.603   3.495  0.4965  0.5739 -0.8066
 1346SOL     ow 5381   5.501   0.348   3.148  0.0188  0.5466 -0.0022
 1346SOL     hw 5382   5.491   0.405   3.072 -1.8436  1.4286  0.8612
 1346SOL     hw 5383   5.538   0.405   3.215 -2.0490  0.8641  0.9317
 1346SOL     vw 5384   5.505   0.363   3.147 -0.4995  0.7049  0.2351
 1347SOL     ow 5385   3.427   6.780   0.826  0.3842 -1.1520  0.0336
 1347SOL     hw 5386   3.496   6.713   0.823  0.1604 -1.4191  0.7502
 1347SOL     hw 5387   3.437   6.820   0.912 -0.1640 -0.9858  0.0218
 1347SOL     vw 5388   3.438   6.776   0.837  0.2825 -1.1652  0.1266
 1348SOL     ow 5389   6.322   3.362   2.756  0.0256 -0.2725 -0.5411
 1348SOL     hw 5390   6.401   3.307   2.754  1.4440  1.5045  1.7456
 1348SOL     hw 5391   6.316   3.392   2.847 -2.1261  1.3228 -1.1324
 1348SOL     vw 5392   6.332   3.358   2.768 -0.0710  0.1724 -0.3173
 1349SOL     ow 5393   6.412   0.843   4.758  0.4463  0.1901  0.1460
 1349SOL     hw 5394   6.480   0.844   4.691 -1.4641  0.2392 -1.8887
 1349SOL     hw 5395   6.336   0.884   4.716 -1.4366 -1.5514  1.6650
 1349SOL     vw 5396   6.411   0.849   4.744 -0.0541 -0.0332  0.0777
 1350SOL     ow 5397   6.165   4.039   1.373  0.0637 -0.4823 -0.4861
 1350SOL     hw 5398   6.202   4.078   1.294  0.7975 -0.2727 -0.0495
 1350SOL     hw 5399   6.241   4.021   1.428 -0.5498  0.9577  0.9051
 1350SOL     vw 5400   6.180   4.042   1.369  0.0796 -0.2646 -0.2449
 1351SOL     ow 5401   3.043   7.083   4.088  0.4022 -0.0426 -0.1353
 1351SOL     hw 5402   3.082   7.007   4.131 -0.7155 -0.4157  0.2596
 1351SOL     hw 5403   3.028   7.055   3.998  1.5850  0.3099 -0.4514
 1351SOL     vw 5404   3.046   7.069   4.082  0.4108 -0.0453 -0.1249
 1352SOL     ow 5405   4.532   5.173   6.352  0.3035 -0.2094 -0.4637
 1352SOL     hw 5406   4.543   5.245   6.414  0.3268 -0.6572  0.0670
 1352SOL     hw 5407   4.618   5.165   6.309  0.3624 -0.0599 -0.3735
 1352SOL     vw 5408   4.545   5.181   6.354  0.3142 -0.2487 -0.3817
 1353SOL     ow 5409   7.030   3.571   6.602 -0.2105 -0.2365  0.2279
 1353SOL     hw 5410   7.097   3.550   6.668  0.4296  1.7592  0.2918
 1353SOL     hw 5411   6.989   3.651   6.635 -1.5841 -0.5626 -0.6107
 1353SOL     vw 5412   7.034   3.579   6.615 -0.3071 -0.0161  0.1254
 1354SOL     ow 5413   6.646   0.914   0.211 -0.2603 -0.1857 -0.5340
 1354SOL     hw 5414   6.609   0.829   0.184  0.1655 -0.8833  0.9618
 1354SOL     hw 5415   6.571   0.973   0.211 -1.0573 -1.1461  0.6619
 1354SOL     vw 5416   6.631   0.911   0.207 -0.3092 -0.4044 -0.1789
 1355SOL     ow 5417   5.482   2.585   4.718  0.2548  0.4739  0.4294
 1355SOL     hw 5418   5.464   2.494   4.692 -1.8082  0.9714 -0.0726
 1355SOL     hw 5419   5.488   2.632   4.635  0.8261  0.8951  0.7045
 1355SOL     vw 5420   5.480   2.579   4.704  0.0577  0.5952  0.3994
 1356SOL     ow 5421   0.514   2.680   3.781 -0.3141 -0.1356  0.2710
 1356SOL     hw 5422   0.527   2.686   3.686 -2.1717  3.0684  0.1000
 1356SOL     hw 5423   0.603   2.683   3.817  0.4860 -2.2460 -1.2879
 1356SOL     vw 5424   0.528   2.681   3.773 -0.4537  0.0087  0.0428
 1357SOL     ow 5425   1.510   0.084   4.413  0.5575  0.3432  0.0512
 1357SOL     hw 5426   1.427   0.126   4.435  0.3722  0.0279 -0.0493
 1357SOL     hw 5427   1.576   0.136   4.460  0.4437  1.4173 -0.9167
 1357SOL     vw 5428   1.508   0.097   4.422  0.5180  0.4433 -0.0896
 1358SOL     ow 5429   3.065   0.941   0.239 -1.0900  0.2349  0.0056
 1358SOL     hw 5430   3.082   0.897   0.156 -0.6361 -1.0563  0.7641
 1358SOL     hw 5431   3.061   1.034   0.215 -0.6739 -0.0754 -1.4093
 1358SOL     vw 5432   3.067   0.948   0.225 -0.9753  0.0236 -0.0810
 1359SOL     ow 5433   7.091   3.638   6.225  0.0433  0.2310  0.8211
 1359SOL     hw 5434   7.171   3.675   6.262  0.4142  0.2474  0.0251
 1359SOL     hw 5435   7.118   3.603   6.140 -0.3349 -1.6258  1.4074
 1359SOL     vw 5436   7.105   3.638   6.219  0.0422 -0.0118  0.7932
 1360SOL     ow 5437   6.802   6.508   5.353  0.7774 -0.9800 -0.2212
 1360SOL     hw 5438   6.775   6.450   5.424  0.6211  1.0960  1.5297
 1360SOL     hw 5439   6.883   6.548   5.384  0.5631  0.1732 -1.0814
 1360SOL     vw 5440   6.809   6.506   5.366  0.7284 -0.5538 -0.1037
 1361SOL     ow 5441   6.129   5.519   1.555  0.6879 -0.2912 -0.0084
 1361SOL     hw 5442   6.037   5.532   1.534  0.8147  2.2279  0.6724
 1361SOL     hw 5443   6.159   5.453   1.493 -0.9590  0.7262 -2.0192
 1361SOL     vw 5444   6.121   5.512   1.544  0.4876  0.1752 -0.1839
 1362SOL     ow 5445   2.183   1.069   2.306  0.2422 -0.5915 -0.2278
 1362SOL     hw 5446   2.177   1.032   2.394 -0.8122  0.5610  0.2150
 1362SOL     hw 5447   2.229   1.152   2.317 -1.8122  0.6578 -0.3396
 1362SOL     vw 5448   2.188   1.075   2.319 -0.1680 -0.2746 -0.1841
 1363SOL     ow 5449   0.329   2.139   1.907  0.4446  0.5602 -0.4474
 1363SOL     hw 5450   0.354   2.218   1.954 -0.3136  0.0183  0.9577
 1363SOL     hw 5451   0.351   2.156   1.816  1.0516  2.0560 -0.0457
 1363SOL     vw 5452   0.335   2.152   1.901  0.4247  0.6863 -0.2090
 1364SOL     ow 5453   6.182   4.694   0.259 -0.0086  0.2875  0.5785
 1364SOL     hw 5454   6.168   4.668   0.167 -0.8521 -1.2266  1.0909
 1364SOL     hw 5455   6.115   4.645   0.307 -0.3162  1.9322  1.8970
 1364SOL     vw 5456   6.171   4.684   0.253 -0.1607  0.3049  0.8201
 1365SOL     ow 5457   6.382   3.386   0.126 -0.6222 -0.5906  0.5187
 1365SOL     hw 5458   6.353   3.295   0.130  0.8495 -1.1508 -0.7005
 1365SOL     hw 5459   6.385   3.414   0.218 -3.0978 -1.0561  0.8153
 1365SOL     vw 5460   6.379   3.377   0.139 -0.7546 -0.7259  0.3970
 1366SOL     ow 5461   7.039   2.498   1.492 -0.3306  0.4361  0.3370
 1366SOL     hw 5462   6.964   2.445   1.468  0.3630 -1.2457  1.6732
 1366SOL     hw 5463   7.002   2.573   1.538 -1.1941 -0.7369  1.6381
 1366SOL     vw 5464   7.025   2.501   1.495 -0.3531  0.0595  0.6850
 1367SOL     ow 5465   4.990   0.468   6.918 -0.3141  0.2008  0.2654
 1367SOL     hw 5466   4.911   0.522   6.925 -1.0078 -0.0586 -3.4742
 1367SOL     hw 5467   5.061   0.532   6.905 -0.2073  0.3388  1.3874
 1367SOL     vw 5468   4.989   0.484   6.917 -0.3915  0.1848 -0.0799
 1368SOL     ow 5469   3.297   3.278   6.154 -0.1863 -0.1490  0.0438
 1368SOL     hw 5470   3.290   3.350   6.217 -0.4276 -0.4500  0.3609
 1368SOL     hw 5471   3.246   3.207   6.193  1.1133 -0.9340  0.3672
 1368SOL     vw 5472   3.289   3.278   6.168 -0.0467 -0.2923  0.1283
 1369SOL     ow 5473   4.688   4.268   2.645 -0.3247 -1.4303 -0.6524
 1369SOL     hw 5474   4.639   4.323   2.584 -0.4243  0.1512  0.8053
 1369SOL     hw 5475   4.744   4.328   2.693 -1.7126 -2.2878  2.2522
 1369SOL     vw 5476   4.689   4.283   2.643 -0.5212 -1.3349 -0.0768
 1370SOL     ow 5477   5.072   0.775   6.079 -0.0530  0.4844 -0.1795
 1370SOL     hw 5478   5.009   0.845   6.095 -1.8154 -0.5427 -2.1280
 1370SOL     hw 5479   5.039   0.701   6.130 -0.1080  0.1028 -0.7680
 1370SOL     vw 5480   5.060   0.774   6.088 -0.2928  0.2986 -0.5140
 1371SOL     ow 5481   5.807   4.988   5.300  0.2043 -0.0839 -0.6214
 1371SOL     hw 5482   5.813   4.906   5.251  2.0733  0.7138 -1.8265
 1371SOL     hw 5483   5.718   5.020   5.283  0.1387 -0.8545 -1.8057
 1371SOL     vw 5484   5.796   4.981   5.292  0.4425 -0.0803 -0.9365
 1372SOL     ow 5485   5.628   5.542   1.434 -0.5741 -0.2100 -0.0766
 1372SOL     hw 5486   5.539   5.509   1.442  0.0423 -1.9292  0.0350
 1372SOL     hw 5487   5.660   5.505   1.352  0.2533 -0.1432  0.2050
 1372SOL     vw 5488   5.621   5.533   1.424 -0.3836 -0.4277 -0.0247
 1373SOL     ow 5489   4.801   6.889   3.851  0.2289  0.5452  0.5890
 1373SOL     hw 5490   4.740   6.816   3.844  1.2399 -0.1641 -2.3901
 1373SOL     hw 5491   4.771   6.952   3.785  3.0337 -0.2195 -1.6539
 1373SOL     vw 5492   4.789   6.888   3.841  0.7324  0.3507 -0.1000
 1374SOL     ow 5493   1.870   3.502   0.719  0.6059  0.0616  0.3330
 1374SOL     hw 5494   1.808   3.561   0.676  0.7961 -0.7739 -1.1802
 1374SOL     hw 5495   1.895   3.548   0.799  1.5610  2.5780 -1.2475
 1374SOL     vw 5496   1.865   3.516   0.724  0.7570  0.2835 -0.0751
 1375SOL     ow 5497   4.059   4.718   1.770  0.3267  0.6736  0.4250
 1375SOL     hw 5498   4.134   4.676   1.812  0.4255  0.3497 -0.0641
 1375SOL     hw 5499   3.985   4.695   1.827  0.1890 -1.1634 -0.4313
 1375SOL     vw 5500   4.059   4.709   1.783  0.3216  0.3884  0.2475
 1376SOL     ow 5501   1.958   1.319   5.764  0.5290  0.7529  0.2588
 1376SOL     hw 5502   1.960   1.398   5.710 -1.5172  0.9370  0.3510
 1376SOL     hw 5503   1.909   1.256   5.711  0.3995  0.2243  0.9989
 1376SOL     vw 5504   1.952   1.321   5.750  0.2420  0.7075  0.3686
 1377SOL     ow 5505   4.426   4.383   5.208  0.0400 -0.0749 -0.3137
 1377SOL     hw 5506   4.445   4.475   5.194  0.2377 -0.0595  0.0688
 1377SOL     hw 5507   4.475   4.359   5.286 -0.2284 -0.4366 -0.2532
 1377SOL     vw 5508   4.435   4.392   5.216  0.0305 -0.1206 -0.2553
 1378SOL     ow 5509   3.258   3.025   4.813 -0.1338 -0.3685 -0.2576
 1378SOL     hw 5510   3.245   2.995   4.723 -1.5201 -1.9553  0.4272
 1378SOL     hw 5511   3.217   2.958   4.868 -0.0918  0.9766  1.5349
 1378SOL     vw 5512   3.251   3.012   4.809 -0.3111 -0.4005  0.0691
 1379SOL     ow 5513   2.562   4.361   4.820 -0.6628  0.0230  0.7176
 1379SOL     hw 5514   2.497   4.296   4.844 -1.0942 -0.4317 -1.4637
 1379SOL     hw 5515   2.512   4.431   4.778  0.1415  0.0928 -0.1713
 1379SOL     vw 5516   2.547   4.362   4.818 -0.6136 -0.0277  0.3126
 1380SOL     ow 5517   2.076   3.645   2.286  0.3733  0.4152 -0.0577
 1380SOL     hw 5518   1.990   3.680   2.265  0.3788 -0.2677 -1.3245
 1380SOL     hw 5519   2.059   3.555   2.313  0.8484 -0.4603 -2.4849
 1380SOL     vw 5520   2.062   3.638   2.287  0.4367  0.2096 -0.5450
 1381SOL     ow 5521   4.626   0.864   2.548 -0.0958  0.1069  0.3868
 1381SOL     hw 5522   4.709   0.896   2.583 -0.1888  0.0103  0.6953
 1381SOL     hw 5523   4.634   0.769   2.548  0.7221  0.1318 -1.8528
 1381SOL     vw 5524   4.638   0.856   2.553 -0.0002  0.0974  0.1320
 1382SOL     ow 5525   3.914   0.635   5.481 -0.1947  0.0072 -0.3889
 1382SOL     hw 5526   3.855   0.588   5.423  0.4974 -0.3391 -0.8272
 1382SOL     hw 5527   3.991   0.578   5.488 -0.4439 -0.1735  1.2346
 1382SOL     vw 5528   3.916   0.621   5.475 -0.1364 -0.0623 -0.2327
 1383SOL     ow 5529   6.041   5.704   0.203 -0.1872  0.0494 -0.5260
 1383SOL     hw 5530   6.023   5.789   0.162  0.9518  0.5214 -0.0921
 1383SOL     hw 5531   6.102   5.661   0.144  0.3228  0.1207 -0.0594
 1383SOL     vw 5532   6.046   5.710   0.190  0.0300  0.1211 -0.4072
 1384SOL     ow 5533   2.026   6.062   6.480  0.9754 -0.2808 -0.3446
 1384SOL     hw 5534   1.934   6.036   6.484  1.3981 -1.7201  1.5399
 1384SOL     hw 5535   2.063   6.012   6.407  0.8011 -1.7381  0.5254
 1384SOL     vw 5536   2.019   6.052   6.471  1.0083 -0.6628  0.0188
 1385SOL     ow 5537   3.966   6.200   1.446 -0.5644 -0.2227 -0.5133
 1385SOL     hw 5538   3.956   6.239   1.360 -0.4988  0.1263 -0.3659
 1385SOL     hw 5539   4.042   6.142   1.437 -0.8674 -0.5780 -0.8212
 1385SOL     vw 5540   3.975   6.197   1.434 -0.5957 -0.2236 -0.5345
 1386SOL     ow 5541   2.064   6.450   1.178  0.5820 -0.5127  0.5406
 1386SOL     hw 5542   1.988   6.508   1.189 -0.3457 -1.1769 -1.8031
 1386SOL     hw 5543   2.095   6.435   1.268 -1.1830  0.9131  1.4618
 1386SOL     vw 5544   2.058   6.455   1.191  0.2267 -0.4125  0.3529
 1387SOL     ow 5545   5.709   3.089   2.535 -0.0257  0.0554 -0.2500
 1387SOL     hw 5546   5.743   3.166   2.489 -0.3192  0.4834  0.2294
 1387SOL     hw 5547   5.614   3.095   2.524 -0.1507  0.5363  0.9660
 1387SOL     vw 5548   5.701   3.100   2.528 -0.0808  0.1756 -0.0262
 1388SOL     ow 5549   5.645   4.716   4.396  0.2802  0.2386 -0.6549
 1388SOL     hw 5550   5.633   4.646   4.332  0.5009 -0.0867 -0.3402
 1388SOL     hw 5551   5.560   4.761   4.398 -0.7674 -1.6396  1.0622
 1388SOL     vw 5552   5.632   4.713   4.388  0.1712 -0.0522 -0.3867
 1389SOL     ow 5553   6.228   6.125   4.803  0.3721  0.6992  0.1832
 1389SOL     hw 5554   6.141   6.107   4.768  0.0694 -0.4781  1.4491
 1389SOL     hw 5555   6.219   6.209   4.848 -0.6532 -0.2493  1.8765
 1389SOL     vw 5556   6.215   6.134   4.804  0.1967  0.4187  0.5736
 1390SOL     ow 5557   1.089   0.146   3.901 -0.1001 -0.1932  0.2589
 1390SOL     hw 5558   1.064   0.088   3.972 -0.6740  0.3993  0.5428
 1390SOL     hw 5559   1.037   0.116   3.826 -3.3400  2.2969  1.3275
 1390SOL     vw 5560   1.079   0.134   3.900 -0.6033  0.2135  0.4374
 1391SOL     ow 5561   6.283   6.310   2.066  0.2963  0.3999  0.2145
 1391SOL     hw 5562   6.190   6.327   2.081  0.8530  2.3055  1.9836
 1391SOL     hw 5563   6.311   6.382   2.010  0.9470  0.4744  0.6338
 1391SOL     vw 5564   6.274   6.322   2.060  0.4554  0.6611  0.5032
 1392SOL     ow 5565   2.486   4.919   3.556 -0.4062  0.0397 -0.0684
 1392SOL     hw 5566   2.537   4.852   3.603  0.1792  1.1928  1.0236
 1392SOL     hw 5567   2.456   4.978   3.625  0.6401  1.9155 -1.1297
 1392SOL     vw 5568   2.489   4.918   3.572 -0.1910  0.4396 -0.0643
 1393SOL     ow 5569   6.009   6.263   1.556 -1.0495 -0.2194 -0.2349
 1393SOL     hw 5570   5.950   6.299   1.490  1.4864  2.1086 -1.4029
 1393SOL     hw 5571   5.987   6.310   1.637 -0.5601  0.9509 -0.7650
 1393SOL     vw 5572   5.999   6.274   1.558 -0.6502  0.2422 -0.4589
 1394SOL     ow 5573   4.351   2.062   2.596  0.6429  0.1672 -0.1012
 1394SOL     hw 5574   4.412   1.989   2.583 -0.2543 -0.1610 -3.0183
 1394SOL     hw 5575   4.264   2.021   2.595  0.1158  1.2080 -2.0123
 1394SOL     vw 5576   4.348   2.047   2.594  0.4554  0.2611 -0.7384
 1395SOL     ow 5577   3.157   7.205   2.136 -0.2311 -0.5948  0.5454
 1395SOL     hw 5578   3.171   7.277   2.197  0.1739 -0.4096  0.2444
 1395SOL     hw 5579   3.198   7.235   2.055  1.0984 -1.6889  0.7835
 1395SOL     vw 5580   3.164   7.219   2.133 -0.0021 -0.7148  0.5369
 1396SOL     ow 5581   1.829   4.562   5.789 -0.2802 -0.3619  0.2747
 1396SOL     hw 5582   1.795   4.477   5.762 -1.0382 -0.0885  0.3150
 1396SOL     hw 5583   1.835   4.557   5.884 -0.9108 -0.1796  0.3334
 1396SOL     vw 5584   1.825   4.550   5.798 -0.4634 -0.3016  0.2880
 1397SOL     ow 5585   0.497   5.972   4.478  0.5308 -0.2778 -0.2223
 1397SOL     hw 5586   0.510   5.893   4.425  1.9454 -0.2145 -0.0065
 1397SOL     hw 5587   0.403   5.991   4.470  0.3266 -1.4850 -0.9657
 1397SOL     vw 5588   0.486   5.964   4.470  0.6905 -0.4287 -0.2921
 1398SOL     ow 5589   6.317   1.104   4.996 -0.2369  0.0889  0.3908
 1398SOL     hw 5590   6.304   1.169   5.065  0.6585  2.4136 -1.4995
 1398SOL     hw 5591   6.404   1.067   5.014  0.0225  0.7344  0.4664
 1398SOL     vw 5592   6.327   1.107   5.008 -0.0846  0.4808  0.1516
 1399SOL     ow 5593   3.754   5.628   2.294 -0.7719  0.3968 -0.1949
 1399SOL     hw 5594   3.770   5.648   2.387  0.6641  1.3575 -0.6060
 1399SOL     hw 5595   3.827   5.571   2.269 -1.2725 -0.0375 -0.6853
 1399SOL     vw 5596   3.766   5.623   2.303 -0.6485  0.4661 -0.3138
 1400SOL     ow 5597   1.096   4.967   7.083 -1.0894  0.3424  0.2922
 1400SOL     hw 5598   1.118   5.060   7.085 -0.3922  0.2057 -0.2744
 1400SOL     hw 5599   1.138   4.935   7.003 -0.2025 -0.7167  1.1469
 1400SOL     vw 5600   1.105   4.975   7.073 -0.8804  0.1848  0.3302
 1401SOL     ow 5601   3.362   6.326   3.139 -0.1806  0.3456  0.1178
 1401SOL     hw 5602   3.449   6.286   3.145 -1.2778 -2.2270  0.4596
 1401SOL     hw 5603   3.349   6.342   3.045 -0.1343 -1.3415 -0.2115
 1401SOL     vw 5604   3.371   6.323   3.127 -0.3191 -0.2165  0.1196
 1402SOL     ow 5605   5.798   1.885   4.303  0.2167  0.5516  0.8038
 1402SOL     hw 5606   5.831   1.805   4.343  0.9687 -0.2338 -1.2764
 1402SOL     hw 5607   5.876   1.937   4.285  0.0463  0.3035 -0.7972
 1402SOL     vw 5608   5.813   1.882   4.306  0.2937  0.4153  0.3183
 1403SOL     ow 5609   2.790   5.121   0.923  0.3245 -0.1530 -0.1439
 1403SOL     hw 5610   2.854   5.051   0.934  1.3057  0.4722 -1.5869
 1403SOL     hw 5611   2.707   5.075   0.911  0.4792 -0.9778  1.5226
 1403SOL     vw 5612   2.788   5.105   0.923  0.4743 -0.1791 -0.1144
 1404SOL     ow 5613   5.135   5.158   0.226 -0.1362  0.1323 -0.2136
 1404SOL     hw 5614   5.064   5.195   0.278 -1.3524 -0.2719 -1.5321
 1404SOL     hw 5615   5.152   5.072   0.264 -0.4629  0.1635 -0.0024
 1404SOL     vw 5616   5.128   5.152   0.238 -0.3397  0.0832 -0.3597
 1405SOL     ow 5617   0.835   4.953   5.851  0.3184 -0.0205 -0.6833
 1405SOL     hw 5618   0.925   4.982   5.864 -0.1853  1.6136 -0.6355
 1405SOL     hw 5619   0.795   4.957   5.938  0.5904 -2.3791 -0.3634
 1405SOL     vw 5620   0.842   4.957   5.864  0.2879 -0.1159 -0.6349
 1406SOL     ow 5621   3.217   2.162   5.860 -0.4254 -0.6795 -0.2302
 1406SOL     hw 5622   3.215   2.081   5.809 -1.2645 -1.2189  0.6327
 1406SOL     hw 5623   3.305   2.166   5.896 -0.1038 -0.7455 -0.9816
 1406SOL     vw 5624   3.228   2.152   5.858 -0.4938 -0.7595 -0.2158
 1407SOL     ow 5625   5.828   3.513   3.769 -0.0612 -0.2017  0.0742
 1407SOL     hw 5626   5.915   3.474   3.764 -0.0668 -0.1033 -1.0128
 1407SOL     hw 5627   5.768   3.439   3.782  0.2454 -0.1822  1.9356
 1407SOL     vw 5628   5.831   3.498   3.770 -0.0217 -0.1861  0.1764
 1408SOL     ow 5629   5.243   0.731   5.033 -0.0140  0.1425  0.3640
 1408SOL     hw 5630   5.247   0.672   4.958 -2.4047 -2.9529  2.4128
 1408SOL     hw 5631   5.305   0.695   5.096 -0.5258  0.6084  1.1536
 1408SOL     vw 5632   5.252   0.718   5.031 -0.3970 -0.2044  0.7384
 1409SOL     ow 5633   1.986   2.411   0.824  0.2152  0.6767 -0.2535
 1409SOL     hw 5634   1.992   2.506   0.823  0.4024  0.6874  0.9052
 1409SOL     hw 5635   1.981   2.388   0.917 -0.0848 -0.4274 -0.5310
 1409SOL     vw 5636   1.987   2.420   0.836  0.2003  0.5325 -0.1372
 1410SOL     ow 5637   0.697   2.543   0.564  0.4299  0.3913 -0.7426
 1410SOL     hw 5638   0.738   2.629   0.577 -0.2952  0.8253 -1.2897
 1410SOL     hw 5639   0.608   2.563   0.537 -0.3651 -0.5394  1.0108
 1410SOL     vw 5640   0.691   2.557   0.562  0.2293  0.3259 -0.5834
 1411SOL     ow 5641   7.170   2.340   2.173  0.2572  0.0829 -0.3498
 1411SOL     hw 5642   7.089   2.378   2.207  0.5657  1.4226 -1.0289
 1411SOL     hw 5643   7.195   2.274   2.238 -1.7273 -0.8718 -0.4667
 1411SOL     vw 5644   7.162   2.336   2.186  0.0362  0.1338 -0.4549
 1412SOL     ow 5645   5.430   5.213   0.256 -0.5799  0.5150 -0.4400
 1412SOL     hw 5646   5.373   5.268   0.310  1.8000  1.6030  1.1715
 1412SOL     hw 5647   5.510   5.264   0.246  0.3191 -1.1071 -2.2096
 1412SOL     vw 5648   5.433   5.227   0.262 -0.1473  0.4444 -0.4609
 1413SOL     ow 5649   1.565   0.167   1.379  0.2659  0.9737 -0.7516
 1413SOL     hw 5650   1.633   0.229   1.352 -1.0683  2.0615 -1.7913
 1413SOL     hw 5651   1.483   0.211   1.357 -0.7583 -0.7518 -0.5522
 1413SOL     vw 5652   1.563   0.181   1.373 -0.0452  0.8896 -0.8624
 1414SOL     ow 5653   6.674   6.735   4.900 -1.1430 -0.0180 -0.2001
 1414SOL     hw 5654   6.652   6.730   4.807  1.8938  0.0083 -1.0299
 1414SOL     hw 5655   6.666   6.828   4.922 -3.0404 -0.1843 -0.0525
 1414SOL     vw 5656   6.670   6.746   4.891 -0.9925 -0.0365 -0.2899
 1415SOL     ow 5657   2.506   5.427   7.197 -0.0640 -0.0578 -0.0591
 1415SOL     hw 5658   2.476   5.518   7.196  0.3314  0.0926 -2.1735
 1415SOL     hw 5659   2.516   5.407   7.290 -3.4067  0.9471  0.6655
 1415SOL     vw 5660   2.503   5.437   7.210 -0.4528  0.0947 -0.2427
 1416SOL     ow 5661   5.171   0.043   3.403 -0.6519  0.7148  0.3017
 1416SOL     hw 5662   5.081   0.070   3.387 -0.6908  0.0054 -0.7778
 1416SOL     hw 5663   5.221   0.079   3.330 -0.3478 -0.2634  0.0061
 1416SOL     vw 5664   5.166   0.051   3.391 -0.6166  0.4921  0.1203
 1417SOL     ow 5665   4.775   3.112   5.956  0.4766  0.6137  0.5441
 1417SOL     hw 5666   4.714   3.038   5.953  1.2425 -0.3037  3.8137
 1417SOL     hw 5667   4.845   3.088   5.896  0.0452 -0.7082  0.5493
 1417SOL     vw 5668   4.776   3.099   5.948  0.5207  0.3183  0.9761
 1418SOL     ow 5669   0.828   0.869   6.164  0.0388 -0.2929 -0.5567
 1418SOL     hw 5670   0.763   0.922   6.210  0.5644  0.0519 -0.1972
 1418SOL     hw 5671   0.838   0.791   6.220  2.1193  1.0042  1.0241
 1418SOL     vw 5672   0.821   0.866   6.177  0.3826 -0.0762 -0.3006
 1419SOL     ow 5673   0.168   5.385   2.345 -0.1684  0.0790 -0.9065
 1419SOL     hw 5674   0.083   5.415   2.313 -0.4880 -2.0049 -2.1657
 1419SOL     hw 5675   0.156   5.374   2.440 -0.8758  1.0529 -0.8707
 1419SOL     vw 5676   0.155   5.388   2.354 -0.3039 -0.0675 -1.0680
 1420SOL     ow 5677   6.927   6.734   5.093  0.7321  0.1609  0.0614
 1420SOL     hw 5678   7.001   6.686   5.055  0.8911  0.5864 -0.1705
 1420SOL     hw 5679   6.968   6.802   5.147  0.5495 -1.3903  2.3196
 1420SOL     vw 5680   6.942   6.737   5.095  0.7288  0.0124  0.3290
 1421SOL     ow 5681   3.648   1.064   0.557 -0.3391 -0.1380 -0.3173
 1421SOL     hw 5682   3.601   1.045   0.639 -0.2312  1.1556  0.0593
 1421SOL     hw 5683   3.595   1.131   0.514 -0.1220 -0.4413 -1.0670
 1421SOL     vw 5684   3.635   1.070   0.562 -0.2962 -0.0075 -0.3665
 1422SOL     ow 5685   3.158   0.489   5.917 -0.1254  0.1521 -0.0104
 1422SOL     hw 5686   3.157   0.486   6.013 -0.9085 -0.2292 -0.0197
 1422SOL     hw 5687   3.080   0.440   5.891 -0.6302  1.3169 -0.8119
 1422SOL     vw 5688   3.147   0.482   5.926 -0.2953  0.2555 -0.1173
 1423SOL     ow 5689   0.118   1.398   3.742 -0.4317  0.0007 -1.0426
 1423SOL     hw 5690   0.151   1.485   3.764 -1.5384 -0.2161  1.9894
 1423SOL     hw 5691   0.024   1.404   3.756 -0.6677 -1.4134 -1.8644
 1423SOL     vw 5692   0.110   1.410   3.747 -0.6088 -0.2145 -0.7510
 1424SOL     ow 5693   5.501   0.659   2.044  0.2575 -0.2489 -0.1334
 1424SOL     hw 5694   5.553   0.685   2.120  0.5959 -1.4925  0.0859
 1424SOL     hw 5695   5.431   0.724   2.040  1.2650  0.8793  0.1503
 1424SOL     vw 5696   5.498   0.671   2.054  0.4351 -0.2641 -0.0671
 1425SOL     ow 5697   0.069   4.546   5.594  0.3925  0.0545  0.3432
 1425SOL     hw 5698   0.109   4.586   5.517 -1.3575  1.1717 -0.0562
 1425SOL     hw 5699   0.014   4.475   5.559  0.5967 -0.2856  0.6998
 1425SOL     vw 5700   0.067   4.542   5.580  0.1885  0.1571  0.3374
 1426SOL     ow 5701   2.701   3.727   3.982 -0.3370  0.0233  0.2879
 1426SOL     hw 5702   2.622   3.690   3.942  0.3127 -0.0280 -1.0159
 1426SOL     hw 5703   2.692   3.708   4.075 -0.9616 -1.7111 -0.0759
 1426SOL     vw 5704   2.690   3.719   3.989 -0.3337 -0.2123  0.0678
 1427SOL     ow 5705   6.828   6.483   4.978 -0.2672  0.2544 -0.0002
 1427SOL     hw 5706   6.884   6.409   5.000 -1.0862  0.2207  2.1443
 1427SOL     hw 5707   6.822   6.481   4.882  0.4086 -1.9149 -0.0337
 1427SOL     vw 5708   6.834   6.473   4.968 -0.2859 -0.0362  0.2782
 1428SOL     ow 5709   3.316   3.732   6.872 -0.5695 -0.5079 -0.1728
 1428SOL     hw 5710   3.357   3.768   6.793 -1.8090  0.4820 -0.4135
 1428SOL     hw 5711   3.261   3.804   6.905  1.6466 -0.0278  2.9469
 1428SOL     vw 5712   3.314   3.747   6.866 -0.4405 -0.3139  0.2074
 1429SOL     ow 5713   2.340   0.139   5.742 -0.1046 -0.1758 -0.3130
 1429SOL     hw 5714   2.275   0.082   5.701 -0.3039  0.3121 -0.6724
 1429SOL     hw 5715   2.289   0.210   5.780  0.0969 -0.4876  0.5740
 1429SOL     vw 5716   2.325   0.141   5.742 -0.1043 -0.1526 -0.2432
 1430SOL     ow 5717   6.917   2.818   1.285  0.2396 -0.2146 -1.1208
 1430SOL     hw 5718   6.866   2.899   1.292 -0.3107 -0.6173 -0.3205
 1430SOL     hw 5719   6.920   2.784   1.374 -0.8330 -1.8516 -1.6598
 1430SOL     vw 5720   6.911   2.824   1.297  0.0255 -0.4836 -1.0863
 1431SOL     ow 5721   4.824   1.602   3.452 -0.2284  0.0862 -0.3202
 1431SOL     hw 5722   4.877   1.615   3.373 -0.2665 -0.5221 -0.4455
 1431SOL     hw 5723   4.734   1.598   3.420 -0.3651  1.1265 -0.1058
 1431SOL     vw 5724   4.819   1.604   3.437 -0.2513  0.1432 -0.3086
 1432SOL     ow 5725   4.398   4.200   7.018 -0.1561 -0.5278  0.2635
 1432SOL     hw 5726   4.323   4.141   7.007 -0.6398  0.2385 -0.7060
 1432SOL     hw 5727   4.360   4.284   7.041  0.4932 -0.4220  1.0021
 1432SOL     vw 5728   4.383   4.203   7.019 -0.1342 -0.4127  0.2329
 1433SOL     ow 5729   6.780   4.771   4.054 -0.0988 -0.3086 -0.3130
 1433SOL     hw 5730   6.841   4.746   4.123  0.2905  0.3506 -0.4076
 1433SOL     hw 5731   6.703   4.803   4.101  0.7967  1.7162 -0.1275
 1433SOL     vw 5732   6.778   4.772   4.069  0.0703  0.0455 -0.3006
 1434SOL     ow 5733   1.727   1.214   2.058 -0.6117 -0.0215 -0.3292
 1434SOL     hw 5734   1.662   1.282   2.071 -0.8694 -0.0775 -1.2446
 1434SOL     hw 5735   1.677   1.132   2.056 -0.2872 -0.2652  0.9258
 1434SOL     vw 5736   1.712   1.212   2.059 -0.6028 -0.0610 -0.2844
 1435SOL     ow 5737   4.869   4.036   2.000  0.0708  0.3749  0.9341
 1435SOL     hw 5738   4.844   3.945   1.983 -0.3275  0.4334  1.2038
 1435SOL     hw 5739   4.819   4.086   1.936 -0.4562  0.4884  1.4391
 1435SOL     vw 5740   4.859   4.030   1.989 -0.0513  0.3977  1.0363
 1436SOL     ow 5741   1.273   6.646   3.640 -0.5430 -0.1114  0.1125
 1436SOL     hw 5742   1.206   6.715   3.635  1.1972  1.7242  0.7261
 1436SOL     hw 5743   1.322   6.667   3.719  1.7037 -0.4727 -1.1271
 1436SOL     vw 5744   1.270   6.658   3.650 -0.0170  0.0832  0.0299
 1437SOL     ow 5745   1.750   4.796   0.788  0.3765 -0.2000  0.0738
 1437SOL     hw 5746   1.742   4.850   0.866  2.0701  0.0544  0.0969
 1437SOL     hw 5747   1.703   4.845   0.720  0.6000  0.5578  0.4522
 1437SOL     vw 5748   1.743   4.809   0.789  0.6295 -0.0665  0.1267
 1438SOL     ow 5749   2.168   4.288   6.377 -0.3975 -0.4501 -0.4922
 1438SOL     hw 5750   2.217   4.266   6.298  1.7601 -0.3013  0.7056
 1438SOL     hw 5751   2.164   4.384   6.376  0.0617 -0.4257 -0.1917
 1438SOL     vw 5752   2.174   4.298   6.366 -0.0522 -0.4275 -0.2944
 1439SOL     ow 5753   4.228   7.164   5.180 -0.1370 -0.0673 -0.0682
 1439SOL     hw 5754   4.192   7.229   5.120 -2.2713 -0.7456  0.3740
 1439SOL     hw 5755   4.175   7.174   5.260  0.4789 -1.3380  0.5283
 1439SOL     vw 5756   4.216   7.174   5.183 -0.3374 -0.3247  0.0689
 1440SOL     ow 5757   0.809   4.631   5.848  0.0860  0.3902  0.0607
 1440SOL     hw 5758   0.879   4.600   5.905  1.1195  1.8198 -0.3697
 1440SOL     hw 5759   0.787   4.556   5.792  1.2902 -0.0719  0.1881
 1440SOL     vw 5760   0.815   4.617   5.848  0.3813  0.5178  0.0207
 1441SOL     ow 5761   4.892   6.595   1.629  0.0781  0.0554  0.1615
 1441SOL     hw 5762   4.806   6.577   1.592 -0.0315  1.2118 -0.2034
 1441SOL     hw 5763   4.916   6.515   1.676 -0.6988 -0.6856 -0.6666
 1441SOL     vw 5764   4.884   6.582   1.630 -0.0389  0.1101  0.0042
 1442SOL     ow 5765   1.847   0.816   3.253  0.3231 -0.3043 -0.4450
 1442SOL     hw 5766   1.911   0.822   3.324 -0.1719 -0.1340 -0.0072
 1442SOL     hw 5767   1.894   0.847   3.175  0.2301  1.6752  0.2275
 1442SOL     vw 5768   1.862   0.821   3.252  0.2456 -0.0207 -0.2986
 1443SOL     ow 5769   1.693   1.349   0.728  0.1848 -0.1003  0.1370
 1443SOL     hw 5770   1.765   1.391   0.775 -0.1057  0.2701  0.2467
 1443SOL     hw 5771   1.614   1.389   0.763 -0.0081  1.0552 -1.4616
 1443SOL     vw 5772   1.692   1.360   0.739  0.1210  0.1011 -0.0595
 1444SOL     ow 5773   0.203   5.486   3.027 -0.1549  0.5076 -0.3873
 1444SOL     hw 5774   0.207   5.398   3.063  0.0587 -0.2935 -2.2928
 1444SOL     hw 5775   0.265   5.536   3.080  0.8249 -0.8360 -0.2238
 1444SOL     vw 5776   0.212   5.481   3.039  0.0025  0.2248 -0.6171
 1445SOL     ow 5777   4.863   3.995   0.637 -0.2084 -0.1265  0.2247
 1445SOL     hw 5778   4.895   3.996   0.547 -1.0171 -1.2999 -0.1037
 1445SOL     hw 5779   4.771   3.969   0.629 -0.7977  1.4550  1.2675
 1445SOL     vw 5780   4.855   3.992   0.624 -0.3929 -0.0727  0.3189
 1446SOL     ow 5781   3.740   6.326   1.659  0.2108 -0.5439  0.3974
 1446SOL     hw 5782   3.655   6.292   1.631  0.2434 -1.1412  1.0164
 1446SOL     hw 5783   3.724   6.358   1.748  0.9902 -2.0789  1.1239
 1446SOL     vw 5784   3.726   6.326   1.667  0.3178 -0.8254  0.5749
 1447SOL     ow 5785   6.077   7.186   3.743 -0.1789  0.2216  0.5664
 1447SOL     hw 5786   6.132   7.226   3.810  1.3686 -1.8630  0.6536
 1447SOL     hw 5787   6.114   7.217   3.660  0.6125 -0.4586  0.6459
 1447SOL     vw 5788   6.089   7.195   3.741  0.1297 -0.1433  0.5884
 1448SOL     ow 5789   3.016   0.663   6.943  0.4836 -0.3959 -0.2751
 1448SOL     hw 5790   2.997   0.756   6.931 -1.9154 -0.7766  0.0655
 1448SOL     hw 5791   3.000   0.624   6.857  1.3449 -0.5450 -0.3813
 1448SOL     vw 5792   3.012   0.670   6.930  0.2807 -0.4658 -0.2441
 1449SOL     ow 5793   6.197   0.187   5.924  0.4791  0.3381 -0.1369
 1449SOL     hw 5794   6.220   0.118   5.862  1.8116 -0.6286  1.3713
 1449SOL     hw 5795   6.162   0.141   6.000  0.4492  1.3802  0.5019
 1449SOL     vw 5796   6.196   0.172   5.925  0.6506  0.3481  0.1462
 1450SOL     ow 5797   2.296   3.121   4.504 -0.1152 -0.2283  0.3376
 1450SOL     hw 5798   2.341   3.187   4.558  2.6793 -0.4034 -1.5922
 1450SOL     hw 5799   2.305   3.153   4.414  0.0817 -2.5681 -0.5199
 1450SOL     vw 5800   2.303   3.134   4.500  0.2794 -0.5602 -0.0303
 1451SOL     ow 5801   3.653   0.766   4.683  0.1615  0.1189  0.1659
 1451SOL     hw 5802   3.686   0.827   4.617  1.3202 -1.4504 -0.7598
 1451SOL     hw 5803   3.559   0.760   4.664  0.4938 -0.4362 -1.5138
 1451SOL     vw 5804   3.645   0.773   4.672  0.3582 -0.1614 -0.1779
 1452SOL     ow 5805   6.808   6.325   0.021 -0.2155  0.1740 -0.0589
 1452SOL     hw 5806   6.895   6.286   0.012  0.4879  1.8959 -1.2027
 1452SOL     hw 5807   6.824   6.414   0.052 -1.7768 -0.3236  2.4988
 1452SOL     vw 5808   6.821   6.331   0.024 -0.3285  0.3355  0.1276
 1453SOL     ow 5809   6.119   6.515   1.559  0.4767 -0.0040 -0.3696
 1453SOL     hw 5810   6.053   6.569   1.602  0.1783  1.1628 -2.1697
 1453SOL     hw 5811   6.087   6.425   1.569 -0.2893  0.3615  0.5721
 1453SOL     vw 5812   6.106   6.510   1.566  0.3364  0.1984 -0.4829
 1454SOL     ow 5813   5.258   0.457   2.584 -0.1929  0.1028  0.3369
 1454SOL     hw 5814   5.198   0.384   2.598 -0.8046  0.2727 -1.2373
 1454SOL     hw 5815   5.345   0.417   2.591 -0.5166 -0.9325 -1.0845
 1454SOL     vw 5816   5.262   0.442   2.587 -0.3161 -0.0114 -0.0584
 1455SOL     ow 5817   1.737   6.049   6.811 -0.1783 -0.4530 -0.7470
 1455SOL     hw 5818   1.760   5.998   6.889 -0.3476  0.4559 -0.0892
 1455SOL     hw 5819   1.673   5.995   6.764 -1.2975 -0.3188  0.5772
 1455SOL     vw 5820   1.732   6.035   6.815 -0.3483 -0.3152 -0.4857
 1456SOL     ow 5821   3.063   6.432   3.231 -0.5158 -0.0847 -0.3134
 1456SOL     hw 5822   3.031   6.484   3.305  0.9589 -1.8145  1.6655
 1456SOL     hw 5823   3.018   6.348   3.239  0.5003 -0.6856 -0.7045
 1456SOL     vw 5824   3.053   6.428   3.242 -0.1870 -0.3920 -0.1040
 1457SOL     ow 5825   3.553   3.249   6.768  0.2060  0.2050 -0.0338
 1457SOL     hw 5826   3.614   3.269   6.696 -0.9111 -0.2123 -1.1454
 1457SOL     hw 5827   3.485   3.195   6.727 -1.6409  1.7375  0.8284
 1457SOL     vw 5828   3.552   3.244   6.753 -0.1851  0.3521 -0.0665
 1458SOL     ow 5829   1.270   5.571   3.727 -0.3484 -0.2431  0.0818
 1458SOL     hw 5830   1.297   5.536   3.812  1.8918 -2.7702 -1.4901
 1458SOL     hw 5831   1.175   5.568   3.729 -0.3373 -2.7552  1.6150
 1458SOL     vw 5832   1.261   5.566   3.739 -0.0513 -0.9079  0.0767
 1459SOL     ow 5833   0.328   6.764   1.211  0.0228  0.5491  0.3169
 1459SOL     hw 5834   0.280   6.689   1.248  2.1339 -0.9705  0.1275
 1459SOL     hw 5835   0.323   6.751   1.116 -1.1338  1.7030  0.1875
 1459SOL     vw 5836   0.321   6.752   1.204  0.1488  0.5007  0.2748
 1460SOL     ow 5837   1.178   6.775   2.876  0.5702 -0.5244 -0.9665
 1460SOL     hw 5838   1.238   6.700   2.871  1.4946  0.1096  0.1555
 1460SOL     hw 5839   1.101   6.740   2.921  1.1324 -0.7465 -0.1386
 1460SOL     vw 5840   1.176   6.761   2.881  0.7664 -0.4699 -0.7092
 1461SOL     ow 5841   1.996   1.416   6.682  0.2941  0.2627  0.3636
 1461SOL     hw 5842   2.055   1.459   6.745  1.1662 -0.2375 -0.0927
 1461SOL     hw 5843   2.051   1.349   6.640 -0.2997  0.5308 -0.8684
 1461SOL     vw 5844   2.011   1.413   6.685  0.3308  0.2320  0.1407
 1462SOL     ow 5845   1.838   4.225   1.099 -0.4992  0.3701  0.2655
 1462SOL     hw 5846   1.817   4.133   1.082 -1.4585  0.8614 -1.5454
 1462SOL     hw 5847   1.829   4.236   1.193 -2.1396 -0.9814  0.2965
 1462SOL     vw 5848   1.834   4.214   1.109 -0.8422  0.2565  0.0306
 1463SOL     ow 5849   6.492   1.691   2.553  0.0175  0.1044  0.0795
 1463SOL     hw 5850   6.543   1.768   2.525  0.8126 -0.7144 -0.8018
 1463SOL     hw 5851   6.524   1.671   2.641 -1.1750  1.5843  0.9020
 1463SOL     vw 5852   6.503   1.699   2.561 -0.0348  0.1917  0.0719
 1464SOL     ow 5853   4.775   0.139   4.837  0.4814  0.0814 -0.2601
 1464SOL     hw 5854   4.856   0.091   4.820 -0.6381 -1.6058 -1.0232
 1464SOL     hw 5855   4.748   0.110   4.924  1.0995  1.2954  0.3677
 1464SOL     vw 5856   4.782   0.129   4.846  0.4156  0.0190 -0.2778
 1465SOL     ow 5857   3.730   0.434   4.338  0.3199  0.1350  0.7482
 1465SOL     hw 5858   3.705   0.433   4.430  2.3459  0.1920  1.3477
 1465SOL     hw 5859   3.818   0.396   4.336 -0.6158 -2.2163 -1.4967
 1465SOL     vw 5860   3.738   0.429   4.350  0.4638 -0.1677  0.5312
 1466SOL     ow 5861   5.154   0.650   3.247 -0.0870 -0.4889  0.1821
 1466SOL     hw 5862   5.212   0.703   3.302  0.6997 -1.6052  0.4711
 1466SOL     hw 5863   5.154   0.564   3.288 -0.9503 -0.8506 -0.5438
 1466SOL     vw 5864   5.162   0.646   3.259 -0.0968 -0.6838  0.1246
 1467SOL     ow 5865   3.566   3.127   4.287 -0.0276 -0.2748 -0.2745
 1467SOL     hw 5866   3.655   3.122   4.253  0.0403 -1.1789  0.0035
 1467SOL     hw 5867   3.543   3.220   4.283  0.1281 -0.2947 -2.3654
 1467SOL     vw 5868   3.575   3.139   4.282  0.0019 -0.3968 -0.5138
 1468SOL     ow 5869   0.973   3.038   6.150  0.5295 -0.0872  0.1360
 1468SOL     hw 5870   0.924   2.971   6.103  0.3267  0.0028  0.2160
 1468SOL     hw 5871   0.960   3.017   6.242  0.2390  0.2213  0.1670
 1468SOL     vw 5872   0.965   3.026   6.156  0.4644 -0.0347  0.1504
 1469SOL     ow 5873   0.649   5.771   6.802  0.0928 -0.0960  0.1948
 1469SOL     hw 5874   0.707   5.725   6.864 -0.6072 -1.4953 -0.1429
 1469SOL     hw 5875   0.708   5.803   6.733  0.3270 -3.7347 -1.5241
 1469SOL     vw 5876   0.664   5.769   6.801  0.0313 -0.7608 -0.0765
 1470SOL     ow 5877   0.609   1.939   4.789  0.7774 -0.1377  0.0751
 1470SOL     hw 5878   0.588   1.948   4.696  2.6319  0.8962 -0.2840
 1470SOL     hw 5879   0.623   2.028   4.819  4.2896 -0.6271  0.2861
 1470SOL     vw 5880   0.608   1.952   4.781  1.4855 -0.0659  0.0553
 1471SOL     ow 5881   6.635   7.225   0.045 -0.4363 -0.0470 -0.1853
 1471SOL     hw 5882   6.558   7.278   0.029 -0.3791  0.0833 -0.0286
 1471SOL     hw 5883   6.685   7.274   0.111  1.2611  1.4010 -2.4013
 1471SOL     vw 5884   6.632   7.238   0.052 -0.2048  0.1612 -0.4570
 1472SOL     ow 5885   4.769   0.050   5.098  0.4700  0.2482 -0.4277
 1472SOL     hw 5886   4.807   0.129   5.136  0.9201 -0.7362  1.2797
 1472SOL     hw 5887   4.845  -0.006   5.080  0.2789  0.6375 -2.8174
 1472SOL     vw 5888   4.784   0.053   5.100  0.5040  0.1696 -0.5176
 1473SOL     ow 5889   1.756   2.949   1.369  0.0756  0.3567 -0.3149
 1473SOL     hw 5890   1.817   2.889   1.328 -2.1716 -1.5815 -1.0395
 1473SOL     hw 5891   1.735   2.909   1.454 -1.1498  0.2585 -0.6354
 1473SOL     vw 5892   1.761   2.936   1.375 -0.3826  0.0881 -0.4528
 1474SOL     ow 5893   4.916   3.708   0.203 -0.9354  0.4472  0.5230
 1474SOL     hw 5894   4.933   3.714   0.297 -1.4199 -0.8367  0.7162
 1474SOL     hw 5895   4.986   3.759   0.162  0.1091 -0.1490  1.5178
 1474SOL     vw 5896   4.927   3.715   0.210 -0.8616  0.1991  0.6797
 1475SOL     ow 5897   4.971   0.586   6.246 -0.2663 -0.0264  0.1545
 1475SOL     hw 5898   5.016   0.501   6.246  0.6147  0.4125 -1.2820
 1475SOL     hw 5899   4.881   0.565   6.272 -0.0319 -1.3809 -0.0459
 1475SOL     vw 5900   4.965   0.572   6.249 -0.1192 -0.1472 -0.0618
 1476SOL     ow 5901   1.525   6.048   4.052 -0.3831 -0.9680 -0.4463
 1476SOL     hw 5902   1.452   6.110   4.052 -0.7965 -1.4339 -1.6098
 1476SOL     hw 5903   1.599   6.099   4.018  0.0485 -0.2982  1.3748
 1476SOL     vw 5904   1.525   6.063   4.047 -0.3808 -0.9410 -0.3595
 1477SOL     ow 5905   2.785   1.902   0.604  0.3040 -0.0341  0.0453
 1477SOL     hw 5906   2.784   1.991   0.568  1.3536  0.0728  0.2599
 1477SOL     hw 5907   2.713   1.901   0.667  1.0915  1.0854  1.0071
 1477SOL     vw 5908   2.776   1.914   0.608  0.5462  0.1277  0.2006
 1478SOL     ow 5909   3.838   5.602   3.054 -0.4163  0.3789  0.5933
 1478SOL     hw 5910   3.762   5.618   3.110  0.9180 -0.9417  2.9614
 1478SOL     hw 5911   3.812   5.528   2.998 -1.8756  1.9072 -0.8470
 1478SOL     vw 5912   3.825   5.594   3.054 -0.4328  0.4065  0.7157
 1479SOL     ow 5913   1.839   5.335   2.663  1.1510  0.2332 -0.0831
 1479SOL     hw 5914   1.911   5.369   2.716  0.4024  0.6681  0.6845
 1479SOL     hw 5915   1.780   5.409   2.653  1.3575  0.2036 -1.6973
 1479SOL     vw 5916   1.841   5.349   2.669  1.0795  0.2866 -0.1949
 1480SOL     ow 5917   2.126   6.243   4.790 -0.0697  0.4397  0.1943
 1480SOL     hw 5918   2.044   6.283   4.817 -1.5236  0.9419 -4.1858
 1480SOL     hw 5919   2.194   6.303   4.822 -1.5216  1.3070  1.8161
 1480SOL     vw 5920   2.124   6.256   4.798 -0.4531  0.6204 -0.1698
 1481SOL     ow 5921   6.384   0.820   5.833 -0.1765  0.4570  0.0851
 1481SOL     hw 5922   6.442   0.879   5.883  1.1837 -0.4673 -0.3549
 1481SOL     hw 5923   6.420   0.733   5.847 -0.2345  0.0734 -1.8702
 1481SOL     vw 5924   6.396   0.817   5.842 -0.0048  0.2844 -0.2308
 1482SOL     ow 5925   1.577   1.377   4.554  0.1137 -0.4349  0.5649
 1482SOL     hw 5926   1.482   1.388   4.562 -0.0385 -1.3290  0.0900
 1482SOL     hw 5927   1.588   1.291   4.513  1.1626 -1.1271  2.1584
 1482SOL     vw 5928   1.566   1.367   4.550  0.2320 -0.6441  0.7124
 1483SOL     ow 5929   6.270   6.405   3.179  0.5605 -0.1606  0.1391
 1483SOL     hw 5930   6.354   6.361   3.192  1.1256  0.3522 -1.6115
 1483SOL     hw 5931   6.288   6.497   3.200 -0.1298 -0.3588  1.8256
 1483SOL     vw 5932   6.284   6.412   3.184  0.5438 -0.1192  0.1307
 1484SOL     ow 5933   3.447   4.007   2.411 -0.1489 -1.0929  0.2427
 1484SOL     hw 5934   3.491   4.047   2.336  0.0149 -0.3392  0.7324
 1484SOL     hw 5935   3.414   3.924   2.377 -1.6209 -0.0074 -1.1745
 1484SOL     vw 5936   3.448   4.001   2.396 -0.3214 -0.8504  0.1203
 1485SOL     ow 5937   4.588   7.027   5.549  0.0606  0.0865  0.3151
 1485SOL     hw 5938   4.651   6.992   5.486 -0.4941  1.4739 -1.0706
 1485SOL     hw 5939   4.577   6.957   5.613  1.2620 -1.0638 -0.6809
 1485SOL     vw 5940   4.594   7.013   5.549  0.1459  0.1175  0.0010
 1486SOL     ow 5941   6.600   4.204   5.792 -0.1843  0.4826 -0.0499
 1486SOL     hw 5942   6.546   4.126   5.793 -2.8329  2.2068 -0.0600
 1486SOL     hw 5943   6.690   4.171   5.792 -1.1868 -2.5113  0.5269
 1486SOL     vw 5944   6.605   4.190   5.792 -0.6661  0.3150  0.0248
 1487SOL     ow 5945   4.960   1.413   5.009 -0.0589 -0.3205 -0.1307
 1487SOL     hw 5946   4.953   1.421   4.914 -1.4144  3.3267  0.1088
 1487SOL     hw 5947   4.886   1.358   5.035 -0.2612 -0.5102 -1.0898
 1487SOL     vw 5948   4.950   1.407   5.000 -0.2642  0.1357 -0.2258
 1488SOL     ow 5949   4.636   2.321   1.413  0.2298  0.6764 -0.0567
 1488SOL     hw 5950   4.673   2.371   1.340  0.3120  1.2620  0.3804
 1488SOL     hw 5951   4.659   2.371   1.491  1.4946 -0.7193  0.5310
 1488SOL     vw 5952   4.644   2.334   1.414  0.4075  0.5696  0.0785
 1489SOL     ow 5953   5.287   3.769   5.937  0.6582 -0.1544  0.0308
 1489SOL     hw 5954   5.333   3.747   5.856 -1.8638 -0.5162 -1.3784
 1489SOL     hw 5955   5.224   3.836   5.912 -1.7575 -1.8684  1.1004
 1489SOL     vw 5956   5.285   3.775   5.923  0.0067 -0.4283 -0.0141
 1490SOL     ow 5957   3.727   4.239   2.035 -0.1187 -0.1436 -0.5375
 1490SOL     hw 5958   3.822   4.234   2.039 -0.1702 -0.8443 -0.1243
 1490SOL     hw 5959   3.709   4.325   1.997  0.6247  1.2045  1.9633
 1490SOL     vw 5960   3.737   4.250   2.030 -0.0274 -0.0579 -0.1529
 1491SOL     ow 5961   3.293   5.701   6.230  0.1771 -0.5016 -0.0058
 1491SOL     hw 5962   3.291   5.607   6.242  0.5496 -0.3930  0.9959
 1491SOL     hw 5963   3.251   5.716   6.145  2.2808 -1.7494 -1.3453
 1491SOL     vw 5964   3.287   5.691   6.220  0.5038 -0.6521 -0.0505
 1492SOL     ow 5965   0.639   5.248   1.488 -0.5444 -0.3865 -1.0480
 1492SOL     hw 5966   0.569   5.206   1.538 -1.5343  1.3884 -0.8670
 1492SOL     hw 5967   0.663   5.184   1.422 -0.6778 -1.9711  0.3569
 1492SOL     vw 5968   0.633   5.234   1.486 -0.6926 -0.3614 -0.8388
 1493SOL     ow 5969   5.338   0.766   0.761 -0.1058 -0.5294  0.3308
 1493SOL     hw 5970   5.329   0.693   0.822  0.9730 -0.5694  0.4680
 1493SOL     hw 5971   5.248   0.794   0.743 -0.4724  1.0542  3.7941
 1493SOL     vw 5972   5.325   0.760   0.766 -0.0117 -0.3258  0.8058
 1494SOL     ow 5973   0.631   7.035   5.955 -0.0604 -0.3200  0.5411
 1494SOL     hw 5974   0.643   7.106   6.019  1.0764  1.7023 -1.7595
 1494SOL     hw 5975   0.699   6.972   5.976  0.8369  0.7169  0.8114
 1494SOL     vw 5976   0.641   7.036   5.966  0.2080  0.0837  0.2732
 1495SOL     ow 5977   0.058   1.207   6.238 -0.9361 -0.1634  0.4966
 1495SOL     hw 5978   0.109   1.282   6.269 -2.4209  0.8348  0.6049
 1495SOL     hw 5979   0.006   1.241   6.166 -2.1754 -0.8837  1.0090
 1495SOL     vw 5980   0.058   1.222   6.233 -1.2955 -0.1267  0.5784
 1496SOL     ow 5981   3.169   5.608   0.098 -0.3908 -0.6476 -0.0468
 1496SOL     hw 5982   3.168   5.682   0.158 -2.5035  0.3109 -1.1637
 1496SOL     hw 5983   3.083   5.609   0.056 -0.4754 -3.6982 -0.1755
 1496SOL     vw 5984   3.157   5.618   0.100 -0.6808 -0.9236 -0.2112
 1497SOL     ow 5985   0.236   4.778   0.671 -0.2097 -0.1967  0.1904
 1497SOL     hw 5986   0.300   4.713   0.701  0.1962 -0.2219 -0.7098
 1497SOL     hw 5987   0.286   4.837   0.614 -0.1669  1.9238  2.2656
 1497SOL     vw 5988   0.251   4.777   0.668 -0.1505  0.0796  0.3454
 1498SOL     ow 5989   0.020   1.004   2.597 -0.0473 -0.0791 -0.1249
 1498SOL     hw 5990  -0.004   1.094   2.579  3.7909  1.0197 -0.6676
 1498SOL     hw 5991  -0.021   0.984   2.681 -2.1174  1.6257 -0.6639
 1498SOL     vw 5992   0.011   1.013   2.606  0.1860  0.2908 -0.2676
 1499SOL     ow 5993   3.669   7.181   3.290  0.2101  0.4425 -0.0673
 1499SOL     hw 5994   3.729   7.145   3.356 -2.2609  1.5637  3.0631
 1499SOL     hw 5995   3.600   7.114   3.282  0.4735  0.3262 -1.5973
 1499SOL     vw 5996   3.668   7.167   3.298 -0.0812  0.5751  0.1439
 1500SOL     ow 5997   2.916   0.075   0.585  0.2364 -0.3395 -0.1751
 1500SOL     hw 5998   2.959   0.005   0.536 -0.8794 -3.0635  2.4177
 1500SOL     hw 5999   2.825   0.071   0.557 -0.1929 -1.2004  1.2596
 1500SOL     vw 6000   2.910   0.065   0.575  0.0324 -0.8125  0.3563
 1501SOL     ow 6001   1.163   3.760   3.635 -0.0198  0.0327 -0.3712
 1501SOL     hw 6002   1.188   3.789   3.723  1.6138 -0.0267 -0.7762
 1501SOL     hw 6003   1.070   3.781   3.628  0.3347  2.1666  0.5540
 1501SOL     vw 6004   1.154   3.767   3.646  0.2425  0.3065 -0.3024
 1502SOL     ow 6005   0.120   0.373   5.998 -0.1708  0.3642 -0.3553
 1502SOL     hw 6006   0.057   0.339   6.061  0.1967  0.1147 -0.1167
 1502SOL     hw 6007   0.147   0.297   5.947 -1.0420  0.6880 -1.3463
 1502SOL     vw 6008   0.115   0.359   5.999 -0.2373  0.3740 -0.4544
 1503SOL     ow 6009   2.409   0.823   7.206 -0.1701 -0.3544 -0.6578
 1503SOL     hw 6010   2.347   0.756   7.234  1.6512 -1.9558 -0.2269
 1503SOL     hw 6011   2.473   0.829   7.277  0.1175  1.3597 -1.0019
 1503SOL     vw 6012   2.409   0.815   7.219  0.1081 -0.3395 -0.6464
 1504SOL     ow 6013   2.013   4.606   5.605 -0.0656 -0.3926  0.7022
 1504SOL     hw 6014   1.965   4.559   5.537  0.7147 -0.3360  0.1093
 1504SOL     hw 6015   1.962   4.590   5.685  0.1083 -2.1503  0.5088
 1504SOL     vw 6016   2.000   4.598   5.607  0.0603 -0.6173  0.5984
 1505SOL     ow 6017   1.840   1.365   2.320  0.3070  0.2166  0.8058
 1505SOL     hw 6018   1.884   1.444   2.291  0.0750  0.1612  0.3020
 1505SOL     hw 6019   1.787   1.393   2.394 -1.3561  0.9655 -0.6171
 1505SOL     vw 6020   1.839   1.379   2.326  0.0570  0.3081  0.5516
 1506SOL     ow 6021   3.156   6.045   4.925 -0.1312  0.1647 -0.0097
 1506SOL     hw 6022   3.235   6.075   4.881  0.1965  0.9248  1.0578
 1506SOL     hw 6023   3.093   6.030   4.855 -0.3719  3.4577 -0.6559
 1506SOL     vw 6024   3.158   6.047   4.910 -0.1198  0.6995  0.0458
 1507SOL     ow 6025   0.430   4.499   5.334 -0.0769  0.2408 -0.8263
 1507SOL     hw 6026   0.357   4.555   5.308  1.7250  2.0458 -2.3608
 1507SOL     hw 6027   0.439   4.436   5.262  1.2615  1.5154 -1.8348
 1507SOL     vw 6028   0.422   4.498   5.321  0.3374  0.6468 -1.1621
 1508SOL     ow 6029   0.801   6.956   0.765 -0.2228 -0.3157 -1.0899
 1508SOL     hw 6030   0.728   6.970   0.704  0.8111 -1.1172 -2.5763
 1508SOL     hw 6031   0.831   6.867   0.746  0.3143 -0.4987  0.4480
 1508SOL     vw 6032   0.795   6.946   0.755 -0.0155 -0.4454 -1.0831
 1509SOL     ow 6033   5.201   2.962   5.072  0.7462  0.0216 -0.5487
 1509SOL     hw 6034   5.205   3.029   5.140 -0.0398  1.3147 -1.7514
 1509SOL     hw 6035   5.107   2.950   5.055  0.9007 -0.9061 -0.8348
 1509SOL     vw 6036   5.189   2.969   5.079  0.6626  0.0699 -0.7453
 1510SOL     ow 6037   4.591   6.637   4.302  0.1842 -0.0652  0.2873
 1510SOL     hw 6038   4.530   6.600   4.365  1.1205 -0.5325  0.9365
 1510SOL     hw 6039   4.632   6.561   4.260 -0.1627  0.2364 -0.6325
 1510SOL     vw 6040   4.589   6.622   4.305  0.2618 -0.0868  0.2518
 1511SOL     ow 6041   5.552   6.815   5.049 -0.5191 -0.0208  0.0515
 1511SOL     hw 6042   5.609   6.739   5.060  1.0927  0.8174 -1.8418
 1511SOL     hw 6043   5.549   6.829   4.954 -3.7636  0.1227  0.0824
 1511SOL     vw 6044   5.559   6.807   5.038 -0.7343  0.1090 -0.1943
 1512SOL     ow 6045   5.628   4.284   6.069  0.3759  0.0376 -0.5821
 1512SOL     hw 6046   5.715   4.320   6.057  0.8037 -1.8340 -4.7699
 1512SOL     hw 6047   5.569   4.348   6.029  0.4263 -0.7118 -1.9352
 1512SOL     vw 6048   5.631   4.297   6.062  0.4392 -0.3078 -1.3130
 1513SOL     ow 6049   6.364   5.019   4.470 -1.0048  0.3984 -0.6014
 1513SOL     hw 6050   6.410   4.937   4.453 -1.1884 -0.2005  1.5360
 1513SOL     hw 6051   6.337   5.050   4.383 -0.1298 -1.3076 -1.5299
 1513SOL     vw 6052   6.367   5.013   4.456 -0.9134  0.0942 -0.4418
 1514SOL     ow 6053   0.059   5.789   2.990  0.3348 -0.7614  0.1651
 1514SOL     hw 6054   0.044   5.780   2.896 -2.0298 -0.8194  0.4884
 1514SOL     hw 6055   0.077   5.882   3.003  0.4673 -0.7200 -0.3006
 1514SOL     vw 6056   0.060   5.800   2.980  0.0403 -0.7637  0.1464
 1515SOL     ow 6057   2.233   2.788   5.883  1.1303  0.1095  0.1372
 1515SOL     hw 6058   2.156   2.829   5.924  0.4894 -0.3676 -0.5736
 1515SOL     hw 6059   2.234   2.699   5.917  0.1911 -0.5114 -1.3747
 1515SOL     vw 6060   2.223   2.782   5.893  0.9216 -0.0353 -0.1557
 1516SOL     ow 6061   4.102   6.477   0.258  0.1362  0.0813  0.1744
 1516SOL     hw 6062   4.117   6.389   0.291 -0.0284  0.4015  1.1508
 1516SOL     hw 6063   4.008   6.492   0.272  0.0176  0.1624 -0.6384
 1516SOL     vw 6064   4.091   6.467   0.264  0.0987  0.1340  0.1960
 1517SOL     ow 6065   1.542   2.706   7.185  0.0760 -0.1850  0.5784
 1517SOL     hw 6066   1.535   2.734   7.094  3.0760  0.2143  0.3646
 1517SOL     hw 6067   1.556   2.786   7.234  2.4967 -0.6627  0.7863
 1517SOL     vw 6068   1.543   2.720   7.179  0.7912 -0.1954  0.5779
 1518SOL     ow 6069   3.685   6.356   5.686 -0.2216  0.1873  0.2542
 1518SOL     hw 6070   3.595   6.381   5.669 -0.7815 -1.3709  0.7633
 1518SOL     hw 6071   3.703   6.389   5.774 -1.1603 -1.6047  1.1724
 1518SOL     vw 6072   3.676   6.363   5.696 -0.4195 -0.2546  0.4425
 1519SOL     ow 6073   5.001   1.415   0.199  0.1559  0.3398  0.1496
 1519SOL     hw 6074   5.031   1.376   0.117 -0.8109 -0.7740  0.3119
 1519SOL     hw 6075   5.002   1.343   0.262 -0.3087  0.9018  0.8151
 1519SOL     vw 6076   5.005   1.400   0.197 -0.0329  0.2670  0.2588
 1520SOL     ow 6077   2.766   6.085   5.608  0.1232 -0.5699  0.3081
 1520SOL     hw 6078   2.742   6.012   5.550 -0.1331  1.1249 -1.8787
 1520SOL     hw 6079   2.683   6.131   5.624  0.5149  0.1839  0.2323
 1520SOL     vw 6080   2.752   6.082   5.602  0.1411 -0.2470  0.0095
 1521SOL     ow 6081   2.001   0.669   3.678  0.5103 -0.2017 -0.2273
 1521SOL     hw 6082   2.018   0.725   3.602  0.2919  0.4248  0.1742
 1521SOL     hw 6083   2.070   0.603   3.675  0.6226 -0.0612 -0.8548
 1521SOL     vw 6084   2.013   0.668   3.668  0.4963 -0.1005 -0.2571
 1522SOL     ow 6085   2.749   2.279   4.168 -0.4054  0.3554 -0.0327
 1522SOL     hw 6086   2.708   2.306   4.087 -0.3295  0.0807 -0.1643
 1522SOL     hw 6087   2.749   2.183   4.165 -0.3069  0.3434  0.2409
 1522SOL     vw 6088   2.744   2.270   4.157 -0.3823  0.3177 -0.0143
 1523SOL     ow 6089   2.709   4.137   0.431 -0.0459  0.0957 -0.1954
 1523SOL     hw 6090   2.762   4.179   0.363  0.7107  0.6181  0.6889
 1523SOL     hw 6091   2.619   4.142   0.398 -0.1999  3.6272  0.4144
 1523SOL     vw 6092   2.704   4.143   0.418  0.0335  0.6306  0.0017
 1524SOL     ow 6093   5.449   1.660   2.523  0.0617 -0.5466  0.2171
 1524SOL     hw 6094   5.544   1.663   2.532 -0.0744  1.6971  1.7764
 1524SOL     hw 6095   5.416   1.672   2.612 -1.6608  0.5904 -0.5216
 1524SOL     vw 6096   5.457   1.662   2.536 -0.1836 -0.1005  0.3253
 1525SOL     ow 6097   6.734   2.165   4.478  0.1168 -0.3357  0.1112
 1525SOL     hw 6098   6.763   2.131   4.394  0.4372  0.3976 -0.0772
 1525SOL     hw 6099   6.644   2.133   4.487 -1.0953  2.1513 -1.9818
 1525SOL     vw 6100   6.726   2.156   4.468 -0.0010  0.0890 -0.1900
 1526SOL     ow 6101   5.638   5.441   3.997 -0.3860 -0.1535 -0.5377
 1526SOL     hw 6102   5.729   5.470   3.991 -0.0008 -1.4113 -1.1826
 1526SOL     hw 6103   5.587   5.522   4.001  0.7201  0.5731 -0.6831
 1526SOL     vw 6104   5.643   5.456   3.997 -0.1891 -0.2236 -0.6419
 1527SOL     ow 6105   3.007   5.362   4.818  0.0086  0.1038 -0.0181
 1527SOL     hw 6106   3.046   5.277   4.797  1.5799  0.4556  1.2822
 1527SOL     hw 6107   2.918   5.340   4.847  0.9768 -1.3780  2.1469
 1527SOL     vw 6108   3.000   5.348   4.819  0.3436 -0.0453  0.4392
 1528SOL     ow 6109   1.262   7.172   4.252 -0.1348  0.3333 -0.2741
 1528SOL     hw 6110   1.241   7.243   4.312  0.1143 -0.6093  0.9793
 1528SOL     hw 6111   1.192   7.173   4.188 -0.5922  1.1670  0.2155
 1528SOL     vw 6112   1.250   7.181   4.252 -0.1623  0.3190 -0.0439
 1529SOL     ow 6113   1.243   7.027   2.723 -0.0211 -0.2590 -0.1047
 1529SOL     hw 6114   1.191   7.085   2.779  1.3094  0.0303  0.8897
 1529SOL     hw 6115   1.324   7.076   2.707  0.1717 -0.9004 -1.1793
 1529SOL     vw 6116   1.247   7.041   2.728  0.1799 -0.3054 -0.1153
 1530SOL     ow 6117   0.302   1.823   1.835  0.1814  0.2971  0.0239
 1530SOL     hw 6118   0.301   1.908   1.791  0.3502  1.4549  2.1276
 1530SOL     hw 6119   0.210   1.805   1.854  0.2532  0.8492  1.0067
 1530SOL     vw 6120   0.289   1.832   1.832  0.2131  0.5228  0.4311
 1531SOL     ow 6121   5.192   5.375   3.255 -0.1372  0.1700 -0.2255
 1531SOL     hw 6122   5.236   5.354   3.337  1.0881  0.9734 -0.6542
 1531SOL     hw 6123   5.219   5.306   3.195  1.6863  1.3776 -0.8660
 1531SOL     vw 6124   5.201   5.363   3.258  0.2651  0.4354 -0.3666
 1532SOL     ow 6125   4.808   1.971   4.164 -0.0463 -0.3309  0.2816
 1532SOL     hw 6126   4.852   1.889   4.186 -0.4176 -0.1187  1.9421
 1532SOL     hw 6127   4.717   1.947   4.147 -0.1665 -0.2679  0.8191
 1532SOL     vw 6128   4.802   1.957   4.164 -0.1111 -0.2946  0.5715
 1533SOL     ow 6129   0.418   6.979   2.465 -0.5196  0.0096  0.4025
 1533SOL     hw 6130   0.441   7.038   2.394 -1.5934  0.0547  0.0816
 1533SOL     hw 6131   0.453   6.894   2.438 -0.6497  0.0926 -0.0279
 1533SOL     vw 6132   0.426   6.975   2.452 -0.6784  0.0267  0.3034
 1534SOL     ow 6133   0.025   4.237   6.954 -0.1432 -0.3359  0.5431
 1534SOL     hw 6134  -0.051   4.190   6.986 -2.1814  1.6474 -1.0269
 1534SOL     hw 6135   0.040   4.306   7.019  0.1508 -0.5623  0.7165
 1534SOL     vw 6136   0.017   4.240   6.966 -0.3734 -0.1042  0.3588
 1535SOL     ow 6137   4.492   2.978   4.076 -0.2289 -0.1008 -0.0907
 1535SOL     hw 6138   4.491   3.073   4.087  0.1839 -0.2715  1.6619
 1535SOL     hw 6139   4.415   2.959   4.022 -0.5371  1.1834 -0.1217
 1535SOL     vw 6140   4.482   2.988   4.071 -0.2151  0.0463  0.1361
 1536SOL     ow 6141   5.476   0.241   2.158 -0.3295 -0.0824 -0.1266
 1536SOL     hw 6142   5.454   0.161   2.110 -0.9888  0.9598 -1.6603
 1536SOL     hw 6143   5.412   0.245   2.229 -0.1900 -0.9831  0.0592
 1536SOL     vw 6144   5.464   0.231   2.161 -0.3982 -0.0637 -0.3045
 1537SOL     ow 6145   6.027   3.786   0.547 -0.1270  0.0247  0.0110
 1537SOL     hw 6146   5.951   3.733   0.523 -0.0795  0.6272 -1.5812
 1537SOL     hw 6147   5.992   3.874   0.560  0.3873  0.5244 -1.6992
 1537SOL     vw 6148   6.013   3.791   0.545 -0.0529  0.1702 -0.4247
 1538SOL     ow 6149   6.556   2.375   3.390  0.4157  0.5326 -0.2820
 1538SOL     hw 6150   6.602   2.332   3.318 -0.5178  1.2991 -1.3676
 1538SOL     hw 6151   6.561   2.468   3.371 -1.3280  0.6611 -0.3026
 1538SOL     vw 6152   6.563   2.381   3.378  0.0625  0.6509 -0.4277
 1539SOL     ow 6153   2.791   4.574   2.438 -0.1282 -0.0490  0.5693
 1539SOL     hw 6154   2.774   4.492   2.483 -0.4310  0.5587  1.6052
 1539SOL     hw 6155   2.717   4.585   2.379 -0.0444 -0.5620  0.3670
 1539SOL     vw 6156   2.779   4.565   2.436 -0.1570 -0.0365  0.6793
 1540SOL     ow 6157   4.958   0.157   5.761  0.2574  0.1834 -0.5770
 1540SOL     hw 6158   4.929   0.153   5.670  0.3650  1.4666 -0.6841
 1540SOL     hw 6159   4.897   0.100   5.808  1.5465 -2.3722 -1.7421
 1540SOL     vw 6160   4.946   0.149   5.755  0.4418  0.0155 -0.7448
 1541SOL     ow 6161   4.792   5.217   1.355 -0.1323  0.5646  0.0657
 1541SOL     hw 6162   4.850   5.163   1.301  0.7337  0.4835  1.0496
 1541SOL     hw 6163   4.743   5.269   1.292 -0.3282 -0.6966 -0.8744
 1541SOL     vw 6164   4.793   5.217   1.339 -0.0436  0.3877  0.0715
 1542SOL     ow 6165   5.753   6.671   4.768 -0.1487  0.5367 -0.1939
 1542SOL     hw 6166   5.842   6.704   4.775  0.4307 -0.8120 -0.8896
 1542SOL     hw 6167   5.704   6.743   4.727  1.1187  0.5034 -1.8859
 1542SOL     vw 6168   5.758   6.685   4.763  0.0949  0.3543 -0.5093
 1543SOL     ow 6169   1.159   1.763   1.536 -0.4215  0.3866  0.4373
 1543SOL     hw 6170   1.131   1.747   1.446  4.2381  0.3523 -1.2951
 1543SOL     hw 6171   1.108   1.701   1.589 -2.1983 -0.7453 -2.3794
 1543SOL     vw 6172   1.149   1.752   1.531 -0.0411  0.2327 -0.1628
 1544SOL     ow 6173   3.934   4.797   4.395  0.4573 -0.2835  0.4227
 1544SOL     hw 6174   3.955   4.890   4.384  0.6031 -0.4510 -0.8077
 1544SOL     hw 6175   4.006   4.751   4.353  1.4961 -1.0343  2.8230
 1544SOL     vw 6176   3.946   4.804   4.388  0.6137 -0.4048  0.5770
 1545SOL     ow 6177   0.599   6.770   1.305 -0.2287  0.1750  0.6495
 1545SOL     hw 6178   0.644   6.792   1.223 -0.4778 -0.5485  0.3114
 1545SOL     hw 6179   0.513   6.738   1.277 -0.0252 -0.8357  1.1473
 1545SOL     vw 6180   0.593   6.769   1.290 -0.2347 -0.0539  0.6706
 1546SOL     ow 6181   0.052   0.947   2.299  0.4290 -0.1124 -0.7934
 1546SOL     hw 6182   0.062   1.040   2.279  0.4935  0.4622  1.6677
 1546SOL     hw 6183  -0.011   0.915   2.233 -0.7669  2.0224 -0.7746
 1546SOL     vw 6184   0.045   0.955   2.287  0.2797  0.2451 -0.4663
 1547SOL     ow 6185   1.227   3.962   0.160  0.4169 -0.6421 -0.3298
 1547SOL     hw 6186   1.293   3.894   0.144  1.9558  0.5499  0.6560
 1547SOL     hw 6187   1.229   4.016   0.081  0.4719 -0.7459 -0.3997
 1547SOL     vw 6188   1.236   3.960   0.148  0.6272 -0.4985 -0.2090
 1548SOL     ow 6189   4.812   0.812   1.008 -0.4234  0.2434  0.1400
 1548SOL     hw 6190   4.743   0.847   1.065  1.3174  0.2126  2.3853
 1548SOL     hw 6191   4.819   0.876   0.938 -3.3703 -0.2455 -0.7650
 1548SOL     vw 6192   4.804   0.825   1.006 -0.5827  0.1749  0.3169
 1549SOL     ow 6193   0.692   5.131   6.491  0.1284  0.0346  0.0197
 1549SOL     hw 6194   0.632   5.056   6.494  1.8779 -1.4730 -0.5444
 1549SOL     hw 6195   0.753   5.109   6.420 -0.0493  2.6162 -1.0278
 1549SOL     vw 6196   0.692   5.118   6.482  0.3358  0.1762 -0.1926
 1550SOL     ow 6197   1.412   1.069   0.627  0.3527  0.0708  0.3671
 1550SOL     hw 6198   1.400   0.976   0.646  1.4480 -0.0575  0.5035
 1550SOL     hw 6199   1.368   1.114   0.698  1.7184 -0.3815  1.5489
 1550SOL     vw 6200   1.405   1.062   0.639  0.6774 -0.0057  0.5410
 1551SOL     ow 6201   6.136   6.153   3.310  0.3635 -0.7603  0.3765
 1551SOL     hw 6202   6.210   6.117   3.262 -0.2905 -0.9449 -0.5124
 1551SOL     hw 6203   6.108   6.082   3.368  1.1705 -0.5274  1.0699
 1551SOL     vw 6204   6.142   6.139   3.311  0.3834 -0.7539  0.3508
 1552SOL     ow 6205   0.212   6.931   5.843 -0.1710 -0.4682  0.9598
 1552SOL     hw 6206   0.177   6.950   5.756 -0.1585  1.4712  1.3459
 1552SOL     hw 6207   0.275   7.001   5.861  0.4342 -1.2793  2.2116
 1552SOL     vw 6208   0.216   6.942   5.834 -0.0895 -0.3192  1.1759
 1553SOL     ow 6209   1.652   4.926   2.897 -0.6427  0.1810 -0.3574
 1553SOL     hw 6210   1.706   4.973   2.834 -0.6026  0.7710  0.1053
 1553SOL     hw 6211   1.698   4.936   2.981 -0.3804 -1.0931 -0.3217
 1553SOL     vw 6212   1.666   4.933   2.900 -0.6028  0.0911 -0.2916
 1554SOL     ow 6213   0.457   6.303   3.774  0.2215 -0.5311  0.1261
 1554SOL     hw 6214   0.496   6.366   3.713 -0.4535  0.5113  0.7377
 1554SOL     hw 6215   0.531   6.251   3.805  0.7584 -0.2068 -0.5821
 1554SOL     vw 6216   0.472   6.304   3.770  0.2033 -0.3507  0.1134
 1555SOL     ow 6217   2.050   0.799   5.651 -0.4375  0.1746  0.0740
 1555SOL     hw 6218   2.061   0.740   5.577 -0.8348  0.9304 -0.5979
 1555SOL     hw 6219   1.992   0.752   5.711 -2.1838  0.5585 -1.2353
 1555SOL     vw 6220   2.044   0.785   5.649 -0.7203  0.3250 -0.1874
 1556SOL     ow 6221   6.286   6.726   2.051 -0.1379 -0.3263 -0.4870
 1556SOL     hw 6222   6.198   6.732   2.014 -0.9281 -0.6347  1.2278
 1556SOL     hw 6223   6.333   6.667   1.993 -1.3115 -0.7879 -0.9951
 1556SOL     vw 6224   6.281   6.719   2.039 -0.3970 -0.4282 -0.3277
 1557SOL     ow 6225   1.792   3.254   2.905  0.3492  0.1540  0.2460
 1557SOL     hw 6226   1.775   3.210   2.821 -2.2104  2.3337 -0.5333
 1557SOL     hw 6227   1.859   3.319   2.885 -0.4074  0.8119 -0.2126
 1557SOL     vw 6228   1.799   3.257   2.891 -0.0883  0.5283  0.0825
 1558SOL     ow 6229   2.523   2.147   3.556 -0.0887 -0.6408  0.5396
 1558SOL     hw 6230   2.518   2.238   3.585  2.5771 -0.7727  1.6360
 1558SOL     hw 6231   2.435   2.128   3.523 -1.0344  1.9582  1.3183
 1558SOL     vw 6232   2.511   2.156   3.555  0.1383 -0.3153  0.7873
 1559SOL     ow 6233   0.190   4.830   2.661 -0.8758 -0.2122  0.4020
 1559SOL     hw 6234   0.169   4.877   2.580 -1.0528 -0.9770 -0.0033
 1559SOL     hw 6235   0.268   4.875   2.695 -0.8389  0.1579 -0.1568
 1559SOL     vw 6236   0.198   4.842   2.655 -0.8943 -0.2644  0.2747
 1560SOL     ow 6237   4.813   5.608   4.622  0.8390 -0.7308 -0.1461
 1560SOL     hw 6238   4.797   5.556   4.701 -0.1550  0.3878  0.4210
 1560SOL     hw 6239   4.765   5.561   4.553  0.1173 -0.6893  0.3133
 1560SOL     vw 6240   4.804   5.595   4.623  0.6125 -0.5779 -0.0105
 1561SOL     ow 6241   2.079   3.083   2.371  0.1181 -0.9508 -0.1653
 1561SOL     hw 6242   1.991   3.070   2.337  0.2508 -0.0951 -0.8743
 1561SOL     hw 6243   2.133   3.021   2.323  0.3489  0.4362 -1.7712
 1561SOL     vw 6244   2.075   3.073   2.361  0.1662 -0.6548 -0.4708
 1562SOL     ow 6245   2.688   3.403   3.262  0.1505  0.4224  0.1186
 1562SOL     hw 6246   2.640   3.338   3.313 -0.3345  0.7319  0.0686
 1562SOL     hw 6247   2.771   3.360   3.240 -0.5238 -0.5403 -0.6966
 1562SOL     vw 6248   2.692   3.388   3.266 -0.0025  0.3362  0.0044
 1563SOL     ow 6249   2.610   2.536   1.608 -0.6196 -0.1559  0.4756
 1563SOL     hw 6250   2.648   2.474   1.670  0.0198 -0.9335 -0.6483
 1563SOL     hw 6251   2.685   2.576   1.565 -1.0460  0.8181  0.6255
 1563SOL     vw 6252   2.625   2.533   1.610 -0.5914 -0.1299  0.3471
 1564SOL     ow 6253   5.539   0.881   6.285  0.0888 -0.0633  0.2481
 1564SOL     hw 6254   5.612   0.851   6.231  0.4699 -0.5529  1.0264
 1564SOL     hw 6255   5.571   0.876   6.375 -1.7280 -2.8396  0.8505
 1564SOL     vw 6256   5.553   0.876   6.290 -0.1009 -0.4942  0.4301
 1565SOL     ow 6257   1.627   2.802   1.631 -0.1224  0.3174  0.4170
 1565SOL     hw 6258   1.638   2.831   1.722 -2.3017  1.4935  0.3751
 1565SOL     hw 6259   1.535   2.818   1.612  0.3321  0.3499 -2.0960
 1565SOL     vw 6260   1.617   2.808   1.640 -0.3499  0.4768  0.0799
 1566SOL     ow 6261   1.589   0.350   4.830  1.0007  0.4045 -0.7111
 1566SOL     hw 6262   1.524   0.390   4.887  1.4854  2.1476 -1.3175
 1566SOL     hw 6263   1.644   0.298   4.889 -1.3879 -1.8820 -0.2876
 1566SOL     vw 6264   1.588   0.348   4.845  0.7495  0.3328 -0.7350
 1567SOL     ow 6265   5.283   6.902   5.071  0.2300 -0.3594  0.1811
 1567SOL     hw 6266   5.296   6.917   4.977 -0.8512 -1.9199 -0.2605
 1567SOL     hw 6267   5.230   6.822   5.075 -1.3601  0.7256  2.0860
 1567SOL     vw 6268   5.278   6.893   5.059 -0.1225 -0.4222  0.3743
 1568SOL     ow 6269   0.678   6.909   0.343 -0.0287 -0.0752  0.4078
 1568SOL     hw 6270   0.675   6.993   0.296  0.8080 -0.2050  0.1104
 1568SOL     hw 6271   0.673   6.843   0.274 -1.2410 -0.2950  0.6726
 1568SOL     vw 6272   0.677   6.912   0.328 -0.0782 -0.1214  0.4035
 1569SOL     ow 6273   1.532   0.275   6.110  0.7955  0.4936 -0.2491
 1569SOL     hw 6274   1.476   0.250   6.036  2.1897  0.9745 -1.5156
 1569SOL     hw 6275   1.482   0.343   6.156  0.2579  0.7837 -1.2330
 1569SOL     vw 6276   1.518   0.281   6.107  0.9085  0.5953 -0.5460
 1570SOL     ow 6277   2.722   4.931   2.292 -0.8545  0.1387 -0.6358
 1570SOL     hw 6278   2.673   4.851   2.274  0.4679 -0.7123 -0.5343
 1570SOL     hw 6279   2.721   4.938   2.388  3.2995 -2.6407 -0.1386
 1570SOL     vw 6280   2.715   4.922   2.303 -0.1320 -0.3402 -0.5569
 1571SOL     ow 6281   5.034   3.900   1.206  0.4041  0.4120  0.3027
 1571SOL     hw 6282   5.069   3.971   1.151 -1.8873  1.2200 -0.1964
 1571SOL     hw 6283   4.959   3.866   1.157  1.1300 -2.0623  0.7864
 1571SOL     vw 6284   5.029   3.905   1.192  0.1974  0.1920  0.3006
 1572SOL     ow 6285   7.075   3.081   6.291 -0.1693 -0.7312  0.3942
 1572SOL     hw 6286   7.123   3.154   6.331 -3.2546  2.4504 -1.1738
 1572SOL     hw 6287   7.130   3.054   6.218  1.1422 -0.1258  1.1211
 1572SOL     vw 6288   7.089   3.087   6.287 -0.4034 -0.2315  0.2832
 1573SOL     ow 6289   7.060   3.387   2.508 -0.3426  0.7743  0.3855
 1573SOL     hw 6290   7.122   3.456   2.530  1.5840 -0.9583  0.7315
 1573SOL     hw 6291   7.013   3.370   2.589 -1.3394  2.1246  0.1134
 1573SOL     vw 6292   7.062   3.394   2.522 -0.2201  0.7238  0.3952
 1574SOL     ow 6293   1.835   2.494   4.234  0.0473  0.4163 -0.0905
 1574SOL     hw 6294   1.851   2.519   4.325 -1.7831  0.5699  0.2350
 1574SOL     hw 6295   1.837   2.577   4.186  0.3704  0.4183 -0.0708
 1574SOL     vw 6296   1.837   2.508   4.240 -0.1516  0.4369 -0.0451
 1575SOL     ow 6297   4.146   6.220   0.335  0.3122 -0.7236  0.3705
 1575SOL     hw 6298   4.227   6.215   0.385  0.5559 -3.0276 -0.1286
 1575SOL     hw 6299   4.077   6.214   0.400  0.4629  1.5671  0.8306
 1575SOL     vw 6300   4.148   6.219   0.350  0.3643 -0.7253  0.3653
 1576SOL     ow 6301   5.739   4.880   5.762 -0.8613 -0.4909 -0.7598
 1576SOL     hw 6302   5.671   4.903   5.699 -0.4241  2.0235 -0.3986
 1576SOL     hw 6303   5.791   4.960   5.772  1.3921 -1.9444 -0.0502
 1576SOL     vw 6304   5.737   4.894   5.755 -0.5064 -0.3510 -0.6187
 1577SOL     ow 6305   1.114   6.801   4.145 -0.1428  0.1540 -0.4203
 1577SOL     hw 6306   1.042   6.863   4.132 -0.2682  0.1148  0.0724
 1577SOL     hw 6307   1.083   6.720   4.105 -0.2229  0.2398 -0.5333
 1577SOL     vw 6308   1.101   6.799   4.138 -0.1699  0.1602 -0.3700
 1578SOL     ow 6309   1.119   3.240   2.867 -0.6197  0.3557  0.3844
 1578SOL     hw 6310   1.091   3.199   2.786 -1.9264  1.7953  0.0681
 1578SOL     hw 6311   1.152   3.326   2.840  1.8858 -0.3115  1.0411
 1578SOL     vw 6312   1.120   3.246   2.853 -0.4616  0.4575  0.4293
 1579SOL     ow 6313   1.822   5.598   5.787 -0.2845  0.1636 -0.1808
 1579SOL     hw 6314   1.815   5.675   5.843 -0.0792  0.7905 -0.9909
 1579SOL     hw 6315   1.743   5.600   5.733 -1.1591 -1.2014  1.0011
 1579SOL     vw 6316   1.811   5.608   5.787 -0.3728  0.0663 -0.1318
 1580SOL     ow 6317   0.235   0.298   4.529  0.3978 -0.6632  0.3995
 1580SOL     hw 6318   0.262   0.208   4.511 -0.5502 -0.6550 -1.2633
 1580SOL     hw 6319   0.161   0.313   4.470  0.9043  1.3920  0.1997
 1580SOL     vw 6320   0.229   0.288   4.518  0.3395 -0.3909  0.1538
 1581SOL     ow 6321   5.572   4.911   5.570 -1.1071 -0.0326 -0.1878
 1581SOL     hw 6322   5.519   4.887   5.494 -1.7317  1.6892 -0.3181
 1581SOL     hw 6323   5.624   4.985   5.541 -0.9139  0.2660  0.8807
 1581SOL     vw 6324   5.572   4.917   5.556 -1.1640  0.2341 -0.0637
 1582SOL     ow 6325   2.976   5.846   5.866 -0.0560  0.0474 -0.4209
 1582SOL     hw 6326   2.994   5.757   5.897  1.0541  0.8876  1.5457
 1582SOL     hw 6327   2.902   5.875   5.920 -0.6891  0.1992 -1.3489
 1582SOL     vw 6328   2.968   5.838   5.878  0.0068  0.1783 -0.2835
 1583SOL     ow 6329   7.059   5.541   5.999  0.2915  0.2642 -0.1573
 1583SOL     hw 6330   7.095   5.537   5.911  2.4849  2.1210  0.5490
 1583SOL     hw 6331   7.117   5.485   6.051 -0.7573 -0.5169  0.1977
 1583SOL     vw 6332   7.072   5.533   5.994  0.4425  0.4063 -0.0172
 1584SOL     ow 6333   1.399   3.322   5.971 -0.5723  0.2098 -0.0080
 1584SOL     hw 6334   1.434   3.391   5.915  0.7203 -1.0978 -0.9082
 1584SOL     hw 6335   1.476   3.270   5.995 -1.4753 -0.8126  0.7995
 1584SOL     vw 6336   1.414   3.324   5.967 -0.5210 -0.0976 -0.0203
 1585SOL     ow 6337   1.927   7.032   5.582 -0.1973 -0.7841  0.3264
 1585SOL     hw 6338   1.979   6.952   5.580 -0.6505 -1.1257  1.2911
 1585SOL     hw 6339   1.965   7.088   5.514  1.5550 -0.9426  1.1053
 1585SOL     vw 6340   1.939   7.029   5.573 -0.0259 -0.8500  0.5565
 1586SOL     ow 6341   4.010   4.086   5.284  0.2419  0.0570 -0.1135
 1586SOL     hw 6342   4.098   4.063   5.254  0.7196  1.2985  0.2628
 1586SOL     hw 6343   3.968   4.123   5.206  0.0696 -0.4791 -0.2777
 1586SOL     vw 6344   4.016   4.088   5.269  0.2820  0.1500 -0.0856
 1587SOL     ow 6345   3.830   7.117   1.007 -0.0827  0.0276 -0.2778
 1587SOL     hw 6346   3.750   7.121   1.060  0.3475  1.8158  0.2740
 1587SOL     hw 6347   3.799   7.134   0.917 -0.5252 -1.0217 -0.3502
 1587SOL     vw 6348   3.815   7.120   1.002 -0.0843  0.1249 -0.2146
 1588SOL     ow 6349   7.043   7.042   4.943 -0.1116  0.0896 -0.2734
 1588SOL     hw 6350   7.069   7.024   5.034  0.0033 -0.3405 -0.3901
 1588SOL     hw 6351   6.966   7.098   4.951  1.1342  1.8461  0.0758
 1588SOL     vw 6352   7.036   7.047   4.956  0.0679  0.2646 -0.2429
 1589SOL     ow 6353   6.879   2.590   5.740  0.7706 -0.1692  0.0511
 1589SOL     hw 6354   6.970   2.561   5.754  0.2477 -2.0397 -0.1353
 1589SOL     hw 6355   6.835   2.513   5.705 -0.9061  0.7189  0.1198
 1589SOL     vw 6356   6.885   2.576   5.737  0.4802 -0.2989  0.0358
 1590SOL     ow 6357   2.654   6.854   6.055 -0.3348 -0.2660 -0.0070
 1590SOL     hw 6358   2.682   6.825   5.968  0.8272  1.2098 -0.1749
 1590SOL     hw 6359   2.710   6.806   6.116  0.3773  0.2943 -0.1992
 1590SOL     vw 6360   2.665   6.844   6.051 -0.0876  0.0026 -0.0544
 1591SOL     ow 6361   4.710   6.221   2.356 -0.6597 -0.4860  0.3003
 1591SOL     hw 6362   4.764   6.298   2.340  0.6532 -1.2013  1.0942
 1591SOL     hw 6363   4.744   6.185   2.438 -0.9901 -2.0994 -0.2352
 1591SOL     vw 6364   4.722   6.226   2.364 -0.5298 -0.7932  0.3345
 1592SOL     ow 6365   1.043   0.338   6.987 -0.5670 -0.6212 -0.3424
 1592SOL     hw 6366   1.097   0.412   7.013 -0.1442 -0.5332 -1.4266
 1592SOL     hw 6367   1.065   0.268   7.048 -2.5082  0.7256  2.0760
 1592SOL     vw 6368   1.053   0.338   6.998 -0.7674 -0.4319 -0.1662
 1593SOL     ow 6369   4.335   4.026   1.679 -0.1658  0.2100 -0.0980
 1593SOL     hw 6370   4.367   4.113   1.656  1.1925  0.4363  2.2826
 1593SOL     hw 6371   4.414   3.977   1.702 -1.1757 -0.2546  2.8036
 1593SOL     vw 6372   4.350   4.031   1.679 -0.1197  0.1788  0.5989
 1594SOL     ow 6373   3.284   0.202   0.252 -0.0404 -0.4778 -0.0624
 1594SOL     hw 6374   3.194   0.181   0.279 -1.0886  0.4582 -2.5409
 1594SOL     hw 6375   3.301   0.145   0.177  0.6198  0.8453 -0.9536
 1594SOL     vw 6376   3.274   0.191   0.246 -0.0916 -0.1797 -0.5070
 1595SOL     ow 6377   2.133   0.672   5.429 -0.0933  0.3047  0.0267
 1595SOL     hw 6378   2.226   0.663   5.450  0.0816 -2.1774 -1.3838
 1595SOL     hw 6379   2.122   0.621   5.348 -2.7931  0.0495  0.4747
 1595SOL     vw 6380   2.144   0.664   5.421 -0.4263 -0.0565 -0.1004
 1596SOL     ow 6381   6.372   2.819   1.422  0.3002  0.1637  0.1183
 1596SOL     hw 6382   6.425   2.792   1.346 -0.4735  0.0563 -0.3909
 1596SOL     hw 6383   6.338   2.905   1.398 -0.4405 -0.1317  0.0791
 1596SOL     vw 6384   6.375   2.826   1.409  0.1004  0.1106  0.0460
 1597SOL     ow 6385   4.467   5.661   5.120 -0.3891 -0.3603  0.3527
 1597SOL     hw 6386   4.410   5.629   5.189 -2.0753 -2.2452 -1.7437
 1597SOL     hw 6387   4.555   5.640   5.151 -1.0531 -0.8616  2.0353
 1597SOL     vw 6388   4.471   5.654   5.133 -0.6988 -0.6752  0.2980
 1598SOL     ow 6389   1.343   2.820   2.943 -0.2384  0.0803 -0.1753
 1598SOL     hw 6390   1.419   2.792   2.994 -0.4250  1.3469  0.8539
 1598SOL     hw 6391   1.321   2.744   2.889  1.9160 -0.2456 -0.7186
 1598SOL     vw 6392   1.350   2.806   2.942  0.0212  0.2046 -0.1110
 1599SOL     ow 6393   0.964   2.654   1.996 -0.0220  0.3896  0.4345
 1599SOL     hw 6394   1.002   2.664   1.908  1.6719  0.8153  1.1809
 1599SOL     hw 6395   0.876   2.619   1.980  0.4916 -0.1707 -1.3929
 1599SOL     vw 6396   0.957   2.651   1.982  0.2692  0.3718  0.2919
 1600SOL     ow 6397   5.543   5.649   4.318 -0.4608 -0.2129 -0.0084
 1600SOL     hw 6398   5.477   5.672   4.384 -0.5978  0.7601 -0.4677
 1600SOL     hw 6399   5.619   5.704   4.340  0.1272 -1.1687  0.3862
 1600SOL     vw 6400   5.544   5.660   4.330 -0.4015 -0.2108 -0.0172
 1601SOL     ow 6401   5.711   2.749   2.008  0.0321 -0.3289  0.3332
 1601SOL     hw 6402   5.754   2.664   2.018  2.6461  1.0619  2.0256
 1601SOL     hw 6403   5.664   2.762   2.090  1.4126  0.7196  0.9931
 1601SOL     vw 6404   5.711   2.739   2.020  0.5591 -0.0072  0.6436
 1602SOL     ow 6405   4.374   3.533   5.871  0.0927  0.1800 -0.3213
 1602SOL     hw 6406   4.290   3.576   5.853  0.3467  0.6916 -0.3041
 1602SOL     hw 6407   4.424   3.598   5.921 -0.3770 -0.9731  1.7900
 1602SOL     vw 6408   4.369   3.548   5.876  0.0644  0.0954 -0.0403
 1603SOL     ow 6409   2.950   4.407   2.322 -0.2729  0.1835 -0.3655
 1603SOL     hw 6410   3.006   4.372   2.390 -0.1145  0.7629 -0.1891
 1603SOL     hw 6411   2.898   4.475   2.366 -1.0325 -0.2624 -0.5477
 1603SOL     vw 6412   2.950   4.411   2.336 -0.3520  0.2012 -0.3663
 1604SOL     ow 6413   0.134   0.322   1.616 -0.2516 -0.3713  0.6203
 1604SOL     hw 6414   0.193   0.397   1.618 -0.4342 -0.2232  0.5621
 1604SOL     hw 6415   0.146   0.285   1.528 -1.1795  0.4312  0.1213
 1604SOL     vw 6416   0.143   0.327   1.604 -0.3981 -0.2459  0.5468
 1605SOL     ow 6417   2.629   7.187   0.216  0.2721 -0.2125  0.4624
 1605SOL     hw 6418   2.548   7.226   0.183  0.8163  0.9640  0.4657
 1605SOL     hw 6419   2.615   7.093   0.207 -1.7194 -0.1359  1.9223
 1605SOL     vw 6420   2.616   7.180   0.211  0.0812 -0.0472  0.6555
 1606SOL     ow 6421   0.846   2.430   5.824 -0.2653 -0.1378  0.2502
 1606SOL     hw 6422   0.838   2.524   5.806  1.0038  0.0719  0.6319
 1606SOL     hw 6423   0.759   2.404   5.855 -1.2612  0.4116 -1.9208
 1606SOL     vw 6424   0.834   2.439   5.826 -0.2293 -0.0376  0.0141
 1607SOL     ow 6425   1.789   4.975   1.167 -0.2941 -0.4123 -0.0777
 1607SOL     hw 6426   1.779   4.986   1.072  0.2295 -2.0614 -0.3689
 1607SOL     hw 6427   1.850   5.044   1.193  0.4968 -0.6833 -1.1609
 1607SOL     vw 6428   1.796   4.985   1.158 -0.1206 -0.6657 -0.2590
 1608SOL     ow 6429   3.189   3.896   1.637 -0.3130 -0.2285  0.1800
 1608SOL     hw 6430   3.161   3.805   1.628  2.0868 -0.8419 -1.9667
 1608SOL     hw 6431   3.253   3.894   1.708 -0.2510 -0.1958  0.1239
 1608SOL     vw 6432   3.194   3.884   1.645  0.0119 -0.3051 -0.1106
 1609SOL     ow 6433   2.413   0.190   1.140  0.4764  0.3212  0.2259
 1609SOL     hw 6434   2.446   0.186   1.230 -1.5473 -1.4519  0.9729
 1609SOL     hw 6435   2.490   0.206   1.087  2.4530 -2.6773  1.9097
 1609SOL     vw 6436   2.427   0.192   1.145  0.4702 -0.3084  0.5468
 1610SOL     ow 6437   0.288   1.302   6.789  0.4096  0.4372 -0.1301
 1610SOL     hw 6438   0.240   1.308   6.705 -0.6934 -0.0252  0.4397
 1610SOL     hw 6439   0.301   1.208   6.801  0.1070  0.4666  0.4522
 1610SOL     vw 6440   0.283   1.290   6.779  0.2241  0.3801  0.0219
 1611SOL     ow 6441   5.632   0.503   2.749  0.7119  0.0935 -0.3407
 1611SOL     hw 6442   5.722   0.497   2.781  0.3993 -1.1752  0.3875
 1611SOL     hw 6443   5.580   0.518   2.828  0.2553  0.6992 -0.7416
 1611SOL     vw 6444   5.637   0.505   2.764  0.6104  0.0060 -0.2974
 1612SOL     ow 6445   3.547   3.406   4.328 -0.1069  0.3775  0.8484
 1612SOL     hw 6446   3.460   3.447   4.320 -1.0013 -1.6987 -0.8285
 1612SOL     hw 6447   3.602   3.455   4.267 -0.7425  0.1597  0.0817
 1612SOL     vw 6448   3.543   3.418   4.319 -0.3088  0.0749  0.5255
 1613SOL     ow 6449   5.310   1.743   2.272 -0.6769 -0.2037  0.4926
 1613SOL     hw 6450   5.342   1.772   2.187 -0.2823 -1.7070  0.1047
 1613SOL     hw 6451   5.290   1.650   2.260 -2.6203  0.0295  1.4751
 1613SOL     vw 6452   5.311   1.734   2.259 -0.8814 -0.3713  0.5711
 1614SOL     ow 6453   4.547   6.463   0.611  0.4714 -0.0672 -0.1830
 1614SOL     hw 6454   4.609   6.397   0.643 -0.6005 -0.7753  0.5145
 1614SOL     hw 6455   4.554   6.535   0.674  0.6744 -0.1010 -0.1686
 1614SOL     vw 6456   4.556   6.464   0.624  0.3567 -0.1650 -0.0890
 1615SOL     ow 6457   3.112   1.509   1.924 -0.0488 -0.7792  0.2821
 1615SOL     hw 6458   3.106   1.584   1.865 -0.1676  0.1127  1.3931
 1615SOL     hw 6459   3.034   1.457   1.904  0.9608 -1.5911 -1.7530
 1615SOL     vw 6460   3.101   1.512   1.914  0.0687 -0.7686  0.1603
 1616SOL     ow 6461   3.372   0.162   0.578  0.1630 -0.2429  0.1749
 1616SOL     hw 6462   3.417   0.116   0.649 -1.9506 -0.8843  1.1987
 1616SOL     hw 6463   3.348   0.247   0.616 -0.6850 -0.4574  0.1279
 1616SOL     vw 6464   3.375   0.167   0.592 -0.2277 -0.3559  0.3038
 1617SOL     ow 6465   3.950   6.426   6.172 -0.0480 -0.2980 -0.2523
 1617SOL     hw 6466   4.032   6.413   6.218 -0.5733 -0.7545  0.5844
 1617SOL     hw 6467   3.920   6.513   6.199  0.2626 -0.0245 -0.7520
 1617SOL     vw 6468   3.957   6.436   6.181 -0.0764 -0.3221 -0.2079
 1618SOL     ow 6469   5.136   1.318   7.218 -1.4399 -0.1829  0.7774
 1618SOL     hw 6470   5.222   1.279   7.229 -0.8195  0.9982  0.2738
 1618SOL     hw 6471   5.107   1.288   7.131 -0.5623  1.1665 -0.0145
 1618SOL     vw 6472   5.143   1.309   7.208 -1.2424  0.1510  0.6068
 1619SOL     ow 6473   0.924   5.256   4.219 -0.3702  0.1014 -0.8102
 1619SOL     hw 6474   0.948   5.334   4.170 -1.2759  1.9235  1.4478
 1619SOL     hw 6475   1.008   5.218   4.247  0.0645  0.8667 -1.0753
 1619SOL     vw 6476   0.938   5.261   4.216 -0.4323  0.4430 -0.5474
 1620SOL     ow 6477   6.966   7.088   4.626 -0.7753 -0.3623  0.2019
 1620SOL     hw 6478   6.962   7.183   4.640 -1.5414 -0.3376 -0.1772
 1620SOL     hw 6479   6.883   7.066   4.584 -0.6121 -1.2082  0.3102
 1620SOL     vw 6480   6.955   7.098   4.622 -0.8550 -0.4706  0.1662
 1621SOL     ow 6481   1.488   3.831   0.475  0.2218  0.7852  0.3418
 1621SOL     hw 6482   1.401   3.792   0.474  0.1831  0.8876 -0.0651
 1621SOL     hw 6483   1.484   3.902   0.411  1.4381 -1.0100 -1.8691
 1621SOL     vw 6484   1.476   3.835   0.467  0.3772  0.5620 -0.0036
 1622SOL     ow 6485   0.032   6.748   6.064 -0.3436  0.2898 -0.0606
 1622SOL     hw 6486   0.022   6.653   6.060 -0.4847  0.2709  0.5423
 1622SOL     hw 6487  -0.053   6.779   6.095  0.1234  0.4936  1.0637
 1622SOL     vw 6488   0.019   6.740   6.068 -0.3006  0.3140  0.1671
 1623SOL     ow 6489   4.714   4.159   6.947  0.4114  0.5151 -0.4736
 1623SOL     hw 6490   4.783   4.104   6.908  1.2310  1.0202  0.2342
 1623SOL     hw 6491   4.756   4.201   7.022 -1.2895 -0.8934  1.3665
 1623SOL     vw 6492   4.729   4.157   6.951  0.2952  0.3955 -0.1376
 1624SOL     ow 6493   5.122   1.329   5.526  0.0967  0.2683 -0.2918
 1624SOL     hw 6494   5.176   1.250   5.532  1.6900  1.3172 -0.1756
 1624SOL     hw 6495   5.033   1.299   5.542  1.0474 -0.9865  3.7585
 1624SOL     vw 6496   5.117   1.315   5.529  0.4323  0.2412  0.2580
 1625SOL     ow 6497   4.654   0.085   5.569  0.1757 -0.1640  0.3016
 1625SOL     hw 6498   4.746   0.067   5.549 -0.3164 -1.2499 -1.2023
 1625SOL     hw 6499   4.633   0.161   5.514 -0.2776 -1.0433 -0.7796
 1625SOL     vw 6500   4.664   0.093   5.559  0.0510 -0.4233 -0.0396
 1626SOL     ow 6501   5.807   5.554   0.351 -0.4477  0.1103  0.6851
 1626SOL     hw 6502   5.801   5.459   0.354 -0.9498  0.0911 -0.2782
 1626SOL     hw 6503   5.750   5.579   0.277 -0.8787  1.1997  1.3548
 1626SOL     vw 6504   5.798   5.545   0.341 -0.5705  0.2515  0.6464
 1627SOL     ow 6505   2.217   3.671   2.067 -0.6708 -0.0976  0.1660
 1627SOL     hw 6506   2.180   3.651   2.153 -0.1659 -2.1318 -0.0348
 1627SOL     hw 6507   2.174   3.610   2.007  0.2765  0.0780 -0.7224
 1627SOL     vw 6508   2.207   3.660   2.070 -0.4792 -0.3428  0.0223
 1628SOL     ow 6509   6.271   4.934   0.124  0.2852  0.4177  0.3736
 1628SOL     hw 6510   6.235   4.997   0.061  1.4338 -0.5325 -1.3071
 1628SOL     hw 6511   6.360   4.916   0.092  0.6275 -0.7032  1.8368
 1628SOL     vw 6512   6.278   4.940   0.111  0.4818  0.1445  0.3449
 1629SOL     ow 6513   0.822   2.402   5.524 -0.8133  0.8179  0.6706
 1629SOL     hw 6514   0.788   2.393   5.612 -0.6542  0.6137  0.7143
 1629SOL     hw 6515   0.795   2.489   5.495 -3.4441 -0.1715 -0.1909
 1629SOL     vw 6516   0.814   2.412   5.532 -1.1394  0.6604  0.5627
 1630SOL     ow 6517   1.449   5.481   3.561  0.4959  0.7228 -0.0211
 1630SOL     hw 6518   1.367   5.495   3.608  0.1486  1.5715 -0.8497
 1630SOL     hw 6519   1.489   5.567   3.555  0.4485  0.6767 -1.3934
 1630SOL     vw 6520   1.444   5.494   3.566  0.4439  0.8287 -0.3114
 1631SOL     ow 6521   5.584   2.629   5.004 -0.4827 -0.3575 -0.1664
 1631SOL     hw 6522   5.554   2.686   5.075 -0.8792 -0.2269 -0.4324
 1631SOL     hw 6523   5.676   2.653   4.992 -1.4416  2.7891 -2.6019
 1631SOL     vw 6524   5.592   2.640   5.012 -0.6616  0.0749 -0.5231
 1632SOL     ow 6525   1.516   1.488   0.829 -0.5310 -0.1833  0.5846
 1632SOL     hw 6526   1.553   1.577   0.825  0.6056 -0.6651 -0.3263
 1632SOL     hw 6527   1.454   1.491   0.901 -0.0568  1.1956  0.9693
 1632SOL     vw 6528   1.513   1.500   0.838 -0.3185 -0.0650  0.5152
 1633SOL     ow 6529   0.996   6.666   1.434 -0.2751  0.6091  0.1220
 1633SOL     hw 6530   0.973   6.727   1.504 -1.5899  1.9186 -1.3453
 1633SOL     hw 6531   1.081   6.697   1.402  1.2563 -1.1350  2.2698
 1633SOL     vw 6532   1.004   6.678   1.439 -0.2465  0.5515  0.2117
 1634SOL     ow 6533   0.783   3.789   4.095 -0.1690 -0.1935  0.1456
 1634SOL     hw 6534   0.786   3.881   4.119 -1.8465 -0.1641  0.3703
 1634SOL     hw 6535   0.749   3.788   4.006 -1.0659 -0.6102  0.4756
 1634SOL     vw 6536   0.779   3.801   4.087 -0.5087 -0.2447  0.2186
 1635SOL     ow 6537   0.748   2.321   1.770 -0.0086  0.7151 -0.3509
 1635SOL     hw 6538   0.725   2.406   1.807  0.2871 -0.0366  1.6519
 1635SOL     hw 6539   0.664   2.284   1.741 -0.5491  0.5553  1.3117
 1635SOL     vw 6540   0.733   2.327   1.771 -0.0409  0.5949  0.1327
 1636SOL     ow 6541   0.283   3.051   0.915 -0.1326  0.9091  0.5137
 1636SOL     hw 6542   0.362   3.102   0.897 -0.1925  1.0416  0.6241
 1636SOL     hw 6543   0.222   3.076   0.846  0.7877 -1.1093 -1.1449
 1636SOL     vw 6544   0.285   3.061   0.903 -0.0191  0.6603  0.3094
 1637SOL     ow 6545   1.368   3.215   2.933 -0.5407 -0.0049  0.0275
 1637SOL     hw 6546   1.273   3.207   2.927 -0.7201  0.7612  1.4167
 1637SOL     hw 6547   1.401   3.130   2.903 -1.6892 -0.4893  0.0911
 1637SOL     vw 6548   1.360   3.203   2.928 -0.7160  0.0322  0.2193
 1638SOL     ow 6549   7.223   4.303   4.010  0.4313 -0.2412 -0.3319
 1638SOL     hw 6550   7.149   4.262   4.056 -1.1884  1.2921 -1.4190
 1638SOL     hw 6551   7.182   4.347   3.935  2.6506 -0.4975 -1.7681
 1638SOL     vw 6552   7.208   4.303   4.006  0.5105 -0.0727 -0.6649
 1639SOL     ow 6553   0.433   2.371   1.994 -0.2909  0.2805  0.0692
 1639SOL     hw 6554   0.497   2.438   1.971 -1.1871  0.9529 -0.5384
 1639SOL     hw 6555   0.448   2.353   2.087  1.3127 -0.1781 -0.2484
 1639SOL     vw 6556   0.443   2.377   2.003 -0.1976  0.3088 -0.0528
 1640SOL     ow 6557   6.010   4.199   4.011 -0.1129 -0.4562 -0.1340
 1640SOL     hw 6558   6.031   4.151   3.931 -1.0174 -0.6875 -0.2365
 1640SOL     hw 6559   6.070   4.274   4.010 -0.2160 -0.3776 -1.0991
 1640SOL     vw 6560   6.021   4.203   4.001 -0.2458 -0.4761 -0.2749
 1641SOL     ow 6561   3.888   4.478   6.007  0.2000 -0.9426 -0.2726
 1641SOL     hw 6562   3.911   4.567   5.981 -0.8371 -1.1897 -2.2070
 1641SOL     hw 6563   3.866   4.485   6.100 -0.5715  0.9644 -0.5660
 1641SOL     vw 6564   3.888   4.490   6.016 -0.0386 -0.7238 -0.5665
 1642SOL     ow 6565   0.813   3.364   6.335  0.2537 -0.2349 -0.7651
 1642SOL     hw 6566   0.829   3.440   6.391 -1.8587 -1.5703  1.8761
 1642SOL     hw 6567   0.826   3.289   6.393 -1.7526 -1.7293 -2.1236
 1642SOL     vw 6568   0.817   3.364   6.350 -0.2897 -0.6082 -0.5958
 1643SOL     ow 6569   6.634   3.640   0.832  0.2623 -0.1088 -0.4528
 1643SOL     hw 6570   6.692   3.687   0.891  3.4241 -1.3519 -2.3451
 1643SOL     hw 6571   6.621   3.699   0.758 -3.1133  1.1640  0.9568
 1643SOL     vw 6572   6.640   3.654   0.830  0.2339 -0.1048 -0.5165
 1644SOL     ow 6573   3.520   7.140   4.730  0.0848  0.3137 -0.2188
 1644SOL     hw 6574   3.518   7.055   4.685 -3.9496 -0.7497  1.5607
 1644SOL     hw 6575   3.515   7.204   4.659  1.8144 -0.8964 -1.5356
 1644SOL     vw 6576   3.519   7.137   4.714 -0.2195  0.0138 -0.1576
 1645SOL     ow 6577   6.529   6.917   6.029  0.0270  0.3246 -0.3128
 1645SOL     hw 6578   6.525   6.868   5.948  0.1649  1.4521 -1.0299
 1645SOL     hw 6579   6.447   6.898   6.074  0.3258 -0.9974 -0.2825
 1645SOL     vw 6580   6.518   6.908   6.024  0.0844  0.2990 -0.4036
 1646SOL     ow 6581   0.250   0.799   2.550 -0.0977 -0.6528 -0.1763
 1646SOL     hw 6582   0.225   0.707   2.545 -2.5971 -0.0225 -0.4921
 1646SOL     hw 6583   0.322   0.808   2.487  0.5638 -2.4513  0.2646
 1646SOL     vw 6584   0.256   0.788   2.541 -0.3402 -0.8070 -0.1596
 1647SOL     ow 6585   0.662   5.408   1.729 -0.4453  0.0556 -0.4635
 1647SOL     hw 6586   0.713   5.423   1.809 -0.7793  0.8269 -0.3912
 1647SOL     hw 6587   0.578   5.373   1.760  0.3336 -2.1445 -0.6289
 1647SOL     vw 6588   0.658   5.405   1.744 -0.3866 -0.1328 -0.4758
 1648SOL     ow 6589   0.859   1.751   4.853 -0.8121  0.1650 -0.0158
 1648SOL     hw 6590   0.932   1.801   4.890 -1.0059  0.7500 -0.4064
 1648SOL     hw 6591   0.888   1.660   4.856 -0.6990  0.2250  1.2947
 1648SOL     vw 6592   0.873   1.746   4.859 -0.8227  0.2501  0.1056
 1649SOL     ow 6593   6.232   4.110   2.811  0.4489 -0.6029 -0.0183
 1649SOL     hw 6594   6.245   4.184   2.870 -0.9216  0.1914 -0.6530
 1649SOL     hw 6595   6.141   4.083   2.825  0.4173 -1.0799 -1.0059
 1649SOL     vw 6596   6.222   4.116   2.820  0.2642 -0.5610 -0.2323
 1650SOL     ow 6597   3.170   2.764   2.953  0.5358 -0.0860  0.2422
 1650SOL     hw 6598   3.145   2.854   2.975  1.5071 -0.3125  2.5614
 1650SOL     hw 6599   3.186   2.766   2.858 -1.1329  1.7412 -0.0663
 1650SOL     vw 6600   3.169   2.776   2.943  0.4437  0.1253  0.5075
 1651SOL     ow 6601   5.838   0.605   3.051 -0.2498 -0.4099  0.4497
 1651SOL     hw 6602   5.893   0.670   3.008 -1.0060  0.0192  0.1124
 1651SOL     hw 6603   5.859   0.613   3.144  1.6994 -1.6274  0.1644
 1651SOL     vw 6604   5.848   0.615   3.057 -0.0927 -0.5139  0.3676
 1652SOL     ow 6605   3.066   2.848   0.794 -0.4138 -0.0232  0.3310
 1652SOL     hw 6606   3.095   2.802   0.873 -1.5901 -0.1289  0.7241
 1652SOL     hw 6607   3.127   2.922   0.785 -0.6307  0.3523  1.7072
 1652SOL     vw 6608   3.078   2.852   0.803 -0.5976  0.0124  0.5645
 1653SOL     ow 6609   1.483   3.036   6.775  0.9017  0.0782  0.1613
 1653SOL     hw 6610   1.399   3.063   6.812  1.0074  1.0099 -0.2419
 1653SOL     hw 6611   1.482   3.069   6.686  0.9750 -1.4753 -0.4466
 1653SOL     vw 6612   1.472   3.044   6.768  0.9253 -0.0038  0.0281
 1654SOL     ow 6613   2.344   3.670   6.216 -0.0094  0.2324 -0.5977
 1654SOL     hw 6614   2.361   3.591   6.164  0.5048 -0.4940  0.6208
 1654SOL     hw 6615   2.390   3.654   6.298  1.0263  2.2785 -0.7157
 1654SOL     vw 6616   2.352   3.657   6.220  0.1951  0.4064 -0.4528
 1655SOL     ow 6617   7.170   3.735   1.599 -0.2187 -0.1152 -0.1238
 1655SOL     hw 6618   7.215   3.726   1.515 -1.1084  0.1497 -0.6472
 1655SOL     hw 6619   7.094   3.790   1.579 -0.3192  0.1297  0.9043
 1655SOL     vw 6620   7.166   3.741   1.585 -0.3495 -0.0479 -0.0573
 1656SOL     ow 6621   4.461   2.526   2.944 -0.4057 -0.3581  0.1273
 1656SOL     hw 6622   4.493   2.587   2.879 -0.5421 -0.8085 -0.3684
 1656SOL     hw 6623   4.537   2.508   3.000 -0.1298 -0.4484 -0.2783
 1656SOL     vw 6624   4.475   2.532   2.943 -0.3872 -0.4295  0.0083
 1657SOL     ow 6625   6.736   2.636   4.085  0.3116 -0.0372  0.4842
 1657SOL     hw 6626   6.813   2.677   4.124 -1.0520  2.5256  0.7300
 1657SOL     hw 6627   6.668   2.644   4.152 -0.3387 -1.7587  0.0795
 1657SOL     vw 6628   6.737   2.643   4.099  0.0460  0.0737  0.4632
 1658SOL     ow 6629   1.457   4.859   2.647 -0.1382  0.3324 -0.4034
 1658SOL     hw 6630   1.442   4.917   2.572 -0.6456 -0.1914 -0.7196
 1658SOL     hw 6631   1.407   4.780   2.626  0.6526 -0.2746 -0.0399
 1658SOL     vw 6632   1.448   4.857   2.634 -0.1008  0.1831 -0.3972
 1659SOL     ow 6633   5.505   5.223   4.089 -0.1735 -0.5701  0.0266
 1659SOL     hw 6634   5.564   5.198   4.160 -0.8556  0.6829  1.0767
 1659SOL     hw 6635   5.525   5.315   4.071 -0.9264 -0.4885 -0.4720
 1659SOL     vw 6636   5.515   5.232   4.096 -0.3631 -0.3936  0.0994
 1660SOL     ow 6637   3.081   0.196   0.826 -0.5950  0.5254 -0.5063
 1660SOL     hw 6638   3.141   0.267   0.802 -0.7771  1.3896  1.4227
 1660SOL     hw 6639   3.135   0.117   0.826 -0.2191  0.7588 -1.9241
 1660SOL     vw 6640   3.096   0.195   0.823 -0.5695  0.6702 -0.4389
 1661SOL     ow 6641   2.465   1.091   4.000 -0.3446 -0.3861 -0.4081
 1661SOL     hw 6642   2.421   1.033   4.062 -0.0130 -1.1016 -0.8338
 1661SOL     hw 6643   2.400   1.158   3.980 -0.7038 -0.5585  0.1614
 1661SOL     vw 6644   2.450   1.092   4.005 -0.3482 -0.5033 -0.3891
 1662SOL     ow 6645   2.022   1.161   2.133 -0.0505  0.0751  0.0706
 1662SOL     hw 6646   2.063   1.128   2.213 -1.1069 -0.4468  0.4073
 1662SOL     hw 6647   2.095   1.200   2.084  1.1704 -2.2629 -0.1129
 1662SOL     vw 6648   2.037   1.162   2.137 -0.0288 -0.3021  0.0910
 1663SOL     ow 6649   3.322   1.692   4.431  0.3021 -0.0656 -1.0494
 1663SOL     hw 6650   3.250   1.736   4.477 -0.4609 -0.8038 -1.4893
 1663SOL     hw 6651   3.282   1.611   4.398  1.7510 -1.3669  0.1839
 1663SOL     vw 6652   3.307   1.687   4.433  0.3926 -0.3346 -0.9444
 1664SOL     ow 6653   0.408   7.058   1.141  0.4027 -0.0280  0.0839
 1664SOL     hw 6654   0.427   7.011   1.061  1.0311 -1.2245  0.9079
 1664SOL     hw 6655   0.398   7.150   1.113  0.1250 -0.4850 -1.3999
 1664SOL     vw 6656   0.409   7.064   1.127  0.4490 -0.2460 -0.0032
 1665SOL     ow 6657   4.304   2.155   6.134 -0.3479 -0.4917 -0.1727
 1665SOL     hw 6658   4.311   2.244   6.101  1.0813 -0.4127  0.2732
 1665SOL     hw 6659   4.395   2.128   6.150 -0.8302 -1.5210  1.0080
 1665SOL     vw 6660   4.317   2.163   6.132 -0.2232 -0.6170  0.0422
 1666SOL     ow 6661   6.199   0.711   4.914 -0.4443  0.2197  0.4431
 1666SOL     hw 6662   6.202   0.682   5.005  1.4609 -1.1171 -0.0058
 1666SOL     hw 6663   6.123   0.667   4.877  0.3615 -1.4638  0.7060
 1666SOL     vw 6664   6.189   0.702   4.921 -0.0868 -0.1788  0.4187
 1667SOL     ow 6665   1.223   2.575   2.098  0.0203  0.5125  0.1988
 1667SOL     hw 6666   1.134   2.605   2.078  0.6240  1.5760 -1.0105
 1667SOL     hw 6667   1.275   2.601   2.022  1.5444  0.6805  1.2547
 1667SOL     vw 6668   1.218   2.582   2.085  0.3011  0.6750  0.1786
 1668SOL     ow 6669   4.295   2.869   3.938  0.1745  0.5437 -0.0730
 1668SOL     hw 6670   4.283   2.870   3.843  0.5222 -0.1656 -0.1315
 1668SOL     hw 6671   4.226   2.811   3.970  0.3303  0.4395  0.0721
 1668SOL     vw 6672   4.284   2.862   3.929  0.2408  0.4364 -0.0615
 1669SOL     ow 6673   4.893   0.482   2.786 -0.5930 -0.8353  0.3949
 1669SOL     hw 6674   4.820   0.484   2.849 -1.5422  0.6653 -0.6982
 1669SOL     hw 6675   4.859   0.430   2.713 -0.3982 -0.5157  0.0797
 1669SOL     vw 6676   4.879   0.475   2.785 -0.6921 -0.5952  0.2091
 1670SOL     ow 6677   2.324   3.269   2.254 -0.0140 -0.2091  0.0683
 1670SOL     hw 6678   2.387   3.337   2.232 -0.6162  0.6085  0.8286
 1670SOL     hw 6679   2.331   3.206   2.181 -0.3977  1.3255 -1.3517
 1670SOL     vw 6680   2.333   3.269   2.241 -0.1440  0.1013 -0.0187
 1671SOL     ow 6681   1.214   3.591   3.420  0.7684  0.2729 -0.3525
 1671SOL     hw 6682   1.120   3.573   3.424  0.2259  2.5575 -1.0892
 1671SOL     hw 6683   1.231   3.644   3.498  0.8999  1.7638 -1.3327
 1671SOL     vw 6684   1.204   3.596   3.430  0.7142  0.7712 -0.5790
 1672SOL     ow 6685   4.972   0.590   1.721 -0.2245  0.0507  0.4593
 1672SOL     hw 6686   4.899   0.652   1.724 -1.7988 -1.5818 -1.4276
 1672SOL     hw 6687   4.976   0.555   1.810 -1.6583  0.3023  0.6514
 1672SOL     vw 6688   4.963   0.594   1.733 -0.6213 -0.1315  0.2357
 1673SOL     ow 6689   3.007   5.633   4.916 -0.1034 -0.6384 -0.6606
 1673SOL     hw 6690   2.940   5.584   4.963 -0.8512 -0.3600 -1.4175
 1673SOL     hw 6691   2.969   5.720   4.904  0.1787 -0.6292 -1.5412
 1673SOL     vw 6692   2.993   5.638   4.921 -0.1649 -0.6003 -0.8764
 1674SOL     ow 6693   5.786   1.284   3.801 -0.2784 -0.3094 -0.2339
 1674SOL     hw 6694   5.735   1.357   3.836 -0.7504 -0.3755 -0.7740
 1674SOL     hw 6695   5.849   1.263   3.870  0.1705  0.9129 -0.2611
 1674SOL     vw 6696   5.788   1.291   3.815 -0.2813 -0.1568 -0.3088
 1675SOL     ow 6697   4.815   5.347   6.619  0.2117 -0.2838 -0.2793
 1675SOL     hw 6698   4.725   5.334   6.587 -0.0068 -0.2248  0.3084
 1675SOL     hw 6699   4.851   5.414   6.560  0.0653 -0.7253 -0.8826
 1675SOL     vw 6700   4.808   5.354   6.607  0.1636 -0.3345 -0.2813
 1676SOL     ow 6701   4.135   2.751   0.037 -0.1053 -0.4801 -0.1366
 1676SOL     hw 6702   4.082   2.722  -0.037 -0.5531  0.6986 -0.2912
 1676SOL     hw 6703   4.080   2.732   0.114 -1.1595  1.5142 -0.3464
 1676SOL     vw 6704   4.121   2.744   0.038 -0.3033 -0.0614 -0.1846
 1677SOL     ow 6705   5.479   5.660   3.441 -0.5326 -0.7496 -0.0346
 1677SOL     hw 6706   5.511   5.716   3.511  0.0529 -1.6847  0.4658
 1677SOL     hw 6707   5.546   5.664   3.374 -0.7734 -0.3902 -0.2585
 1677SOL     vw 6708   5.492   5.668   3.442 -0.4871 -0.8256  0.0018
 1678SOL     ow 6709   0.900   5.546   2.431  0.0315 -0.3927  1.2926
 1678SOL     hw 6710   0.849   5.613   2.477  2.8434  1.6342  1.7311
 1678SOL     hw 6711   0.904   5.579   2.341  0.7778 -0.3605  1.3354
 1678SOL     vw 6712   0.893   5.559   2.425  0.5010 -0.1209  1.3560
 1679SOL     ow 6713   5.748   2.716   2.407 -0.4554  0.0702 -0.5754
 1679SOL     hw 6714   5.690   2.737   2.334  1.0169  0.0278 -1.8118
 1679SOL     hw 6715   5.766   2.623   2.398 -0.1126  0.1012 -0.2750
 1679SOL     vw 6716   5.743   2.707   2.397 -0.2158  0.0685 -0.6990
 1680SOL     ow 6717   3.197   0.027   1.853 -0.1088 -0.5417  0.4398
 1680SOL     hw 6718   3.108   0.006   1.825  0.3819 -1.4500 -0.5349
 1680SOL     hw 6719   3.209   0.119   1.829 -0.4459 -0.7062 -0.3934
 1680SOL     vw 6720   3.187   0.037   1.846 -0.0885 -0.6832  0.2012
 1681SOL     ow 6721   0.305   1.260   1.083 -0.1662  0.3189  0.3375
 1681SOL     hw 6722   0.282   1.256   0.991  4.1907 -0.5125 -0.9492
 1681SOL     hw 6723   0.292   1.170   1.115 -1.4361  0.5499  0.5049
 1681SOL     vw 6724   0.301   1.247   1.075  0.2411  0.2396  0.1898
 1682SOL     ow 6725   5.291   6.884   4.040 -0.3893 -0.6835  0.3348
 1682SOL     hw 6726   5.197   6.871   4.033 -0.0119 -3.2316 -1.9270
 1682SOL     hw 6727   5.322   6.808   4.090  0.6443 -1.3814 -1.2538
 1682SOL     vw 6728   5.283   6.872   4.045 -0.2029 -1.1117 -0.1731
 1683SOL     ow 6729   6.590   0.810   4.532 -0.5523 -0.1379 -1.0837
 1683SOL     hw 6730   6.573   0.804   4.438  1.5177 -0.5856 -1.4777
 1683SOL     hw 6731   6.684   0.829   4.538 -0.5731 -0.4669  0.9080
 1683SOL     vw 6732   6.601   0.812   4.520 -0.2818 -0.2404 -0.8729
 1684SOL     ow 6733   7.169   3.268   6.451 -0.2497  0.5493 -0.0448
 1684SOL     hw 6734   7.169   3.363   6.438  1.0712  0.7549  1.2299
 1684SOL     hw 6735   7.235   3.253   6.518 -0.5951 -1.2655 -0.0645
 1684SOL     vw 6736   7.177   3.279   6.458 -0.1209  0.3371  0.1206
 1685SOL     ow 6737   6.693   1.571   4.473  0.3202 -0.1677  0.3731
 1685SOL     hw 6738   6.763   1.627   4.438 -1.0455  0.8835 -0.8027
 1685SOL     hw 6739   6.691   1.590   4.567  0.3104  1.2951  0.0914
 1685SOL     vw 6740   6.702   1.581   4.481  0.1390  0.1640  0.1810
 1686SOL     ow 6741   3.115   4.086   1.389 -0.1307  0.4211 -0.0098
 1686SOL     hw 6742   3.155   4.069   1.304 -2.0044  1.4131 -1.1615
 1686SOL     hw 6743   3.075   4.172   1.380  0.5736  1.0787  2.2886
 1686SOL     vw 6744   3.115   4.095   1.377 -0.2850  0.6390  0.1415
 1687SOL     ow 6745   6.020   2.714   1.628  0.1668 -0.9405  0.0128
 1687SOL     hw 6746   6.019   2.764   1.547 -2.3336 -4.1227 -2.1741
 1687SOL     hw 6747   6.093   2.653   1.617  2.4564  1.1454  2.1529
 1687SOL     vw 6748   6.030   2.712   1.616  0.1388 -1.0853  0.0066
 1688SOL     ow 6749   1.642   1.631   4.635 -0.6695 -0.5202 -0.1972
 1688SOL     hw 6750   1.627   1.541   4.608 -2.1169 -1.1237  2.2594
 1688SOL     hw 6751   1.556   1.664   4.660  0.2261  0.4744  1.8744
 1688SOL     vw 6752   1.629   1.624   4.635 -0.7423 -0.4686  0.4003
 1689SOL     ow 6753   4.238   5.544   6.344 -0.6656 -0.0533 -0.0251
 1689SOL     hw 6754   4.232   5.639   6.334 -0.0896 -0.0917 -0.7991
 1689SOL     hw 6755   4.219   5.529   6.437 -3.3859  0.5632 -0.3962
 1689SOL     vw 6756   4.234   5.555   6.355 -0.9484  0.0231 -0.1764
 1690SOL     ow 6757   0.673   5.866   0.664 -0.0153  0.3634 -0.0383
 1690SOL     hw 6758   0.632   5.858   0.750  2.6036  2.8837  1.6395
 1690SOL     hw 6759   0.710   5.779   0.646 -1.2434 -0.4032  1.0037
 1690SOL     vw 6760   0.673   5.854   0.673  0.1682  0.5946  0.3206
 1691SOL     ow 6761   4.041   6.932   1.114  0.5121 -0.1777 -0.1167
 1691SOL     hw 6762   4.083   6.848   1.132 -1.0939 -0.9984  0.0731
 1691SOL     hw 6763   3.973   6.939   1.182  0.5399  1.2164 -0.2137
 1691SOL     vw 6764   4.037   6.922   1.125  0.3037 -0.1020 -0.1044
 1692SOL     ow 6765   1.482   7.185   4.100 -0.1863  0.1156 -0.2304
 1692SOL     hw 6766   1.549   7.215   4.162 -0.6677  1.7679 -0.4484
 1692SOL     hw 6767   1.401   7.184   4.151 -0.6400  1.7776 -0.8575
 1692SOL     vw 6768   1.480   7.189   4.115 -0.3097  0.5529 -0.3419
 1693SOL     ow 6769   5.547   6.566   6.008  0.2931  0.0314 -0.2194
 1693SOL     hw 6770   5.492   6.562   6.086  0.7839 -1.6199  0.0788
 1693SOL     hw 6771   5.584   6.478   6.000  3.1374  1.1173 -0.2331
 1693SOL     vw 6772   5.545   6.554   6.017  0.7329 -0.0429 -0.1817
 1694SOL     ow 6773   5.477   6.730   6.546 -0.2672  0.3554 -0.2944
 1694SOL     hw 6774   5.528   6.650   6.539  0.0968  0.4574  0.8958
 1694SOL     hw 6775   5.399   6.715   6.493 -0.6931 -1.1980  0.7163
 1694SOL     vw 6776   5.473   6.718   6.538 -0.2754  0.1640 -0.0038
 1695SOL     ow 6777   0.535   1.411   1.133 -0.7437  0.0402  0.1420
 1695SOL     hw 6778   0.467   1.350   1.105 -0.1030 -0.4017 -0.4853
 1695SOL     hw 6779   0.594   1.416   1.058  0.0051  0.2863  0.7458
 1695SOL     vw 6780   0.534   1.404   1.119 -0.5603  0.0143  0.1389
 1696SOL     ow 6781   1.250   2.348   5.729 -0.4942  0.0983 -0.1595
 1696SOL     hw 6782   1.321   2.371   5.789  1.1677 -1.0294 -1.6148
 1696SOL     hw 6783   1.260   2.409   5.656 -0.4562 -0.6251 -0.7712
 1696SOL     vw 6784   1.261   2.359   5.727 -0.2698 -0.1460 -0.4320
 1697SOL     ow 6785   5.685   5.014   1.630 -0.3550 -0.3061 -0.0379
 1697SOL     hw 6786   5.590   5.015   1.625 -0.4440 -3.3371 -2.0202
 1697SOL     hw 6787   5.712   5.094   1.585 -1.9140  0.7882  0.8736
 1697SOL     vw 6788   5.676   5.024   1.623 -0.5729 -0.5617 -0.1792
 1698SOL     ow 6789   3.671   3.105   6.957 -0.1441 -0.0575 -0.0505
 1698SOL     hw 6790   3.757   3.132   6.927 -0.0335  2.4282  2.1489
 1698SOL     hw 6791   3.610   3.147   6.897  0.1356 -0.1199 -0.3799
 1698SOL     vw 6792   3.674   3.114   6.945 -0.0925  0.2623  0.1962
 1699SOL     ow 6793   0.032   5.197   7.173 -0.1674 -0.4670  0.2785
 1699SOL     hw 6794   0.026   5.257   7.099 -0.8081  0.2156  0.8642
 1699SOL     hw 6795   0.036   5.110   7.134  0.3675 -0.0695 -0.5736
 1699SOL     vw 6796   0.031   5.193   7.158 -0.1814 -0.3242  0.2437
 1700SOL     ow 6797   5.902   1.713   4.930  0.3652 -0.3794  0.5927
 1700SOL     hw 6798   5.911   1.673   4.844 -0.1511  0.5900  0.0703
 1700SOL     hw 6799   5.991   1.736   4.956  0.5530 -0.9355  0.4541
 1700SOL     vw 6800   5.915   1.711   4.922  0.3219 -0.3249  0.5054
 1701SOL     ow 6801   1.895   5.285   5.790  1.0373 -0.3857  0.0392
 1701SOL     hw 6802   1.967   5.230   5.824  0.8513  0.5021  2.0399
 1701SOL     hw 6803   1.818   5.229   5.795  1.4459 -1.1270 -1.4870
 1701SOL     vw 6804   1.895   5.271   5.795  1.0667 -0.3667  0.1018
 1702SOL     ow 6805   5.843   3.276   2.397  0.3616  0.6028 -0.0935
 1702SOL     hw 6806   5.821   3.355   2.348 -1.7236  0.3516  0.3549
 1702SOL     hw 6807   5.871   3.213   2.331  2.2844  1.7311 -0.4385
 1702SOL     vw 6808   5.844   3.278   2.382  0.3402  0.7185 -0.0798
 1703SOL     ow 6809   1.126   4.547   0.622  0.5367 -0.2341  0.6557
 1703SOL     hw 6810   1.060   4.611   0.598  0.5790 -0.3041  0.3511
 1703SOL     hw 6811   1.078   4.465   0.634  0.8673 -0.8997 -2.0672
 1703SOL     vw 6812   1.111   4.544   0.621  0.5859 -0.3312  0.2563
 1704SOL     ow 6813   2.310   0.399   3.200  0.7188 -0.3779 -0.0823
 1704SOL     hw 6814   2.254   0.462   3.244  2.1480  2.8486 -2.4822
 1704SOL     hw 6815   2.361   0.358   3.270 -1.0288  0.3036  1.6671
 1704SOL     vw 6816   2.309   0.402   3.215  0.6768  0.1377 -0.1682
 1705SOL     ow 6817   7.184   3.549   3.471  0.0433 -0.1520  0.3603
 1705SOL     hw 6818   7.210   3.487   3.403  1.8617 -0.4289  1.2412
 1705SOL     hw 6819   7.090   3.537   3.480  0.2720 -2.5490  0.2680
 1705SOL     vw 6820   7.175   3.539   3.463  0.3135 -0.5046  0.4642
 1706SOL     ow 6821   5.990   3.088   1.631 -0.0935 -0.2670  0.4572
 1706SOL     hw 6822   6.076   3.129   1.638 -0.3341  0.1931  0.7876
 1706SOL     hw 6823   5.975   3.079   1.537 -0.6546  1.7629  0.2911
 1706SOL     vw 6824   5.999   3.092   1.620 -0.1993  0.0616  0.4789
 1707SOL     ow 6825   1.023   6.096   3.191 -0.7107 -0.5241  0.0781
 1707SOL     hw 6826   0.992   6.166   3.134 -1.0909 -0.1368  0.7544
 1707SOL     hw 6827   1.099   6.133   3.236 -2.2430  0.3145  2.1548
 1707SOL     vw 6828   1.029   6.110   3.189 -0.9630 -0.3624  0.4414
 1708SOL     ow 6829   1.824   3.193   1.187  0.0020 -0.2648 -0.0247
 1708SOL     hw 6830   1.832   3.289   1.190  1.9598 -0.3441 -0.9658
 1708SOL     hw 6831   1.913   3.163   1.168 -0.5413 -2.3021  0.4926
 1708SOL     vw 6832   1.837   3.202   1.185  0.1886 -0.5441 -0.0806
 1709SOL     ow 6833   1.035   0.843   0.474 -0.4765 -0.1194 -0.0406
 1709SOL     hw 6834   1.105   0.885   0.425  0.4572 -0.5220  0.9072
 1709SOL     hw 6835   0.971   0.912   0.489  0.1652  0.5029 -0.0990
 1709SOL     vw 6836   1.036   0.857   0.469 -0.2686 -0.0904  0.0767
 1710SOL     ow 6837   6.063   3.096   5.922  0.1217 -0.3146 -0.1608
 1710SOL     hw 6838   6.042   3.103   5.829 -0.5450 -0.3350 -0.0114
 1710SOL     hw 6839   6.100   3.008   5.931  2.7850  0.6255 -0.9015
 1710SOL     vw 6840   6.065   3.085   5.911  0.3850 -0.1932 -0.2389
 1711SOL     ow 6841   4.301   3.590   5.221 -0.7392  0.0887 -0.2042
 1711SOL     hw 6842   4.372   3.551   5.169 -1.9797 -0.9425 -1.1990
 1711SOL     hw 6843   4.345   3.629   5.296  0.8126 -1.2823 -0.3366
 1711SOL     vw 6844   4.316   3.590   5.224 -0.6983 -0.2283 -0.3529
 1712SOL     ow 6845   3.050   1.415   5.327 -0.0424  0.7482  0.0659
 1712SOL     hw 6846   3.015   1.326   5.333  2.9738 -0.6024 -0.6708
 1712SOL     hw 6847   2.999   1.455   5.256 -1.5381 -0.2902  0.4827
 1712SOL     vw 6848   3.038   1.408   5.319  0.1582  0.4330  0.0236
 1713SOL     ow 6849   4.736   5.096   0.013 -0.2149 -0.3899  0.3713
 1713SOL     hw 6850   4.790   5.062   0.084 -2.0249 -0.8475  1.6093
 1713SOL     hw 6851   4.798   5.135  -0.048  1.4570 -0.4730  1.9293
 1713SOL     vw 6852   4.751   5.097   0.015 -0.2332 -0.4613  0.7402
 1714SOL     ow 6853   0.546   3.621   4.072 -0.2752 -0.1693  0.2631
 1714SOL     hw 6854   0.531   3.527   4.060  0.2924 -0.2610  0.2534
 1714SOL     hw 6855   0.518   3.660   3.989 -1.0274 -0.2683  0.4653
 1714SOL     vw 6856   0.541   3.614   4.059 -0.2996 -0.1944  0.2887
 1715SOL     ow 6857   5.251   0.764   3.020  0.2463  0.2924  0.3531
 1715SOL     hw 6858   5.220   0.720   3.100 -0.0354 -0.8083 -0.3459
 1715SOL     hw 6859   5.288   0.847   3.052  0.7178 -0.3977  1.7083
 1715SOL     vw 6860   5.252   0.769   3.035  0.2713  0.0561  0.4396
 1716SOL     ow 6861   0.345   3.982   4.746 -0.2026  0.6840 -0.5476
 1716SOL     hw 6862   0.394   3.974   4.827  0.4234  0.0838 -0.9716
 1716SOL     hw 6863   0.397   3.934   4.681 -0.6202  1.2555 -1.3334
 1716SOL     vw 6864   0.358   3.974   4.748 -0.1751  0.6803 -0.7074
 1717SOL     ow 6865   3.867   7.197   3.666  0.2154 -0.0338 -0.2241
 1717SOL     hw 6866   3.884   7.157   3.580 -0.6240 -1.2939  0.1596
 1717SOL     hw 6867   3.865   7.291   3.649  1.0110 -0.1991 -1.4079
 1717SOL     vw 6868   3.869   7.204   3.652  0.2096 -0.2222 -0.3295
 1718SOL     ow 6869   0.942   0.335   2.695  0.1996  0.4779 -0.3259
 1718SOL     hw 6870   0.994   0.411   2.721  1.2417 -0.2239 -0.3175
 1718SOL     hw 6871   0.887   0.316   2.772  0.5968  0.6660  0.0090
 1718SOL     vw 6872   0.941   0.342   2.709  0.3895  0.4101 -0.2806
 1719SOL     ow 6873   5.668   0.972   5.627  0.0553 -0.5070  0.0680
 1719SOL     hw 6874   5.754   0.936   5.604 -0.3640 -0.9722 -0.8489
 1719SOL     hw 6875   5.605   0.910   5.588 -0.6902  0.4509 -0.2968
 1719SOL     vw 6876   5.671   0.959   5.618 -0.0985 -0.4420 -0.1009
 1720SOL     ow 6877   4.030   6.168   0.080  0.0028  0.4370  0.1341
 1720SOL     hw 6878   4.071   6.171   0.167  0.5166  0.4377 -0.1036
 1720SOL     hw 6879   4.004   6.259   0.064 -1.9155  0.1073  1.1280
 1720SOL     vw 6880   4.032   6.180   0.089 -0.1822  0.3936  0.2338
 1721SOL     ow 6881   5.237   6.139   0.461 -0.3604  0.0266  0.7161
 1721SOL     hw 6882   5.225   6.047   0.440 -1.8754  0.5728 -1.0761
 1721SOL     hw 6883   5.150   6.168   0.489 -0.5797  1.4724 -1.2644
 1721SOL     vw 6884   5.224   6.131   0.462 -0.5894  0.2894  0.2184
 1722SOL     ow 6885   3.506   4.753   6.785 -0.3456 -0.1114  0.3165
 1722SOL     hw 6886   3.438   4.786   6.727  1.3968  1.6840 -0.8464
 1722SOL     hw 6887   3.547   4.831   6.821 -0.5192 -1.1729  3.0267
 1722SOL     vw 6888   3.503   4.768   6.782 -0.1384 -0.0148  0.5205
 1723SOL     ow 6889   6.086   2.071   3.049  0.1758 -0.4071 -0.2876
 1723SOL     hw 6890   6.038   2.026   2.979  1.8134  0.0646 -1.8051
 1723SOL     hw 6891   6.054   2.161   3.045  1.1794 -0.0675 -1.3687
 1723SOL     vw 6892   6.075   2.077   3.039  0.5240 -0.3000 -0.6304
 1724SOL     ow 6893   2.481   4.470   6.454  0.3706  0.0775 -0.4076
 1724SOL     hw 6894   2.386   4.462   6.450  0.4273 -2.4506  1.2343
 1724SOL     hw 6895   2.496   4.554   6.497 -1.1520 -0.0629  0.4721
 1724SOL     vw 6896   2.471   4.480   6.459  0.1771 -0.2747 -0.0749
 1725SOL     ow 6897   6.417   0.590   2.830 -0.5021  0.1694  0.3905
 1725SOL     hw 6898   6.491   0.615   2.885 -0.8963 -0.8773  1.4292
 1725SOL     hw 6899   6.456   0.540   2.759 -0.1332  0.3524  0.4596
 1725SOL     vw 6900   6.432   0.587   2.828 -0.5054  0.0555  0.5368
 1726SOL     ow 6901   7.027   7.189   3.327 -0.2874 -0.0019 -0.3709
 1726SOL     hw 6902   6.979   7.131   3.267 -0.4152 -1.8969  1.4548
 1726SOL     hw 6903   6.989   7.276   3.312 -3.6394 -1.2181  0.2464
 1726SOL     vw 6904   7.015   7.193   3.317 -0.7465 -0.4122 -0.0486
 1727SOL     ow 6905   4.502   5.300   0.149 -0.5213 -0.1704  0.0371
 1727SOL     hw 6906   4.516   5.378   0.095 -1.9995 -0.2574 -0.5045
 1727SOL     hw 6907   4.412   5.306   0.178  0.1145 -0.3577  2.2070
 1727SOL     vw 6908   4.492   5.311   0.146 -0.6323 -0.2065  0.2519
 1728SOL     ow 6909   3.167   3.374   0.728 -0.8180 -0.5420 -0.5599
 1728SOL     hw 6910   3.207   3.454   0.696 -0.1571 -0.0980  1.2445
 1728SOL     hw 6911   3.234   3.306   0.714  0.7861  0.2097  2.5143
 1728SOL     vw 6912   3.181   3.375   0.722 -0.5190 -0.3843  0.0838
 1729SOL     ow 6913   2.607   2.369   6.393  0.5750  0.4086 -0.2099
 1729SOL     hw 6914   2.625   2.380   6.299 -1.1806 -0.5557 -0.7202
 1729SOL     hw 6915   2.556   2.288   6.398  1.2343  0.0544  1.6889
 1729SOL     vw 6916   2.602   2.360   6.381  0.4305  0.2347 -0.0267
 1730SOL     ow 6917   6.949   5.721   2.512 -0.1073 -0.0937 -0.3491
 1730SOL     hw 6918   6.957   5.635   2.470  1.1791 -0.4482  0.5585
 1730SOL     hw 6919   6.943   5.701   2.606 -2.6040  0.6894 -0.2519
 1730SOL     vw 6920   6.949   5.707   2.519 -0.2668 -0.0370 -0.2166
 1731SOL     ow 6921   0.001   5.538   3.213 -0.3869 -0.2133  0.6196
 1731SOL     hw 6922   0.022   5.452   3.251  0.2741 -0.0079  0.7299
 1731SOL     hw 6923   0.001   5.597   3.288  0.2335  0.0721  0.4031
 1731SOL     vw 6924   0.004   5.534   3.228 -0.2179 -0.1483  0.6055
 1732SOL     ow 6925   6.429   3.609   0.307  0.1162  0.3404 -0.2160
 1732SOL     hw 6926   6.486   3.563   0.369  0.1328  0.6059 -0.0309
 1732SOL     hw 6927   6.388   3.678   0.360  1.4363  1.6837 -0.8745
 1732SOL     vw 6928   6.431   3.612   0.322  0.2923  0.5528 -0.2785
 1733SOL     ow 6929   1.418   2.739   2.627 -0.2314 -0.1463  0.9766
 1733SOL     hw 6930   1.395   2.828   2.655 -0.4990 -0.7568  2.8656
 1733SOL     hw 6931   1.494   2.717   2.682  1.2859 -0.2862 -1.0754
 1733SOL     vw 6932   1.425   2.748   2.638 -0.0666 -0.2453  0.9550
 1734SOL     ow 6933   4.275   6.912   6.404 -0.2969  0.1448  0.0512
 1734SOL     hw 6934   4.306   7.002   6.394 -0.0521  0.3369  2.1375
 1734SOL     hw 6935   4.260   6.902   6.498 -1.1925 -1.7233 -0.2430
 1734SOL     vw 6936   4.277   6.923   6.415 -0.3824 -0.0763  0.2875
 1735SOL     ow 6937   0.824   6.073   1.474  0.1737 -0.2130 -0.6104
 1735SOL     hw 6938   0.737   6.099   1.444  0.0450 -0.8491 -0.8202
 1735SOL     hw 6939   0.820   5.977   1.478  0.4361 -0.1880  0.6913
 1735SOL     vw 6940   0.812   6.063   1.471  0.1913 -0.2937 -0.4664
 1736SOL     ow 6941   0.334   6.756   2.033 -0.0136 -0.2929  0.1851
 1736SOL     hw 6942   0.374   6.783   2.115  0.3773 -2.0161  0.5960
 1736SOL     hw 6943   0.239   6.761   2.049 -0.0172 -3.0546  1.7035
 1736SOL     vw 6944   0.327   6.760   2.046  0.0375 -0.8848  0.4398
 1737SOL     ow 6945   0.736   4.718   5.210 -0.1490  0.3885  0.6058
 1737SOL     hw 6946   0.684   4.682   5.138 -1.6827  2.0535  0.7821
 1737SOL     hw 6947   0.750   4.809   5.185 -0.4144  0.9058  2.2331
 1737SOL     vw 6948   0.731   4.725   5.197 -0.3864  0.6764  0.8435
 1738SOL     ow 6949   0.382   0.581   4.622  0.1799 -0.3020 -0.0510
 1738SOL     hw 6950   0.395   0.614   4.533  2.5180 -1.2764 -0.1363
 1738SOL     hw 6951   0.428   0.643   4.678  0.2544 -0.6582  0.2910
 1738SOL     vw 6952   0.389   0.594   4.617  0.4982 -0.4775 -0.0169
 1739SOL     ow 6953   4.598   2.841   4.369  0.5682 -0.3605  0.7354
 1739SOL     hw 6954   4.513   2.824   4.411  0.9502 -1.4725  1.1009
 1739SOL     hw 6955   4.632   2.918   4.414 -0.3889  0.3080  0.3540
 1739SOL     vw 6956   4.591   2.849   4.381  0.4923 -0.4189  0.7331
 1740SOL     ow 6957   4.448   5.547   4.836  0.7408 -0.0556 -0.5340
 1740SOL     hw 6958   4.419   5.496   4.760  0.6451 -2.3440  0.9668
 1740SOL     hw 6959   4.485   5.483   4.896  1.6651  1.8106  1.0010
 1740SOL     vw 6960   4.449   5.532   4.834  0.8500 -0.1111 -0.1333
 1741SOL     ow 6961   1.621   4.764   5.740 -0.2670 -0.1453 -0.2620
 1741SOL     hw 6962   1.651   4.851   5.766 -0.2765  0.0032 -0.7348
 1741SOL     hw 6963   1.694   4.707   5.762 -0.6098 -0.1604  0.8834
 1741SOL     vw 6964   1.635   4.768   5.747 -0.3135 -0.1276 -0.1733
 1742SOL     ow 6965   6.379   2.000   3.162  0.5581  0.0735  0.0424
 1742SOL     hw 6966   6.406   2.039   3.245  0.5652  0.0789  0.0375
 1742SOL     hw 6967   6.373   1.906   3.181  0.1576  0.1241  0.1550
 1742SOL     vw 6968   6.382   1.992   3.175  0.5062  0.0809  0.0566
 1743SOL     ow 6969   6.751   6.882   1.923 -0.3299 -0.2619 -0.2068
 1743SOL     hw 6970   6.747   6.949   1.855  0.1107  0.0359  0.0589
 1743SOL     hw 6971   6.723   6.802   1.879 -0.8195  0.0829 -0.5365
 1743SOL     vw 6972   6.747   6.880   1.908 -0.3362 -0.1769 -0.2152
 1744SOL     ow 6973   4.376   5.119   3.684 -0.2673 -0.3058  0.4319
 1744SOL     hw 6974   4.320   5.110   3.761 -0.5183  0.3878  0.3318
 1744SOL     hw 6975   4.397   5.212   3.679 -0.0009 -0.3913 -0.1624
 1744SOL     vw 6976   4.371   5.130   3.693 -0.2651 -0.2253  0.3402
 1745SOL     ow 6977   4.777   0.564   1.157 -0.2921  0.1282 -0.1328
 1745SOL     hw 6978   4.798   0.479   1.118 -0.7560 -0.7291  1.4040
 1745SOL     hw 6979   4.683   0.558   1.177  0.3497 -0.5407  3.4142
 1745SOL     vw 6980   4.767   0.552   1.155 -0.2687 -0.0732  0.5380
 1746SOL     ow 6981   5.434   3.595   1.005  0.1496  0.1391  0.8023
 1746SOL     hw 6982   5.460   3.508   0.976  1.0025  0.5562  0.2576
 1746SOL     hw 6983   5.517   3.639   1.026 -0.0232  1.5749 -1.1510
 1746SOL     vw 6984   5.449   3.589   1.004  0.2391  0.3836  0.4727
 1747SOL     ow 6985   6.146   7.044   3.236 -0.6538 -0.3812  0.4187
 1747SOL     hw 6986   6.144   7.060   3.141 -0.5779  0.8959  0.6241
 1747SOL     hw 6987   6.239   7.036   3.257 -0.5928  0.5874  0.5708
 1747SOL     vw 6988   6.158   7.045   3.226 -0.6359 -0.0849  0.4658
 1748SOL     ow 6989   0.115   4.973   0.756 -0.6753 -0.0484 -0.5668
 1748SOL     hw 6990   0.022   4.965   0.734 -0.5924 -0.4486 -0.7698
 1748SOL     hw 6991   0.153   4.889   0.732 -0.0033  0.5656 -1.7376
 1748SOL     vw 6992   0.107   4.961   0.750 -0.5757 -0.0200 -0.7480
 1749SOL     ow 6993   4.757   6.158   2.049 -0.4711  0.0792 -0.2237
 1749SOL     hw 6994   4.807   6.216   1.991 -0.4091  1.4924  1.1713
 1749SOL     hw 6995   4.683   6.129   1.996  1.3597 -1.5046 -2.1262
 1749SOL     vw 6996   4.754   6.162   2.034 -0.2215  0.0567 -0.2906
 1750SOL     ow 6997   6.413   0.134   5.526  0.5136  0.2202 -0.0069
 1750SOL     hw 6998   6.489   0.153   5.580  0.4411 -1.1269  0.6187
 1750SOL     hw 6999   6.348   0.099   5.588  0.8459 -2.5377 -1.0523
 1750SOL     vw 7000   6.414   0.132   5.542  0.5481 -0.3214 -0.0622
 1751SOL     ow 7001   2.916   0.360   5.851  0.2568  0.3029 -0.0295
 1751SOL     hw 7002   2.936   0.268   5.832 -1.1728 -0.0174 -0.0958
 1751SOL     hw 7003   2.823   0.369   5.831  0.0519  1.4329  1.2969
 1751SOL     vw 7004   2.907   0.349   5.846  0.0412  0.4097  0.1369
 1752SOL     ow 7005   6.460   1.953   3.624  0.0893 -0.2404 -0.1259
 1752SOL     hw 7006   6.417   2.005   3.692 -1.7201 -1.4328 -0.2805
 1752SOL     hw 7007   6.453   2.006   3.545  0.2589  0.2208  0.1629
 1752SOL     vw 7008   6.453   1.967   3.623 -0.1271 -0.3369 -0.1082
 1753SOL     ow 7009   0.662   3.720   0.334  0.1784 -0.0811  0.4362
 1753SOL     hw 7010   0.690   3.810   0.352  0.4695  0.4006 -2.0246
 1753SOL     hw 7011   0.711   3.666   0.396  0.9903  1.3503  1.0853
 1753SOL     vw 7012   0.672   3.725   0.345  0.3239  0.1714  0.1971
 1754SOL     ow 7013   2.119   7.084   2.985  0.5282  0.4593 -0.5571
 1754SOL     hw 7014   2.106   7.177   3.008  0.6786  0.0360  1.4529
 1754SOL     hw 7015   2.055   7.068   2.916  0.3407  2.0083 -0.7859
 1754SOL     vw 7016   2.109   7.094   2.979  0.5232  0.6077 -0.3221
 1755SOL     ow 7017   0.820   2.109   5.143 -0.7010  0.1765 -0.0470
 1755SOL     hw 7018   0.870   2.172   5.195 -0.2422 -1.6910  1.9177
 1755SOL     hw 7019   0.848   2.125   5.053  1.0544  1.3093  0.6382
 1755SOL     vw 7020   0.831   2.119   5.138 -0.4089  0.0794  0.3026
 1756SOL     ow 7021   1.827   0.502   4.685  0.6479  0.6094 -0.1085
 1756SOL     hw 7022   1.867   0.586   4.662  1.3914  0.8577  1.8815
 1756SOL     hw 7023   1.890   0.460   4.743  0.0553 -1.1187 -0.6396
 1756SOL     vw 7024   1.840   0.507   4.689  0.6678  0.4142  0.0839
 1757SOL     ow 7025   0.808   6.688   0.725 -0.0972  0.7187  0.3111
 1757SOL     hw 7026   0.800   6.688   0.629 -2.6324 -1.5699  0.3811
 1757SOL     hw 7027   0.738   6.630   0.754  0.6603  1.2664  3.5944
 1757SOL     vw 7028   0.797   6.680   0.716 -0.3318  0.4890  0.7535
 1758SOL     ow 7029   1.659   7.041   5.483 -0.2409 -0.2968  0.2677
 1758SOL     hw 7030   1.651   7.127   5.443 -2.3226 -0.3801  0.3961
 1758SOL     hw 7031   1.645   6.979   5.411  2.8555 -0.6511 -0.1678
 1758SOL     vw 7032   1.656   7.044   5.468 -0.1070 -0.3548  0.2272
 1759SOL     ow 7033   2.732   5.521   6.008  0.4096 -0.1213 -0.2731
 1759SOL     hw 7034   2.697   5.561   5.928 -1.7420 -1.9383 -0.3527
 1759SOL     hw 7035   2.673   5.551   6.077  0.9586 -0.2989  0.2816
 1759SOL     vw 7036   2.719   5.530   6.007  0.1982 -0.3843 -0.2105
 1760SOL     ow 7037   5.522   3.437   0.137 -0.5479 -0.1930 -0.1838
 1760SOL     hw 7038   5.438   3.427   0.183 -0.3529  0.3195  0.2850
 1760SOL     hw 7039   5.557   3.348   0.133 -1.0034 -0.3773 -0.1744
 1760SOL     vw 7040   5.515   3.424   0.143 -0.5822 -0.1497 -0.1207
 1761SOL     ow 7041   3.645   4.617   6.203 -0.2603 -0.0142 -0.1258
 1761SOL     hw 7042   3.646   4.622   6.298  1.4655 -0.4930 -0.0964
 1761SOL     hw 7043   3.615   4.704   6.175 -1.2515 -0.0275  0.8406
 1761SOL     vw 7044   3.641   4.629   6.212 -0.1634 -0.0789  0.0055
 1762SOL     ow 7045   2.960   4.492   5.329 -0.2698 -0.1587 -0.2128
 1762SOL     hw 7046   2.997   4.503   5.241  0.0153  2.0339  0.1247
 1762SOL     hw 7047   3.034   4.464   5.382 -0.0352  0.1490 -0.3679
 1762SOL     vw 7048   2.975   4.490   5.324 -0.2012  0.1712 -0.1886
 1763SOL     ow 7049   2.172   5.229   2.233 -0.1688 -0.2464  0.3123
 1763SOL     hw 7050   2.221   5.183   2.164 -0.8870 -0.1046 -0.3010
 1763SOL     hw 7051   2.166   5.319   2.201 -0.3663 -0.1435  0.6403
 1763SOL     vw 7052   2.178   5.235   2.219 -0.2897 -0.2143  0.2747
 1764SOL     ow 7053   6.664   2.730   5.893 -0.1899 -0.2837  0.1460
 1764SOL     hw 7054   6.575   2.723   5.927  0.2601 -1.4654  1.1874
 1764SOL     hw 7055   6.717   2.677   5.953  0.6870 -2.4349 -2.3283
 1764SOL     vw 7056   6.659   2.722   5.906 -0.0150 -0.7234 -0.0432
 1765SOL     ow 7057   3.989   2.918   4.011  0.3301 -0.8300  0.5602
 1765SOL     hw 7058   3.998   2.959   3.925  0.6685 -0.0190  0.9628
 1765SOL     hw 7059   3.978   2.825   3.993 -2.8008 -0.3712 -0.5209
 1765SOL     vw 7060   3.989   2.911   3.997 -0.0383 -0.6624  0.4708
 1766SOL     ow 7061   2.222   2.375   0.208 -0.2592 -0.2499 -0.3227
 1766SOL     hw 7062   2.280   2.381   0.284 -0.4971  0.4963 -0.1889
 1766SOL     hw 7063   2.282   2.374   0.133 -0.0651  1.2472 -0.2241
 1766SOL     vw 7064   2.238   2.376   0.208 -0.2650  0.0460 -0.2920
 1767SOL     ow 7065   6.536   4.642   3.996  0.0618 -0.2280 -0.1033
 1767SOL     hw 7066   6.620   4.669   4.033  0.4241 -1.7548  0.2819
 1767SOL     hw 7067   6.503   4.578   4.059 -1.5819  0.6125 -0.0711
 1767SOL     vw 7068   6.543   4.637   4.009 -0.1070 -0.3185 -0.0479
 1768SOL     ow 7069   1.331   2.900   5.122  0.2605  0.2081  0.2701
 1768SOL     hw 7070   1.275   2.969   5.157  0.2697 -0.0654  0.8370
 1768SOL     hw 7071   1.276   2.822   5.122 -0.3503  0.5732 -2.1167
 1768SOL     vw 7072   1.316   2.899   5.127  0.1812  0.2203  0.0298
 1769SOL     ow 7073   5.715   0.013   6.736 -0.0368  0.1412  0.1642
 1769SOL     hw 7074   5.767  -0.046   6.682  0.2596 -0.4778  1.0845
 1769SOL     hw 7075   5.706   0.093   6.685 -1.7972 -1.2305 -1.8405
 1769SOL     vw 7076   5.720   0.016   6.722 -0.2298 -0.1218  0.0212
 1770SOL     ow 7077   2.483   1.477   2.653 -0.8536 -0.3715  0.0169
 1770SOL     hw 7078   2.449   1.541   2.590  1.0488  0.8927  0.1638
 1770SOL     hw 7079   2.562   1.442   2.611 -1.4546 -2.0959  0.2725
 1770SOL     vw 7080   2.489   1.481   2.639 -0.6818 -0.4323  0.0700
 1771SOL     ow 7081   4.741   5.304   1.094  0.1898 -0.1768 -0.0566
 1771SOL     hw 7082   4.808   5.303   1.025 -1.2156  0.3812 -1.4748
 1771SOL     hw 7083   4.677   5.368   1.064 -1.5357 -1.4815  0.7210
 1771SOL     vw 7084   4.741   5.312   1.081 -0.2232 -0.2751 -0.1411
 1772SOL     ow 7085   0.240   0.971   5.313  0.0048 -0.4417 -0.0537
 1772SOL     hw 7086   0.156   0.925   5.320  0.0755 -0.4996  0.4767
 1772SOL     hw 7087   0.302   0.916   5.360 -0.2266  0.9232  2.0105
 1772SOL     vw 7088   0.237   0.958   5.320 -0.0164 -0.2693  0.2885
 1773SOL     ow 7089   5.487   2.854   1.869  0.4542 -0.1308  0.6666
 1773SOL     hw 7090   5.555   2.814   1.923  1.0126  1.2526  1.0297
 1773SOL     hw 7091   5.477   2.942   1.905  1.4753  1.1805 -2.0178
 1773SOL     vw 7092   5.494   2.860   1.881  0.6628  0.2246  0.3603
 1774SOL     ow 7093   5.103   2.298   4.282  0.3595  0.2205  0.1927
 1774SOL     hw 7094   5.072   2.222   4.331 -0.5042  0.3325 -0.1638
 1774SOL     hw 7095   5.025   2.333   4.239  0.9698  0.5243 -0.7126
 1774SOL     vw 7096   5.089   2.293   4.283  0.3262  0.2754  0.0265
 1775SOL     ow 7097   3.466   0.545   6.665  0.0105  0.1322  0.0869
 1775SOL     hw 7098   3.508   0.622   6.704  0.9006  0.1497 -0.8561
 1775SOL     hw 7099   3.373   0.557   6.682  0.3300  0.2317  2.0175
 1775SOL     vw 7100   3.459   0.557   6.672  0.1701  0.1476  0.2172
 1776SOL     ow 7101   3.091   6.903   2.285 -0.2553 -0.3017 -0.7727
 1776SOL     hw 7102   3.158   6.839   2.260  0.3489  0.3677 -0.8836
 1776SOL     hw 7103   3.075   6.886   2.378 -1.4625 -1.8467 -1.2114
 1776SOL     vw 7104   3.097   6.892   2.294 -0.3349 -0.4172 -0.8453
 1777SOL     ow 7105   0.225   2.607   3.699  0.0643  0.6422  0.2407
 1777SOL     hw 7106   0.226   2.611   3.603 -1.7802  2.1734  0.2377
 1777SOL     hw 7107   0.180   2.524   3.719 -2.6641  1.8895 -0.3124
 1777SOL     vw 7108   0.219   2.596   3.689 -0.5391  1.0089  0.1673
 1778SOL     ow 7109   5.179   5.837   3.966  0.2159 -0.4860 -0.0121
 1778SOL     hw 7110   5.211   5.753   3.999  3.0385  0.8273  0.8756
 1778SOL     hw 7111   5.174   5.893   4.043  0.0574  0.6411 -0.8252
 1778SOL     vw 7112   5.183   5.833   3.980  0.5674 -0.1643 -0.0024
 1779SOL     ow 7113   1.743   4.548   1.431 -0.1782  0.1861 -0.3249
 1779SOL     hw 7114   1.690   4.553   1.352 -1.0279 -0.9140  0.1571
 1779SOL     hw 7115   1.681   4.524   1.501  0.9640 -1.3885  0.2069
 1779SOL     vw 7116   1.728   4.546   1.430 -0.1396 -0.1669 -0.1912
 1780SOL     ow 7117   2.250   2.242   6.026 -0.2087  0.7756 -0.5060
 1780SOL     hw 7118   2.276   2.234   5.934  1.5849  0.9786 -0.0553
 1780SOL     hw 7119   2.282   2.161   6.066 -1.5369  0.4004 -0.1580
 1780SOL     vw 7120   2.257   2.230   6.019 -0.1472  0.7529 -0.4008
 1781SOL     ow 7121   1.589   3.582   4.209 -0.3336  0.2908  0.1979
 1781SOL     hw 7122   1.582   3.534   4.126  1.1369 -0.4391  0.4757
 1781SOL     hw 7123   1.502   3.621   4.221 -0.5203  0.5844 -1.7793
 1781SOL     vw 7124   1.576   3.581   4.199 -0.1642  0.2332 -0.0265
 1782SOL     ow 7125   3.766   5.094   3.023  0.1293 -0.3543 -0.3062
 1782SOL     hw 7126   3.731   5.167   2.972  2.2491  1.3358  0.5349
 1782SOL     hw 7127   3.703   5.082   3.094 -0.0757  0.8679 -0.2653
 1782SOL     vw 7128   3.753   5.102   3.025  0.3818  0.0298 -0.1899
 1783SOL     ow 7129   5.597   6.487   4.964  0.0429 -0.3433  0.0724
 1783SOL     hw 7130   5.621   6.520   5.051  0.5172 -0.4779 -0.0035
 1783SOL     hw 7131   5.559   6.400   4.981 -0.9696  0.1221  0.2478
 1783SOL     vw 7132   5.595   6.480   4.978 -0.0281 -0.2999  0.0856
 1784SOL     ow 7133   4.460   6.377   1.149  0.2197 -0.1788  0.4509
 1784SOL     hw 7134   4.499   6.456   1.110 -0.4054  0.2940  0.7588
 1784SOL     hw 7135   4.462   6.313   1.078  1.0865 -0.0172  0.3060
 1784SOL     vw 7136   4.466   6.379   1.134  0.2515 -0.0949  0.4724
 1785SOL     ow 7137   4.761   3.064   0.941  0.0335  0.0887  0.1541
 1785SOL     hw 7138   4.801   3.011   1.010 -1.1954 -0.5477  0.4091
 1785SOL     hw 7139   4.683   3.102   0.981 -0.1487  0.5465 -0.5953
 1785SOL     vw 7140   4.756   3.062   0.955 -0.1528  0.0652  0.0889
 1786SOL     ow 7141   3.193   2.907   4.542 -0.6837  0.2558 -0.5327
 1786SOL     hw 7142   3.284   2.921   4.517 -0.3375  1.0915  1.0513
 1786SOL     hw 7143   3.144   2.966   4.485  0.2343  3.4493  1.6963
 1786SOL     vw 7144   3.198   2.917   4.532 -0.5169  0.7875 -0.0293
 1787SOL     ow 7145   2.811   2.552   6.486  0.5726 -0.0378 -0.4158
 1787SOL     hw 7146   2.820   2.644   6.511 -2.4683  0.7680 -1.7746
 1787SOL     hw 7147   2.897   2.514   6.504  1.9845  3.0520  0.1476
 1787SOL     vw 7148   2.824   2.559   6.492  0.3577  0.4761 -0.5207
 1788SOL     ow 7149   0.913   4.323   1.480 -0.6005 -0.8307 -0.0454
 1788SOL     hw 7150   0.895   4.356   1.392  1.7070 -2.3238 -1.1704
 1788SOL     hw 7151   0.830   4.284   1.508 -1.9679  1.4339 -0.6637
 1788SOL     vw 7152   0.899   4.322   1.472 -0.4765 -0.7286 -0.2754
 1789SOL     ow 7153   3.325   0.468   6.977 -0.3459  0.0111  0.6863
 1789SOL     hw 7154   3.420   0.478   6.986 -0.4926  1.5712  0.7548
 1789SOL     hw 7155   3.289   0.549   7.013 -1.6861 -0.3120  0.1334
 1789SOL     vw 7156   3.333   0.480   6.983 -0.5420  0.1744  0.6223
 1790SOL     ow 7157   5.510   7.191   2.506 -0.4073  0.4143 -0.3081
 1790SOL     hw 7158   5.562   7.151   2.436  1.1216  2.0684 -0.2092
 1790SOL     hw 7159   5.570   7.196   2.580 -1.1941  0.9950  0.3023
 1790SOL     vw 7160   5.525   7.187   2.506 -0.3092  0.7091 -0.2145
 1791SOL     ow 7161   5.783   3.545   0.221  0.6255 -0.0063 -0.4874
 1791SOL     hw 7162   5.803   3.567   0.312  1.8464  2.5663 -1.2772
 1791SOL     hw 7163   5.865   3.507   0.187  1.3539  2.1951 -1.3478
 1791SOL     vw 7164   5.796   3.543   0.228  0.8826  0.6236 -0.7052
 1792SOL     ow 7165   6.403   1.378   0.261 -0.1580 -0.6405  0.1023
 1792SOL     hw 7166   6.458   1.451   0.230  2.0929 -2.1891  0.2474
 1792SOL     hw 7167   6.416   1.377   0.355  0.8053 -1.9559 -0.0294
 1792SOL     vw 7168   6.412   1.388   0.269  0.2658 -1.0183  0.1041
 1793SOL     ow 7169   5.975   4.728   3.428 -0.5204 -0.2317  0.9141
 1793SOL     hw 7170   5.918   4.740   3.503 -0.6299  0.9312  0.6689
 1793SOL     hw 7171   5.915   4.714   3.354 -0.6230  2.3867  0.4031
 1793SOL     vw 7172   5.960   4.728   3.428 -0.5486  0.2670  0.8142
 1794SOL     ow 7173   1.996   1.310   6.013  0.0389  0.7748 -0.0790
 1794SOL     hw 7174   1.943   1.240   6.051 -1.0416  1.2255 -0.7214
 1794SOL     hw 7175   1.977   1.307   5.920 -0.8368  2.5663 -0.0057
 1794SOL     vw 7176   1.986   1.300   6.006 -0.2192  1.0706 -0.1540
 1795SOL     ow 7177   3.311   3.408   5.225  0.0333 -0.5322  0.1848
 1795SOL     hw 7178   3.362   3.429   5.147  2.2749  0.3972  1.7849
 1795SOL     hw 7179   3.341   3.471   5.291 -0.2350 -2.5517  2.3809
 1795SOL     vw 7180   3.322   3.419   5.224  0.2937 -0.6760  0.6855
 1796SOL     ow 7181   6.293   0.752   5.432  0.2488 -0.4979  0.2072
 1796SOL     hw 7182   6.337   0.833   5.407 -0.6594  0.4775  1.6399
 1796SOL     hw 7183   6.364   0.695   5.463  1.1256 -0.9783 -2.4528
 1796SOL     vw 7184   6.308   0.755   5.433  0.2446 -0.4326  0.0453
 1797SOL     ow 7185   3.273   3.742   3.525  0.4680  0.2555  0.5590
 1797SOL     hw 7186   3.316   3.769   3.444 -0.7855 -0.0580 -0.2370
 1797SOL     hw 7187   3.255   3.824   3.571 -0.1928  0.5623 -0.2171
 1797SOL     vw 7188   3.276   3.757   3.520  0.2153  0.2546  0.3515
 1798SOL     ow 7189   4.030   4.006   1.741 -0.6360  0.2234 -0.3583
 1798SOL     hw 7190   4.125   4.003   1.732 -0.3755 -1.3067  1.9738
 1798SOL     hw 7191   4.004   4.090   1.702  1.6914  0.8194 -0.7468
 1798SOL     vw 7192   4.039   4.017   1.735 -0.2947  0.1004 -0.1019
 1799SOL     ow 7193   0.272   2.075   4.620 -0.2271 -0.4007 -0.4251
 1799SOL     hw 7194   0.353   2.062   4.571 -0.4824  0.1973 -1.0152
 1799SOL     hw 7195   0.290   2.035   4.705  0.4431 -0.8949 -0.7781
 1799SOL     vw 7196   0.285   2.068   4.625 -0.1724 -0.3871 -0.5493
 1800SOL     ow 7197   3.191   4.461   5.534  0.4608  0.4780 -0.4407
 1800SOL     hw 7198   3.226   4.377   5.504  0.0159  0.0625  0.1688
 1800SOL     hw 7199   3.242   4.527   5.487 -0.0767 -0.1340 -1.9497
 1800SOL     vw 7200   3.202   4.459   5.524  0.3313  0.3424 -0.5591
 1801SOL     ow 7201   0.105   1.378   1.467  0.3676 -0.3912 -0.0595
 1801SOL     hw 7202   0.064   1.300   1.429  0.2452  0.0685 -0.8947
 1801SOL     hw 7203   0.048   1.401   1.541 -0.7013  0.0105 -0.9698
 1801SOL     vw 7204   0.092   1.371   1.472  0.2104 -0.2776 -0.2899
 1802SOL     ow 7205   0.002   4.152   6.636 -0.5325  0.1072  0.3769
 1802SOL     hw 7206   0.020   4.087   6.568  1.4438 -0.6154  1.4905
 1802SOL     hw 7207  -0.093   4.163   6.635 -0.9950 -2.9719  0.2643
 1802SOL     vw 7208  -0.008   4.144   6.627 -0.3328 -0.3943  0.5090
 1803SOL     ow 7209   0.095   2.374   7.136 -0.0048 -0.2502 -0.9358
 1803SOL     hw 7210   0.089   2.335   7.049  1.8581  0.6477 -1.5290
 1803SOL     hw 7211   0.026   2.440   7.137 -0.3842 -0.6244 -1.5268
 1803SOL     vw 7212   0.085   2.378   7.125  0.1909 -0.1812 -1.0920
 1804SOL     ow 7213   0.314   4.507   3.080  0.2209  0.8682 -0.5878
 1804SOL     hw 7214   0.364   4.441   3.129  1.2707  1.2678 -1.0955
 1804SOL     hw 7215   0.243   4.532   3.139  0.4758  0.1128  0.0556
 1804SOL     vw 7216   0.311   4.501   3.094  0.3930  0.8211 -0.5698
 1805SOL     ow 7217   4.345   5.442   4.607  0.6003 -0.2250 -0.2262
 1805SOL     hw 7218   4.268   5.396   4.574 -0.5402  1.3537  0.1616
 1805SOL     hw 7219   4.384   5.482   4.529 -1.5036  2.6262  0.0475
 1805SOL     vw 7220   4.340   5.441   4.592  0.1724  0.3595 -0.1390
 1806SOL     ow 7221   5.224   2.745   6.690 -0.7008 -0.5380  0.1567
 1806SOL     hw 7222   5.171   2.799   6.750  0.2354 -0.7565  1.2036
 1806SOL     hw 7223   5.175   2.664   6.681  1.2591 -2.4923  4.4574
 1806SOL     vw 7224   5.210   2.742   6.697 -0.3185 -0.8247  0.8619
 1807SOL     ow 7225   4.239   2.305   2.484 -0.3768  0.1383  0.5935
 1807SOL     hw 7226   4.201   2.382   2.443  0.3314  0.7535  1.0693
 1807SOL     hw 7227   4.166   2.244   2.493 -1.2612  1.2881  1.4770
 1807SOL     vw 7228   4.224   2.307   2.480 -0.4001  0.3712  0.7728
 1808SOL     ow 7229   2.808   3.918   0.677  0.5282 -0.3131  0.3718
 1808SOL     hw 7230   2.825   3.949   0.766  0.3575  2.5468 -0.4887
 1808SOL     hw 7231   2.727   3.868   0.684  1.6993 -2.1047  2.1559
 1808SOL     vw 7232   2.800   3.916   0.690  0.6603 -0.1721  0.4936
 1809SOL     ow 7233   2.027   5.789   2.449 -0.4915  0.2368  0.2153
 1809SOL     hw 7234   2.111   5.747   2.429 -0.4173 -0.1255  1.2552
 1809SOL     hw 7235   1.962   5.719   2.439 -0.6791  0.5004 -0.5227
 1809SOL     vw 7236   2.029   5.774   2.445 -0.5065  0.2239  0.2551
 1810SOL     ow 7237   6.251   3.881   7.215  0.2310  0.1228 -0.1424
 1810SOL     hw 7238   6.247   3.928   7.132  2.2583 -0.8373 -0.8484
 1810SOL     hw 7239   6.160   3.867   7.239 -0.4183  0.1084 -2.4042
 1810SOL     vw 7240   6.239   3.885   7.207  0.4129 -0.0057 -0.5336
 1811SOL     ow 7241   6.359   5.448   1.760  0.4782 -0.2316 -0.5528
 1811SOL     hw 7242   6.403   5.363   1.762  0.7634 -0.0865 -0.5868
 1811SOL     hw 7243   6.414   5.505   1.813 -0.3019 -0.3402  0.3850
 1811SOL     vw 7244   6.372   5.445   1.767  0.4132 -0.2267 -0.4336
 1812SOL     ow 7245   1.389   7.156   1.434 -0.1831  0.4415 -0.1869
 1812SOL     hw 7246   1.351   7.154   1.346  0.7252 -1.5617 -0.5931
 1812SOL     hw 7247   1.314   7.147   1.493 -0.7871  1.6766 -0.7291
 1812SOL     vw 7248   1.374   7.154   1.430 -0.1429  0.3402 -0.3120
 1813SOL     ow 7249   3.063   6.931   6.719 -0.0449  0.4871  0.1489
 1813SOL     hw 7250   3.001   6.864   6.690  1.0852 -1.2943  1.6437
 1813SOL     hw 7251   3.147   6.885   6.727  0.7418  2.0294  1.3667
 1813SOL     vw 7252   3.066   6.916   6.716  0.2080  0.4556  0.5069
 1814SOL     ow 7253   3.569   0.287   4.095  0.2585  0.1854  0.2567
 1814SOL     hw 7254   3.629   0.269   4.023  1.3930  1.2102  0.9163
 1814SOL     hw 7255   3.483   0.293   4.053  0.4963 -1.8654 -0.6231
 1814SOL     vw 7256   3.565   0.286   4.080  0.4396  0.0501  0.2275
 1815SOL     ow 7257   5.677   4.916   2.600  1.7200 -0.3416  0.2179
 1815SOL     hw 7258   5.630   4.925   2.684  0.4283  1.8597 -0.6477
 1815SOL     hw 7259   5.622   4.856   2.549  1.2025  0.1997  0.1237
 1815SOL     vw 7260   5.663   4.909   2.604  1.4813  0.0203  0.0913
 1816SOL     ow 7261   5.195   3.723   0.650 -0.2546  0.0474 -0.2989
 1816SOL     hw 7262   5.277   3.758   0.615 -0.1577 -0.9515 -1.1225
 1816SOL     hw 7263   5.156   3.796   0.697  2.1769 -0.0372  2.0951
 1816SOL     vw 7264   5.201   3.737   0.652  0.0794 -0.0954 -0.0917
 1817SOL     ow 7265   1.751   2.601   1.852  0.0938 -0.2712  0.0641
 1817SOL     hw 7266   1.765   2.551   1.932  0.5901 -0.9189 -0.4219
 1817SOL     hw 7267   1.760   2.693   1.879 -0.9699 -0.4236  0.9863
 1817SOL     vw 7268   1.754   2.607   1.866  0.0189 -0.3768  0.1217
 1818SOL     ow 7269   2.874   1.931   3.238  0.3400 -0.0927 -1.1277
 1818SOL     hw 7270   2.836   2.016   3.213 -0.9613 -0.1496  0.5025
 1818SOL     hw 7271   2.869   1.878   3.158  0.2178  1.0336 -1.8890
 1818SOL     vw 7272   2.868   1.935   3.224  0.1521  0.0484 -1.0130
 1819SOL     ow 7273   0.270   2.706   0.009 -0.1850 -0.8065  0.0450
 1819SOL     hw 7274   0.279   2.758  -0.071 -3.2634 -2.1223 -1.3126
 1819SOL     hw 7275   0.177   2.711   0.030  0.3397 -1.4768  2.9375
 1819SOL     vw 7276   0.259   2.714   0.001 -0.5220 -1.0687  0.2475
 1820SOL     ow 7277   5.732   0.858   2.855 -0.2840 -0.1548 -0.1423
 1820SOL     hw 7278   5.665   0.830   2.918  0.4113  0.2749  0.8226
 1820SOL     hw 7279   5.685   0.867   2.772 -0.9105 -2.2510 -0.0589
 1820SOL     vw 7280   5.717   0.856   2.852 -0.2747 -0.3747 -0.0039
 1821SOL     ow 7281   1.655   2.287   0.859 -0.0191  0.5349  0.1211
 1821SOL     hw 7282   1.563   2.282   0.885  0.4089 -0.9618  1.5525
 1821SOL     hw 7283   1.699   2.326   0.933  0.6454  0.2259 -0.1034
 1821SOL     vw 7284   1.648   2.291   0.872  0.1251  0.2966  0.2803
 1822SOL     ow 7285   2.974   4.306   1.345  0.2344 -0.0613  0.0308
 1822SOL     hw 7286   2.879   4.308   1.356 -0.0663  0.8810 -2.2035
 1822SOL     hw 7287   2.991   4.360   1.268  2.5183 -0.9180 -0.1577
 1822SOL     vw 7288   2.964   4.313   1.336  0.4960 -0.0498 -0.2889
 1823SOL     ow 7289   3.195   5.307   5.103 -0.2438  0.3723  0.2665
 1823SOL     hw 7290   3.114   5.318   5.054 -0.0684  0.3078 -0.0427
 1823SOL     hw 7291   3.213   5.213   5.100 -0.0195  0.4204  0.1114
 1823SOL     vw 7292   3.187   5.296   5.096 -0.1910  0.3700  0.2050
 1824SOL     ow 7293   3.649   2.250   5.348  0.9812  0.2290  0.0226
 1824SOL     hw 7294   3.610   2.236   5.262 -0.2604  1.0001  0.4379
 1824SOL     hw 7295   3.738   2.215   5.340  0.9879  0.5519 -1.6556
 1824SOL     vw 7296   3.656   2.244   5.336  0.8184  0.3734 -0.1438
 1825SOL     ow 7297   2.838   3.254   3.986  0.8064  0.5719 -0.1768
 1825SOL     hw 7298   2.763   3.226   3.934  3.3181 -1.3753 -3.1447
 1825SOL     hw 7299   2.872   3.173   4.024  0.8461  1.5618  2.0338
 1825SOL     vw 7300   2.833   3.239   3.984  1.1431  0.4457 -0.2768
 1826SOL     ow 7301   1.667   3.907   4.277  0.0700 -0.3988 -0.8299
 1826SOL     hw 7302   1.574   3.887   4.271 -0.0228 -0.1654 -0.1863
 1826SOL     hw 7303   1.699   3.901   4.187 -0.7071  0.2050 -1.1523
 1826SOL     vw 7304   1.659   3.904   4.264 -0.0447 -0.2884 -0.7875
 1827SOL     ow 7305   1.718   3.692   3.256 -0.2866 -0.1201  0.0228
 1827SOL     hw 7306   1.732   3.784   3.237  0.8004 -0.3732 -0.4851
 1827SOL     hw 7307   1.625   3.686   3.278 -0.4107  1.0571 -0.1152
 1827SOL     vw 7308   1.708   3.703   3.257 -0.1596  0.0020 -0.0626
 1828SOL     ow 7309   3.935   1.254   0.539  0.4996 -0.3689 -0.0891
 1828SOL     hw 7310   3.933   1.248   0.444 -1.9253 -0.0392 -0.1324
 1828SOL     hw 7311   3.964   1.343   0.558 -1.3825  0.4160 -0.6529
 1828SOL     vw 7312   3.939   1.265   0.529 -0.0685 -0.2218 -0.1692
 1829SOL     ow 7313   0.876   6.944   4.109  0.0791 -1.1297  0.2541
 1829SOL     hw 7314   0.814   6.940   4.037 -0.5029  3.0532  0.2820
 1829SOL     hw 7315   0.823   6.934   4.188  0.0553 -1.2691  0.2213
 1829SOL     vw 7316   0.861   6.942   4.110 -0.0009 -0.5960  0.2534
 1830SOL     ow 7317   2.170   6.585   1.936  0.0810 -0.3866 -0.1124
 1830SOL     hw 7318   2.256   6.545   1.926  0.2265 -0.5430  1.5604
 1830SOL     hw 7319   2.118   6.520   1.983 -1.0292 -0.3625 -1.2385
 1830SOL     vw 7320   2.175   6.571   1.941 -0.0461 -0.4039 -0.0403
 1831SOL     ow 7321   5.531   5.339   2.699  0.0376 -0.0810  1.0803
 1831SOL     hw 7322   5.536   5.407   2.632  0.5563 -0.1864  1.0064
 1831SOL     hw 7323   5.478   5.377   2.768 -0.3358  0.1053  0.6989
 1831SOL     vw 7324   5.525   5.353   2.699  0.0567 -0.0701  1.0201
 1832SOL     ow 7325   3.245   2.465   3.025  0.1735  0.1752 -0.2376
 1832SOL     hw 7326   3.309   2.479   2.955 -0.6194 -1.0715 -1.2778
 1832SOL     hw 7327   3.289   2.405   3.086  0.1092 -0.4911 -0.8258
 1832SOL     vw 7328   3.259   2.459   3.023  0.0604 -0.0771 -0.4524
 1833SOL     ow 7329   4.411   6.148   0.995  0.0534 -0.4737 -0.0007
 1833SOL     hw 7330   4.503   6.125   0.980  0.9955  3.1953 -1.1414
 1833SOL     hw 7331   4.376   6.161   0.907 -1.0319 -0.0998  0.4781
 1833SOL     vw 7332   4.419   6.147   0.981  0.0343  0.0598 -0.0880
 1834SOL     ow 7333   3.057   4.465   6.609 -0.3310  0.4098 -0.2965
 1834SOL     hw 7334   3.105   4.446   6.689  2.8724 -0.0856 -2.1353
 1834SOL     hw 7335   3.072   4.558   6.593 -3.1689  1.1648  0.9065
 1834SOL     vw 7336   3.065   4.474   6.617 -0.2828  0.4442 -0.3805
 1835SOL     ow 7337   3.643   6.314   5.390 -0.2632 -0.3518 -0.3212
 1835SOL     hw 7338   3.645   6.246   5.323 -0.1715 -0.2574 -0.4145
 1835SOL     hw 7339   3.575   6.375   5.360 -1.8980 -1.5148  0.8494
 1835SOL     vw 7340   3.635   6.313   5.377 -0.4667 -0.4926 -0.1793
 1836SOL     ow 7341   1.981   5.884   2.206  0.0649  0.7174 -0.0125
 1836SOL     hw 7342   1.988   5.862   2.299  3.2284 -1.7671 -0.6794
 1836SOL     hw 7343   2.028   5.967   2.197  0.6827  0.4250  0.4658
 1836SOL     vw 7344   1.988   5.892   2.217  0.5637  0.3507 -0.0374
 1837SOL     ow 7345   0.329   2.370   0.368  0.2699 -0.3661 -0.9692
 1837SOL     hw 7346   0.249   2.350   0.417  2.2858  0.1911  2.9039
 1837SOL     hw 7347   0.297   2.401   0.283 -3.6497  0.3118  0.5267
 1837SOL     vw 7348   0.314   2.371   0.363  0.0187 -0.2033 -0.2609
 1838SOL     ow 7349   1.207   3.498   2.857 -0.3034  0.0447 -0.1285
 1838SOL     hw 7350   1.148   3.568   2.887 -0.4186 -1.0096  2.3347
 1838SOL     hw 7351   1.294   3.527   2.882 -0.2574 -0.2978  0.1187
 1838SOL     vw 7352   1.211   3.511   2.864 -0.3126 -0.1396  0.2291
 1839SOL     ow 7353   5.341   2.951   2.692  0.1205  0.0395  0.1918
 1839SOL     hw 7354   5.250   2.980   2.683 -0.4282 -1.2229  1.1591
 1839SOL     hw 7355   5.380   3.013   2.753  0.2325  1.2119 -1.0439
 1839SOL     vw 7356   5.334   2.963   2.699  0.0629  0.0277  0.1563
 1840SOL     ow 7357   4.111   7.176   3.281 -0.2234 -0.2737 -0.0248
 1840SOL     hw 7358   4.100   7.107   3.215 -1.0962 -0.6977  0.5413
 1840SOL     hw 7359   4.205   7.189   3.287 -0.0637 -1.1804 -0.3876
 1840SOL     vw 7360   4.122   7.168   3.273 -0.3176 -0.4494  0.0019
 1841SOL     ow 7361   5.031   6.892   2.386  0.0797  0.5556 -0.2993
 1841SOL     hw 7362   4.961   6.954   2.365  0.0143  0.1761 -1.2965
 1841SOL     hw 7363   5.051   6.850   2.302  0.1075 -0.7799  0.3450
 1841SOL     vw 7364   5.024   6.895   2.372  0.0749  0.3295 -0.3459
 1842SOL     ow 7365   3.166   0.631   0.377 -0.0324 -0.9199 -0.0909
 1842SOL     hw 7366   3.225   0.628   0.452 -0.9265  0.8380  0.7318
 1842SOL     hw 7367   3.224   0.644   0.301  0.6549  1.2348  0.7378
 1842SOL     vw 7368   3.182   0.632   0.377 -0.0597 -0.4037  0.1270
 1843SOL     ow 7369   6.111   5.560   0.467  0.2933  0.3887  0.2302
 1843SOL     hw 7370   6.084   5.470   0.481 -0.6122  0.7651  0.9950
 1843SOL     hw 7371   6.149   5.588   0.550  1.0662  0.5440 -0.1722
 1843SOL     vw 7372   6.112   5.552   0.479  0.2756  0.4590  0.2781
 1844SOL     ow 7373   6.829   0.656   2.934 -0.4521 -0.5113 -0.2180
 1844SOL     hw 7374   6.828   0.564   2.962  0.6871 -0.3150  0.5340
 1844SOL     hw 7375   6.859   0.704   3.012 -2.9550  0.7517  0.0578
 1844SOL     vw 7376   6.833   0.650   2.948 -0.6323 -0.3188 -0.0824
 1845SOL     ow 7377   2.876   1.627   0.489  0.2207 -0.0848  0.1473
 1845SOL     hw 7378   2.886   1.633   0.584  0.3964  0.0946  0.1201
 1845SOL     hw 7379   2.953   1.578   0.460  0.0046 -0.4116  0.1284
 1845SOL     vw 7380   2.888   1.622   0.498  0.2154 -0.1043  0.1412
 1846SOL     ow 7381   5.226   5.625   1.193  0.5028  0.0579 -0.0768
 1846SOL     hw 7382   5.154   5.639   1.131 -0.2343 -0.1601  0.7071
 1846SOL     hw 7383   5.287   5.568   1.147 -0.3121 -0.5724 -0.4018
 1846SOL     vw 7384   5.224   5.620   1.179  0.2980 -0.0541 -0.0163
 1847SOL     ow 7385   2.291   4.154   2.942  0.8369  0.0322 -0.1497
 1847SOL     hw 7386   2.344   4.213   2.889  0.3226  0.5220 -0.1258
 1847SOL     hw 7387   2.211   4.141   2.892  0.2339  0.7044  0.6000
 1847SOL     vw 7388   2.288   4.160   2.929  0.6895  0.1857 -0.0478
 1848SOL     ow 7389   5.213   3.709   1.165 -0.2261  0.1030 -0.5522
 1848SOL     hw 7390   5.299   3.696   1.205 -0.2229  1.1984 -0.1667
 1848SOL     hw 7391   5.158   3.741   1.236 -0.6705  0.4435 -1.0415
 1848SOL     vw 7392   5.217   3.711   1.180 -0.2844  0.2924 -0.5658
 1849SOL     ow 7393   3.075   2.073   0.658  0.3561 -0.4004  0.0715
 1849SOL     hw 7394   3.083   2.034   0.571  1.2889 -1.6380  0.6893
 1849SOL     hw 7395   2.983   2.061   0.681  0.2356 -0.6038 -0.5049
 1849SOL     vw 7396   3.064   2.066   0.650  0.4634 -0.5907  0.0769
 1850SOL     ow 7397   5.372   2.580   0.371 -0.0328  0.7290 -0.3349
 1850SOL     hw 7398   5.331   2.539   0.295 -0.1703 -2.4842  1.3051
 1850SOL     hw 7399   5.307   2.642   0.403 -1.4531 -0.4825 -0.7920
 1850SOL     vw 7400   5.358   2.583   0.365 -0.2384  0.1452 -0.1788
 1851SOL     ow 7401   1.596   6.637   1.859 -0.3177  0.1326  0.1463
 1851SOL     hw 7402   1.647   6.564   1.825 -0.7885 -0.0639 -0.1517
 1851SOL     hw 7403   1.661   6.696   1.899  0.4111  0.9486 -2.0824
 1851SOL     vw 7404   1.611   6.636   1.860 -0.2837  0.2141 -0.1872
 1852SOL     ow 7405   3.339   0.296   7.168 -0.0350 -0.1243 -0.6963
 1852SOL     hw 7406   3.259   0.273   7.214 -1.0889  0.1157 -2.3415
 1852SOL     hw 7407   3.311   0.353   7.097  1.4679 -0.7353 -1.8491
 1852SOL     vw 7408   3.325   0.300   7.165  0.0243 -0.1732 -1.0655
 1853SOL     ow 7409   6.242   0.434   3.098 -0.2760 -0.6434 -0.0469
 1853SOL     hw 7410   6.328   0.405   3.131  0.0011  0.4059  0.1939
 1853SOL     hw 7411   6.235   0.524   3.128 -0.0778  0.3525 -2.7489
 1853SOL     vw 7412   6.252   0.442   3.106 -0.2134 -0.3735 -0.3718
 1854SOL     ow 7413   5.103   5.948   3.728 -0.0405  0.1393  0.1776
 1854SOL     hw 7414   5.116   5.911   3.641  0.5105  1.8059 -0.4962
 1854SOL     hw 7415   5.189   5.982   3.753 -0.1833 -0.3450  1.4096
 1854SOL     vw 7416   5.116   5.948   3.720  0.0134  0.2952  0.2513
 1855SOL     ow 7417   2.260   1.384   6.036 -0.0418 -0.1872  0.0455
 1855SOL     hw 7418   2.173   1.344   6.036 -0.7959  1.3723 -0.4981
 1855SOL     hw 7419   2.306   1.342   5.963 -0.9091  0.1173 -0.6946
 1855SOL     vw 7420   2.254   1.373   6.026 -0.2558  0.0588 -0.1240
 1856SOL     ow 7421   4.133   2.901   0.325 -1.1830 -0.6996 -0.5195
 1856SOL     hw 7422   4.185   2.821   0.330 -2.4340 -1.5261 -0.1153
 1856SOL     hw 7423   4.072   2.894   0.399 -0.9136  0.9337 -0.1134
 1856SOL     vw 7424   4.132   2.889   0.336 -1.3123 -0.5931 -0.4126
 1857SOL     ow 7425   2.963   0.435   0.416 -0.4530 -0.3836 -0.3929
 1857SOL     hw 7426   3.049   0.476   0.404 -0.7708  0.5381  0.3450
 1857SOL     hw 7427   2.901   0.498   0.380 -0.8650 -0.7768 -0.3844
 1857SOL     vw 7428   2.966   0.449   0.410 -0.5493 -0.3139 -0.2944
 1858SOL     ow 7429   0.513   1.645   0.772 -0.1799 -1.2160 -0.7126
 1858SOL     hw 7430   0.503   1.550   0.775  0.6715 -1.3592 -1.7143
 1858SOL     hw 7431   0.430   1.676   0.736 -0.6294 -1.5384  0.0315
 1858SOL     vw 7432   0.501   1.636   0.767 -0.1268 -1.2774 -0.7466
 1859SOL     ow 7433   6.376   3.235   6.858  0.4318  0.1346 -0.2182
 1859SOL     hw 7434   6.308   3.242   6.792  0.1647 -2.1480 -0.2789
 1859SOL     hw 7435   6.426   3.157   6.833  0.6631 -0.4858  1.9126
 1859SOL     vw 7436   6.374   3.225   6.846  0.4272 -0.2484  0.0548
 1860SOL     ow 7437   2.351   1.921   1.337 -0.0492 -0.0872 -0.1963
 1860SOL     hw 7438   2.317   2.005   1.306 -0.2282  0.3305  1.0566
 1860SOL     hw 7439   2.385   1.940   1.425  0.1265 -1.2722  0.0062
 1860SOL     vw 7440   2.351   1.934   1.345 -0.0495 -0.1885 -0.0042
 1861SOL     ow 7441   4.291   4.141   3.667 -0.1307  0.6881  0.2959
 1861SOL     hw 7442   4.206   4.132   3.623 -0.6441  2.5073  0.8382
 1861SOL     hw 7443   4.306   4.235   3.672  2.5672  0.4189 -0.9258
 1861SOL     vw 7444   4.282   4.152   3.662  0.1576  0.8929  0.2062
 1862SOL     ow 7445   5.269   5.507   3.710 -0.1542  0.4114 -0.5632
 1862SOL     hw 7446   5.265   5.434   3.773 -1.8124  1.9891  1.2747
 1862SOL     hw 7447   5.362   5.530   3.707  0.3710 -1.5973 -1.0036
 1862SOL     vw 7448   5.281   5.500   3.718 -0.3037  0.3545 -0.3788
 1863SOL     ow 7449   4.203   1.437   6.820  0.5064  0.2199  0.1934
 1863SOL     hw 7450   4.117   1.412   6.853  0.5142 -1.4804 -0.9720
 1863SOL     hw 7451   4.185   1.483   6.738  0.6519  1.4508  0.8290
 1863SOL     vw 7452   4.189   1.440   6.814  0.5267  0.1579  0.1235
 1864SOL     ow 7453   2.604   0.365   4.590 -0.1245 -0.1118 -0.0005
 1864SOL     hw 7454   2.590   0.277   4.624 -1.3272 -0.1060 -0.4310
 1864SOL     hw 7455   2.624   0.418   4.667 -0.6016 -0.5223  0.4076
 1864SOL     vw 7456   2.605   0.360   4.605 -0.3462 -0.1652 -0.0033
 1865SOL     ow 7457   3.695   1.828   1.845  0.3467  0.1057  0.6245
 1865SOL     hw 7458   3.625   1.864   1.900  0.5007 -0.5241  1.2394
 1865SOL     hw 7459   3.674   1.735   1.837  0.8243  0.0189  0.3652
 1865SOL     vw 7460   3.683   1.821   1.851  0.4300  0.0111  0.6714
 1866SOL     ow 7461   2.089   0.522   3.319 -0.5800 -0.0899  0.6362
 1866SOL     hw 7462   2.006   0.505   3.275  0.1476 -0.5633 -0.6059
 1866SOL     hw 7463   2.088   0.465   3.395  0.0076 -2.7550 -1.1969
 1866SOL     vw 7464   2.078   0.512   3.323 -0.4064 -0.5039  0.2304
 1867SOL     ow 7465   3.396   1.228   6.751 -0.1344 -0.2609  0.0293
 1867SOL     hw 7466   3.368   1.301   6.695  0.5418  1.2413  1.5503
 1867SOL     hw 7467   3.468   1.187   6.703 -1.3470 -0.7777 -1.4328
 1867SOL     vw 7468   3.402   1.232   6.737 -0.2050 -0.1309  0.0372
 1868SOL     ow 7469   3.757   0.550   4.067 -0.2475  0.0893 -0.3702
 1868SOL     hw 7470   3.843   0.587   4.087 -0.7417  0.6671  0.7701
 1868SOL     hw 7471   3.762   0.526   3.975  0.6202  1.5675 -0.7424
 1868SOL     vw 7472   3.769   0.552   4.058 -0.1981  0.3606 -0.2687
 1869SOL     ow 7473   4.625   6.407   2.795  0.5299  0.1580  0.4756
 1869SOL     hw 7474   4.538   6.447   2.797  0.4189 -0.0366 -0.1757
 1869SOL     hw 7475   4.682   6.476   2.762  0.3725 -0.1378 -0.4521
 1869SOL     vw 7476   4.621   6.421   2.791  0.4947  0.0932  0.2674
 1870SOL     ow 7477   6.385   6.729   5.049  0.2009  0.7793  0.4412
 1870SOL     hw 7478   6.371   6.699   4.959 -0.7337  0.3653  0.7096
 1870SOL     hw 7479   6.459   6.677   5.080  0.6713  1.0771 -0.1466
 1870SOL     vw 7480   6.393   6.718   5.041  0.1395  0.7639  0.3991
 1871SOL     ow 7481   5.559   5.099   5.243  0.2994 -0.2429  0.4329
 1871SOL     hw 7482   5.508   5.062   5.171  1.0027  0.1239 -0.2690
 1871SOL     hw 7483   5.521   5.186   5.257  0.0286 -0.3954  0.6396
 1871SOL     vw 7484   5.547   5.106   5.235  0.3567 -0.2146  0.3672
 1872SOL     ow 7485   3.397   2.704   5.240  0.3414 -0.3405  0.1070
 1872SOL     hw 7486   3.422   2.754   5.318 -1.1455 -0.4006  0.6456
 1872SOL     hw 7487   3.322   2.651   5.268 -1.4043  0.9696 -1.7807
 1872SOL     vw 7488   3.390   2.704   5.254 -0.0851 -0.1756 -0.0710
 1873SOL     ow 7489   6.615   0.827   1.287 -0.1520  0.2883 -0.2141
 1873SOL     hw 7490   6.589   0.910   1.247  0.9520  1.1177  0.6858
 1873SOL     hw 7491   6.670   0.854   1.361 -1.3876 -1.1871  1.3017
 1873SOL     vw 7492   6.619   0.842   1.292 -0.1695  0.2030  0.1046
 1874SOL     ow 7493   6.437   1.456   3.186  0.2571  0.0890 -0.8274
 1874SOL     hw 7494   6.527   1.423   3.174  0.8098  1.2814 -0.0744
 1874SOL     hw 7495   6.447   1.551   3.188 -0.8303  0.1848  0.8233
 1874SOL     vw 7496   6.450   1.464   3.184  0.1864  0.2590 -0.5103
 1875SOL     ow 7497   5.041   5.320   6.867  0.0532 -0.4750  0.7395
 1875SOL     hw 7498   5.106   5.262   6.829  0.7988 -0.1183  1.4547
 1875SOL     hw 7499   5.089   5.374   6.929 -0.8908 -0.0844  1.1592
 1875SOL     vw 7500   5.056   5.320   6.870  0.0269 -0.3765  0.8893
 1876SOL     ow 7501   4.140   6.204   2.554  0.3793  0.7827  0.1193
 1876SOL     hw 7502   4.156   6.116   2.589 -0.5357  0.2235 -0.8317
 1876SOL     hw 7503   4.104   6.253   2.628  0.4300  0.2123  0.5282
 1876SOL     vw 7504   4.137   6.199   2.569  0.2651  0.6335  0.0479
 1877SOL     ow 7505   1.022   1.565   4.123  0.3027  0.3059  0.0079
 1877SOL     hw 7506   1.018   1.510   4.201 -2.1846  1.0464  0.5008
 1877SOL     hw 7507   1.017   1.504   4.049 -0.8834 -0.2312  0.5132
 1877SOL     vw 7508   1.021   1.550   4.123 -0.1819  0.3327  0.1395
 1878SOL     ow 7509   1.080   6.101   6.008  0.6032 -0.4568  0.2181
 1878SOL     hw 7510   1.111   6.017   5.975  0.7762  0.0845 -1.0998
 1878SOL     hw 7511   1.038   6.141   5.932  1.3486  1.0314  0.5582
 1878SOL     vw 7512   1.078   6.095   5.993  0.7243 -0.1891  0.0892
 1879SOL     ow 7513   3.428   3.989   4.042  0.6526  0.6937  0.2400
 1879SOL     hw 7514   3.524   3.985   4.034  0.6146  0.2530 -0.0241
 1879SOL     hw 7515   3.400   4.038   3.965  0.7546  1.9238  0.9661
 1879SOL     vw 7516   3.437   3.995   4.031  0.6610  0.7979  0.3006
 1880SOL     ow 7517   6.036   4.611   4.608  0.3466 -0.2149  0.3545
 1880SOL     hw 7518   6.056   4.557   4.685 -0.0650  0.0146  0.6283
 1880SOL     hw 7519   5.941   4.606   4.601  0.4938 -1.7903 -1.2728
 1880SOL     vw 7520   6.026   4.603   4.618  0.3119 -0.3922  0.1760
 1881SOL     ow 7521   4.899   2.191   5.329  0.1725 -0.3845  0.0438
 1881SOL     hw 7522   4.856   2.118   5.374  1.1568 -0.7486  0.4237
 1881SOL     hw 7523   4.939   2.243   5.399  0.0126  0.1701 -0.2693
 1881SOL     vw 7524   4.899   2.188   5.344  0.2813 -0.3593  0.0527
 1882SOL     ow 7525   1.952   5.567   1.079  0.1175  0.3377  0.5987
 1882SOL     hw 7526   1.899   5.557   1.158 -0.2356  1.0327  0.4587
 1882SOL     hw 7527   2.043   5.566   1.110 -0.0131  0.3490  0.9820
 1882SOL     vw 7528   1.957   5.566   1.093  0.0537  0.4311  0.6307
 1883SOL     ow 7529   2.204   1.218   6.558 -0.1984  0.0421 -0.3763
 1883SOL     hw 7530   2.179   1.138   6.512 -1.3076  0.2527 -0.1733
 1883SOL     hw 7531   2.299   1.220   6.553 -0.2126 -0.7808 -1.2402
 1883SOL     vw 7532   2.213   1.208   6.551 -0.3467 -0.0388 -0.4632
 1884SOL     ow 7533   5.639   2.504   0.264  0.1265  0.4548 -0.6430
 1884SOL     hw 7534   5.653   2.420   0.222  2.6208  0.4946 -0.0683
 1884SOL     hw 7535   5.716   2.556   0.240 -1.5240  2.7442 -1.3119
 1884SOL     vw 7536   5.651   2.500   0.255  0.2377  0.7621 -0.6554
 1885SOL     ow 7537   3.244   0.715   7.056  0.1420 -0.1898 -0.0395
 1885SOL     hw 7538   3.161   0.698   7.011 -0.2048 -1.5574  1.0599
 1885SOL     hw 7539   3.299   0.757   6.989 -1.3622  0.5950 -0.8366
 1885SOL     vw 7540   3.240   0.718   7.041 -0.1022 -0.2666  0.0002
 1886SOL     ow 7541   5.038   0.713   2.707 -0.1105  0.1640  0.3190
 1886SOL     hw 7542   4.983   0.790   2.693  0.2912  0.4077  0.0687
 1886SOL     hw 7543   4.976   0.640   2.713 -0.4430  0.3871 -0.3220
 1886SOL     vw 7544   5.023   0.713   2.706 -0.1013  0.2256  0.2013
 1887SOL     ow 7545   0.969   3.190   1.810 -0.3028 -0.5035  0.2435
 1887SOL     hw 7546   0.984   3.135   1.887 -1.2297  0.3612  1.0664
 1887SOL     hw 7547   1.039   3.255   1.813 -1.5246  0.8245  1.5904
 1887SOL     vw 7548   0.980   3.191   1.820 -0.5863 -0.2142  0.5298
 1888SOL     ow 7549   2.008   4.578   2.907 -0.3654 -0.2125  0.0570
 1888SOL     hw 7550   1.983   4.647   2.968 -0.1841  2.1341 -2.3603
 1888SOL     hw 7551   1.936   4.574   2.844  1.0566  0.0536 -1.6567
 1888SOL     vw 7552   1.995   4.587   2.907 -0.1538  0.1323 -0.4879
 1889SOL     ow 7553   3.165   1.063   1.978  0.5443 -0.1321  0.9029
 1889SOL     hw 7554   3.155   1.032   1.888  0.6792 -0.8895  1.1363
 1889SOL     hw 7555   3.122   0.996   2.031  2.7143 -1.1027  1.5907
 1889SOL     vw 7556   3.158   1.050   1.973  0.8485 -0.3601  1.0245
 1890SOL     ow 7557   2.021   3.395   2.108  0.1153 -0.7540 -0.3560
 1890SOL     hw 7558   1.941   3.388   2.055 -0.0186 -1.1562 -0.0964
 1890SOL     hw 7559   2.087   3.429   2.046 -0.4287  0.2999 -0.3922
 1890SOL     vw 7560   2.019   3.399   2.093  0.0259 -0.6680 -0.3266
 1891SOL     ow 7561   5.774   0.781   6.153  0.0253  0.0402 -0.3005
 1891SOL     hw 7562   5.817   0.696   6.143  0.3559  0.1714 -0.0073
 1891SOL     hw 7563   5.804   0.832   6.078 -0.9098 -0.4027 -0.9990
 1891SOL     vw 7564   5.783   0.777   6.142 -0.0546 -0.0010 -0.3541
 1892SOL     ow 7565   2.623   0.294   0.960 -0.3124 -0.0472 -0.5755
 1892SOL     hw 7566   2.633   0.371   1.016 -1.1679  0.7196 -1.4448
 1892SOL     hw 7567   2.540   0.308   0.915 -0.1221 -1.1321 -1.2910
 1892SOL     vw 7568   2.613   0.306   0.961 -0.4003 -0.0891 -0.7846
 1893SOL     ow 7569   1.563   0.593   4.619  0.2417  0.5856 -0.0223
 1893SOL     hw 7570   1.472   0.563   4.621  0.2523  0.5505 -0.0548
 1893SOL     hw 7571   1.575   0.627   4.530  0.8061 -1.1346 -0.6592
 1893SOL     vw 7572   1.553   0.593   4.607  0.3176  0.3540 -0.1104
 1894SOL     ow 7573   5.572   1.535   0.889 -0.0559 -0.0054  0.1118
 1894SOL     hw 7574   5.659   1.558   0.855  0.2650  2.6708  2.3358
 1894SOL     hw 7575   5.511   1.590   0.840 -0.4211 -1.1612 -0.7645
 1894SOL     vw 7576   5.576   1.545   0.878 -0.0622  0.1951  0.2896
 1895SOL     ow 7577   0.870   3.305   3.252 -1.0341  0.0754 -0.0551
 1895SOL     hw 7578   0.833   3.339   3.333 -0.3815 -0.1282  0.3387
 1895SOL     hw 7579   0.817   3.344   3.183 -2.8581 -1.2451  0.5148
 1895SOL     vw 7580   0.858   3.315   3.254 -1.1887 -0.1258  0.0720
 1896SOL     ow 7581   0.510   4.596   2.868  0.1498  0.5521  0.3809
 1896SOL     hw 7582   0.571   4.654   2.915  2.5316 -2.8075  1.8302
 1896SOL     hw 7583   0.463   4.550   2.937  1.7454 -2.5102 -0.3857
 1896SOL     vw 7584   0.512   4.598   2.884  0.6745 -0.2952  0.4711
 1897SOL     ow 7585   2.713   1.839   1.055 -0.1001  0.6686 -0.3389
 1897SOL     hw 7586   2.702   1.921   1.007  1.7516  0.4398 -1.1992
 1897SOL     hw 7587   2.657   1.776   1.009  0.6435  0.7763 -1.4063
 1897SOL     vw 7588   2.704   1.841   1.043  0.2422  0.6527 -0.5932
 1898SOL     ow 7589   1.743   6.971   5.797  0.1543  0.2860 -0.6166
 1898SOL     hw 7590   1.785   6.987   5.882  0.9584 -0.0530 -0.9346
 1898SOL     hw 7591   1.655   6.941   5.819  0.1982  0.6645  0.0863
 1898SOL     vw 7592   1.737   6.969   5.811  0.2663  0.2913 -0.5658
 1899SOL     ow 7593   5.721   1.122   5.842 -0.1523  0.0025 -0.1004
 1899SOL     hw 7594   5.689   1.059   5.777  0.6318  0.5377 -1.0209
 1899SOL     hw 7595   5.741   1.201   5.791 -0.3769  0.7369  0.9268
 1899SOL     vw 7596   5.719   1.124   5.827 -0.0784  0.1700 -0.0865
 1900SOL     ow 7597   2.335   3.811   6.851  0.8808 -0.2722 -0.6036
 1900SOL     hw 7598   2.285   3.735   6.822  0.9211 -0.7239  0.4558
 1900SOL     hw 7599   2.279   3.886   6.832 -0.3309 -0.7820  0.7599
 1900SOL     vw 7600   2.321   3.811   6.845  0.7261 -0.3991 -0.2835
 1901SOL     ow 7601   1.697   0.262   4.578 -0.3363  0.1680 -0.1956
 1901SOL     hw 7602   1.679   0.202   4.650 -1.7825 -0.5032 -1.0635
 1901SOL     hw 7603   1.791   0.254   4.563 -0.2758 -0.8657  0.5941
 1901SOL     vw 7604   1.707   0.253   4.585 -0.5192 -0.0569 -0.2058
 1902SOL     ow 7605   1.782   0.259   6.278  0.2460 -0.1024  0.2529
 1902SOL     hw 7606   1.835   0.335   6.300 -2.1800  1.9883 -0.6308
 1902SOL     hw 7607   1.736   0.238   6.360  1.2884 -1.0114  0.6339
 1902SOL     vw 7608   1.783   0.266   6.292  0.0635  0.0535  0.1864
 1903SOL     ow 7609   4.318   2.719   6.964  0.4105  0.3482 -0.0669
 1903SOL     hw 7610   4.318   2.799   6.911  0.3842  0.0000 -0.5969
 1903SOL     hw 7611   4.259   2.660   6.917  1.9713 -0.7126 -0.7775
 1903SOL     vw 7612   4.310   2.722   6.951  0.6125  0.1622 -0.2308
 1904SOL     ow 7613   6.026   4.024   2.368 -0.0572  0.2062  0.3130
 1904SOL     hw 7614   6.115   3.997   2.344 -0.1207 -0.9934  1.3187
 1904SOL     hw 7615   5.977   3.943   2.374 -2.1569  0.9988 -3.3757
 1904SOL     vw 7616   6.031   4.010   2.366 -0.3426  0.1526 -0.0410
 1905SOL     ow 7617   5.634   1.503   3.985  0.7440  0.5670 -0.3626
 1905SOL     hw 7618   5.667   1.488   4.073 -0.9081 -0.1743  0.1708
 1905SOL     hw 7619   5.655   1.595   3.967  0.5218  0.9279  1.0747
 1905SOL     vw 7620   5.641   1.513   3.994  0.4969  0.5168 -0.1028
 1906SOL     ow 7621   5.113   5.785   7.112 -0.0215 -0.2007 -0.3184
 1906SOL     hw 7622   5.185   5.792   7.175  0.6862  1.0308 -1.2314
 1906SOL     hw 7623   5.121   5.863   7.057  0.1015 -1.7973 -2.7012
 1906SOL     vw 7624   5.124   5.796   7.113  0.0885 -0.2491 -0.7532
 1907SOL     ow 7625   0.652   5.561   1.446  0.3032 -0.6322 -0.3852
 1907SOL     hw 7626   0.713   5.632   1.466 -0.5147 -0.2441  0.9000
 1907SOL     hw 7627   0.566   5.603   1.450 -0.0789 -1.1551 -2.2136
 1907SOL     vw 7628   0.649   5.576   1.449  0.1449 -0.6499 -0.4568
 1908SOL     ow 7629   4.386   2.652   0.015  0.1683 -0.0695  0.2823
 1908SOL     hw 7630   4.297   2.682   0.033  0.1284  0.0737 -0.1578
 1908SOL     hw 7631   4.386   2.560   0.041 -0.9735 -0.9757 -2.5464
 1908SOL     vw 7632   4.374   2.644   0.021  0.0124 -0.1701 -0.1490
 1909SOL     ow 7633   6.619   1.596   7.130 -1.4747 -0.3291  0.1693
 1909SOL     hw 7634   6.665   1.513   7.143 -1.2671 -0.0657  1.2650
 1909SOL     hw 7635   6.683   1.652   7.086 -1.7892 -0.8919 -1.0454
 1909SOL     vw 7636   6.634   1.592   7.126 -1.4884 -0.3686  0.1535
 1910SOL     ow 7637   0.176   4.568   2.827  0.3295  0.0553 -0.3477
 1910SOL     hw 7638   0.224   4.575   2.910  1.3403 -0.5246 -0.8768
 1910SOL     hw 7639   0.156   4.475   2.818 -0.2037  0.1812 -0.5333
 1910SOL     vw 7640   0.180   4.557   2.837  0.3925 -0.0045 -0.4421
 1911SOL     ow 7641   0.715   3.583   2.572  0.3944 -0.0718  0.6976
 1911SOL     hw 7642   0.740   3.501   2.530  2.2416  1.0721 -0.6149
 1911SOL     hw 7643   0.796   3.617   2.609  0.1449  2.0976 -0.5627
 1911SOL     vw 7644   0.729   3.577   2.571  0.6052  0.3654  0.3581
 1912SOL     ow 7645   4.489   4.441   6.317 -0.5345  0.1477  0.4246
 1912SOL     hw 7646   4.532   4.455   6.402 -0.9560 -2.1029  1.0576
 1912SOL     hw 7647   4.413   4.387   6.336 -0.8415 -0.1207 -1.3561
 1912SOL     vw 7648   4.485   4.436   6.331 -0.6306 -0.1848  0.2735
 1913SOL     ow 7649   2.396   6.957   3.372 -0.5630 -0.7593  0.5181
 1913SOL     hw 7650   2.307   6.949   3.337 -0.5024 -0.8919  0.3901
 1913SOL     hw 7651   2.384   6.982   3.464 -0.7079  1.5089 -0.0623
 1913SOL     vw 7652   2.382   6.959   3.379 -0.5740 -0.4776  0.4247
 1914SOL     ow 7653   0.308   3.955   2.482  0.4198  0.0582 -0.1264
 1914SOL     hw 7654   0.242   3.944   2.551 -0.5819  1.6458 -0.7567
 1914SOL     hw 7655   0.373   4.014   2.521  0.2700  0.3143 -0.2607
 1914SOL     vw 7656   0.308   3.961   2.497  0.2678  0.3015 -0.2272
 1915SOL     ow 7657   3.711   0.900   4.902 -0.2383 -0.2446  0.1607
 1915SOL     hw 7658   3.791   0.860   4.935 -0.1036 -0.7075 -0.6986
 1915SOL     hw 7659   3.688   0.848   4.825 -0.1512  1.2101 -0.9080
 1915SOL     vw 7660   3.718   0.888   4.896 -0.2090 -0.1137 -0.0935
 1916SOL     ow 7661   0.420   1.919   6.192 -0.2287  0.0288 -0.3558
 1916SOL     hw 7662   0.484   1.859   6.231 -0.5525  0.6229  1.1327
 1916SOL     hw 7663   0.472   1.995   6.165  0.4167 -1.3521 -3.4853
 1916SOL     vw 7664   0.435   1.921   6.193 -0.1863 -0.0750 -0.5724
 1917SOL     ow 7665   5.072   0.339   6.268 -0.0408 -0.7049 -0.3732
 1917SOL     hw 7666   4.990   0.291   6.276 -0.9483  0.9301  0.9542
 1917SOL     hw 7667   5.140   0.273   6.279 -1.1989 -1.4929  3.6013
 1917SOL     vw 7668   5.070   0.324   6.270 -0.3135 -0.5931  0.3259
 1918SOL     ow 7669   5.981   3.239   3.833 -0.2994  0.5965  0.4725
 1918SOL     hw 7670   5.960   3.155   3.792  0.9869 -0.2644  1.5033
 1918SOL     hw 7671   6.060   3.268   3.788 -0.4695  1.0374  0.4511
 1918SOL     vw 7672   5.988   3.232   3.822 -0.1521  0.5411  0.6057
 1919SOL     ow 7673   6.778   4.900   3.813 -0.2232 -0.6144  0.1149
 1919SOL     hw 7674   6.780   4.992   3.840  1.1854 -0.0577 -1.6820
 1919SOL     hw 7675   6.799   4.852   3.893 -1.7665  0.5346  1.2717
 1919SOL     vw 7676   6.781   4.906   3.827 -0.2410 -0.3893  0.0305
 1920SOL     ow 7677   5.761   0.324   3.076  0.3159 -0.0405  0.8727
 1920SOL     hw 7678   5.667   0.314   3.095  0.5242 -1.3321  1.3288
 1920SOL     hw 7679   5.770   0.415   3.049 -1.2452 -0.1384 -0.1340
 1920SOL     vw 7680   5.750   0.335   3.075  0.1373 -0.2238  0.8001
 1921SOL     ow 7681   5.517   2.605   1.722  0.1649  0.5352  0.8028
 1921SOL     hw 7682   5.476   2.686   1.751  1.1137  1.3484 -0.0409
 1921SOL     hw 7683   5.604   2.632   1.691 -0.3094 -0.4333 -1.6107
 1921SOL     vw 7684   5.523   2.619   1.722  0.2277  0.5147  0.3731
 1922SOL     ow 7685   3.230   3.411   3.805 -0.0632  0.5751 -0.5799
 1922SOL     hw 7686   3.271   3.326   3.793  1.7567  1.6719 -3.0557
 1922SOL     hw 7687   3.186   3.428   3.721 -0.5839  1.9752 -0.0601
 1922SOL     vw 7688   3.229   3.402   3.792  0.1082  0.9046 -0.8380
 1923SOL     ow 7689   0.463   2.606   0.450  0.2714 -0.2017  0.4390
 1923SOL     hw 7690   0.394   2.546   0.422  0.4930  0.1709 -0.9552
 1923SOL     hw 7691   0.422   2.661   0.517 -0.0061 -1.7103  1.5835
 1923SOL     vw 7692   0.449   2.605   0.455  0.2640 -0.3517  0.4060
 1924SOL     ow 7693   0.447   3.302   5.633 -0.8004 -0.2146 -0.1966
 1924SOL     hw 7694   0.380   3.266   5.691  0.0822 -1.4547  0.1078
 1924SOL     hw 7695   0.498   3.226   5.606  0.9476  0.7587  0.2028
 1924SOL     vw 7696   0.445   3.287   5.637 -0.4533 -0.2497 -0.1037
 1925SOL     ow 7697   4.170   2.958   2.045  0.1568 -0.0634 -0.4004
 1925SOL     hw 7698   4.127   3.041   2.027  0.3557  0.2171  0.3691
 1925SOL     hw 7699   4.259   2.983   2.070  0.4799 -0.5698 -1.0142
 1925SOL     vw 7700   4.176   2.972   2.046  0.2255 -0.0931 -0.3798
 1926SOL     ow 7701   3.843   4.895   2.838 -0.2854  0.4184  0.2360
 1926SOL     hw 7702   3.833   4.969   2.898  2.0565  0.6772  0.4051
 1926SOL     hw 7703   3.923   4.915   2.789 -0.3430 -1.3680 -0.6482
 1926SOL     vw 7704   3.852   4.908   2.839  0.0159  0.2170  0.1417
 1927SOL     ow 7705   4.672   7.125   3.155 -0.0067 -0.2479 -0.1416
 1927SOL     hw 7706   4.663   7.054   3.092  1.1847  0.2160 -0.8800
 1927SOL     hw 7707   4.748   7.100   3.208  1.0179  0.8588 -1.0078
 1927SOL     vw 7708   4.681   7.112   3.154  0.2856 -0.0408 -0.3535
 1928SOL     ow 7709   2.413   2.720   1.486 -0.5335  0.5799 -0.7546
 1928SOL     hw 7710   2.375   2.807   1.481 -1.7775  0.0623 -0.8027
 1928SOL     hw 7711   2.481   2.719   1.419 -0.4282  1.5447 -0.6702
 1928SOL     vw 7712   2.417   2.731   1.476 -0.6837  0.6388 -0.7497
 1929SOL     ow 7713   3.344   4.580   5.337 -0.1172  0.5751 -0.9235
 1929SOL     hw 7714   3.354   4.486   5.356 -0.0390  0.0952 -3.0892
 1929SOL     hw 7715   3.403   4.623   5.398  0.7468 -0.8855 -0.6835
 1929SOL     vw 7716   3.353   4.573   5.347  0.0072  0.3190 -1.1775
 1930SOL     ow 7717   0.807   2.644   5.428  0.5279  0.0730  0.3959
 1930SOL     hw 7718   0.812   2.645   5.332  1.1045 -0.4703  0.4162
 1930SOL     hw 7719   0.792   2.736   5.452  0.9078  0.2945 -0.1858
 1930SOL     vw 7720   0.806   2.657   5.418  0.6541  0.0305  0.3219
 1931SOL     ow 7721   4.506   6.146   5.796  0.2807  0.0115 -0.2638
 1931SOL     hw 7722   4.413   6.137   5.777  0.7494 -1.4366 -2.2989
 1931SOL     hw 7723   4.519   6.096   5.877 -1.0084  2.1352  1.3608
 1931SOL     vw 7724   4.496   6.138   5.804  0.1726  0.1006 -0.3183
 1932SOL     ow 7725   4.528   5.500   3.651 -0.0728  0.1370 -0.0591
 1932SOL     hw 7726   4.496   5.507   3.741  0.3598 -0.3050  0.1383
 1932SOL     hw 7727   4.587   5.425   3.653 -0.8203 -0.4889 -0.9428
 1932SOL     vw 7728   4.532   5.491   3.663 -0.1142 -0.0038 -0.1497
 1933SOL     ow 7729   6.260   0.287   3.596 -0.1183 -0.2249  0.4606
 1933SOL     hw 7730   6.319   0.332   3.535 -1.2092 -0.4993 -0.8283
 1933SOL     hw 7731   6.315   0.269   3.673  0.5955  2.4846  0.7028
 1933SOL     vw 7732   6.275   0.291   3.598 -0.1681  0.0964  0.3223
 1934SOL     ow 7733   3.203   5.802   0.255  0.1182 -0.2433  0.1491
 1934SOL     hw 7734   3.212   5.889   0.217  1.7691  0.8592  2.7657
 1934SOL     hw 7735   3.121   5.806   0.304 -0.8350 -0.8869 -1.3488
 1934SOL     vw 7736   3.194   5.814   0.257  0.2103 -0.1831  0.2967
 1935SOL     ow 7737   6.549   3.465   6.788  0.0709 -0.1614 -0.7641
 1935SOL     hw 7738   6.488   3.391   6.796  1.6458 -1.5137 -0.5428
 1935SOL     hw 7739   6.511   3.533   6.843 -0.4543 -1.5457  0.6952
 1935SOL     vw 7740   6.536   3.464   6.797  0.2093 -0.5224 -0.5426
 1936SOL     ow 7741   1.802   6.695   5.280  0.1558 -0.1925  0.1892
 1936SOL     hw 7742   1.774   6.608   5.252  0.4375 -0.1295 -0.2951
 1936SOL     hw 7743   1.827   6.740   5.199 -0.8238  0.6508  0.3303
 1936SOL     vw 7744   1.802   6.690   5.265  0.0637 -0.0727  0.1440
 1937SOL     ow 7745   5.771   6.153   5.757  0.7528  0.3654  0.5593
 1937SOL     hw 7746   5.796   6.234   5.713  2.9180 -0.1976  0.6343
 1937SOL     hw 7747   5.778   6.173   5.851 -1.7649  0.9353  0.7054
 1937SOL     vw 7748   5.775   6.166   5.764  0.7064  0.3662  0.5884
 1938SOL     ow 7749   3.724   7.090   6.249  0.2205  0.3796 -0.2192
 1938SOL     hw 7750   3.706   7.015   6.305 -2.1876  0.9198 -0.1588
 1938SOL     hw 7751   3.763   7.053   6.170  0.7202 -0.7181  0.5289
 1938SOL     vw 7752   3.727   7.075   6.246 -0.0314  0.3061 -0.1125
 1939SOL     ow 7753   2.736   4.979   2.570  0.3614 -0.1071 -0.0062
 1939SOL     hw 7754   2.830   4.974   2.585  0.5032  2.0999  0.0754
 1939SOL     hw 7755   2.706   4.888   2.578  2.6829 -1.1107 -1.6133
 1939SOL     vw 7756   2.744   4.966   2.573  0.6864  0.0513 -0.2075
 1940SOL     ow 7757   5.982   0.841   2.982  0.1320 -0.1639 -0.0990
 1940SOL     hw 7758   5.988   0.924   3.029  0.9386 -0.4670  0.3555
 1940SOL     hw 7759   5.895   0.843   2.942 -0.5190  0.1855  1.2507
 1940SOL     vw 7760   5.972   0.852   2.983  0.1526 -0.1578  0.1390
 1941SOL     ow 7761   1.542   2.538   0.207 -0.3377 -0.3694 -0.3157
 1941SOL     hw 7762   1.563   2.465   0.266 -2.5373 -1.4219 -0.6878
 1941SOL     hw 7763   1.457   2.570   0.238 -0.9422 -0.1083 -2.0935
 1941SOL     vw 7764   1.533   2.532   0.219 -0.7076 -0.4737 -0.5993
 1942SOL     ow 7765   2.660   1.820   1.320 -0.1982  0.4906  0.3434
 1942SOL     hw 7766   2.686   1.847   1.232  0.9028  0.8937  0.7759
 1942SOL     hw 7767   2.742   1.808   1.366 -0.6863 -1.8619  0.7090
 1942SOL     vw 7768   2.674   1.822   1.314 -0.1173  0.2335  0.4487
 1943SOL     ow 7769   6.262   5.701   6.488 -0.0210 -0.4458  0.2018
 1943SOL     hw 7770   6.271   5.737   6.577  1.6484  1.2583 -0.5794
 1943SOL     hw 7771   6.349   5.669   6.466  0.6114  2.3232 -2.0073
 1943SOL     vw 7772   6.275   5.702   6.497  0.2823  0.1440 -0.1929
 1944SOL     ow 7773   4.281   3.329   3.148  0.0043 -0.2641 -0.7553
 1944SOL     hw 7774   4.362   3.324   3.197  0.1981 -0.3827 -1.0834
 1944SOL     hw 7775   4.222   3.267   3.191  0.2119 -0.4529 -0.7436
 1944SOL     vw 7776   4.284   3.321   3.160  0.0575 -0.3047 -0.7970
 1945SOL     ow 7777   4.148   2.166   5.890 -0.0220 -0.5411 -0.5934
 1945SOL     hw 7778   4.124   2.248   5.934  1.6258  1.0076 -2.4174
 1945SOL     hw 7779   4.072   2.145   5.836  0.4198  1.1887 -1.9859
 1945SOL     vw 7780   4.135   2.174   5.889  0.2539 -0.1086 -1.0180
 1946SOL     ow 7781   1.842   4.762   1.524  0.4305 -0.0533  0.1071
 1946SOL     hw 7782   1.935   4.743   1.516  0.9593  1.9826  0.8969
 1946SOL     hw 7783   1.798   4.685   1.486  2.4255  0.6807 -4.3411
 1946SOL     vw 7784   1.848   4.749   1.518  0.7635  0.3123 -0.3756
 1947SOL     ow 7785   0.125   6.998   1.261  0.5041  0.5006 -0.1366
 1947SOL     hw 7786   0.076   7.070   1.220 -0.3566 -0.3269 -0.5824
 1947SOL     hw 7787   0.059   6.951   1.312  0.6244 -1.1879 -1.4867
 1947SOL     vw 7788   0.109   7.001   1.262  0.4064  0.1688 -0.3736
 1948SOL     ow 7789   5.956   1.134   3.386 -0.5399 -0.4070 -0.3485
 1948SOL     hw 7790   5.863   1.139   3.364 -1.3061 -0.4003  2.3969
 1948SOL     hw 7791   5.977   1.221   3.420  0.5674 -0.3327 -1.1897
 1948SOL     vw 7792   5.946   1.146   3.388 -0.4950 -0.3963 -0.0973
 1949SOL     ow 7793   0.791   5.617   1.905  0.3743  0.4770 -0.4093
 1949SOL     hw 7794   0.740   5.695   1.926 -0.0211  0.2006 -0.3359
 1949SOL     hw 7795   0.868   5.651   1.858  2.0678  1.2905  2.6900
 1949SOL     vw 7796   0.795   5.632   1.901  0.5456  0.5479  0.0094
 1950SOL     ow 7797   1.022   5.930   5.139 -0.1355  0.3439 -0.6993
 1950SOL     hw 7798   1.002   6.019   5.109  1.5864  1.0730  0.1706
 1950SOL     hw 7799   0.937   5.893   5.161 -0.9958  1.3871 -2.0964
 1950SOL     vw 7800   1.008   5.937   5.138 -0.0219  0.5782 -0.7689
 1951SOL     ow 7801   4.588   3.127   3.820 -0.2993 -0.2033 -0.6003
 1951SOL     hw 7802   4.630   3.070   3.756 -1.6463 -0.6381 -1.1213
 1951SOL     hw 7803   4.575   3.072   3.897  2.1038  0.5474  0.4337
 1951SOL     vw 7804   4.592   3.113   3.821 -0.1600 -0.1616 -0.5327
 1952SOL     ow 7805   3.555   4.376   6.105  0.2096 -0.2193  0.0983
 1952SOL     hw 7806   3.466   4.360   6.138  1.2906 -2.9126  2.0684
 1952SOL     hw 7807   3.580   4.460   6.143 -1.2811  0.3357 -0.0726
 1952SOL     vw 7808   3.546   4.385   6.114  0.1556 -0.5014  0.3359
 1953SOL     ow 7809   6.260   4.796   1.405  0.2045 -0.4084 -0.4239
 1953SOL     hw 7810   6.192   4.862   1.416  0.8293  0.1528  0.1452
 1953SOL     hw 7811   6.212   4.713   1.398 -0.4592 -0.4514  3.0714
 1953SOL     vw 7812   6.245   4.794   1.405  0.1996 -0.3402  0.1124
 1954SOL     ow 7813   7.117   7.070   0.165  0.1362  0.1244 -0.0339
 1954SOL     hw 7814   7.105   6.979   0.191 -0.3234 -0.0263 -0.7357
 1954SOL     hw 7815   7.056   7.119   0.221  0.2713 -0.0127  0.2357
 1954SOL     vw 7816   7.107   7.065   0.176  0.0932  0.0865 -0.0909
 1955SOL     ow 7817   1.464   3.243   6.609  0.5660  0.2587 -0.4049
 1955SOL     hw 7818   1.380   3.250   6.653 -0.1399  0.3868 -1.7031
 1955SOL     hw 7819   1.529   3.261   6.677 -0.5201  2.1733  0.2109
 1955SOL     vw 7820   1.462   3.246   6.624  0.3296  0.5282 -0.4952
 1956SOL     ow 7821   3.332   3.554   4.415  0.6413  0.6673  0.0513
 1956SOL     hw 7822   3.374   3.619   4.471 -1.8875  1.1576  1.5985
 1956SOL     hw 7823   3.244   3.589   4.400 -0.2248 -1.5752 -0.5285
 1956SOL     vw 7824   3.326   3.567   4.421  0.1935  0.4359  0.1793
 1957SOL     ow 7825   4.111   3.780   6.633  0.0872 -0.1604  0.2721
 1957SOL     hw 7826   4.137   3.873   6.632  0.5862 -0.2635 -2.2349
 1957SOL     hw 7827   4.185   3.736   6.675 -0.0040  0.5081  1.1775
 1957SOL     vw 7828   4.124   3.787   6.639  0.1409 -0.0857  0.0610
 1958SOL     ow 7829   1.573   6.877   5.253 -0.2808 -0.5823  0.0975
 1958SOL     hw 7830   1.638   6.816   5.290  1.1433  0.7672 -0.0968
 1958SOL     hw 7831   1.615   6.914   5.176 -0.1414  2.3614  1.4746
 1958SOL     vw 7832   1.587   6.874   5.248 -0.0745 -0.0157  0.2534
 1959SOL     ow 7833   4.611   5.580   3.225  0.2546  0.1585  0.5389
 1959SOL     hw 7834   4.691   5.614   3.265  1.3420 -0.4789 -0.9953
 1959SOL     hw 7835   4.543   5.593   3.292  1.5179  1.1837  1.6823
 1959SOL     vw 7836   4.612   5.586   3.239  0.5648  0.2093  0.4873
 1960SOL     ow 7837   1.104   2.136   6.494 -0.2476  0.4995 -0.3744
 1960SOL     hw 7838   1.071   2.214   6.538  0.8603  0.7482  0.0329
 1960SOL     hw 7839   1.034   2.112   6.433 -2.0789 -0.1546  1.8354
 1960SOL     vw 7840   1.090   2.143   6.492 -0.3431  0.4460 -0.0291
 1961SOL     ow 7841   3.412   6.655   0.325 -0.5364 -0.9701 -0.0391
 1961SOL     hw 7842   3.445   6.648   0.235 -1.1384  2.0650 -0.5944
 1961SOL     hw 7843   3.488   6.681   0.377 -1.4047  5.2657 -1.1919
 1961SOL     vw 7844   3.427   6.657   0.320 -0.7303  0.2530 -0.2645
 1962SOL     ow 7845   1.039   0.279   2.400  0.7181 -0.6510 -0.0601
 1962SOL     hw 7846   1.074   0.368   2.403 -1.7114  0.3942 -0.1803
 1962SOL     hw 7847   0.971   0.283   2.332  0.8749 -2.7481 -0.4022
 1962SOL     vw 7848   1.035   0.291   2.391  0.4182 -0.7898 -0.1211
 1963SOL     ow 7849   1.342   4.631   2.584 -0.3410  0.1826 -0.4913
 1963SOL     hw 7850   1.398   4.598   2.514 -1.0888  1.3112 -1.6740
 1963SOL     hw 7851   1.257   4.589   2.569 -0.6232  0.7556 -0.5290
 1963SOL     vw 7852   1.338   4.621   2.573 -0.4770  0.4070 -0.6522
 1964SOL     ow 7853   3.093   1.916   0.887 -0.2850  0.1471 -0.6692
 1964SOL     hw 7854   3.054   1.848   0.833 -0.1613 -0.1722 -0.3592
 1964SOL     hw 7855   3.126   1.981   0.824  1.3390 -1.0011 -1.0521
 1964SOL     vw 7856   3.092   1.916   0.872 -0.0545 -0.0466 -0.6788
 1965SOL     ow 7857   1.207   1.077   6.710 -0.5282 -0.6490  0.4645
 1965SOL     hw 7858   1.178   1.168   6.706 -2.0150 -1.1023 -0.0099
 1965SOL     hw 7859   1.301   1.080   6.694 -0.8775  0.6411 -1.7456
 1965SOL     vw 7860   1.215   1.089   6.708 -0.7704 -0.5386  0.1104
 1966SOL     ow 7861   6.231   6.121   1.285  0.0924  0.3336  0.4857
 1966SOL     hw 7862   6.201   6.049   1.230 -0.3918 -0.8179  2.1824
 1966SOL     hw 7863   6.181   6.197   1.255 -1.6565 -0.7034  0.6584
 1966SOL     vw 7864   6.221   6.122   1.274 -0.2022  0.0451  0.7324
 1967SOL     ow 7865   2.486   0.737   4.582 -0.2100  0.4763 -0.2484
 1967SOL     hw 7866   2.518   0.764   4.668 -1.0467 -0.1247  0.2703
 1967SOL     hw 7867   2.432   0.660   4.600  0.4466 -0.3037 -1.4329
 1967SOL     vw 7868   2.483   0.730   4.596 -0.2339  0.2941 -0.3359
 1968SOL     ow 7869   0.644   6.604   1.815  0.2752 -0.1610 -0.3824
 1968SOL     hw 7870   0.661   6.697   1.802 -0.7281 -0.2121 -2.7688
 1968SOL     hw 7871   0.663   6.588   1.907 -0.1167  2.5303  0.2587
 1968SOL     vw 7872   0.649   6.614   1.825  0.0911  0.1872 -0.6127
 1969SOL     ow 7873   5.460   7.104   4.153  0.3489  0.4391  0.0761
 1969SOL     hw 7874   5.445   7.189   4.195  1.4746  1.0208 -0.6337
 1969SOL     hw 7875   5.546   7.077   4.185  0.3450 -0.0472 -0.3240
 1969SOL     vw 7876   5.469   7.112   4.163  0.4966  0.4518 -0.0701
 1970SOL     ow 7877   4.387   2.559   3.232  0.0980 -0.0360  0.2872
 1970SOL     hw 7878   4.360   2.600   3.314  1.9121  0.8199  0.5053
 1970SOL     hw 7879   4.435   2.481   3.258 -0.0088 -0.2002  0.0035
 1970SOL     vw 7880   4.389   2.554   3.246  0.3233  0.0552  0.2787
 1971SOL     ow 7881   1.641   4.281   6.667 -0.6625 -0.0963  0.1589
 1971SOL     hw 7882   1.634   4.186   6.665  0.7713 -0.2874  1.8969
 1971SOL     hw 7883   1.696   4.303   6.592 -2.2022 -0.4587 -1.1250
 1971SOL     vw 7884   1.647   4.272   6.657 -0.6764 -0.1693  0.2186
 1972SOL     ow 7885   2.272   6.097   7.127 -0.6580 -0.1205  0.4718
 1972SOL     hw 7886   2.314   6.122   7.210  1.3502  0.9628 -0.7827
 1972SOL     hw 7887   2.194   6.050   7.153  0.1219 -0.1714  2.9931
 1972SOL     vw 7888   2.268   6.094   7.141 -0.2900  0.0160  0.6387
 1973SOL     ow 7889   2.201   3.541   2.618 -0.0616  0.0639 -0.0624
 1973SOL     hw 7890   2.233   3.523   2.707  0.8597 -2.2030 -0.7688
 1973SOL     hw 7891   2.238   3.626   2.596 -2.7560  2.1620  2.7362
 1973SOL     vw 7892   2.210   3.550   2.627 -0.2955  0.0416  0.2136
 1974SOL     ow 7893   5.744   6.680   3.745  0.9314 -0.0288  0.3094
 1974SOL     hw 7894   5.702   6.626   3.678 -0.3531 -1.1189  1.9150
 1974SOL     hw 7895   5.795   6.618   3.797  1.7749  0.7789  0.4704
 1974SOL     vw 7896   5.745   6.664   3.743  0.8733 -0.0663  0.5425
 1975SOL     ow 7897   4.742   4.476   5.881  0.2838  0.5063  0.1124
 1975SOL     hw 7898   4.815   4.459   5.821 -1.3728 -0.0378 -1.8822
 1975SOL     hw 7899   4.724   4.570   5.871  1.2410  0.8301  1.2829
 1975SOL     vw 7900   4.749   4.486   5.872  0.1915  0.4773  0.0038
 1976SOL     ow 7901   6.972   3.764   4.853  0.1632 -0.3038 -0.1852
 1976SOL     hw 7902   6.896   3.745   4.799 -0.3948  0.1362  0.4332
 1976SOL     hw 7903   7.039   3.704   4.821 -0.2713 -0.3221 -1.0963
 1976SOL     vw 7904   6.971   3.753   4.842  0.0324 -0.2481 -0.2236
 1977SOL     ow 7905   2.445   0.208   6.569 -0.1779  0.1800  0.2899
 1977SOL     hw 7906   2.459   0.114   6.570  0.3106  0.2394 -0.0995
 1977SOL     hw 7907   2.398   0.224   6.487  0.4227  0.3521 -0.0324
 1977SOL     vw 7908   2.441   0.198   6.558 -0.0343  0.2106  0.1957
 1978SOL     ow 7909   6.183   0.800   2.799  0.4495 -0.2807  0.0519
 1978SOL     hw 7910   6.102   0.810   2.850  0.4240  0.6860 -0.1583
 1978SOL     hw 7911   6.185   0.877   2.743  1.0098 -0.8154 -0.6710
 1978SOL     vw 7912   6.172   0.812   2.799  0.5200 -0.2237 -0.0713
 1979SOL     ow 7913   0.127   4.078   2.301 -0.4802 -0.6180  0.1793
 1979SOL     hw 7914   0.207   4.040   2.337 -0.4104 -0.2491  0.4250
 1979SOL     hw 7915   0.157   4.154   2.251 -0.5046 -1.5285 -1.2757
 1979SOL     vw 7916   0.142   4.083   2.299 -0.4742 -0.6895  0.0198
 1980SOL     ow 7917   5.838   1.143   1.817  0.2651  0.4119  0.6156
 1980SOL     hw 7918   5.828   1.195   1.896  1.3364 -1.5624  2.1397
 1980SOL     hw 7919   5.748   1.123   1.789 -0.1435  0.1687  2.0319
 1980SOL     vw 7920   5.825   1.147   1.823  0.3524  0.1193  1.0036
 1981SOL     ow 7921   4.669   0.509   2.963  0.4215  0.0318 -0.0506
 1981SOL     hw 7922   4.591   0.507   2.907 -0.1492 -0.5398  0.7442
 1981SOL     hw 7923   4.674   0.599   2.995 -0.7260 -0.2613  1.0012
 1981SOL     vw 7924   4.660   0.520   2.960  0.1948 -0.0823  0.1930
 1982SOL     ow 7925   6.529   4.175   0.331 -0.0863  0.5123 -0.3742
 1982SOL     hw 7926   6.458   4.127   0.373  0.6670  0.0263  0.3855
 1982SOL     hw 7927   6.577   4.215   0.404  1.1512 -0.2021 -0.7692
 1982SOL     vw 7928   6.526   4.174   0.346  0.1762  0.3541 -0.3261
 1983SOL     ow 7929   1.920   4.028   1.455 -0.2600 -0.4089  0.5749
 1983SOL     hw 7930   2.006   4.012   1.416 -0.3923  1.1274 -0.4539
 1983SOL     hw 7931   1.858   3.984   1.398 -0.4224  1.5448 -0.8677
 1983SOL     vw 7932   1.923   4.020   1.442 -0.2989  0.0517  0.2488
 1984SOL     ow 7933   2.352   0.269   0.874 -0.2784 -0.2843 -0.0081
 1984SOL     hw 7934   2.271   0.309   0.841 -0.0673  0.2216  0.0733
 1984SOL     hw 7935   2.399   0.242   0.796  0.7196  1.8844 -0.2404
 1984SOL     vw 7936   2.347   0.271   0.860 -0.1187  0.0686 -0.0280
 1985SOL     ow 7937   3.485   0.764   2.380 -0.1603 -0.0408  0.0501
 1985SOL     hw 7938   3.393   0.756   2.355 -0.1752  1.7005 -0.5930
 1985SOL     hw 7939   3.513   0.674   2.397 -2.1186 -0.5799  0.8088
 1985SOL     vw 7940   3.476   0.751   2.379 -0.4208  0.1178  0.0654
 1986SOL     ow 7941   5.671   4.865   6.049  0.2088  0.1404  0.1659
 1986SOL     hw 7942   5.586   4.908   6.037  1.4851  2.4648 -1.3475
 1986SOL     hw 7943   5.711   4.914   6.121  0.7413 -0.1609  0.0732
 1986SOL     vw 7944   5.665   4.877   6.057  0.4473  0.4072 -0.0463
 1987SOL     ow 7945   3.489   5.426   2.357 -0.2034 -0.3481  0.2891
 1987SOL     hw 7946   3.502   5.413   2.451  0.3138 -2.1284  0.0018
 1987SOL     hw 7947   3.534   5.352   2.316  0.5854  1.0289 -1.4286
 1987SOL     vw 7948   3.497   5.414   2.364 -0.0311 -0.4013  0.0246
 1988SOL     ow 7949   5.001   5.385   0.015 -0.2760  0.6858 -0.2869
 1988SOL     hw 7950   4.992   5.481   0.018  0.3805  0.7415  2.0409
 1988SOL     hw 7951   5.036   5.362   0.101  1.7384 -1.4604 -1.5727
 1988SOL     vw 7952   5.004   5.395   0.027  0.0763  0.4098 -0.1495
 1989SOL     ow 7953   4.676   3.588   0.157  0.0840 -0.0362 -0.1464
 1989SOL     hw 7954   4.752   3.642   0.179  0.7858 -0.6459 -0.9940
 1989SOL     hw 7955   4.696   3.502   0.193 -1.7569  0.5895  2.6478
 1989SOL     vw 7956   4.689   3.584   0.165 -0.0665 -0.0342  0.1104
 1990SOL     ow 7957   5.839   1.971   3.904  0.0565 -0.5595 -0.1581
 1990SOL     hw 7958   5.856   1.923   3.823  1.5959 -0.6941  0.2245
 1990SOL     hw 7959   5.911   1.948   3.962 -0.4400  0.3828  0.8713
 1990SOL     vw 7960   5.850   1.962   3.901  0.1938 -0.4529  0.0281
 1991SOL     ow 7961   6.240   6.964   5.816  0.3716 -0.4764  0.1730
 1991SOL     hw 7962   6.196   6.887   5.779 -0.1875 -0.7258  1.2974
 1991SOL     hw 7963   6.264   6.937   5.905  0.8810  0.3864  0.3090
 1991SOL     vw 7964   6.237   6.950   5.823  0.3650 -0.3953  0.3395
 1992SOL     ow 7965   0.425   1.654   1.173 -0.2195  0.1975 -0.7239
 1992SOL     hw 7966   0.497   1.706   1.207 -1.1561  0.9605  0.1497
 1992SOL     hw 7967   0.462   1.566   1.162  0.1215 -0.1628  2.4921
 1992SOL     vw 7968   0.439   1.649   1.176 -0.2981  0.2507 -0.1843
 1993SOL     ow 7969   1.241   6.142   6.267  0.1373 -0.3799 -0.1983
 1993SOL     hw 7970   1.248   6.054   6.230  2.6510 -0.3368 -0.0146
 1993SOL     hw 7971   1.315   6.149   6.327  3.0074  3.3626 -3.6064
 1993SOL     vw 7972   1.252   6.132   6.270  0.8477  0.1192 -0.6237
 1994SOL     ow 7973   4.978   2.516   1.099 -0.0705  0.0300 -0.2540
 1994SOL     hw 7974   5.029   2.466   1.034 -0.2234 -1.5502  0.7783
 1994SOL     hw 7975   4.928   2.578   1.047 -1.4120 -2.2371 -1.8881
 1994SOL     vw 7976   4.978   2.517   1.083 -0.2675 -0.4774 -0.3335
 1995SOL     ow 7977   7.032   3.326   6.044  0.4318  0.6953 -0.0773
 1995SOL     hw 7978   7.011   3.321   5.950  0.0377 -0.4768  0.0639
 1995SOL     hw 7979   7.099   3.259   6.057 -0.3364  0.0737  0.7020
 1995SOL     vw 7980   7.038   3.317   6.033  0.2782  0.4587  0.0441
 1996SOL     ow 7981   3.458   1.778   3.301  0.7433 -0.7043  0.6177
 1996SOL     hw 7982   3.554   1.776   3.299  0.7399 -2.0634 -1.0018
 1996SOL     hw 7983   3.436   1.871   3.304  2.1245 -0.3372  0.0899
 1996SOL     vw 7984   3.468   1.790   3.301  0.9249 -0.8351  0.3344
 1997SOL     ow 7985   3.329   5.655   5.841  0.6422 -0.0519  0.0561
 1997SOL     hw 7986   3.390   5.592   5.880 -0.2993 -1.6094 -0.8736
 1997SOL     hw 7987   3.295   5.611   5.763 -0.6833  1.2978 -0.1859
 1997SOL     vw 7988   3.333   5.641   5.836  0.3431 -0.0794 -0.0987
 1998SOL     ow 7989   0.204   6.462   3.246 -0.4528 -0.1603 -0.2437
 1998SOL     hw 7990   0.140   6.517   3.293 -0.9112  0.7395 -1.8416
 1998SOL     hw 7991   0.195   6.376   3.285 -3.3934 -0.3195 -1.0508
 1998SOL     vw 7992   0.194   6.458   3.257 -0.9012 -0.0629 -0.5610
 1999SOL     ow 7993   1.553   0.050   1.652 -0.1138 -0.3193  0.4440
 1999SOL     hw 7994   1.538   0.142   1.671  0.3298 -0.1645  0.0775
 1999SOL     hw 7995   1.580   0.012   1.736 -1.5308 -0.3995  0.8837
 1999SOL     vw 7996   1.555   0.057   1.666 -0.2422 -0.3094  0.4537
 2000SOL     ow 7997   2.773   0.690   5.312 -0.1852 -0.5853 -0.1631
 2000SOL     hw 7998   2.864   0.666   5.296  0.1506 -2.1858  3.1630
 2000SOL     hw 7999   2.778   0.771   5.364 -0.4594 -1.5659  1.4818
 2000SOL     vw 8000   2.785   0.697   5.317 -0.1771 -0.9258  0.4928
 2001SOL     ow 8001   3.737   4.371   5.809  0.4027  0.5261 -0.2347
 2001SOL     hw 8002   3.802   4.417   5.862 -0.3003 -0.5357  1.6166
 2001SOL     hw 8003   3.788   4.325   5.743  1.5221 -0.0038  0.9668
 2001SOL     vw 8004   3.752   4.371   5.807  0.4576  0.3161  0.1678
 2002SOL     ow 8005   4.617   3.376   5.945  0.1563  0.1469 -0.4124
 2002SOL     hw 8006   4.671   3.434   5.999  0.1715  0.4554 -0.7598
 2002SOL     hw 8007   4.646   3.288   5.969  1.1454  0.3169 -0.9215
 2002SOL     vw 8008   4.628   3.372   5.955  0.2890  0.2099 -0.5255
 2003SOL     ow 8009   6.137   5.834   2.382  0.0291  0.2697  0.2957
 2003SOL     hw 8010   6.088   5.760   2.348 -0.3007 -0.3105  1.9255
 2003SOL     hw 8011   6.072   5.903   2.395  0.1669  0.5164 -0.3210
 2003SOL     vw 8012   6.122   5.834   2.379  0.0038  0.2255  0.4294
 2004SOL     ow 8013   2.035   5.966   1.211  0.7821 -0.2433 -0.4116
 2004SOL     hw 8014   2.131   5.970   1.213  0.7654  0.1522  1.3404
 2004SOL     hw 8015   2.009   5.962   1.303 -0.8844 -0.6467 -0.8636
 2004SOL     vw 8016   2.044   5.966   1.223  0.5599 -0.2444 -0.2401
 2005SOL     ow 8017   3.356   4.299   5.353  0.0273  0.3940 -0.1303
 2005SOL     hw 8018   3.376   4.215   5.394  0.8057  1.0889  0.9464
 2005SOL     hw 8019   3.286   4.278   5.290  0.1854 -1.0424  0.1283
 2005SOL     vw 8020   3.349   4.285   5.350  0.1508  0.2961  0.0460
 2006SOL     ow 8021   5.249   3.949   1.397 -0.1197 -0.0123  0.2325
 2006SOL     hw 8022   5.325   3.941   1.339 -0.2591 -0.2075  0.0723
 2006SOL     hw 8023   5.173   3.940   1.339 -0.2732  0.7774  0.3105
 2006SOL     vw 8024   5.249   3.947   1.382 -0.1583  0.0662  0.2217
 2007SOL     ow 8025   5.026   7.138   5.053 -0.2107 -0.4373  0.0148
 2007SOL     hw 8026   5.082   7.208   5.087 -1.3365  1.1692 -1.2833
 2007SOL     hw 8027   5.076   7.058   5.069  2.4868  0.8825 -1.0693
 2007SOL     vw 8028   5.040   7.137   5.059 -0.0033 -0.0510 -0.2995
 2008SOL     ow 8029   1.713   0.900   5.682  0.5028 -0.5654  0.0294
 2008SOL     hw 8030   1.638   0.909   5.741 -0.1374  0.3363 -0.8725
 2008SOL     hw 8031   1.760   0.823   5.714 -0.5435 -0.8628  0.9223
 2008SOL     vw 8032   1.709   0.891   5.694  0.2803 -0.4857  0.0284
 2009SOL     ow 8033   3.273   5.043   6.387  0.0701 -0.0612 -0.0913
 2009SOL     hw 8034   3.278   5.000   6.301 -1.3013  0.8118 -0.6362
 2009SOL     hw 8035   3.296   4.974   6.449  1.7941 -0.5418 -1.1771
 2009SOL     vw 8036   3.277   5.028   6.384  0.1167 -0.0093 -0.3066
 2010SOL     ow 8037   5.547   4.629   6.453  0.6312 -0.3969  0.0167
 2010SOL     hw 8038   5.572   4.638   6.362 -0.6386  1.0131 -0.2506
 2010SOL     hw 8039   5.460   4.670   6.458  0.5363 -0.7119  1.7919
 2010SOL     vw 8040   5.539   4.636   6.442  0.4508 -0.2525  0.2160
 2011SOL     ow 8041   2.712   0.962   0.878  0.1902 -0.0145 -0.4386
 2011SOL     hw 8042   2.645   0.968   0.946  0.7398 -0.5782  0.1754
 2011SOL     hw 8043   2.664   0.942   0.798 -0.4861  0.8409 -0.2613
 2011SOL     vw 8044   2.697   0.960   0.876  0.1736  0.0240 -0.3342
 2012SOL     ow 8045   0.256   5.773   5.699 -0.3645  0.0996  0.1758
 2012SOL     hw 8046   0.211   5.693   5.675  0.7579  0.1869 -2.6190
 2012SOL     hw 8047   0.186   5.838   5.709 -1.1357 -0.7328  0.3181
 2012SOL     vw 8048   0.241   5.771   5.697 -0.3182  0.0014 -0.1743
 2013SOL     ow 8049   0.905   3.971   0.133  0.8492  0.2347 -0.3191
 2013SOL     hw 8050   0.845   3.994   0.062  2.6823  0.0360 -2.0548
 2013SOL     hw 8051   0.865   4.008   0.211 -1.7062 -0.2759 -1.2813
 2013SOL     vw 8052   0.892   3.979   0.134  0.7539  0.1410 -0.6751
 2014SOL     ow 8053   4.381   3.955   3.156  0.0553  0.3017 -0.9900
 2014SOL     hw 8054   4.318   3.890   3.186 -0.4824  1.1889 -0.1421
 2014SOL     hw 8055   4.376   3.951   3.061  0.9367 -1.7503 -0.9984
 2014SOL     vw 8056   4.372   3.946   3.148  0.1004  0.1479 -0.8790
 2015SOL     ow 8057   6.444   5.564   1.480 -0.0453 -0.2416 -0.2743
 2015SOL     hw 8058   6.483   5.477   1.476  0.0922 -0.2315  0.6430
 2015SOL     hw 8059   6.495   5.616   1.417  1.5783 -0.1878  0.9852
 2015SOL     vw 8060   6.456   5.559   1.471  0.1869 -0.2332  0.0128
 2016SOL     ow 8061   5.338   2.764   4.975  0.3164  0.9716 -0.3310
 2016SOL     hw 8062   5.326   2.691   5.035 -0.0863  0.1058 -1.4365
 2016SOL     hw 8063   5.297   2.838   5.020  0.1720  0.3883  0.5276
 2016SOL     vw 8064   5.331   2.764   4.989  0.2444  0.7803 -0.3636
 2017SOL     ow 8065   5.161   1.992   0.238 -0.0161  0.1586 -0.2716
 2017SOL     hw 8066   5.127   2.081   0.225  0.1634  0.8019  2.8191
 2017SOL     hw 8067   5.235   2.004   0.298  1.0813 -1.9558 -1.1174
 2017SOL     vw 8068   5.166   2.006   0.244  0.1521 -0.0355  0.0246
 2018SOL     ow 8069   5.606   2.285   4.228 -0.0663 -0.5150  0.5606
 2018SOL     hw 8070   5.559   2.208   4.260 -0.3773 -1.3716 -1.7321
 2018SOL     hw 8071   5.669   2.250   4.164  0.0265  1.0780 -0.2866
 2018SOL     vw 8072   5.608   2.270   4.223 -0.0951 -0.4178  0.1464
 2019SOL     ow 8073   3.080   4.448   2.067  0.1803 -0.7286 -0.0384
 2019SOL     hw 8074   3.158   4.446   2.122  0.7496 -0.9338 -0.8273
 2019SOL     hw 8075   3.087   4.530   2.019 -0.5869 -0.2957  0.5734
 2019SOL     vw 8076   3.091   4.458   2.068  0.1543 -0.6988 -0.0618
 2020SOL     ow 8077   1.685   4.430   1.024  0.0584  0.2062  0.7061
 2020SOL     hw 8078   1.741   4.355   1.044  1.5832  0.9117 -0.6749
 2020SOL     hw 8079   1.608   4.392   0.983  0.8015 -0.6316  0.0379
 2020SOL     vw 8080   1.683   4.415   1.021  0.3575  0.1891  0.4358
 2021SOL     ow 8081   5.516   1.083   2.451  0.2041  0.3358 -0.4567
 2021SOL     hw 8082   5.483   1.026   2.381 -0.7161  2.3614 -1.7805
 2021SOL     hw 8083   5.467   1.165   2.440  2.2703  1.8067  0.6201
 2021SOL     vw 8084   5.505   1.086   2.440  0.3552  0.7972 -0.4892
 2022SOL     ow 8085   3.848   4.541   0.370  0.0932  0.1802 -0.8653
 2022SOL     hw 8086   3.833   4.619   0.317 -1.1694  0.1770 -0.5447
 2022SOL     hw 8087   3.921   4.497   0.327  0.0308  0.9129 -1.7585
 2022SOL     vw 8088   3.856   4.546   0.357 -0.0817  0.2763 -0.9409
 2023SOL     ow 8089   1.623   4.264   3.645  0.5020 -0.1262  0.4696
 2023SOL     hw 8090   1.549   4.322   3.628  0.0577 -0.8159 -0.0187
 2023SOL     hw 8091   1.658   4.294   3.729 -0.8128 -0.2632  1.1040
 2023SOL     vw 8092   1.618   4.275   3.654  0.2699 -0.2353  0.4889
 2024SOL     ow 8093   1.878   2.892   0.721 -0.1487  0.0846 -0.7552
 2024SOL     hw 8094   1.931   2.812   0.729 -0.0981  0.1806 -0.0887
 2024SOL     hw 8095   1.866   2.903   0.627 -1.2465 -1.4205 -0.8293
 2024SOL     vw 8096   1.884   2.883   0.710 -0.2869 -0.1014 -0.6770
 2025SOL     ow 8097   4.126   4.425   0.375 -0.2519 -0.3310 -0.5082
 2025SOL     hw 8098   4.163   4.453   0.291 -0.8500 -0.3441 -0.7779
 2025SOL     hw 8099   4.085   4.340   0.356 -1.1515  0.0710 -0.4087
 2025SOL     vw 8100   4.126   4.417   0.361 -0.4494 -0.2797 -0.5307
 2026SOL     ow 8101   5.379   4.673   3.670  0.2592 -0.4891  0.8056
 2026SOL     hw 8102   5.449   4.608   3.661 -0.7124 -1.5912  0.9719
 2026SOL     hw 8103   5.422   4.749   3.709  1.2199 -1.4115  1.6092
 2026SOL     vw 8104   5.394   4.674   3.674  0.2577 -0.7563  0.9335
 2027SOL     ow 8105   6.178   4.810   4.908  0.0211 -0.5002  0.5409
 2027SOL     hw 8106   6.092   4.784   4.939 -0.1443 -2.0540 -1.1028
 2027SOL     hw 8107   6.230   4.729   4.910  0.6428 -0.1728 -1.0093
 2027SOL     vw 8108   6.174   4.796   4.912  0.0813 -0.6618  0.1199
 2028SOL     ow 8109   0.217   1.406   7.070  0.1316  0.3432 -0.0727
 2028SOL     hw 8110   0.246   1.360   6.991 -0.8349  1.6529 -1.2312
 2028SOL     hw 8111   0.169   1.340   7.120  0.4054 -0.3979 -0.7706
 2028SOL     vw 8112   0.215   1.391   7.067  0.0402  0.4183 -0.3176
 2029SOL     ow 8113   5.760   4.994   3.599  0.1075 -0.0675  0.1329
 2029SOL     hw 8114   5.724   4.912   3.633 -0.7262  0.3271  0.2136
 2029SOL     hw 8115   5.774   4.978   3.506  0.6416 -0.5380  0.2892
 2029SOL     vw 8116   5.757   4.981   3.592  0.0679 -0.0772  0.1643
 2030SOL     ow 8117   7.124   7.032   3.964  0.2350 -0.3055 -0.2997
 2030SOL     hw 8118   7.130   7.042   4.059 -2.2424  0.6131 -0.1658
 2030SOL     hw 8119   7.058   6.964   3.951  0.5518 -0.4329 -1.3944
 2030SOL     vw 8120   7.116   7.024   3.974 -0.0501 -0.2015 -0.4265
 2031SOL     ow 8121   5.570   1.767   6.621  0.1232  0.5546  0.7127
 2031SOL     hw 8122   5.621   1.752   6.541 -1.3365 -0.4810 -0.0602
 2031SOL     hw 8123   5.511   1.839   6.598 -1.6931 -1.0374  0.1141
 2031SOL     vw 8124   5.569   1.775   6.607 -0.3090  0.2079  0.5317
 2032SOL     ow 8125   0.303   6.564   2.318 -0.5562  0.2358  0.7186
 2032SOL     hw 8126   0.342   6.485   2.356  0.8332  0.7302  0.3958
 2032SOL     hw 8127   0.269   6.535   2.233  0.2798  0.0445  0.4359
 2032SOL     vw 8128   0.304   6.549   2.312 -0.2626  0.2761  0.6387
 2033SOL     ow 8129   4.362   3.478   1.871  0.6853 -0.1183  0.0250
 2033SOL     hw 8130   4.306   3.423   1.925  0.1981 -1.1175 -1.4059
 2033SOL     hw 8131   4.434   3.420   1.846 -0.2687 -0.4665 -2.2007
 2033SOL     vw 8132   4.364   3.463   1.875  0.4952 -0.2961 -0.4575
 2034SOL     ow 8133   0.268   6.385   2.648 -0.0573  0.3884 -0.3195
 2034SOL     hw 8134   0.335   6.364   2.583  1.3098 -0.4441  1.2760
 2034SOL     hw 8135   0.261   6.481   2.644 -0.6074  0.2987 -2.2280
 2034SOL     vw 8136   0.276   6.395   2.639  0.0505  0.2668 -0.3610
 2035SOL     ow 8137   3.975   6.335   1.215 -0.4436 -0.1320 -0.0680
 2035SOL     hw 8138   3.937   6.295   1.137 -0.2866 -0.9925  0.2943
 2035SOL     hw 8139   3.905   6.391   1.250 -0.8885 -0.6034 -0.2005
 2035SOL     vw 8140   3.961   6.337   1.209 -0.4817 -0.3080 -0.0377
 2036SOL     ow 8141   0.551   6.538   2.086  0.3843 -0.5709  0.1823
 2036SOL     hw 8142   0.522   6.452   2.116 -0.6682 -0.7974 -1.3570
 2036SOL     hw 8143   0.473   6.593   2.091 -0.0978 -0.8254 -2.6959
 2036SOL     vw 8144   0.537   6.533   2.090  0.1818 -0.6347 -0.4005
 2037SOL     ow 8145   1.106   5.324   1.917 -0.6148  0.3005 -0.7873
 2037SOL     hw 8146   1.139   5.414   1.914  1.5131 -0.4282 -0.8872
 2037SOL     hw 8147   1.184   5.270   1.924 -1.8727 -1.5468 -0.2577
 2037SOL     vw 8148   1.120   5.329   1.917 -0.5001 -0.0396 -0.7306
 2038SOL     ow 8149   5.400   6.635   6.790  0.2641  0.1637  1.1676
 2038SOL     hw 8150   5.355   6.557   6.756  0.9865  0.4840 -0.6299
 2038SOL     hw 8151   5.417   6.689   6.712 -0.8569  2.4958  2.4382
 2038SOL     vw 8152   5.396   6.632   6.775  0.2115  0.5136  1.0979
 2039SOL     ow 8153   1.388   5.127   5.385  0.6773 -0.8283 -0.3866
 2039SOL     hw 8154   1.299   5.159   5.400  1.1926  1.0718 -1.0211
 2039SOL     hw 8155   1.396   5.121   5.290  2.2542  2.6291 -0.6573
 2039SOL     vw 8156   1.377   5.131   5.375  0.9533 -0.1211 -0.5059
 2040SOL     ow 8157   6.454   0.913   0.660 -0.5791 -0.1852  0.2645
 2040SOL     hw 8158   6.443   0.844   0.725 -1.6184  0.0566  0.3571
 2040SOL     hw 8159   6.495   0.985   0.709 -3.0578  0.7128  1.1910
 2040SOL     vw 8160   6.458   0.913   0.675 -1.0431 -0.0348  0.3990
 2041SOL     ow 8161   3.834   5.918   0.038  0.3095  0.5490  0.2868
 2041SOL     hw 8162   3.899   5.986   0.054  1.1259 -0.0829 -0.2969
 2041SOL     hw 8163   3.772   5.926   0.111  0.9605  1.2480  0.7695
 2041SOL     vw 8164   3.834   5.928   0.049  0.5031  0.5581  0.2735
 2042SOL     ow 8165   3.904   4.589   3.885 -0.4534  0.2216  0.1472
 2042SOL     hw 8166   3.941   4.532   3.817 -1.2573  0.3149 -0.3814
 2042SOL     hw 8167   3.949   4.562   3.965  1.4131  0.9447 -0.6003
 2042SOL     vw 8168   3.915   4.578   3.887 -0.3132  0.3293 -0.0212
 2043SOL     ow 8169   1.155   3.768   7.011  0.1575  0.4182  0.2433
 2043SOL     hw 8170   1.107   3.838   6.968  0.1594  1.3222  1.6800
 2043SOL     hw 8171   1.116   3.687   6.975 -2.0568  1.1091  0.9293
 2043SOL     vw 8172   1.143   3.766   7.000 -0.1343  0.6287  0.5236
 2044SOL     ow 8173   6.701   4.946   0.571  0.1564 -0.4217  0.1274
 2044SOL     hw 8174   6.669   4.928   0.482 -2.7589 -0.0496  0.9954
 2044SOL     hw 8175   6.648   4.889   0.627 -1.4456  2.5741  1.9651
 2044SOL     vw 8176   6.690   4.936   0.567 -0.4394  0.0226  0.4844
 2045SOL     ow 8177   0.288   7.018   2.920 -0.2390 -0.2295 -0.6229
 2045SOL     hw 8178   0.348   6.974   2.981  0.7513  1.4745 -0.2886
 2045SOL     hw 8179   0.346   7.056   2.853 -0.8947  1.6431 -0.1773
 2045SOL     vw 8180   0.304   7.017   2.919 -0.1948  0.2422 -0.5201
 2046SOL     ow 8181   1.052   2.009   1.599  0.0414  0.2557 -0.2334
 2046SOL     hw 8182   1.103   1.928   1.591  0.8476  0.4035  2.3948
 2046SOL     hw 8183   1.038   2.038   1.509 -1.1104 -3.2660 -1.3483
 2046SOL     vw 8184   1.057   2.002   1.586 -0.0042 -0.1894 -0.0337
 2047SOL     ow 8185   3.624   4.046   2.209  0.0063 -0.5023  0.3913
 2047SOL     hw 8186   3.665   4.116   2.157 -1.3051 -0.2642 -0.3646
 2047SOL     hw 8187   3.682   3.971   2.198 -0.1766 -0.4304 -1.3884
 2047SOL     vw 8188   3.637   4.045   2.201 -0.1910 -0.4613  0.0569
 2048SOL     ow 8189   3.835   4.734   0.187  0.4326 -0.0975 -0.1555
 2048SOL     hw 8190   3.853   4.828   0.185  0.4296 -0.0301  1.7666
 2048SOL     hw 8191   3.907   4.695   0.136 -0.6127  1.0227 -2.6519
 2048SOL     vw 8192   3.847   4.741   0.180  0.2943  0.0594 -0.2313
 2049SOL     ow 8193   2.887   6.524   3.443 -0.1094  0.1033  0.6571
 2049SOL     hw 8194   2.816   6.485   3.495 -0.2415 -0.8894 -0.2266
 2049SOL     hw 8195   2.887   6.616   3.469 -1.7435  0.1400  0.6841
 2049SOL     vw 8196   2.877   6.531   3.454 -0.3424 -0.0229  0.5440
 2050SOL     ow 8197   6.901   0.902   0.698  0.2830  0.4290  0.1673
 2050SOL     hw 8198   6.894   0.906   0.794 -2.3828  0.8778  0.0249
 2050SOL     hw 8199   6.957   0.826   0.682 -0.0087 -0.2631  2.0665
 2050SOL     vw 8200   6.908   0.893   0.709 -0.1070  0.3969  0.3990
 2051SOL     ow 8201   6.681   7.027   2.134 -0.2909  0.3466 -0.5410
 2051SOL     hw 8202   6.717   6.981   2.058  1.3529  0.4927  0.1074
 2051SOL     hw 8203   6.733   7.107   2.140 -0.7806  0.6063  0.4080
 2051SOL     vw 8204   6.693   7.032   2.125 -0.1385  0.4003 -0.3302
 2052SOL     ow 8205   3.072   0.605   3.043  0.4820 -0.5101  0.0729
 2052SOL     hw 8206   3.060   0.636   2.953 -0.6110 -1.6052 -0.1898
 2052SOL     hw 8207   3.122   0.674   3.086  0.5039  0.3062 -1.2156
 2052SOL     vw 8208   3.077   0.618   3.037  0.3406 -0.5469 -0.1317
 2053SOL     ow 8209   2.993   4.993   2.389 -0.6605 -0.6089  0.1030
 2053SOL     hw 8210   3.036   4.923   2.438 -0.4566 -0.7374 -0.2522
 2053SOL     hw 8211   3.022   5.074   2.432 -0.9642 -0.7479  0.5658
 2053SOL     vw 8212   3.003   4.995   2.401 -0.6737 -0.6442  0.1172
 2054SOL     ow 8213   5.309   6.913   2.275 -0.2839  0.2641  0.3002
 2054SOL     hw 8214   5.303   6.972   2.200  2.3831  0.0939 -0.1567
 2054SOL     hw 8215   5.317   6.826   2.236 -0.8225 -0.0373  0.8560
 2054SOL     vw 8216   5.309   6.909   2.260 -0.0031  0.2019  0.3133
 2055SOL     ow 8217   0.861   3.551   4.221  0.1157 -0.2188  0.6417
 2055SOL     hw 8218   0.908   3.472   4.195 -0.5089 -0.4868  0.3135
 2055SOL     hw 8219   0.927   3.603   4.267  0.6871 -0.6665  0.3537
 2055SOL     vw 8220   0.876   3.547   4.223  0.1087 -0.3134  0.5603
 2056SOL     ow 8221   1.697   4.532   0.618  0.2123  0.3411  0.2070
 2056SOL     hw 8222   1.713   4.439   0.635  0.3178  0.3213  0.0082
 2056SOL     hw 8223   1.603   4.537   0.600 -0.0410  0.4749  1.4824
 2056SOL     vw 8224   1.687   4.521   0.618  0.1928  0.3562  0.3490
 2057SOL     ow 8225   4.049   0.845   3.401  0.1725 -0.5420 -0.1898
 2057SOL     hw 8226   4.127   0.801   3.432  1.4794  1.9182  0.2792
 2057SOL     hw 8227   3.982   0.823   3.466  2.0984  2.1726  3.0627
 2057SOL     vw 8228   4.050   0.836   3.414  0.5991  0.1408  0.3012
 2058SOL     ow 8229   0.335   4.062   4.329  0.2943  0.2976  0.7927
 2058SOL     hw 8230   0.334   4.122   4.404 -1.4511  2.2476 -0.6527
 2058SOL     hw 8231   0.415   4.084   4.282  0.1522  0.8195  0.7904
 2058SOL     vw 8232   0.346   4.073   4.333  0.0453  0.6239  0.6020
 2059SOL     ow 8233   4.334   2.748   4.402 -0.1076  0.4832 -0.0325
 2059SOL     hw 8234   4.247   2.786   4.407 -0.1050  0.5494 -0.4440
 2059SOL     hw 8235   4.336   2.683   4.473 -0.1525  1.1545  0.5917
 2059SOL     vw 8236   4.323   2.744   4.412 -0.1132  0.5805 -0.0045
 2060SOL     ow 8237   1.596   1.156   5.298  0.5268  0.4310 -0.2815
 2060SOL     hw 8238   1.629   1.067   5.314 -0.8718  0.0374  0.5494
 2060SOL     hw 8239   1.654   1.212   5.349  2.2069  0.1619 -1.7924
 2060SOL     vw 8240   1.608   1.152   5.307  0.5639  0.3437 -0.3712
 2061SOL     ow 8241   5.242   0.546   0.935  0.3085  0.1919  0.2221
 2061SOL     hw 8242   5.304   0.520   1.002  1.1254 -0.6672 -0.8220
 2061SOL     hw 8243   5.199   0.465   0.908 -1.6883  0.8216  1.2598
 2061SOL     vw 8244   5.244   0.532   0.940  0.1528  0.1616  0.2213
 2062SOL     ow 8245   3.452   3.772   4.519 -0.2471 -0.2773  0.0004
 2062SOL     hw 8246   3.545   3.750   4.520  0.2825  1.6142 -1.2245
 2062SOL     hw 8247   3.437   3.820   4.600 -0.4464 -1.4900  0.7091
 2062SOL     vw 8248   3.462   3.775   4.530 -0.2036 -0.1875 -0.0679
 2063SOL     ow 8249   0.002   2.077   2.796  0.0638 -0.0960 -0.3989
 2063SOL     hw 8250  -0.053   2.137   2.745  0.9167  0.6325 -0.4868
 2063SOL     hw 8251  -0.045   1.994   2.794 -0.7246  0.3499 -0.9964
 2063SOL     vw 8252  -0.011   2.074   2.789  0.0723  0.0589 -0.4896
 2064SOL     ow 8253   2.654   0.048   4.266 -0.5236 -0.6366  0.0278
 2064SOL     hw 8254   2.605   0.089   4.195 -1.6050  0.7313  1.4921
 2064SOL     hw 8255   2.594  -0.015   4.304 -0.4243 -0.4237  0.5488
 2064SOL     vw 8256   2.640   0.045   4.262 -0.6534 -0.4280  0.2899
 2065SOL     ow 8257   5.795   5.432   2.707 -0.6464 -0.4018  0.0514
 2065SOL     hw 8258   5.786   5.519   2.745  1.3776 -0.1171 -0.0376
 2065SOL     hw 8259   5.785   5.445   2.613 -0.3131 -0.2491  0.0356
 2065SOL     vw 8260   5.792   5.445   2.699 -0.3352 -0.3445  0.0374
 2066SOL     ow 8261   2.033   7.140   3.382 -0.0019 -0.5889  0.4092
 2066SOL     hw 8262   2.080   7.207   3.432  1.6628 -2.3837  1.3993
 2066SOL     hw 8263   1.941   7.166   3.387  0.5554  1.4785  0.9058
 2066SOL     vw 8264   2.027   7.152   3.389  0.2912 -0.5527  0.6053
 2067SOL     ow 8265   4.828   1.133   3.706 -0.0003 -0.0332 -0.3168
 2067SOL     hw 8266   4.776   1.070   3.757  0.4457  0.9148  1.3858
 2067SOL     hw 8267   4.902   1.082   3.674 -0.1009 -0.5846  0.3053
 2067SOL     vw 8268   4.831   1.118   3.709  0.0453  0.0191 -0.0101
 2068SOL     ow 8269   2.968   5.044   3.106 -0.0540 -0.0224  0.1894
 2068SOL     hw 8270   3.064   5.045   3.103  0.2478  2.7333  3.6943
 2068SOL     hw 8271   2.943   5.136   3.097 -2.3065 -0.5664  0.4035
 2068SOL     vw 8272   2.977   5.056   3.104 -0.3114  0.2692  0.6802
 2069SOL     ow 8273   6.098   5.069   5.487 -0.1645  0.2375 -0.0581
 2069SOL     hw 8274   6.120   5.136   5.552 -0.3434 -0.5605  0.8484
 2069SOL     hw 8275   6.169   5.006   5.493 -0.6368 -0.2952 -0.0011
 2069SOL     vw 8276   6.110   5.070   5.497 -0.2501  0.0622  0.0691
 2070SOL     ow 8277   6.500   1.718   2.262  0.4471  0.0352  0.0856
 2070SOL     hw 8278   6.467   1.804   2.235 -0.8372 -0.5884 -0.4098
 2070SOL     hw 8279   6.565   1.696   2.196  2.5959  1.6462  1.5258
 2070SOL     vw 8280   6.504   1.727   2.250  0.5608  0.1654  0.2104
 2071SOL     ow 8281   6.225   0.603   2.587 -0.1549 -0.6687  0.0396
 2071SOL     hw 8282   6.198   0.677   2.532  0.7130 -0.7328 -0.4893
 2071SOL     hw 8283   6.197   0.526   2.539 -1.8634 -0.6968  1.0146
 2071SOL     vw 8284   6.218   0.603   2.574 -0.2658 -0.6809  0.0985
 2072SOL     ow 8285   2.090   3.365   1.050 -0.4322 -0.5394 -0.0130
 2072SOL     hw 8286   2.015   3.411   1.088 -2.1005 -3.3531  0.4042
 2072SOL     hw 8287   2.155   3.362   1.120 -1.2470 -0.8204  0.7478
 2072SOL     vw 8288   2.089   3.370   1.064 -0.7600 -0.9476  0.1425
 2073SOL     ow 8289   4.475   5.660   3.433  0.3264  0.0051 -0.0689
 2073SOL     hw 8290   4.471   5.597   3.506  2.9861 -2.7657 -2.0582
 2073SOL     hw 8291   4.538   5.726   3.463 -0.0098 -0.0391  0.7931
 2073SOL     vw 8292   4.483   5.660   3.447  0.6330 -0.3660 -0.2176
 2074SOL     ow 8293   0.712   3.070   1.683 -0.2279 -0.4252 -0.7222
 2074SOL     hw 8294   0.770   2.994   1.683  0.8053  0.2936  1.1022
 2074SOL     hw 8295   0.641   3.045   1.743  0.0457 -0.0142 -0.2219
 2074SOL     vw 8296   0.710   3.057   1.691 -0.0554 -0.2761 -0.4155
 2075SOL     ow 8297   4.895   5.192   5.090  0.3821 -0.3986 -0.2034
 2075SOL     hw 8298   4.816   5.143   5.065  0.3763 -1.5508  1.8561
 2075SOL     hw 8299   4.953   5.126   5.128  2.2324  0.4905 -1.3802
 2075SOL     vw 8300   4.892   5.177   5.092  0.6256 -0.4330 -0.0870
 2076SOL     ow 8301   5.831   4.643   5.931 -0.1015  0.9569 -0.6807
 2076SOL     hw 8302   5.885   4.682   6.000  1.1926 -1.6030 -0.1069
 2076SOL     hw 8303   5.831   4.549   5.951 -1.8149  0.4382 -2.7499
 2076SOL     vw 8304   5.838   4.635   5.942 -0.1571  0.5505 -0.8783
 2077SOL     ow 8305   4.870   2.377   4.212 -0.2714 -0.1039 -0.0565
 2077SOL     hw 8306   4.884   2.472   4.204 -0.1095 -0.0805  0.4554
 2077SOL     hw 8307   4.780   2.363   4.184 -1.0521  0.5141  1.9368
 2077SOL     vw 8308   4.860   2.388   4.207 -0.3531 -0.0192  0.2739
 2078SOL     ow 8309   5.193   1.407   0.890 -0.0727  0.0098  0.7649
 2078SOL     hw 8310   5.232   1.491   0.916 -0.2782  0.6301 -0.8007
 2078SOL     hw 8311   5.099   1.418   0.907  0.0175 -0.3078  1.5290
 2078SOL     vw 8312   5.186   1.420   0.896 -0.0877  0.0498  0.6592
 2079SOL     ow 8313   5.391   1.396   4.046 -0.3819  0.1976 -0.1457
 2079SOL     hw 8314   5.334   1.390   3.969  0.4786  2.2945 -1.0036
 2079SOL     hw 8315   5.467   1.446   4.016  0.8053 -0.4473  1.6229
 2079SOL     vw 8316   5.393   1.402   4.032 -0.1118  0.3892 -0.0255
 2080SOL     ow 8317   1.015   4.675   7.187 -0.4692 -0.2664  0.2928
 2080SOL     hw 8318   0.981   4.652   7.101  2.0314 -1.3224 -0.4977
 2080SOL     hw 8319   0.999   4.598   7.241  1.5386 -1.2599 -0.4101
 2080SOL     vw 8320   1.008   4.662   7.183  0.1256 -0.5369  0.0958
 2081SOL     ow 8321   4.270   0.912   1.648  0.0111 -0.0039 -0.0721
 2081SOL     hw 8322   4.254   0.993   1.696  2.2934  1.4053 -1.5181
 2081SOL     hw 8323   4.362   0.893   1.661  0.0963 -0.9910 -1.7414
 2081SOL     vw 8324   4.280   0.920   1.656  0.3235  0.0518 -0.4831
 2082SOL     ow 8325   0.969   3.100   3.052 -0.1930  0.1084  0.5284
 2082SOL     hw 8326   1.002   3.157   2.983 -0.9267  0.5642  0.5510
 2082SOL     hw 8327   0.882   3.074   3.023  0.7743 -2.4992 -0.3837
 2082SOL     vw 8328   0.962   3.104   3.039 -0.1622 -0.1757  0.4110
 2083SOL     ow 8329   5.814   4.996   3.316  0.4498 -0.0495  0.2030
 2083SOL     hw 8330   5.839   4.928   3.253 -2.2628 -1.2527  0.3030
 2083SOL     hw 8331   5.783   5.069   3.262  1.2874  0.2813  0.1433
 2083SOL     vw 8332   5.813   4.997   3.300  0.2027 -0.1647  0.2081
 2084SOL     ow 8333   2.884   0.811   3.776 -0.2721 -0.4420 -0.4741
 2084SOL     hw 8334   2.798   0.845   3.800 -0.9061  0.8057 -4.0243
 2084SOL     hw 8335   2.946   0.874   3.813 -1.1071  0.8149 -1.1429
 2084SOL     vw 8336   2.881   0.823   3.784 -0.4660 -0.1115 -1.0307
 2085SOL     ow 8337   6.631   1.407   2.548  0.3144 -0.1464  0.1078
 2085SOL     hw 8338   6.685   1.333   2.576  0.8491  0.2305  0.0894
 2085SOL     hw 8339   6.688   1.483   2.558 -1.0677  0.6707  2.7658
 2085SOL     vw 8340   6.645   1.407   2.553  0.2027  0.0111  0.4560
 2086SOL     ow 8341   5.303   7.013   2.557  0.3661 -0.1856 -0.6057
 2086SOL     hw 8342   5.368   7.067   2.511  0.9771 -1.1633 -0.9406
 2086SOL     hw 8343   5.355   6.966   2.623 -0.8322  3.1265  3.0764
 2086SOL     vw 8344   5.319   7.014   2.559  0.2887  0.1221 -0.1639
 2087SOL     ow 8345   4.105   2.568   6.880  0.1503 -0.0659  0.0012
 2087SOL     hw 8346   4.141   2.481   6.867  1.3448  0.5254 -0.8166
 2087SOL     hw 8347   4.051   2.583   6.802  0.6537  0.2564 -0.2910
 2087SOL     vw 8348   4.102   2.559   6.868  0.3743  0.0546 -0.1452
 2088SOL     ow 8349   0.687   3.196   0.270  0.5559 -0.0082  0.2422
 2088SOL     hw 8350   0.747   3.184   0.344  1.1530 -0.1551 -0.2656
 2088SOL     hw 8351   0.720   3.139   0.202  0.4510  0.6924 -0.4094
 2088SOL     vw 8352   0.699   3.187   0.271  0.6208  0.0648  0.0892
 2089SOL     ow 8353   2.327   3.776   5.914  0.1737 -0.7399  0.4808
 2089SOL     hw 8354   2.334   3.837   5.841  1.6658  0.1141  1.2788
 2089SOL     hw 8355   2.374   3.698   5.885  0.3860 -0.5658  0.3530
 2089SOL     vw 8356   2.334   3.774   5.901  0.3984 -0.6043  0.5691
 2090SOL     ow 8357   4.199   5.108   3.881  0.0920  0.4203  0.1789
 2090SOL     hw 8358   4.197   5.089   3.975 -0.7141  1.9770  0.5010
 2090SOL     hw 8359   4.153   5.191   3.872 -0.6194 -0.1192 -1.7076
 2090SOL     vw 8360   4.193   5.116   3.892 -0.1082  0.5543 -0.0275
 2091SOL     ow 8361   1.544   1.101   4.494 -0.2776 -0.9718  0.1946
 2091SOL     hw 8362   1.455   1.071   4.478  0.0404 -0.8062 -2.4205
 2091SOL     hw 8363   1.598   1.024   4.478  0.0973 -1.0565  1.7027
 2091SOL     vw 8364   1.540   1.087   4.490 -0.1861 -0.9611  0.0484
 2092SOL     ow 8365   1.842   2.175   0.686  0.1043  0.7221 -0.3377
 2092SOL     hw 8366   1.809   2.089   0.661 -0.4164  0.8555 -0.1367
 2092SOL     hw 8367   1.784   2.203   0.758 -0.0813  1.4732 -0.7641
 2092SOL     vw 8368   1.830   2.168   0.692  0.0112  0.8389 -0.3675
 2093SOL     ow 8369   2.339   1.134   4.672  0.2075  0.1613  0.1009
 2093SOL     hw 8370   2.340   1.081   4.592  2.7847 -1.9464  1.3732
 2093SOL     hw 8371   2.259   1.106   4.718 -0.3422  0.0739 -0.8816
 2093SOL     vw 8372   2.328   1.123   4.667  0.4752 -0.1283  0.1392
 2094SOL     ow 8373   5.647   4.620   6.210  0.6289 -1.0719  0.2502
 2094SOL     hw 8374   5.736   4.585   6.221  0.9056  0.3219  4.2215
 2094SOL     hw 8375   5.660   4.705   6.168  1.2103 -0.8339  0.8893
 2094SOL     vw 8376   5.661   4.627   6.206  0.7422 -0.8569  0.8583
 2095SOL     ow 8377   5.567   5.276   2.335  0.5048  0.0250 -0.1295
 2095SOL     hw 8378   5.563   5.315   2.248  1.7839  0.8623  0.1615
 2095SOL     hw 8379   5.477   5.249   2.354  0.0346  0.7276 -1.2993
 2095SOL     vw 8380   5.555   5.278   2.326  0.6113  0.2282 -0.2453
 2096SOL     ow 8381   0.353   5.311   3.600 -0.1929  0.8616 -0.1440
 2096SOL     hw 8382   0.332   5.218   3.593 -1.8984  1.2730 -0.8069
 2096SOL     hw 8383   0.391   5.321   3.687 -2.5385  0.0032  1.0326
 2096SOL     vw 8384   0.355   5.300   3.610 -0.7274  0.8025 -0.0762
 2097SOL     ow 8385   7.122   0.618   2.852 -0.3365  0.2678 -0.0981
 2097SOL     hw 8386   7.217   0.617   2.865 -0.2572  0.9304 -0.5863
 2097SOL     hw 8387   7.096   0.527   2.861  0.1087  0.2905  1.7691
 2097SOL     vw 8388   7.131   0.606   2.855 -0.2670  0.3582  0.0838
 2098SOL     ow 8389   3.369   0.775   4.623  0.2375 -0.4481  0.1417
 2098SOL     hw 8390   3.298   0.788   4.560 -1.1107 -5.6563  0.1097
 2098SOL     hw 8391   3.339   0.818   4.703 -0.2692  2.1065 -1.3173
 2098SOL     vw 8392   3.356   0.782   4.625 -0.0072 -0.7982 -0.0548
 2099SOL     ow 8393   0.174   1.729   1.353 -0.0156  0.1903 -0.3172
 2099SOL     hw 8394   0.251   1.770   1.392  0.4725  1.0631 -2.1337
 2099SOL     hw 8395   0.101   1.786   1.380  0.2733  0.6104 -0.4136
 2099SOL     vw 8396   0.174   1.742   1.362  0.0869  0.3610 -0.5696
 2100SOL     ow 8397   1.210   4.469   1.820 -0.1533 -0.6172  0.3211
 2100SOL     hw 8398   1.235   4.525   1.748 -0.1582 -1.0317 -0.0084
 2100SOL     hw 8399   1.155   4.524   1.876 -0.4950 -0.4138 -0.2060
 2100SOL     vw 8400   1.206   4.483   1.818 -0.1990 -0.6449  0.2081
 2101SOL     ow 8401   0.043   4.268   5.761 -0.0146 -0.0088  0.2896
 2101SOL     hw 8402  -0.030   4.240   5.704 -0.1764 -0.7813  0.8602
 2101SOL     hw 8403   0.061   4.192   5.816 -0.1525  0.8631  1.5806
 2101SOL     vw 8404   0.035   4.254   5.760 -0.0542  0.0045  0.5352
 2102SOL     ow 8405   5.153   5.978   6.933 -0.6900  0.4949  0.1713
 2102SOL     hw 8406   5.181   6.052   6.986 -1.0090  0.1562  0.8192
 2102SOL     hw 8407   5.233   5.947   6.890 -0.6565  1.5595 -0.5553
 2102SOL     vw 8408   5.167   5.983   6.934 -0.7277  0.5908  0.1607
 2103SOL     ow 8409   2.111   5.896   6.288 -0.4239 -0.7005 -0.1490
 2103SOL     hw 8410   2.130   5.955   6.215  1.5869  1.0201  1.6329
 2103SOL     hw 8411   2.170   5.822   6.275 -0.2746 -0.5369 -0.4194
 2103SOL     vw 8412   2.121   5.894   6.277 -0.1389 -0.4520  0.0503
 2104SOL     ow 8413   0.821   2.592   0.840  0.0271  0.1214  0.1445
 2104SOL     hw 8414   0.898   2.620   0.791 -0.5997  3.0889  0.6198
 2104SOL     hw 8415   0.845   2.604   0.932  0.1874 -2.5202  0.5124
 2104SOL     vw 8416   0.834   2.597   0.846 -0.0345  0.1644  0.2557
 2105SOL     ow 8417   0.392   5.889   6.767  0.4093 -0.6033 -0.0421
 2105SOL     hw 8418   0.335   5.816   6.747  1.0320 -1.7515  2.0110
 2105SOL     hw 8419   0.333   5.963   6.784 -0.3083 -1.0670 -0.5016
 2105SOL     vw 8420   0.377   5.889   6.767  0.3968 -0.8159  0.1681
 2106SOL     ow 8421   3.633   0.075   6.491  0.1687 -0.1243 -0.2032
 2106SOL     hw 8422   3.727   0.089   6.501 -0.0422  0.7194  0.6680
 2106SOL     hw 8423   3.592   0.157   6.517 -0.8457 -0.6419 -0.0827
 2106SOL     vw 8424   3.640   0.087   6.495  0.0069 -0.0813 -0.0725
 2107SOL     ow 8425   5.696   5.240   3.694  0.2120  0.4621 -0.3663
 2107SOL     hw 8426   5.631   5.203   3.754 -0.6799  1.2618 -0.7947
 2107SOL     hw 8427   5.731   5.164   3.646  0.1302 -0.0583  0.3883
 2107SOL     vw 8428   5.692   5.225   3.695  0.0832  0.4988 -0.3233
 2108SOL     ow 8429   3.235   1.375   6.995 -0.4962 -0.2793 -0.1257
 2108SOL     hw 8430   3.145   1.353   7.019 -1.4142  0.3348 -2.6953
 2108SOL     hw 8431   3.227   1.456   6.945  1.5269 -0.1071 -0.2446
 2108SOL     vw 8432   3.222   1.383   6.991 -0.3504 -0.1755 -0.4802
 2109SOL     ow 8433   5.291   5.195   3.053 -0.2783  0.0313  0.1422
 2109SOL     hw 8434   5.386   5.196   3.065 -0.2598 -1.2926  0.1572
 2109SOL     hw 8435   5.265   5.104   3.066 -1.3412  0.0721 -1.4134
 2109SOL     vw 8436   5.300   5.183   3.056 -0.4163 -0.1376 -0.0612
 2110SOL     ow 8437   1.351   1.303   0.506  0.1175  0.6929 -0.4364
 2110SOL     hw 8438   1.435   1.346   0.491 -0.7937  2.4167 -0.9117
 2110SOL     hw 8439   1.373   1.212   0.523  2.0830  1.1312 -0.4025
 2110SOL     vw 8440   1.365   1.297   0.506  0.2567  0.9782 -0.4946
 2111SOL     ow 8441   4.259   2.694   1.964 -0.5792  0.1176  0.0624
 2111SOL     hw 8442   4.304   2.633   1.906  0.0952  0.5360  0.1372
 2111SOL     hw 8443   4.173   2.654   1.979 -0.0797 -0.8966  0.2659
 2111SOL     vw 8444   4.254   2.680   1.958 -0.4244  0.0389  0.0991
 2112SOL     ow 8445   4.973   4.278   6.409 -0.1613  0.4320  0.0040
 2112SOL     hw 8446   4.886   4.240   6.415 -0.1917  0.2790 -1.1430
 2112SOL     hw 8447   4.978   4.312   6.320  2.0661 -2.4058 -1.0977
 2112SOL     vw 8448   4.962   4.278   6.398  0.1287  0.0374 -0.2928
 2113SOL     ow 8449   3.830   7.023   6.990  0.3562  0.5733  0.0531
 2113SOL     hw 8450   3.791   6.960   6.929  1.5891 -0.2703  0.1043
 2113SOL     hw 8451   3.836   6.975   7.073 -2.3007  2.0284  1.2245
 2113SOL     vw 8452   3.826   7.008   6.993  0.1683  0.6537  0.2143
 2114SOL     ow 8453   3.679   4.821   0.483 -0.2178  0.7045  0.1651
 2114SOL     hw 8454   3.755   4.868   0.447 -0.6961  2.1319  0.9655
 2114SOL     hw 8455   3.603   4.866   0.446 -0.7509 -1.4371 -1.5625
 2114SOL     vw 8456   3.679   4.833   0.473 -0.3513  0.6104  0.0428
 2115SOL     ow 8457   6.766   3.001   6.866  0.4461 -0.0238  0.2396
 2115SOL     hw 8458   6.676   2.977   6.889  1.0119 -0.2160  2.5118
 2115SOL     hw 8459   6.765   3.097   6.862  0.2714  0.0167  1.0149
 2115SOL     vw 8460   6.754   3.010   6.868  0.4978 -0.0439  0.6416
 2116SOL     ow 8461   0.068   2.024   0.360  0.0267 -0.5684  0.0317
 2116SOL     hw 8462   0.009   1.958   0.395 -0.3312 -1.5910 -2.3323
 2116SOL     hw 8463   0.125   2.047   0.433 -0.3685 -2.8943  1.1500
 2116SOL     vw 8464   0.068   2.018   0.374 -0.0726 -1.0101 -0.1327
 2117SOL     ow 8465   5.878   0.093   3.064 -0.5125  0.4094 -0.2593
 2117SOL     hw 8466   5.951   0.109   3.004  1.1657 -1.0451  1.2803
 2117SOL     hw 8467   5.836   0.179   3.073  1.2262  1.3953 -0.9106
 2117SOL     vw 8468   5.883   0.107   3.057 -0.0615  0.3476 -0.1421
 2118SOL     ow 8469   3.076   6.705   0.350 -0.5600  0.4413  0.0783
 2118SOL     hw 8470   3.040   6.649   0.281  0.0748  0.9724 -0.7062
 2118SOL     hw 8471   3.001   6.754   0.384 -0.7804  0.6277 -0.6658
 2118SOL     vw 8472   3.062   6.704   0.345 -0.5053  0.5362 -0.1234
 2119SOL     ow 8473   1.375   0.469   0.734 -0.0250 -0.0266  0.4125
 2119SOL     hw 8474   1.310   0.494   0.800  0.7481 -1.7407  1.9198
 2119SOL     hw 8475   1.459   0.497   0.772  0.3028  0.4947 -0.6627
 2119SOL     vw 8476   1.378   0.476   0.748  0.1202 -0.1840  0.4695
 2120SOL     ow 8477   5.974   2.943   3.268 -0.6481  0.0916  0.3918
 2120SOL     hw 8478   5.926   2.860   3.260 -0.7101 -0.1078  2.2668
 2120SOL     hw 8479   6.036   2.942   3.195 -1.9234 -0.7032 -0.7415
 2120SOL     vw 8480   5.976   2.932   3.257 -0.8247 -0.0396  0.4897
 2121SOL     ow 8481   4.590   6.533   6.424 -0.3378  0.5502  0.1296
 2121SOL     hw 8482   4.661   6.471   6.445 -0.3735  0.4068 -0.1666
 2121SOL     hw 8483   4.529   6.524   6.496  0.0018  0.7553  0.4460
 2121SOL     vw 8484   4.592   6.523   6.436 -0.2978  0.5581  0.1323
 2122SOL     ow 8485   1.277   5.398   6.381 -0.5820 -0.3407 -0.2751
 2122SOL     hw 8486   1.190   5.427   6.353 -0.6496 -1.1183 -0.8959
 2122SOL     hw 8487   1.297   5.323   6.325  0.8722  0.3544 -0.7551
 2122SOL     vw 8488   1.268   5.392   6.370 -0.3990 -0.3519 -0.4203
 2123SOL     ow 8489   1.833   2.021   5.481 -0.8499 -0.0334 -0.3458
 2123SOL     hw 8490   1.758   2.031   5.422 -0.4299 -0.4020 -0.9432
 2123SOL     hw 8491   1.889   1.956   5.439 -0.7163 -0.5722  0.6382
 2123SOL     vw 8492   1.830   2.014   5.468 -0.7768 -0.1532 -0.2949
 2124SOL     ow 8493   5.998   1.076   0.219  0.0994 -0.2390  0.0498
 2124SOL     hw 8494   5.997   1.165   0.183  0.1626  0.3459  1.4458
 2124SOL     hw 8495   5.935   1.028   0.164 -1.5254  1.2012  0.5497
 2124SOL     vw 8496   5.989   1.081   0.207 -0.1066  0.0281  0.3000
 2125SOL     ow 8497   1.891   2.618   0.489  0.1707  0.6547  0.1328
 2125SOL     hw 8498   1.911   2.700   0.443 -0.9739 -0.5623 -2.8178
 2125SOL     hw 8499   1.796   2.611   0.485  0.2272 -0.6536  0.6597
 2125SOL     vw 8500   1.881   2.628   0.482  0.0271  0.3215 -0.1869
 2126SOL     ow 8501   2.373   6.574   2.453  0.3236  0.1298 -0.2187
 2126SOL     hw 8502   2.298   6.573   2.393 -0.4008  0.4508  0.6459
 2126SOL     hw 8503   2.442   6.528   2.406  0.6061  2.5084 -2.3181
 2126SOL     vw 8504   2.372   6.568   2.439  0.2654  0.4861 -0.3816
 2127SOL     ow 8505   2.358   1.299   1.175  0.6318 -0.1209 -0.1008
 2127SOL     hw 8506   2.360   1.263   1.086 -0.9354  1.1470 -0.6900
 2127SOL     hw 8507   2.435   1.356   1.179  0.9073 -0.4507 -0.5194
 2127SOL     vw 8508   2.368   1.302   1.163  0.4613  0.0029 -0.2339
 2128SOL     ow 8509   2.119   4.982   4.688  0.2396 -0.5058  0.1548
 2128SOL     hw 8510   2.210   4.985   4.658 -0.0442  1.4971 -0.6076
 2128SOL     hw 8511   2.109   5.061   4.742 -1.1137 -0.5656  0.0181
 2128SOL     vw 8512   2.130   4.993   4.691  0.0235 -0.2491  0.0360
 2129SOL     ow 8513   0.715   6.796   5.488 -0.0955 -0.5997 -0.5753
 2129SOL     hw 8514   0.690   6.811   5.397  4.0762  1.8250 -1.5520
 2129SOL     hw 8515   0.765   6.715   5.486 -0.4725 -0.8439 -0.2912
 2129SOL     vw 8516   0.718   6.787   5.476  0.4051 -0.3121 -0.6666
 2130SOL     ow 8517   6.138   2.545   1.969  0.2622 -0.4227  0.7708
 2130SOL     hw 8518   6.179   2.470   2.012 -0.0942 -1.2517 -0.3010
 2130SOL     hw 8519   6.045   2.521   1.961  0.2830 -0.2184 -0.2701
 2130SOL     vw 8520   6.131   2.532   1.974  0.2182 -0.5051  0.4920
 2131SOL     ow 8521   4.176   1.681   4.363 -0.1199 -0.0350 -0.2894
 2131SOL     hw 8522   4.251   1.713   4.312 -0.9979 -0.7090 -2.0980
 2131SOL     hw 8523   4.138   1.760   4.402  1.1222  0.3897  0.1066
 2131SOL     vw 8524   4.181   1.695   4.361 -0.0720 -0.0678 -0.4759
 2132SOL     ow 8525   5.246   0.558   2.841  0.0417  0.4762 -0.3991
 2132SOL     hw 8526   5.234   0.480   2.896  0.7325  0.7836  0.1984
 2132SOL     hw 8527   5.220   0.529   2.754 -1.1475 -0.0005  0.0882
 2132SOL     vw 8528   5.241   0.544   2.837 -0.0241  0.4539 -0.2559
 2133SOL     ow 8529   2.312   7.095   2.645  0.2212  0.5488 -0.1507
 2133SOL     hw 8530   2.405   7.115   2.631 -0.0965 -0.0715 -4.0146
 2133SOL     hw 8531   2.266   7.175   2.624 -0.2566  0.0615 -0.9988
 2133SOL     vw 8532   2.319   7.108   2.641  0.1163  0.4027 -0.7722
 2134SOL     ow 8533   3.971   0.880   6.334  0.1401 -0.2469 -0.3771
 2134SOL     hw 8534   3.918   0.925   6.400 -2.3060 -1.7311 -1.2132
 2134SOL     hw 8535   3.953   0.927   6.253  1.0967 -0.0231 -0.4671
 2134SOL     vw 8536   3.962   0.892   6.332 -0.0564 -0.4132 -0.4990
 2135SOL     ow 8537   6.136   2.396   0.759  0.3698 -0.3433  0.2895
 2135SOL     hw 8538   6.048   2.431   0.769  0.1792 -1.2242  2.0585
 2135SOL     hw 8539   6.183   2.462   0.707 -0.8326  0.9721  0.8139
 2135SOL     vw 8540   6.131   2.409   0.753  0.1862 -0.2859  0.5921
 2136SOL     ow 8541   0.581   1.936   1.958 -0.2663 -0.4092  0.1385
 2136SOL     hw 8542   0.547   2.014   1.914  0.5795  1.7956  3.0918
 2136SOL     hw 8543   0.660   1.966   2.003  0.4008 -3.1380  0.9984
 2136SOL     vw 8544   0.587   1.950   1.958 -0.0666 -0.4783  0.6416
 2137SOL     ow 8545   0.140   1.354   1.744 -0.3037 -0.0025  0.1001
 2137SOL     hw 8546   0.110   1.421   1.805 -1.7682  0.2077 -0.7849
 2137SOL     hw 8547   0.065   1.295   1.735 -0.3858  0.3183 -1.9108
 2137SOL     vw 8548   0.126   1.355   1.751 -0.5077  0.0676 -0.2820
 2138SOL     ow 8549   6.201   4.698   3.630 -0.5763 -0.4928  0.1162
 2138SOL     hw 8550   6.253   4.617   3.628 -1.2857 -1.0453  2.0547
 2138SOL     hw 8551   6.129   4.679   3.689 -1.4755  1.1766 -0.3704
 2138SOL     vw 8552   6.199   4.685   3.637 -0.7885 -0.3452  0.3078
 2139SOL     ow 8553   5.952   1.199   1.190 -0.2488  0.1410 -0.7185
 2139SOL     hw 8554   5.936   1.283   1.147  0.6780  0.1405 -1.0832
 2139SOL     hw 8555   6.046   1.184   1.180 -0.3827 -0.8840 -0.5493
 2139SOL     vw 8556   5.963   1.208   1.183 -0.1445  0.0057 -0.7442
 2140SOL     ow 8557   6.997   6.338   0.928 -0.0367 -0.2710  0.2539
 2140SOL     hw 8558   6.996   6.242   0.931 -0.4888 -0.3740 -1.5183
 2140SOL     hw 8559   7.055   6.364   0.999  1.2758 -1.9320 -0.1313
 2140SOL     vw 8560   7.005   6.328   0.937  0.0768 -0.5040 -0.0307
 2141SOL     ow 8561   4.388   7.191   3.289  0.1200 -0.3626 -0.0402
 2141SOL     hw 8562   4.389   7.113   3.234  0.1566 -0.4363  0.0639
 2141SOL     hw 8563   4.413   7.159   3.376 -2.0033 -0.6511  0.5281
 2141SOL     vw 8564   4.391   7.177   3.293 -0.1554 -0.4106  0.0485
 2142SOL     ow 8565   4.267   4.653   0.999 -0.1402 -0.3787 -0.2417
 2142SOL     hw 8566   4.174   4.645   1.017 -0.7499  1.6695 -2.0748
 2142SOL     hw 8567   4.303   4.566   1.017 -2.5821 -1.4979 -0.4687
 2142SOL     vw 8568   4.260   4.640   1.004 -0.5429 -0.2563 -0.5135
 2143SOL     ow 8569   5.867   4.397   6.049 -0.1214  0.3391  0.2119
 2143SOL     hw 8570   5.931   4.353   5.994  0.5673  0.2003  1.0996
 2143SOL     hw 8571   5.915   4.419   6.129 -1.4693 -0.8388  1.4054
 2143SOL     vw 8572   5.882   4.394   6.052 -0.2084  0.1652  0.4866
 2144SOL     ow 8573   5.552   5.290   3.080  0.1951  0.1371  0.2409
 2144SOL     hw 8574   5.506   5.372   3.100 -0.6123 -0.0472 -0.7862
 2144SOL     hw 8575   5.626   5.289   3.140  0.4474  1.8232  0.0066
 2144SOL     vw 8576   5.556   5.301   3.091  0.1216  0.3352  0.0744
 2145SOL     ow 8577   2.003   1.096   1.587  0.1220 -0.0706 -0.5949
 2145SOL     hw 8578   2.021   1.031   1.655 -0.8061 -0.6931 -0.9238
 2145SOL     hw 8579   1.922   1.137   1.613 -0.3658 -0.4707 -1.4207
 2145SOL     vw 8580   1.995   1.093   1.599 -0.0648 -0.2055 -0.7472
 2146SOL     ow 8581   5.891   6.920   3.746 -0.3550  0.2656  0.5186
 2146SOL     hw 8582   5.861   6.921   3.655 -1.7547  0.2284  0.9524
 2146SOL     hw 8583   5.854   6.839   3.782 -0.1217  0.4628  1.2136
 2146SOL     vw 8584   5.882   6.910   3.739 -0.5090  0.2863  0.6676
 2147SOL     ow 8585   6.183   4.988   0.434  0.2517 -0.5487  0.3351
 2147SOL     hw 8586   6.098   5.031   0.429  1.1070  1.1616 -0.4362
 2147SOL     hw 8587   6.210   4.999   0.525  0.0213 -0.3240  0.3779
 2147SOL     vw 8588   6.176   4.995   0.446  0.3340 -0.2933  0.2390
 2148SOL     ow 8589   6.762   5.597   3.774 -0.6620  0.1838 -0.1299
 2148SOL     hw 8590   6.840   5.544   3.757  0.8760  2.4533 -0.5370
 2148SOL     hw 8591   6.743   5.584   3.867  1.6074  1.3217  0.5444
 2148SOL     vw 8592   6.770   5.588   3.784 -0.1595  0.6335 -0.0947
 2149SOL     ow 8593   3.507   6.669   0.078  0.1506  0.1268 -0.3415
 2149SOL     hw 8594   3.420   6.656   0.040  0.6229 -2.3925 -0.7213
 2149SOL     hw 8595   3.564   6.684   0.003  0.0648  2.0095 -0.0788
 2149SOL     vw 8596   3.503   6.669   0.063  0.2016  0.0429 -0.3569
 2150SOL     ow 8597   6.603   1.582   1.734 -0.5626 -0.2604 -0.0300
 2150SOL     hw 8598   6.585   1.652   1.672  0.9118  1.2141  1.1079
 2150SOL     hw 8599   6.698   1.567   1.727 -0.4154 -0.3175  1.5639
 2150SOL     vw 8600   6.613   1.589   1.725 -0.3486 -0.0734  0.3304
 2151SOL     ow 8601   3.578   2.043   4.501 -0.1814  0.0723 -0.1292
 2151SOL     hw 8602   3.628   2.108   4.451 -0.2967  1.8650  1.9297
 2151SOL     hw 8603   3.644   1.991   4.547 -0.1336  0.7230  0.5511
 2151SOL     vw 8604   3.593   2.045   4.500 -0.1903  0.3947  0.2320
 2152SOL     ow 8605   3.952   5.859   0.995 -0.3711  0.1412 -0.2762
 2152SOL     hw 8606   3.964   5.768   0.966  0.4711  0.1966 -0.1184
 2152SOL     hw 8607   3.857   5.868   1.007 -0.9770  0.3982 -4.0097
 2152SOL     vw 8608   3.941   5.848   0.993 -0.3400  0.1824 -0.7480
 2153SOL     ow 8609   4.358   4.947   6.227  0.1295 -0.1733  0.1238
 2153SOL     hw 8610   4.433   4.915   6.177  0.0160  0.2329 -0.3090
 2153SOL     hw 8611   4.285   4.942   6.166 -0.2867 -0.9445  0.6615
 2153SOL     vw 8612   4.358   4.942   6.212  0.0596 -0.2217  0.1378
 2154SOL     ow 8613   5.365   2.894   6.210  0.0555  0.1004  0.0881
 2154SOL     hw 8614   5.353   2.968   6.151 -1.9806  0.5769  1.0129
 2154SOL     hw 8615   5.335   2.925   6.295 -2.7818 -2.2827  0.1285
 2154SOL     vw 8616   5.360   2.908   6.214 -0.5875 -0.1512  0.2155
 2155SOL     ow 8617   2.335   6.669   3.493  0.3251 -0.7880  0.2025
 2155SOL     hw 8618   2.328   6.581   3.456  2.4523 -0.9237 -0.0081
 2155SOL     hw 8619   2.324   6.656   3.587 -0.5663 -1.0748  0.0747
 2155SOL     vw 8620   2.332   6.656   3.500  0.4882 -0.8438  0.1578
 2156SOL     ow 8621   3.690   0.489   4.618  0.2732  0.5747  0.2992
 2156SOL     hw 8622   3.688   0.583   4.634  1.0813  0.4119  1.4886
 2156SOL     hw 8623   3.782   0.466   4.627  0.2327 -0.1823 -0.9879
 2156SOL     vw 8624   3.702   0.498   4.621  0.3746  0.4534  0.2866
 2157SOL     ow 8625   5.267   2.460   4.442  0.4386  0.2557  0.0983
 2157SOL     hw 8626   5.209   2.411   4.383  1.7134  0.1498 -1.1215
 2157SOL     hw 8627   5.327   2.506   4.383  1.4189  0.5816  1.3202
 2157SOL     vw 8628   5.267   2.460   4.426  0.7362  0.2847  0.0985
 2158SOL     ow 8629   3.463   3.199   4.818  0.4681 -0.3003 -0.3466
 2158SOL     hw 8630   3.390   3.139   4.834 -0.0995  0.4086 -0.1744
 2158SOL     hw 8631   3.501   3.216   4.904 -0.1869  0.5670 -0.2108
 2158SOL     vw 8632   3.458   3.193   4.831  0.3067 -0.0924 -0.3057
 2159SOL     ow 8633   1.931   5.312   2.397  0.2819  0.0677  0.3096
 2159SOL     hw 8634   1.863   5.353   2.344  1.0399  0.5547 -0.3028
 2159SOL     hw 8635   1.893   5.308   2.485  0.3173  2.4514  0.4867
 2159SOL     vw 8636   1.917   5.317   2.402  0.3867  0.4463  0.2521
 2160SOL     ow 8637   2.178   4.599   3.207  0.1883 -0.2292  0.3812
 2160SOL     hw 8638   2.164   4.559   3.293 -0.0037 -0.1068  0.4080
 2160SOL     hw 8639   2.115   4.670   3.204  2.1122  1.6132  1.2882
 2160SOL     vw 8640   2.168   4.603   3.218  0.4166  0.0298  0.5043
 2161SOL     ow 8641   5.344   2.997   2.247  0.2852  0.5001  0.3699
 2161SOL     hw 8642   5.336   3.019   2.154 -0.1958  1.3204  0.5936
 2161SOL     hw 8643   5.266   2.944   2.266  1.4222 -1.4499 -0.1591
 2161SOL     vw 8644   5.333   2.993   2.237  0.3715  0.3511  0.3296
 2162SOL     ow 8645   1.225   1.988   5.940  0.1563 -0.0898 -0.1192
 2162SOL     hw 8646   1.316   2.016   5.927  0.1310  0.6186  1.1203
 2162SOL     hw 8647   1.232   1.894   5.958  0.5775 -0.1639 -0.6083
 2162SOL     vw 8648   1.238   1.979   5.940  0.2086 -0.0061 -0.0200
 2163SOL     ow 8649   3.343   1.545   3.084  0.2469 -0.2536 -0.4420
 2163SOL     hw 8650   3.324   1.592   3.003  1.6495 -1.8999 -1.7986
 2163SOL     hw 8651   3.296   1.462   3.075 -0.0213 -0.2465  0.7029
 2163SOL     vw 8652   3.334   1.540   3.072  0.3967 -0.4698 -0.4699
 2164SOL     ow 8653   3.936   3.724   1.841 -0.0629  0.5251  0.2990
 2164SOL     hw 8654   3.868   3.683   1.786  1.7223 -1.0371 -0.8992
 2164SOL     hw 8655   3.948   3.663   1.913  0.6782  0.3197  0.0103
 2164SOL     vw 8656   3.928   3.710   1.843  0.2705  0.2918  0.1029
 2165SOL     ow 8657   0.662   3.282   6.075 -0.7241  0.1100  0.5668
 2165SOL     hw 8658   0.725   3.232   6.023 -1.3304 -0.3244  0.2480
 2165SOL     hw 8659   0.577   3.247   6.051 -1.0705  0.4354  1.2779
 2165SOL     vw 8660   0.659   3.271   6.065 -0.8498  0.0956  0.6187
 2166SOL     ow 8661   0.058   0.938   6.444  0.2470  0.2490 -0.2391
 2166SOL     hw 8662   0.116   0.944   6.519  0.9682 -0.4758 -0.7164
 2166SOL     hw 8663   0.003   0.862   6.461  1.1445 -0.5724 -0.9208
 2166SOL     vw 8664   0.058   0.929   6.456  0.4606  0.0450 -0.3920
 2167SOL     ow 8665   2.363   2.621   6.858  0.2163  0.0140  0.6406
 2167SOL     hw 8666   2.385   2.542   6.908  1.0248 -1.2919 -1.6195
 2167SOL     hw 8667   2.274   2.606   6.827  0.3202  0.0403  0.3230
 2167SOL     vw 8668   2.354   2.609   6.861  0.3366 -0.1549  0.3006
 2168SOL     ow 8669   5.498   1.525   1.355 -0.0944  0.0081 -0.6067
 2168SOL     hw 8670   5.414   1.570   1.350  0.4314  0.9781 -0.8389
 2168SOL     hw 8671   5.481   1.451   1.414 -0.9616  0.5227 -0.1816
 2168SOL     vw 8672   5.485   1.521   1.362 -0.1395  0.2040 -0.5813
 2169SOL     ow 8673   6.941   2.505   2.248  0.6746  0.1005 -0.3013
 2169SOL     hw 8674   6.935   2.565   2.323 -0.9575  2.0307 -1.8529
 2169SOL     hw 8675   6.856   2.462   2.245 -0.1495  1.6772 -2.2174
 2169SOL     vw 8676   6.929   2.507   2.257  0.3505  0.5631 -0.7589
 2170SOL     ow 8677   0.779   3.378   1.649  0.3698  0.1673  0.6901
 2170SOL     hw 8678   0.739   3.401   1.565  1.9867  0.2354 -0.0924
 2170SOL     hw 8679   0.752   3.449   1.708  1.9002  1.9640 -0.6390
 2170SOL     vw 8680   0.770   3.391   1.646  0.7851  0.4135  0.4116
 2171SOL     ow 8681   7.035   0.356   2.805 -0.3825  0.0423 -0.2138
 2171SOL     hw 8682   7.067   0.294   2.740  1.4327 -0.0251  0.6823
 2171SOL     hw 8683   7.009   0.302   2.880 -0.3202  0.2547 -0.0375
 2171SOL     vw 8684   7.035   0.341   2.807 -0.1349  0.0615 -0.0724
 2172SOL     ow 8685   2.326   0.181   2.873  0.2407 -0.0521 -0.6185
 2172SOL     hw 8686   2.329   0.123   2.949 -1.0288  0.9802  0.2745
 2172SOL     hw 8687   2.267   0.136   2.812  0.3791 -0.3630 -0.5268
 2172SOL     vw 8688   2.318   0.167   2.875  0.0914  0.0431 -0.4886
 2173SOL     ow 8689   2.126   5.079   2.487  0.1700  0.2188  0.1350
 2173SOL     hw 8690   2.172   5.131   2.553  0.5454  0.1701 -0.0828
 2173SOL     hw 8691   2.169   4.994   2.490 -0.7467 -0.2246  0.8110
 2173SOL     vw 8692   2.138   5.075   2.496  0.0986  0.1538  0.1955
 2174SOL     ow 8693   2.407   0.317   4.362  0.1061 -0.7205 -0.2532
 2174SOL     hw 8694   2.333   0.377   4.353  0.0217 -1.0559 -2.5260
 2174SOL     hw 8695   2.378   0.237   4.317  1.8556 -0.8190 -1.2939
 2174SOL     vw 8696   2.394   0.314   4.355  0.3258 -0.7778 -0.6902
 2175SOL     ow 8697   4.409   0.970   3.402 -0.5308  0.1177  0.1279
 2175SOL     hw 8698   4.426   0.893   3.347 -0.4835  0.1194  0.1396
 2175SOL     hw 8699   4.394   0.934   3.490  0.8733  0.2010  0.4331
 2175SOL     vw 8700   4.409   0.955   3.407 -0.3395  0.1290  0.1696
 2176SOL     ow 8701   0.362   6.655   1.757  0.2376 -0.4563  0.0062
 2176SOL     hw 8702   0.285   6.687   1.709  0.2701 -0.0460  0.2246
 2176SOL     hw 8703   0.340   6.669   1.849 -0.2417 -2.1681  0.1962
 2176SOL     vw 8704   0.349   6.661   1.763  0.1786 -0.6282  0.0601
 2177SOL     ow 8705   1.370   5.505   4.005  0.9410  0.1462 -0.2226
 2177SOL     hw 8706   1.386   5.412   4.019  2.2383  0.6146  1.7234
 2177SOL     hw 8707   1.291   5.524   4.056  1.1697  0.2819  0.0815
 2177SOL     vw 8708   1.362   5.495   4.013  1.1423  0.2258  0.0744
 2178SOL     ow 8709   3.419   0.517   4.538  0.8404 -0.1968  0.2107
 2178SOL     hw 8710   3.501   0.488   4.578  1.5309  0.2278 -0.8497
 2178SOL     hw 8711   3.395   0.596   4.586  1.0242 -0.3545  0.5620
 2178SOL     vw 8712   3.427   0.523   4.549  0.9558 -0.1616  0.1171
 2179SOL     ow 8713   2.087   5.438   1.862  0.2990 -0.2334  0.0593
 2179SOL     hw 8714   2.126   5.439   1.774  1.9994 -0.0947  0.7606
 2179SOL     hw 8715   1.998   5.470   1.849  1.4626  3.0216 -1.2419
 2179SOL     vw 8716   2.081   5.443   1.849  0.6769  0.2148 -0.0198
 2180SOL     ow 8717   1.765   4.419   3.838  0.3808 -0.0626 -0.3804
 2180SOL     hw 8718   1.805   4.478   3.902  0.4373  0.3638 -0.8048
 2180SOL     hw 8719   1.830   4.350   3.824  0.8082  0.4190 -0.7768
 2180SOL     vw 8720   1.779   4.417   3.845  0.4447  0.0575 -0.4888
 2181SOL     ow 8721   6.622   6.631   5.183 -0.3719  0.6224 -0.6492
 2181SOL     hw 8722   6.668   6.571   5.242  1.1066  0.8340 -1.5478
 2181SOL     hw 8723   6.628   6.716   5.225 -1.7737  0.3313  0.2303
 2181SOL     vw 8724   6.629   6.634   5.196 -0.3617  0.6120 -0.6516
 2182SOL     ow 8725   3.898   3.283   1.170  0.0047 -0.1607  0.3977
 2182SOL     hw 8726   3.823   3.257   1.224 -1.0789 -0.3274 -1.1203
 2182SOL     hw 8727   3.941   3.201   1.147  0.3842 -0.0999  0.8772
 2182SOL     vw 8728   3.894   3.269   1.174 -0.0883 -0.1746  0.2608
 2183SOL     ow 8729   3.460   3.181   5.142  0.2449  0.7060  0.2602
 2183SOL     hw 8730   3.556   3.180   5.146  0.2569 -0.7746  0.2374
 2183SOL     hw 8731   3.436   3.089   5.137 -1.2036  1.0511  0.5524
 2183SOL     vw 8732   3.470   3.169   5.142  0.0553  0.5561  0.2956
 2184SOL     ow 8733   2.786   0.612   0.326  0.5536 -0.5314  0.4978
 2184SOL     hw 8734   2.691   0.607   0.332  0.4140  1.1697  0.1550
 2184SOL     hw 8735   2.804   0.634   0.235  1.2432 -0.1589  0.7112
 2184SOL     vw 8736   2.776   0.614   0.315  0.6260 -0.2578  0.4808
 2185SOL     ow 8737   2.775   6.828   1.950 -0.3440  0.4602 -0.2647
 2185SOL     hw 8738   2.752   6.834   2.043  0.9894  1.2490  0.0563
 2185SOL     hw 8739   2.692   6.818   1.905 -1.0169 -0.0055  1.0237
 2185SOL     vw 8740   2.761   6.827   1.957 -0.2568  0.5026 -0.0524
 2186SOL     ow 8741   1.693   5.871   4.231  0.7445 -0.0713  0.0306
 2186SOL     hw 8742   1.782   5.886   4.200  0.9564 -0.4247  0.4507
 2186SOL     hw 8743   1.678   5.941   4.295  0.9389 -0.3522  0.3896
 2186SOL     vw 8744   1.703   5.882   4.236  0.7981 -0.1547  0.1335
 2187SOL     ow 8745   1.326   4.224   2.446 -0.0221 -0.3591  0.2951
 2187SOL     hw 8746   1.410   4.264   2.424 -1.7522  3.3399 -0.5190
 2187SOL     hw 8747   1.318   4.236   2.541 -0.2617  0.8485  0.1433
 2187SOL     vw 8748   1.336   4.231   2.456 -0.2820  0.2880  0.1676
 2188SOL     ow 8749   6.911   6.880   3.902 -0.0190 -0.4022 -0.6529
 2188SOL     hw 8750   6.844   6.860   3.967  0.0985  1.5154  0.1356
 2188SOL     hw 8751   6.862   6.914   3.826  0.0145  1.1271 -0.0264
 2188SOL     vw 8752   6.896   6.882   3.900  0.0010  0.0527 -0.4661
 2189SOL     ow 8753   4.757   4.219   2.189 -0.5658  0.5089 -0.1007
 2189SOL     hw 8754   4.686   4.184   2.137 -1.2110 -2.0170  2.2828
 2189SOL     hw 8755   4.726   4.305   2.217 -2.0149  0.0895 -0.3432
 2189SOL     vw 8756   4.744   4.226   2.186 -0.8421  0.1202  0.1817
 2190SOL     ow 8757   3.255   0.394   0.719  0.4167 -0.1559  0.2095
 2190SOL     hw 8758   3.213   0.479   0.706  0.5097 -0.3262 -1.3906
 2190SOL     hw 8759   3.347   0.415   0.735  0.0230  0.1464  2.4711
 2190SOL     vw 8760   3.261   0.408   0.720  0.3769 -0.1385  0.2968
 2191SOL     ow 8761   1.896   0.905   2.488 -0.6671  0.1984  0.0741
 2191SOL     hw 8762   1.864   0.865   2.569 -0.5522 -0.5606 -0.2466
 2191SOL     hw 8763   1.937   0.833   2.441  1.4464  1.1025  0.4230
 2191SOL     vw 8764   1.897   0.890   2.493 -0.3731  0.2176  0.0778
 2192SOL     ow 8765   5.944   2.362   1.313 -0.4368 -0.4803  0.3101
 2192SOL     hw 8766   5.889   2.361   1.235  0.5054 -2.7073 -0.4106
 2192SOL     hw 8767   6.019   2.416   1.290  0.0800 -1.5343 -0.5478
 2192SOL     vw 8768   5.947   2.369   1.300 -0.2444 -0.9130  0.1019
 2193SOL     ow 8769   0.275   2.781   3.964  0.3264 -0.4012 -0.1091
 2193SOL     hw 8770   0.250   2.811   4.051  0.0969 -0.1083 -0.2721
 2193SOL     hw 8771   0.294   2.862   3.916 -2.7384 -0.2469 -1.3232
 2193SOL     vw 8772   0.274   2.796   3.969 -0.1082 -0.3422 -0.2908
 2194SOL     ow 8773   5.657   1.800   4.057  0.1979 -0.0350  0.7170
 2194SOL     hw 8774   5.711   1.822   4.133 -0.0284 -0.3081  0.9559
 2194SOL     hw 8775   5.676   1.870   3.994 -0.3505  0.7429  1.3953
 2194SOL     vw 8776   5.667   1.812   4.058  0.0958  0.0317  0.8380
 2195SOL     ow 8777   4.530   3.973   2.718  0.6313  0.0380  0.0302
 2195SOL     hw 8778   4.466   3.913   2.679  2.4758 -0.3726 -2.6716
 2195SOL     hw 8779   4.485   4.009   2.794 -1.7933 -2.2223 -0.1609
 2195SOL     vw 8780   4.515   3.970   2.723  0.5548 -0.3144 -0.3514
 2196SOL     ow 8781   1.715   1.397   6.745  0.0774 -0.3641 -0.9991
 2196SOL     hw 8782   1.630   1.375   6.707 -0.2264 -3.1016  0.9295
 2196SOL     hw 8783   1.693   1.443   6.826  0.5321  0.6057 -1.4124
 2196SOL     vw 8784   1.701   1.400   6.751  0.0972 -0.5974 -0.7992
 2197SOL     ow 8785   1.160   4.030   7.120  0.3196  0.3750 -0.4391
 2197SOL     hw 8786   1.092   4.067   7.065 -2.2886 -3.9432 -0.5332
 2197SOL     hw 8787   1.180   3.945   7.081  4.4048  0.5242  0.7990
 2197SOL     vw 8788   1.154   4.024   7.108  0.5145 -0.1748 -0.2880
 2198SOL     ow 8789   0.213   5.274   3.195 -0.1372  0.0369  0.2058
 2198SOL     hw 8790   0.218   5.223   3.114 -0.0528 -1.4853  1.1225
 2198SOL     hw 8791   0.303   5.279   3.226 -0.3209 -0.5091  0.8516
 2198SOL     vw 8792   0.225   5.268   3.188 -0.1503 -0.2360  0.4120
 2199SOL     ow 8793   5.786   1.417   1.711 -0.3450 -0.4145 -1.0441
 2199SOL     hw 8794   5.692   1.409   1.727 -0.6767  0.3470 -2.4050
 2199SOL     hw 8795   5.809   1.338   1.661 -0.0956 -0.9475 -0.1108
 2199SOL     vw 8796   5.777   1.405   1.706 -0.3557 -0.3843 -1.1005
 2200SOL     ow 8797   6.397   3.042   1.902 -0.1046 -0.5021  0.1997
 2200SOL     hw 8798   6.433   3.083   1.981 -1.1721  0.6693  0.1172
 2200SOL     hw 8799   6.344   3.111   1.862  0.7294 -0.9423 -1.7753
 2200SOL     vw 8800   6.395   3.057   1.907 -0.1354 -0.4057 -0.0717
 2201SOL     ow 8801   6.346   4.685   5.494  0.3320 -0.3649 -0.0580
 2201SOL     hw 8802   6.270   4.722   5.539  1.5299  0.0471  1.7482
 2201SOL     hw 8803   6.316   4.600   5.461 -0.8224 -0.3624  0.9163
 2201SOL     vw 8804   6.332   4.679   5.496  0.3376 -0.3102  0.3088
 2202SOL     ow 8805   1.959   1.676   4.702  0.4358 -0.0989 -0.3487
 2202SOL     hw 8806   2.034   1.642   4.751  0.5751  0.9815  0.2204
 2202SOL     hw 8807   1.993   1.696   4.615  0.9946  1.0238  0.1080
 2202SOL     vw 8808   1.973   1.674   4.697  0.5279  0.1918 -0.2131
 2203SOL     ow 8809   4.879   5.214   7.051  0.4011  0.0518  0.0286
 2203SOL     hw 8810   4.935   5.206   6.974 -0.4477 -1.9917 -0.4563
 2203SOL     hw 8811   4.915   5.289   7.099  3.8452 -1.3946  0.0156
 2203SOL     vw 8812   4.891   5.223   7.047  0.7432 -0.4084 -0.0372
 2204SOL     ow 8813   4.583   4.732   4.878 -0.1548 -0.4380  0.2876
 2204SOL     hw 8814   4.530   4.678   4.937  0.0422  0.6336  1.4784
 2204SOL     hw 8815   4.618   4.801   4.934  0.8431  0.0469 -0.9013
 2204SOL     vw 8816   4.581   4.734   4.893  0.0029 -0.2327  0.2880
 2205SOL     ow 8817   5.708   4.230   6.718 -0.4744  0.6337  0.0037
 2205SOL     hw 8818   5.684   4.146   6.677 -0.1652 -0.6856  2.3357
 2205SOL     hw 8819   5.650   4.235   6.794  2.1884  0.5342  2.1487
 2205SOL     vw 8820   5.697   4.219   6.723 -0.0825  0.4466  0.5941
 2206SOL     ow 8821   1.788   3.851   1.299 -0.3149  0.0086  0.1999
 2206SOL     hw 8822   1.856   3.788   1.279  1.5100  1.6761  0.8220
 2206SOL     hw 8823   1.722   3.801   1.348  1.4148 -1.2862  1.3276
 2206SOL     vw 8824   1.788   3.836   1.303  0.1541  0.0578  0.4308
 2207SOL     ow 8825   3.150   5.443   0.351 -0.0286 -0.1750 -0.1374
 2207SOL     hw 8826   3.101   5.363   0.369 -1.8646  0.7768 -0.6986
 2207SOL     hw 8827   3.182   5.472   0.437 -0.5135 -0.7766  0.2467
 2207SOL     vw 8828   3.148   5.437   0.365 -0.3347 -0.1290 -0.1607
 2208SOL     ow 8829   4.893   0.023   0.560 -0.0625 -0.0350  0.3927
 2208SOL     hw 8830   4.861   0.006   0.648  2.6860 -1.4372  1.2507
 2208SOL     hw 8831   4.817   0.012   0.503 -1.4052 -1.4653  2.3680
 2208SOL     vw 8832   4.879   0.019   0.564  0.1228 -0.4087  0.7665
 2209SOL     ow 8833   3.081   1.902   6.697  0.2215 -0.3721 -0.7462
 2209SOL     hw 8834   3.004   1.846   6.692  0.2311 -0.6055  1.0241
 2209SOL     hw 8835   3.072   1.948   6.781  2.6131 -1.3465  0.1432
 2209SOL     vw 8836   3.070   1.901   6.708  0.5382 -0.5314 -0.3951
 2210SOL     ow 8837   0.383   7.141   5.883 -0.6181  0.1426 -0.2413
 2210SOL     hw 8838   0.465   7.098   5.906 -0.8688  0.0766  0.5649
 2210SOL     hw 8839   0.395   7.232   5.909 -1.4367 -0.2390  1.5817
 2210SOL     vw 8840   0.395   7.147   5.889 -0.7592  0.0834  0.1056
 2211SOL     ow 8841   2.852   0.525   0.864  0.6917  0.6407  0.6801
 2211SOL     hw 8842   2.759   0.547   0.876  0.6564  0.5413  0.5947
 2211SOL     hw 8843   2.877   0.480   0.945  0.0581 -1.3649 -0.1638
 2211SOL     vw 8844   2.843   0.522   0.876  0.6036  0.3630  0.5575
 2212SOL     ow 8845   1.069   7.152   0.770 -0.5829  0.1329  0.0051
 2212SOL     hw 8846   1.086   7.123   0.681 -1.2949 -1.0320  0.2246
 2212SOL     hw 8847   1.156   7.168   0.808 -0.2096 -0.7715 -0.4471
 2212SOL     vw 8848   1.083   7.151   0.764 -0.6276 -0.1404 -0.0256
 2213SOL     ow 8849   3.897   3.606   6.476 -0.0943 -0.3801 -0.2125
 2213SOL     hw 8850   3.888   3.511   6.485 -2.7714 -0.0469  1.7043
 2213SOL     hw 8851   3.809   3.640   6.491 -0.0759  2.2594 -4.4461
 2213SOL     vw 8852   3.884   3.598   6.479 -0.4452  0.0122 -0.5181
 2214SOL     ow 8853   4.094   3.917   2.014 -0.3188  0.1165  0.6639
 2214SOL     hw 8854   4.168   3.863   2.042  0.2915  1.0048  0.7993
 2214SOL     hw 8855   4.063   3.958   2.094 -0.5975  0.1910  0.5171
 2214SOL     vw 8856   4.100   3.915   2.028 -0.2751  0.2437  0.6626
 2215SOL     ow 8857   4.988   2.113   4.821 -0.1726  0.2654 -0.4696
 2215SOL     hw 8858   5.001   2.203   4.790  3.2416  0.4539  1.0109
 2215SOL     hw 8859   4.984   2.121   4.916 -4.1299 -0.8748 -0.3822
 2215SOL     vw 8860   4.989   2.126   4.829 -0.2441  0.1400 -0.2627
 2216SOL     ow 8861   5.072   0.737   0.989 -0.8414 -0.7821  0.3584
 2216SOL     hw 8862   5.136   0.668   0.970  0.0137  0.6338 -2.5291
 2216SOL     hw 8863   5.063   0.784   0.906 -4.5631  0.0107  1.0519
 2216SOL     vw 8864   5.079   0.734   0.976 -1.2195 -0.4907  0.0689
 2217SOL     ow 8865   5.585   0.515   3.335 -0.0793  0.2703  0.0306
 2217SOL     hw 8866   5.679   0.506   3.350 -0.2126 -0.1778  0.6243
 2217SOL     hw 8867   5.555   0.576   3.403 -0.0170  1.4102 -0.9321
 2217SOL     vw 8868   5.593   0.522   3.346 -0.0887  0.3616 -0.0181
 2218SOL     ow 8869   2.015   1.907   0.866 -0.1847  0.2117 -0.2042
 2218SOL     hw 8870   1.983   1.842   0.803  1.3513 -0.4734 -0.3253
 2218SOL     hw 8871   1.935   1.946   0.903 -1.1755 -1.8525 -0.0028
 2218SOL     vw 8872   2.000   1.904   0.863 -0.1128 -0.1510 -0.1936
 2219SOL     ow 8873   2.049   2.358   0.527 -0.2139  0.7716 -0.7604
 2219SOL     hw 8874   2.038   2.310   0.445 -0.5265 -0.2183 -0.1468
 2219SOL     hw 8875   2.025   2.448   0.504 -1.1758  0.3357 -1.5418
 2219SOL     vw 8876   2.044   2.364   0.513 -0.3819  0.5834 -0.7825
 2220SOL     ow 8877   4.338   1.913   5.918  0.0056  0.5414 -0.0069
 2220SOL     hw 8878   4.307   1.825   5.938  0.2023  0.7320  1.2068
 2220SOL     hw 8879   4.431   1.902   5.900 -0.1121  0.4129 -0.5718
 2220SOL     vw 8880   4.346   1.900   5.918  0.0162  0.5496  0.0787
 2221SOL     ow 8881   1.761   3.405   3.278  0.0150 -0.3827 -0.5122
 2221SOL     hw 8882   1.684   3.349   3.290  0.0293 -0.4499 -0.7275
 2221SOL     hw 8883   1.770   3.452   3.361  0.4285 -1.2284 -0.0660
 2221SOL     vw 8884   1.752   3.404   3.290  0.0714 -0.5031 -0.4817
 2222SOL     ow 8885   0.308   6.175   2.853  0.2803  0.1031 -0.5448
 2222SOL     hw 8886   0.265   6.108   2.907  1.3065  0.2877  0.5518
 2222SOL     hw 8887   0.347   6.126   2.780  0.7314 -0.4720  0.0685
 2222SOL     vw 8888   0.308   6.160   2.850  0.4752  0.0517 -0.3192
 2223SOL     ow 8889   1.061   2.846   3.000  0.4934 -0.7586  0.1388
 2223SOL     hw 8890   1.026   2.928   2.963  1.1838  0.7033  2.5279
 2223SOL     hw 8891   1.156   2.855   2.991  0.7588  0.0633  2.8583
 2223SOL     vw 8892   1.069   2.858   2.994  0.6195 -0.4572  0.8129
 2224SOL     ow 8893   1.166   4.874   0.151 -0.8037 -0.0689  0.0934
 2224SOL     hw 8894   1.135   4.875   0.241  0.9211  0.0081  0.7252
 2224SOL     hw 8895   1.246   4.927   0.153 -0.7480 -0.0456 -1.4948
 2224SOL     vw 8896   1.173   4.881   0.163 -0.5688 -0.0558 -0.0328
 2225SOL     ow 8897   4.172   1.132   3.371 -0.1439  0.0106 -0.0961
 2225SOL     hw 8898   4.180   1.220   3.334 -0.1655 -0.3475 -0.9867
 2225SOL     hw 8899   4.262   1.102   3.383 -0.1146 -0.3759 -1.1388
 2225SOL     vw 8900   4.185   1.140   3.367 -0.1426 -0.0877 -0.3513
 2226SOL     ow 8901   3.361   6.086   3.615  0.2431 -0.0780 -0.0721
 2226SOL     hw 8902   3.354   6.050   3.703 -0.0605  2.9733  1.2766
 2226SOL     hw 8903   3.451   6.115   3.607 -0.4181  2.2778  0.4246
 2226SOL     vw 8904   3.372   6.085   3.625  0.1159  0.6354  0.1714
 2227SOL     ow 8905   5.686   1.053   3.729 -0.1670 -0.3959  0.1668
 2227SOL     hw 8906   5.716   1.140   3.755 -0.9803 -0.0914  0.1418
 2227SOL     hw 8907   5.653   1.064   3.640 -1.0159 -0.5317  0.4474
 2227SOL     vw 8908   5.685   1.066   3.721 -0.3862 -0.3737  0.2005
 2228SOL     ow 8909   0.852   7.055   6.469 -0.1838 -0.4151 -0.0430
 2228SOL     hw 8910   0.814   7.142   6.457 -0.2459 -0.2629  1.1080
 2228SOL     hw 8911   0.786   7.007   6.518  0.9255 -0.2368  1.7470
 2228SOL     vw 8912   0.838   7.060   6.474 -0.0457 -0.3712  0.3450
 2229SOL     ow 8913   3.918   2.185   2.658 -0.5801 -0.0541 -0.2417
 2229SOL     hw 8914   3.960   2.271   2.658 -1.3296  0.3711 -2.6840
 2229SOL     hw 8915   3.957   2.138   2.585 -0.3137 -1.7706  0.9391
 2229SOL     vw 8916   3.928   2.190   2.649 -0.6438 -0.2245 -0.4082
 2230SOL     ow 8917   3.058   3.130   4.051  0.0981 -0.1236 -0.2140
 2230SOL     hw 8918   3.058   3.148   4.145 -0.4019  1.8711 -0.5457
 2230SOL     hw 8919   3.149   3.113   4.030  0.5787  1.5713  0.3032
 2230SOL     vw 8920   3.070   3.130   4.061  0.0955  0.3632 -0.1895
 2231SOL     ow 8921   2.515   3.892   6.106 -0.6369  0.1436  0.2661
 2231SOL     hw 8922   2.535   3.983   6.083  1.1756 -0.0679  0.7981
 2231SOL     hw 8923   2.575   3.872   6.178  1.1135 -2.3088 -1.6786
 2231SOL     vw 8924   2.526   3.901   6.113 -0.1669 -0.2079  0.0801
 2232SOL     ow 8925   6.696   3.773   6.182 -0.2437  0.1349 -0.7210
 2232SOL     hw 8926   6.768   3.803   6.237  2.2259 -2.3735 -2.2746
 2232SOL     hw 8927   6.694   3.835   6.109  2.8601 -1.4580 -2.4178
 2232SOL     vw 8928   6.706   3.785   6.179  0.4919 -0.4063 -1.1501
 2233SOL     ow 8929   5.116   5.628   1.943  0.5825 -0.0507  0.1205
 2233SOL     hw 8930   5.119   5.719   1.912 -2.4099  0.3068  0.5844
 2233SOL     hw 8931   5.208   5.599   1.941  1.5853  2.8169 -0.4137
 2233SOL     vw 8932   5.129   5.636   1.938  0.3200  0.3748  0.1112
 2234SOL     ow 8933   4.350   3.652   1.676  0.4566  0.3280  0.0349
 2234SOL     hw 8934   4.313   3.600   1.747 -0.0944  0.8260  0.1210
 2234SOL     hw 8935   4.437   3.616   1.662  0.1646 -0.4735  0.2403
 2234SOL     vw 8936   4.357   3.641   1.683  0.3455  0.2879  0.0733
 2235SOL     ow 8937   2.373   6.767   5.056 -0.3302  0.4032 -0.1903
 2235SOL     hw 8938   2.441   6.833   5.073  0.7968 -0.8159  0.1462
 2235SOL     hw 8939   2.317   6.808   4.990  0.8369  1.3784 -0.6140
 2235SOL     vw 8940   2.375   6.781   5.049 -0.0275  0.3710 -0.2017
 2236SOL     ow 8941   6.696   3.633   6.594 -0.1562 -0.6143  0.3553
 2236SOL     hw 8942   6.686   3.557   6.652  1.5977  1.4360  3.5759
 2236SOL     hw 8943   6.618   3.686   6.610 -1.1029 -1.3370 -1.4806
 2236SOL     vw 8944   6.684   3.630   6.604 -0.0498 -0.4392  0.5381
 2237SOL     ow 8945   6.566   6.374   1.560 -0.1332 -0.3606  0.1081
 2237SOL     hw 8946   6.498   6.435   1.587 -0.3776 -0.1252 -0.9835
 2237SOL     hw 8947   6.641   6.395   1.616  0.1718  1.7461 -0.9716
 2237SOL     vw 8948   6.567   6.385   1.571 -0.1252 -0.0515 -0.1784
 2238SOL     ow 8949   5.801   0.810   4.173  0.2073 -0.1550 -0.4383
 2238SOL     hw 8950   5.746   0.828   4.249 -2.2250 -3.7869 -1.0771
 2238SOL     hw 8951   5.789   0.716   4.156  2.0217  0.1033 -4.2214
 2238SOL     vw 8952   5.792   0.800   4.181  0.1259 -0.6001 -1.0216
 2239SOL     ow 8953   1.878   2.714   7.216  0.5991  0.2461  0.4069
 2239SOL     hw 8954   1.937   2.669   7.276 -0.9576  1.2995  2.8400
 2239SOL     hw 8955   1.798   2.661   7.217  0.2656  0.7278 -0.1397
 2239SOL     vw 8956   1.875   2.701   7.224  0.3497  0.4487  0.6554
 2240SOL     ow 8957   2.185   0.990   5.475 -0.4660 -0.0836  0.0850
 2240SOL     hw 8958   2.188   0.968   5.381  0.4543 -1.3752  0.3870
 2240SOL     hw 8959   2.256   1.052   5.487 -0.8487  0.4074 -0.1337
 2240SOL     vw 8960   2.195   0.996   5.464 -0.3951 -0.1892  0.0961
 2241SOL     ow 8961   4.301   1.324   1.262 -0.6573  0.3857 -0.3948
 2241SOL     hw 8962   4.246   1.325   1.184 -0.7488 -0.0651 -0.3428
 2241SOL     hw 8963   4.246   1.361   1.331 -0.7669  0.2732 -0.4228
 2241SOL     vw 8964   4.287   1.329   1.261 -0.6838  0.3114 -0.3917
 2242SOL     ow 8965   4.968   6.199   2.244  0.0929  0.2388 -0.0669
 2242SOL     hw 8966   5.033   6.174   2.178  0.4724 -3.8734  1.6159
 2242SOL     hw 8967   5.020   6.222   2.321 -0.3990 -0.7433  0.5658
 2242SOL     vw 8968   4.984   6.199   2.245  0.0782 -0.4334  0.2387
 2243SOL     ow 8969   3.290   6.701   0.579 -0.0495  0.2570  0.7134
 2243SOL     hw 8970   3.335   6.729   0.658  1.5508  0.9515 -0.3881
 2243SOL     hw 8971   3.240   6.624   0.606  1.0839  0.0002  2.2053
 2243SOL     vw 8972   3.289   6.694   0.593  0.3113  0.3150  0.7649
 2244SOL     ow 8973   2.934   0.170   4.478  0.0071 -0.3728 -0.5440
 2244SOL     hw 8974   2.855   0.152   4.529  0.1942  1.2234  0.3686
 2244SOL     hw 8975   2.943   0.093   4.421 -3.5710  0.4048 -2.5056
 2244SOL     vw 8976   2.925   0.157   4.477 -0.4404 -0.0596 -0.6821
 2245SOL     ow 8977   5.616   6.826   5.910 -0.3204  0.0900  0.0028
 2245SOL     hw 8978   5.591   6.796   5.823 -1.1164  2.6285 -0.7493
 2245SOL     hw 8979   5.537   6.868   5.944  0.4079  0.4223  1.3390
 2245SOL     vw 8980   5.603   6.828   5.903 -0.3293  0.4690  0.0796
 2246SOL     ow 8981   2.437   5.971   3.151 -0.5876 -0.1431 -0.3449
 2246SOL     hw 8982   2.387   6.043   3.190 -0.1562  0.7910 -1.4587
 2246SOL     hw 8983   2.386   5.943   3.076 -0.4412 -0.5764 -0.2875
 2246SOL     vw 8984   2.424   5.977   3.146 -0.5113 -0.0772 -0.4842
 2247SOL     ow 8985   5.089   1.723   3.495 -0.1751 -0.1493  0.3104
 2247SOL     hw 8986   5.133   1.660   3.438 -2.6596 -0.7633 -1.1212
 2247SOL     hw 8987   5.138   1.805   3.484  0.0033 -0.4971 -2.0668
 2247SOL     vw 8988   5.101   1.726   3.486 -0.4792 -0.2762 -0.1922
 2248SOL     ow 8989   0.043   0.394   4.402  0.3127  0.0303  0.2415
 2248SOL     hw 8990   0.024   0.458   4.470  0.5595  0.4454 -0.0789
 2248SOL     hw 8991   0.074   0.445   4.328 -1.7685 -0.2295 -0.8841
 2248SOL     vw 8992   0.045   0.409   4.402  0.0707  0.0508  0.0510
 2249SOL     ow 8993   7.227   3.798   3.307 -0.2894 -0.3860  0.3231
 2249SOL     hw 8994   7.229   3.750   3.225 -0.6881 -2.9458  1.6976
 2249SOL     hw 8995   7.244   3.889   3.283 -0.7107 -0.9954 -2.5787
 2249SOL     vw 8996   7.230   3.804   3.293 -0.3976 -0.8042  0.1217
 2250SOL     ow 8997   3.462   2.960   0.890  0.1715 -0.2421 -0.4371
 2250SOL     hw 8998   3.418   2.909   0.957  1.3443  1.0227  1.3858
 2250SOL     hw 8999   3.543   2.989   0.931 -0.4569  3.1600 -1.2547
 2250SOL     vw 9000   3.467   2.957   0.904  0.2433  0.3736 -0.3045
 2251SOL     ow 9001   4.610   1.565   1.534 -0.2579 -0.3888 -0.6166
 2251SOL     hw 9002   4.625   1.549   1.441  3.4350  0.8483 -0.4041
 2251SOL     hw 9003   4.531   1.516   1.555  0.3108 -2.9660 -3.7904
 2251SOL     vw 9004   4.602   1.557   1.525  0.3047 -0.5656 -1.0073
 2252SOL     ow 9005   0.616   6.839   5.219 -0.1607 -0.2663  0.4893
 2252SOL     hw 9006   0.690   6.856   5.162 -0.4485  0.4557  0.3214
 2252SOL     hw 9007   0.539   6.843   5.162 -0.5567  1.5501  1.0624
 2252SOL     vw 9008   0.616   6.842   5.204 -0.2509  0.0684  0.5429
 2253SOL     ow 9009   3.320   0.902   2.567  0.2548 -0.4712 -0.0265
 2253SOL     hw 9010   3.297   0.965   2.635  2.1904 -0.0152  0.2623
 2253SOL     hw 9011   3.252   0.835   2.572  0.0752 -0.1877  2.0062
 2253SOL     vw 9012   3.308   0.901   2.577  0.4866 -0.3737  0.2798
 2254SOL     ow 9013   5.968   0.278   3.515  0.1997 -0.2399  0.5708
 2254SOL     hw 9014   6.054   0.281   3.556 -0.0422  2.4227  1.0595
 2254SOL     hw 9015   5.906   0.279   3.587 -0.2270  0.2916  0.2086
 2254SOL     vw 9016   5.972   0.279   3.530  0.1118  0.1815  0.5875
 2255SOL     ow 9017   1.306   1.986   6.747 -0.0738  0.5874 -0.3810
 2255SOL     hw 9018   1.376   2.019   6.803  0.0513 -0.2259 -0.0396
 2255SOL     hw 9019   1.227   1.996   6.800 -0.1123  0.8373 -0.4858
 2255SOL     vw 9020   1.305   1.992   6.761 -0.0623  0.5131 -0.3495
 2256SOL     ow 9021   6.802   3.075   3.214  0.0709 -0.0402  0.5773
 2256SOL     hw 9022   6.896   3.095   3.207 -0.0860  0.1007 -2.0137
 2256SOL     hw 9023   6.759   3.148   3.169 -1.1682 -0.9471  0.2482
 2256SOL     vw 9024   6.809   3.088   3.207 -0.1132 -0.1411  0.1919
 2257SOL     ow 9025   1.942   2.567   6.014 -0.7800 -0.0934 -1.0116
 2257SOL     hw 9026   1.974   2.655   5.997 -1.0597  0.7170  2.0677
 2257SOL     hw 9027   2.021   2.513   6.020 -0.4020  0.5095 -0.3450
 2257SOL     vw 9028   1.957   2.571   6.013 -0.7671  0.0931 -0.5171
 2258SOL     ow 9029   3.261   5.723   2.074 -0.1521 -0.1783 -0.3278
 2258SOL     hw 9030   3.234   5.745   2.164 -0.1462  0.5014 -0.4878
 2258SOL     hw 9031   3.323   5.652   2.085 -1.3355 -1.1912  0.1162
 2258SOL     vw 9032   3.265   5.717   2.087 -0.3072 -0.2224 -0.2904
 2259SOL     ow 9033   3.701   3.074   5.950  0.1620 -0.2579 -0.2757
 2259SOL     hw 9034   3.696   3.057   5.856 -1.1984  0.9711 -0.4641
 2259SOL     hw 9035   3.785   3.120   5.961  0.6444 -0.9863 -0.7637
 2259SOL     vw 9036   3.712   3.078   5.939  0.0461 -0.1919 -0.3650
 2260SOL     ow 9037   0.848   5.827   6.634  0.4308  0.4541  0.2773
 2260SOL     hw 9038   0.807   5.801   6.552  2.0455  0.8167 -0.7073
 2260SOL     hw 9039   0.866   5.921   6.623 -1.0591  0.9714  1.8549
 2260SOL     vw 9040   0.845   5.836   6.622  0.4473  0.5701  0.3557
 2261SOL     ow 9041   2.672   0.106   0.450  0.1625 -0.1051  0.5651
 2261SOL     hw 9042   2.633   0.192   0.437 -0.8030 -0.4369  1.1217
 2261SOL     hw 9043   2.644   0.055   0.373 -1.9249 -0.8087  1.7009
 2261SOL     vw 9044   2.663   0.110   0.438 -0.2403 -0.2417  0.7884
 2262SOL     ow 9045   5.753   2.158   5.770  0.0566 -0.4035  0.4570
 2262SOL     hw 9046   5.702   2.112   5.704 -0.2997 -0.4629  0.7725
 2262SOL     hw 9047   5.791   2.088   5.823 -0.5895 -0.3420  1.0164
 2262SOL     vw 9048   5.751   2.142   5.769 -0.0753 -0.4034  0.5724
 2263SOL     ow 9049   1.755   0.349   1.340  0.1710  0.0672  0.2034
 2263SOL     hw 9050   1.757   0.408   1.415 -0.6314  1.3712 -0.7629
 2263SOL     hw 9051   1.822   0.382   1.281 -0.3901  0.1185 -0.4160
 2263SOL     vw 9052   1.764   0.361   1.342 -0.0089  0.2460 -0.0058
 2264SOL     ow 9053   0.590   0.853   3.985  0.7730 -0.3488  0.5251
 2264SOL     hw 9054   0.573   0.854   3.891 -0.7364  0.1616  0.7681
 2264SOL     hw 9055   0.556   0.769   4.015 -3.6340  1.4262  1.3158
 2264SOL     vw 9056   0.583   0.842   3.977 -0.0075 -0.0473  0.6615
 2265SOL     ow 9057   5.014   5.558   3.057  0.0513 -0.3036  0.7017
 2265SOL     hw 9058   5.003   5.519   2.970  2.1183 -0.0359  0.2482
 2265SOL     hw 9059   4.952   5.631   3.059  0.5576  0.2333 -0.9428
 2265SOL     vw 9060   5.004   5.563   3.046  0.3908 -0.1974  0.4250
 2266SOL     ow 9061   1.507   6.450   2.124  0.0351  0.3084  0.0207
 2266SOL     hw 9062   1.455   6.371   2.141 -2.7618  2.1982  0.9655
 2266SOL     hw 9063   1.535   6.479   2.210  0.3672  0.8055 -0.2535
 2266SOL     vw 9064   1.504   6.443   2.137 -0.2902  0.6235  0.1091
 2267SOL     ow 9065   4.583   4.433   2.462 -0.7449  0.0894  0.0227
 2267SOL     hw 9066   4.494   4.442   2.494 -0.0804  0.7429  1.8105
 2267SOL     hw 9067   4.636   4.484   2.524  0.7556  0.5438 -1.5621
 2267SOL     vw 9068   4.578   4.441   2.474 -0.4592  0.2353  0.0495
 2268SOL     ow 9069   0.234   5.196   0.824 -0.0376  0.0359  0.7963
 2268SOL     hw 9070   0.201   5.116   0.784 -0.6256  0.1071  1.1263
 2268SOL     hw 9071   0.161   5.258   0.817  0.7331  0.8447 -0.3115
 2268SOL     vw 9072   0.220   5.194   0.818 -0.0135  0.1519  0.6936
 2269SOL     ow 9073   2.010   3.254   0.820 -0.6537  0.1572  0.2826
 2269SOL     hw 9074   2.058   3.302   0.887 -1.2035  0.6320  0.3442
 2269SOL     hw 9075   1.956   3.193   0.868 -0.7495  0.2195  0.2543
 2269SOL     vw 9076   2.010   3.253   0.835 -0.7390  0.2282  0.2870
 2270SOL     ow 9077   5.236   0.148   2.616 -0.3413  0.0571 -0.3453
 2270SOL     hw 9078   5.150   0.107   2.611 -0.2954 -0.0623 -0.1444
 2270SOL     hw 9079   5.279   0.105   2.690 -1.1566  2.1177  1.4164
 2270SOL     vw 9080   5.231   0.137   2.625 -0.4427  0.3132 -0.0863
 2271SOL     ow 9081   1.991   3.410   2.860 -0.4206  0.3638  0.6850
 2271SOL     hw 9082   1.951   3.427   2.774 -3.1958 -2.9692  1.0718
 2271SOL     hw 9083   2.072   3.363   2.840 -0.6334  0.3340 -0.1583
 2271SOL     vw 9084   1.996   3.406   2.846 -0.8148 -0.0799  0.6248
 2272SOL     ow 9085   1.373   5.796   4.204  0.3237 -0.2387 -0.0576
 2272SOL     hw 9086   1.360   5.734   4.276 -1.0101 -1.7489 -1.5150
 2272SOL     hw 9087   1.294   5.789   4.152 -0.4720  3.6285  0.2898
 2272SOL     vw 9088   1.361   5.787   4.207  0.0427  0.0722 -0.2041
 2273SOL     ow 9089   7.015   2.741   4.854  0.1547  0.5663 -0.1285
 2273SOL     hw 9090   6.991   2.758   4.945 -3.6086  0.5481 -0.9832
 2273SOL     hw 9091   7.045   2.650   4.854 -1.3652  0.0356  0.8619
 2273SOL     vw 9092   7.016   2.731   4.866 -0.5424  0.4939 -0.1106
 2274SOL     ow 9093   4.549   4.732   1.299  0.0029 -0.3388  0.1508
 2274SOL     hw 9094   4.478   4.677   1.265 -0.7527  0.2031  0.8075
 2274SOL     hw 9095   4.565   4.699   1.388  0.9671 -0.8179 -0.1901
 2274SOL     vw 9096   4.541   4.720   1.306  0.0305 -0.3304  0.1924
 2275SOL     ow 9097   0.600   5.571   6.629 -0.2379  0.3980  0.0573
 2275SOL     hw 9098   0.607   5.646   6.689  2.4950 -0.3619  0.8211
 2275SOL     hw 9099   0.609   5.610   6.542 -0.2953  1.0914  0.3526
 2275SOL     vw 9100   0.602   5.586   6.626  0.1151  0.3891  0.1967
 2276SOL     ow 9101   2.385   5.795   2.899  0.7424 -0.0661 -0.0113
 2276SOL     hw 9102   2.308   5.738   2.904 -0.4166  1.3392 -0.9084
 2276SOL     hw 9103   2.423   5.778   2.813  0.2872  0.6310 -0.3546
 2276SOL     vw 9104   2.380   5.785   2.889  0.5294  0.2115 -0.1751
 2277SOL     ow 9105   6.679   0.713   1.006 -0.4116  0.2435 -0.6839
 2277SOL     hw 9106   6.749   0.778   0.992  0.7603 -0.6673  0.6033
 2277SOL     hw 9107   6.699   0.642   0.945  1.0566 -0.9346  1.0597
 2277SOL     vw 9108   6.691   0.713   0.996 -0.0632 -0.0322 -0.2840
 2278SOL     ow 9109   5.978   6.465   2.672 -0.2022  0.3450  0.3011
 2278SOL     hw 9110   5.970   6.508   2.757 -0.0849  1.2056 -0.1137
 2278SOL     hw 9111   5.899   6.412   2.664 -0.3689  0.5124  0.8057
 2278SOL     vw 9112   5.967   6.463   2.682 -0.2089  0.4807  0.3129
 2279SOL     ow 9113   3.251   0.916   0.462  0.0857  0.5890 -0.1229
 2279SOL     hw 9114   3.243   1.008   0.487  1.8047  0.8760 -0.5369
 2279SOL     hw 9115   3.345   0.901   0.454 -0.1001 -1.5026  0.9684
 2279SOL     vw 9116   3.262   0.926   0.464  0.2880  0.3509 -0.0335
 2280SOL     ow 9117   1.456   1.363   6.671 -0.2282 -0.7256  0.4912
 2280SOL     hw 9118   1.445   1.308   6.593  0.0353 -0.7955  0.5033
 2280SOL     hw 9119   1.452   1.301   6.744  0.2600 -0.7539  0.4948
 2280SOL     vw 9120   1.454   1.347   6.670 -0.1290 -0.7386  0.4933
 2281SOL     ow 9121   1.241   2.549   2.879 -0.5808 -0.3637  0.1387
 2281SOL     hw 9122   1.325   2.514   2.849 -0.4526  1.1200 -1.3852
 2281SOL     hw 9123   1.206   2.481   2.937  1.3537 -1.2982  0.2832
 2281SOL     vw 9124   1.247   2.535   2.883 -0.3086 -0.2912 -0.0433
 2282SOL     ow 9125   5.212   5.529   7.025  0.6306  0.2380  0.1913
 2282SOL     hw 9126   5.182   5.619   7.032  1.7061  0.7177 -1.0436
 2282SOL     hw 9127   5.307   5.535   7.017  0.5773 -0.8275 -2.1579
 2282SOL     vw 9128   5.221   5.541   7.025  0.7656  0.1607 -0.2816
 2283SOL     ow 9129   5.273   2.566   2.580 -0.1577 -0.2433  0.0215
 2283SOL     hw 9130   5.204   2.585   2.517 -0.2355 -1.4042 -0.2625
 2283SOL     hw 9131   5.277   2.470   2.584 -1.1669 -0.2886  2.8471
 2283SOL     vw 9132   5.265   2.556   2.572 -0.3011 -0.4025  0.3567
 2284SOL     ow 9133   3.515   0.108   7.210 -0.1194 -0.2126 -0.8097
 2284SOL     hw 9134   3.475   0.038   7.157  0.6940  0.2933 -2.1677
 2284SOL     hw 9135   3.470   0.188   7.183 -1.1921 -0.2039  0.8974
 2284SOL     vw 9136   3.504   0.109   7.199 -0.1537 -0.1447 -0.7637
 2285SOL     ow 9137   0.973   6.916   5.590 -0.5273 -0.0006  0.3964
 2285SOL     hw 9138   0.980   6.842   5.650 -2.4124 -0.6352 -0.0962
 2285SOL     hw 9139   1.035   6.981   5.625  0.3254 -1.3365  1.4996
 2285SOL     vw 9140   0.982   6.915   5.603 -0.6635 -0.2606  0.4768
 2286SOL     ow 9141   3.833   6.296   4.651 -0.0636 -0.3067 -0.0809
 2286SOL     hw 9142   3.797   6.313   4.738 -0.9312  0.9075 -0.6473
 2286SOL     hw 9143   3.894   6.224   4.664  0.0977  0.0890  1.5992
 2286SOL     vw 9144   3.837   6.289   4.664 -0.1569 -0.0944  0.0663
 2287SOL     ow 9145   6.513   6.137   1.454 -0.5635  0.1839  0.4764
 2287SOL     hw 9146   6.537   6.221   1.493 -0.6407  0.0109  0.9050
 2287SOL     hw 9147   6.559   6.072   1.507 -0.1762 -0.0220 -0.1097
 2287SOL     vw 9148   6.522   6.139   1.466 -0.5224  0.1340  0.4556
 2288SOL     ow 9149   4.497   4.311   5.831  0.0276 -0.6165 -0.3039
 2288SOL     hw 9150   4.506   4.355   5.746 -0.1237  0.4472  0.2245
 2288SOL     hw 9151   4.433   4.242   5.815 -1.4267  0.7615 -0.6167
 2288SOL     vw 9152   4.490   4.308   5.817 -0.1843 -0.2944 -0.2756
 2289SOL     ow 9153   5.187   1.112   3.380  0.2974 -0.1290  0.4609
 2289SOL     hw 9154   5.151   1.102   3.292 -0.2242 -0.4137  0.7026
 2289SOL     hw 9155   5.276   1.142   3.366 -0.2829  1.3922 -0.1268
 2289SOL     vw 9156   5.194   1.114   3.367  0.1519  0.0342  0.4153
 2290SOL     ow 9157   3.234   0.307   4.453 -0.1965 -0.0247 -0.1689
 2290SOL     hw 9158   3.272   0.385   4.495 -0.3904  0.2122 -0.4247
 2290SOL     hw 9159   3.229   0.331   4.361 -1.9565  0.3652  0.0020
 2290SOL     vw 9160   3.239   0.321   4.446 -0.4543  0.0580 -0.1798
 2291SOL     ow 9161   5.236   7.201   5.621  0.3317  0.6206 -0.0240
 2291SOL     hw 9162   5.324   7.235   5.638  0.3059  0.7317 -0.1153
 2291SOL     hw 9163   5.203   7.176   5.708  0.4879  0.4938 -0.0002
 2291SOL     vw 9164   5.243   7.202   5.635  0.3488  0.6185 -0.0327
 2292SOL     ow 9165   6.602   0.042   5.287  0.2727  0.1779 -0.2674
 2292SOL     hw 9166   6.667  -0.008   5.337  0.5528  1.5064  0.7354
 2292SOL     hw 9167   6.650   0.118   5.254 -1.1750  2.4222  2.3982
 2292SOL     vw 9168   6.617   0.045   5.290  0.1185  0.6493  0.2167
 2293SOL     ow 9169   4.592   2.245   2.154  0.5724 -0.8436  0.3859
 2293SOL     hw 9170   4.688   2.241   2.154  0.5832 -0.7425 -0.2095
 2293SOL     hw 9171   4.571   2.295   2.075  0.0182 -1.3063  0.2335
 2293SOL     vw 9172   4.602   2.251   2.143  0.5007 -0.8913  0.2872
 2294SOL     ow 9173   5.129   2.604   1.334  0.4206 -0.3960  0.2579
 2294SOL     hw 9174   5.167   2.691   1.322 -0.6467 -0.0927 -1.2195
 2294SOL     hw 9175   5.070   2.593   1.260 -0.9729 -1.5903  1.4820
 2294SOL     vw 9176   5.127   2.614   1.322  0.0958 -0.5134  0.2244
 2295SOL     ow 9177   0.135   0.471   4.806 -0.1653  0.4187 -0.2172
 2295SOL     hw 9178   0.119   0.435   4.893 -1.6109  0.7570 -0.3230
 2295SOL     hw 9179   0.056   0.522   4.785  1.6032  3.4302 -0.1964
 2295SOL     vw 9180   0.123   0.473   4.814 -0.1227  0.8607 -0.2286
 2296SOL     ow 9181   6.304   3.807   0.464 -1.1418 -0.3655  0.0247
 2296SOL     hw 9182   6.292   3.898   0.437 -1.6821 -0.4966 -0.1818
 2296SOL     hw 9183   6.217   3.779   0.493 -1.1561 -1.0519 -0.6547
 2296SOL     vw 9184   6.291   3.815   0.464 -1.2150 -0.4733 -0.0922
 2297SOL     ow 9185   1.907   0.070   1.016  0.2306  0.2923  0.6513
 2297SOL     hw 9186   1.846  -0.002   1.031 -0.6806  0.6998 -0.9184
 2297SOL     hw 9187   1.873   0.115   0.939  2.8704  0.1585 -0.7012
 2297SOL     vw 9188   1.894   0.067   1.008  0.4587  0.3284  0.2658
 2298SOL     ow 9189   0.558   0.732   4.751  0.1140 -0.4611  0.6070
 2298SOL     hw 9190   0.575   0.718   4.844 -1.6052 -0.8849  0.8937
 2298SOL     hw 9191   0.644   0.727   4.709  1.0084  0.4906  2.2507
 2298SOL     vw 9192   0.572   0.730   4.757  0.0052 -0.3914  0.8614
 2299SOL     ow 9193   3.072   5.571   4.635  0.2205  0.4336  0.1946
 2299SOL     hw 9194   2.978   5.583   4.620  0.3267  2.4946  0.8890
 2299SOL     hw 9195   3.106   5.539   4.552 -0.5506  3.1598 -1.2889
 2299SOL     vw 9196   3.064   5.568   4.622  0.1327  1.0650  0.0906
 2300SOL     ow 9197   0.245   2.083   5.986  0.0331  1.1560 -0.2326
 2300SOL     hw 9198   0.273   2.107   5.898 -1.8960  1.5296 -0.7940
 2300SOL     hw 9199   0.247   2.166   6.034  0.8662  0.9920  0.0335
 2300SOL     vw 9200   0.249   2.097   5.981 -0.1115  1.1835 -0.2716
 2301SOL     ow 9201   0.308   3.014   3.817 -0.1619  0.2406  0.2818
 2301SOL     hw 9202   0.247   3.007   3.743 -0.8788 -1.7431  0.9805
 2301SOL     hw 9203   0.256   3.055   3.886 -0.3422 -0.3757  0.5140
 2301SOL     vw 9204   0.293   3.019   3.816 -0.2803 -0.1024  0.4045
 2302SOL     ow 9205   5.700   5.142   4.255 -0.3272 -0.0519  0.4604
 2302SOL     hw 9206   5.698   5.222   4.307  0.0595 -0.9484  1.9246
 2302SOL     hw 9207   5.763   5.160   4.185  1.5836  0.1640  2.1520
 2302SOL     vw 9208   5.708   5.155   4.253 -0.0241 -0.1419  0.8767
 2303SOL     ow 9209   5.043   3.903   5.892  0.0809  0.6047  1.0295
 2303SOL     hw 9210   5.040   3.965   5.819 -0.2371  1.5417  1.8056
 2303SOL     hw 9211   5.032   3.817   5.852  0.5915  1.0465 -0.0860
 2303SOL     vw 9212   5.041   3.900   5.877  0.1063  0.7867  0.9851
 2304SOL     ow 9213   3.742   4.688   4.254 -0.6417 -0.8400 -0.4182
 2304SOL     hw 9214   3.811   4.726   4.308 -0.2179 -1.4908 -0.4960
 2304SOL     hw 9215   3.769   4.597   4.240 -1.1522 -0.9017 -1.0573
 2304SOL     vw 9216   3.754   4.681   4.260 -0.6530 -0.9339 -0.5128
 2305SOL     ow 9217   2.616   2.987   1.697 -0.4413 -0.5731 -0.8400
 2305SOL     hw 9218   2.688   3.050   1.686 -0.5003 -0.4685 -0.6345
 2305SOL     hw 9219   2.545   3.021   1.642 -0.5130 -0.3974 -0.6393
 2305SOL     vw 9220   2.616   3.000   1.688 -0.4586 -0.5360 -0.7864
 2306SOL     ow 9221   2.028   1.148   6.905 -0.7062 -0.2071  0.0841
 2306SOL     hw 9222   2.008   1.204   6.830 -0.2603 -0.9371 -0.5921
 2306SOL     hw 9223   1.951   1.090   6.913 -0.9560  0.1719  0.4859
 2306SOL     vw 9224   2.015   1.148   6.896 -0.6802 -0.2534  0.0479
 2307SOL     ow 9225   3.262   6.072   4.088 -0.0391  0.0753 -0.2649
 2307SOL     hw 9226   3.167   6.088   4.089 -0.2422 -1.0298  1.2393
 2307SOL     hw 9227   3.276   6.013   4.015 -0.8826 -1.5870  0.8510
 2307SOL     vw 9228   3.251   6.067   4.079 -0.1770 -0.2899  0.0806
 2308SOL     ow 9229   1.321   6.936   4.355  0.0078 -0.2769 -0.4492
 2308SOL     hw 9230   1.277   7.017   4.329  0.1409 -0.4932 -1.4109
 2308SOL     hw 9231   1.275   6.908   4.434 -0.9563  0.0231 -0.8748
 2308SOL     vw 9232   1.309   6.943   4.362 -0.1019 -0.2661 -0.6320
 2309SOL     ow 9233   0.610   1.344   1.936  0.3484  0.1864 -0.2778
 2309SOL     hw 9234   0.626   1.319   2.027 -0.3538  1.4494  0.2141
 2309SOL     hw 9235   0.676   1.295   1.887 -0.4050 -1.9363  0.6807
 2309SOL     vw 9236   0.621   1.334   1.942  0.1563  0.0729 -0.0864
 2310SOL     ow 9237   6.535   2.438   3.990 -0.3316  0.8439 -0.3933
 2310SOL     hw 9238   6.478   2.361   3.989  0.6528  0.0883  0.2724
 2310SOL     hw 9239   6.502   2.492   4.061  0.1672  0.0853  0.4404
 2310SOL     vw 9240   6.523   2.435   3.999 -0.1359  0.6443 -0.1955
 2311SOL     ow 9241   7.093   5.883   5.347  0.0309  0.2926 -0.2046
 2311SOL     hw 9242   7.060   5.832   5.421 -1.0888 -0.5512 -1.2496
 2311SOL     hw 9243   7.189   5.882   5.359  0.0514 -1.9144 -0.0858
 2311SOL     vw 9244   7.102   5.876   5.359 -0.1140 -0.1099 -0.3266
 2312SOL     ow 9245   0.011   5.043   6.629 -0.2770  0.2827 -1.2029
 2312SOL     hw 9246   0.051   5.130   6.630 -2.0719  1.1553 -0.5098
 2312SOL     hw 9247   0.044   5.000   6.709 -0.5752  0.9217 -0.7280
 2312SOL     vw 9248   0.021   5.049   6.640 -0.5532  0.4821 -1.0488
 2313SOL     ow 9249   5.645   2.435   5.837 -0.1980  0.1100  0.3547
 2313SOL     hw 9250   5.641   2.420   5.743  1.6498  0.0214  0.2657
 2313SOL     hw 9251   5.555   2.420   5.867 -0.8323  0.1990 -1.3807
 2313SOL     vw 9252   5.633   2.431   5.829 -0.0381  0.1100  0.1140
 2314SOL     ow 9253   3.533   4.918   4.547 -0.7677 -0.3145  0.7593
 2314SOL     hw 9254   3.439   4.933   4.548 -0.8684 -0.5427  3.6268
 2314SOL     hw 9255   3.569   4.995   4.503 -2.2649 -0.5128 -0.9561
 2314SOL     vw 9256   3.525   4.930   4.541 -0.9786 -0.3707  0.9115
 2315SOL     ow 9257   4.987   1.204   0.414 -0.7052 -0.3569  0.7097
 2315SOL     hw 9258   5.078   1.187   0.390 -1.1393 -0.4583 -1.0396
 2315SOL     hw 9259   4.992   1.278   0.474  0.6167 -1.3632  1.9308
 2315SOL     vw 9260   5.000   1.211   0.419 -0.5882 -0.5031  0.6400
 2316SOL     ow 9261   6.930   2.616   7.014 -0.3559 -0.2512 -0.4682
 2316SOL     hw 9262   6.928   2.574   6.928 -2.0056  0.8157 -1.0167
 2316SOL     hw 9263   6.957   2.706   6.996  0.7856 -0.4112  0.3607
 2316SOL     vw 9264   6.933   2.622   7.000 -0.4227 -0.1314 -0.4313
 2317SOL     ow 9265   4.810   6.592   2.754  0.2376  0.3954  0.5971
 2317SOL     hw 9266   4.825   6.650   2.680  0.5440  0.4546  0.7060
 2317SOL     hw 9267   4.898   6.572   2.788  0.2538 -1.2993 -0.3380
 2317SOL     vw 9268   4.824   6.597   2.749  0.2799  0.1793  0.4880
 2318SOL     ow 9269   2.192   6.184   0.997  0.4043 -0.0627 -0.4290
 2318SOL     hw 9270   2.155   6.098   1.015  0.4259 -0.6551 -2.8271
 2318SOL     hw 9271   2.266   6.167   0.938  0.3138  1.5803 -1.0831
 2318SOL     vw 9272   2.197   6.171   0.991  0.3952  0.0758 -0.8317
 2319SOL     ow 9273   2.324   1.292   2.357 -0.0058  0.2906  0.1968
 2319SOL     hw 9274   2.341   1.352   2.285 -0.2357 -1.6630 -1.5946
 2319SOL     hw 9275   2.411   1.258   2.381 -0.2081 -2.4526 -2.3791
 2319SOL     vw 9276   2.338   1.295   2.351 -0.0629 -0.3291 -0.3793
 2320SOL     ow 9277   2.118   2.127   0.749 -0.0168 -0.0835 -0.5351
 2320SOL     hw 9278   2.130   2.168   0.835 -0.0403  0.9347 -0.9993
 2320SOL     hw 9279   2.075   2.044   0.767 -0.0880  0.1570  0.4304
 2320SOL     vw 9280   2.114   2.121   0.763 -0.0293  0.0826 -0.4690
 2321SOL     ow 9281   0.872   5.202   1.939 -0.7935  0.1380  0.0348
 2321SOL     hw 9282   0.957   5.246   1.947  0.2037 -1.8945  1.5826
 2321SOL     hw 9283   0.869   5.142   2.013 -3.1621 -0.6084 -0.5774
 2321SOL     vw 9284   0.883   5.200   1.950 -0.9744 -0.2286  0.1583
 2322SOL     ow 9285   2.043   0.784   3.431 -0.2121 -0.1439 -0.1764
 2322SOL     hw 9286   2.060   0.695   3.402  0.8614  0.1442 -0.4685
 2322SOL     hw 9287   2.129   0.822   3.446 -0.3298  2.1497 -3.9458
 2322SOL     vw 9288   2.056   0.777   3.429 -0.0859  0.1967 -0.7123
 2323SOL     ow 9289   4.971   3.061   5.771 -0.1103  0.2069  0.3790
 2323SOL     hw 9290   4.970   2.969   5.742  1.8405  0.1155  0.4703
 2323SOL     hw 9291   4.960   3.111   5.690  0.2121 -0.1127  0.1309
 2323SOL     vw 9292   4.969   3.055   5.756  0.1895  0.1525  0.3583
 2324SOL     ow 9293   6.041   1.153   1.613 -0.0960 -0.2485  0.0174
 2324SOL     hw 9294   5.989   1.190   1.542  0.0327  2.9865  1.4414
 2324SOL     hw 9295   5.981   1.154   1.688  0.8111 -0.3030  0.7515
 2324SOL     vw 9296   6.026   1.158   1.614  0.0405  0.1711  0.3021
 2325SOL     ow 9297   2.800   4.739   5.293 -0.6462  0.0567  0.3002
 2325SOL     hw 9298   2.873   4.776   5.244 -0.1864 -1.3475 -0.1082
 2325SOL     hw 9299   2.729   4.803   5.282 -0.1106  0.4560 -0.9924
 2325SOL     vw 9300   2.800   4.752   5.285 -0.5147 -0.0756  0.0756
 2326SOL     ow 9301   3.071   3.310   4.295 -0.1396 -0.0301 -0.3061
 2326SOL     hw 9302   3.063   3.373   4.223 -0.5513  0.6491  0.3151
 2326SOL     hw 9303   3.046   3.360   4.373  0.7842 -0.6042  0.3852
 2326SOL     vw 9304   3.067   3.325   4.296 -0.0720 -0.0163 -0.1330
 2327SOL     ow 9305   2.198   6.268   4.514  0.5089  0.0021 -0.2541
 2327SOL     hw 9306   2.169   6.346   4.562  2.2494  0.9390 -0.6179
 2327SOL     hw 9307   2.270   6.300   4.459  0.8018 -1.7382 -0.9447
 2327SOL     vw 9308   2.204   6.283   4.513  0.7771 -0.1040 -0.3934
 2328SOL     ow 9309   4.226   6.195   1.235 -0.0515 -0.0588  0.2711
 2328SOL     hw 9310   4.247   6.279   1.276 -0.4418  0.6457 -0.9453
 2328SOL     hw 9311   4.139   6.207   1.197  0.0214 -0.9064 -0.1958
 2328SOL     vw 9312   4.218   6.208   1.236 -0.0935 -0.0780  0.0489
 2329SOL     ow 9313   4.564   0.149   3.074  0.0401 -0.5491 -0.5457
 2329SOL     hw 9314   4.515   0.218   3.029  0.2955  0.7090  1.0237
 2329SOL     hw 9315   4.631   0.122   3.011 -0.0820  0.6055 -1.1919
 2329SOL     vw 9316   4.566   0.154   3.060  0.0577 -0.2308 -0.4239
 2330SOL     ow 9317   6.217   2.776   1.847 -0.3907 -0.0537 -0.2603
 2330SOL     hw 9318   6.162   2.770   1.769 -1.2425 -0.6182  0.3711
 2330SOL     hw 9319   6.198   2.697   1.896 -0.6140  0.7541  0.9962
 2330SOL     vw 9320   6.207   2.765   1.843 -0.5326 -0.0215 -0.0113
 2331SOL     ow 9321   2.110   4.716   1.455 -0.2783 -0.5848 -0.4926
 2331SOL     hw 9322   2.075   4.752   1.373 -0.1206 -0.4592 -0.5070
 2331SOL     hw 9323   2.170   4.784   1.486 -0.8061 -0.3551  0.0502
 2331SOL     vw 9324   2.113   4.730   1.448 -0.3272 -0.5379 -0.4230
 2332SOL     ow 9325   4.045   2.121   2.418 -0.3093 -0.2587 -0.1423
 2332SOL     hw 9326   4.090   2.056   2.363  0.6730  0.3521 -0.0797
 2332SOL     hw 9327   4.000   2.178   2.355 -0.0130 -0.1612 -0.2687
 2332SOL     vw 9328   4.045   2.120   2.402 -0.1407 -0.1651 -0.1507
 2333SOL     ow 9329   3.303   4.854   6.578 -0.6991  0.0289 -0.2049
 2333SOL     hw 9330   3.214   4.820   6.582 -0.7611  0.1329 -0.6903
 2333SOL     hw 9331   3.295   4.946   6.601 -0.8815  0.3165 -1.3468
 2333SOL     vw 9332   3.291   4.861   6.581 -0.7313  0.0806 -0.4194
 2334SOL     ow 9333   7.020   5.600   4.473 -0.9267  0.0283  0.2474
 2334SOL     hw 9334   6.965   5.580   4.549 -1.7504  2.6248  0.4367
 2334SOL     hw 9335   7.048   5.691   4.487  0.6424 -0.1067 -1.5526
 2334SOL     vw 9336   7.017   5.609   4.485 -0.8285  0.3531  0.0350
 2335SOL     ow 9337   3.002   0.030   3.119 -0.3955  0.1547 -0.0339
 2335SOL     hw 9338   3.011   0.083   3.198 -1.7223 -0.8303  0.8091
 2335SOL     hw 9339   3.083  -0.022   3.116  1.6194  3.0749 -1.6403
 2335SOL     vw 9340   3.014   0.030   3.129 -0.3047  0.4100 -0.1346
 2336SOL     ow 9341   0.286   5.864   3.245 -0.2049  0.4909  0.7768
 2336SOL     hw 9342   0.199   5.848   3.280 -0.5420  1.1027  0.2434
 2336SOL     hw 9343   0.339   5.887   3.321 -0.1193 -1.3888  1.3236
 2336SOL     vw 9344   0.282   5.865   3.259 -0.2381  0.3238  0.7784
 2337SOL     ow 9345   6.455   3.645   2.916  0.4892 -0.5153  0.2571
 2337SOL     hw 9346   6.546   3.617   2.909  1.0385  1.1777  0.2511
 2337SOL     hw 9347   6.416   3.583   2.978  2.0668 -0.2824  1.5434
 2337SOL     vw 9348   6.462   3.633   2.923  0.7699 -0.2612  0.4259
 2338SOL     ow 9349   3.456   0.404   0.382 -0.7311 -0.3935 -0.2801
 2338SOL     hw 9350   3.525   0.452   0.428 -1.1552 -0.2859  0.2618
 2338SOL     hw 9351   3.459   0.437   0.293 -0.3681 -0.0759 -0.1532
 2338SOL     vw 9352   3.466   0.414   0.377 -0.7391 -0.3374 -0.1919
 2339SOL     ow 9353   2.205   1.002   6.416 -0.4552 -0.3040  0.4409
 2339SOL     hw 9354   2.186   0.908   6.411  1.4790 -0.7763  0.9157
 2339SOL     hw 9355   2.300   1.006   6.431 -0.0630  1.7875 -1.8885
 2339SOL     vw 9356   2.215   0.990   6.417 -0.1483 -0.0903  0.1962
 2340SOL     ow 9357   5.151   0.292   2.958 -0.5412  0.4450  0.0296
 2340SOL     hw 9358   5.061   0.262   2.970  0.3344 -1.9972  1.1953
 2340SOL     hw 9359   5.191   0.281   3.045  1.4808 -0.8537 -0.9909
 2340SOL     vw 9360   5.145   0.287   2.971 -0.1588 -0.0485  0.0488
 2341SOL     ow 9361   2.153   5.966   4.686 -0.0094 -0.2387  0.4392
 2341SOL     hw 9362   2.157   5.939   4.778 -0.1883  2.1506  1.2292
 2341SOL     hw 9363   2.211   5.905   4.641  1.6067 -0.3247  2.4624
 2341SOL     vw 9364   2.162   5.955   4.692  0.1804  0.0651  0.8104
 2342SOL     ow 9365   3.355   2.815   4.002 -0.2624  0.1238  0.8696
 2342SOL     hw 9366   3.378   2.765   4.080 -1.4248 -0.4021  0.8968
 2342SOL     hw 9367   3.309   2.752   3.946 -0.5431  0.8124  0.3127
 2342SOL     vw 9368   3.352   2.800   4.005 -0.4528  0.1452  0.7997
 2343SOL     ow 9369   5.863   4.081   1.455 -0.5378  0.5875 -0.2001
 2343SOL     hw 9370   5.874   4.166   1.414 -1.8199  0.5051 -0.7765
 2343SOL     hw 9371   5.783   4.091   1.508  0.0018  0.1150  0.7238
 2343SOL     vw 9372   5.854   4.093   1.457 -0.6359  0.5145 -0.1542
 2344SOL     ow 9373   5.852   1.219   1.428 -0.1675  0.3846 -0.1432
 2344SOL     hw 9374   5.767   1.174   1.428  1.3933 -2.9215  1.0614
 2344SOL     hw 9375   5.890   1.199   1.342  0.5147 -0.6984  0.3815
 2344SOL     vw 9376   5.846   1.210   1.417  0.1283 -0.1945  0.0849
 2345SOL     ow 9377   6.665   2.709   4.412 -0.6071 -0.0854  0.2143
 2345SOL     hw 9378   6.620   2.791   4.430 -0.4224  0.0859 -0.0999
 2345SOL     hw 9379   6.748   2.717   4.459  0.8080  1.2492 -2.3427
 2345SOL     vw 9380   6.670   2.721   4.421 -0.3960  0.1131 -0.1645
 2346SOL     ow 9381   5.358   4.767   4.402  0.3567 -0.1366  0.3809
 2346SOL     hw 9382   5.363   4.789   4.309 -0.5759 -0.1268  0.3236
 2346SOL     hw 9383   5.317   4.843   4.443  1.4937  0.1935  0.9381
 2346SOL     vw 9384   5.353   4.780   4.395  0.3834 -0.0920  0.4468
 2347SOL     ow 9385   2.304   0.983   4.207 -0.4120 -0.1121  0.4204
 2347SOL     hw 9386   2.265   0.897   4.188 -1.3395  0.1983  0.8726
 2347SOL     hw 9387   2.332   0.977   4.298 -1.4718  0.4226  0.7901
 2347SOL     vw 9388   2.302   0.971   4.217 -0.6741 -0.0006  0.5288
 2348SOL     ow 9389   1.922   2.386   0.048  0.6695 -0.0239  0.1297
 2348SOL     hw 9390   1.992   2.341   0.001  0.3196  0.1985 -0.6289
 2348SOL     hw 9391   1.963   2.465   0.083  0.8179  0.0791 -0.2678
 2348SOL     vw 9392   1.936   2.390   0.046  0.6428  0.0190 -0.0229
 2349SOL     ow 9393   5.696   1.753   1.351 -0.4901 -0.4207  0.1160
 2349SOL     hw 9394   5.631   1.771   1.419 -1.0006 -0.6079 -0.3197
 2349SOL     hw 9395   5.736   1.838   1.334 -0.0658 -0.4454  0.9403
 2349SOL     vw 9396   5.693   1.767   1.357 -0.5014 -0.4486  0.1673
 2350SOL     ow 9397   3.759   1.199   4.756 -0.0580 -0.3667 -0.1326
 2350SOL     hw 9398   3.847   1.210   4.793 -0.7529 -2.5861  2.5804
 2350SOL     hw 9399   3.720   1.286   4.760  1.5549  0.3949 -0.1224
 2350SOL     vw 9400   3.765   1.212   4.761  0.0632 -0.5591  0.2267
 2351SOL     ow 9401   0.839   5.661   2.176 -0.3361  0.0579  0.1111
 2351SOL     hw 9402   0.834   5.756   2.181 -1.7834  0.0951 -1.3422
 2351SOL     hw 9403   0.890   5.643   2.097 -0.2445 -0.3777  0.2658
 2351SOL     vw 9404   0.845   5.671   2.167 -0.5150  0.0055 -0.0602
 2352SOL     ow 9405   5.628   3.043   3.640  0.3279  0.8264  0.1953
 2352SOL     hw 9406   5.615   3.123   3.690 -1.6875 -0.2783  1.6067
 2352SOL     hw 9407   5.603   2.973   3.700  1.0118 -0.8022 -1.3225
 2352SOL     vw 9408   5.623   3.044   3.654  0.1521  0.4658  0.1812
 2353SOL     ow 9409   1.536   3.240   3.201 -0.1349 -0.4971 -0.4619
 2353SOL     hw 9410   1.587   3.159   3.208 -0.3518 -0.6979 -1.0766
 2353SOL     hw 9411   1.509   3.242   3.109 -0.1804  0.2446 -0.4338
 2353SOL     vw 9412   1.539   3.229   3.189 -0.1695 -0.4257 -0.5394
 2354SOL     ow 9413   5.149   6.892   3.724 -0.0046 -0.3268  0.3472
 2354SOL     hw 9414   5.095   6.817   3.699 -0.1850  0.4242 -1.7165
 2354SOL     hw 9415   5.236   6.855   3.742 -0.3299 -1.1352  0.2639
 2354SOL     vw 9416   5.154   6.877   3.723 -0.0713 -0.3345  0.0640
 2355SOL     ow 9417   4.019   6.375   5.222  0.1130  0.3914  1.0827
 2355SOL     hw 9418   3.968   6.392   5.142  2.0208  1.2572 -0.0261
 2355SOL     hw 9419   4.109   6.392   5.196  0.7408  1.2248  3.5976
 2355SOL     vw 9420   4.024   6.379   5.208  0.4475  0.6156  1.2681
 2356SOL     ow 9421   2.276   2.953   2.251 -0.1953  0.4404  0.8371
 2356SOL     hw 9422   2.362   2.931   2.286 -0.9404 -2.0577  1.3355
 2356SOL     hw 9423   2.267   2.897   2.173 -1.6487  0.0219  1.2668
 2356SOL     vw 9424   2.286   2.943   2.245 -0.4853  0.0556  0.9595
 2357SOL     ow 9425   0.404   0.344   4.810 -0.4687  0.0798  0.0509
 2357SOL     hw 9426   0.463   0.273   4.787  0.5996  1.1533 -0.6323
 2357SOL     hw 9427   0.394   0.338   4.905  0.7776 -0.1095  0.1813
 2357SOL     vw 9428   0.410   0.334   4.820 -0.1633  0.1965 -0.0219
 2358SOL     ow 9429   1.665   3.237   1.430  0.2326 -0.8183  0.1647
 2358SOL     hw 9430   1.588   3.280   1.467 -0.9316 -1.0568 -1.8456
 2358SOL     hw 9431   1.739   3.274   1.478 -0.7942  2.4270 -0.5106
 2358SOL     vw 9432   1.664   3.247   1.441 -0.0565 -0.4215 -0.1896
 2359SOL     ow 9433   5.246   5.644   3.348  0.8662  0.0704 -0.9662
 2359SOL     hw 9434   5.331   5.650   3.391  0.9519 -0.1248 -1.1071
 2359SOL     hw 9435   5.186   5.690   3.407  1.0318  0.0366 -0.7693
 2359SOL     vw 9436   5.249   5.651   3.361  0.8991  0.0401 -0.9588
 2360SOL     ow 9437   0.408   5.695   1.512  0.5343  0.3003  0.1688
 2360SOL     hw 9438   0.406   5.778   1.465 -0.5168  0.7292  0.9181
 2360SOL     hw 9439   0.421   5.720   1.604 -0.0002 -0.3435  0.4254
 2360SOL     vw 9440   0.410   5.709   1.518  0.3251  0.2718  0.3015
 2361SOL     ow 9441   1.124   4.024   2.309  0.1996  0.5405  0.5504
 2361SOL     hw 9442   1.185   3.957   2.338  1.4687  2.4235  2.5638
 2361SOL     hw 9443   1.081   3.986   2.232  4.0104 -0.8386 -1.1500
 2361SOL     vw 9444   1.126   4.010   2.302  0.8699  0.6070  0.5916
 2362SOL     ow 9445   6.311   4.770   2.628  0.4303  0.4064  0.1558
 2362SOL     hw 9446   6.384   4.719   2.663 -0.9091 -2.4194 -0.8729
 2362SOL     hw 9447   6.264   4.802   2.706  0.2951 -1.5196  0.9099
 2362SOL     vw 9448   6.314   4.768   2.643  0.2358 -0.2205  0.1197
 2363SOL     ow 9449   1.139   2.246   6.121 -0.5455  0.9252  0.4962
 2363SOL     hw 9450   1.226   2.234   6.159  0.7017  1.0737 -2.0395
 2363SOL     hw 9451   1.112   2.334   6.146  0.2789  1.0671  0.8881
 2363SOL     vw 9452   1.147   2.256   6.129 -0.2722  0.9634  0.2134
 2364SOL     ow 9453   4.106   4.842   3.787 -0.4066  0.3313 -0.0247
 2364SOL     hw 9454   4.116   4.910   3.720 -1.5171  1.4090  0.8349
 2364SOL     hw 9455   4.124   4.887   3.870 -1.9374 -0.1759  0.6352
 2364SOL     vw 9456   4.109   4.857   3.789 -0.7548  0.4065  0.1758
 2365SOL     ow 9457   5.419   0.129   3.934 -0.6092  0.2549 -0.0916
 2365SOL     hw 9458   5.395   0.127   4.026 -1.2694  0.0115 -0.2621
 2365SOL     hw 9459   5.372   0.205   3.898  0.2341  0.8020 -0.0792
 2365SOL     vw 9460   5.410   0.139   3.941 -0.5851  0.2950 -0.1124
 2366SOL     ow 9461   1.148   0.580   0.889 -0.4775  0.2613 -0.3052
 2366SOL     hw 9462   1.170   0.552   0.978 -1.5104  1.4872  0.3762
 2366SOL     hw 9463   1.058   0.613   0.897 -1.2649 -1.2603 -2.1921
 2366SOL     vw 9464   1.139   0.580   0.902 -0.7176  0.2223 -0.4643
 2367SOL     ow 9465   6.624   3.541   6.320  0.3065  0.2461 -0.1104
 2367SOL     hw 9466   6.653   3.616   6.268  0.5895  0.5638  0.4889
 2367SOL     hw 9467   6.618   3.575   6.409  0.0531 -0.3484  0.1060
 2367SOL     vw 9468   6.627   3.555   6.325  0.3107  0.2097 -0.0029
 2368SOL     ow 9469   5.507   5.125   3.840  0.1345  0.2544 -0.3615
 2368SOL     hw 9470   5.515   5.135   3.934  2.1276  1.4715 -0.6256
 2368SOL     hw 9471   5.415   5.145   3.821 -0.0885  0.7936  1.2159
 2368SOL     vw 9472   5.496   5.129   3.850  0.3681  0.4866 -0.1881
 2369SOL     ow 9473   1.749   2.617   6.515 -0.2635  0.3068  0.1100
 2369SOL     hw 9474   1.691   2.583   6.446  0.2755  0.1359 -0.2648
 2369SOL     hw 9475   1.705   2.593   6.597  0.1806 -1.4597 -0.1355
 2369SOL     vw 9476   1.735   2.610   6.517 -0.1338  0.0511  0.0281
 2370SOL     ow 9477   2.754   6.183   0.841 -0.0643 -0.0307  0.0201
 2370SOL     hw 9478   2.681   6.244   0.841  0.3951  0.5370 -0.4732
 2370SOL     hw 9479   2.737   6.126   0.765 -2.5872 -3.1741  2.6315
 2370SOL     vw 9480   2.742   6.183   0.831 -0.3366 -0.3707  0.2995
 2371SOL     ow 9481   0.913   2.162   1.866  0.0844  0.3637 -0.0720
 2371SOL     hw 9482   0.843   2.218   1.835  0.3534  1.1136  0.6384
 2371SOL     hw 9483   0.902   2.160   1.961  1.1634  0.6885  0.0718
 2371SOL     vw 9484   0.903   2.169   1.875  0.2623  0.5054  0.0407
 2372SOL     ow 9485   4.931   5.873   4.629  0.1353  0.0222 -0.4181
 2372SOL     hw 9486   4.982   5.911   4.700  1.2414 -2.4634  0.2124
 2372SOL     hw 9487   4.897   5.949   4.581  2.1977  1.7836  0.7133
 2372SOL     vw 9488   4.933   5.888   4.632  0.5534 -0.0737 -0.1855
 2373SOL     ow 9489   3.985   1.995   2.916  0.2024 -0.3156  0.0327
 2373SOL     hw 9490   3.946   1.916   2.954 -1.6808  0.3233 -0.4933
 2373SOL     hw 9491   4.078   1.988   2.938  0.1081 -2.6862 -0.0101
 2373SOL     vw 9492   3.992   1.983   2.924 -0.0584 -0.5440 -0.0423
 2374SOL     ow 9493   6.762   6.386   0.683  0.5908 -0.0368 -0.2218
 2374SOL     hw 9494   6.760   6.333   0.603 -0.7965 -1.3173  0.6301
 2374SOL     hw 9495   6.684   6.360   0.732 -0.7136  3.4824 -0.1534
 2374SOL     vw 9496   6.752   6.376   0.679  0.2356  0.2587 -0.1004
 2375SOL     ow 9497   5.871   3.108   3.461  0.3626  0.0329 -0.0919
 2375SOL     hw 9498   5.922   3.056   3.400  2.0764  0.3195  1.0400
 2375SOL     hw 9499   5.917   3.192   3.466 -0.4601  0.4649  0.6142
 2375SOL     vw 9500   5.884   3.112   3.454  0.4799  0.1277  0.1507
 2376SOL     ow 9501   4.871   3.774   1.031 -0.8086 -0.4508  0.1296
 2376SOL     hw 9502   4.932   3.775   0.957  0.3476  0.3726  1.0523
 2376SOL     hw 9503   4.786   3.796   0.993 -0.1787  0.2580 -0.9066
 2376SOL     vw 9504   4.868   3.777   1.016 -0.5729 -0.2487  0.1146
 2377SOL     ow 9505   1.511   3.572   0.798  0.8572 -1.2658 -0.1836
 2377SOL     hw 9506   1.545   3.596   0.712 -0.5180 -2.3524 -1.0680
 2377SOL     hw 9507   1.527   3.478   0.804 -1.0485 -1.6305 -0.2293
 2377SOL     vw 9508   1.518   3.563   0.787  0.4244 -1.4573 -0.3063
 2378SOL     ow 9509   1.775   5.792   0.872  0.6122 -0.2735 -0.1456
 2378SOL     hw 9510   1.825   5.829   0.799 -0.5593 -0.6492 -1.1899
 2378SOL     hw 9511   1.758   5.867   0.930  1.4667  0.0542 -0.3067
 2378SOL     vw 9512   1.779   5.807   0.870  0.5703 -0.2801 -0.3047
 2379SOL     ow 9513   1.187   2.355   0.110 -0.1680  0.1360  0.0499
 2379SOL     hw 9514   1.127   2.282   0.127  0.4985 -0.8835 -1.7247
 2379SOL     hw 9515   1.185   2.407   0.191 -2.8495 -0.2411  0.3095
 2379SOL     vw 9516   1.179   2.352   0.123 -0.4339 -0.0484 -0.1500
 2380SOL     ow 9517   5.928   2.761   6.006 -0.1801 -0.4587  0.0872
 2380SOL     hw 9518   5.894   2.722   5.925  0.4497 -3.3616  1.1019
 2380SOL     hw 9519   6.014   2.795   5.983 -0.1532 -0.9472 -0.5526
 2380SOL     vw 9520   5.935   2.760   5.993 -0.0937 -0.9061  0.1366
 2381SOL     ow 9521   5.160   5.801   5.301 -0.3869  0.1823  0.1365
 2381SOL     hw 9522   5.183   5.711   5.278 -3.1429 -0.4813 -0.3136
 2381SOL     hw 9523   5.150   5.845   5.216 -2.6164 -0.1182  0.1866
 2381SOL     vw 9524   5.162   5.795   5.287 -1.0445  0.0551  0.0837
 2382SOL     ow 9525   2.421   6.536   1.880 -0.3405 -0.4111 -0.0699
 2382SOL     hw 9526   2.393   6.482   1.806  1.1045 -2.0080  0.5087
 2382SOL     hw 9527   2.422   6.477   1.955 -1.1779  1.0386  1.1476
 2382SOL     vw 9528   2.418   6.521   1.880 -0.2604 -0.4306  0.1671
 2383SOL     ow 9529   3.759   6.025   6.983  0.3339  0.7290 -0.1165
 2383SOL     hw 9530   3.679   6.062   6.945  0.8844 -1.2330 -3.5915
 2383SOL     hw 9531   3.829   6.081   6.950  0.6246  0.8576  0.6982
 2383SOL     vw 9532   3.758   6.037   6.973  0.4450  0.4871 -0.4675
 2384SOL     ow 9533   5.207   1.478   5.723 -0.0061 -0.4682  0.2386
 2384SOL     hw 9534   5.167   1.417   5.661 -1.2437 -0.4847  1.0282
 2384SOL     hw 9535   5.183   1.444   5.809  0.2390  0.5076  0.7054
 2384SOL     vw 9536   5.199   1.465   5.726 -0.1371 -0.3416  0.4044
 2385SOL     ow 9537   6.243   5.988   0.054  0.6490  0.1005 -0.4186
 2385SOL     hw 9538   6.221   6.053   0.120  1.7044  0.2479 -0.2036
 2385SOL     hw 9539   6.161   5.939   0.041  0.0250  1.0322 -0.1144
 2385SOL     vw 9540   6.229   5.990   0.061  0.7060  0.2427 -0.3501
 2386SOL     ow 9541   5.912   0.885   3.933 -0.2452 -1.0492  0.0086
 2386SOL     hw 9542   5.893   0.883   4.026 -1.4790 -0.9692 -0.2156
 2386SOL     hw 9543   6.007   0.878   3.927 -0.2423 -2.3582  1.2104
 2386SOL     vw 9544   5.922   0.884   3.944 -0.4077 -1.2113  0.1377
 2387SOL     ow 9545   2.477   5.757   1.660 -0.0748  0.1242  0.2290
 2387SOL     hw 9546   2.444   5.772   1.571 -0.2974 -0.6510  0.1749
 2387SOL     hw 9547   2.405   5.715   1.706  0.2370  0.0004  0.6154
 2387SOL     vw 9548   2.463   5.753   1.654 -0.0632  0.0057  0.2729
 2388SOL     ow 9549   4.571   5.370   6.521  0.1991  0.0584  0.2105
 2388SOL     hw 9550   4.583   5.444   6.462  0.1053 -0.3323 -0.3038
 2388SOL     hw 9551   4.512   5.403   6.588  2.5123  1.4394  1.7427
 2388SOL     vw 9552   4.565   5.384   6.522  0.4921  0.1888  0.3448
 2389SOL     ow 9553   5.041   5.643   3.786 -0.1386 -0.3875 -0.0001
 2389SOL     hw 9554   5.125   5.620   3.746  1.8603 -1.1582  4.1486
 2389SOL     hw 9555   4.991   5.562   3.783  0.1155 -0.5310 -0.5803
 2389SOL     vw 9556   5.046   5.629   3.780  0.1585 -0.5081  0.4706
 2390SOL     ow 9557   4.070   1.330   1.123  0.6058  0.1562 -0.2909
 2390SOL     hw 9558   4.024   1.407   1.155 -1.2971 -0.9231 -0.2528
 2390SOL     hw 9559   4.064   1.336   1.027 -0.3215 -0.3380 -0.2812
 2390SOL     vw 9560   4.063   1.341   1.114  0.2322 -0.0514 -0.2846
 2391SOL     ow 9561   4.652   3.069   2.854 -0.1623 -0.2683 -0.4294
 2391SOL     hw 9562   4.730   3.123   2.863  0.1144 -0.5915 -0.8139
 2391SOL     hw 9563   4.675   3.006   2.785 -1.1938  0.4071 -1.4176
 2391SOL     vw 9564   4.665   3.068   2.846 -0.2618 -0.2217 -0.6102
 2392SOL     ow 9565   2.260   1.876   1.028  0.6482 -0.2714 -0.4121
 2392SOL     hw 9566   2.254   1.951   1.088 -0.8828 -0.6241 -0.0703
 2392SOL     hw 9567   2.182   1.885   0.972  0.6976 -1.3502 -0.6654
 2392SOL     vw 9568   2.249   1.887   1.028  0.4526 -0.4603 -0.4003
 2393SOL     ow 9569   2.733   0.102   4.647 -0.3245  0.2111  0.1575
 2393SOL     hw 9570   2.747   0.127   4.739  2.0118 -0.0694 -0.0587
 2393SOL     hw 9571   2.712   0.009   4.651 -2.4160  0.6502  0.5069
 2393SOL     vw 9572   2.732   0.093   4.660 -0.2923  0.2320  0.1750
 2394SOL     ow 9573   0.367   4.638   2.572  0.0306  0.1734 -0.5429
 2394SOL     hw 9574   0.300   4.698   2.605 -1.2461  0.1493 -2.8568
 2394SOL     hw 9575   0.368   4.653   2.477  0.6647 -2.4503 -1.0369
 2394SOL     vw 9576   0.358   4.648   2.564 -0.0542 -0.1760 -0.9134
 2395SOL     ow 9577   0.214   1.458   1.235 -0.7723  0.7235  0.0089
 2395SOL     hw 9578   0.168   1.432   1.315 -2.1100  2.3043 -0.1974
 2395SOL     hw 9579   0.245   1.375   1.198  0.6303 -0.0030  2.5454
 2395SOL     vw 9580   0.212   1.444   1.241 -0.7638  0.8363  0.3164
 2396SOL     ow 9581   0.356   2.471   3.956  0.0931 -0.6038  0.2150
 2396SOL     hw 9582   0.442   2.432   3.972 -0.3053 -2.1250 -1.0953
 2396SOL     hw 9583   0.303   2.399   3.921 -1.3408  0.6140 -0.2381
 2396SOL     vw 9584   0.360   2.456   3.954 -0.1487 -0.6438 -0.0178
 2397SOL     ow 9585   1.410   3.705   3.247 -0.7778 -0.3971 -0.5778
 2397SOL     hw 9586   1.417   3.677   3.155 -0.7296 -0.8577 -0.4367
 2397SOL     hw 9587   1.354   3.639   3.287 -0.4845 -0.4106 -0.1873
 2397SOL     vw 9588   1.404   3.692   3.240 -0.7327 -0.4597 -0.5077
 2398SOL     ow 9589   2.502   3.870   3.782  0.0758 -0.3204  0.2995
 2398SOL     hw 9590   2.455   3.908   3.856 -2.5718 -0.0485 -1.3532
 2398SOL     hw 9591   2.475   3.778   3.781 -0.3631 -0.1967 -0.5880
 2398SOL     vw 9592   2.492   3.863   3.791 -0.3314 -0.2682 -0.0355
 2399SOL     ow 9593   2.100   6.324   6.513 -0.1713  0.0570  0.0902
 2399SOL     hw 9594   2.079   6.232   6.500  2.3450 -0.4740 -0.7492
 2399SOL     hw 9595   2.134   6.328   6.602  1.5916 -0.2490 -0.5440
 2399SOL     vw 9596   2.101   6.313   6.523  0.3933 -0.0534 -0.1042
 2400SOL     ow 9597   5.230   5.872   5.595  0.0173  0.0774  0.0020
 2400SOL     hw 9598   5.287   5.795   5.595  0.9131  0.7231 -0.2761
 2400SOL     hw 9599   5.180   5.865   5.677  0.0866 -0.7957 -0.0249
 2400SOL     vw 9600   5.231   5.861   5.606  0.1445  0.0472 -0.0384
 2401SOL     ow 9601   4.655   6.291   6.708  0.0965 -0.3700  0.9470
 2401SOL     hw 9602   4.588   6.358   6.693 -0.7350 -0.7443  2.6806
 2401SOL     hw 9603   4.697   6.279   6.623 -2.6648 -0.8113 -0.4625
 2401SOL     vw 9604   4.652   6.298   6.695 -0.3774 -0.4778  0.9899
 2402SOL     ow 9605   6.454   1.860   5.594 -1.0846  0.6635 -0.2267
 2402SOL     hw 9606   6.446   1.946   5.553  0.4018  1.3086  0.7624
 2402SOL     hw 9607   6.384   1.858   5.659  0.0389  1.9518  1.0875
 2402SOL     vw 9608   6.443   1.871   5.597 -0.7403  0.9186  0.0770
 2403SOL     ow 9609   2.851   5.415   0.750  0.2718  0.3775 -0.6077
 2403SOL     hw 9610   2.930   5.383   0.707  0.6028  1.1714 -0.5968
 2403SOL     hw 9611   2.809   5.472   0.686  0.5340  1.2075 -0.0525
 2403SOL     vw 9612   2.856   5.418   0.736  0.3502  0.5920 -0.5330
 2404SOL     ow 9613   7.126   5.335   4.291  0.3410  0.8213  0.5614
 2404SOL     hw 9614   7.054   5.394   4.268  0.1639  0.7136  0.8463
 2404SOL     hw 9615   7.087   5.248   4.288  0.8325  0.6221 -0.8308
 2404SOL     vw 9616   7.111   5.332   4.287  0.3827  0.7808  0.4156
 2405SOL     ow 9617   1.289   5.664   0.320 -0.0101 -0.5412 -0.1959
 2405SOL     hw 9618   1.272   5.719   0.396 -0.0267  0.4608 -0.9094
 2405SOL     hw 9619   1.274   5.575   0.351 -2.5136 -0.0140  0.3433
 2405SOL     vw 9620   1.285   5.660   0.334 -0.3426 -0.3395 -0.2189
 2406SOL     ow 9621   1.019   7.215   4.124  0.1976 -0.0959  0.2346
 2406SOL     hw 9622   1.030   7.244   4.215  1.8700 -0.0585  0.0530
 2406SOL     hw 9623   0.967   7.135   4.131  0.9437 -0.5175  1.3232
 2406SOL     vw 9624   1.014   7.208   4.137  0.5167 -0.1466  0.3543
 2407SOL     ow 9625   6.287   5.740   1.691 -0.0476 -0.6937  0.3957
 2407SOL     hw 9626   6.347   5.783   1.752  0.1027 -1.1608  0.5878
 2407SOL     hw 9627   6.203   5.740   1.735 -0.3193  0.4493 -0.1043
 2407SOL     vw 9628   6.284   5.745   1.704 -0.0634 -0.6046  0.3551
 2408SOL     ow 9629   7.184   0.262   1.853 -0.0768 -0.0293 -0.4805
 2408SOL     hw 9630   7.142   0.232   1.934  2.0010  0.2258  0.7662
 2408SOL     hw 9631   7.144   0.347   1.835 -0.7774 -0.2216  0.1046
 2408SOL     vw 9632   7.173   0.269   1.862  0.1049 -0.0210 -0.2388
 2409SOL     ow 9633   1.053   3.798   0.346 -0.2274 -0.6865 -0.2265
 2409SOL     hw 9634   1.092   3.806   0.433 -1.8621 -1.2752  0.5978
 2409SOL     hw 9635   0.974   3.746   0.360  0.3906 -2.3656 -2.3457
 2409SOL     vw 9636   1.048   3.792   0.359 -0.3616 -0.9857 -0.3974
 2410SOL     ow 9637   6.118   2.785   3.486 -0.3150 -0.3294 -0.9835
 2410SOL     hw 9638   6.071   2.840   3.424  1.3136 -0.8656 -2.7884
 2410SOL     hw 9639   6.171   2.846   3.537 -0.7942  0.0087 -0.8785
 2410SOL     vw 9640   6.119   2.800   3.484 -0.1636 -0.3555 -1.2077
 2411SOL     ow 9641   0.619   6.944   0.591 -0.1989 -0.0931 -0.6317
 2411SOL     hw 9642   0.592   6.859   0.626  0.2067 -0.8341 -2.0600
 2411SOL     hw 9643   0.643   6.926   0.500  3.1205  0.8984 -0.0692
 2411SOL     vw 9644   0.618   6.930   0.584  0.2926 -0.0598 -0.7459
 2412SOL     ow 9645   1.016   3.341   6.151 -0.1769 -0.4454 -0.9570
 2412SOL     hw 9646   0.956   3.334   6.225  1.8988 -2.6268  0.7039
 2412SOL     hw 9647   1.038   3.433   6.145 -0.9019 -0.1405  0.7261
 2412SOL     vw 9648   1.011   3.352   6.160  0.0013 -0.6930 -0.5159
 2413SOL     ow 9649   3.204   5.847   6.023 -0.4175  0.0142  0.2262
 2413SOL     hw 9650   3.257   5.799   5.959 -1.0841  2.3807 -2.2769
 2413SOL     hw 9651   3.123   5.869   5.976 -1.3118  1.2011  2.1600
 2413SOL     vw 9652   3.200   5.843   6.009 -0.6235  0.4828  0.1512
 2414SOL     ow 9653   3.859   3.274   0.895  0.3442  0.1003 -0.3633
 2414SOL     hw 9654   3.859   3.179   0.901  0.6502  0.0638 -0.8499
 2414SOL     hw 9655   3.818   3.293   0.810  0.0973  0.4083 -0.1765
 2414SOL     vw 9656   3.854   3.264   0.884  0.3520  0.1363 -0.4028
 2415SOL     ow 9657   3.590   0.139   0.357 -0.3792 -0.3053  0.0997
 2415SOL     hw 9658   3.670   0.182   0.386 -0.3677  1.6068 -2.4581
 2415SOL     hw 9659   3.617   0.049   0.337  0.8693  0.0211  0.2535
 2415SOL     vw 9660   3.604   0.132   0.358 -0.2130 -0.0100 -0.2175
 2416SOL     ow 9661   6.043   2.032   4.221 -0.4597 -0.4070  0.6091
 2416SOL     hw 9662   6.068   2.069   4.306  1.2135 -0.3881  0.1507
 2416SOL     hw 9663   6.113   1.969   4.201  1.5802  2.4847 -2.5694
 2416SOL     vw 9664   6.056   2.029   4.230  0.0303 -0.0229  0.1295
 2417SOL     ow 9665   4.957   4.824   5.840 -0.1587 -0.0265 -0.2202
 2417SOL     hw 9666   4.868   4.859   5.835 -0.2677 -0.2391  0.2365
 2417SOL     hw 9667   5.013   4.895   5.806 -0.6164 -0.4016 -1.8820
 2417SOL     vw 9668   4.953   4.838   5.835 -0.2334 -0.1040 -0.3791
 2418SOL     ow 9669   2.345   2.778   2.049 -0.6546  0.0976  0.2480
 2418SOL     hw 9670   2.421   2.725   2.071  0.2590  1.3130  0.1363
 2418SOL     hw 9671   2.275   2.715   2.032  0.2357 -1.0320  0.6721
 2418SOL     vw 9672   2.346   2.763   2.050 -0.4165  0.1087  0.2892
 2419SOL     ow 9673   2.500   0.133   0.679  0.1986 -0.0798  0.6121
 2419SOL     hw 9674   2.515   0.053   0.729 -1.4780 -0.5840  0.3527
 2419SOL     hw 9675   2.543   0.116   0.595 -1.1555 -1.2232  0.1122
 2419SOL     vw 9676   2.508   0.120   0.675 -0.2012 -0.2971  0.5119
 2420SOL     ow 9677   5.382   3.595   5.230 -0.3561 -0.0341  0.3896
 2420SOL     hw 9678   5.331   3.583   5.309  2.9633 -1.8890  2.4980
 2420SOL     hw 9679   5.469   3.621   5.261  1.1164 -0.8551 -2.6147
 2420SOL     vw 9680   5.387   3.597   5.244  0.2761 -0.3871  0.2713
 2421SOL     ow 9681   1.095   6.113   1.519  0.4700 -0.5530 -0.5216
 2421SOL     hw 9682   1.006   6.082   1.503 -0.0341  0.0138  0.9533
 2421SOL     hw 9683   1.149   6.034   1.518 -0.0952 -0.9383 -1.1006
 2421SOL     vw 9684   1.090   6.098   1.517  0.3289 -0.5291 -0.4033
 2422SOL     ow 9685   1.459   3.907   0.977 -0.0285 -0.3539 -0.7451
 2422SOL     hw 9686   1.389   3.898   0.912  0.4480  0.2323 -1.3546
 2422SOL     hw 9687   1.415   3.898   1.061 -0.4773 -2.4815 -1.1362
 2422SOL     vw 9688   1.444   3.905   0.979 -0.0249 -0.5573 -0.8771
 2423SOL     ow 9689   1.763   6.788   5.528 -0.2205 -0.4468  0.3346
 2423SOL     hw 9690   1.787   6.715   5.584 -0.9379 -0.8945  0.0780
 2423SOL     hw 9691   1.791   6.762   5.440  2.4217  0.9492  0.6567
 2423SOL     vw 9692   1.770   6.775   5.524  0.0334 -0.3216  0.3431
 2424SOL     ow 9693   2.177   7.170   5.693  0.4376 -0.1076  0.1028
 2424SOL     hw 9694   2.117   7.198   5.624 -0.3656  0.2762  0.9282
 2424SOL     hw 9695   2.120   7.150   5.768  1.0857 -2.6553  0.0032
 2424SOL     vw 9696   2.162   7.171   5.694  0.4171 -0.3929  0.1986
 2425SOL     ow 9697   0.207   3.638   3.364  0.3583  0.5539 -0.3992
 2425SOL     hw 9698   0.238   3.691   3.291  0.1306  1.6071  0.2406
 2425SOL     hw 9699   0.260   3.558   3.360  2.8294  2.0122  0.2949
 2425SOL     vw 9700   0.218   3.635   3.354  0.6543  0.8851 -0.2233
 2426SOL     ow 9701   3.204   3.562   3.326  0.1839 -0.2641 -0.3203
 2426SOL     hw 9702   3.160   3.546   3.242 -2.5433 -0.2524  1.0161
 2426SOL     hw 9703   3.280   3.615   3.303 -0.3247 -0.4858 -2.8024
 2426SOL     vw 9704   3.208   3.567   3.312 -0.2429 -0.2917 -0.4715
 2427SOL     ow 9705   2.052   2.603   0.152 -0.4673 -0.1172  0.4480
 2427SOL     hw 9706   2.105   2.552   0.214 -1.4928  1.4554  2.7525
 2427SOL     hw 9707   2.042   2.689   0.193 -3.2385  0.2479 -0.7287
 2427SOL     vw 9708   2.058   2.607   0.166 -0.9682  0.1386  0.5968
 2428SOL     ow 9709   5.524   5.669   4.042 -0.1061 -0.3874 -0.5629
 2428SOL     hw 9710   5.564   5.753   4.019  0.8919 -0.8402 -0.4936
 2428SOL     hw 9711   5.513   5.673   4.137 -2.2982  0.6250 -0.7953
 2428SOL     vw 9712   5.527   5.681   4.052 -0.2637 -0.3138 -0.5844
 2429SOL     ow 9713   6.468   0.576   1.225  0.8622 -0.1290 -0.2716
 2429SOL     hw 9714   6.374   0.589   1.235  1.0879  0.6447  1.0579
 2429SOL     hw 9715   6.477   0.484   1.198 -0.1939 -0.7429  1.3526
 2429SOL     vw 9716   6.457   0.566   1.223  0.7527 -0.1079  0.1181
 2430SOL     ow 9717   2.053   4.460   1.527  0.2082 -0.4133 -0.2529
 2430SOL     hw 9718   2.012   4.445   1.612 -1.5853  0.5565 -0.8937
 2430SOL     hw 9719   2.087   4.549   1.531 -0.7379 -0.0077 -0.8471
 2430SOL     vw 9720   2.052   4.470   1.539 -0.1534 -0.2315 -0.4159
 2431SOL     ow 9721   1.558   5.723   3.988 -0.2551  0.3170  0.1998
 2431SOL     hw 9722   1.630   5.724   3.926  0.7363 -0.0212  1.3118
 2431SOL     hw 9723   1.506   5.647   3.964 -0.2707  0.5849 -0.6320
 2431SOL     vw 9724   1.560   5.713   3.977 -0.1264  0.3078  0.2367
 2432SOL     ow 9725   1.603   5.877   6.642 -0.1282 -0.0820 -0.0683
 2432SOL     hw 9726   1.610   5.784   6.618 -0.3648 -0.5387  1.5444
 2432SOL     hw 9727   1.510   5.898   6.632  0.0936  0.3489 -1.5866
 2432SOL     vw 9728   1.592   5.867   6.637 -0.1302 -0.0856 -0.0560
 2433SOL     ow 9729   1.725   3.044   3.076 -0.3191  0.4072 -0.2335
 2433SOL     hw 9730   1.652   3.004   3.029  0.7076 -1.3566 -0.4429
 2433SOL     hw 9731   1.753   3.117   3.020 -2.6083  1.9044  0.4324
 2433SOL     vw 9732   1.719   3.048   3.062 -0.4858  0.3721 -0.1732
 2434SOL     ow 9733   4.968   0.290   6.023  0.5072 -0.0364 -0.3328
 2434SOL     hw 9734   5.022   0.326   6.093 -0.5200 -0.6204  0.7869
 2434SOL     hw 9735   4.886   0.264   6.066 -1.0520  1.6011 -2.1051
 2434SOL     vw 9736   4.964   0.291   6.038  0.1662  0.1025 -0.4189
 2435SOL     ow 9737   0.493   2.544   7.132  0.2677 -0.5097  1.0134
 2435SOL     hw 9738   0.462   2.564   7.044 -0.8044 -1.6811  1.0863
 2435SOL     hw 9739   0.588   2.539   7.125  0.1730 -0.7956 -0.1238
 2435SOL     vw 9740   0.501   2.546   7.120  0.1138 -0.7020  0.8733
 2436SOL     ow 9741   5.617   1.718   5.094 -0.7390  0.6221  0.1425
 2436SOL     hw 9742   5.607   1.813   5.088 -0.7374  0.6814  1.0189
 2436SOL     hw 9743   5.561   1.683   5.024 -1.0700  1.2483  0.0930
 2436SOL     vw 9744   5.608   1.726   5.084 -0.7825  0.7125  0.2518
 2437SOL     ow 9745   4.194   3.391   5.528 -0.4182  0.6361 -0.0157
 2437SOL     hw 9746   4.154   3.304   5.529  1.1273 -0.1821 -2.2097
 2437SOL     hw 9747   4.171   3.428   5.613 -0.7648 -2.0810  1.1868
 2437SOL     vw 9748   4.186   3.384   5.540 -0.2599  0.1698 -0.1464
 2438SOL     ow 9749   3.592   3.656   4.145 -0.1250  0.1840 -0.2379
 2438SOL     hw 9750   3.595   3.746   4.114 -1.8131 -0.6556 -3.2728
 2438SOL     hw 9751   3.632   3.605   4.074  2.6629 -1.3933  2.2257
 2438SOL     vw 9752   3.598   3.661   4.132  0.0201 -0.1349 -0.3130
 2439SOL     ow 9753   4.903   7.027   3.290  0.5794 -0.6070  0.2820
 2439SOL     hw 9754   4.947   7.105   3.256  1.9131 -1.5468 -0.2067
 2439SOL     hw 9755   4.963   6.955   3.271 -0.9760 -1.8855  0.0089
 2439SOL     vw 9756   4.916   7.028   3.283  0.5503 -0.8998  0.1814
 2440SOL     ow 9757   5.852   3.964   6.134  0.1305  0.2952 -0.1226
 2440SOL     hw 9758   5.860   4.039   6.193  2.4481  0.7392 -0.8901
 2440SOL     hw 9759   5.931   3.912   6.151  0.1012 -0.3463 -1.7949
 2440SOL     vw 9760   5.864   3.967   6.144  0.4325  0.2692 -0.4447
 2441SOL     ow 9761   6.441   0.452   3.466  0.5010  0.5104 -0.4985
 2441SOL     hw 9762   6.403   0.479   3.382 -3.6010  0.1344  1.0000
 2441SOL     hw 9763   6.479   0.532   3.502  1.3223  0.9227 -2.1997
 2441SOL     vw 9764   6.441   0.467   3.459  0.0684  0.5152 -0.5252
 2442SOL     ow 9765   1.394   1.391   1.345  0.0465 -0.8527  0.2798
 2442SOL     hw 9766   1.305   1.426   1.350 -0.0726  0.1786 -4.1723
 2442SOL     hw 9767   1.383   1.297   1.335 -0.4844 -0.8310  0.6608
 2442SOL     vw 9768   1.381   1.383   1.344 -0.0393 -0.7136 -0.2573
 2443SOL     ow 9769   6.792   5.255   3.595 -0.1922 -0.1750 -0.0485
 2443SOL     hw 9770   6.852   5.213   3.534  0.3069 -0.4017  0.5818
 2443SOL     hw 9771   6.849   5.308   3.651 -0.6161 -0.1345  0.3470
 2443SOL     vw 9772   6.807   5.257   3.594 -0.1822 -0.1996  0.0868
 2444SOL     ow 9773   5.082   5.362   5.002  0.8201 -0.0778  0.4942
 2444SOL     hw 9774   5.164   5.315   5.017  0.1968 -1.7724 -1.0531
 2444SOL     hw 9775   5.015   5.308   5.044  0.3245  0.5741  0.5615
 2444SOL     vw 9776   5.084   5.349   5.010  0.6723 -0.2153  0.2990
 2445SOL     ow 9777   2.349   2.506   1.690  0.2788  0.0606  0.2791
 2445SOL     hw 9778   2.346   2.418   1.652  0.1419 -0.3498  1.1993
 2445SOL     hw 9779   2.273   2.509   1.748 -0.4219  1.2438 -0.6704
 2445SOL     vw 9780   2.339   2.495   1.693  0.1682  0.1626  0.2753
 2446SOL     ow 9781   0.764   6.043   5.545  0.2728 -0.1276  0.2546
 2446SOL     hw 9782   0.805   6.125   5.572  0.4260  0.2067 -0.9660
 2446SOL     hw 9783   0.780   6.037   5.451  1.5451 -2.2864  0.5437
 2446SOL     vw 9784   0.771   6.053   5.536  0.4609 -0.3681  0.1318
 2447SOL     ow 9785   3.435   2.993   7.151  0.0599  0.0057  0.6798
 2447SOL     hw 9786   3.398   3.056   7.213  0.1217 -0.2121  0.9413
 2447SOL     hw 9787   3.399   2.909   7.178 -1.0702  0.0889 -0.4693
 2447SOL     vw 9788   3.425   2.990   7.163 -0.0811 -0.0122  0.5624
 2448SOL     ow 9789   6.114   0.956   5.042 -0.2646 -0.1543 -0.2668
 2448SOL     hw 9790   6.200   0.997   5.039  0.4535 -1.2706  2.2339
 2448SOL     hw 9791   6.127   0.870   5.003 -0.3973 -0.0919 -0.4489
 2448SOL     vw 9792   6.127   0.950   5.037 -0.1872 -0.2934  0.0393
 2449SOL     ow 9793   1.432   4.873   0.445  0.2462 -0.1540 -0.1575
 2449SOL     hw 9794   1.406   4.934   0.376 -1.8425  0.2204  0.8862
 2449SOL     hw 9795   1.485   4.926   0.505 -1.6101  0.7379  0.7757
 2449SOL     vw 9796   1.436   4.888   0.444 -0.2743  0.0131  0.1033
 2450SOL     ow 9797   3.290   2.240   0.791 -0.1894  0.3078  0.7361
 2450SOL     hw 9798   3.365   2.261   0.734 -0.1534 -1.7654 -0.0668
 2450SOL     hw 9799   3.221   2.214   0.730 -1.6763  2.2613  1.4611
 2450SOL     vw 9800   3.291   2.240   0.775 -0.3809  0.2921  0.7258
 2451SOL     ow 9801   1.439   1.747   4.765  0.1772  0.9971  0.7096
 2451SOL     hw 9802   1.372   1.679   4.763  0.7247  0.4849 -1.0735
 2451SOL     hw 9803   1.437   1.779   4.856 -1.3359 -0.1197  1.1092
 2451SOL     vw 9804   1.429   1.743   4.777  0.0499  0.7821  0.5274
 2452SOL     ow 9805   5.717   7.062   4.238  0.2747 -0.2912  0.3610
 2452SOL     hw 9806   5.679   7.107   4.314  1.5158  0.6782  0.4549
 2452SOL     hw 9807   5.725   6.971   4.266 -1.0071 -0.3272  0.6939
 2452SOL     vw 9808   5.713   7.056   4.252  0.2697 -0.1681  0.4172
 2453SOL     ow 9809   4.812   3.181   6.212 -0.5049 -0.0724  1.0143
 2453SOL     hw 9810   4.776   3.157   6.127  0.1687 -2.4721  1.3461
 2453SOL     hw 9811   4.752   3.249   6.244  1.2226  3.6629 -2.7945
 2453SOL     vw 9812   4.799   3.187   6.205 -0.1881  0.1038  0.5558
 2454SOL     ow 9813   3.185   2.068   4.176  0.3944  0.6207  0.0379
 2454SOL     hw 9814   3.263   2.037   4.222  0.2612 -0.1174 -0.2226
 2454SOL     hw 9815   3.116   2.067   4.243 -0.2557 -2.2491 -0.5306
 2454SOL     vw 9816   3.186   2.064   4.191  0.2910  0.1447 -0.0713
 2455SOL     ow 9817   5.482   0.251   1.632  0.4581 -0.0958  0.1616
 2455SOL     hw 9818   5.466   0.275   1.541 -0.3401  0.5071  0.4518
 2455SOL     hw 9819   5.425   0.175   1.647  0.5580 -0.1693  0.1713
 2455SOL     vw 9820   5.473   0.244   1.622  0.3660 -0.0260  0.2012
 2456SOL     ow 9821   5.702   2.936   2.811  0.7474 -0.6178  0.1238
 2456SOL     hw 9822   5.709   2.859   2.867  0.3071  0.0410  1.1088
 2456SOL     hw 9823   5.626   2.984   2.846  1.7680  0.8983  0.3274
 2456SOL     vw 9824   5.693   2.932   2.823  0.8242 -0.3309  0.2805
 2457SOL     ow 9825   2.952   7.221   4.295 -0.2294  0.4511  0.0472
 2457SOL     hw 9826   2.859   7.213   4.276 -0.1575 -1.5414  0.3031
 2457SOL     hw 9827   2.995   7.166   4.229  0.5193 -1.0827  1.7405
 2457SOL     vw 9828   2.946   7.213   4.284 -0.1211 -0.0142  0.3042
 2458SOL     ow 9829   0.446   6.373   1.689 -0.2482 -0.7148 -0.5683
 2458SOL     hw 9830   0.472   6.285   1.716 -1.4821 -0.4744  1.7026
 2458SOL     hw 9831   0.350   6.373   1.699 -0.3913  0.5360 -1.7052
 2458SOL     vw 9832   0.437   6.361   1.694 -0.4298 -0.5183 -0.4187
 2459SOL     ow 9833   6.304   1.320   7.230  0.1066 -0.2992 -0.5141
 2459SOL     hw 9834   6.341   1.353   7.312  0.0967 -1.3418 -0.0838
 2459SOL     hw 9835   6.289   1.399   7.177 -2.7247  0.7721  1.6137
 2459SOL     vw 9836   6.307   1.335   7.234 -0.2680 -0.2955 -0.1766
 2460SOL     ow 9837   4.264   3.716   3.193  0.2394  0.1058 -0.4052
 2460SOL     hw 9838   4.331   3.652   3.169  0.4249  0.2141 -0.1775
 2460SOL     hw 9839   4.186   3.663   3.210  1.0606 -0.3859  2.4208
 2460SOL     vw 9840   4.263   3.700   3.192  0.3719  0.0551 -0.0024
 2461SOL     ow 9841   5.245   0.241   3.224  0.2670  0.0957  0.5673
 2461SOL     hw 9842   5.182   0.302   3.260 -2.1418 -0.4657 -2.3642
 2461SOL     hw 9843   5.319   0.295   3.196 -1.5159  1.6809 -1.3451
 2461SOL     vw 9844   5.247   0.256   3.225 -0.2859  0.2308 -0.0718
 2462SOL     ow 9845   2.575   0.297   2.764  0.6774 -0.5014  0.2218
 2462SOL     hw 9846   2.603   0.215   2.723  1.7276 -0.8748  1.6229
 2462SOL     hw 9847   2.622   0.365   2.716 -1.5687 -0.4747 -2.1707
 2462SOL     vw 9848   2.585   0.295   2.752  0.5196 -0.5471  0.0912
 2463SOL     ow 9849   5.599   6.909   3.949 -0.1349 -0.8088  0.5580
 2463SOL     hw 9850   5.611   6.816   3.931 -1.9376 -1.2187  1.2571
 2463SOL     hw 9851   5.680   6.935   3.994  0.6471 -1.8752 -0.1841
 2463SOL     vw 9852   5.611   6.900   3.953 -0.2697 -1.0035  0.5523
 2464SOL     ow 9853   0.131   3.787   4.580  0.3862  0.3340 -0.1594
 2464SOL     hw 9854   0.096   3.723   4.518  1.9895  0.4489 -1.2147
 2464SOL     hw 9855   0.163   3.735   4.653  2.2715 -0.1687 -1.2995
 2464SOL     vw 9856   0.130   3.772   4.582  0.8464  0.2830 -0.4489
 2465SOL     ow 9857   7.139   4.656   1.739 -0.0238 -0.5555 -0.5319
 2465SOL     hw 9858   7.188   4.720   1.688 -0.8788  0.2376 -0.3809
 2465SOL     hw 9859   7.157   4.572   1.696  0.7183 -0.1543 -1.0232
 2465SOL     vw 9860   7.147   4.653   1.727 -0.0389 -0.3979 -0.5769
 2466SOL     ow 9861   6.670   6.171   0.206 -0.0254  0.0627  0.3977
 2466SOL     hw 9862   6.725   6.220   0.145  0.6785  0.4602  1.3276
 2466SOL     hw 9863   6.699   6.199   0.292 -0.3425 -1.1928  0.9410
 2466SOL     vw 9864   6.681   6.181   0.209  0.0260 -0.0503  0.5921
 2467SOL     ow 9865   0.854   0.917   3.957 -0.1019 -0.9958 -0.3060
 2467SOL     hw 9866   0.885   0.907   3.867  1.7575 -1.7300  0.3477
 2467SOL     hw 9867   0.764   0.886   3.956  0.1845 -1.8695 -1.7442
 2467SOL     vw 9868   0.846   0.911   3.945  0.1812 -1.2080 -0.4095
 2468SOL     ow 9869   3.127   0.177   4.703 -0.4132 -0.3598 -0.2632
 2468SOL     hw 9870   3.079   0.185   4.786 -1.9119  0.6568 -1.1808
 2468SOL     hw 9871   3.169   0.091   4.708 -1.0061 -0.6024  1.2621
 2468SOL     vw 9872   3.126   0.167   4.715 -0.6891 -0.2577 -0.1829
 2469SOL     ow 9873   2.757   4.493   0.337 -0.4568  0.1111 -0.0913
 2469SOL     hw 9874   2.826   4.520   0.277 -1.5547  2.4474 -0.4073
 2469SOL     hw 9875   2.796   4.501   0.424  0.4779 -1.2442 -0.3556
 2469SOL     vw 9876   2.771   4.497   0.340 -0.4784  0.2408 -0.1678
 2470SOL     ow 9877   4.428   1.342   5.592  0.7888  0.2387 -0.5239
 2470SOL     hw 9878   4.395   1.273   5.648  0.7609  0.7608  0.1142
 2470SOL     hw 9879   4.411   1.423   5.640  0.8967  0.6857 -1.2157
 2470SOL     vw 9880   4.422   1.344   5.606  0.7992  0.3665 -0.5312
 2471SOL     ow 9881   4.074   1.933   6.082 -0.0294 -0.8926  0.1522
 2471SOL     hw 9882   4.034   1.880   6.013 -1.1151 -1.5078  1.2215
 2471SOL     hw 9883   4.000   1.977   6.125  0.5742 -0.8417  1.1832
 2471SOL     vw 9884   4.059   1.932   6.079 -0.0932 -0.9671  0.4294
 2472SOL     ow 9885   4.046   5.994   0.729  0.1764 -0.1897  0.1905
 2472SOL     hw 9886   4.064   5.902   0.750  4.2088 -0.2101 -2.3118
 2472SOL     hw 9887   4.015   5.992   0.638  1.2576  0.9397 -0.2257
 2472SOL     vw 9888   4.044   5.982   0.720  0.8509 -0.0436 -0.1946
 2473SOL     ow 9889   5.112   4.735   3.250 -0.0244 -0.1119  0.7808
 2473SOL     hw 9890   5.177   4.674   3.217  0.0738 -0.0718  0.9002
 2473SOL     hw 9891   5.047   4.742   3.179 -0.5133 -1.0523  1.1223
 2473SOL     vw 9892   5.112   4.728   3.236 -0.0761 -0.2308  0.8416
 2474SOL     ow 9893   3.736   2.842   7.136  0.4402 -0.2185 -0.1673
 2474SOL     hw 9894   3.784   2.777   7.084  0.1880 -0.7138  0.2109
 2474SOL     hw 9895   3.766   2.828   7.226 -0.0412 -0.1988 -0.0006
 2474SOL     vw 9896   3.747   2.832   7.141  0.3434 -0.2813 -0.0956
 2475SOL     ow 9897   1.899   2.660   6.261  0.3804 -0.3496 -0.0451
 2475SOL     hw 9898   1.827   2.723   6.257  1.2468  0.6286 -0.8252
 2475SOL     hw 9899   1.898   2.617   6.175 -0.8389 -2.1779  0.8191
 2475SOL     vw 9900   1.890   2.663   6.249  0.3338 -0.4617 -0.0341
 2476SOL     ow 9901   2.888   0.803   1.024 -0.1378  0.8736  0.0329
 2476SOL     hw 9902   2.808   0.805   0.971 -1.1378 -1.3148  1.3140
 2476SOL     hw 9903   2.857   0.813   1.114  0.9452 -0.5196  0.5969
 2476SOL     vw 9904   2.873   0.804   1.029 -0.1268  0.4010  0.2763
 2477SOL     ow 9905   4.550   5.267   2.558  0.5381  0.0654 -0.3386
 2477SOL     hw 9906   4.529   5.201   2.492 -0.4336 -1.0438  1.0044
 2477SOL     hw 9907   4.537   5.351   2.514 -0.1632 -0.6339 -1.5246
 2477SOL     vw 9908   4.545   5.269   2.544  0.3173 -0.1731 -0.3181
 2478SOL     ow 9909   1.090   7.135   5.722  0.4586 -0.9195 -0.9601
 2478SOL     hw 9910   1.023   7.191   5.681  0.6487 -0.3173 -0.4678
 2478SOL     hw 9911   1.113   7.181   5.803  0.2162 -1.9967 -0.2620
 2478SOL     vw 9912   1.084   7.148   5.727  0.4517 -0.9820 -0.8028
 2479SOL     ow 9913   4.144   5.009   1.774  0.2540 -0.0224  0.3372
 2479SOL     hw 9914   4.223   4.986   1.823  0.3034 -0.9627 -0.1575
 2479SOL     hw 9915   4.171   5.083   1.718  0.7097 -0.1738  0.3572
 2479SOL     vw 9916   4.158   5.016   1.773  0.3202 -0.1664  0.2746
 2480SOL     ow 9917   0.851   6.889   6.018 -0.1034 -0.4621  0.6467
 2480SOL     hw 9918   0.912   6.861   5.949 -0.3483 -2.0604  1.0342
 2480SOL     hw 9919   0.905   6.893   6.097  0.6252  3.2380  0.1407
 2480SOL     vw 9920   0.866   6.886   6.019 -0.0396 -0.1848  0.6311
 2481SOL     ow 9921   2.988   3.818   3.942 -0.5814 -0.7945  0.1900
 2481SOL     hw 9922   2.963   3.865   4.021  0.7935  1.3606 -0.5608
 2481SOL     hw 9923   3.050   3.751   3.971 -1.3677 -1.1490  1.1000
 2481SOL     vw 9924   2.992   3.815   3.956 -0.5037 -0.5568  0.2110
 2482SOL     ow 9925   1.383   2.448   6.573  0.0267  0.1064  0.0082
 2482SOL     hw 9926   1.423   2.467   6.488 -1.0415  0.8461 -0.3531
 2482SOL     hw 9927   1.292   2.425   6.551 -0.3423  0.5979  0.9697
 2482SOL     vw 9928   1.376   2.447   6.559 -0.1629  0.2688  0.0875
 2483SOL     ow 9929   6.975   5.447   3.715 -0.0852 -0.6502 -0.4743
 2483SOL     hw 9930   7.027   5.487   3.785  0.1421 -1.7678  0.0248
 2483SOL     hw 9931   7.009   5.486   3.634  1.3669 -1.1445 -0.1350
 2483SOL     vw 9932   6.987   5.457   3.713  0.1366 -0.8628 -0.3635
 2484SOL     ow 9933   0.595   5.625   3.607 -0.6691  0.8060  0.2056
 2484SOL     hw 9934   0.628   5.540   3.578 -2.2009 -0.0260  0.8218
 2484SOL     hw 9935   0.659   5.654   3.672 -0.5106 -0.2130  0.5247
 2484SOL     vw 9936   0.608   5.618   3.611 -0.8503  0.5620  0.3290
 2485SOL     ow 9937   0.580   1.823   2.695 -0.6301 -0.4854  0.3964
 2485SOL     hw 9938   0.544   1.894   2.642  2.5421  0.6147 -0.4842
 2485SOL     hw 9939   0.605   1.755   2.633  0.1123 -0.5948  0.7988
 2485SOL     vw 9940   0.578   1.824   2.680 -0.1136 -0.3547  0.3333
 2486SOL     ow 9941   5.951   3.787   1.422 -0.2775  0.2350  0.2342
 2486SOL     hw 9942   5.962   3.694   1.437  0.9390  0.0653 -1.3627
 2486SOL     hw 9943   5.928   3.794   1.329 -1.9109  1.4461  0.6934
 2486SOL     vw 9944   5.949   3.776   1.411 -0.3326  0.3723  0.0840
 2487SOL     ow 9945   5.022   3.343   6.207 -0.0173  0.3137 -0.3490
 2487SOL     hw 9946   4.950   3.282   6.221  0.3071  0.4295  2.6969
 2487SOL     hw 9947   5.012   3.408   6.278  3.0294  0.3183  0.2328
 2487SOL     vw 9948   5.011   3.344   6.218  0.4275  0.3296  0.1295
 2488SOL     ow 9949   4.644   0.205   4.580 -0.0217 -0.4355 -0.1125
 2488SOL     hw 9950   4.593   0.133   4.543  0.0219 -0.2171 -0.6091
 2488SOL     hw 9951   4.612   0.283   4.535  1.0155 -0.3379 -0.7230
 2488SOL     vw 9952   4.633   0.206   4.569  0.1209 -0.3938 -0.2584
 2489SOL     ow 9953   6.975   4.924   2.801 -0.5399 -0.3990 -0.4371
 2489SOL     hw 9954   6.907   4.883   2.748  1.0739 -1.1684 -2.0140
 2489SOL     hw 9955   6.931   4.998   2.844 -2.3543 -0.8969 -1.3472
 2489SOL     vw 9956   6.960   4.929   2.800 -0.5662 -0.5662 -0.7653
 2490SOL     ow 9957   0.417   6.167   3.532  0.5510  0.2317 -0.4066
 2490SOL     hw 9958   0.414   6.226   3.607  0.5399 -0.6285  0.2825
 2490SOL     hw 9959   0.510   6.156   3.513  0.5926 -0.3528  0.1289
 2490SOL     vw 9960   0.429   6.174   3.539  0.5550  0.0410 -0.2451
 2491SOL     ow 9961   2.708   2.315   6.665  0.0450  0.3319  1.0646
 2491SOL     hw 9962   2.706   2.219   6.659 -1.3773  0.4083 -0.2774
 2491SOL     hw 9963   2.768   2.333   6.737  1.9076 -1.5103  0.1122
 2491SOL     vw 9964   2.716   2.305   6.673  0.1030  0.0991  0.7615
 2492SOL     ow 9965   1.122   6.609   0.116  0.1488 -0.7178 -0.6266
 2492SOL     hw 9966   1.204   6.605   0.166 -0.8922 -0.0692  1.2393
 2492SOL     hw 9967   1.082   6.523   0.129  0.5740 -1.0809 -1.6474
 2492SOL     vw 9968   1.127   6.597   0.125  0.0675 -0.6804 -0.5151
 2493SOL     ow 9969   3.427   6.882   2.005  0.0564  0.1651 -0.4320
 2493SOL     hw 9970   3.443   6.792   1.978 -0.9617 -0.2282  0.2295
 2493SOL     hw 9971   3.371   6.918   1.936 -0.2704  0.0163 -0.2436
 2493SOL     vw 9972   3.422   6.875   1.992 -0.1210  0.0937 -0.3198
 2494SOL     ow 9973   2.119   0.189   1.136 -0.9522 -0.4113  0.1817
 2494SOL     hw 9974   2.104   0.195   1.230 -0.6134 -0.8932  0.2696
 2494SOL     hw 9975   2.045   0.138   1.103 -0.9089 -0.5121  0.2377
 2494SOL     vw 9976   2.107   0.183   1.144 -0.9017 -0.4882  0.2007
 2495SOL     ow 9977   4.401   1.577   5.738 -0.7204 -0.2544  0.0389
 2495SOL     hw 9978   4.451   1.650   5.701  0.1018 -1.6200 -1.6353
 2495SOL     hw 9979   4.425   1.577   5.831 -0.9541  1.7461  0.1553
 2495SOL     vw 9980   4.411   1.587   5.746 -0.6425 -0.1706 -0.1667
 2496SOL     ow 9981   4.403   5.921   1.260  0.4386 -0.3486 -0.0169
 2496SOL     hw 9982   4.412   5.906   1.354  0.4538  0.9119  0.2018
 2496SOL     hw 9983   4.357   5.844   1.228  4.4626 -3.1791  0.1762
 2496SOL     vw 9984   4.398   5.908   1.269  0.9713 -0.5555  0.0374
 2497SOL     ow 9985   3.499   1.619   5.079  0.1019  0.3516  0.1801
 2497SOL     hw 9986   3.433   1.688   5.083  0.4659  0.7348 -0.2719
 2497SOL     hw 9987   3.579   1.664   5.050  0.3487 -0.2551 -0.1014
 2497SOL     vw 9988   3.501   1.634   5.076  0.1823  0.3222  0.0832
 2498SOL     ow 9989   5.904   5.053   0.469  0.5506  0.5925 -0.4718
 2498SOL     hw 9990   5.851   4.982   0.433 -0.1168  1.5694 -1.4629
 2498SOL     hw 9991   5.871   5.063   0.559  0.0094  0.2753 -0.6293
 2498SOL     vw 9992   5.892   5.045   0.476  0.3912  0.6793 -0.6234
 2499SOL     ow 9993   4.232   3.001   0.055  0.1685 -0.4389 -0.7834
 2499SOL     hw 9994   4.244   3.039  -0.032 -2.7379  0.5942 -0.8416
 2499SOL     hw 9995   4.175   2.926   0.041  0.4981 -0.8838  0.1483
 2499SOL     vw 9996   4.226   2.996   0.042 -0.1717 -0.3613 -0.6680
 2500SOL     ow 9997   0.476   3.865   4.463 -0.2578  0.5143 -0.1639
 2500SOL     hw 9998   0.417   3.796   4.493 -0.1731  1.3266  2.0443
 2500SOL     hw 9999   0.421   3.921   4.408 -0.6551 -0.5412 -0.8874
 2500SOL     vw10000   0.461   3.863   4.460 -0.2990  0.4822  0.0319
 2501SOL     ow10001   4.519   1.244   0.067  0.3516 -0.1142  0.0105
 2501SOL     hw10002   4.545   1.203  -0.016 -0.0985  0.3607 -0.3763
 2501SOL     hw10003   4.431   1.210   0.084 -0.0912  0.7996 -0.3979
 2501SOL     vw10004   4.510   1.234   0.058  0.2339  0.0690 -0.0944
 2502SOL     ow10005   5.418   6.637   6.223 -0.2687  0.4549 -0.0059
 2502SOL     hw10006   5.336   6.597   6.252 -0.0793 -0.0383 -0.1559
 2502SOL     hw10007   5.390   6.716   6.176 -0.7176 -0.3280 -1.0798
 2502SOL     vw10008   5.403   6.642   6.221 -0.3028  0.2868 -0.1676
 2503SOL     ow10009   6.479   2.642   4.172  1.0135  0.6400  0.2311
 2503SOL     hw10010   6.461   2.732   4.148 -0.8202 -0.0421 -1.1517
 2503SOL     hw10011   6.432   2.630   4.255 -0.6135  0.3988 -0.6729
 2503SOL     vw10012   6.470   2.652   4.180  0.5567  0.5181 -0.0708
 2504SOL     ow10013   5.675   1.571   6.786  0.5824  0.2219 -0.0306
 2504SOL     hw10014   5.647   1.652   6.743  0.8262 -0.9981 -2.6658
 2504SOL     hw10015   5.698   1.512   6.714  0.5393 -2.1689  1.7905
 2504SOL     vw10016   5.674   1.574   6.771  0.6089 -0.2545 -0.1376
 2505SOL     ow10017   2.568   6.943   5.099 -0.1307  0.1820 -0.1554
 2505SOL     hw10018   2.644   6.900   5.137  1.2261  1.1183 -1.6972
 2505SOL     hw10019   2.603   7.022   5.059 -2.1146  1.2543  0.1149
 2505SOL     vw10020   2.582   6.948   5.099 -0.2133  0.4475 -0.3231
 2506SOL     ow10021   1.956   5.945   1.494 -0.1864  0.6401 -0.8544
 2506SOL     hw10022   1.993   6.026   1.529 -1.0096  1.1850 -1.2470
 2506SOL     hw10023   1.862   5.955   1.503 -0.3116 -0.1490 -1.1928
 2506SOL     vw10024   1.949   5.957   1.500 -0.3116  0.6077 -0.9509
 2507SOL     ow10025   1.255   6.599   4.294  0.5083 -0.1158  0.1622
 2507SOL     hw10026   1.297   6.517   4.319 -1.0833 -0.0949  3.3468
 2507SOL     hw10027   1.161   6.582   4.302 -0.0313  1.1474 -2.2975
 2507SOL     vw10028   1.248   6.586   4.298  0.2270  0.0539  0.2580
 2508SOL     ow10029   3.896   4.549   2.890 -0.7648 -0.0273  0.3903
 2508SOL     hw10030   3.960   4.509   2.831  0.6021  0.1082  1.7463
 2508SOL     hw10031   3.852   4.475   2.932 -1.9017 -0.1310 -0.8913
 2508SOL     vw10032   3.899   4.534   2.888 -0.7346 -0.0234  0.4001
 2509SOL     ow10033   4.958   5.241   4.804  0.3344  0.0010 -0.0649
 2509SOL     hw10034   4.979   5.155   4.841  3.1721  0.7543  0.3085
 2509SOL     hw10035   4.987   5.303   4.871  1.1386  1.2842 -1.5406
 2509SOL     vw10036   4.965   5.238   4.818  0.8149  0.2699 -0.2105
 2510SOL     ow10037   4.633   6.103   2.781 -0.1067 -0.2302  0.1820
 2510SOL     hw10038   4.650   6.018   2.821  0.3106 -1.5232 -2.4741
 2510SOL     hw10039   4.687   6.103   2.702 -3.8483  0.2019 -2.6867
 2510SOL     vw10040   4.642   6.092   2.776 -0.5450 -0.3438 -0.5469
 2511SOL     ow10041   2.988   3.063   2.291  0.0101  0.4086 -0.3377
 2511SOL     hw10042   3.034   3.116   2.356 -0.4736  0.6390 -0.1728
 2511SOL     hw10043   2.917   3.120   2.260 -1.8322 -0.8166  1.3591
 2511SOL     vw10044   2.985   3.078   2.296 -0.2970  0.2774 -0.0921
 2512SOL     ow10045   7.060   1.832   1.006 -0.1100 -0.3038  0.1556
 2512SOL     hw10046   7.079   1.884   1.084 -1.6538 -0.4920  0.7000
 2512SOL     hw10047   7.075   1.891   0.933 -0.5789  0.5207  0.7064
 2512SOL     vw10048   7.064   1.847   1.007 -0.3755 -0.2198  0.3001
 2513SOL     ow10049   3.556   0.905   0.152  0.5584 -0.0902  0.5655
 2513SOL     hw10050   3.534   0.868   0.237 -1.0400 -1.1305 -0.2566
 2513SOL     hw10051   3.626   0.849   0.119 -0.8759 -1.6006 -0.0543
 2513SOL     vw10052   3.562   0.893   0.159  0.1584 -0.4267  0.3752
 2514SOL     ow10053   0.354   2.688   0.765  0.2577  0.0837 -0.1531
 2514SOL     hw10054   0.269   2.651   0.746 -0.2270  1.0442  0.0794
 2514SOL     hw10055   0.350   2.778   0.731  1.3890 -0.0508 -0.6929
 2514SOL     vw10056   0.343   2.695   0.758  0.3430  0.1928 -0.1937
 2515SOL     ow10057   4.470   6.471   6.773 -0.0417  0.3401 -0.3676
 2515SOL     hw10058   4.457   6.406   6.842 -0.7656 -1.1760 -1.8688
 2515SOL     hw10059   4.388   6.470   6.723  0.5155  1.2690 -1.3451
 2515SOL     vw10060   4.457   6.462   6.775 -0.0637  0.2627 -0.6945
 2516SOL     ow10061   6.467   5.357   2.391 -0.6646 -0.0960  0.2993
 2516SOL     hw10062   6.422   5.288   2.341 -0.3089  0.7996 -1.3110
 2516SOL     hw10063   6.558   5.352   2.362 -0.4342  0.4032  0.9238
 2516SOL     vw10064   6.473   5.347   2.380 -0.5872  0.0880  0.1693
 2517SOL     ow10065   4.153   5.582   6.028 -0.5112  0.0747  0.5749
 2517SOL     hw10066   4.154   5.541   5.941  0.7498  0.1031  0.5669
 2517SOL     hw10067   4.061   5.607   6.041 -0.8021 -0.3368 -0.5547
 2517SOL     vw10068   4.141   5.580   6.018 -0.3834  0.0246  0.4249
 2518SOL     ow10069   5.661   0.755   2.252  0.0719 -0.0646  0.0703
 2518SOL     hw10070   5.678   0.755   2.346  3.0326  0.4502 -0.3781
 2518SOL     hw10071   5.747   0.743   2.212 -0.7708  1.8422 -2.5951
 2518SOL     vw10072   5.674   0.754   2.259  0.3512  0.2549 -0.3406
 2519SOL     ow10073   3.741   7.230   2.999 -0.3786 -0.5227 -0.3263
 2519SOL     hw10074   3.731   7.155   2.940  2.2611 -1.4478  0.2235
 2519SOL     hw10075   3.791   7.294   2.949 -0.3446 -0.2420  0.0604
 2519SOL     vw10076   3.747   7.228   2.985 -0.0259 -0.6077 -0.2027
 2520SOL     ow10077   4.865   4.963   0.197  0.0688  0.4141 -0.4597
 2520SOL     hw10078   4.901   4.903   0.132 -0.9649  0.8520 -1.4685
 2520SOL     hw10079   4.935   4.972   0.262 -0.2041 -2.8933  0.4754
 2520SOL     vw10080   4.879   4.957   0.197 -0.1037  0.0353 -0.4694
 2521SOL     ow10081   2.455   4.516   0.363  0.2401  0.3974  0.3916
 2521SOL     hw10082   2.430   4.454   0.431 -0.0085  0.0752  0.0051
 2521SOL     hw10083   2.383   4.580   0.361 -1.6902 -1.6352 -2.1225
 2521SOL     vw10084   2.442   4.517   0.372 -0.0473  0.0868  0.0089
 2522SOL     ow10085   5.115   4.178   1.518  0.3013 -0.1388  0.0165
 2522SOL     hw10086   5.147   4.239   1.451 -0.0845 -0.7069 -0.7088
 2522SOL     hw10087   5.020   4.193   1.521  0.0534 -1.3399 -0.8729
 2522SOL     vw10088   5.107   4.188   1.509  0.2177 -0.3719 -0.1966
 2523SOL     ow10089   2.363   1.398   6.343  0.0666  0.1295  0.1218
 2523SOL     hw10090   2.336   1.413   6.434 -0.2222  0.2212  0.0235
 2523SOL     hw10091   2.436   1.337   6.349  0.9673  1.2010  0.5137
 2523SOL     vw10092   2.369   1.392   6.356  0.1473  0.2829  0.1605
 2524SOL     ow10093   4.953   0.836   4.952 -0.2935  0.1494 -0.7402
 2524SOL     hw10094   4.997   0.874   4.876 -1.5946  1.7964 -0.7069
 2524SOL     hw10095   4.862   0.861   4.943 -1.2164 -2.7422 -0.5067
 2524SOL     vw10096   4.947   0.844   4.941 -0.5867 -0.0148 -0.7045
 2525SOL     ow10097   3.903   6.032   4.589 -0.4641 -0.0225 -0.1153
 2525SOL     hw10098   3.808   6.024   4.578 -0.1526 -2.4853 -1.6828
 2525SOL     hw10099   3.936   6.050   4.501  0.5284  1.3802  0.5037
 2525SOL     vw10100   3.895   6.034   4.576 -0.2922 -0.1626 -0.2403
 2526SOL     ow10101   2.169   0.091   2.681 -0.3493  0.3526  0.3127
 2526SOL     hw10102   2.101   0.038   2.723  0.4650  0.3601  1.7240
 2526SOL     hw10103   2.122   0.145   2.618 -1.3266 -1.3742 -0.5167
 2526SOL     vw10104   2.154   0.091   2.679 -0.3707  0.1258  0.3895
 2527SOL     ow10105   5.538   1.765   6.953  0.5166  0.6731 -0.3305
 2527SOL     hw10106   5.532   1.783   7.047  2.4787  0.8202 -0.1959
 2527SOL     hw10107   5.453   1.792   6.918 -0.5762 -0.1850  1.5079
 2527SOL     vw10108   5.526   1.771   6.961  0.6311  0.5793 -0.0701
 2528SOL     ow10109   7.158   1.930   0.085 -0.5791  0.4569  0.1440
 2528SOL     hw10110   7.088   1.936   0.150  1.8252 -0.8304  3.0623
 2528SOL     hw10111   7.169   1.836   0.070  1.0620  0.5711  0.4398
 2528SOL     vw10112   7.150   1.918   0.091 -0.0453  0.3021  0.5680
 2529SOL     ow10113   2.743   2.042   6.683  0.3293  0.4705 -0.6985
 2529SOL     hw10114   2.779   1.991   6.755 -0.3425  1.2564  0.2253
 2529SOL     hw10115   2.675   1.986   6.645 -2.7293  1.7254  2.3522
 2529SOL     vw10116   2.739   2.028   6.687 -0.1630  0.7398 -0.1740
 2530SOL     ow10117   7.152   6.413   6.542  0.1778  0.0001 -0.8427
 2530SOL     hw10118   7.158   6.335   6.597  1.7181 -0.0282 -0.9924
 2530SOL     hw10119   7.061   6.441   6.550  0.2126 -0.2951  1.3144
 2530SOL     vw10120   7.141   6.406   6.550  0.3858 -0.0427 -0.5777
 2531SOL     ow10121   5.818   4.082   2.139  0.1164 -0.3442  0.1903
 2531SOL     hw10122   5.748   4.111   2.081  0.4217  0.7172  0.3403
 2531SOL     hw10123   5.782   4.006   2.184 -1.0073  0.3130  0.4083
 2531SOL     vw10124   5.804   4.076   2.137  0.0086 -0.1175  0.2389
 2532SOL     ow10125   7.074   0.498   1.832 -0.8293 -0.2517 -0.1495
 2532SOL     hw10126   7.044   0.493   1.741 -1.7942  3.8847 -0.2601
 2532SOL     hw10127   6.994   0.498   1.884 -0.4052 -0.3798  0.5184
 2532SOL     vw10128   7.060   0.497   1.827 -0.9007  0.2771 -0.0760
 2533SOL     ow10129   2.574   1.732   0.442  0.1171  0.2094 -0.1052
 2533SOL     hw10130   2.569   1.645   0.402 -2.1892 -0.9159  2.3265
 2533SOL     hw10131   2.509   1.784   0.395 -1.4622 -0.6537  1.0127
 2533SOL     vw10132   2.565   1.727   0.430 -0.3957 -0.0530  0.3632
 2534SOL     ow10133   2.326   5.455   6.956  0.3154 -0.1281 -0.3063
 2534SOL     hw10134   2.262   5.515   6.993  0.1463 -0.6509  0.2579
 2534SOL     hw10135   2.329   5.477   6.863  0.3438  0.8285 -0.0872
 2534SOL     vw10136   2.318   5.465   6.948  0.2968 -0.0708 -0.2029
 2535SOL     ow10137   2.304   0.530   4.603  0.2785  0.0604  0.0346
 2535SOL     hw10138   2.226   0.510   4.656  0.9625 -2.2245  0.2919
 2535SOL     hw10139   2.271   0.542   4.514 -0.3671 -1.0003  0.1234
 2535SOL     vw10140   2.289   0.529   4.598  0.2836 -0.3810  0.0801
 2536SOL     ow10141   5.758   4.650   4.623 -0.0360  0.1121  0.3410
 2536SOL     hw10142   5.720   4.693   4.547 -0.1767  1.3388  1.0863
 2536SOL     hw10143   5.783   4.721   4.682  2.1405 -0.6932  0.5006
 2536SOL     vw10144   5.757   4.665   4.621  0.2327  0.1676  0.4609
 2537SOL     ow10145   3.772   2.486   5.271  0.0211  0.9411  0.3595
 2537SOL     hw10146   3.718   2.406   5.273 -0.7406  1.2278 -2.8321
 2537SOL     hw10147   3.757   2.527   5.356 -3.5456  0.1421  0.3116
 2537SOL     vw10148   3.763   2.481   5.282 -0.5500  0.8736 -0.0679
 2538SOL     ow10149   1.179   1.824   3.521 -0.4032  0.9973 -0.8190
 2538SOL     hw10150   1.208   1.868   3.601 -0.6508  0.9458 -0.6991
 2538SOL     hw10151   1.176   1.893   3.455  0.0377  0.9924 -0.8434
 2538SOL     vw10152   1.182   1.839   3.523 -0.3777  0.9898 -0.8065
 2539SOL     ow10153   0.215   6.908   2.615  0.0149  0.4000 -0.4182
 2539SOL     hw10154   0.276   6.964   2.566 -0.0264  0.8602  0.0421
 2539SOL     hw10155   0.226   6.821   2.577  1.8500  0.1989  0.4443
 2539SOL     vw10156   0.224   6.904   2.604  0.2516  0.4342 -0.2438
 2540SOL     ow10157   5.302   2.353   3.826  0.1337  0.0223 -0.2088
 2540SOL     hw10158   5.277   2.410   3.753 -1.9632 -1.2174 -0.5429
 2540SOL     hw10159   5.375   2.398   3.867 -0.4876  2.2204 -1.3337
 2540SOL     vw10160   5.308   2.366   3.821 -0.2251  0.1488 -0.4013
 2541SOL     ow10161   2.514   2.582   6.592 -0.3799 -0.0523 -0.2943
 2541SOL     hw10162   2.482   2.638   6.663 -0.2903  0.4790 -0.6738
 2541SOL     hw10163   2.446   2.588   6.524  0.7655  1.5713 -1.3679
 2541SOL     vw10164   2.501   2.590   6.592 -0.2171  0.2320 -0.4861
 2542SOL     ow10165   6.161   0.220   3.269  0.4589  0.3126  0.2803
 2542SOL     hw10166   6.241   0.175   3.243  0.2710 -1.2091  2.0956
 2542SOL     hw10167   6.159   0.299   3.215  2.7082 -0.0399 -0.4263
 2542SOL     vw10168   6.171   0.225   3.259  0.7308  0.0653  0.4267
 2543SOL     ow10169   2.420   3.879   1.948 -0.6347 -0.2175 -0.3149
 2543SOL     hw10170   2.471   3.806   1.982 -0.8090 -0.6738 -1.0237
 2543SOL     hw10171   2.485   3.940   1.913 -0.2690  1.2508  2.5917
 2543SOL     vw10172   2.435   3.877   1.948 -0.6094 -0.0840 -0.0250
 2544SOL     ow10173   1.829   5.031   5.458  0.7203 -0.2293 -0.4897
 2544SOL     hw10174   1.886   5.019   5.533  1.5920  1.0981 -0.9005
 2544SOL     hw10175   1.836   4.950   5.408  0.8665 -0.7541  0.3781
 2544SOL     vw10176   1.837   5.019   5.461  0.8546 -0.1233 -0.4294
 2545SOL     ow10177   5.035   3.322   5.898 -0.2714  0.8252  0.3476
 2545SOL     hw10178   5.097   3.341   5.827 -1.7713  0.0419 -1.2299
 2545SOL     hw10179   4.999   3.236   5.876 -0.0458  0.0734  2.6438
 2545SOL     vw10180   5.039   3.313   5.886 -0.4396  0.6226  0.4425
 2546SOL     ow10181   5.887   0.947   5.977  0.0832 -0.2138 -0.0885
 2546SOL     hw10182   5.918   0.989   6.057 -0.6408 -1.6154  0.9642
 2546SOL     hw10183   5.821   1.007   5.942  1.3601  1.0617 -0.4093
 2546SOL     vw10184   5.883   0.961   5.983  0.1564 -0.2304  0.0083
 2547SOL     ow10185   5.005   5.508   1.689 -0.3218  0.5046 -0.6079
 2547SOL     hw10186   4.935   5.565   1.656  0.0372  0.3713 -1.6195
 2547SOL     hw10187   5.001   5.431   1.633 -1.3458 -0.8907  1.2588
 2547SOL     vw10188   4.995   5.506   1.678 -0.4094  0.3030 -0.4951
 2548SOL     ow10189   4.368   6.517   0.395  0.4014  0.2176 -0.2515
 2548SOL     hw10190   4.451   6.500   0.440  0.6632 -2.0931 -1.4762
 2548SOL     hw10191   4.305   6.532   0.466  1.8619  2.4150  0.6938
 2548SOL     vw10192   4.370   6.517   0.410  0.6287  0.2027 -0.2884
 2549SOL     ow10193   2.574   3.787   0.711  0.1956 -0.1227  0.2086
 2549SOL     hw10194   2.551   3.814   0.799  0.2358  0.8589 -0.0694
 2549SOL     hw10195   2.531   3.702   0.699  0.5138 -0.4476  1.2955
 2549SOL     vw10196   2.565   3.779   0.721  0.2427 -0.0361  0.3153
 2550SOL     ow10197   4.106   3.504   4.988 -0.0114 -0.6902 -0.0016
 2550SOL     hw10198   4.052   3.571   4.945 -0.5511  0.0442  1.7212
 2550SOL     hw10199   4.177   3.487   4.926  0.8162  2.3427 -0.0633
 2550SOL     vw10200   4.108   3.511   4.974  0.0267 -0.1930  0.2174
 2551SOL     ow10201   7.198   5.753   2.727 -0.3703  0.6144 -0.6341
 2551SOL     hw10202   7.172   5.837   2.690 -1.0601  0.0216 -1.5563
 2551SOL     hw10203   7.222   5.699   2.651 -0.8097 -0.2967 -0.1511
 2551SOL     vw10204   7.198   5.757   2.712 -0.5193  0.4158 -0.6920
 2552SOL     ow10205   1.633   2.254   1.516 -0.2146 -0.0713  0.3656
 2552SOL     hw10206   1.695   2.272   1.445 -0.4658  1.3210  0.4681
 2552SOL     hw10207   1.591   2.171   1.491 -1.1943  0.9867 -1.7781
 2552SOL     vw10208   1.636   2.245   1.504 -0.3771  0.2520  0.0963
 2553SOL     ow10209   0.445   3.738   2.522 -0.1252 -0.1767 -0.5944
 2553SOL     hw10210   0.381   3.684   2.568  1.5214  0.0782  2.2642
 2553SOL     hw10211   0.398   3.820   2.505 -0.3742  0.4302  2.4515
 2553SOL     vw10212   0.430   3.742   2.526  0.0592 -0.0629  0.1847
 2554SOL     ow10213   0.283   7.099   3.952 -0.0695 -1.1301 -0.1107
 2554SOL     hw10214   0.209   7.147   3.913 -0.5446 -2.1963 -0.5541
 2554SOL     hw10215   0.360   7.136   3.909 -0.5280 -1.7105 -1.5145
 2554SOL     vw10216   0.284   7.110   3.941 -0.1927 -1.3473 -0.3544
 2555SOL     ow10217   3.311   3.735   4.152  0.3719 -0.2348  0.5100
 2555SOL     hw10218   3.389   3.680   4.151  0.9956  0.5184 -2.5649
 2555SOL     hw10219   3.249   3.689   4.095 -0.2834  0.6647  0.4802
 2555SOL     vw10220   3.313   3.722   4.145  0.3679 -0.0168  0.1004
 2556SOL     ow10221   5.883   0.678   1.883  0.4649  0.6150 -0.2897
 2556SOL     hw10222   5.879   0.592   1.926  1.4222  1.2067  1.0604
 2556SOL     hw10223   5.960   0.673   1.827  0.4510  0.5508 -0.3033
 2556SOL     vw10224   5.893   0.666   1.881  0.5894  0.6847 -0.1134
 2557SOL     ow10225   2.522   7.164   5.834  0.3870  0.4981 -0.2183
 2557SOL     hw10226   2.580   7.105   5.882 -0.2153 -0.1172 -0.2249
 2557SOL     hw10227   2.441   7.163   5.886  0.0521  0.5730 -0.7397
 2557SOL     vw10228   2.519   7.156   5.847  0.2632  0.4270 -0.2878
 2558SOL     ow10229   2.980   6.117   5.436  0.0679 -0.2074 -0.1824
 2558SOL     hw10230   2.916   6.099   5.367 -0.6990  0.9496  0.1847
 2558SOL     hw10231   3.041   6.179   5.396 -1.3930  1.8844  0.6355
 2558SOL     vw10232   2.979   6.123   5.422 -0.2261  0.2210 -0.0262
 2559SOL     ow10233   4.705   1.240   0.634 -0.1245 -0.2347  0.2890
 2559SOL     hw10234   4.693   1.149   0.608 -1.7798 -0.2269  0.8695
 2559SOL     hw10235   4.700   1.238   0.730  1.8592  0.2349  0.4383
 2559SOL     vw10236   4.703   1.228   0.643 -0.0813 -0.1717  0.3853
 2560SOL     ow10237   4.444   2.365   2.686  0.1872 -0.3953  0.2703
 2560SOL     hw10238   4.440   2.389   2.779  0.4603 -1.1184  0.4696
 2560SOL     hw10239   4.531   2.393   2.658 -0.5373  1.5157 -0.2553
 2560SOL     vw10240   4.455   2.372   2.695  0.1278 -0.2385  0.2273
 2561SOL     ow10241   0.634   5.769   6.436  0.4266 -0.1187 -0.0806
 2561SOL     hw10242   0.648   5.766   6.341 -0.4080 -0.9521 -0.1892
 2561SOL     hw10243   0.581   5.847   6.450 -0.0411 -0.3770 -0.3869
 2561SOL     vw10244   0.629   5.779   6.425  0.2548 -0.2627 -0.1352
 2562SOL     ow10245   0.233   3.084   5.193  0.4610 -0.0173 -0.5131
 2562SOL     hw10246   0.323   3.055   5.180  0.9005  1.7741 -1.8870
 2562SOL     hw10247   0.207   3.120   5.108 -1.4757 -0.2573 -0.0767
 2562SOL     vw10248   0.241   3.085   5.180  0.2634  0.1874 -0.6368
 2563SOL     ow10249   6.663   2.597   7.096  0.1303 -0.1148 -0.5147
 2563SOL     hw10250   6.757   2.600   7.080  0.4726 -0.2590  1.1950
 2563SOL     hw10251   6.647   2.670   7.156 -0.6441 -0.6974  0.0125
 2563SOL     vw10252   6.673   2.607   7.102  0.0734 -0.2105 -0.2196
 2564SOL     ow10253   0.051   3.743   1.898 -0.2137 -0.1442 -0.2459
 2564SOL     hw10254   0.104   3.803   1.845  1.3566 -0.9120  0.3599
 2564SOL     hw10255   0.106   3.725   1.974 -0.9596 -1.7461 -0.0549
 2564SOL     vw10256   0.066   3.749   1.901 -0.1049 -0.4569 -0.1408
 2565SOL     ow10257   0.262   4.175   4.565 -0.3260 -0.5731  0.0708
 2565SOL     hw10258   0.300   4.120   4.634  0.8112  2.0043  1.6462
 2565SOL     hw10259   0.269   4.264   4.599 -0.5243  0.7498 -3.0369
 2565SOL     vw10260   0.268   4.179   4.579 -0.2021 -0.0587 -0.1316
 2566SOL     ow10261   1.452   6.648   3.852  0.3086  0.2695 -0.8418
 2566SOL     hw10262   1.536   6.618   3.815 -0.4417 -0.9213 -1.6587
 2566SOL     hw10263   1.399   6.569   3.857 -0.9528  1.0956 -0.8297
 2566SOL     vw10264   1.456   6.634   3.847  0.0432  0.2213 -0.9480
 2567SOL     ow10265   1.638   2.347   4.342  0.5133 -0.3776 -0.7274
 2567SOL     hw10266   1.706   2.409   4.317  0.1062  0.2949 -0.2110
 2567SOL     hw10267   1.574   2.399   4.390  0.8007 -1.4454  0.8842
 2567SOL     vw10268   1.638   2.362   4.345  0.4975 -0.4299 -0.4468
 2568SOL     ow10269   0.243   5.010   1.085 -0.5291 -0.5416 -0.2966
 2568SOL     hw10270   0.245   4.978   1.175 -0.1375 -0.0355 -0.1214
 2568SOL     hw10271   0.199   4.940   1.036 -0.0496 -1.1683  0.1463
 2568SOL     vw10272   0.238   4.996   1.090 -0.4142 -0.5577 -0.2150
 2569SOL     ow10273   1.577   4.570   1.217 -0.1678  0.1209 -0.1492
 2569SOL     hw10274   1.486   4.559   1.243  0.5231 -1.1225  2.0062
 2569SOL     hw10275   1.593   4.501   1.152 -0.3130 -0.8459  0.8171
 2569SOL     vw10276   1.567   4.560   1.212 -0.0958 -0.1707  0.2627
 2570SOL     ow10277   5.755   4.421   6.521 -0.2480  0.2719  0.2813
 2570SOL     hw10278   5.847   4.439   6.498 -0.2856  0.8285  0.5391
 2570SOL     hw10279   5.761   4.358   6.593 -0.0377  0.8987  0.8221
 2570SOL     vw10280   5.768   4.415   6.527 -0.2253  0.4280  0.3867
 2571SOL     ow10281   4.137   3.647   6.329 -0.3737 -0.3440 -0.1073
 2571SOL     hw10282   4.192   3.703   6.273 -2.4748 -0.1169 -2.1024
 2571SOL     hw10283   4.131   3.564   6.281  0.1688 -1.2363  1.3046
 2571SOL     vw10284   4.144   3.643   6.315 -0.5794 -0.4317 -0.1843
 2572SOL     ow10285   5.761   2.675   1.592  0.3223  0.9719  0.0327
 2572SOL     hw10286   5.856   2.684   1.594  0.6257 -0.9028 -1.8010
 2572SOL     hw10287   5.736   2.702   1.504 -0.6483  0.1868  0.0468
 2572SOL     vw10288   5.770   2.679   1.580  0.2344  0.6211 -0.2074
 2573SOL     ow10289   3.448   3.035   6.054 -0.1355 -0.0698  0.2021
 2573SOL     hw10290   3.523   3.020   5.997  1.2007  0.0175  1.8807
 2573SOL     hw10291   3.432   2.950   6.095  0.1267  0.3244  1.1216
 2573SOL     vw10292   3.455   3.022   6.052  0.0755 -0.0062  0.5448
 2574SOL     ow10293   3.390   2.775   2.485 -0.2317  0.1874  0.6725
 2574SOL     hw10294   3.409   2.687   2.452 -0.2962  0.4673 -0.1507
 2574SOL     hw10295   3.470   2.802   2.530 -0.2690 -0.3508  1.0647
 2574SOL     vw10296   3.403   2.767   2.486 -0.2451  0.1532  0.6156
 2575SOL     ow10297   3.900   1.087   3.204  0.0501  0.3248  0.5977
 2575SOL     hw10298   3.851   1.169   3.208  0.1601  0.4072  0.2868
 2575SOL     hw10299   3.870   1.045   3.123  0.2947  0.2473  0.5472
 2575SOL     vw10300   3.890   1.092   3.194  0.0969  0.3254  0.5500
 2576SOL     ow10301   0.960   2.111   5.611 -0.2703 -0.1561  0.3542
 2576SOL     hw10302   1.004   2.160   5.681 -0.1327 -0.1880  0.2913
 2576SOL     hw10303   0.954   2.022   5.644  2.2948 -0.8343 -0.7533
 2576SOL     vw10304   0.965   2.106   5.624  0.0862 -0.2499  0.1998
 2577SOL     ow10305   4.736   6.897   4.400  0.2442  0.1976 -0.3570
 2577SOL     hw10306   4.753   6.850   4.481  1.8154  1.1337 -0.0943
 2577SOL     hw10307   4.666   6.958   4.421  1.1666  0.9843  0.5639
 2577SOL     vw10308   4.729   6.899   4.413  0.5734  0.4251 -0.2010
 2578SOL     ow10309   0.509   0.994   4.797 -0.6599  0.2122  0.2593
 2578SOL     hw10310   0.518   1.016   4.705 -0.3968  0.1263  0.2648
 2578SOL     hw10311   0.530   0.901   4.802 -0.3681  0.2883  0.4519
 2578SOL     vw10312   0.513   0.985   4.786 -0.5867  0.2109  0.2856
 2579SOL     ow10313   3.330   0.706   0.191 -0.4452 -0.0152 -0.1631
 2579SOL     hw10314   3.373   0.628   0.156 -0.8625 -0.5301  0.4439
 2579SOL     hw10315   3.337   0.771   0.121  0.8400 -0.2500 -0.2836
 2579SOL     vw10316   3.337   0.705   0.177 -0.3307 -0.1141 -0.0989
 2580SOL     ow10317   5.478   4.497   6.024 -0.2724  0.0608 -0.2939
 2580SOL     hw10318   5.409   4.476   6.086  0.0789  0.2143  0.1535
 2580SOL     hw10319   5.552   4.525   6.078  0.9284 -2.2177 -0.6139
 2580SOL     vw10320   5.479   4.498   6.039 -0.0675 -0.2196 -0.2770
 2581SOL     ow10321   5.532   3.731   6.214 -0.0661  0.1047  0.1886
 2581SOL     hw10322   5.484   3.684   6.146  0.3145  1.9198 -1.4370
 2581SOL     hw10323   5.466   3.785   6.257  0.1733  1.4005 -0.9829
 2581SOL     vw10324   5.517   3.732   6.211  0.0155  0.5151 -0.1807
 2582SOL     ow10325   6.771   5.476   4.043 -0.0724 -0.7638  0.4187
 2582SOL     hw10326   6.745   5.387   4.064  0.0209 -0.4589  1.9269
 2582SOL     hw10327   6.820   5.506   4.120 -0.3838  0.7054  0.0805
 2582SOL     vw10328   6.774   5.468   4.056 -0.1011 -0.5295  0.5732
 2583SOL     ow10329   3.850   2.005   0.666 -0.3635 -0.2311 -0.2373
 2583SOL     hw10330   3.904   2.084   0.672  0.9335 -1.1041 -0.0897
 2583SOL     hw10331   3.898   1.948   0.606 -0.1630 -1.7455  1.2885
 2583SOL     vw10332   3.863   2.008   0.659 -0.1659 -0.5461 -0.0165
 2584SOL     ow10333   4.672   4.144   6.329 -0.3446  0.7425  0.1483
 2584SOL     hw10334   4.672   4.158   6.424  3.0462  1.6112  0.1585
 2584SOL     hw10335   4.584   4.114   6.309 -0.7664 -0.9991  3.7979
 2584SOL     vw10336   4.661   4.142   6.339  0.0470  0.6273  0.6309
 2585SOL     ow10337   4.675   0.146   3.360  0.9460  0.0118  0.0093
 2585SOL     hw10338   4.614   0.218   3.378 -0.7419 -0.9104 -1.6571
 2585SOL     hw10339   4.716   0.127   3.444 -1.3350  0.4540  1.2846
 2585SOL     vw10340   4.673   0.153   3.373  0.4222 -0.0516 -0.0424
 2586SOL     ow10341   2.964   2.340   5.872  0.2081  0.1315  0.4622
 2586SOL     hw10342   2.955   2.357   5.966  2.5914  0.7743  0.6414
 2586SOL     hw10343   2.908   2.407   5.831 -2.9030 -1.7302  1.3489
 2586SOL     vw10344   2.955   2.351   5.879  0.1122 -0.0294  0.6025
 2587SOL     ow10345   5.571   4.305   6.345  0.9671  0.0411 -0.3399
 2587SOL     hw10346   5.659   4.306   6.383  2.0076  1.3246 -2.5940
 2587SOL     hw10347   5.581   4.255   6.264  0.0666  1.7218 -1.5410
 2587SOL     vw10348   5.584   4.298   6.340  0.9854  0.4320 -0.7958
 2588SOL     ow10349   2.932   0.789   0.468  0.0883 -0.7487  0.1103
 2588SOL     hw10350   2.919   0.791   0.563  0.1556 -1.4213  0.1326
 2588SOL     hw10351   2.870   0.723   0.437 -0.2359 -0.2319 -0.3664
 2588SOL     vw10352   2.922   0.781   0.476  0.0546 -0.7693  0.0504
 2589SOL     ow10353   4.578   6.248   0.242 -0.0456  0.7636  0.0056
 2589SOL     hw10354   4.665   6.268   0.278  0.4987 -0.6516 -0.4478
 2589SOL     hw10355   4.535   6.198   0.312 -0.1726  0.7420 -0.0899
 2589SOL     vw10356   4.584   6.244   0.256  0.0095  0.5741 -0.0668
 2590SOL     ow10357   3.360   1.355   5.288  0.1512  0.2968  0.0139
 2590SOL     hw10358   3.421   1.297   5.335  0.7853 -0.4512 -1.6689
 2590SOL     hw10359   3.391   1.355   5.198 -0.6548  2.2290 -0.3082
 2590SOL     vw10360   3.372   1.347   5.282  0.1286  0.4530 -0.2506
 2591SOL     ow10361   1.356   5.948   6.563 -0.4651 -0.1561  0.2327
 2591SOL     hw10362   1.321   6.014   6.623 -1.6827 -1.1467  0.6398
 2591SOL     hw10363   1.404   6.000   6.498 -0.7002  1.0758  0.9937
 2591SOL     vw10364   1.358   5.964   6.562 -0.6568 -0.1242  0.3867
 2592SOL     ow10365   4.285   6.103   0.741 -0.0714 -0.3483 -0.1672
 2592SOL     hw10366   4.192   6.089   0.726 -0.2846  0.4075  0.3988
 2592SOL     hw10367   4.308   6.039   0.808 -0.0271 -0.9824 -0.7792
 2592SOL     vw10368   4.276   6.093   0.748 -0.0937 -0.3321 -0.1732
 2593SOL     ow10369   0.380   1.814   2.116  0.7886  0.3340  0.4730
 2593SOL     hw10370   0.417   1.899   2.141 -0.2062  0.3218  2.1383
 2593SOL     hw10371   0.364   1.770   2.199  2.7799 -2.1919 -0.3646
 2593SOL     vw10372   0.383   1.820   2.130  0.9201 -0.0010  0.5822
 2594SOL     ow10373   5.050   1.464   5.286  0.0516  0.2213 -0.1103
 2594SOL     hw10374   4.992   1.535   5.314  0.0568  0.4734 -0.7316
 2594SOL     hw10375   5.071   1.417   5.367 -2.1289 -0.7195  0.0022
 2594SOL     vw10376   5.045   1.467   5.301 -0.2351  0.1305 -0.1771
 2595SOL     ow10377   3.197   4.831   1.340 -0.7329 -0.4176 -0.1393
 2595SOL     hw10378   3.124   4.811   1.398  0.6867  0.4476  2.1067
 2595SOL     hw10379   3.200   4.927   1.336 -0.4673 -0.4604 -1.1933
 2595SOL     vw10380   3.188   4.841   1.347 -0.5105 -0.3090  0.0180
 2596SOL     ow10381   0.287   1.227   3.531 -0.4874 -0.6579  0.4631
 2596SOL     hw10382   0.370   1.180   3.531 -0.5399 -0.8683 -1.6953
 2596SOL     hw10383   0.290   1.280   3.451 -1.7934  0.5210  1.1605
 2596SOL     vw10384   0.298   1.228   3.520 -0.6666 -0.5300  0.2702
 2597SOL     ow10385   2.345   4.557   1.418 -0.5693 -0.0419  0.0523
 2597SOL     hw10386   2.356   4.547   1.513 -2.5542 -1.5005  0.2029
 2597SOL     hw10387   2.266   4.611   1.409 -0.0438  0.6093 -0.7949
 2597SOL     vw10388   2.336   4.563   1.429 -0.7617 -0.1483 -0.0396
 2598SOL     ow10389   6.350   6.102   2.233 -0.0089  0.1151  0.2784
 2598SOL     hw10390   6.323   6.180   2.183  1.3024  0.3861 -0.0384
 2598SOL     hw10391   6.327   6.124   2.324 -2.1649 -0.2719 -0.1096
 2598SOL     vw10392   6.343   6.115   2.239 -0.1202  0.0997  0.1855
 2599SOL     ow10393   6.203   0.163   3.908 -0.0819 -0.1123 -0.0248
 2599SOL     hw10394   6.228   0.253   3.928  0.3971 -0.4689  1.0757
 2599SOL     hw10395   6.280   0.127   3.863 -0.5797  0.2456 -1.1986
 2599SOL     vw10396   6.216   0.170   3.904 -0.0846 -0.1122 -0.0345
 2600SOL     ow10397   2.238   1.679   6.212 -0.8822 -0.4656 -0.0284
 2600SOL     hw10398   2.275   1.754   6.260 -1.6245 -0.5136  0.6493
 2600SOL     hw10399   2.153   1.711   6.181  0.5415  0.3913 -3.4814
 2600SOL     vw10400   2.232   1.693   6.214 -0.7923 -0.3589 -0.3946
 2601SOL     ow10401   5.721   4.357   4.012 -0.3850 -0.7388 -0.1808
 2601SOL     hw10402   5.692   4.408   4.087 -0.5306 -1.4013  0.2232
 2601SOL     hw10403   5.756   4.422   3.951  1.2772 -0.3418  1.1381
 2601SOL     vw10404   5.722   4.372   4.014 -0.1848 -0.7737  0.0465
 2602SOL     ow10405   2.830   5.278   6.102 -0.3152 -0.0246  0.4762
 2602SOL     hw10406   2.796   5.358   6.063  0.3434  0.1445  0.2244
 2602SOL     hw10407   2.816   5.289   6.196  0.1258  0.5684  0.4791
 2602SOL     vw10408   2.824   5.290   6.109 -0.1701  0.0758  0.4435
 2603SOL     ow10409   1.411   0.808   2.940  0.3735  0.8671 -0.3058
 2603SOL     hw10410   1.456   0.754   2.875  0.1300  1.4631 -0.9933
 2603SOL     hw10411   1.321   0.816   2.906 -0.4387 -0.7488  1.3100
 2603SOL     vw10412   1.405   0.802   2.927  0.2342  0.7325 -0.1833
 2604SOL     ow10413   2.145   2.375   5.285 -0.2064 -0.3383  0.2214
 2604SOL     hw10414   2.055   2.366   5.316 -0.6305  1.3464 -0.4123
 2604SOL     hw10415   2.196   2.394   5.364 -0.0906 -2.8417  0.8254
 2604SOL     vw10416   2.140   2.376   5.300 -0.2471 -0.4464  0.2177
 2605SOL     ow10417   1.898   6.258   1.046  0.2025 -0.4032 -0.0756
 2605SOL     hw10418   1.853   6.174   1.033 -0.8686  0.5423 -3.6679
 2605SOL     hw10419   1.833   6.314   1.088  0.4257 -0.9094  0.9845
 2605SOL     vw10420   1.884   6.254   1.049  0.0906 -0.3452 -0.4097
 2606SOL     ow10421   2.244   7.201   0.986  0.3412  0.5777  0.0875
 2606SOL     hw10422   2.293   7.138   1.039  2.0984  0.6246 -1.4133
 2606SOL     hw10423   2.158   7.160   0.973  0.7880 -0.6104  0.7590
 2606SOL     vw10424   2.239   7.188   0.992  0.6319  0.4275 -0.0219
 2607SOL     ow10425   3.117   0.629   3.664 -0.0578 -0.4037 -0.1724
 2607SOL     hw10426   3.137   0.537   3.647 -2.1007 -1.2646  1.5758
 2607SOL     hw10427   3.149   0.645   3.753 -2.1743 -0.3185  0.6389
 2607SOL     vw10428   3.124   0.619   3.674 -0.6067 -0.5061  0.1653
 2608SOL     ow10429   2.630   7.093   6.172 -0.3153 -0.4346  0.1163
 2608SOL     hw10430   2.685   7.024   6.135 -0.5009 -0.1622 -0.7058
 2608SOL     hw10431   2.546   7.050   6.190 -0.6483 -0.2902 -1.0208
 2608SOL     vw10432   2.626   7.078   6.169 -0.3839 -0.3796 -0.1421
 2609SOL     ow10433   1.957   1.750   6.186  0.8122  0.6753 -0.0002
 2609SOL     hw10434   1.915   1.682   6.135  1.7334 -0.6624  0.9420
 2609SOL     hw10435   1.886   1.808   6.213  0.0902  0.4194 -1.2807
 2609SOL     vw10436   1.942   1.749   6.183  0.8385  0.4650 -0.0448
 2610SOL     ow10437   5.899   1.307   3.102  0.2661 -0.7772 -0.6320
 2610SOL     hw10438   5.874   1.380   3.159  0.1082 -0.2713 -1.3451
 2610SOL     hw10439   5.820   1.289   3.051  0.1950 -1.6874 -0.2118
 2610SOL     vw10440   5.885   1.314   3.103  0.2358 -0.8305 -0.6707
 2611SOL     ow10441   3.814   0.879   5.676  0.2367  0.2847 -0.0348
 2611SOL     hw10442   3.773   0.962   5.700  0.4526  0.4058 -0.0794
 2611SOL     hw10443   3.784   0.817   5.742  0.8265  0.6153  0.5589
 2611SOL     vw10444   3.805   0.882   5.688  0.3430  0.3443  0.0379
 2612SOL     ow10445   1.484   5.552   6.377 -0.0016  0.1701  0.1549
 2612SOL     hw10446   1.501   5.538   6.284 -1.5481 -2.5793  0.1988
 2612SOL     hw10447   1.411   5.494   6.398  0.3265  0.6541  3.1185
 2612SOL     vw10448   1.476   5.543   6.367 -0.1624 -0.1287  0.5515
 2613SOL     ow10449   4.259   1.012   1.394 -0.2169  0.2534  0.1934
 2613SOL     hw10450   4.207   0.941   1.357 -0.1316 -0.3320  1.1748
 2613SOL     hw10451   4.274   0.987   1.485 -1.7757  2.4157  1.1298
 2613SOL     vw10452   4.254   1.000   1.401 -0.4113  0.4615  0.4464
 2614SOL     ow10453   5.310   0.231   2.347 -0.0410 -0.1384 -0.3648
 2614SOL     hw10454   5.269   0.307   2.387  2.6870  1.5552 -0.5059
 2614SOL     hw10455   5.325   0.170   2.419  0.6952  0.9181  0.4104
 2614SOL     vw10456   5.307   0.233   2.361  0.4160  0.2245 -0.2812
 2615SOL     ow10457   5.895   0.275   5.801  0.2579 -1.1901  0.5634
 2615SOL     hw10458   5.818   0.329   5.820 -0.3530 -2.1157  0.7930
 2615SOL     hw10459   5.879   0.194   5.849  0.3033 -2.2846 -1.1876
 2615SOL     vw10460   5.882   0.272   5.810  0.1833 -1.4566  0.3626
 2616SOL     ow10461   0.822   0.543   1.880 -0.1645  0.7125  0.3806
 2616SOL     hw10462   0.768   0.616   1.850 -1.3127 -0.2033  0.1802
 2616SOL     hw10463   0.764   0.491   1.935  0.1575 -0.9033 -0.7375
 2616SOL     vw10464   0.808   0.546   1.884 -0.2735  0.3785  0.2066
 2617SOL     ow10465   4.824   2.701   0.952  0.1087 -0.0432 -0.0781
 2617SOL     hw10466   4.856   2.711   0.862 -0.2330 -0.6760 -0.2769
 2617SOL     hw10467   4.732   2.728   0.947 -0.0485 -0.5633 -0.0310
 2617SOL     vw10468   4.816   2.706   0.939  0.0429 -0.1951 -0.0981
 2618SOL     ow10469   5.976   6.039   5.533 -1.0247 -0.4454  0.4832
 2618SOL     hw10470   6.060   5.998   5.549  0.4246  1.2063 -2.1381
 2618SOL     hw10471   5.957   6.021   5.440 -2.7813  0.5336  0.5995
 2618SOL     vw10472   5.984   6.032   5.523 -1.0653 -0.0985  0.1526
 2619SOL     ow10473   6.691   0.857   0.520  0.3196  0.2013 -0.0663
 2619SOL     hw10474   6.600   0.867   0.548  0.3511 -0.4943  0.2940
 2619SOL     hw10475   6.743   0.880   0.598  0.4484  0.2186 -0.1568
 2619SOL     vw10476   6.686   0.862   0.534  0.3409  0.1118 -0.0307
 2620SOL     ow10477   6.007   5.293   0.429  0.0462  0.2188 -0.4393
 2620SOL     hw10478   5.969   5.205   0.428  3.2756 -1.3347 -0.0004
 2620SOL     hw10479   6.092   5.282   0.386  0.8075  3.0236  0.1906
 2620SOL     vw10480   6.013   5.280   0.423  0.5727  0.3839 -0.2983
 2621SOL     ow10481   4.358   4.866   1.144  0.3106 -0.4852  0.3966
 2621SOL     hw10482   4.336   4.803   1.076  0.5455 -0.9525  0.7526
 2621SOL     hw10483   4.274   4.887   1.186 -0.0091  0.6439 -0.7383
 2621SOL     vw10484   4.344   4.861   1.141  0.2995 -0.3979  0.2939
 2622SOL     ow10485   4.498   2.699   2.747  0.1261  0.0932  0.0556
 2622SOL     hw10486   4.588   2.667   2.752  0.4272  0.6366 -1.3262
 2622SOL     hw10487   4.463   2.658   2.668 -0.4632  0.7878 -0.0526
 2622SOL     vw10488   4.505   2.689   2.737  0.0880  0.2564 -0.1409
 2623SOL     ow10489   0.942   1.012   4.190  0.7643 -0.1019 -0.0858
 2623SOL     hw10490   0.915   0.974   4.106  0.1076  0.1914 -0.0102
 2623SOL     hw10491   1.020   0.962   4.215  0.8718 -0.3008 -0.7897
 2623SOL     vw10492   0.949   1.000   4.182  0.6919 -0.0895 -0.1686
 2624SOL     ow10493   6.221   2.610   1.491  0.0335  0.7314 -0.1223
 2624SOL     hw10494   6.216   2.547   1.420  0.7988  0.2727  0.2197
 2624SOL     hw10495   6.294   2.668   1.467  0.8630  0.0496  0.6863
 2624SOL     vw10496   6.230   2.610   1.479  0.2439  0.5808  0.0295
 2625SOL     ow10497   2.386   0.606   1.985 -0.6148  0.9063  0.0609
 2625SOL     hw10498   2.463   0.661   1.974  0.4999 -0.4329  0.7949
 2625SOL     hw10499   2.394   0.540   1.916  1.3803 -1.8920  2.6648
 2625SOL     vw10500   2.397   0.604   1.975 -0.2044  0.3604  0.5014
 2626SOL     ow10501   3.447   0.466   0.118 -0.1172  0.1414 -0.2547
 2626SOL     hw10502   3.408   0.408   0.053 -0.9327  1.7637 -1.2560
 2626SOL     hw10503   3.538   0.476   0.091  0.4119 -1.6539  0.6732
 2626SOL     vw10504   3.454   0.460   0.106 -0.1550  0.1186 -0.2644
 2627SOL     ow10505   3.779   0.047   7.161  0.0491  0.6035 -0.3952
 2627SOL     hw10506   3.700   0.060   7.214 -0.3702 -0.5075 -0.7178
 2627SOL     hw10507   3.846   0.022   7.224  0.4599  2.5799  0.0268
 2627SOL     vw10508   3.777   0.046   7.176  0.0480  0.7176 -0.3819
 2628SOL     ow10509   5.963   0.009   3.306 -0.3116  0.5575  0.2995
 2628SOL     hw10510   6.014  -0.067   3.279  0.4450  0.6121  1.4932
 2628SOL     hw10511   5.926   0.044   3.225 -1.5458 -1.6677 -0.1745
 2628SOL     vw10512   5.964   0.003   3.292 -0.3746  0.2708  0.3945
 2629SOL     ow10513   3.141   1.934   3.138  0.7465 -0.0295  0.3626
 2629SOL     hw10514   3.052   1.957   3.164  1.0353 -0.9449  2.3786
 2629SOL     hw10515   3.140   1.937   3.042 -1.4925 -0.1845  0.3349
 2629SOL     vw10516   3.130   1.937   3.129  0.4892 -0.1708  0.6249
 2630SOL     ow10517   5.573   4.422   4.502 -0.3981 -0.8908 -0.4289
 2630SOL     hw10518   5.614   4.502   4.536 -3.6589  1.2021 -0.9066
 2630SOL     hw10519   5.584   4.358   4.571 -0.4742  1.0105  1.4553
 2630SOL     vw10520   5.579   4.424   4.515 -0.8385 -0.3638 -0.2432
 2631SOL     ow10521   6.469   5.922   1.781  0.0068 -0.1986 -0.1496
 2631SOL     hw10522   6.545   5.956   1.733  0.3738  0.6355  0.9975
 2631SOL     hw10523   6.421   6.000   1.810  1.6525 -0.4433  3.7933
 2631SOL     vw10524   6.473   5.937   1.779  0.2723 -0.1209  0.5220
 2632SOL     ow10525   4.626   5.065   3.546 -0.3650  0.4429  0.0905
 2632SOL     hw10526   4.652   5.136   3.605  1.0977  0.7163 -0.8233
 2632SOL     hw10527   4.709   5.032   3.512 -0.8962 -2.4983  1.3480
 2632SOL     vw10528   4.641   5.070   3.550 -0.2420  0.0911  0.1360
 2633SOL     ow10529   3.340   0.459   1.517 -0.3989 -0.2889 -0.5112
 2633SOL     hw10530   3.308   0.547   1.498 -0.5558 -0.1462  0.3753
 2633SOL     hw10531   3.418   0.449   1.462 -0.1289  0.5660 -0.2933
 2633SOL     vw10532   3.346   0.469   1.507 -0.3841 -0.1573 -0.3654
 2634SOL     ow10533   5.825   5.417   3.495 -0.1237 -0.0932  0.8701
 2634SOL     hw10534   5.832   5.421   3.400 -0.2072  0.5020  0.8857
 2634SOL     hw10535   5.898   5.361   3.522 -0.2996 -0.5360  0.4328
 2634SOL     vw10536   5.836   5.410   3.486 -0.1578 -0.0732  0.8144
 2635SOL     ow10537   7.179   5.153   4.720  0.8381  0.2500  0.3244
 2635SOL     hw10538   7.197   5.228   4.663  0.7794  0.4567  0.5787
 2635SOL     hw10539   7.093   5.172   4.758  0.7928  0.0210  0.3380
 2635SOL     vw10540   7.170   5.165   4.717  0.8245  0.2475  0.3598
 2636SOL     ow10541   5.857   2.515   2.013  0.4043 -0.2921 -0.1737
 2636SOL     hw10542   5.855   2.504   2.108  2.2036 -1.3222 -0.1952
 2636SOL     hw10543   5.782   2.465   1.982 -0.1727  0.0114  0.7042
 2636SOL     vw10544   5.847   2.507   2.022  0.5655 -0.3879 -0.0607
 2637SOL     ow10545   6.493   1.502   3.439 -0.5262  0.2697  0.4337
 2637SOL     hw10546   6.456   1.452   3.366 -0.3454 -0.4831  0.8455
 2637SOL     hw10547   6.429   1.571   3.456 -0.1393  1.0192 -1.0203
 2637SOL     vw10548   6.480   1.505   3.432 -0.4513  0.2693  0.2961
 2638SOL     ow10549   1.076   1.358   0.341 -0.6381 -0.1251 -0.7254
 2638SOL     hw10550   1.102   1.300   0.269 -0.5285 -0.1019 -0.7055
 2638SOL     hw10551   0.987   1.385   0.320 -1.8716 -2.6301  0.7097
 2638SOL     vw10552   1.068   1.354   0.329 -0.7864 -0.4525 -0.5334
 2639SOL     ow10553   0.260   4.148   3.073  0.4289 -0.2849  0.4986
 2639SOL     hw10554   0.194   4.134   3.141 -0.4554 -2.2627 -0.6864
 2639SOL     hw10555   0.266   4.064   3.028  4.3510 -0.4861  1.0211
 2639SOL     vw10556   0.252   4.135   3.076  0.8297 -0.5724  0.4113
 2640SOL     ow10557   1.775   2.404   3.963  0.3941 -0.1022 -0.2027
 2640SOL     hw10558   1.838   2.396   3.891  0.4515  1.3893 -0.3442
 2640SOL     hw10559   1.827   2.436   4.037 -0.2113  1.4119 -0.3944
 2640SOL     vw10560   1.790   2.407   3.964  0.3219  0.2943 -0.2466
 2641SOL     ow10561   3.276   3.324   4.592 -0.0858 -0.3640  0.1715
 2641SOL     hw10562   3.260   3.398   4.533 -1.3595 -0.5708  0.2186
 2641SOL     hw10563   3.188   3.296   4.619  0.4301 -1.0440  1.2116
 2641SOL     vw10564   3.262   3.330   4.588 -0.1858 -0.4809  0.3147
 2642SOL     ow10565   3.289   4.453   7.023 -0.3875 -0.0929 -0.1675
 2642SOL     hw10566   3.325   4.369   7.051 -0.5516  0.3625  1.5825
 2642SOL     hw10567   3.218   4.431   6.963  1.0416 -1.0927 -1.5625
 2642SOL     vw10568   3.284   4.439   7.019 -0.2205 -0.1645 -0.1209
 2643SOL     ow10569   6.891   3.798   6.635  0.4811  0.4519 -0.1610
 2643SOL     hw10570   6.807   3.752   6.640  0.6812  0.1683  1.0728
 2643SOL     hw10571   6.904   3.815   6.542 -0.9508  0.5251 -0.3630
 2643SOL     vw10572   6.882   3.794   6.623  0.3185  0.4241 -0.0250
 2644SOL     ow10573   3.398   4.699   0.547 -0.0518  0.0629  0.5251
 2644SOL     hw10574   3.436   4.730   0.629 -0.8783  0.0298  0.9362
 2644SOL     hw10575   3.308   4.733   0.548  0.4537  1.5633 -1.2146
 2644SOL     vw10576   3.391   4.707   0.558 -0.0942  0.2563  0.3498
 2645SOL     ow10577   3.374   3.159   3.827 -0.1884  0.0564 -0.1983
 2645SOL     hw10578   3.321   3.096   3.779 -0.1159 -0.1788  0.0262
 2645SOL     hw10579   3.378   3.124   3.916 -1.0996  0.9592  0.2187
 2645SOL     vw10580   3.367   3.146   3.832 -0.2991  0.1445 -0.1138
 2646SOL     ow10581   2.209   1.049   7.071  0.1649  0.3029  0.4729
 2646SOL     hw10582   2.152   1.043   7.148  0.0130 -1.1611  0.2677
 2646SOL     hw10583   2.156   1.094   7.005 -0.4042 -0.1385  0.6169
 2646SOL     vw10584   2.194   1.054   7.073  0.0699  0.0514  0.4647
 2647SOL     ow10585   4.471   2.458   7.007 -0.3855  0.3552 -0.3921
 2647SOL     hw10586   4.473   2.435   6.914 -1.8176  0.1537 -0.4064
 2647SOL     hw10587   4.393   2.413   7.041 -0.3517  1.0840  0.7222
 2647SOL     vw10588   4.461   2.449   6.999 -0.5698  0.4247 -0.2470
 2648SOL     ow10589   4.415   3.340   3.910  0.6309 -0.2455  0.5392
 2648SOL     hw10590   4.451   3.323   3.997  0.6648  0.6357  0.7115
 2648SOL     hw10591   4.330   3.381   3.927  0.5112 -0.3278  0.1514
 2648SOL     vw10592   4.408   3.343   3.924  0.6196 -0.1402  0.5107
 2649SOL     ow10593   3.327   6.011   1.926  0.2765  0.1648 -0.1283
 2649SOL     hw10594   3.393   6.058   1.977 -1.1361  2.1922 -0.0786
 2649SOL     hw10595   3.362   6.009   1.837  0.7718  0.4444  0.0547
 2649SOL     vw10596   3.341   6.017   1.921  0.1554  0.4690 -0.0976
 2650SOL     ow10597   6.565   1.571   0.170 -0.0496  0.2211 -0.1691
 2650SOL     hw10598   6.584   1.584   0.077  2.3124  0.2576  0.2474
 2650SOL     hw10599   6.581   1.656   0.210 -0.0141 -0.0511  0.4104
 2650SOL     vw10600   6.570   1.584   0.163  0.2666  0.1899 -0.0377
 2651SOL     ow10601   7.183   5.377   4.577  0.2098  0.3607  0.3559
 2651SOL     hw10602   7.218   5.445   4.635 -0.6451  0.3551  0.8933
 2651SOL     hw10603   7.095   5.406   4.555  0.5881  0.4553 -1.1154
 2651SOL     vw10604   7.176   5.389   4.582  0.1469  0.3724  0.2327
 2652SOL     ow10605   5.870   3.819   5.871 -0.7718 -0.0545 -0.1338
 2652SOL     hw10606   5.955   3.846   5.835  1.2531 -2.6119  2.2120
 2652SOL     hw10607   5.839   3.751   5.811  2.6888 -4.4631  2.3969
 2652SOL     vw10608   5.877   3.813   5.858 -0.0477 -0.9735  0.5097
 2653SOL     ow10609   5.900   1.708   5.219 -0.2984 -0.0167  0.1018
 2653SOL     hw10610   5.960   1.647   5.262 -0.3159 -0.0864  0.0270
 2653SOL     hw10611   5.840   1.735   5.288  0.7071  1.1838  0.5414
 2653SOL     vw10612   5.900   1.703   5.234 -0.1678  0.1326  0.1502
 2654SOL     ow10613   1.598   5.121   5.577  0.1718  0.0361 -0.5836
 2654SOL     hw10614   1.677   5.094   5.530  0.5859  1.2982 -0.6582
 2654SOL     hw10615   1.542   5.161   5.510  1.0225  2.3986  0.0253
 2654SOL     vw10616   1.601   5.123   5.562  0.3387  0.5140 -0.5131
 2655SOL     ow10617   5.883   0.430   2.816 -0.8787 -0.2433  0.1830
 2655SOL     hw10618   5.868   0.365   2.747  0.3985 -0.7825  0.3755
 2655SOL     hw10619   5.888   0.378   2.897 -2.9031  0.4339  0.7857
 2655SOL     vw10620   5.882   0.414   2.818 -0.9773 -0.2251  0.2879
 2656SOL     ow10621   0.357   6.428   2.990 -0.4328 -0.7885  0.5372
 2656SOL     hw10622   0.334   6.469   3.073  0.8229  0.8863  0.1238
 2656SOL     hw10623   0.447   6.399   3.001  0.1269  0.4219 -0.5402
 2656SOL     vw10624   0.365   6.430   3.002 -0.1933 -0.4079  0.3406
 2657SOL     ow10625   2.786   0.492   6.269 -0.4524  0.1515  0.1870
 2657SOL     hw10626   2.851   0.553   6.302  0.3399  0.5345 -1.9698
 2657SOL     hw10627   2.780   0.424   6.337 -0.7851  2.1433  2.2545
 2657SOL     vw10628   2.794   0.491   6.283 -0.3917  0.4648  0.1752
 2658SOL     ow10629   4.039   5.513   7.155  0.4096 -0.4160 -0.0408
 2658SOL     hw10630   4.022   5.490   7.064 -2.0999 -2.0977  0.7460
 2658SOL     hw10631   3.982   5.456   7.205  1.0231  1.1054  2.5811
 2658SOL     vw10632   4.030   5.503   7.149  0.1593 -0.4370  0.4089
 2659SOL     ow10633   5.922   4.956   6.799 -0.6701 -0.7009  0.4228
 2659SOL     hw10634   5.849   5.006   6.763 -0.9123 -1.5569 -0.3087
 2659SOL     hw10635   5.890   4.925   6.884 -0.6065  0.1567  0.7714
 2659SOL     vw10636   5.908   4.958   6.805 -0.6938 -0.7007  0.3722
 2660SOL     ow10637   0.353   4.940   0.494  0.1849  0.3374  0.2082
 2660SOL     hw10638   0.433   4.981   0.528  0.2146  1.1734 -0.8145
 2660SOL     hw10639   0.379   4.900   0.412  0.2252 -2.1239  1.3436
 2660SOL     vw10640   0.367   4.940   0.488  0.1941  0.1228  0.2231
 2661SOL     ow10641   1.337   1.426   1.029  0.1343  0.2574  0.2475
 2661SOL     hw10642   1.244   1.401   1.028  0.4038 -1.1129 -3.2068
 2661SOL     hw10643   1.374   1.377   1.103 -1.3531 -1.5547 -0.1230
 2661SOL     vw10644   1.329   1.416   1.039 -0.0264 -0.1625 -0.2572
 2662SOL     ow10645   0.326   1.929   0.481 -0.2163 -0.2208  0.3107
 2662SOL     hw10646   0.373   1.950   0.400 -1.7441 -0.6479 -0.7161
 2662SOL     hw10647   0.303   1.836   0.472 -0.4182 -0.2685  1.2397
 2662SOL     vw10648   0.329   1.919   0.469 -0.4445 -0.2835  0.2978
 2663SOL     ow10649   3.384   0.013   2.942 -0.0033  0.4548  0.0004
 2663SOL     hw10650   3.456  -0.005   2.881 -0.4222  2.1290 -1.0358
 2663SOL     hw10651   3.307  -0.026   2.901 -0.1572  0.9694 -0.2059
 2663SOL     vw10652   3.384   0.005   2.928 -0.0788  0.7436 -0.1634
 2664SOL     ow10653   2.956   1.050   7.107  0.6639 -0.7833 -0.0126
 2664SOL     hw10654   2.945   1.140   7.138 -0.2577 -0.4139 -1.3057
 2664SOL     hw10655   3.045   1.026   7.131  0.8375  0.3942  0.5628
 2664SOL     vw10656   2.966   1.059   7.114  0.5652 -0.5792 -0.1070
 2665SOL     ow10657   4.894   1.638   3.750 -0.3356 -0.4108  0.2544
 2665SOL     hw10658   4.932   1.677   3.829 -2.1918  1.8731  0.1099
 2665SOL     hw10659   4.866   1.551   3.778  1.0225 -0.4983  1.4840
 2665SOL     vw10660   4.896   1.631   3.764 -0.4013 -0.1210  0.3976
 2666SOL     ow10661   0.034   4.525   5.896  0.3588  0.3065 -0.1456
 2666SOL     hw10662  -0.007   4.537   5.981  3.0650  1.9013  1.0710
 2666SOL     hw10663   0.039   4.430   5.885 -0.7955  0.0804  1.0291
 2666SOL     vw10664   0.029   4.514   5.906  0.5634  0.4873  0.1700
 2667SOL     ow10665   0.341   5.652   2.373 -0.5501 -0.2217  0.4390
 2667SOL     hw10666   0.394   5.723   2.409  0.8008 -1.0318  0.1396
 2667SOL     hw10667   0.251   5.683   2.380  0.0261  1.6688 -0.0596
 2667SOL     vw10668   0.336   5.666   2.379 -0.2958 -0.0792  0.3338
 2668SOL     ow10669   3.110   2.159   3.870 -0.2358 -0.5543 -0.2269
 2668SOL     hw10670   3.178   2.167   3.802  0.1117 -1.6989 -0.0374
 2668SOL     hw10671   3.101   2.247   3.906  1.4564 -0.4525  0.0263
 2668SOL     vw10672   3.118   2.172   3.865  0.0334 -0.6919 -0.1686
 2669SOL     ow10673   3.384   5.971   6.175  0.2993 -0.3037 -0.1526
 2669SOL     hw10674   3.469   5.974   6.131  0.4615  0.6148  0.2025
 2669SOL     hw10675   3.325   5.935   6.109  0.9472 -0.9026 -0.4182
 2669SOL     vw10676   3.387   5.967   6.160  0.4060 -0.2615 -0.1409
 2670SOL     ow10677   5.496   0.006   6.951 -0.0209  0.8836  0.4822
 2670SOL     hw10678   5.434   0.065   6.995  0.6044  3.3079 -1.6107
 2670SOL     hw10679   5.442  -0.062   6.913 -1.4458  2.7142 -0.9370
 2670SOL     vw10680   5.481   0.005   6.952 -0.1264  1.4451  0.0184
 2671SOL     ow10681   1.803   4.341   6.476 -0.4326  0.6387  0.0664
 2671SOL     hw10682   1.767   4.327   6.389  1.9226 -0.9364 -0.7374
 2671SOL     hw10683   1.808   4.436   6.485 -0.6530  0.8203 -1.5111
 2671SOL     vw10684   1.799   4.352   6.466 -0.1509  0.4551 -0.2477
 2672SOL     ow10685   2.877   2.876   0.538  0.1021  0.3785  0.0833
 2672SOL     hw10686   2.801   2.932   0.549  0.4941  0.7842  0.7793
 2672SOL     hw10687   2.889   2.871   0.443 -0.6968  0.4272 -0.0258
 2672SOL     vw10688   2.869   2.883   0.527  0.0484  0.4385  0.1607
 2673SOL     ow10689   1.182   1.338   6.740  0.0025  0.3117 -0.2028
 2673SOL     hw10690   1.120   1.364   6.808 -0.7001 -2.4784  0.3757
 2673SOL     hw10691   1.254   1.400   6.749 -2.1996  3.1153 -0.2893
 2673SOL     vw10692   1.183   1.349   6.750 -0.3808  0.3135 -0.1378
 2674SOL     ow10693   3.184   1.979   5.650 -0.2886  0.1252 -0.0602
 2674SOL     hw10694   3.093   2.009   5.646 -0.6876 -1.1399 -1.5273
 2674SOL     hw10695   3.209   1.969   5.558  1.3675  0.4814  0.3258
 2674SOL     vw10696   3.175   1.982   5.637 -0.1228  0.0053 -0.2029
 2675SOL     ow10697   5.160   1.815   2.531  0.6898 -0.3395  0.1732
 2675SOL     hw10698   5.086   1.867   2.561  2.2690  1.3240  1.4911
 2675SOL     hw10699   5.147   1.729   2.571 -0.7908 -0.2464 -0.0751
 2675SOL     vw10700   5.149   1.811   2.541  0.7029 -0.1078  0.3145
 2676SOL     ow10701   5.883   5.611   1.461 -0.1837  0.5069  0.0487
 2676SOL     hw10702   5.788   5.602   1.460 -0.2664  1.2719 -0.1246
 2676SOL     hw10703   5.898   5.693   1.510  0.4816 -0.5590  1.7301
 2676SOL     vw10704   5.872   5.621   1.468 -0.1068  0.4671  0.2477
 2677SOL     ow10705   0.753   5.359   6.678 -0.2359 -0.8256 -0.6291
 2677SOL     hw10706   0.818   5.394   6.740 -0.8057 -0.1566 -0.4044
 2677SOL     hw10707   0.690   5.429   6.667 -2.8897 -2.5564  1.8375
 2677SOL     vw10708   0.754   5.373   6.685 -0.6613 -0.9656 -0.2737
 2678SOL     ow10709   4.964   4.132   6.035  0.6667 -0.4411  0.3684
 2678SOL     hw10710   4.969   4.084   5.952 -0.1484 -0.9049  0.5740
 2678SOL     hw10711   4.929   4.069   6.097 -1.8810  0.7747  0.3187
 2678SOL     vw10712   4.960   4.118   6.032  0.2232 -0.3417  0.3889
 2679SOL     ow10713   2.168   0.939   2.533  0.5007  0.6898  0.0559
 2679SOL     hw10714   2.205   0.992   2.604  1.0380 -0.2776  0.5200
 2679SOL     hw10715   2.073   0.945   2.545  0.4158  3.3010 -1.2206
 2679SOL     vw10716   2.160   0.947   2.544  0.5604  0.9067 -0.0513
 2680SOL     ow10717   3.109   2.312   1.007 -0.2873  0.2095 -0.2417
 2680SOL     hw10718   3.183   2.353   1.052  1.1544 -0.3950 -1.9120
 2680SOL     hw10719   3.139   2.303   0.917 -1.5783 -1.9945 -0.5249
 2680SOL     vw10720   3.123   2.316   1.001 -0.2674 -0.1611 -0.4995
 2681SOL     ow10721   3.276   3.052   1.872 -0.6390  0.5385 -0.5210
 2681SOL     hw10722   3.314   2.964   1.882  0.0929  0.8350 -0.5921
 2681SOL     hw10723   3.185   3.036   1.847  0.1414 -0.2336 -3.2181
 2681SOL     vw10724   3.269   3.038   1.870 -0.4394  0.4758 -0.8863
 2682SOL     ow10725   2.945   4.460   3.015  0.4771  0.0882 -0.4162
 2682SOL     hw10726   3.028   4.452   2.969  1.6221 -2.4247  1.7976
 2682SOL     hw10727   2.956   4.537   3.071  0.6456  0.7373 -1.3280
 2682SOL     vw10728   2.957   4.469   3.017  0.6503 -0.1576 -0.2445
 2683SOL     ow10729   2.610   4.145   6.084 -0.2147 -1.0459 -0.2470
 2683SOL     hw10730   2.698   4.164   6.115 -0.9443  1.8895  0.3291
 2683SOL     hw10731   2.585   4.223   6.033 -3.0764 -0.9886  1.0626
 2683SOL     vw10732   2.618   4.158   6.081 -0.6886 -0.6509  0.0019
 2684SOL     ow10733   0.486   0.675   0.705 -0.1860 -0.0667  0.6486
 2684SOL     hw10734   0.557   0.698   0.645 -0.6976  2.6921  0.9418
 2684SOL     hw10735   0.530   0.639   0.782  0.8018  0.2984  0.2769
 2684SOL     vw10736   0.501   0.673   0.707 -0.1231  0.3454  0.6382
 2685SOL     ow10737   0.354   6.475   1.365 -0.2254 -0.5365  0.0182
 2685SOL     hw10738   0.371   6.467   1.271  1.0897 -0.8875  0.2729
 2685SOL     hw10739   0.320   6.389   1.391 -2.9877  0.2814 -0.5650
 2685SOL     vw10740   0.352   6.463   1.356 -0.4164 -0.4747 -0.0252
 2686SOL     ow10741   3.207   1.876   6.406  0.1146  0.9984  0.0573
 2686SOL     hw10742   3.141   1.836   6.350 -0.3911  3.0781 -0.9105
 2686SOL     hw10743   3.286   1.824   6.392 -1.0465 -1.0187  0.5988
 2686SOL     vw10744   3.209   1.864   6.397 -0.1053  1.0066  0.0012
 2687SOL     ow10745   6.029   5.718   6.328 -0.1540 -0.3933 -0.3564
 2687SOL     hw10746   6.105   5.704   6.385  0.2020 -2.7616 -1.3086
 2687SOL     hw10747   5.992   5.801   6.359  1.7850 -0.0346  1.2780
 2687SOL     vw10748   6.034   5.727   6.340  0.1488 -0.6585 -0.2663
 2688SOL     ow10749   3.162   4.071   4.205 -0.2370  0.1663 -0.3089
 2688SOL     hw10750   3.153   4.124   4.284  0.7504 -0.4488  0.2435
 2688SOL     hw10751   3.072   4.049   4.180 -0.5319 -0.6126  1.3294
 2688SOL     vw10752   3.149   4.075   4.212 -0.1457 -0.0176 -0.0198
 2689SOL     ow10753   4.894   4.916   2.063  0.6837  0.0922 -0.3222
 2689SOL     hw10754   4.954   4.880   1.998  0.4132  1.6254 -1.4811
 2689SOL     hw10755   4.951   4.954   2.130  1.2270  3.4853 -2.4678
 2689SOL     vw10756   4.910   4.917   2.063  0.7198  0.7424 -0.7583
 2690SOL     ow10757   6.445   3.562   1.114  0.2751  0.1703 -0.4221
 2690SOL     hw10758   6.492   3.536   1.193  0.2760  1.1555 -0.0791
 2690SOL     hw10759   6.368   3.609   1.146 -1.7317 -2.5495 -0.9312
 2690SOL     vw10760   6.441   3.565   1.129  0.0103 -0.0585 -0.4441
 2691SOL     ow10761   1.214   4.657   0.360  0.1207 -0.1835 -0.0288
 2691SOL     hw10762   1.170   4.740   0.375  0.1395 -0.4306  1.5135
 2691SOL     hw10763   1.290   4.680   0.307  0.8382  1.0073  1.4424
 2691SOL     vw10764   1.218   4.671   0.355  0.2179 -0.0591  0.3688
 2692SOL     ow10765   3.686   2.114   0.856 -0.4902  0.3533  0.4147
 2692SOL     hw10766   3.741   2.074   0.789 -0.8265 -1.6934  1.2793
 2692SOL     hw10767   3.730   2.094   0.939 -1.2245  0.8637  0.9431
 2692SOL     vw10768   3.699   2.106   0.858 -0.6315  0.1507  0.5985
 2693SOL     ow10769   5.603   3.670   7.220 -0.3040 -0.1683 -0.4413
 2693SOL     hw10770   5.525   3.681   7.166  0.5451  0.6097 -1.5372
 2693SOL     hw10771   5.676   3.666   7.158  0.5341 -1.0799  0.5442
 2693SOL     vw10772   5.602   3.671   7.205 -0.0813 -0.1860 -0.4558
 2694SOL     ow10773   5.033   4.038   0.406  0.0412  0.0181  0.0714
 2694SOL     hw10774   5.101   4.071   0.346  0.1766  0.2309  0.3419
 2694SOL     hw10775   5.051   3.944   0.412 -0.5477 -0.1852 -0.9645
 2694SOL     vw10776   5.045   4.030   0.399 -0.0188  0.0196 -0.0296
 2695SOL     ow10777   6.774   6.516   0.963  0.0539  0.5890  0.2255
 2695SOL     hw10778   6.755   6.608   0.982 -1.4775  0.2913  0.2141
 2695SOL     hw10779   6.808   6.482   1.046  2.1932  1.5098 -0.1943
 2695SOL     vw10780   6.776   6.524   0.977  0.1345  0.6711  0.1686
 2696SOL     ow10781   1.251   6.526   7.051 -0.6235 -0.3946 -0.2526
 2696SOL     hw10782   1.232   6.477   6.972 -0.3267 -0.7946 -0.0778
 2696SOL     hw10783   1.323   6.479   7.092 -0.6082 -0.0478  0.1275
 2696SOL     vw10784   1.258   6.513   7.046 -0.5823 -0.4015 -0.1793
 2697SOL     ow10785   4.631   1.021   3.555  0.6111 -0.4385 -1.4029
 2697SOL     hw10786   4.621   0.944   3.611 -0.3473  0.7947  0.1769
 2697SOL     hw10787   4.582   0.998   3.475  0.0701 -1.3409 -0.8351
 2697SOL     vw10788   4.623   1.008   3.552  0.4129 -0.3949 -1.1195
 2698SOL     ow10789   3.507   4.774   1.270 -0.5359 -0.1563  0.0695
 2698SOL     hw10790   3.590   4.738   1.237 -0.2875 -0.8895  1.4386
 2698SOL     hw10791   3.496   4.856   1.221  0.8776 -0.1580 -0.3120
 2698SOL     vw10792   3.517   4.780   1.259 -0.3166 -0.2532  0.1999
 2699SOL     ow10793   3.838   4.737   3.635 -0.4383 -0.2578  0.2538
 2699SOL     hw10794   3.774   4.666   3.643  0.6509 -1.4051 -0.6501
 2699SOL     hw10795   3.849   4.749   3.541  1.5515 -0.9947  0.3232
 2699SOL     vw10796   3.831   4.729   3.624 -0.0318 -0.5064  0.1439
 2700SOL     ow10797   5.905   4.178   6.279 -0.3859 -0.3236 -0.6459
 2700SOL     hw10798   5.901   4.157   6.372 -0.0944  2.7563  0.1718
 2700SOL     hw10799   5.998   4.179   6.259 -0.0536  3.3420  0.3164
 2700SOL     vw10800   5.917   4.175   6.289 -0.3037  0.5665 -0.4110
 2701poe    c3110801   2.590   2.154   3.163 -0.3945  0.2601 -0.6484
 2701poe     o210802   2.723   2.153   3.210 -0.5644  0.1443 -0.1647
 2701poe    c2310803   2.725   2.250   3.312 -0.2963  0.3043 -0.3207
 2701poe    c2310804   2.827   2.206   3.419 -0.5843  0.1359 -0.1130
 2701poe     o210805   2.794   2.088   3.488 -0.4962  0.4958  0.5505
 2701poe    c2310806   2.906   2.063   3.569 -0.0635 -0.5341 -0.3452
 2701poe    c2310807   2.877   1.922   3.624  0.8180 -0.3831  0.5443
 2701poe     o210808   2.748   1.941   3.677  0.4917  0.1112 -0.4044
 2701poe    c2310809   2.707   1.833   3.758  0.4540  0.5123  0.1200
 2701poe    c2310810   2.558   1.865   3.779  0.1041 -0.7070 -0.4216
 2701poe     o210811   2.500   1.890   3.653 -0.1073 -0.1724 -0.2205
 2701poe    c3110812   2.360   1.877   3.667 -0.1423  0.4154  0.0161
 2702poe    c3110813   5.186   0.574   0.375 -0.3831  0.4212  0.0132
 2702poe     o210814   5.089   0.627   0.286 -0.3698 -0.2372 -0.3964
 2702poe    c2310815   5.145   0.658   0.161  0.2881 -0.1646 -0.0929
 2702poe    c2310816   5.049   0.680   0.042  0.3292  0.0944 -0.0798
 2702poe     o210817   4.976   0.800   0.049 -0.2592 -0.2725  0.1808
 2702poe    c2310818   4.891   0.827  -0.060 -0.1357  0.4842  0.2681
 2702poe    c2310819   4.749   0.775  -0.035 -0.2075  0.4822 -0.1279
 2702poe     o210820   4.677   0.830   0.073  0.0225  0.6393 -0.0543
 2702poe    c2310821   4.566   0.765   0.130  0.3066  0.3270  0.1464
 2702poe    c2310822   4.492   0.825   0.251 -0.1837  0.0476 -0.0103
 2702poe     o210823   4.461   0.959   0.219 -0.4639  0.0253  0.1656
 2702poe    c3110824   4.429   1.030   0.336 -0.4306  0.8946 -0.3493
 2703poe    c3110825   4.726   4.017   3.218  0.2310  0.1136 -0.2609
 2703poe     o210826   4.624   4.113   3.207  0.2021  0.0975 -0.1274
 2703poe    c2310827   4.633   4.188   3.088  0.3928  0.2316 -0.0295
 2703poe    c2310828   4.555   4.320   3.107  0.0804  0.0093  0.2385
 2703poe     o210829   4.437   4.273   3.168 -0.1877  0.1858 -0.1441
 2703poe    c2310830   4.350   4.380   3.195 -0.2130  0.0558  0.3031
 2703poe    c2310831   4.211   4.318   3.220 -0.0318 -0.4244  0.1290
 2703poe     o210832   4.233   4.198   3.289 -0.0648 -0.2795  0.3922
 2703poe    c2310833   4.105   4.137   3.283 -0.0611 -0.2357 -0.1327
 2703poe    c2310834   4.094   4.020   3.383  0.0722  0.1907  0.3854
 2703poe     o210835   4.050   4.078   3.504  0.2072  0.5267  0.2762
 2703poe    c3110836   3.955   3.988   3.557  0.3448  0.5432  0.5552
 2704poe    c3110837   4.388   6.208   2.973 -0.2237  0.0007  1.0392
 2704poe     o210838   4.519   6.243   3.014  0.2338 -0.4774  0.0233
 2704poe    c2310839   4.512   6.304   3.141  0.4519  0.2463 -0.3078
 2704poe    c2310840   4.647   6.334   3.207  0.0440  0.2256  0.5544
 2704poe     o210841   4.702   6.442   3.136 -0.4594 -0.1228 -0.3917
 2704poe    c2310842   4.794   6.506   3.222  0.2098 -0.3617 -0.9239
 2704poe    c2310843   4.938   6.452   3.234  0.1123 -0.3885  0.2578
 2704poe     o210844   4.998   6.434   3.107 -0.2502 -0.0537  0.0382
 2704poe    c2310845   5.108   6.518   3.078 -0.5919  0.2905 -0.2750
 2704poe    c2310846   5.157   6.505   2.933 -0.6544 -0.6294 -0.2211
 2704poe     o210847   5.074   6.575   2.842 -0.3040 -0.5634 -0.4936
 2704poe    c3110848   5.158   6.636   2.748 -0.4857 -0.1652 -0.3980
 2705poe    c3110849   6.223   2.884   2.466  0.1950  0.2685 -0.2751
 2705poe     o210850   6.129   2.780   2.485  0.0795  0.3487 -0.4071
 2705poe    c2310851   6.166   2.656   2.429  0.6347  0.1605  0.3651
 2705poe    c2310852   6.105   2.529   2.492 -0.7190  0.7115  0.2068
 2705poe     o210853   5.972   2.506   2.451 -0.4206 -0.1033 -0.3240
 2705poe    c2310854   5.965   2.402   2.356 -0.2420 -0.2921 -0.1346
 2705poe    c2310855   5.819   2.353   2.349 -0.3724  0.1442 -0.5963
 2705poe     o210856   5.739   2.454   2.292 -0.0266  0.6112 -0.2575
 2705poe    c2310857   5.612   2.394   2.280  0.1538  0.1954 -0.1075
 2705poe    c2310858   5.508   2.456   2.185  0.0086  0.1311  0.0096
 2705poe     o210859   5.455   2.586   2.191 -0.1734  0.0903 -0.6886
 2705poe    c3110860   5.335   2.582   2.117 -0.3505 -0.2433 -0.3833
 2706poe    c3110861   1.623   0.382   6.549  0.7871  0.3055 -0.0437
 2706poe     o210862   1.627   0.264   6.473  0.0170  0.0052  0.3684
 2706poe    c2310863   1.536   0.165   6.515  0.2834 -0.2382  0.3748
 2706poe    c2310864   1.550   0.028   6.445  0.8613  0.0998 -0.1844
 2706poe     o210865   1.530   0.039   6.306 -0.4741  0.0345 -0.0125
 2706poe    c2310866   1.564  -0.079   6.238  0.0299  0.3232 -0.2657
 2706poe    c2310867   1.562  -0.073   6.084  0.0339 -0.4963 -0.3029
 2706poe     o210868   1.665   0.013   6.040 -0.1250  0.2337  0.7237
 2706poe    c2310869   1.650   0.041   5.903  0.1520 -0.1440  0.6171
 2706poe    c2310870   1.774   0.128   5.878 -0.1419  0.0741 -0.1207
 2706poe     o210871   1.778   0.229   5.976  0.3439 -0.1249  0.0703
 2706poe    c3110872   1.867   0.334   5.946 -0.1983  0.3188 -0.0096
 2707poe    c3110873   2.109   0.139   1.503  0.4344 -0.5897 -0.1074
 2707poe     o210874   2.089   0.230   1.397 -0.2527  0.0994  0.5996
 2707poe    c2310875   2.145   0.357   1.421 -0.0180  0.0295  0.4209
 2707poe    c2310876   2.084   0.443   1.533 -0.1288 -0.1592  0.5052
 2707poe     o210877   1.958   0.495   1.498  0.2620  0.4776  0.0210
 2707poe    c2310878   1.898   0.577   1.596  0.4103  0.3887  0.1851
 2707poe    c2310879   1.767   0.640   1.545  0.4154 -0.2021 -0.5731
 2707poe     o210880   1.672   0.540   1.516 -0.1436  0.0156  0.4617
 2707poe    c2310881   1.602   0.484   1.625 -0.5534 -0.3067  0.0399
 2707poe    c2310882   1.473   0.412   1.583 -1.0589  0.5117  0.1620
 2707poe     o210883   1.427   0.320   1.680  0.3082 -0.3000  0.0626
 2707poe    c3110884   1.326   0.241   1.622  0.1257  0.1019 -0.1708
 2708poe    c3110885   1.131   0.277   0.731 -0.0610 -0.6011 -0.0470
 2708poe     o210886   1.202   0.284   0.610  0.0568  0.6845  0.0841
 2708poe    c2310887   1.245   0.159   0.561 -0.4456  0.6129 -0.1724
 2708poe    c2310888   1.298   0.204   0.423  0.0264  0.2354 -0.1162
 2708poe     o210889   1.382   0.312   0.455 -0.1983  0.3366  0.1353
 2708poe    c2310890   1.426   0.376   0.337 -0.3821 -0.3925 -0.3355
 2708poe    c2310891   1.509   0.503   0.363 -0.2458 -0.4806 -0.3443
 2708poe     o210892   1.434   0.575   0.458  0.0667 -0.3131 -0.2204
 2708poe    c2310893   1.493   0.698   0.492  0.2405 -0.3118 -0.5235
 2708poe    c2310894   1.491   0.816   0.393 -0.1845  0.1515  0.0225
 2708poe     o210895   1.360   0.863   0.371 -0.0558  0.3622 -0.3011
 2708poe    c3110896   1.373   0.937   0.252 -0.2303 -0.0406 -0.5736
 2709poe    c3110897   1.016   0.025   6.032  0.6272 -0.1127 -0.3912
 2709poe     o210898   1.082  -0.028   6.144  0.1422  0.0059 -0.0444
 2709poe    c2310899   1.047   0.050   6.256 -0.2695  0.2145 -0.3178
 2709poe    c2310900   1.152   0.047   6.368 -0.0393 -0.2294 -0.5455
 2709poe     o210901   1.138  -0.077   6.435  0.5197 -0.0157 -0.0170
 2709poe    c2310902   1.211  -0.085   6.555  0.6086  0.0784 -0.0641
 2709poe    c2310903   1.243  -0.233   6.582 -0.4082 -0.2789 -0.7807
 2709poe     o210904   1.115  -0.292   6.571 -0.5833 -0.0911  0.1632
 2709poe    c2310905   1.135  -0.431   6.558  0.2745  0.0615 -0.2150
 2709poe    c2310906   1.007  -0.511   6.528 -0.3346  0.6998  0.6638
 2709poe     o210907   0.945  -0.454   6.415 -0.3134 -0.2606  0.1629
 2709poe    c3110908   0.845  -0.539   6.361 -0.1718 -0.3127 -0.0203
 2710poe    c3110909   0.304   3.396   3.117  0.4391  0.5727  0.1049
 2710poe     o210910   0.340   3.522   3.170 -0.0707  0.6342  0.3117
 2710poe    c2310911   0.347   3.620   3.068  0.1417  0.6386  0.3296
 2710poe    c2310912   0.425   3.740   3.124  0.6230  0.2984  0.4011
 2710poe     o210913   0.351   3.815   3.217 -0.1849 -0.5426  0.4485
 2710poe    c2310914   0.440   3.898   3.288 -0.2639 -0.1004  0.0371
 2710poe    c2310915   0.432   3.891   3.442  0.2126 -0.0580  0.0656
 2710poe     o210916   0.321   3.951   3.504  0.2471  0.1833 -0.1031
 2710poe    c2310917   0.313   4.091   3.495 -0.3473  0.1427 -0.2065
 2710poe    c2310918   0.205   4.160   3.581 -0.1815 -0.0427  0.1480
 2710poe     o210919   0.088   4.181   3.506 -0.3103  0.3422  0.4531
 2710poe    c3110920  -0.017   4.194   3.600 -0.2543 -0.2615  0.6059
 2711poe    c3110921   7.214   1.517   0.827 -0.4736  0.0184 -0.5333
 2711poe     o210922   7.190   1.560   0.959  0.1430  0.1337 -0.4563
 2711poe    c2310923   7.141   1.457   1.041  0.3849  0.3721 -0.0041
 2711poe    c2310924   7.086   1.492   1.180 -0.1892 -0.3902 -0.0309
 2711poe     o210925   6.983   1.588   1.167  0.4813  0.3867  0.3357
 2711poe    c2310926   6.880   1.584   1.264 -0.1431  0.1095 -0.3289
 2711poe    c2310927   6.801   1.713   1.234 -0.3548  0.0450 -0.0493
 2711poe     o210928   6.781   1.727   1.095  0.3944  0.5168 -0.1188
 2711poe    c2310929   6.664   1.803   1.076 -0.0051 -0.2165 -0.6442
 2711poe    c2310930   6.584   1.774   0.947 -0.0253 -0.6487 -0.5364
 2711poe     o210931   6.664   1.759   0.832  0.2478 -0.5017 -0.3670
 2711poe    c3110932   6.577   1.768   0.721  0.4025 -0.6124 -0.4993
 2712poe    c3110933   4.538   6.600   1.571  0.4618  0.1409  0.0436
 2712poe     o210934   4.660   6.547   1.525  0.3171  0.1203 -0.3179
 2712poe    c2310935   4.656   6.513   1.388 -0.1639 -0.0457 -0.2662
 2712poe    c2310936   4.779   6.427   1.354  0.0143  0.1169 -0.0357
 2712poe     o210937   4.904   6.493   1.358 -0.1795  0.4587  0.5966
 2712poe    c2310938   5.012   6.403   1.364 -0.4912  0.0561  0.2347
 2712poe    c2310939   5.142   6.485   1.369 -0.1860 -0.4479  0.6685
 2712poe     o210940   5.136   6.576   1.476  0.1462 -0.0806  0.3800
 2712poe    c2310941   5.261   6.633   1.508  0.1540  0.1786 -0.1092
 2712poe    c2310942   5.229   6.779   1.541 -0.0515  0.1180 -0.0423
 2712poe     o210943   5.098   6.794   1.591 -0.1777 -0.0339 -0.3285
 2712poe    c3110944   5.061   6.928   1.617  0.2422 -0.0172  0.1932
 2713poe    c3110945   1.566   3.493   3.908  0.2044  0.1852  0.7080
 2713poe     o210946   1.597   3.411   4.019  0.4211 -0.4024  0.2227
 2713poe    c2310947   1.587   3.277   3.976 -0.3751 -0.2559 -0.0698
 2713poe    c2310948   1.604   3.178   4.093  0.6329 -0.5081 -0.4192
 2713poe     o210949   1.725   3.178   4.166  0.4198 -0.3637 -0.0636
 2713poe    c2310950   1.720   3.082   4.269  0.1781 -0.5560 -0.2507
 2713poe    c2310951   1.845   3.068   4.358  0.4775  0.1186 -0.5560
 2713poe     o210952   1.864   3.190   4.427 -0.7868 -0.1488  0.2915
 2713poe    c2310953   1.958   3.168   4.528 -0.1849 -0.3536 -0.3055
 2713poe    c2310954   1.968   3.274   4.639 -0.1522 -1.0567  0.3734
 2713poe     o210955   1.844   3.277   4.706 -0.2145  0.1696  0.2412
 2713poe    c3110956   1.815   3.403   4.761 -0.5258  0.4363 -0.5144
 2714poe    c3110957   3.741   5.141   0.687 -0.2439 -0.2766  0.1419
 2714poe     o210958   3.816   5.125   0.805 -0.3237 -0.2104  0.2018
 2714poe    c2310959   3.876   4.997   0.806 -0.5088 -0.2954  0.4049
 2714poe    c2310960   3.957   4.990   0.937  0.6152  0.5887 -0.2230
 2714poe     o210961   3.872   5.052   1.030 -0.3537 -0.5134 -0.3509
 2714poe    c2310962   3.935   5.056   1.156 -0.5994 -0.3935 -0.2304
 2714poe    c2310963   3.853   5.144   1.252  0.0827 -0.0882  0.0844
 2714poe     o210964   3.842   5.269   1.188 -0.7656 -0.4356 -0.4689
 2714poe    c2310965   3.803   5.372   1.277  0.0443 -0.2186 -0.3617
 2714poe    c2310966   3.775   5.505   1.205 -0.2386 -0.0363  0.0815
 2714poe     o210967   3.660   5.494   1.124 -0.3372  0.0655  0.2085
 2714poe    c3110968   3.586   5.614   1.116  0.0736  0.3439  0.5446
 2715poe    c3110969   1.805   4.672   7.219 -0.5729  0.0989 -0.0841
 2715poe     o210970   1.924   4.597   7.205 -0.5976  0.0466 -0.0144
 2715poe    c2310971   1.920   4.462   7.167  0.2217 -0.0497  0.2135
 2715poe    c2310972   1.864   4.429   7.027 -0.3376 -0.0278  0.4281
 2715poe     o210973   1.728   4.409   6.995 -0.1913 -0.1607 -0.1300
 2715poe    c2310974   1.660   4.293   7.037 -0.4727  0.0381 -0.0343
 2715poe    c2310975   1.509   4.323   7.042 -0.4382  0.1498  0.3755
 2715poe     o210976   1.464   4.341   6.910  0.1837  0.5102  0.2066
 2715poe    c2310977   1.350   4.425   6.903 -0.2954 -0.1629 -0.2251
 2715poe    c2310978   1.304   4.444   6.758  0.0436 -0.2669 -0.3475
 2715poe     o210979   1.419   4.469   6.680 -0.0828  0.3243 -0.3536
 2715poe    c3110980   1.382   4.530   6.559 -0.2163  0.0606 -0.4471
 2716poe    c3110981   0.158   4.403   2.456  0.1922  0.6027 -0.1283
 2716poe     o210982   0.048   4.408   2.543  0.3786  0.0630  0.1484
 2716poe    c2310983   0.020   4.275   2.579 -0.0640  0.1271  0.0545
 2716poe    c2310984  -0.097   4.281   2.679 -0.2428  0.3786 -0.1695
 2716poe     o210985  -0.070   4.335   2.807  0.3678  0.3969 -0.3033
 2716poe    c2310986  -0.186   4.381   2.872  0.4022  0.1210 -0.0483
 2716poe    c2310987  -0.178   4.437   3.015  0.0716 -0.2507  0.1218
 2716poe     o210988  -0.109   4.561   3.016  0.0171 -0.2215  0.2069
 2716poe    c2310989  -0.111   4.609   3.149  0.2537  0.0437  0.1148
 2716poe    c2310990   0.027   4.649   3.205  0.3946 -0.0998 -0.1254
 2716poe     o210991   0.117   4.548   3.244  0.2618 -0.2670 -0.2469
 2716poe    c3110992   0.074   4.472   3.354  0.1760  0.1693  0.0230
 2717poe    c3110993   1.331   4.018   6.806 -0.2306  0.3100 -0.1507
 2717poe     o210994   1.358   4.055   6.672  0.2351  0.0211 -0.1378
 2717poe    c2310995   1.239   4.090   6.606 -0.0216 -0.6195 -0.0208
 2717poe    c2310996   1.250   4.136   6.460  0.2909 -0.5195  0.0347
 2717poe     o210997   1.274   4.031   6.369 -0.2683 -0.8961  0.3155
 2717poe    c2310998   1.299   4.060   6.234  0.2831 -0.7127  0.4529
 2717poe    c2310999   1.301   3.933   6.147 -0.1751 -0.1041 -0.4666
 2717poe     o211000   1.363   3.818   6.201  0.2238  0.3324  0.0251
 2717poe    c2311001   1.368   3.713   6.106  0.6837 -0.0325  0.4497
 2717poe    c2311002   1.454   3.603   6.171  0.3099 -0.4792  0.1935
 2717poe     o211003   1.395   3.580   6.298 -0.2057 -0.0093  0.0448
 2717poe    c3111004   1.390   3.443   6.330 -0.2232  0.0737  0.4040
 2718poe    c3111005   1.075   5.025   3.708  0.5812 -0.2304 -0.3188
 2718poe     o211006   1.004   4.908   3.743  0.5947 -0.1136  0.1003
 2718poe    c2311007   1.057   4.835   3.852 -0.1009 -0.2532  0.3473
 2718poe    c2311008   0.971   4.709   3.876  0.0476 -0.3198  0.5373
 2718poe     o211009   0.953   4.638   3.755  0.4564  0.1024  0.2241
 2718poe    c2311010   0.876   4.522   3.778  0.3650  0.1262  0.0296
 2718poe    c2311011   0.831   4.480   3.636  0.9155 -0.0719 -0.0874
 2718poe     o211012   0.795   4.599   3.569  0.5006 -0.6669 -0.9358
 2718poe    c2311013   0.716   4.564   3.458 -0.8330  0.1744 -0.2725
 2718poe    c2311014   0.696   4.670   3.348  0.2899  0.3365 -0.3316
 2718poe     o211015   0.640   4.794   3.387  0.2886  0.1339  0.3140
 2718poe    c3111016   0.646   4.887   3.281 -0.1389 -0.2297 -0.0305
 2719poe    c3111017   5.339   1.184   4.349  0.1089 -0.0892 -0.2626
 2719poe     o211018   5.301   1.097   4.245  0.0163 -0.4994  0.1117
 2719poe    c2311019   5.404   1.045   4.165  0.1596  0.0065 -0.0360
 2719poe    c2311020   5.343   0.987   4.036  0.1388 -0.4079  0.1592
 2719poe     o211021   5.227   0.919   4.078 -0.0289 -0.0684  0.2416
 2719poe    c2311022   5.150   0.871   3.971 -0.4068  0.2614  0.3621
 2719poe    c2311023   5.044   0.770   4.020  0.2049 -0.5591  0.0286
 2719poe     o211024   4.949   0.841   4.096  0.0122 -0.1764 -0.5657
 2719poe    c2311025   4.868   0.748   4.164  0.1559  0.4210  0.4387
 2719poe    c2311026   4.798   0.813   4.285 -0.3335  0.9106 -0.1024
 2719poe     o211027   4.881   0.831   4.397 -0.1999 -0.5927  0.0524
 2719poe    c3111028   4.792   0.847   4.506 -0.4314  0.5907 -0.3063
 2720poe    c3111029   5.913   0.011   1.034  0.4909  0.5071  0.1533
 2720poe     o211030   5.907   0.070   1.162  0.5584 -0.0787  0.4276
 2720poe    c2311031   5.774   0.106   1.191  0.5468  0.5582 -0.4035
 2720poe    c2311032   5.759   0.166   1.332  0.0899  0.1090 -0.2578
 2720poe     o211033   5.819   0.092   1.435 -0.0475 -0.1935 -0.3926
 2720poe    c2311034   5.718   0.036   1.515 -0.3545  0.5208 -0.2758
 2720poe    c2311035   5.763  -0.004   1.657  0.5204  0.4672 -0.5664
 2720poe     o211036   5.844  -0.120   1.656 -0.3315 -0.1483 -0.0169
 2720poe    c2311037   5.959  -0.095   1.734 -0.3007 -0.3916  0.0154
 2720poe    c2311038   6.068  -0.204   1.735  0.5069  0.4009 -0.0627
 2720poe     o211039   6.121  -0.241   1.610  0.0871  0.3896 -0.2359
 2720poe    c3111040   6.202  -0.356   1.606  0.1258  0.4110 -0.0858
 2721poe    c3111041   0.100   5.863   0.982  0.1754  0.0332 -0.1686
 2721poe     o211042   0.054   5.882   1.114 -0.4579 -0.1642 -0.3577
 2721poe    c2311043  -0.025   5.997   1.131  0.3179  0.3395 -0.1479
 2721poe    c2311044  -0.011   6.026   1.282 -0.5609  0.0360 -0.0070
 2721poe     o211045  -0.039   5.907   1.351 -0.3019 -0.0709 -0.0841
 2721poe    c2311046  -0.022   5.924   1.490  0.9501 -0.4590 -0.1840
 2721poe    c2311047  -0.064   5.795   1.563  0.2233 -0.1435 -0.0365
 2721poe     o211048  -0.012   5.690   1.485  0.3126 -0.2472  0.1641
 2721poe    c2311049  -0.034   5.563   1.542  0.4008 -0.0652  0.6098
 2721poe    c2311050  -0.172   5.503   1.508  0.2658  0.4046  0.3160
 2721poe     o211051  -0.193   5.528   1.371 -0.3733  0.8730  0.4972
 2721poe    c3111052  -0.297   5.443   1.329  0.6428 -0.3710  0.4483
 2722poe    c3111053   1.211   3.714   3.994  0.1027  0.0312 -0.0994
 2722poe     o211054   1.192   3.810   3.893  0.1716  0.0534 -0.0907
 2722poe    c2311055   1.115   3.915   3.948 -0.6939 -0.6927  0.1302
 2722poe    c2311056   1.019   3.987   3.852 -0.0398  0.6904  0.4851
 2722poe     o211057   1.083   4.043   3.740 -0.0909 -0.4270 -0.1237
 2722poe    c2311058   0.990   4.092   3.646  0.2692  0.0682 -0.2250
 2722poe    c2311059   1.027   4.079   3.497  0.0676  0.5550 -0.3212
 2722poe     o211060   1.133   4.164   3.462  0.6118 -0.0914 -0.2584
 2722poe    c2311061   1.130   4.178   3.322 -0.4958  0.5953 -0.1757
 2722poe    c2311062   1.254   4.253   3.271 -0.0870  0.0900  0.0736
 2722poe     o211063   1.352   4.157   3.237  0.0991  0.2306  0.2115
 2722poe    c3111064   1.476   4.225   3.231  0.4338 -0.3306  0.6382
 2723poe    c3111065   4.425   0.778   0.847  0.5987 -0.6831 -0.1958
 2723poe     o211066   4.443   0.918   0.844 -0.2289 -0.5726 -0.4955
 2723poe    c2311067   4.337   0.975   0.772 -0.1751  0.6666  0.3694
 2723poe    c2311068   4.351   1.124   0.737  0.6284  0.3524 -0.6834
 2723poe     o211069   4.355   1.201   0.855  0.1350 -0.2216 -0.2833
 2723poe    c2311070   4.387   1.332   0.812 -0.4875  0.2174  0.5686
 2723poe    c2311071   4.416   1.421   0.934  0.0550  0.6922  0.0963
 2723poe     o211072   4.535   1.393   1.005 -0.1558  0.0352  0.1934
 2723poe    c2311073   4.575   1.512   1.069 -0.0727  0.1338 -0.0397
 2723poe    c2311074   4.713   1.491   1.135 -0.2349  0.4003  0.3892
 2723poe     o211075   4.711   1.388   1.230  0.2166 -0.1223 -0.1581
 2723poe    c3111076   4.810   1.385   1.331  0.0331  0.6404  0.0498
 2724poe    c3111077   7.184   2.988   4.776  0.3506  0.0886 -0.1640
 2724poe     o211078   7.064   2.991   4.702  0.0426  0.0618  0.3317
 2724poe    c2311079   7.098   3.081   4.599  0.2120 -0.0149  0.3206
 2724poe    c2311080   6.971   3.148   4.543  0.2476 -0.2951 -0.1021
 2724poe     o211081   6.866   3.059   4.514 -0.0560  0.0211  0.0158
 2724poe    c2311082   6.771   3.124   4.433  0.0594  0.2168  0.0355
 2724poe    c2311083   6.675   3.032   4.354 -0.1637  0.4243  0.0636
 2724poe     o211084   6.583   2.948   4.421  0.0261  0.2130  0.0597
 2724poe    c2311085   6.497   3.017   4.508 -0.0049  0.3418 -0.0732
 2724poe    c2311086   6.402   2.927   4.589  0.5578  0.2504  0.4948
 2724poe     o211087   6.479   2.848   4.677  0.3806  0.2302  0.6305
 2724poe    c3111088   6.395   2.792   4.776 -0.2331  0.2802  0.1422
 2725poe    c3111089   3.573   6.209   6.770 -0.9140  0.0328 -0.7188
 2725poe     o211090   3.587   6.209   6.911 -0.5716  0.6615 -0.7475
 2725poe    c2311091   3.462   6.234   6.971 -0.2579 -0.3057  0.3358
 2725poe    c2311092   3.496   6.252   7.120 -0.6963  0.3130  0.3657
 2725poe     o211093   3.532   6.135   7.191 -0.2521  0.0150 -0.3300
 2725poe    c2311094   3.579   6.170   7.319  0.3204 -0.1885 -0.4851
 2725poe    c2311095   3.541   6.055   7.414  0.5212  0.1374 -0.0038
 2725poe     o211096   3.613   5.935   7.398  0.2004 -0.0401 -0.1148
 2725poe    c2311097   3.573   5.843   7.497 -0.2606  0.0735 -0.1923
 2725poe    c2311098   3.656   5.715   7.517  0.0904  0.3920  0.4485
 2725poe     o211099   3.793   5.737   7.541  0.3073 -0.6367  0.1918
 2725poe    c3111100   3.879   5.644   7.480  0.1780 -0.4908 -0.2121
 2726poe    c3111101   1.472   6.992   0.633  0.1063  0.2572  0.3266
 2726poe     o211102   1.570   7.073   0.571  0.1353 -0.3345 -0.4158
 2726poe    c2311103   1.614   7.189   0.638 -0.3139  0.0142 -0.7206
 2726poe    c2311104   1.708   7.278   0.555 -0.3031  0.0516 -0.6684
 2726poe     o211105   1.834   7.227   0.519 -0.1837 -0.2118  0.1068
 2726poe    c2311106   1.923   7.331   0.483  0.1608 -0.4079  0.3831
 2726poe    c2311107   2.068   7.281   0.483  0.3318  0.0756 -0.1746
 2726poe     o211108   2.088   7.170   0.398  0.4705 -0.1203  0.1102
 2726poe    c2311109   2.224   7.133   0.398  0.5505  0.1551 -0.5022
 2726poe    c2311110   2.245   7.049   0.271 -0.0828 -0.4620 -0.2061
 2726poe     o211111   2.134   6.964   0.260 -0.6098  0.1249  0.4951
 2726poe    c3111112   2.151   6.873   0.154  0.0254  0.1836  0.5463
 2727poe    c3111113   7.117   1.589   0.064  0.2545  0.8266  0.5746
 2727poe     o211114   7.244   1.648   0.084  0.5402  0.2417  0.5096
 2727poe    c2311115   7.321   1.568   0.170 -0.1403 -0.3224  0.6014
 2727poe    c2311116   7.470   1.599   0.192  0.0966 -0.6186 -0.5287
 2727poe     o211117   7.568   1.578   0.093  0.5233 -0.4127 -0.1519
 2727poe    c2311118   7.691   1.643   0.119 -0.1401  0.8811 -0.1750
 2727poe    c2311119   7.781   1.606   0.000 -0.3426  0.0312 -0.0704
 2727poe     o211120   7.707   1.626  -0.118 -0.2302 -0.6498 -0.2598
 2727poe    c2311121   7.782   1.605  -0.236  0.1339 -0.1198 -0.1241
 2727poe    c2311122   7.698   1.665  -0.350  0.2462  0.0429 -0.1210
 2727poe     o211123   7.568   1.615  -0.332  0.2576 -0.1082 -0.4539
 2727poe    c3111124   7.484   1.658  -0.437 -0.6552  0.0868  0.3416
 2728poe    c3111125   6.093   1.842   6.737 -0.1910 -0.1028 -0.3177
 2728poe     o211126   6.232   1.817   6.738 -0.2032 -0.1752 -0.3634
 2728poe    c2311127   6.299   1.879   6.631  0.1908 -0.0412 -0.0406
 2728poe    c2311128   6.450   1.854   6.648  0.1224 -0.5519 -0.1829
 2728poe     o211129   6.471   1.898   6.780  0.3945 -0.1840 -0.3492
 2728poe    c2311130   6.607   1.884   6.816  0.3884  0.4057 -0.0834
 2728poe    c2311131   6.629   1.959   6.949 -0.2577  0.3157  0.0775
 2728poe     o211132   6.551   1.903   7.053 -0.5903  0.5945 -0.0197
 2728poe    c2311133   6.563   1.986   7.166 -0.4281  0.6002 -0.0404
 2728poe    c2311134   6.481   1.925   7.281  0.0081 -0.2725 -0.1814
 2728poe     o211135   6.343   1.946   7.261  0.0588 -0.0095 -0.2711
 2728poe    c3111136   6.277   1.901   7.377  0.6912 -0.1425  0.0388
 2729poe    c3111137   4.697   2.354   0.746 -0.1613 -0.2607  0.8029
 2729poe     o211138   4.571   2.320   0.693 -0.1420 -0.6867  1.0281
 2729poe    c2311139   4.587   2.183   0.662  0.2049 -0.3769 -0.2205
 2729poe    c2311140   4.455   2.119   0.616  0.0556 -0.5623  0.4502
 2729poe     o211141   4.360   2.138   0.718  0.1227  0.1627  0.3837
 2729poe    c2311142   4.244   2.059   0.701 -0.0224  0.5650 -0.5716
 2729poe    c2311143   4.154   2.060   0.826  0.1922 -0.2490 -0.4023
 2729poe     o211144   4.093   2.188   0.825  0.2609 -0.2155 -0.2523
 2729poe    c2311145   4.016   2.198   0.943  0.5650  0.1679 -0.0838
 2729poe    c2311146   3.961   2.340   0.964 -0.2104 -0.1911  0.3597
 2729poe     o211147   4.063   2.437   0.971 -0.6089  0.2509  0.0770
 2729poe    c3111148   4.013   2.526   1.069 -0.6906 -0.4789  0.7119
 2730poe    c3111149   6.553   0.666   5.004  0.1259 -0.0577  0.0178
 2730poe     o211150   6.473   0.591   4.914 -0.1661  0.4479 -0.1482
 2730poe    c2311151   6.546   0.514   4.821 -0.2236  0.6220 -0.3378
 2730poe    c2311152   6.461   0.469   4.701 -0.1003 -0.0186 -0.1861
 2730poe     o211153   6.350   0.555   4.696  0.3311  0.5473 -0.1825
 2730poe    c2311154   6.260   0.512   4.596 -0.1718 -0.2433  0.5916
 2730poe    c2311155   6.136   0.603   4.587 -0.1536 -0.2984 -0.2448
 2730poe     o211156   6.062   0.585   4.705  0.1278 -0.1387 -0.0439
 2730poe    c2311157   5.932   0.639   4.710  0.2571  0.2450 -0.7432
 2730poe    c2311158   5.872   0.605   4.848  0.3701 -0.0025 -0.7559
 2730poe     o211159   5.936   0.664   4.958 -0.4805 -0.5333  0.0392
 2730poe    c3111160   5.838   0.667   5.059  0.1961 -0.1990  0.6949
 2731poe    c3111161   6.477   6.655   3.205  0.1141  0.0639 -0.0006
 2731poe     o211162   6.340   6.643   3.235  0.1844  0.1707  0.3652
 2731poe    c2311163   6.320   6.674   3.372  0.2936 -0.0585  0.4341
 2731poe    c2311164   6.173   6.661   3.417 -0.1195 -0.0792 -0.8713
 2731poe     o211165   6.134   6.526   3.403  0.0114 -0.2619  0.4200
 2731poe    c2311166   6.003   6.499   3.447 -0.1292 -0.1918  0.0489
 2731poe    c2311167   5.908   6.497   3.326  0.4048  0.5885 -0.3927
 2731poe     o211168   5.948   6.381   3.257 -0.2444  0.1311 -0.0064
 2731poe    c2311169   5.842   6.322   3.185  0.1057 -0.1518 -0.2912
 2731poe    c2311170   5.894   6.222   3.080  0.1276 -0.2478 -0.1895
 2731poe     o211171   6.021   6.263   3.033  0.0744  0.3144  0.1434
 2731poe    c3111172   6.058   6.187   2.920 -0.1016 -0.1005  0.3614
 2732poe    c3111173   1.618   6.485   4.368  0.4624  0.5091 -0.0324
 2732poe     o211174   1.642   6.500   4.230 -0.2383  0.2595 -0.1842
 2732poe    c2311175   1.632   6.379   4.158 -1.0708  0.3786 -0.2813
 2732poe    c2311176   1.737   6.366   4.046 -0.3447  0.0340  0.4252
 2732poe     o211177   1.723   6.246   3.974  1.0215  0.3869 -0.4638
 2732poe    c2311178   1.739   6.257   3.834  0.2901 -0.4915 -0.6309
 2732poe    c2311179   1.875   6.281   3.766  0.7111 -0.2816  0.2626
 2732poe     o211180   1.897   6.420   3.768 -0.2773 -0.1157 -0.1704
 2732poe    c2311181   1.992   6.434   3.665 -0.1398 -0.2300 -0.0595
 2732poe    c2311182   2.009   6.571   3.597  0.1813 -0.4105 -0.3429
 2732poe     o211183   1.895   6.620   3.530 -0.1114  0.2184  0.6029
 2732poe    c3111184   1.906   6.734   3.448 -0.0909  0.2131  0.5988
 2733poe    c3111185   4.248   4.648   6.691 -0.1001  0.3054 -0.4266
 2733poe     o211186   4.388   4.633   6.710 -0.2339 -0.1522  0.2563
 2733poe    c2311187   4.432   4.685   6.833  0.1002  0.0124  0.0675
 2733poe    c2311188   4.454   4.837   6.822 -0.3793  0.0610 -0.2225
 2733poe     o211189   4.552   4.880   6.730  0.0902 -0.2699  0.1213
 2733poe    c2311190   4.602   5.008   6.760 -0.1440 -0.2749  0.5428
 2733poe    c2311191   4.749   5.039   6.725 -0.3498 -0.1765 -0.2348
 2733poe     o211192   4.795   5.001   6.597  0.4489  0.2351 -0.0738
 2733poe    c2311193   4.839   4.868   6.585 -0.8311 -0.1521 -0.7012
 2733poe    c2311194   4.872   4.821   6.442 -0.3334  0.1127 -0.6773
 2733poe     o211195   4.752   4.767   6.392 -0.2297 -0.6894 -0.0788
 2733poe    c3111196   4.795   4.696   6.278  0.0851  0.0248 -0.4090
 2734poe    c3111197   6.687   1.721   4.815  0.0558 -0.3426  0.2878
 2734poe     o211198   6.680   1.595   4.752  0.6067 -0.2299 -0.0016
 2734poe    c2311199   6.766   1.508   4.822  0.2948 -0.2181  0.4005
 2734poe    c2311200   6.749   1.357   4.795  0.3862 -0.1608  0.0157
 2734poe     o211201   6.630   1.293   4.835  0.4303 -0.2603 -0.0134
 2734poe    c2311202   6.645   1.153   4.846 -0.3734 -0.3555 -0.0466
 2734poe    c2311203   6.675   1.113   4.991 -0.2368 -0.2646 -0.0490
 2734poe     o211204   6.565   1.076   5.071 -0.0828 -0.0140  0.2828
 2734poe    c2311205   6.633   1.043   5.190 -0.2723 -0.1091  0.3660
 2734poe    c2311206   6.555   1.082   5.317 -0.4215  0.3554  0.1322
 2734poe     o211207   6.434   1.013   5.338 -0.3610  0.0919 -0.3830
 2734poe    c3111208   6.361   1.064   5.447  0.6497  0.3068  0.2096
 2735poe    c3111209   3.777   5.860   6.626  0.1465 -0.3530  0.1036
 2735poe     o211210   3.644   5.819   6.605 -0.0284  0.2425  0.0164
 2735poe    c2311211   3.603   5.738   6.713  0.0389  0.5810  0.2939
 2735poe    c2311212   3.456   5.693   6.706  0.1025  0.3603  0.3756
 2735poe     o211213   3.365   5.799   6.691 -0.0068  0.1913 -0.2087
 2735poe    c2311214   3.347   5.880   6.805  0.3683  0.3436 -0.2535
 2735poe    c2311215   3.239   5.986   6.777 -0.3201 -0.3608 -0.3121
 2735poe     o211216   3.290   6.093   6.701 -0.1794  0.2167  0.5866
 2735poe    c2311217   3.198   6.196   6.675 -0.2441  0.0138  0.0140
 2735poe    c2311218   3.205   6.249   6.530  0.2980 -0.5190 -0.1567
 2735poe     o211219   3.152   6.153   6.441 -0.4297 -0.0165 -0.2676
 2735poe    c3111220   3.151   6.205   6.310  0.2501 -0.0517 -0.2885
 2736poe    c3111221   3.008   1.541   3.701 -0.1600  0.5179  0.1101
 2736poe     o211222   2.905   1.554   3.606 -0.3633  0.8595  0.3753
 2736poe    c2311223   2.968   1.564   3.481 -0.0237 -0.0392  0.4688
 2736poe    c2311224   2.860   1.550   3.373  0.1475 -0.8426  0.3916
 2736poe     o211225   2.893   1.615   3.252 -0.1134 -0.2301  0.6439
 2736poe    c2311226   2.812   1.564   3.149 -0.5392  0.6929  0.5151
 2736poe    c2311227   2.860   1.625   3.016 -0.3960 -0.0522  0.2192
 2736poe     o211228   2.869   1.766   3.014 -0.0948 -0.0736 -0.1199
 2736poe    c2311229   2.907   1.798   2.883 -0.4139  0.7468 -0.0154
 2736poe    c2311230   2.956   1.943   2.860 -0.5154  0.7911  0.0483
 2736poe     o211231   3.090   1.963   2.896 -0.6354  1.0000  0.3785
 2736poe    c3111232   3.126   2.094   2.857  0.2209  0.4441 -0.7579
 2737poe    c3111233   3.306   1.360   2.231  0.3426  0.1478  0.4616
 2737poe     o211234   3.363   1.248   2.167  0.1887  0.2100  0.2168
 2737poe    c2311235   3.378   1.140   2.255  0.1405 -0.1999 -0.2722
 2737poe    c2311236   3.472   1.048   2.174  0.3065 -0.6766  0.4426
 2737poe     o211237   3.447   1.064   2.036  0.2285 -0.3129  0.4961
 2737poe    c2311238   3.563   1.024   1.965 -0.1114  0.1631 -0.3420
 2737poe    c2311239   3.520   1.000   1.819 -0.0715  0.3491 -0.3852
 2737poe     o211240   3.490   1.115   1.743 -0.1520  0.2616 -0.4860
 2737poe    c2311241   3.440   1.081   1.616  0.1455 -0.1764 -0.4901
 2737poe    c2311242   3.393   1.208   1.543  0.1236  0.0190 -0.1371
 2737poe     o211243   3.301   1.291   1.610  0.2876  0.0748  0.0217
 2737poe    c3111244   3.261   1.404   1.536 -0.0770 -0.3191 -0.3949
 2738poe    c3111245   6.555   1.218   1.441  0.1753  0.2920  0.0833
 2738poe     o211246   6.471   1.221   1.555 -0.2782  0.3286 -0.2459
 2738poe    c2311247   6.415   1.350   1.559 -0.2566  0.3324 -0.0086
 2738poe    c2311248   6.320   1.361   1.679  0.0327  0.3216  0.2215
 2738poe     o211249   6.375   1.384   1.807  0.1993 -0.1146  0.2294
 2738poe    c2311250   6.406   1.267   1.879  0.7920 -0.2507 -0.2399
 2738poe    c2311251   6.478   1.302   2.011 -0.0280 -0.4161  0.2548
 2738poe     o211252   6.553   1.417   1.978  0.2901 -0.6172  0.2800
 2738poe    c2311253   6.667   1.413   2.062  0.3874 -0.0753  0.1779
 2738poe    c2311254   6.742   1.544   2.036 -0.2266  0.2159 -0.1611
 2738poe     o211255   6.663   1.657   2.066 -0.6505 -0.1224  0.0028
 2738poe    c3111256   6.715   1.761   1.986 -0.0696 -0.3857  0.0264
 2739poe    c3111257   6.322   5.863   4.233  0.3309  0.5523 -0.4160
 2739poe     o211258   6.411   5.902   4.132  0.5895  0.0568 -0.3807
 2739poe    c2311259   6.486   5.789   4.091  0.2102 -0.0872 -0.6802
 2739poe    c2311260   6.628   5.820   4.040  0.6310 -0.0075  0.5004
 2739poe     o211261   6.623   5.879   3.912 -0.1739  0.5844  0.7996
 2739poe    c2311262   6.757   5.909   3.880 -0.2503 -0.1843 -0.2983
 2739poe    c2311263   6.766   5.946   3.731  0.8057  0.4805 -0.0779
 2739poe     o211264   6.689   6.062   3.715  0.8105  0.4899 -0.0342
 2739poe    c2311265   6.669   6.098   3.580  0.6271  0.7017  0.0482
 2739poe    c2311266   6.598   6.234   3.571 -0.7034 -0.0113 -0.5694
 2739poe     o211267   6.485   6.224   3.655 -0.4447  0.2091 -0.1913
 2739poe    c3111268   6.398   6.335   3.650 -0.4322  0.2307  0.0933
 2740poe    c3111269   7.077   6.049   6.595 -0.1387  0.1147  0.3523
 2740poe     o211270   7.162   6.130   6.674  0.5243 -0.0209 -0.2099
 2740poe    c2311271   7.114   6.153   6.805  0.6166 -0.2365 -0.1367
 2740poe    c2311272   7.204   6.257   6.876  0.4844 -0.0979 -0.1703
 2740poe     o211273   7.209   6.385   6.818  0.3590  0.0529  0.1520
 2740poe    c2311274   7.217   6.487   6.915  0.2496 -0.1525  0.3792
 2740poe    c2311275   7.201   6.632   6.863  0.1060 -0.3419 -0.1147
 2740poe     o211276   7.304   6.636   6.767 -0.2201  0.1096 -0.4496
 2740poe    c2311277   7.314   6.761   6.704 -0.6440  0.1145 -0.5102
 2740poe    c2311278   7.391   6.747   6.572 -0.3128 -0.5185 -0.2516
 2740poe     o211279   7.332   6.636   6.507 -0.4767 -0.1878 -0.6699
 2740poe    c3111280   7.416   6.613   6.396  0.1336  0.4301 -0.3458
 2741poe    c3111281   0.946   0.715   2.131 -0.0004 -0.0532 -0.1168
 2741poe     o211282   0.999   0.722   2.262 -0.6907  0.5028  0.1385
 2741poe    c2311283   1.011   0.857   2.300 -0.3981  0.5700 -0.1880
 2741poe    c2311284   1.058   0.883   2.444  0.2224  0.7684 -0.4264
 2741poe     o211285   1.190   0.862   2.491  0.0490  0.4570 -0.0791
 2741poe    c2311286   1.293   0.922   2.416 -0.1666  0.6850 -0.1946
 2741poe    c2311287   1.424   0.928   2.496 -0.0862  0.0342 -0.2683
 2741poe     o211288   1.403   1.000   2.616 -0.3021 -0.1620 -0.1864
 2741poe    c2311289   1.514   1.075   2.660 -0.2309 -0.6229  0.4297
 2741poe    c2311290   1.521   1.213   2.591 -0.2141 -0.7166  0.2439
 2741poe     o211291   1.564   1.216   2.457 -0.3063  0.2285  0.2290
 2741poe    c3111292   1.540   1.335   2.386  0.7283  0.3977  0.1501
 2742poe    c3111293   2.437   0.122   6.209  0.4388  0.2508 -0.5954
 2742poe     o211294   2.369   0.188   6.314  0.3670 -0.0494 -0.4497
 2742poe    c2311295   2.253   0.250   6.263  0.2706  0.1500  0.0040
 2742poe    c2311296   2.173   0.308   6.381 -0.1149  0.1870 -0.2741
 2742poe     o211297   2.258   0.392   6.455 -0.1993 -0.1429  0.1971
 2742poe    c2311298   2.283   0.521   6.405  0.6882 -0.3500  0.0788
 2742poe    c2311299   2.425   0.573   6.434  0.5279 -0.0865  0.3980
 2742poe     o211300   2.450   0.586   6.572  0.1582 -0.0932  0.4678
 2742poe    c2311301   2.590   0.580   6.591  0.1854 -0.3053  0.2161
 2742poe    c2311302   2.629   0.630   6.732 -0.1985 -0.2302  0.3002
 2742poe     o211303   2.599   0.541   6.837 -0.3506 -0.1353  0.3362
 2742poe    c3111304   2.654   0.596   6.954  0.1529  0.3653 -0.1292
 2743poe    c3111305   6.368   3.333   6.539  0.2125  0.0761  0.7128
 2743poe     o211306   6.430   3.219   6.596  0.2173  0.0861  0.7275
 2743poe    c2311307   6.360   3.103   6.557 -0.2609  0.3483  0.8014
 2743poe    c2311308   6.424   2.974   6.612  0.1700 -0.1121 -0.7234
 2743poe     o211309   6.432   2.983   6.752 -0.2155  0.0848 -0.7113
 2743poe    c2311310   6.449   2.855   6.807 -0.1579  0.3245 -0.1623
 2743poe    c2311311   6.430   2.843   6.960  0.8943  0.7563  0.0106
 2743poe     o211312   6.526   2.920   7.028  0.7075  0.5582  0.5020
 2743poe    c2311313   6.498   2.944   7.164 -0.3755  0.6283  0.2699
 2743poe    c2311314   6.616   2.927   7.261 -0.1904  0.3500 -0.0010
 2743poe     o211315   6.615   2.792   7.299 -0.4182  0.4594  0.3893
 2743poe    c3111316   6.726   2.772   7.384 -0.4295 -0.2783  0.2366
 2744poe    c3111317   2.658   0.964   0.557  0.2441 -0.3283 -0.0577
 2744poe     o211318   2.617   0.883   0.665 -0.1563 -0.1843 -0.1002
 2744poe    c2311319   2.536   0.776   0.620 -0.4259 -0.0100 -0.0331
 2744poe    c2311320   2.465   0.704   0.736  0.0025 -0.3437  0.0275
 2744poe     o211321   2.547   0.655   0.840  0.3290  0.3008  0.0792
 2744poe    c2311322   2.468   0.632   0.954  0.1630 -0.0660 -0.1091
 2744poe    c2311323   2.538   0.621   1.091  0.3756  0.2801 -0.1904
 2744poe     o211324   2.624   0.512   1.116 -0.4793 -0.4368 -0.3186
 2744poe    c2311325   2.688   0.503   1.241  0.3829  0.1390 -0.7053
 2744poe    c2311326   2.793   0.391   1.245  0.3989  0.1727 -0.0751
 2744poe     o211327   2.874   0.424   1.134  0.0528 -0.1620 -0.4321
 2744poe    c3111328   2.968   0.321   1.115  0.4260  0.1587 -0.3546
 2745poe    c3111329   6.365   1.477   4.888  0.2444  0.2948  0.1732
 2745poe     o211330   6.351   1.605   4.945  0.2367  0.3047  0.1488
 2745poe    c2311331   6.289   1.695   4.856 -0.5695 -0.0940  0.2975
 2745poe    c2311332   6.239   1.822   4.928 -0.1584  0.2366  0.0084
 2745poe     o211333   6.121   1.814   5.004 -0.0241 -0.2555  0.1702
 2745poe    c2311334   6.103   1.909   5.107  0.3094 -0.4265  0.3887
 2745poe    c2311335   6.130   2.058   5.082 -0.0760 -0.4522 -0.1861
 2745poe     o211336   6.061   2.099   4.966 -0.4101  0.0707  0.1932
 2745poe    c2311337   6.071   2.235   4.927  0.5571  0.1719  0.7502
 2745poe    c2311338   6.010   2.339   5.022 -0.1394  0.3604  0.1109
 2745poe     o211339   5.872   2.312   5.031 -0.0839  0.0120 -0.0884
 2745poe    c3111340   5.798   2.392   5.121  0.3649  0.1400  0.1724
 2746poe    c3111341   6.662   5.628   1.843  0.6402  0.0369  0.3850
 2746poe     o211342   6.545   5.569   1.893  0.6363 -0.2625  0.0251
 2746poe    c2311343   6.534   5.583   2.033 -0.1913 -0.0431 -0.0548
 2746poe    c2311344   6.384   5.574   2.063 -0.1392 -0.0400  0.2078
 2746poe     o211345   6.309   5.674   1.998  0.1882  0.1368  0.1006
 2746poe    c2311346   6.179   5.620   1.988  0.2071  0.1130 -0.0155
 2746poe    c2311347   6.061   5.712   1.951  0.1804  0.0301 -0.1368
 2746poe     o211348   6.073   5.758   1.818 -0.0247 -0.1100 -0.2036
 2746poe    c2311349   5.982   5.863   1.791 -0.0483 -0.2041 -0.4908
 2746poe    c2311350   5.983   5.923   1.649  0.0709 -0.2578 -0.5131
 2746poe     o211351   5.913   5.844   1.555  0.0294 -0.7356 -0.0912
 2746poe    c3111352   5.824   5.925   1.482  0.7401  0.1185 -0.0339
 2747poe    c3111353   4.594   4.261   5.548  1.1422 -0.0440  0.0558
 2747poe     o211354   4.574   4.377   5.470  0.4866  0.0311  0.3280
 2747poe    c2311355   4.570   4.501   5.537  0.1919  0.2934 -0.1692
 2747poe    c2311356   4.434   4.558   5.583 -0.0660 -0.3029 -0.1801
 2747poe     o211357   4.364   4.479   5.677 -0.4389 -0.2435 -0.4050
 2747poe    c2311358   4.235   4.524   5.710 -0.4370  0.0431 -0.7875
 2747poe    c2311359   4.142   4.417   5.771 -0.1673  0.3827  0.2262
 2747poe     o211360   4.101   4.324   5.674  0.0362  0.1895  0.3245
 2747poe    c2311361   4.053   4.205   5.732 -0.0303  0.1528  0.1945
 2747poe    c2311362   3.967   4.115   5.642  0.1157  0.1045  0.1028
 2747poe     o211363   3.840   4.176   5.652  0.0615  0.0035  0.0438
 2747poe    c3111364   3.740   4.116   5.573 -0.0805 -0.0876  0.2903
 2748poe    c3111365   2.657   7.091   2.759  0.1469 -0.4779 -0.3368
 2748poe     o211366   2.583   7.156   2.657  0.2579 -0.3636 -0.3446
 2748poe    c2311367   2.662   7.162   2.540  0.7832  0.7088  0.0541
 2748poe    c2311368   2.614   7.280   2.454  0.0561  0.0053 -0.5207
 2748poe     o211369   2.679   7.399   2.491  0.4178 -0.3479 -0.0183
 2748poe    c2311370   2.626   7.497   2.405 -0.3391 -0.6659  0.0791
 2748poe    c2311371   2.686   7.636   2.435 -0.0743 -0.9344  0.8247
 2748poe     o211372   2.670   7.679   2.568  0.2211  0.1367  0.5227
 2748poe    c2311373   2.749   7.790   2.607 -0.1673  0.5541  0.1217
 2748poe    c2311374   2.700   7.868   2.730  0.4346  0.9018  0.1448
 2748poe     o211375   2.684   7.793   2.849  0.1880  0.4596 -0.1625
 2748poe    c3111376   2.644   7.883   2.950  0.1429  0.0500  0.1897
 2749poe    c3111377   0.772   0.076   6.736 -0.3740  0.0681 -0.1376
 2749poe     o211378   0.815   0.203   6.779 -0.2192 -0.1209  0.2647
 2749poe    c2311379   0.787   0.298   6.679  0.1922 -0.1305  0.1421
 2749poe    c2311380   0.732   0.430   6.734 -0.0019 -0.1988  0.1100
 2749poe     o211381   0.807   0.471   6.845  0.1894 -0.4922  0.0882
 2749poe    c2311382   0.783   0.603   6.887 -0.3060 -0.5668  0.0478
 2749poe    c2311383   0.845   0.651   7.020  0.0355  0.2258 -0.3875
 2749poe     o211384   0.984   0.669   7.005  0.1454 -0.0701  0.2341
 2749poe    c2311385   1.046   0.649   7.130  0.0803 -0.0600  0.2677
 2749poe    c2311386   1.197   0.623   7.111  0.0390 -0.1119  0.0115
 2749poe     o211387   1.226   0.503   7.043 -0.1712 -0.1259 -0.0557
 2749poe    c3111388   1.363   0.485   7.018 -0.0938  0.0590  0.2243
 2750poe    c3111389   6.534   1.773   6.167 -0.0371 -0.0749 -0.2358
 2750poe     o211390   6.649   1.850   6.191 -0.1707  0.1341 -0.2657
 2750poe    c2311391   6.626   1.984   6.229  0.0115  0.0649  0.0968
 2750poe    c2311392   6.758   2.058   6.256  0.2084 -0.1065 -0.3774
 2750poe     o211393   6.846   2.062   6.146  0.5401 -0.2176 -0.1179
 2750poe    c2311394   6.975   2.102   6.187  0.4772 -0.3259  0.1861
 2750poe    c2311395   7.047   2.161   6.065 -0.2926 -0.0344 -0.1366
 2750poe     o211396   7.027   2.070   5.959 -0.0160 -0.0134 -0.2079
 2750poe    c2311397   7.122   2.084   5.855 -0.0108  0.2072 -0.1753
 2750poe    c2311398   7.073   1.975   5.757  0.3105 -0.2644  0.1858
 2750poe     o211399   6.933   1.966   5.772  0.2666 -0.2343 -0.2079
 2750poe    c3111400   6.877   1.923   5.650 -0.1242  0.1936 -0.1831
 2751poe    c3111401   1.446   6.297   3.579  0.0400  0.3235 -0.3871
 2751poe     o211402   1.442   6.421   3.512 -0.5169 -0.0219 -1.0040
 2751poe    c2311403   1.555   6.451   3.434  0.0625  0.0815 -0.1416
 2751poe    c2311404   1.541   6.595   3.379 -0.1806  0.2980  0.4806
 2751poe     o211405   1.407   6.633   3.363 -0.2312 -0.3982 -0.9211
 2751poe    c2311406   1.402   6.767   3.321 -0.2972 -0.2523 -0.4592
 2751poe    c2311407   1.262   6.805   3.269 -0.4688 -0.0123  0.1783
 2751poe     o211408   1.158   6.817   3.364 -0.0734  0.1600  0.5980
 2751poe    c2311409   1.172   6.937   3.436  0.3027  0.2617  0.3602
 2751poe    c2311410   1.077   6.935   3.558 -0.4426  0.2330 -0.2165
 2751poe     o211411   1.095   6.823   3.641 -0.6800  0.1901 -0.2210
 2751poe    c3111412   0.976   6.810   3.715 -0.7847 -0.2896 -0.4709
 2752poe    c3111413   1.028   2.162   0.934 -0.2176  0.8555  0.1877
 2752poe     o211414   1.021   2.272   0.846 -0.3213  0.3607 -0.4387
 2752poe    c2311415   1.145   2.299   0.785  0.0725 -0.0416  0.1764
 2752poe    c2311416   1.244   2.382   0.869  0.3331  0.0728 -0.2394
 2752poe     o211417   1.312   2.315   0.974 -0.1789  0.1990  0.1792
 2752poe    c2311418   1.340   2.401   1.082  0.7641  0.4952 -0.2823
 2752poe    c2311419   1.447   2.352   1.181  0.0834 -0.3718  0.0455
 2752poe     o211420   1.408   2.252   1.273 -0.1960  0.1929  0.5495
 2752poe    c2311421   1.424   2.116   1.239 -0.3509  0.2573  0.2131
 2752poe    c2311422   1.377   2.032   1.360 -0.2797 -0.2387 -0.1037
 2752poe     o211423   1.471   2.049   1.464 -0.0069 -0.2915 -0.3402
 2752poe    c3111424   1.426   1.977   1.576 -0.2145 -0.0322 -0.2572
 2753poe    c3111425   4.194   0.139   4.876 -0.0506  0.3192  0.3386
 2753poe     o211426   4.148   0.107   5.005  0.2512 -0.0010  0.3675
 2753poe    c2311427   4.049   0.196   5.052 -0.0037 -0.0354 -0.1089
 2753poe    c2311428   4.030   0.196   5.204  0.1705 -0.3635 -0.0871
 2753poe     o211429   3.951   0.091   5.257 -0.0152 -0.3212 -0.2811
 2753poe    c2311430   3.890   0.119   5.381 -0.0264 -0.0266 -0.3513
 2753poe    c2311431   3.784   0.017   5.426  0.3181  0.0055  0.5598
 2753poe     o211432   3.839  -0.100   5.483  0.5172  0.0171  0.3938
 2753poe    c2311433   3.738  -0.197   5.499  0.3918  0.1617  0.4818
 2753poe    c2311434   3.774  -0.341   5.539 -0.0963  0.0198  0.4107
 2753poe     o211435   3.806  -0.433   5.437 -0.5803 -0.0358  0.3051
 2753poe    c3111436   3.816  -0.558   5.502 -0.1566 -0.1510  0.0235
 2754poe    c3111437   6.868   4.256   2.040 -0.0861  0.6095  0.2309
 2754poe     o211438   6.997   4.282   2.092 -0.0638  0.2841  0.3397
 2754poe    c2311439   7.011   4.281   2.232 -0.9435 -0.0790  0.4365
 2754poe    c2311440   6.972   4.161   2.320 -1.0627 -0.1679  0.2625
 2754poe     o211441   7.046   4.041   2.321 -0.3110  0.2941  0.2760
 2754poe    c2311442   6.975   3.933   2.376 -0.0354  0.0771  0.2079
 2754poe    c2311443   7.084   3.825   2.389  0.1994  0.4072  0.9649
 2754poe     o211444   7.171   3.828   2.278 -0.2628 -0.3924  0.5773
 2754poe    c2311445   7.210   3.694   2.255  0.1204 -0.2235  0.2337
 2754poe    c2311446   7.361   3.677   2.230 -0.0242 -0.5780 -0.3945
 2754poe     o211447   7.404   3.763   2.127 -0.3830  0.2777  0.1586
 2754poe    c3111448   7.544   3.773   2.138 -0.3602 -0.3378  0.4784
 2755poe    c3111449   3.407   4.912   6.108 -0.1275  0.0734  0.1905
 2755poe     o211450   3.311   4.873   6.204 -0.4415 -0.2555 -0.2514
 2755poe    c2311451   3.221   4.791   6.134  0.0316 -0.7672 -0.2688
 2755poe    c2311452   3.113   4.727   6.223 -0.2533 -0.3512 -0.3119
 2755poe     o211453   3.021   4.809   6.291  0.2020 -0.2100  0.1354
 2755poe    c2311454   2.892   4.807   6.233  0.1848  0.3762  0.1475
 2755poe    c2311455   2.787   4.891   6.308 -0.4867 -0.3897  0.0791
 2755poe     o211456   2.835   5.022   6.329 -0.1550 -0.5136  0.1151
 2755poe    c2311457   2.733   5.086   6.403  0.1861  0.2346 -0.0545
 2755poe    c2311458   2.762   5.222   6.471 -0.2482  0.2697  0.0617
 2755poe     o211459   2.784   5.321   6.374 -0.7903 -0.1182 -0.4714
 2755poe    c3111460   2.800   5.451   6.427 -0.0990 -0.3243 -0.1589
 2756poe    c3111461   0.275   3.445   0.886  0.4139 -0.5204  0.0399
 2756poe     o211462   0.356   3.331   0.872 -0.1917 -0.9401 -0.1158
 2756poe    c2311463   0.476   3.350   0.944 -0.5020 -0.1112  0.1862
 2756poe    c2311464   0.589   3.254   0.901 -0.1937  0.2281  0.2368
 2756poe     o211465   0.546   3.121   0.920  0.1270  0.0308 -0.4218
 2756poe    c2311466   0.644   3.021   0.899  0.0748 -0.0883 -0.1030
 2756poe    c2311467   0.598   2.877   0.928  0.6148 -0.1838  0.2848
 2756poe     o211468   0.558   2.864   1.063  0.6322 -0.0246  0.3064
 2756poe    c2311469   0.495   2.741   1.090 -0.0886  0.2981  0.1105
 2756poe    c2311470   0.514   2.721   1.242 -0.1095  0.0593  0.0823
 2756poe     o211471   0.496   2.844   1.308  0.7533  0.0911  0.2633
 2756poe    c3111472   0.513   2.840   1.447  0.4650 -0.2851  0.2897
 2757poe    c3111473   2.816   5.031   3.419 -0.1522 -0.2181 -0.1456
 2757poe     o211474   2.845   5.141   3.501 -0.2017  0.0576 -0.4969
 2757poe    c2311475   2.744   5.175   3.593  0.0952 -0.1957 -0.0736
 2757poe    c2311476   2.815   5.236   3.716  0.5306 -0.4120 -0.2153
 2757poe     o211477   2.916   5.324   3.671  0.1091  0.2757  0.1739
 2757poe    c2311478   2.979   5.381   3.784 -0.0289 -0.1321  0.4581
 2757poe    c2311479   3.115   5.446   3.752 -0.2611  0.2602  0.2578
 2757poe     o211480   3.208   5.349   3.710 -0.2265  0.0627  0.7735
 2757poe    c2311481   3.309   5.419   3.640 -0.2297 -0.6452  0.0507
 2757poe    c2311482   3.421   5.322   3.598  0.2405 -0.3333  0.5739
 2757poe     o211483   3.376   5.222   3.509  0.1730 -0.1527  0.4069
 2757poe    c3111484   3.489   5.149   3.467 -0.0966 -0.4659  0.2223
 2758poe    c3111485   2.947   4.607   5.666 -0.1136  0.2283  0.2366
 2758poe     o211486   2.851   4.551   5.580  0.2210 -0.0460  0.0377
 2758poe    c2311487   2.739   4.509   5.655  0.3254  0.0727  0.2595
 2758poe    c2311488   2.631   4.450   5.563 -0.3167  0.5747  0.6787
 2758poe     o211489   2.636   4.515   5.438 -0.0212  0.0903  0.4344
 2758poe    c2311490   2.566   4.440   5.342  0.6750 -0.2497  0.1831
 2758poe    c2311491   2.562   4.499   5.200 -0.4808 -0.1715  0.2400
 2758poe     o211492   2.479   4.606   5.159 -0.0161  0.2597  0.4188
 2758poe    c2311493   2.527   4.687   5.055 -0.5745 -0.3167 -0.3053
 2758poe    c2311494   2.510   4.836   5.092 -0.0836 -0.4260  0.3832
 2758poe     o211495   2.580   4.863   5.211  0.3029 -0.0943  0.0837
 2758poe    c3111496   2.575   5.004   5.216 -0.2049 -0.1061 -0.0218
 2759poe    c3111497   7.132   0.720   5.583 -0.1022  0.2658  0.0675
 2759poe     o211498   7.152   0.812   5.478 -0.2498  0.4206  0.1742
 2759poe    c2311499   7.114   0.767   5.349 -0.1921  0.0340  0.2893
 2759poe    c2311500   7.097   0.894   5.263 -0.5284  0.0609  0.3917
 2759poe     o211501   7.224   0.943   5.226 -0.7341 -0.4477 -1.0264
 2759poe    c2311502   7.208   1.044   5.129  0.0957  0.2602 -0.4419
 2759poe    c2311503   7.208   1.184   5.193  0.2171 -0.0190  0.1769
 2759poe     o211504   7.321   1.211   5.273  0.1667  0.0169  0.2357
 2759poe    c2311505   7.336   1.349   5.298 -0.2753  0.1604 -0.2778
 2759poe    c2311506   7.468   1.359   5.376  0.0254 -0.2170 -0.7270
 2759poe     o211507   7.471   1.253   5.469  0.2462  0.2520 -0.1920
 2759poe    c3111508   7.564   1.289   5.570  0.4778  0.1932 -0.3823
 2760poe    c3111509   3.420   4.968   0.980 -0.0308 -0.2234 -0.1257
 2760poe     o211510   3.447   4.975   1.119 -0.2311  0.0753 -0.1029
 2760poe    c2311511   3.387   5.095   1.164 -0.4241 -0.2280  0.4490
 2760poe    c2311512   3.428   5.117   1.311 -0.2747 -0.0706  0.3844
 2760poe     o211513   3.375   5.015   1.393 -0.0853 -0.2032  0.3415
 2760poe    c2311514   3.438   5.022   1.519  0.4886  0.0686  0.0464
 2760poe    c2311515   3.376   4.913   1.609 -0.3113  0.4452 -0.0345
 2760poe     o211516   3.403   4.790   1.546 -0.3605  0.2459  0.3325
 2760poe    c2311517   3.377   4.685   1.637  0.3891  0.0534  0.3289
 2760poe    c2311518   3.413   4.551   1.570 -0.2886  0.0618 -0.0588
 2760poe     o211519   3.373   4.566   1.436 -1.0904 -0.6232  0.0917
 2760poe    c3111520   3.383   4.444   1.366  0.7974 -0.2666 -0.3171
 2761poe    c3111521   4.302   1.974   2.264 -0.3046 -0.1932 -0.5238
 2761poe     o211522   4.171   1.932   2.296 -0.2856 -0.1733 -0.4219
 2761poe    c2311523   4.158   1.795   2.269  0.2190 -0.3406  0.1555
 2761poe    c2311524   4.040   1.730   2.344 -0.0267  0.3822  0.4034
 2761poe     o211525   3.917   1.735   2.276 -0.0505 -0.5226  0.3624
 2761poe    c2311526   3.835   1.630   2.321 -0.3909 -0.5721 -0.3467
 2761poe    c2311527   3.692   1.636   2.264 -0.4426  0.0848 -0.1588
 2761poe     o211528   3.692   1.609   2.125 -0.0779 -0.2538 -0.0933
 2761poe    c2311529   3.567   1.586   2.065 -0.1411 -0.6226  0.1724
 2761poe    c2311530   3.588   1.494   1.943 -0.0363 -0.1538 -0.1643
 2761poe     o211531   3.648   1.555   1.831 -0.0414  0.4367  0.1472
 2761poe    c3111532   3.710   1.447   1.763 -0.2319  0.3457  0.1160
 2762poe    c3111533   6.230   4.054   0.975  0.2783 -0.4851 -0.0365
 2762poe     o211534   6.307   4.016   1.087 -0.1875 -0.3161  0.3458
 2762poe    c2311535   6.441   4.058   1.077 -0.2542 -0.0316  0.6209
 2762poe    c2311536   6.528   3.988   1.183 -0.0416 -0.3235  0.2608
 2762poe     o211537   6.497   4.037   1.312  0.5961 -0.0672  0.3192
 2762poe    c2311538   6.551   3.962   1.419  0.1654 -0.8197  0.0197
 2762poe    c2311539   6.448   3.866   1.483 -0.1618 -0.6371 -0.2298
 2762poe     o211540   6.346   3.937   1.549  0.1544 -0.2025 -0.1959
 2762poe    c2311541   6.281   3.858   1.646 -0.6292  0.4163 -0.2036
 2762poe    c2311542   6.177   3.942   1.722  0.0139  1.0929 -0.0593
 2762poe     o211543   6.052   3.957   1.658 -0.2178  0.4164  0.2263
 2762poe    c3111544   5.972   4.011   1.761 -0.0639  0.9828  0.0515
 2763poe    c3111545   6.449   5.054   3.635 -0.6722 -0.8009 -0.6487
 2763poe     o211546   6.550   4.967   3.588  0.0293 -0.3353 -0.0172
 2763poe    c2311547   6.592   4.997   3.457 -0.3104  0.0281 -0.0464
 2763poe    c2311548   6.666   4.873   3.404 -0.2504  0.0800 -0.0842
 2763poe     o211549   6.761   4.845   3.505  0.0087  0.6682 -0.1638
 2763poe    c2311550   6.868   4.763   3.462 -0.2819  0.0644  0.2537
 2763poe    c2311551   6.998   4.760   3.544 -0.1657  0.2130  0.0763
 2763poe     o211552   6.979   4.683   3.661 -0.1899  0.5938  0.3240
 2763poe    c2311553   7.099   4.652   3.729 -0.0881  0.1065 -0.0758
 2763poe    c2311554   7.068   4.592   3.867 -0.3638 -0.4566 -0.3788
 2763poe     o211555   7.057   4.451   3.865 -0.1039 -0.4814 -0.0463
 2763poe    c3111556   6.926   4.404   3.838 -0.1518 -0.3345 -0.0732
 2764poe    c3111557   3.617   1.219   2.854  0.5444  0.4756 -0.3825
 2764poe     o211558   3.643   1.296   2.969  0.1320  0.7567 -0.4727
 2764poe    c2311559   3.568   1.279   3.087  0.4222 -0.0673 -0.4026
 2764poe    c2311560   3.635   1.347   3.208 -0.4840  0.2849 -0.0923
 2764poe     o211561   3.755   1.286   3.250 -0.4401  0.3095 -0.1840
 2764poe    c2311562   3.817   1.346   3.362 -0.1092 -0.1877 -0.0998
 2764poe    c2311563   3.811   1.242   3.475 -0.1577  0.2233  0.2796
 2764poe     o211564   3.902   1.134   3.466  0.0398  0.3845  0.3480
 2764poe    c2311565   3.909   1.079   3.596 -0.0144 -0.3172  0.0570
 2764poe    c2311566   3.818   0.959   3.628 -0.0363 -0.2344  0.3057
 2764poe     o211567   3.851   0.853   3.542 -0.0097  0.1762 -0.1936
 2764poe    c3111568   3.753   0.751   3.540  0.1868 -0.0182  0.1947
 2765poe    c3111569   5.353   5.395   4.658 -0.4183  0.2452  0.2101
 2765poe     o211570   5.320   5.532   4.648 -0.0601  0.3325  0.2318
 2765poe    c2311571   5.431   5.618   4.666 -0.0693  0.4605 -0.3030
 2765poe    c2311572   5.425   5.768   4.634  0.1049  0.4526 -0.3741
 2765poe     o211573   5.388   5.779   4.498 -0.5620 -0.6830 -0.2967
 2765poe    c2311574   5.369   5.911   4.454 -0.5696 -0.4487  0.3896
 2765poe    c2311575   5.328   5.918   4.305  0.1841  0.3028  0.2042
 2765poe     o211576   5.203   5.862   4.270  0.2015  0.5792 -0.2927
 2765poe    c2311577   5.085   5.918   4.322 -0.0817 -0.4166  0.1424
 2765poe    c2311578   4.968   5.818   4.314 -0.3508 -0.0645 -0.3963
 2765poe     o211579   4.980   5.696   4.384  0.4526  0.1284 -0.1870
 2765poe    c3111580   5.031   5.599   4.296  0.4207 -0.1148  0.0581
 2766poe    c3111581   4.835   3.041   4.449 -0.3940  0.5270  0.1131
 2766poe     o211582   4.698   3.065   4.467 -0.4600 -0.3363  0.8257
 2766poe    c2311583   4.666   3.199   4.434 -0.3615 -0.3095  0.8390
 2766poe    c2311584   4.519   3.228   4.470 -0.4913  0.1149 -0.0090
 2766poe     o211585   4.426   3.207   4.366 -0.0393  0.0476 -0.4075
 2766poe    c2311586   4.303   3.172   4.425  0.0575  0.0798 -0.1857
 2766poe    c2311587   4.186   3.174   4.325 -0.0237 -0.3408 -0.1014
 2766poe     o211588   4.167   3.293   4.252 -0.5199  0.0880  0.7164
 2766poe    c2311589   4.071   3.276   4.150  0.1770  0.1930  0.0359
 2766poe    c2311590   4.055   3.395   4.054 -0.2243  0.1719  0.0731
 2766poe     o211591   4.156   3.400   3.955 -0.1176 -0.0933  0.1660
 2766poe    c3111592   4.143   3.517   3.877 -0.0353 -0.5071 -0.4670
 2767poe    c3111593   1.994   1.436   5.008 -0.4171  0.6501  0.3490
 2767poe     o211594   2.076   1.551   5.001 -0.1806  0.4333 -0.4963
 2767poe    c2311595   2.207   1.537   4.951 -0.1353 -0.1934 -0.2100
 2767poe    c2311596   2.271   1.656   4.876 -0.3295  0.2232  0.2818
 2767poe     o211597   2.231   1.659   4.741  0.0517  0.2875  0.1709
 2767poe    c2311598   2.259   1.792   4.703  0.4076  0.1426 -0.0779
 2767poe    c2311599   2.250   1.811   4.550  0.4182 -0.8668 -0.2101
 2767poe     o211600   2.133   1.749   4.499 -0.6633  0.3893  0.6722
 2767poe    c2311601   2.136   1.757   4.358  0.2267 -0.6199  0.6229
 2767poe    c2311602   2.034   1.664   4.289 -0.1476  0.0698  0.2376
 2767poe     o211603   1.904   1.692   4.334 -0.0675  0.0570  0.4776
 2767poe    c3111604   1.816   1.583   4.322  0.0817  0.0416 -0.5998
 2768poe    c3111605   0.241   1.738   5.853 -0.0874 -0.0768  0.0934
 2768poe     o211606   0.213   1.766   5.988 -0.4578 -0.2893  0.0639
 2768poe    c2311607   0.158   1.651   6.047  0.3665 -0.6667  0.1180
 2768poe    c2311608   0.087   1.686   6.179  0.0896 -0.3319 -0.1170
 2768poe     o211609   0.139   1.808   6.228 -0.2768 -0.0388 -0.4528
 2768poe    c2311610   0.066   1.843   6.343 -0.3331 -0.0010 -0.5000
 2768poe    c2311611   0.125   1.975   6.396 -0.1204 -0.4425  0.3891
 2768poe     o211612   0.127   2.080   6.302  0.4863 -0.6165  0.2011
 2768poe    c2311613   0.209   2.187   6.341  0.1435 -0.1821 -0.2546
 2768poe    c2311614   0.197   2.303   6.240 -0.3353 -0.0732 -0.0746
 2768poe     o211615   0.251   2.301   6.110 -0.3094  0.1920 -0.0696
 2768poe    c3111616   0.202   2.411   6.037 -0.1623 -0.0169 -0.4887
 2769poe    c3111617   3.382   4.515   2.269  0.0783 -0.4606  0.5132
 2769poe     o211618   3.289   4.422   2.217 -0.3341  0.2069  0.0463
 2769poe    c2311619   3.316   4.291   2.260 -0.7468  0.1581  0.1663
 2769poe    c2311620   3.271   4.177   2.168  0.4247 -0.2801  0.1096
 2769poe     o211621   3.130   4.174   2.166  0.4212  0.0890 -0.3008
 2769poe    c2311622   3.075   4.052   2.123 -0.0652  0.2384 -0.1208
 2769poe    c2311623   2.925   4.056   2.159 -0.1645 -0.6890 -0.4060
 2769poe     o211624   2.879   4.175   2.100  0.0886 -0.3533  0.0724
 2769poe    c2311625   2.739   4.187   2.110  0.1637  0.4858  0.1810
 2769poe    c2311626   2.700   4.318   2.038 -0.0921  0.1578 -0.2838
 2769poe     o211627   2.778   4.430   2.073  0.9508 -0.5854 -0.1619
 2769poe    c3111628   2.712   4.542   2.017  0.1357 -0.7921  0.3623
 2770poe    c3111629   1.972   0.188   5.569 -0.5767 -0.1901 -0.1691
 2770poe     o211630   2.035   0.072   5.519 -0.2414  0.0711 -0.3577
 2770poe    c2311631   2.070   0.099   5.385  0.0819 -0.0681 -0.3008
 2770poe    c2311632   2.148  -0.026   5.340  0.4418  0.0166  0.0801
 2770poe     o211633   2.078  -0.148   5.351 -0.1276  0.2896 -0.4672
 2770poe    c2311634   2.133  -0.254   5.275 -0.7070 -0.1884 -0.2308
 2770poe    c2311635   2.082  -0.383   5.342 -0.3163 -0.2065  0.0333
 2770poe     o211636   2.145  -0.407   5.466 -0.3034 -0.4825 -0.0264
 2770poe    c2311637   2.129  -0.542   5.502  0.1482 -0.5312 -0.0005
 2770poe    c2311638   2.099  -0.589   5.646 -0.3130  0.3223  0.1906
 2770poe     o211639   1.975  -0.531   5.679 -0.3630  0.1543  0.3023
 2770poe    c3111640   1.936  -0.540   5.814 -0.6020  0.0473  0.2268
 2771poe    c3111641   1.060   4.640   5.320 -1.0465 -0.0639  0.0886
 2771poe     o211642   1.084   4.522   5.394 -0.0749 -0.1732 -0.3802
 2771poe    c2311643   1.020   4.411   5.334  0.1629 -0.4915 -0.0467
 2771poe    c2311644   1.041   4.278   5.408 -0.8174 -0.4866  0.2526
 2771poe     o211645   1.018   4.286   5.547  0.4111  0.4782  0.4092
 2771poe    c2311646   1.103   4.209   5.628  0.2457 -0.0397  0.0955
 2771poe    c2311647   1.055   4.221   5.774 -0.0300  0.0763 -0.0056
 2771poe     o211648   1.079   4.352   5.820 -0.4560  0.1592 -0.0092
 2771poe    c2311649   1.099   4.348   5.959  0.3083  1.1125 -0.0800
 2771poe    c2311650   1.131   4.483   6.027  0.3032  0.5911  0.9907
 2771poe     o211651   1.021   4.570   6.017 -0.1304 -0.0231  0.2867
 2771poe    c3111652   1.057   4.701   6.055  0.7953 -0.0946 -0.3160
 2772poe    c3111653   1.211   2.407   6.901 -0.4102  0.2134  0.1940
 2772poe     o211654   1.260   2.290   6.962 -0.5295 -0.1796 -0.4601
 2772poe    c2311655   1.168   2.215   7.038 -0.7853  0.5107 -0.0815
 2772poe    c2311656   1.050   2.145   6.969 -0.6123  0.1703 -0.0380
 2772poe     o211657   1.091   2.040   6.884 -0.3937 -0.3086  0.6586
 2772poe    c2311658   0.972   1.981   6.836 -0.2556  0.0617 -0.1405
 2772poe    c2311659   0.997   1.850   6.760 -0.2449 -0.0795  0.1062
 2772poe     o211660   1.033   1.867   6.624 -0.3266  0.0607  0.1026
 2772poe    c2311661   1.080   1.748   6.566 -0.1039 -0.0663  0.5368
 2772poe    c2311662   1.138   1.774   6.425  0.6138 -0.0200  0.8371
 2772poe     o211663   1.235   1.877   6.431  0.5763  0.0588  0.0936
 2772poe    c3111664   1.287   1.897   6.301  0.1586  0.4413 -0.0169
 2773poe    c3111665   2.099   3.696   1.379  0.3714  0.5151  0.0137
 2773poe     o211666   1.974   3.678   1.315  0.5477 -0.3668 -0.1082
 2773poe    c2311667   1.916   3.557   1.356  0.3200 -0.2763 -0.1614
 2773poe    c2311668   1.800   3.507   1.267  0.0259  0.0441  0.0417
 2773poe     o211669   1.834   3.477   1.133 -0.3079  0.1650 -0.0709
 2773poe    c2311670   1.737   3.520   1.040 -0.4580 -0.5649 -0.2579
 2773poe    c2311671   1.767   3.665   0.998 -0.0336 -0.4887  0.2931
 2773poe     o211672   1.881   3.667   0.915  0.3584  0.3207  0.8374
 2773poe    c2311673   1.922   3.797   0.877  0.2878  0.0784 -0.0974
 2773poe    c2311674   1.977   3.890   0.987 -0.0264  0.3056 -0.1337
 2773poe     o211675   2.109   3.866   1.028  0.0284  0.5614 -0.1565
 2773poe    c3111676   2.198   3.975   1.036 -0.0658  0.5911  0.6357
 2774poe    c3111677   2.667   2.998   0.866  0.8541  0.5896  0.3529
 2774poe     o211678   2.688   3.136   0.849  0.6706  0.5701 -0.0452
 2774poe    c2311679   2.632   3.201   0.961  0.2843  0.0803  0.0508
 2774poe    c2311680   2.679   3.348   0.968  0.3538  0.0686 -0.1670
 2774poe     o211681   2.692   3.395   0.836  0.1365 -0.3400 -0.3371
 2774poe    c2311682   2.763   3.517   0.836 -0.0066 -0.2558 -0.0542
 2774poe    c2311683   2.772   3.548   0.685 -0.3437  0.2453  0.0239
 2774poe     o211684   2.839   3.441   0.622 -0.1581  0.1107  0.4454
 2774poe    c2311685   2.881   3.479   0.493 -0.0036 -0.2090  0.3983
 2774poe    c2311686   2.999   3.393   0.446 -0.1933  0.0042 -0.4824
 2774poe     o211687   2.962   3.256   0.442  0.2352 -0.1253 -0.0763
 2774poe    c3111688   3.068   3.164   0.435  0.6221  0.3211 -0.1825
 2775poe    c3111689   5.941   3.986   2.730  0.0306  0.0693  0.1363
 2775poe     o211690   5.958   4.101   2.810 -0.0348  0.1279  0.0665
 2775poe    c2311691   5.929   4.080   2.947 -0.0177 -0.4826 -0.0224
 2775poe    c2311692   5.980   4.194   3.037  0.4426 -0.1061 -0.7478
 2775poe     o211693   6.121   4.191   3.046  0.4060 -0.4259 -0.2540
 2775poe    c2311694   6.186   4.291   3.121 -0.0132 -0.6909  0.4726
 2775poe    c2311695   6.337   4.276   3.094  0.0679  0.5436  0.1714
 2775poe     o211696   6.372   4.300   2.960 -0.2080 -0.1725 -0.0365
 2775poe    c2311697   6.512   4.286   2.954 -0.1437  0.5230 -0.2644
 2775poe    c2311698   6.565   4.259   2.812 -0.0499  0.1348 -0.1557
 2775poe     o211699   6.528   4.138   2.749 -0.2340  0.5155 -0.7850
 2775poe    c3111700   6.651   4.081   2.710 -0.2135 -0.1143  0.1719
 2776poe    c3111701   2.830   1.657   6.504 -0.2982 -0.1660  0.0582
 2776poe     o211702   2.859   1.731   6.620 -0.3380  0.2235 -0.1778
 2776poe    c2311703   2.778   1.679   6.722  0.1023  0.5913  0.3718
 2776poe    c2311704   2.801   1.740   6.861  0.2481  0.5071  0.3840
 2776poe     o211705   2.814   1.880   6.862 -0.1248  0.5516 -0.7554
 2776poe    c2311706   2.858   1.903   6.994 -0.5967 -0.4743 -0.4063
 2776poe    c2311707   2.929   2.040   6.987 -1.0676 -0.2360 -0.5993
 2776poe     o211708   3.043   2.039   6.905 -0.3673  0.4084  0.3484
 2776poe    c2311709   3.132   2.123   6.975  0.1200  0.8094 -0.7284
 2776poe    c2311710   3.274   2.064   6.982  0.1344  0.8513 -0.6661
 2776poe     o211711   3.329   2.024   6.859  0.3690 -0.4374 -0.1563
 2776poe    c3111712   3.437   1.938   6.888  0.3950 -0.3149  0.1141
 2777poe    c3111713   6.269   1.956   2.332 -0.6768 -0.1655 -0.3778
 2777poe     o211714   6.331   1.905   2.215  0.0242  0.3313 -0.2260
 2777poe    c2311715   6.267   1.933   2.093  0.2263  0.3283 -0.3322
 2777poe    c2311716   6.130   1.870   2.063  0.3393 -0.1009  0.0366
 2777poe     o211717   6.126   1.730   2.042 -0.8429 -0.0823  0.0666
 2777poe    c2311718   5.993   1.682   2.039 -0.9908  0.3374 -0.3218
 2777poe    c2311719   5.990   1.530   2.018 -0.1834  0.2186  0.3601
 2777poe     o211720   6.046   1.447   2.118 -0.0271  0.3527  0.3839
 2777poe    c2311721   6.037   1.307   2.107 -0.1154  0.3985 -0.1695
 2777poe    c2311722   5.907   1.233   2.146  0.4184 -0.6029 -0.2617
 2777poe     o211723   5.807   1.237   2.047  0.2953  0.6460 -0.1108
 2777poe    c3111724   5.676   1.220   2.095  0.4017 -0.0590 -0.0513
 2778poe    c3111725   0.758   3.513   2.956 -0.7925 -0.2724 -0.3989
 2778poe     o211726   0.753   3.398   3.038  0.1220  0.0634  0.1393
 2778poe    c2311727   0.673   3.303   2.973  0.0850 -0.1083  0.4356
 2778poe    c2311728   0.616   3.199   3.072 -0.1487 -0.6481 -0.2531
 2778poe     o211729   0.711   3.110   3.124  0.2539  0.1250  0.3674
 2778poe    c2311730   0.663   3.028   3.228 -0.3775  0.0039 -0.0128
 2778poe    c2311731   0.780   2.934   3.262 -0.3645  0.2461  0.6467
 2778poe     o211732   0.887   3.013   3.307  0.3888 -0.1316 -0.4164
 2778poe    c2311733   0.991   2.934   3.360  0.4087  0.0651 -0.1571
 2778poe    c2311734   1.100   3.029   3.413  0.4107 -0.0731  0.0847
 2778poe     o211735   1.108   3.120   3.306  0.1281  0.1712  0.2680
 2778poe    c3111736   1.222   3.202   3.318  0.3299  0.0756 -0.8662
 2779poe    c3111737   6.875   5.757   0.130  0.0093 -0.4470  0.4897
 2779poe     o211738   6.782   5.833   0.056  0.0071 -0.4357  0.5052
 2779poe    c2311739   6.801   5.787  -0.075 -0.0307 -0.4227  0.4956
 2779poe    c2311740   6.784   5.906  -0.172 -0.1396 -0.0921  0.9148
 2779poe     o211741   6.647   5.906  -0.203 -0.0695  0.0769  0.6042
 2779poe    c2311742   6.623   6.004  -0.303 -0.0125 -0.2133  0.3040
 2779poe    c2311743   6.476   6.044  -0.324  0.1475 -0.0144 -0.4346
 2779poe     o211744   6.419   6.019  -0.451 -0.1322  0.1463 -0.3381
 2779poe    c2311745   6.470   6.103  -0.552 -0.0389 -0.3317 -0.6898
 2779poe    c2311746   6.411   6.245  -0.555  0.2561 -0.1831  0.2632
 2779poe     o211747   6.273   6.242  -0.586  0.0794  0.0636  1.0070
 2779poe    c3111748   6.218   6.372  -0.580 -0.3309 -0.0905  0.6063
 2780poe    c3111749   5.239   5.028   7.137 -0.0676 -0.5744  0.0851
 2780poe     o211750   5.313   5.023   7.257  0.2268  0.2062 -0.0641
 2780poe    c2311751   5.358   4.894   7.292  0.8141  0.3862 -0.1364
 2780poe    c2311752   5.257   4.844   7.396  0.9869  0.5353  0.1031
 2780poe     o211753   5.252   4.916   7.518 -0.0569  0.1233  0.3195
 2780poe    c2311754   5.184   4.841   7.616  0.0221  0.0665  0.3322
 2780poe    c2311755   5.127   4.933   7.726 -0.0483 -0.0328  0.3786
 2780poe     o211756   5.024   5.017   7.678  0.3244  0.1240 -0.1505
 2780poe    c2311757   4.967   5.110   7.766  0.3780  0.1264 -0.1183
 2780poe    c2311758   4.870   5.208   7.698 -0.1210 -0.1798  0.1499
 2780poe     o211759   4.940   5.274   7.595 -0.2124  0.0747  0.2508
 2780poe    c3111760   4.840   5.355   7.537 -0.2543 -0.1865 -0.0390
 2781poe    c3111761   2.582   6.064   1.889 -0.0939 -0.2479  0.0891
 2781poe     o211762   2.642   5.937   1.896 -0.4314 -0.4219 -0.1419
 2781poe    c2311763   2.622   5.884   2.025 -0.2660  0.4232  0.2402
 2781poe    c2311764   2.672   5.739   2.011 -0.6767  0.2764  0.2571
 2781poe     o211765   2.612   5.669   1.905  0.5815 -0.0019 -0.2871
 2781poe    c2311766   2.658   5.536   1.891 -0.4519 -0.3874 -0.1061
 2781poe    c2311767   2.790   5.537   1.811 -0.4445  0.4450 -0.0922
 2781poe     o211768   2.763   5.629   1.707  0.1833  0.3144 -0.3754
 2781poe    c2311769   2.878   5.660   1.633  0.5770 -0.3695 -0.0666
 2781poe    c2311770   2.836   5.773   1.536 -0.4461 -0.5167  0.2010
 2781poe     o211771   2.800   5.884   1.616  0.2842 -0.0368 -0.1325
 2781poe    c3111772   2.908   5.971   1.639  0.0353  0.5541 -1.1536
 2782poe    c3111773   4.429   2.394   4.415  0.1956 -0.2799  0.0351
 2782poe     o211774   4.444   2.385   4.275  0.4766  0.3999  0.0155
 2782poe    c2311775   4.541   2.289   4.241  0.0930  0.1598 -0.4034
 2782poe    c2311776   4.573   2.283   4.090  0.6235 -0.1269 -0.2846
 2782poe     o211777   4.655   2.389   4.046  0.3372  0.2034 -0.0329
 2782poe    c2311778   4.644   2.395   3.906  0.0238  0.3973  0.0008
 2782poe    c2311779   4.730   2.514   3.860  0.1394  0.0967 -0.5729
 2782poe     o211780   4.869   2.487   3.866  0.1004  0.0144  0.0140
 2782poe    c2311781   4.948   2.603   3.862  0.1724 -0.0366 -0.0496
 2782poe    c2311782   5.040   2.613   3.984 -0.1191 -0.1666  0.1814
 2782poe     o211783   4.977   2.632   4.109  0.1013 -0.0465  0.2764
 2782poe    c3111784   5.061   2.679   4.212  0.0723 -0.0724  0.3121
 2783poe    c3111785   7.027   4.974   5.389  0.6019  0.5147 -0.0827
 2783poe     o211786   6.935   5.018   5.292 -0.1021  0.2473  0.4491
 2783poe    c2311787   6.804   5.032   5.341 -0.1318 -0.2586  0.5185
 2783poe    c2311788   6.696   5.070   5.238  0.3363  0.1779  0.1826
 2783poe     o211789   6.667   4.965   5.148  0.1953  0.0880  0.3323
 2783poe    c2311790   6.634   5.017   5.021 -0.0738 -0.3681  0.2125
 2783poe    c2311791   6.615   4.913   4.909 -0.5527 -0.1469  0.0893
 2783poe     o211792   6.516   4.818   4.940 -0.7079 -0.0332 -0.0548
 2783poe    c2311793   6.495   4.727   4.835 -0.5868 -0.2678  0.1227
 2783poe    c2311794   6.448   4.584   4.869  0.2263 -0.4819  0.3699
 2783poe     o211795   6.312   4.586   4.906  0.2916 -0.1520  0.5957
 2783poe    c3111796   6.275   4.460   4.957  0.0036 -0.1996  0.2715
 2784poe    c3111797   3.064   3.014   3.751  0.0569  0.3235 -0.2798
 2784poe     o211798   3.183   3.048   3.684  0.4043  0.1527  0.2461
 2784poe    c2311799   3.161   3.058   3.545 -0.1042 -0.7227  0.2562
 2784poe    c2311800   3.291   3.112   3.483 -0.4878 -0.0450  0.0313
 2784poe     o211801   3.311   3.248   3.515 -0.2062  0.0251 -0.4316
 2784poe    c2311802   3.445   3.288   3.496 -0.2257  0.1238 -0.3644
 2784poe    c2311803   3.469   3.425   3.562 -0.2758 -0.0889  0.1028
 2784poe     o211804   3.576   3.422   3.653 -0.2788  0.0332  0.1103
 2784poe    c2311805   3.621   3.549   3.696 -0.2208  0.2380 -0.5578
 2784poe    c2311806   3.587   3.590   3.840  0.4678  0.1420 -0.3617
 2784poe     o211807   3.665   3.527   3.939  0.1670  0.4704  0.0882
 2784poe    c3111808   3.678   3.387   3.937 -0.2788  0.4271  0.0480
 2785poe    c3111809   2.245   2.478   4.101 -0.3204 -0.3339  0.3592
 2785poe     o211810   2.227   2.617   4.086  0.1825 -0.2802  0.2358
 2785poe    c2311811   2.161   2.655   3.967  0.3226 -0.4585  0.1010
 2785poe    c2311812   2.132   2.805   3.949 -0.0681 -0.4586  0.6868
 2785poe     o211813   2.020   2.852   4.019  0.0186  0.3196  0.3184
 2785poe    c2311814   1.994   2.983   3.975  0.2249  0.0112 -0.7583
 2785poe    c2311815   1.907   2.988   3.848 -0.2831  0.3852 -0.4019
 2785poe     o211816   1.774   2.943   3.847 -0.0742 -0.2399 -0.2811
 2785poe    c2311817   1.748   2.807   3.819 -0.5424 -0.2665  0.2609
 2785poe    c2311818   1.612   2.757   3.871 -0.4998 -0.9561 -0.2869
 2785poe     o211819   1.611   2.729   4.009 -0.1182  0.1898 -0.0494
 2785poe    c3111820   1.501   2.652   4.051  0.0149  0.0642  0.0716
 2786poe    c3111821   4.542   3.881   1.224  0.1129 -0.1918 -0.2774
 2786poe     o211822   4.431   3.798   1.251  0.2763 -0.2790  0.1333
 2786poe    c2311823   4.477   3.664   1.253  0.8377 -0.0946 -0.1582
 2786poe    c2311824   4.359   3.567   1.235  0.3530  0.4861 -0.1259
 2786poe     o211825   4.255   3.617   1.316  0.1294  0.1028 -0.1745
 2786poe    c2311826   4.147   3.527   1.314 -0.3202  0.6413 -0.5900
 2786poe    c2311827   4.033   3.576   1.404 -0.4401 -0.4183 -0.1541
 2786poe     o211828   3.999   3.709   1.374  0.1467 -0.1832  0.2098
 2786poe    c2311829   3.919   3.773   1.471 -0.3101  0.1603 -0.3852
 2786poe    c2311830   3.850   3.897   1.411 -0.0699 -0.1032 -1.2137
 2786poe     o211831   3.931   3.998   1.354  0.2482  0.0983 -0.4154
 2786poe    c3111832   3.846   4.103   1.314 -0.2612 -0.0247  0.3133
 2787poe    c3111833   6.883   2.121   3.803 -0.1146  0.1565 -0.0438
 2787poe     o211834   6.835   2.192   3.916 -0.2603  0.4676 -0.2978
 2787poe    c2311835   6.777   2.100   4.006  0.5761 -0.2567 -0.4731
 2787poe    c2311836   6.729   2.171   4.134  0.9401  0.2861 -0.6316
 2787poe     o211837   6.819   2.208   4.236  0.3514 -0.2574  0.1006
 2787poe    c2311838   6.876   2.336   4.223 -0.0570 -0.1089 -0.2359
 2787poe    c2311839   6.961   2.395   4.337  0.2377 -0.0191 -0.5025
 2787poe     o211840   6.897   2.410   4.462  0.6385 -0.0843 -0.2862
 2787poe    c2311841   6.983   2.449   4.567  0.2094 -0.1819  0.1049
 2787poe    c2311842   6.943   2.354   4.681 -0.1118 -0.0085  0.1374
 2787poe     o211843   6.803   2.338   4.687 -0.1257  0.0255 -0.1122
 2787poe    c3111844   6.758   2.263   4.797 -0.6068  0.5152  0.0325
 2788poe    c3111845   7.140   3.236   5.167  0.3148  0.0746  0.2239
 2788poe     o211846   7.205   3.180   5.278  0.0523  0.5394  0.6168
 2788poe    c2311847   7.117   3.184   5.388 -0.5212  0.1999  0.1745
 2788poe    c2311848   7.197   3.136   5.511  0.1736  0.0060 -0.3432
 2788poe     o211849   7.275   3.021   5.489  0.2970 -0.0367  0.2998
 2788poe    c2311850   7.372   2.994   5.588  0.4859 -0.2958  0.0462
 2788poe    c2311851   7.449   2.867   5.547  0.4558 -0.3416  0.1316
 2788poe     o211852   7.509   2.884   5.421 -0.0419  0.2900 -0.0261
 2788poe    c2311853   7.626   2.805   5.418 -0.3813 -0.2290  0.2285
 2788poe    c2311854   7.645   2.773   5.269  0.1854 -0.1744  0.2854
 2788poe     o211855   7.655   2.887   5.187 -0.1319 -0.5100 -0.2285
 2788poe    c3111856   7.652   2.857   5.049  0.9648 -0.2201 -0.3241
 2789poe    c3111857   6.923   4.161   6.995  0.0973 -0.6790  0.1173
 2789poe     o211858   7.037   4.082   7.020  0.2860 -0.4756 -0.0843
 2789poe    c2311859   7.026   3.972   6.932 -0.4303 -0.6257  0.1794
 2789poe    c2311860   7.154   3.888   6.922 -0.3811 -0.5526  0.1833
 2789poe     o211861   7.267   3.956   6.873 -0.5356 -0.6520 -0.3121
 2789poe    c2311862   7.363   3.857   6.842 -0.0031 -0.2147 -0.0813
 2789poe    c2311863   7.498   3.929   6.827 -0.3159  0.3966  0.0035
 2789poe     o211864   7.483   4.055   6.765 -0.1192  0.2061 -0.4399
 2789poe    c2311865   7.605   4.124   6.748 -0.2648  0.5198 -0.2246
 2789poe    c2311866   7.572   4.263   6.691  0.4131  0.6709 -0.2534
 2789poe     o211867   7.480   4.312   6.786  0.1599 -0.0440 -0.1297
 2789poe    c3111868   7.540   4.413   6.864  0.5573 -0.1640 -0.2731
 2790poe    c3111869   2.650   4.253   3.372  0.3796 -0.1208 -0.1386
 2790poe     o211870   2.667   4.145   3.283 -0.4582 -0.0628 -0.3750
 2790poe    c2311871   2.551   4.065   3.294 -0.2938 -0.2596 -0.0516
 2790poe    c2311872   2.602   3.934   3.232  0.1185 -0.0623 -0.1299
 2790poe     o211873   2.672   3.966   3.114  0.2589 -0.0188 -0.0355
 2790poe    c2311874   2.721   3.846   3.060 -0.2751 -0.3115  0.1274
 2790poe    c2311875   2.832   3.878   2.958 -0.3279 -0.2493  0.0893
 2790poe     o211876   2.947   3.934   3.017 -0.2986 -0.2144 -0.0016
 2790poe    c2311877   3.065   3.871   2.973 -0.0983  0.3841 -0.3378
 2790poe    c2311878   3.189   3.951   3.018 -0.0989  0.1165  0.1432
 2790poe     o211879   3.221   3.957   3.155  0.2122 -0.0496  0.0777
 2790poe    c3111880   3.221   4.090   3.202  0.4772  0.0141 -0.1025
 2791poe    c3111881   5.973   1.772   3.218 -0.4189 -0.5831  0.2410
 2791poe     o211882   6.093   1.769   3.146 -0.5174 -0.1153  0.0498
 2791poe    c2311883   6.061   1.689   3.034 -0.1696 -0.6381  0.3195
 2791poe    c2311884   6.178   1.691   2.933 -0.0579 -0.2442  0.4554
 2791poe     o211885   6.196   1.825   2.893 -0.4323 -0.2078  0.3986
 2791poe    c2311886   6.305   1.824   2.802 -0.2901  0.0550  0.5658
 2791poe    c2311887   6.355   1.962   2.756  0.5296 -0.2784  0.4378
 2791poe     o211888   6.401   2.051   2.856  0.2964  0.6919 -0.3072
 2791poe    c2311889   6.425   2.176   2.795 -0.1335  0.8599 -0.1418
 2791poe    c2311890   6.440   2.279   2.908  0.4037  0.6213  0.0117
 2791poe     o211891   6.340   2.233   2.996  0.2264  0.0309 -0.4898
 2791poe    c3111892   6.349   2.307   3.115 -0.3039 -0.3608 -0.2039
 2792poe    c3111893   3.378   3.316   5.840 -0.4373 -0.3652  0.3571
 2792poe     o211894   3.475   3.313   5.942  0.2105  0.1725 -0.2275
 2792poe    c2311895   3.522   3.442   5.971  0.5072  0.2167 -0.8894
 2792poe    c2311896   3.613   3.434   6.095 -0.2933 -0.0341 -0.3092
 2792poe     o211897   3.563   3.334   6.182  0.2552 -0.0221  0.0249
 2792poe    c2311898   3.660   3.292   6.276  0.4761  0.0352 -0.1743
 2792poe    c2311899   3.648   3.144   6.318  0.1076  0.1041 -0.0314
 2792poe     o211900   3.521   3.117   6.373  0.3152  0.3608  0.5852
 2792poe    c2311901   3.539   3.033   6.486  0.4004 -0.0945  0.2378
 2792poe    c2311902   3.405   3.015   6.560  0.0062 -0.2212 -0.4979
 2792poe     o211903   3.354   3.129   6.625  0.0441 -0.2657 -0.3896
 2792poe    c3111904   3.242   3.089   6.700 -0.4667  0.4454 -0.7630
 2793poe    c3111905   2.609   6.860   1.536 -0.0091  0.2009  0.1072
 2793poe     o211906   2.609   6.735   1.602 -0.0602  0.3330  0.3570
 2793poe    c2311907   2.552   6.633   1.524  0.9242  0.0066  0.0552
 2793poe    c2311908   2.603   6.494   1.565 -0.1422 -0.3912  0.0437
 2793poe     o211909   2.742   6.475   1.558 -0.1371 -0.2606 -0.1857
 2793poe    c2311910   2.761   6.338   1.533 -0.2041 -0.2277 -0.4255
 2793poe    c2311911   2.912   6.306   1.536 -0.2831 -0.5693  0.1398
 2793poe     o211912   2.962   6.360   1.657 -0.1761 -0.3145 -0.0160
 2793poe    c2311913   3.100   6.330   1.665 -0.0817  0.1623  0.1271
 2793poe    c2311914   3.152   6.404   1.790  0.2157  0.3197 -0.0883
 2793poe     o211915   3.113   6.539   1.787 -0.3109  0.1640 -0.4361
 2793poe    c3111916   3.171   6.584   1.908 -0.5185 -0.1449 -0.2191
 2794poe    c3111917   5.462   4.233   3.739  0.4282  0.5026  0.4213
 2794poe     o211918   5.413   4.103   3.763 -0.1629  0.7322  0.4943
 2794poe    c2311919   5.273   4.111   3.765 -0.2904 -1.0369  0.2122
 2794poe    c2311920   5.211   4.085   3.904 -0.3430  0.3792  0.4713
 2794poe     o211921   5.231   3.950   3.940 -0.1192  0.4170  0.4935
 2794poe    c2311922   5.186   3.935   4.073 -0.3048 -0.1276  0.3733
 2794poe    c2311923   5.199   3.796   4.138  0.3205 -0.4917 -0.5141
 2794poe     o211924   5.332   3.761   4.169  0.2701 -0.3510 -0.1218
 2794poe    c2311925   5.354   3.625   4.200  0.2282 -0.2761  0.2412
 2794poe    c2311926   5.503   3.590   4.195  0.3681  0.3563 -0.0919
 2794poe     o211927   5.557   3.612   4.066 -0.1138 -0.1862 -0.3915
 2794poe    c3111928   5.678   3.546   4.040 -0.0192 -0.0784 -0.2264
 2795poe    c3111929   2.380   3.756   2.392 -0.0994  0.6705  0.1236
 2795poe     o211930   2.330   3.746   2.523 -0.2189 -0.2562  0.0155
 2795poe    c2311931   2.376   3.846   2.611  0.2132 -0.0531 -0.4373
 2795poe    c2311932   2.332   3.805   2.753  0.7376  0.3029 -0.1679
 2795poe     o211933   2.369   3.675   2.795 -0.1454  0.1895  0.2927
 2795poe    c2311934   2.310   3.639   2.917 -0.1513 -0.0164  0.2294
 2795poe    c2311935   2.365   3.506   2.972  0.0440  0.0893  0.2935
 2795poe     o211936   2.287   3.403   2.916  0.3075  0.0983 -0.0931
 2795poe    c2311937   2.345   3.277   2.944 -0.0111  0.1098  0.6362
 2795poe    c2311938   2.243   3.163   2.931  0.0419  0.1462 -0.1024
 2795poe     o211939   2.166   3.166   2.813 -0.3087 -0.1738  0.1167
 2795poe    c3111940   2.087   3.049   2.814  0.4051 -0.6634  0.0796
 2796poe    c3111941   6.886   6.218   6.179  0.0778  0.1448  0.5165
 2796poe     o211942   6.795   6.111   6.191 -0.1462  0.1982 -0.6201
 2796poe    c2311943   6.820   6.028   6.302  0.5526  0.5444 -0.5141
 2796poe    c2311944   6.723   6.040   6.421  0.4424 -0.2757 -0.5096
 2796poe     o211945   6.589   6.022   6.382  0.3790 -0.5870 -0.1454
 2796poe    c2311946   6.551   5.886   6.375 -0.1730 -0.4601  0.3210
 2796poe    c2311947   6.487   5.861   6.237  0.0303  0.6567  0.0099
 2796poe     o211948   6.364   5.929   6.224 -0.3057  0.0665  0.0665
 2796poe    c2311949   6.303   5.885   6.104  0.2436 -0.2080 -0.1152
 2796poe    c2311950   6.170   5.959   6.081  0.1464 -0.3894 -0.1369
 2796poe     o211951   6.213   6.082   6.134 -0.2915 -0.2502 -0.0989
 2796poe    c3111952   6.150   6.188   6.066 -0.5293 -0.0816  0.3802
 2797poe    c3111953   0.997   0.693   3.188  0.4420  0.2491  0.6136
 2797poe     o211954   1.108   0.618   3.144 -0.1932 -0.3312 -0.0210
 2797poe    c2311955   1.093   0.478   3.134 -1.3793 -0.1711 -0.6270
 2797poe    c2311956   1.223   0.423   3.074 -0.6416  0.4538  0.3685
 2797poe     o211957   1.248   0.447   2.937  0.2980 -0.0482  0.4441
 2797poe    c2311958   1.368   0.384   2.897 -0.0099 -0.3885  0.0578
 2797poe    c2311959   1.418   0.417   2.755  0.3138  0.2715  0.3231
 2797poe     o211960   1.360   0.351   2.645 -0.2555  0.7658  0.3246
 2797poe    c2311961   1.426   0.398   2.529 -0.0085 -0.4600 -0.0431
 2797poe    c2311962   1.371   0.317   2.411 -0.3898 -0.3045  0.0270
 2797poe     o211963   1.436   0.193   2.392  0.4531  0.1581 -0.1378
 2797poe    c3111964   1.372   0.122   2.288  0.1620  0.0027  0.1475
 2798poe    c3111965   4.582   2.478   6.710 -0.5509 -0.5344 -0.2420
 2798poe     o211966   4.453   2.448   6.758 -0.1643 -0.7767  0.6679
 2798poe    c2311967   4.367   2.382   6.668  0.2886 -0.2394 -0.1762
 2798poe    c2311968   4.269   2.297   6.751  0.3683 -0.2678 -0.1112
 2798poe     o211969   4.230   2.342   6.879  0.0058 -0.6674 -0.0779
 2798poe    c2311970   4.176   2.237   6.956  0.1026 -0.2865  0.5170
 2798poe    c2311971   4.146   2.285   7.099  0.2476  0.3790  0.3264
 2798poe     o211972   4.271   2.322   7.152  0.6931 -0.1042 -0.3783
 2798poe    c2311973   4.289   2.268   7.281 -0.1190 -0.1152 -0.2666
 2798poe    c2311974   4.437   2.287   7.317 -0.0183 -0.3103 -0.5787
 2798poe     o211975   4.471   2.420   7.349 -0.3063 -0.4032  0.1394
 2798poe    c3111976   4.597   2.426   7.413  0.1708 -0.2309 -0.7938
 2799poe    c3111977   5.863   6.679   2.960  0.2809 -0.0596 -0.1965
 2799poe     o211978   5.959   6.592   2.904  0.2464 -0.1501 -0.1147
 2799poe    c2311979   6.087   6.633   2.949  0.1145  0.2173 -0.0675
 2799poe    c2311980   6.202   6.574   2.866 -0.0072  0.1460 -0.1872
 2799poe     o211981   6.234   6.623   2.738  0.0550  0.3986 -0.0751
 2799poe    c2311982   6.359   6.582   2.686  0.0878  0.0236  0.2918
 2799poe    c2311983   6.351   6.624   2.538  0.0274 -0.5499  0.1288
 2799poe     o211984   6.232   6.577   2.478 -0.5346  0.1905  0.6426
 2799poe    c2311985   6.202   6.634   2.352 -0.2087  0.3376  0.6305
 2799poe    c2311986   6.066   6.589   2.295  0.1051  0.3242 -0.1208
 2799poe     o211987   5.981   6.596   2.407  0.1550 -0.0648 -0.0584
 2799poe    c3111988   5.853   6.553   2.365  0.2096  0.1047 -0.3998
 2800poe    c3111989   1.878   0.859   0.468 -0.0736 -0.4557  0.5214
 2800poe     o211990   1.876   0.954   0.572  0.2053 -0.1515  0.2495
 2800poe    c2311991   1.887   0.888   0.696  0.5256 -0.1332  0.2309
 2800poe    c2311992   1.869   0.990   0.810 -0.1141 -0.0514  0.0597
 2800poe     o211993   1.736   1.018   0.848 -0.2940 -0.1514 -0.4906
 2800poe    c2311994   1.648   0.917   0.892 -0.0017  0.0503  0.5751
 2800poe    c2311995   1.691   0.829   1.011  0.5480  0.1332  0.4370
 2800poe     o211996   1.594   0.731   1.037  0.2084  0.3050 -0.1601
 2800poe    c2311997   1.614   0.643   1.146  0.2201  0.0450 -0.3718
 2800poe    c2311998   1.473   0.613   1.200  0.3032 -0.0101 -0.1845
 2800poe     o211999   1.432   0.724   1.277 -0.0977 -0.0486 -0.3388
 2800poe    c3112000   1.300   0.717   1.325  0.1565  0.5146  0.4527
 2801poe    c3112001   4.135   4.530   4.730 -0.3813  0.2165 -0.4130
 2801poe     o212002   4.267   4.578   4.744 -0.5001  0.3710  0.2123
 2801poe    c2312003   4.356   4.470   4.761 -0.5607  0.3330  0.2856
 2801poe    c2312004   4.461   4.446   4.650 -0.6999 -0.3803  0.3005
 2801poe     o212005   4.552   4.554   4.648 -0.8101 -0.2974 -0.1314
 2801poe    c2312006   4.614   4.556   4.521  0.1418  0.5053  0.3363
 2801poe    c2312007   4.729   4.657   4.534  0.3558  0.3085 -0.0173
 2801poe     o212008   4.668   4.784   4.545 -0.6516 -0.2305  0.7200
 2801poe    c2312009   4.767   4.884   4.548 -0.4533 -0.4159  0.3947
 2801poe    c2312010   4.695   5.010   4.601  0.2879  0.2554 -0.1720
 2801poe     o212011   4.623   4.967   4.714 -0.0282  0.1003 -0.4306
 2801poe    c3112012   4.547   5.067   4.777  1.0062  0.0464  0.9714
 2802poe    c3112013   5.865   5.236   1.445  0.4344 -0.2798 -0.4566
 2802poe     o212014   5.763   5.244   1.542  0.5544 -0.1353 -0.3424
 2802poe    c2312015   5.806   5.306   1.661 -0.0461 -0.5201  0.0775
 2802poe    c2312016   5.904   5.228   1.752  0.1647 -0.2282  0.1022
 2802poe     o212017   5.848   5.132   1.838 -0.0343 -0.1907  0.0153
 2802poe    c2312018   5.800   5.187   1.959 -0.1194  0.2264 -0.2091
 2802poe    c2312019   5.767   5.075   2.059  0.0551  0.3519 -0.0087
 2802poe     o212020   5.674   5.005   1.979  0.2923  0.1153 -0.0782
 2802poe    c2312021   5.642   4.888   2.052  0.4442  0.1152 -0.0116
 2802poe    c2312022   5.559   4.799   1.958  0.4176 -0.0621  0.1796
 2802poe     o212023   5.621   4.805   1.832 -0.1071 -0.2978 -0.0958
 2802poe    c3112024   5.564   4.719   1.736  0.7628 -0.1934 -0.7279
 2803poe    c3112025   2.442   7.184   3.096 -0.2320  0.0100  0.0623
 2803poe     o212026   2.346   7.287   3.096 -0.4742 -0.2179 -0.1084
 2803poe    c2312027   2.265   7.271   3.210 -0.6538 -0.8782 -0.3208
 2803poe    c2312028   2.146   7.366   3.189 -0.0134 -0.0195 -0.1161
 2803poe     o212029   2.072   7.310   3.083 -0.0596 -0.2256  0.0239
 2803poe    c2312030   2.006   7.418   3.020  0.1253 -0.0769  0.0833
 2803poe    c2312031   1.885   7.365   2.941  0.1248  0.2307 -0.1228
 2803poe     o212032   1.916   7.268   2.843 -0.2065 -0.1753  0.1695
 2803poe    c2312033   1.816   7.170   2.859 -0.1717 -0.3063 -0.3948
 2803poe    c2312034   1.849   7.056   2.761 -0.4117 -0.7107 -0.0057
 2803poe     o212035   1.970   6.994   2.800 -0.4401 -0.2593  0.8297
 2803poe    c3112036   1.985   6.877   2.723  0.0238  0.0630  0.4192
 2804poe    c3112037   5.270   6.623   4.324  0.0192  0.4000 -0.1840
 2804poe     o212038   5.299   6.637   4.187 -0.0507  0.1366 -0.2247
 2804poe    c2312039   5.299   6.513   4.119  0.2181 -0.0549  0.1216
 2804poe    c2312040   5.284   6.519   3.965  0.1091 -0.6714  0.1068
 2804poe     o212041   5.158   6.561   3.919  0.1714 -0.6036 -0.0025
 2804poe    c2312042   5.160   6.515   3.786 -0.4091 -0.7162  0.0249
 2804poe    c2312043   5.025   6.499   3.713 -0.2566 -0.2076 -0.3739
 2804poe     o212044   4.959   6.621   3.692  0.1947  0.2216  0.6570
 2804poe    c2312045   4.825   6.600   3.654  0.3757  0.8750 -0.4025
 2804poe    c2312046   4.730   6.561   3.769  0.2382  0.2011 -0.7456
 2804poe     o212047   4.684   6.675   3.837 -0.3804 -0.1625 -0.5402
 2804poe    c3112048   4.578   6.632   3.919 -0.0241  0.6088  0.3490
 2805poe    c3112049   1.478   4.310   2.785 -0.3303 -0.6281  0.3554
 2805poe     o212050   1.372   4.267   2.703  0.0523 -0.0697 -0.4361
 2805poe    c2312051   1.260   4.307   2.778  0.1085 -0.0919 -0.3407
 2805poe    c2312052   1.132   4.258   2.709 -0.2345  0.4134 -0.0686
 2805poe     o212053   1.080   4.317   2.592  0.0259  0.5606 -0.1092
 2805poe    c2312054   0.959   4.258   2.550  0.2998  0.1178 -0.2833
 2805poe    c2312055   0.927   4.318   2.412  0.0905  0.4327 -0.1015
 2805poe     o212056   1.037   4.311   2.323 -0.0924  0.3749 -0.3226
 2805poe    c2312057   0.994   4.310   2.189  0.3988 -0.2347 -0.4800
 2805poe    c2312058   1.125   4.333   2.110  0.0888 -0.7489 -1.1540
 2805poe     o212059   1.220   4.253   2.176  0.3354  0.3024 -0.2116
 2805poe    c3112060   1.349   4.262   2.120  0.4834  0.6275  0.1714
 2806poe    c3112061   7.181   1.235   6.878 -0.2739 -0.2629  0.2981
 2806poe     o212062   7.149   1.141   6.777  0.4424 -0.3774  0.1745
 2806poe    c2312063   7.008   1.136   6.776  0.4164  0.1939  0.4626
 2806poe    c2312064   6.935   1.051   6.671  0.2748 -0.1815  0.8633
 2806poe     o212065   7.009   0.932   6.658  0.2004 -0.1400  0.0011
 2806poe    c2312066   6.958   0.843   6.561  0.0031 -0.3460  0.2921
 2806poe    c2312067   7.032   0.709   6.552  0.2495 -0.2005  0.1449
 2806poe     o212068   7.158   0.718   6.488  0.1235 -0.2181 -0.1074
 2806poe    c2312069   7.219   0.596   6.522 -0.1135 -0.3186 -0.0349
 2806poe    c2312070   7.365   0.606   6.474 -0.2891  0.3608 -0.4334
 2806poe     o212071   7.448   0.682   6.560 -0.2476 -0.1884  0.0163
 2806poe    c3112072   7.579   0.632   6.576 -0.2769 -0.2857 -0.0439
 2807poe    c3112073   4.563   1.187   2.469  0.3886 -0.0642 -0.1675
 2807poe     o212074   4.509   1.129   2.585  0.0637 -0.5468 -0.5598
 2807poe    c2312075   4.545   1.220   2.687 -0.2074 -0.7197 -0.3065
 2807poe    c2312076   4.432   1.254   2.786  0.0285  0.2560 -0.3645
 2807poe     o212077   4.387   1.138   2.853  0.4017  0.2647 -0.0950
 2807poe    c2312078   4.278   1.181   2.931  0.1653  0.0815 -0.3219
 2807poe    c2312079   4.144   1.176   2.857  0.2253 -0.3129 -0.4066
 2807poe     o212080   4.117   1.038   2.840 -0.0257 -0.3131 -0.0153
 2807poe    c2312081   3.987   1.016   2.791 -0.1138 -0.2647  0.1933
 2807poe    c2312082   3.901   0.915   2.869 -0.1528 -0.6525 -0.3439
 2807poe     o212083   3.864   0.951   3.000 -0.3241 -0.1372 -0.5312
 2807poe    c3112084   3.764   0.861   3.043 -0.1340 -0.0095  0.2013
 2808poe    c3112085   5.758   4.030   3.896 -0.9230  0.4130 -0.4247
 2808poe     o212086   5.721   4.072   4.025  0.3032 -0.5669  0.2592
 2808poe    c2312087   5.659   3.969   4.100 -0.1569 -0.6050 -0.1692
 2808poe    c2312088   5.571   4.045   4.201 -0.4196 -0.2914 -0.6287
 2808poe     o212089   5.481   4.137   4.144  0.1785  0.7218  0.0510
 2808poe    c2312090   5.412   4.223   4.232 -0.8483 -0.0641  0.0269
 2808poe    c2312091   5.345   4.339   4.156 -0.4307  0.0046 -0.2410
 2808poe     o212092   5.420   4.456   4.132 -0.3254 -0.0883 -0.3639
 2808poe    c2312093   5.352   4.560   4.065 -0.5000  0.2202  0.2890
 2808poe    c2312094   5.440   4.683   4.036  0.0124 -0.2624 -0.2294
 2808poe     o212095   5.437   4.756   4.157 -0.3067 -0.5074 -0.0883
 2808poe    c3112096   5.529   4.861   4.138 -0.1459 -0.6080  0.1238
 2809poe    c3112097   0.269   2.394   1.035 -0.2260  0.1125  0.4074
 2809poe     o212098   0.410   2.395   1.034 -0.2280  0.0732  0.2119
 2809poe    c2312099   0.464   2.338   1.151 -0.1394 -0.5129 -0.1101
 2809poe    c2312100   0.617   2.317   1.149 -0.0556  0.1394 -0.9318
 2809poe     o212101   0.693   2.435   1.160 -0.4686  0.3170  0.0279
 2809poe    c2312102   0.828   2.395   1.163 -0.2346  1.0597 -0.4340
 2809poe    c2312103   0.911   2.522   1.191  0.6440  0.3181  0.3827
 2809poe     o212104   0.909   2.615   1.085 -0.1852 -0.0099  0.0987
 2809poe    c2312105   0.994   2.724   1.113 -0.1551  0.1051 -0.4456
 2809poe    c2312106   1.049   2.794   0.986  0.3714  0.4294 -0.0443
 2809poe     o212107   1.151   2.729   0.913  0.0354  0.2858 -0.3888
 2809poe    c3112108   1.204   2.815   0.816  0.0310  0.6191 -0.0999
 2810poe    c3112109   1.728   4.553   2.693  0.2796  0.2923  0.3019
 2810poe     o212110   1.826   4.642   2.741  0.1954  0.2771  0.5007
 2810poe    c2312111   1.856   4.746   2.650  0.2302 -0.5646 -0.4563
 2810poe    c2312112   1.990   4.815   2.678 -0.1686 -0.1093  0.3381
 2810poe     o212113   1.980   4.926   2.765 -0.5026  0.1470 -0.0298
 2810poe    c2312114   2.100   4.963   2.829 -0.5278 -0.2157  0.2230
 2810poe    c2312115   2.066   5.067   2.938  0.1747 -0.4603  0.6812
 2810poe     o212116   1.988   5.024   3.047 -1.0683 -0.4143 -0.1747
 2810poe    c2312117   1.898   5.125   3.088 -0.3337  0.2391 -0.1625
 2810poe    c2312118   1.819   5.068   3.207  0.1969 -0.0887  0.0379
 2810poe     o212119   1.738   4.960   3.167  0.2046 -0.2994  0.5741
 2810poe    c3112120   1.658   4.906   3.269 -0.0015 -0.2287  0.4513
 2811poe    c3112121   2.936   4.119   5.465  0.1307  0.8117  0.3002
 2811poe     o212122   2.945   4.152   5.328 -0.7893 -0.3816 -0.0700
 2811poe    c2312123   3.065   4.102   5.273 -0.9008 -0.6035 -0.1085
 2811poe    c2312124   3.108   4.149   5.133  1.1170 -0.7457  0.4277
 2811poe     o212125   3.189   4.262   5.155 -0.4145  0.5022 -0.1422
 2811poe    c2312126   3.193   4.340   5.038 -0.1837 -0.2275 -0.6315
 2811poe    c2312127   3.079   4.442   5.019  0.1447  0.2804  0.0776
 2811poe     o212128   3.064   4.544   5.115  0.0804  0.5530 -0.2184
 2811poe    c2312129   3.122   4.663   5.065  0.7117  0.2455 -0.2297
 2811poe    c2312130   3.087   4.791   5.142  0.5349 -0.0284  0.1498
 2811poe     o212131   2.953   4.833   5.130  0.5589 -0.0325 -0.1205
 2811poe    c3112132   2.939   4.971   5.102  0.8207 -0.0094 -0.1354
 2812poe    c3112133   6.213   2.506   1.128  0.1395  0.6324  0.7465
 2812poe     o212134   6.209   2.417   1.236 -0.1811 -0.3509 -0.0580
 2812poe    c2312135   6.325   2.344   1.271  0.3946  0.4536 -0.2588
 2812poe    c2312136   6.366   2.224   1.185 -0.0465 -0.1416  0.3447
 2812poe     o212137   6.412   2.267   1.058  0.0397 -0.3496  0.3041
 2812poe    c2312138   6.532   2.210   1.012 -0.4220 -0.7272 -0.4431
 2812poe    c2312139   6.555   2.236   0.862  0.2431 -0.5987 -0.3241
 2812poe     o212140   6.446   2.216   0.774 -0.5499  0.5200  0.3658
 2812poe    c2312141   6.490   2.274   0.652  0.0978 -0.2423  0.2262
 2812poe    c2312142   6.401   2.220   0.539  0.2911 -0.0323 -0.0250
 2812poe     o212143   6.267   2.245   0.578  0.2102  0.7195 -0.7421
 2812poe    c3112144   6.172   2.215   0.478 -0.5021 -0.3701  0.2359
 2813poe    c3112145   2.800   3.184   1.474  0.3682  0.0911 -0.0111
 2813poe     o212146   2.836   3.132   1.600  0.2409 -0.1125 -0.0588
 2813poe    c2312147   2.896   3.234   1.676 -0.0221 -0.0936  0.1252
 2813poe    c2312148   2.954   3.184   1.809  0.2888 -0.5605 -0.1852
 2813poe     o212149   3.022   3.060   1.810  0.7064 -0.3328 -0.2519
 2813poe    c2312150   2.943   2.946   1.788  0.2037  0.0172 -0.2860
 2813poe    c2312151   3.033   2.842   1.718 -0.1299 -0.3159 -0.2203
 2813poe     o212152   3.127   2.790   1.809  0.8599  0.7782 -0.5986
 2813poe    c2312153   3.218   2.700   1.752  0.3354  0.0403 -0.2941
 2813poe    c2312154   3.334   2.671   1.850 -0.1465 -0.0420  0.2528
 2813poe     o212155   3.422   2.781   1.857 -0.2962  0.0613  0.5387
 2813poe    c3112156   3.509   2.771   1.967 -0.1712 -0.7130  0.3774
 2814poe    c3112157   3.454   6.630   5.435  0.6171  0.3132 -0.0024
 2814poe     o212158   3.423   6.516   5.358  0.3573  0.0679  0.4621
 2814poe    c2312159   3.295   6.511   5.299  0.6462 -0.6850 -0.1113
 2814poe    c2312160   3.270   6.401   5.193 -0.4463 -0.4578 -0.0936
 2814poe     o212161   3.261   6.287   5.275  0.3776 -0.1115  0.4902
 2814poe    c2312162   3.295   6.167   5.208  0.6504  0.2380 -0.0056
 2814poe    c2312163   3.300   6.045   5.302  0.1627 -0.0397 -0.3351
 2814poe     o212164   3.383   6.040   5.416 -0.4019  0.4908  0.1087
 2814poe    c2312165   3.331   5.948   5.509 -0.2482 -0.0244 -0.3111
 2814poe    c2312166   3.386   5.958   5.653 -0.5885  0.0023 -0.1814
 2814poe     o212167   3.325   6.062   5.726  0.2008  0.4581 -0.1599
 2814poe    c3112168   3.414   6.113   5.822  0.4529  0.4616 -0.3921
 2815poe    c3112169   1.793   2.339   5.219 -0.1896  0.0328 -0.1620
 2815poe     o212170   1.874   2.386   5.324 -0.4480 -0.2026  0.1444
 2815poe    c2312171   1.793   2.399   5.439 -0.5042 -0.3520  0.1222
 2815poe    c2312172   1.871   2.394   5.571  0.1754 -0.0523 -0.2612
 2815poe     o212173   1.903   2.268   5.626 -0.0018  0.0519  0.0818
 2815poe    c2312174   1.965   2.291   5.751 -0.1625 -0.3507  0.2374
 2815poe    c2312175   1.972   2.161   5.833  0.3906 -0.5967 -0.1909
 2815poe     o212176   1.861   2.074   5.823 -0.3360  0.3011 -0.0393
 2815poe    c2312177   1.875   1.956   5.899  0.5604  0.3395 -0.1365
 2815poe    c2312178   1.777   1.852   5.841  0.3115  0.5443 -0.0848
 2815poe     o212179   1.751   1.875   5.704  0.3783 -0.4690 -0.2735
 2815poe    c3112180   1.657   1.777   5.665  0.4428 -0.4142 -0.5632
 2816poe    c3112181   4.187   1.431   4.685  0.6063 -0.1157  0.3615
 2816poe     o212182   4.205   1.392   4.550  0.2571  0.1019  0.2504
 2816poe    c2312183   4.332   1.430   4.500  0.4449 -0.0735  0.5883
 2816poe    c2312184   4.359   1.369   4.362  0.0214  1.1080 -0.0271
 2816poe     o212185   4.266   1.410   4.264 -0.1739  0.0545 -0.2938
 2816poe    c2312186   4.313   1.405   4.132 -0.2379  0.3150 -0.3276
 2816poe    c2312187   4.194   1.431   4.039 -0.0904  0.1400 -0.5675
 2816poe     o212188   4.106   1.524   4.097  0.2219  0.1953 -0.1800
 2816poe    c2312189   3.980   1.516   4.035  0.1796  0.3625 -0.1167
 2816poe    c2312190   3.887   1.613   4.110 -0.3107 -0.2298  0.0482
 2816poe     o212191   3.910   1.604   4.249 -0.4006  0.2320  0.0947
 2816poe    c3112192   3.811   1.685   4.309 -0.4034  0.4635 -0.2189
 2817poe    c3112193   6.406   1.391   4.415  0.1163  0.1631 -0.3041
 2817poe     o212194   6.531   1.331   4.386 -0.2824 -0.8299 -0.0252
 2817poe    c2312195   6.534   1.209   4.457 -0.0501 -0.9250 -0.2001
 2817poe    c2312196   6.678   1.155   4.447  0.0700 -0.6651  0.1209
 2817poe     o212197   6.767   1.264   4.447 -0.4006 -0.2735 -0.5536
 2817poe    c2312198   6.901   1.221   4.453 -0.2239  0.3790  0.7657
 2817poe    c2312199   7.001   1.328   4.499 -0.2016  0.6297  0.1507
 2817poe     o212200   6.972   1.430   4.407 -0.2038 -0.2930 -0.8925
 2817poe    c2312201   7.046   1.550   4.415 -0.3829 -0.2708  0.7682
 2817poe    c2312202   6.970   1.659   4.336  0.0430 -0.2123  0.4356
 2817poe     o212203   6.867   1.733   4.398 -0.1181  0.2707 -0.4047
 2817poe    c3112204   6.911   1.823   4.497 -0.1735 -0.2508  0.1006
 2818poe    c3112205   1.364   0.562   5.048 -0.1581  1.2676  0.0250
 2818poe     o212206   1.497   0.532   5.010 -0.4083  0.3222 -0.1555
 2818poe    c2312207   1.587   0.544   5.118 -0.1657  0.4959 -0.3749
 2818poe    c2312208   1.735   0.531   5.076 -0.2165 -0.6569 -0.2390
 2818poe     o212209   1.763   0.399   5.036  0.5862 -0.6519  0.2815
 2818poe    c2312210   1.903   0.381   5.038  0.6649 -0.0516  0.2901
 2818poe    c2312211   1.948   0.262   4.951  0.3619 -0.1326  0.2425
 2818poe     o212212   1.963   0.288   4.813  0.5863 -0.7145  0.1574
 2818poe    c2312213   2.053   0.206   4.741 -0.0323 -0.6712 -0.6830
 2818poe    c2312214   2.063   0.245   4.592  0.0909  0.1945 -0.4540
 2818poe     o212215   1.940   0.216   4.529  0.1032 -1.1093  0.0899
 2818poe    c3112216   1.946   0.251   4.392 -0.1149 -0.6758  0.1884
 2819poe    c3112217   3.989   0.123   6.914  0.0835 -0.5161 -0.4846
 2819poe     o212218   3.855   0.082   6.897 -0.1123 -0.0294 -0.1455
 2819poe    c2312219   3.782   0.196   6.858 -0.3993  0.0748  0.6752
 2819poe    c2312220   3.644   0.141   6.815 -0.2577  0.2303  0.0059
 2819poe     o212221   3.625   0.025   6.893  0.1429  0.2321  0.1089
 2819poe    c2312222   3.493  -0.013   6.862 -0.0065  0.5887  0.3029
 2819poe    c2312223   3.432  -0.132   6.939  0.1495  0.5296  0.3352
 2819poe     o212224   3.406  -0.110   7.076  0.1885  0.7864  0.3016
 2819poe    c2312225   3.426  -0.217   7.165 -0.2527  0.2888 -0.1906
 2819poe    c2312226   3.297  -0.300   7.182  0.0570 -0.1388  0.0889
 2819poe     o212227   3.184  -0.236   7.236 -0.0017 -0.0401 -0.1486
 2819poe    c3112228   3.075  -0.317   7.200 -0.1719  0.1226  0.0033
 2820poe    c3112229   2.873   6.957   3.299  0.1496 -0.1551  0.2481
 2820poe     o212230   2.803   6.837   3.274  0.2270 -0.2077  0.2815
 2820poe    c2312231   2.827   6.796   3.141 -0.1042  0.1955  0.0946
 2820poe    c2312232   2.824   6.644   3.121  0.4277  0.1985 -0.0251
 2820poe     o212233   2.691   6.603   3.101  0.4491  0.0998  0.0351
 2820poe    c2312234   2.676   6.468   3.064  0.1121  0.2132 -0.2439
 2820poe    c2312235   2.680   6.446   2.911 -0.5467 -0.1117 -0.2193
 2820poe     o212236   2.800   6.485   2.847 -0.2987 -0.1825  0.1953
 2820poe    c2312237   2.778   6.472   2.708 -0.4042  0.2521  0.1724
 2820poe    c2312238   2.858   6.564   2.614 -0.1148  0.5608  0.7161
 2820poe     o212239   2.810   6.695   2.590 -0.4942  0.2690 -0.1595
 2820poe    c3112240   2.875   6.752   2.479 -0.3641  0.5008  0.0334
 2821poe    c3112241   1.773   7.210   5.165  0.2852  0.2334  0.4545
 2821poe     o212242   1.658   7.162   5.231  0.1789  0.2919  0.3120
 2821poe    c2312243   1.548   7.238   5.185  0.1000  0.1001  0.1837
 2821poe    c2312244   1.431   7.228   5.284  0.2296 -0.2905  0.3036
 2821poe     o212245   1.386   7.096   5.304 -0.4054 -0.1712 -0.3221
 2821poe    c2312246   1.290   7.096   5.408  0.3280 -0.1504  0.3580
 2821poe    c2312247   1.296   6.953   5.465 -0.3183 -0.3420 -0.0382
 2821poe     o212248   1.277   6.861   5.360  0.7350 -0.2419 -0.3278
 2821poe    c2312249   1.255   6.736   5.421 -0.0818  0.0044 -0.1127
 2821poe    c2312250   1.302   6.632   5.318  0.1862  0.3087 -0.2990
 2821poe     o212251   1.256   6.656   5.187  0.1926 -0.0607 -0.3688
 2821poe    c3112252   1.341   6.600   5.090  0.3153 -0.4005 -0.0671
 2822poe    c3112253   5.725   6.387   7.180  0.0041 -0.3185  0.1403
 2822poe     o212254   5.708   6.527   7.180  0.2398 -0.2878  0.4421
 2822poe    c2312255   5.724   6.578   7.310  0.1740 -0.1545  0.3991
 2822poe    c2312256   5.705   6.730   7.314 -0.0774 -0.1768  0.0392
 2822poe     o212257   5.583   6.761   7.251  0.3476 -0.1045 -0.7595
 2822poe    c2312258   5.552   6.897   7.270 -0.1886 -0.3476  0.1344
 2822poe    c2312259   5.405   6.915   7.227 -0.0425  0.0929 -0.1811
 2822poe     o212260   5.408   6.909   7.086  0.0347 -0.0905 -0.1709
 2822poe    c2312261   5.275   6.936   7.049  0.1401  0.9379  0.1925
 2822poe    c2312262   5.259   6.952   6.897  0.0264 -0.0709  0.0905
 2822poe     o212263   5.330   7.063   6.846  0.2639 -0.2421  0.0478
 2822poe    c3112264   5.296   7.072   6.709  0.7640 -0.0818 -0.0679
 2823poe    c3112265   5.003   0.410   0.699 -0.4599  0.4646  0.6868
 2823poe     o212266   5.116   0.342   0.749 -0.2476 -0.0297 -0.4302
 2823poe    c2312267   5.092   0.205   0.767 -0.1704  0.0214  0.0752
 2823poe    c2312268   5.148   0.163   0.904  0.4418  0.1256 -0.1435
 2823poe     o212269   5.078   0.233   1.004  0.0494 -0.3342 -0.0930
 2823poe    c2312270   5.142   0.213   1.128  0.3564 -0.2717 -0.2392
 2823poe    c2312271   5.071   0.288   1.243 -0.1297 -0.2231 -0.5669
 2823poe     o212272   5.071   0.427   1.219 -0.2646 -0.0533  0.3882
 2823poe    c2312273   5.062   0.492   1.344  0.0082  0.0958  0.3288
 2823poe    c2312274   5.080   0.645   1.341  0.4709  0.0398  0.1769
 2823poe     o212275   4.984   0.708   1.259  0.0220 -0.1289  0.5682
 2823poe    c3112276   4.935   0.824   1.322  0.1064  0.3613 -0.2529
 2824poe    c3112277   0.757   2.906   4.514 -0.3993 -0.3477 -0.4918
 2824poe     o212278   0.786   2.792   4.437  0.2562 -0.3615 -0.2337
 2824poe    c2312279   0.926   2.775   4.432  0.3023 -0.1087  0.1788
 2824poe    c2312280   0.958   2.650   4.348  0.6422  0.3594 -0.3941
 2824poe     o212281   0.872   2.561   4.415  1.0962  0.0122 -0.2635
 2824poe    c2312282   0.871   2.429   4.368  0.0516 -0.0931  0.0119
 2824poe    c2312283   0.774   2.355   4.462 -0.0006  0.6389  0.5365
 2824poe     o212284   0.646   2.412   4.443  0.1609  0.6702 -0.4916
 2824poe    c2312285   0.573   2.316   4.371  0.0196  0.0847  0.4236
 2824poe    c2312286   0.423   2.343   4.351  0.0276 -0.0370  0.1879
 2824poe     o212287   0.393   2.460   4.279 -0.4412 -0.2182  0.0825
 2824poe    c3112288   0.255   2.488   4.266 -0.3599  0.0067 -0.2914
 2825poe    c3112289   6.276   3.641   0.800  0.4163  0.5379 -0.2850
 2825poe     o212290   6.365   3.537   0.836 -0.2120  0.2168  0.3851
 2825poe    c2312291   6.323   3.431   0.754 -0.0540 -0.2574  0.9174
 2825poe    c2312292   6.379   3.306   0.826  0.2716 -0.7160 -0.1066
 2825poe     o212293   6.505   3.348   0.873 -0.0001  0.1343 -0.1234
 2825poe    c2312294   6.589   3.250   0.929  0.2880  0.2979 -0.2655
 2825poe    c2312295   6.726   3.316   0.955  0.2758 -0.0593  0.7753
 2825poe     o212296   6.713   3.434   1.032  0.0469  0.3582  0.1092
 2825poe    c2312297   6.834   3.455   1.101  0.1508 -0.5249  0.2144
 2825poe    c2312298   6.831   3.600   1.154  0.3986 -0.1648 -0.7281
 2825poe     o212299   6.794   3.695   1.058 -0.3947  0.6084  0.3220
 2825poe    c3112300   6.860   3.820   1.064  0.3010  0.2471  0.2963
 2826poe    c3112301   1.181   3.708   6.509 -0.4695  0.4289 -0.1635
 2826poe     o212302   1.320   3.713   6.532 -0.5056  0.3043  0.0906
 2826poe    c2312303   1.343   3.656   6.659  0.0120 -0.5215 -0.3590
 2826poe    c2312304   1.494   3.655   6.687  0.0151  0.1377 -0.3433
 2826poe     o212305   1.573   3.588   6.591  0.3329  0.0051  0.0089
 2826poe    c2312306   1.707   3.617   6.622  0.1437  0.6262  0.2568
 2826poe    c2312307   1.809   3.572   6.515 -0.3455  0.1916 -0.0313
 2826poe     o212308   1.815   3.659   6.404 -0.4603  0.1765 -0.0499
 2826poe    c2312309   1.904   3.625   6.300 -0.0163  0.4669  0.2289
 2826poe    c2312310   1.884   3.698   6.166 -0.4504 -0.2277 -0.0918
 2826poe     o212311   1.763   3.671   6.099 -0.4773 -0.2347 -0.0402
 2826poe    c3112312   1.788   3.600   5.980 -0.2533 -0.1316 -0.0562
 2827poe    c3112313   0.343   1.138   2.518 -0.2280 -0.1892  0.1387
 2827poe     o212314   0.323   1.142   2.658 -0.4974 -0.2090  0.1018
 2827poe    c2312315   0.325   1.277   2.699  0.2287 -0.0983 -0.2825
 2827poe    c2312316   0.301   1.282   2.851 -0.0662  0.3384 -0.3405
 2827poe     o212317   0.402   1.198   2.902 -0.8231 -0.2533  0.2144
 2827poe    c2312318   0.406   1.189   3.042  0.2934  0.2410  0.2264
 2827poe    c2312319   0.517   1.088   3.077 -0.1754 -0.3860 -0.0726
 2827poe     o212320   0.501   0.976   2.993 -0.0770 -0.3113 -0.1929
 2827poe    c2312321   0.619   0.900   3.009  0.3477  0.3265 -0.2681
 2827poe    c2312322   0.616   0.760   2.944 -0.0331  0.2211 -0.0236
 2827poe     o212323   0.627   0.752   2.804  0.0118 -0.0953 -0.0034
 2827poe    c3112324   0.760   0.730   2.764 -0.0028 -0.4538  0.1394
 2828poe    c3112325   0.955   1.477   1.691  0.0248 -0.6115 -0.0723
 2828poe     o212326   0.990   1.612   1.672 -0.2599 -0.4503  0.5048
 2828poe    c2312327   0.891   1.700   1.722  0.4624  0.6717  0.0068
 2828poe    c2312328   0.938   1.752   1.859 -0.6885  0.2129  0.5834
 2828poe     o212329   1.023   1.864   1.851 -0.8400  0.3337  0.6751
 2828poe    c2312330   1.090   1.871   1.974  0.2867 -0.2054  0.1035
 2828poe    c2312331   1.211   1.967   1.973 -0.2558  0.4805  0.0044
 2828poe     o212332   1.188   2.079   1.889 -0.3995  0.8331  0.5080
 2828poe    c2312333   1.283   2.183   1.896  0.7859 -0.1918  0.0772
 2828poe    c2312334   1.212   2.307   1.837  0.0365 -0.5619  0.1852
 2828poe     o212335   1.143   2.261   1.723  0.3203  0.0166 -0.2234
 2828poe    c3112336   1.128   2.379   1.648 -0.1156  0.1463  0.0644
 2829poe    c3112337   1.569   2.678   4.976  0.5498 -0.1797 -0.1144
 2829poe     o212338   1.555   2.815   4.942  0.4439 -0.2052 -0.1728
 2829poe    c2312339   1.543   2.832   4.803 -0.5326  0.0333 -0.0618
 2829poe    c2312340   1.558   2.980   4.763 -0.0582  0.0272  0.0970
 2829poe     o212341   1.455   3.040   4.837 -0.2137 -0.2634  0.1159
 2829poe    c2312342   1.431   3.176   4.807  0.1582 -0.0225  0.8712
 2829poe    c2312343   1.294   3.217   4.865  0.0423  0.5720  0.1899
 2829poe     o212344   1.310   3.182   5.001  0.0437  0.0077  0.0443
 2829poe    c2312345   1.236   3.269   5.084  0.4326 -0.0777  0.4822
 2829poe    c2312346   1.250   3.228   5.232  0.1856 -0.1411  0.4885
 2829poe     o212347   1.207   3.095   5.252 -0.1779 -0.1005  0.0032
 2829poe    c3112348   1.218   3.057   5.388 -0.0418  0.4528  0.1522
 2830poe    c3112349   1.024   5.450   4.752 -0.2358  0.2717 -0.5332
 2830poe     o212350   1.124   5.531   4.810  0.1402 -0.6589  0.1557
 2830poe    c2312351   1.179   5.460   4.918 -0.0915 -0.6404  0.2880
 2830poe    c2312352   1.303   5.527   4.979 -0.5539 -0.1105  0.6484
 2830poe     o212353   1.276   5.662   5.012 -0.4107  0.0389  0.1667
 2830poe    c2312354   1.397   5.735   5.010 -0.2200 -0.2553  0.6048
 2830poe    c2312355   1.366   5.875   5.066  0.4653  0.1274  0.0405
 2830poe     o212356   1.326   5.873   5.201 -0.3404  0.0642 -0.1909
 2830poe    c2312357   1.343   5.998   5.263 -0.6732  0.1256 -0.2209
 2830poe    c2312358   1.302   5.995   5.411 -0.3306  0.3490 -0.1200
 2830poe     o212359   1.171   5.943   5.402  0.0260 -0.5985  0.0871
 2830poe    c3112360   1.102   5.978   5.520  0.3146  0.1532  0.0402
 2831poe    c3112361   5.034   2.416   4.652 -0.5491  0.4804 -0.3359
 2831poe     o212362   5.009   2.400   4.790  0.4209 -0.5587 -0.2659
 2831poe    c2312363   4.992   2.518   4.866 -0.5712 -0.6452 -0.3376
 2831poe    c2312364   5.001   2.502   5.019  0.1394  0.4572 -0.2555
 2831poe     o212365   5.125   2.469   5.078  0.0256 -0.1275 -0.3403
 2831poe    c2312366   5.102   2.471   5.217  0.4837 -0.6760 -0.2514
 2831poe    c2312367   5.238   2.490   5.285  0.0076  0.0319  0.5235
 2831poe     o212368   5.289   2.613   5.239  0.1179 -0.1176  0.2476
 2831poe    c2312369   5.377   2.677   5.329 -0.5638  0.5393  0.4479
 2831poe    c2312370   5.433   2.817   5.299  0.1789  0.1781  0.1359
 2831poe     o212371   5.533   2.812   5.199  0.2211 -0.1713  0.1963
 2831poe    c3112372   5.590   2.938   5.175  0.4495 -0.3519 -0.2176
 2832poe    c3112373   3.683   4.665   3.109  0.4732  0.2420 -0.0463
 2832poe     o212374   3.665   4.680   2.970 -0.0485  0.7738  0.0779
 2832poe    c2312375   3.556   4.604   2.925  0.3776  0.1198  0.1387
 2832poe    c2312376   3.551   4.631   2.773  0.6481 -0.6321 -0.0091
 2832poe     o212377   3.680   4.637   2.716  0.7262  0.7250  0.2803
 2832poe    c2312378   3.672   4.687   2.585  0.2886  0.2222  0.1145
 2832poe    c2312379   3.811   4.689   2.520  0.1573  0.3872 -0.1615
 2832poe     o212380   3.900   4.743   2.615 -0.2129 -0.1516  0.4907
 2832poe    c2312381   4.020   4.778   2.552 -0.0826 -0.9736  0.2661
 2832poe    c2312382   4.130   4.824   2.650 -0.5265 -0.4385  0.5192
 2832poe     o212383   4.093   4.934   2.730 -0.3259  0.0673 -0.0873
 2832poe    c3112384   4.173   4.949   2.845  0.1609  0.2041 -0.4373
 2833poe    c3112385   6.099   6.247   4.044 -0.0156  0.3028  0.1966
 2833poe     o212386   6.238   6.229   4.058  0.0266  0.3267 -0.1872
 2833poe    c2312387   6.286   6.314   4.159  0.1972  0.1084 -0.0844
 2833poe    c2312388   6.402   6.262   4.246 -0.1176 -0.0354  0.2520
 2833poe     o212389   6.528   6.236   4.188  0.1005 -0.1367  0.7641
 2833poe    c2312390   6.612   6.149   4.260 -0.0210 -1.0429 -0.1742
 2833poe    c2312391   6.761   6.160   4.226 -0.1138  0.0890 -0.2199
 2833poe     o212392   6.802   6.167   4.091  0.5612  0.7747  0.0112
 2833poe    c2312393   6.935   6.207   4.067  0.8665 -0.2973 -0.1190
 2833poe    c2312394   6.962   6.249   3.922 -0.4913  0.1112 -0.2613
 2833poe     o212395   6.879   6.359   3.893 -0.0127  0.6630  0.4618
 2833poe    c3112396   6.871   6.404   3.760 -0.1862 -0.2632  0.1522
 2834poe    c3112397   4.018   3.594   2.816 -0.1500  0.5454 -0.1471
 2834poe     o212398   3.909   3.530   2.755  0.0071  0.2990 -0.1699
 2834poe    c2312399   3.962   3.432   2.668  0.2518  0.3062 -0.0290
 2834poe    c2312400   3.850   3.406   2.566  0.2430 -0.1670  0.0991
 2834poe     o212401   3.736   3.346   2.622 -0.0069  0.0761 -0.1430
 2834poe    c2312402   3.648   3.326   2.514 -0.2700 -0.2048  0.1180
 2834poe    c2312403   3.510   3.299   2.577 -0.4671 -0.4198 -0.3967
 2834poe     o212404   3.530   3.228   2.697 -0.2957  0.5672  0.1667
 2834poe    c2312405   3.415   3.190   2.768  0.0850 -0.2545  0.3550
 2834poe    c2312406   3.460   3.129   2.902 -0.7123  0.0134  0.7545
 2834poe     o212407   3.554   3.205   2.975  0.0743 -0.3660  0.1517
 2834poe    c3112408   3.537   3.173   3.111 -0.1205 -0.5309  0.0893
 2835poe    c3112409   0.858   1.862   0.693 -0.3442  0.2775 -0.6459
 2835poe     o212410   0.722   1.841   0.722 -0.0389 -0.2606  0.4812
 2835poe    c2312411   0.638   1.922   0.642 -0.0901 -0.2778  0.5180
 2835poe    c2312412   0.574   2.048   0.704  0.2603  0.3751 -0.4334
 2835poe     o212413   0.492   2.014   0.814  0.3509 -0.2213 -0.5496
 2835poe    c2312414   0.369   2.077   0.789  0.4707  0.1374 -0.2309
 2835poe    c2312415   0.254   2.049   0.887  0.4511 -0.1686 -0.3413
 2835poe     o212416   0.172   1.936   0.870 -0.0951  0.1112  0.3630
 2835poe    c2312417   0.095   1.924   0.753  0.3499 -0.0652  0.0865
 2835poe    c2312418  -0.023   2.022   0.745  0.1519 -0.3343 -0.3507
 2835poe     o212419  -0.133   1.998   0.831  0.6089  0.4061  0.4555
 2835poe    c3112420  -0.228   2.102   0.833 -0.0902 -0.2219  0.3206
 2836poe    c3112421   5.778   2.507   4.629 -0.0563  0.3564 -0.1329
 2836poe     o212422   5.730   2.374   4.623 -0.1226  0.3647  0.2064
 2836poe    c2312423   5.762   2.300   4.507 -0.9308 -0.4442  0.4886
 2836poe    c2312424   5.722   2.153   4.525  0.4104 -0.9287 -0.3684
 2836poe     o212425   5.581   2.153   4.515  0.3687 -0.5053  0.1844
 2836poe    c2312426   5.546   2.017   4.506  0.1327 -0.4038 -0.4876
 2836poe    c2312427   5.445   2.005   4.390 -0.2431  0.1658 -0.2213
 2836poe     o212428   5.317   1.993   4.447 -0.1837 -0.6696 -0.2559
 2836poe    c2312429   5.225   1.977   4.341 -0.3006 -1.1023 -0.0908
 2836poe    c2312430   5.077   1.992   4.381 -0.1811 -0.4173  0.1060
 2836poe     o212431   5.038   2.113   4.442  0.0824 -0.4241  0.2909
 2836poe    c3112432   4.897   2.123   4.447  0.1181  0.0768  0.3397
 2837poe    c3112433   3.090   5.648   0.979 -0.0299  0.0571 -0.1012
 2837poe     o212434   3.003   5.604   1.081 -0.0623 -0.0718 -0.1847
 2837poe    c2312435   3.052   5.594   1.212 -1.0245 -0.3112  0.1669
 2837poe    c2312436   3.121   5.459   1.240 -0.2915  0.0508  0.1461
 2837poe     o212437   3.028   5.354   1.253 -0.1615 -0.1040 -0.1895
 2837poe    c2312438   3.073   5.259   1.347 -0.2795  0.0562  0.0271
 2837poe    c2312439   2.982   5.137   1.330 -0.2408  0.0737 -0.2962
 2837poe     o212440   3.002   5.078   1.203  0.2679 -0.0174 -0.1744
 2837poe    c2312441   2.917   4.966   1.191 -0.3662  0.4653 -0.2188
 2837poe    c2312442   2.965   4.872   1.079  0.0124  0.4329 -0.0311
 2837poe     o212443   2.954   4.918   0.945  0.0066 -0.4659 -0.3433
 2837poe    c3112444   3.034   4.841   0.859  0.0402 -0.5321 -0.2530
 2838poe    c3112445   0.503   5.535   5.575  0.3147  0.3829 -0.1697
 2838poe     o212446   0.503   5.605   5.698  0.0076 -0.2680  0.2072
 2838poe    c2312447   0.604   5.554   5.782  0.5517  0.4753  0.0123
 2838poe    c2312448   0.600   5.640   5.911 -0.3816  0.0780  0.2573
 2838poe     o212449   0.591   5.773   5.865 -0.0962 -0.0993 -0.3345
 2838poe    c2312450   0.592   5.873   5.965 -0.4032  0.1591 -0.5861
 2838poe    c2312451   0.529   5.993   5.893 -0.2010  0.3826 -0.3915
 2838poe     o212452   0.402   5.965   5.840 -0.1538 -0.5101 -0.0453
 2838poe    c2312453   0.318   6.078   5.850  0.3452 -0.0832 -0.5932
 2838poe    c2312454   0.192   6.081   5.761  0.4105 -0.4160 -0.6973
 2838poe     o212455   0.117   5.964   5.785  0.0084 -0.0514 -0.1428
 2838poe    c3112456  -0.006   5.978   5.718  0.0800  0.5661 -0.1442
 2839poe    c3112457   2.276   4.318   0.045  0.3031  0.6445 -0.2499
 2839poe     o212458   2.269   4.458   0.026 -0.1228  0.6679  0.0618
 2839poe    c2312459   2.297   4.506  -0.103  0.5551  0.2803  0.0616
 2839poe    c2312460   2.319   4.657  -0.123 -0.2364  0.4351  0.3279
 2839poe     o212461   2.438   4.704  -0.064 -0.0606  0.2167  0.1493
 2839poe    c2312462   2.436   4.845  -0.072  0.0193  0.1847 -0.5488
 2839poe    c2312463   2.572   4.914  -0.047 -0.2235  0.4243  0.1363
 2839poe     o212464   2.610   4.943   0.086  0.4497 -0.0337  0.0444
 2839poe    c2312465   2.745   4.981   0.101  0.4020  0.3151 -0.4072
 2839poe    c2312466   2.864   4.888   0.072  0.1168  0.0218 -0.6370
 2839poe     o212467   2.992   4.945   0.088 -0.1286  0.3419  0.2133
 2839poe    c3112468   3.046   4.909   0.213  0.1197 -0.3761 -0.0966
 2840poe    c3112469   2.505   2.982   0.472 -0.2763  0.3760 -0.5002
 2840poe     o212470   2.626   3.033   0.423 -0.0281 -0.0317 -0.3132
 2840poe    c2312471   2.627   3.037   0.282 -0.3191 -0.6062 -0.3350
 2840poe    c2312472   2.765   3.031   0.215 -0.1218 -0.1549  0.0215
 2840poe     o212473   2.840   2.921   0.263  0.0301 -0.0052  0.1276
 2840poe    c2312474   2.941   2.905   0.167 -0.4387 -0.1766 -0.3425
 2840poe    c2312475   3.001   2.770   0.211  0.0059  0.0927 -0.1114
 2840poe     o212476   3.051   2.787   0.342 -0.4183  0.0852  0.0532
 2840poe    c2312477   3.105   2.661   0.373 -0.3633  0.1539  0.2342
 2840poe    c2312478   3.152   2.642   0.519 -0.5733 -0.2775  0.2490
 2840poe     o212479   3.048   2.625   0.613 -0.5333  0.3917  0.4259
 2840poe    c3112480   3.022   2.486   0.618  0.2646  0.2318  0.2140
 2841poe    c3112481   2.558   1.151   7.086  0.1340 -0.2030  0.2430
 2841poe     o212482   2.480   1.058   7.015  0.1557 -0.3510  0.4114
 2841poe    c2312483   2.523   1.051   6.881  0.4997 -0.1907  0.5138
 2841poe    c2312484   2.405   0.990   6.804  0.3146  0.4509  0.2812
 2841poe     o212485   2.355   0.880   6.877 -0.1927  0.2582 -0.3408
 2841poe    c2312486   2.258   0.809   6.805  0.1654 -0.6017  0.0140
 2841poe    c2312487   2.236   0.669   6.866 -0.4189 -0.3885  0.3070
 2841poe     o212488   2.204   0.689   7.002 -0.4007 -0.0931  0.2689
 2841poe    c2312489   2.227   0.573   7.079  0.4996  0.1152  0.3247
 2841poe    c2312490   2.164   0.585   7.219  0.0011 -0.0267  0.1136
 2841poe     o212491   2.214   0.694   7.293  0.4850 -0.2424  0.1101
 2841poe    c3112492   2.117   0.726   7.391  0.6323 -0.4579  0.3269
 2842poe    c3112493   2.225   4.834   0.948  0.5568 -0.1921  0.5562
 2842poe     o212494   2.171   4.909   1.054 -0.1808 -0.2332  0.2179
 2842poe    c2312495   2.179   5.048   1.031  0.4020 -0.1985  0.6123
 2842poe    c2312496   2.162   5.137   1.156 -0.5311  0.1450  0.2521
 2842poe     o212497   2.046   5.121   1.235 -0.4769  0.0786  0.3179
 2842poe    c2312498   2.054   5.183   1.361  0.3259  0.1832  0.2218
 2842poe    c2312499   1.923   5.156   1.436 -0.0350 -0.1979 -0.5338
 2842poe     o212500   1.817   5.168   1.344 -0.0254  0.4121 -0.4735
 2842poe    c2312501   1.709   5.197   1.430 -0.2304 -0.2304 -0.5025
 2842poe    c2312502   1.574   5.226   1.361 -0.5181  0.0782  0.1794
 2842poe     o212503   1.524   5.116   1.289  0.2069 -0.2553  0.1757
 2842poe    c3112504   1.395   5.140   1.239  0.2697 -0.4076 -0.0604
 2843poe    c3112505   1.238   4.678   2.046  0.6454 -0.3330 -0.6491
 2843poe     o212506   1.115   4.640   1.990  0.0491 -0.5363  0.7478
 2843poe    c2312507   0.997   4.688   2.050 -0.2255  0.6892 -0.7101
 2843poe    c2312508   0.885   4.621   1.970 -0.2483 -0.2383  0.0813
 2843poe     o212509   0.870   4.678   1.842 -0.6537 -0.2693  0.1108
 2843poe    c2312510   0.787   4.619   1.745 -0.5840 -0.1714 -0.0090
 2843poe    c2312511   0.811   4.683   1.607 -0.3957 -0.1852  0.0169
 2843poe     o212512   0.746   4.808   1.598  0.3296  0.2033  0.1134
 2843poe    c2312513   0.654   4.830   1.494  0.6265  0.1458 -0.1622
 2843poe    c2312514   0.712   4.885   1.362  0.5230 -0.1532 -0.3354
 2843poe     o212515   0.734   5.024   1.353  0.0796 -0.0176  0.5292
 2843poe    c3112516   0.873   5.044   1.364  0.1365 -0.1781  0.1288
 2844poe    c3112517   4.460   6.268   2.546  0.1103 -0.5159 -0.4668
 2844poe     o212518   4.383   6.326   2.443  0.0310  0.1112 -0.0561
 2844poe    c2312519   4.366   6.465   2.461  0.1527  0.1294 -0.0812
 2844poe    c2312520   4.281   6.521   2.345  0.1340  0.4628  0.0922
 2844poe     o212521   4.175   6.429   2.330  0.5184  0.0284  0.0103
 2844poe    c2312522   4.065   6.475   2.254  0.1981 -0.7240  0.0116
 2844poe    c2312523   3.951   6.375   2.278 -0.5187  0.1151  0.1482
 2844poe     o212524   3.985   6.244   2.236  0.1497  0.4600 -0.4194
 2844poe    c2312525   3.895   6.148   2.287  0.7961  0.1515  0.1627
 2844poe    c2312526   3.932   6.006   2.241  0.0788  0.1285 -0.3711
 2844poe     o212527   4.058   5.954   2.276 -0.0021 -0.2371 -0.6196
 2844poe    c3112528   4.065   5.820   2.232  0.1347 -0.3416 -0.2850
 2845poe    c3112529   7.204   4.535   0.528  0.2284 -0.1075 -0.1967
 2845poe     o212530   7.284   4.420   0.513 -0.4425 -0.6183  0.0392
 2845poe    c2312531   7.412   4.447   0.459 -0.5339 -0.4300 -0.0847
 2845poe    c2312532   7.525   4.353   0.504 -0.0612  0.1462 -0.0545
 2845poe     o212533   7.548   4.371   0.642 -0.0670 -0.0083 -0.0328
 2845poe    c2312534   7.655   4.287   0.678  0.1453  0.3546  0.1936
 2845poe    c2312535   7.658   4.271   0.832 -0.1040  0.5983  0.2250
 2845poe     o212536   7.531   4.241   0.885 -0.1262  0.1953 -0.0485
 2845poe    c2312537   7.551   4.166   1.003 -0.4820  0.2992  0.0792
 2845poe    c2312538   7.413   4.154   1.069 -0.2912 -0.2668  0.3792
 2845poe     o212539   7.359   4.284   1.065  0.0877 -0.1184  0.0978
 2845poe    c3112540   7.228   4.284   1.118  0.1390 -0.2020  0.2253
 2846poe    c3112541   3.146   3.763   5.001 -0.2402  0.1404  0.5439
 2846poe     o212542   3.131   3.640   5.069  0.1112  0.0454  0.4515
 2846poe    c2312543   3.136   3.526   4.986 -0.0606  0.4154 -0.0756
 2846poe    c2312544   3.256   3.483   4.899 -0.1340 -0.6297  0.3225
 2846poe     o212545   3.376   3.491   4.971 -0.1238  0.3686  0.2024
 2846poe    c2312546   3.486   3.509   4.885 -0.0934 -0.2291  0.1192
 2846poe    c2312547   3.628   3.474   4.935  0.1047  0.1931 -0.1416
 2846poe     o212548   3.651   3.340   4.973 -0.4847  0.0511 -0.2731
 2846poe    c2312549   3.771   3.315   5.041 -0.1772  0.5190 -0.6363
 2846poe    c2312550   3.777   3.170   5.095  0.0345  0.6296 -0.3575
 2846poe     o212551   3.698   3.139   5.207 -0.0406 -0.3871 -0.6850
 2846poe    c3112552   3.706   3.004   5.246  0.4149 -0.0350  0.4790
 2847poe    c3112553   0.657   2.041   6.515 -0.0616  0.3857  0.1488
 2847poe     o212554   0.689   2.095   6.389 -0.1185 -0.2852 -0.1605
 2847poe    c2312555   0.597   2.196   6.352 -0.0815 -0.3005 -0.2950
 2847poe    c2312556   0.605   2.233   6.203 -0.8233  0.6808 -0.1005
 2847poe     o212557   0.545   2.136   6.120  0.0340  0.1729 -0.1321
 2847poe    c2312558   0.556   2.178   5.986  0.0751 -0.3855 -0.3060
 2847poe    c2312559   0.560   2.071   5.874 -0.1094 -0.0764 -0.6088
 2847poe     o212560   0.668   1.981   5.872 -0.4889 -0.5739  0.5308
 2847poe    c2312561   0.655   1.894   5.762  0.2529 -0.3744  0.2799
 2847poe    c2312562   0.777   1.800   5.754  0.3954 -0.2322  0.7672
 2847poe     o212563   0.895   1.869   5.722 -0.2451  0.7413  0.4611
 2847poe    c3112564   1.002   1.784   5.688 -0.7683  0.1698  0.2346
 2848poe    c3112565   7.025   6.982   6.327 -0.1402  0.3772 -0.2236
 2848poe     o212566   7.078   6.851   6.325 -0.0624  0.3919  0.5724
 2848poe    c2312567   7.002   6.757   6.398 -0.0175 -0.0992  0.0045
 2848poe    c2312568   6.967   6.643   6.302 -0.1777  0.1810 -0.2721
 2848poe     o212569   6.923   6.694   6.178  0.4000 -0.4514 -0.7501
 2848poe    c2312570   6.865   6.587   6.107 -0.4143 -0.3720 -0.2213
 2848poe    c2312571   6.872   6.618   5.956 -0.0517 -0.0058 -0.1316
 2848poe     o212572   7.008   6.610   5.919 -0.1026  0.0024 -0.3180
 2848poe    c2312573   7.020   6.668   5.791 -0.8681  0.3916 -0.2219
 2848poe    c2312574   7.065   6.816   5.791  0.2719  0.0554 -0.2166
 2848poe     o212575   6.965   6.902   5.840  0.1286 -0.1455 -0.1508
 2848poe    c3112576   6.994   7.035   5.801 -0.2079 -0.0408 -0.0474
 2849poe    c3112577   5.894   1.394   4.998 -0.2787  0.3190 -0.7862
 2849poe     o212578   5.783   1.451   5.063  0.4458  0.0366  0.7418
 2849poe    c2312579   5.684   1.362   5.109 -0.3381  0.7048  0.3773
 2849poe    c2312580   5.576   1.305   5.014  0.1684  0.1582  0.1240
 2849poe     o212581   5.509   1.400   4.934  0.0359 -0.2558 -0.2632
 2849poe    c2312582   5.575   1.442   4.816  0.2977  0.0539 -0.0103
 2849poe    c2312583   5.502   1.572   4.777  0.7273  0.3492  0.1611
 2849poe     o212584   5.482   1.663   4.883  0.4231  0.5016 -0.0237
 2849poe    c2312585   5.398   1.764   4.832  0.2793  0.4029  0.0173
 2849poe    c2312586   5.328   1.831   4.951 -0.0856 -0.0572  0.0674
 2849poe     o212587   5.229   1.743   4.998 -0.4995  0.2515 -0.2140
 2849poe    c3112588   5.149   1.818   5.087 -0.4495  0.0739 -0.0181
 2850poe    c3112589   1.278   2.760   6.654 -0.9211  0.1220  0.4618
 2850poe     o212590   1.300   2.790   6.790  0.3521  0.7455  0.1390
 2850poe    c2312591   1.191   2.849   6.858  0.2738  0.5730  0.1644
 2850poe    c2312592   1.227   2.903   6.997  0.2398  0.1313  0.3468
 2850poe     o212593   1.320   3.010   6.998  0.2317  0.1444 -0.2624
 2850poe    c2312594   1.341   3.056   7.129  0.6955 -0.4577 -0.1224
 2850poe    c2312595   1.377   3.204   7.107 -0.3995 -0.2652 -0.7049
 2850poe     o212596   1.508   3.212   7.054  0.0434  0.1504  0.4222
 2850poe    c2312597   1.529   3.338   6.995  0.2275 -0.0791 -0.0062
 2850poe    c2312598   1.669   3.360   6.935  0.2117  0.1423  0.0367
 2850poe     o212599   1.668   3.289   6.813  0.1814 -0.2536  0.2630
 2850poe    c3112600   1.798   3.281   6.760  0.0463  0.6512 -0.2318
 2851poe    c3112601   1.250   5.455   0.589  0.1371 -0.2038 -0.2436
 2851poe     o212602   1.251   5.434   0.449  0.1103  0.1654 -0.3002
 2851poe    c2312603   1.226   5.302   0.407 -0.7855  0.2090  0.0734
 2851poe    c2312604   1.231   5.302   0.253 -0.3590 -0.6834  0.0775
 2851poe     o212605   1.345   5.364   0.198 -0.7363  0.3674  0.4539
 2851poe    c2312606   1.326   5.349   0.059  0.3668 -0.0399  0.3347
 2851poe    c2312607   1.422   5.438  -0.022 -0.5664  0.3526 -0.3584
 2851poe     o212608   1.396   5.573   0.010  0.0299  0.3453  0.1899
 2851poe    c2312609   1.455   5.663  -0.081  0.3633  0.0506  0.1121
 2851poe    c2312610   1.427   5.811  -0.047 -0.5874 -0.0203 -0.3274
 2851poe     o212611   1.465   5.804   0.089  0.2405  0.5633 -0.5165
 2851poe    c3112612   1.429   5.927   0.148 -0.4932  0.1701 -0.1262
 2852poe    c3112613   5.029   1.718   1.633 -0.2364 -0.0812 -0.2915
 2852poe     o212614   5.009   1.701   1.772 -0.4342  0.3082 -0.2700
 2852poe    c2312615   5.082   1.797   1.846 -0.4224  0.1524 -0.0796
 2852poe    c2312616   5.036   1.752   1.986 -0.3467 -0.1368 -0.1467
 2852poe     o212617   4.915   1.681   1.980 -0.3806 -0.1609  0.7131
 2852poe    c2312618   4.849   1.668   2.105 -0.2025  0.1011  0.8343
 2852poe    c2312619   4.731   1.570   2.097 -0.1193 -0.0217  1.1173
 2852poe     o212620   4.792   1.443   2.086 -0.1432  0.0589  0.0017
 2852poe    c2312621   4.709   1.330   2.095 -0.1725  0.0509 -0.3416
 2852poe    c2312622   4.805   1.211   2.082  0.1457  0.2689 -0.0059
 2852poe     o212623   4.863   1.210   1.953 -0.1533  0.3244 -0.1408
 2852poe    c3112624   4.981   1.134   1.946 -0.1854  0.2223  0.4015
 2853poe    c3112625   5.517   5.647   6.115 -0.5569  0.1604  0.2473
 2853poe     o212626   5.601   5.625   6.226 -0.0793  0.1055 -0.1176
 2853poe    c2312627   5.524   5.662   6.339  0.5304  0.1746  0.2836
 2853poe    c2312628   5.615   5.675   6.462  0.3312  0.6052  0.3837
 2853poe     o212629   5.699   5.565   6.486 -0.3303  0.0303  0.0920
 2853poe    c2312630   5.763   5.579   6.611 -0.5700 -0.3163  0.2561
 2853poe    c2312631   5.867   5.467   6.627 -0.3320 -0.1227  0.0615
 2853poe     o212632   5.959   5.476   6.521 -0.3280 -0.4243  0.0399
 2853poe    c2312633   6.043   5.362   6.519  0.7020  0.3061  0.5085
 2853poe    c2312634   6.156   5.376   6.416  0.5773 -0.1274  0.3117
 2853poe     o212635   6.085   5.419   6.302  0.2972 -0.3664  0.3955
 2853poe    c3112636   6.173   5.452   6.197 -0.5150  0.4023 -0.0492
 2854poe    c3112637   1.151   0.699   6.628 -0.4568  0.0330 -0.4080
 2854poe     o212638   1.142   0.831   6.581  0.7072  0.3562  0.2313
 2854poe    c2312639   1.101   0.830   6.446 -0.5887  0.3366  0.6110
 2854poe    c2312640   1.068   0.975   6.405  0.0639  0.2273 -0.3468
 2854poe     o212641   0.978   1.034   6.497 -0.0960  0.0557 -0.3933
 2854poe    c2312642   0.931   1.159   6.451 -0.0872  0.1740 -0.0778
 2854poe    c2312643   0.838   1.211   6.563 -0.0867 -0.1748  0.0866
 2854poe     o212644   0.724   1.129   6.577 -0.1010 -0.1109  0.3426
 2854poe    c2312645   0.640   1.159   6.686 -0.0002  0.1592  0.3475
 2854poe    c2312646   0.544   1.047   6.732  0.0910  0.0338  0.2341
 2854poe     o212647   0.596   0.933   6.796 -0.3450 -0.1069  0.3356
 2854poe    c3112648   0.485   0.857   6.838 -0.7990  0.0498 -0.5678
 2855poe    c3112649   4.372   3.448   2.681  0.5999 -0.0223 -0.2130
 2855poe     o212650   4.326   3.315   2.675 -0.1749  0.2346 -0.1267
 2855poe    c2312651   4.364   3.262   2.550  0.0035  0.3311 -0.1135
 2855poe    c2312652   4.508   3.220   2.515 -0.0074  0.3194 -0.1455
 2855poe     o212653   4.539   3.091   2.563 -0.0134  0.4516  0.2207
 2855poe    c2312654   4.672   3.061   2.527 -0.3131 -0.3725 -0.2438
 2855poe    c2312655   4.721   2.916   2.545 -0.1203 -0.2719  0.0549
 2855poe     o212656   4.754   2.906   2.682  0.7101 -0.4834 -0.1548
 2855poe    c2312657   4.851   2.810   2.713  0.5014 -0.7657 -0.3724
 2855poe    c2312658   4.872   2.789   2.864  0.5906  0.0029 -0.2752
 2855poe     o212659   4.771   2.715   2.929  0.3317  0.0528 -0.6232
 2855poe    c3112660   4.786   2.725   3.069 -0.1923  0.2962 -0.5830
 2856poe    c3112661   7.039   5.013   4.184 -0.1395  0.0291  0.0533
 2856poe     o212662   7.008   5.112   4.279  0.2046 -0.1235  0.3260
 2856poe    c2312663   6.902   5.058   4.355  0.2004  0.0250  0.4258
 2856poe    c2312664   6.808   5.147   4.439 -0.1417 -0.1669  0.2457
 2856poe     o212665   6.876   5.241   4.520  0.1470 -0.4163  0.2969
 2856poe    c2312666   6.788   5.321   4.595  0.1666 -0.2953  0.1911
 2856poe    c2312667   6.845   5.393   4.719  0.1351 -0.0222  0.0479
 2856poe     o212668   6.942   5.491   4.692  0.0551  0.0231 -0.0765
 2856poe    c2312669   6.976   5.554   4.813 -0.3677 -0.1419  0.1291
 2856poe    c2312670   7.108   5.632   4.794 -0.2840 -0.3907 -0.3200
 2856poe     o212671   7.218   5.552   4.758  0.0119 -0.1188 -0.0210
 2856poe    c3112672   7.339   5.620   4.733  0.3299 -0.5823  0.2251
 2857poe    c3112673   0.041   2.519   5.357  0.5057  0.4998 -0.6765
 2857poe     o212674  -0.040   2.634   5.343 -0.1882  0.0620 -0.2799
 2857poe    c2312675  -0.159   2.617   5.417 -0.2627  1.0446 -0.1613
 2857poe    c2312676  -0.266   2.531   5.349  0.1341  0.2896  0.1538
 2857poe     o212677  -0.326   2.611   5.249 -0.1152 -0.0426  0.0338
 2857poe    c2312678  -0.461   2.574   5.230 -0.1646 -0.0225  0.3312
 2857poe    c2312679  -0.543   2.679   5.153 -0.0380 -0.4432 -0.3871
 2857poe     o212680  -0.534   2.809   5.206  0.1617 -0.4937 -0.2951
 2857poe    c2312681  -0.624   2.895   5.139  0.1018 -0.1019  0.2837
 2857poe    c2312682  -0.646   3.035   5.201 -0.4566  0.1441 -0.4655
 2857poe     o212683  -0.536   3.120   5.177  0.1677 -0.6589 -0.4851
 2857poe    c3112684  -0.531   3.236   5.256 -0.9580 -1.0089  0.1158
 2858poe    c3112685   0.311   0.579   1.443 -0.5935  0.0232  0.2114
 2858poe     o212686   0.293   0.526   1.572 -0.1755 -0.5847  0.0226
 2858poe    c2312687   0.350   0.606   1.674 -0.6820 -0.0371 -0.1244
 2858poe    c2312688   0.318   0.549   1.813 -0.3688  0.0879 -0.0001
 2858poe     o212689   0.341   0.410   1.821 -0.1624  0.1152 -0.1191
 2858poe    c2312690   0.328   0.352   1.949  0.0909 -0.5793 -0.4017
 2858poe    c2312691   0.331   0.200   1.931  0.0881 -0.6542  0.1984
 2858poe     o212692   0.223   0.147   1.856 -0.3492  0.0270  0.3418
 2858poe    c2312693   0.232   0.007   1.845 -0.2270  0.0307  0.3925
 2858poe    c2312694   0.107  -0.053   1.779 -0.0710 -0.1013  0.2138
 2858poe     o212695   0.050   0.046   1.696 -0.6732  0.0459  0.7901
 2858poe    c3112696  -0.046   0.002   1.603 -0.5313  0.5187  0.4163
 2859poe    c3112697   2.676   5.449   2.322 -0.7949  0.1294  0.2528
 2859poe     o212698   2.659   5.322   2.263  0.2171 -0.0865  0.3997
 2859poe    c2312699   2.524   5.305   2.225  0.2306  0.1351  0.2493
 2859poe    c2312700   2.498   5.174   2.149 -0.0010  0.0223  0.5204
 2859poe     o212701   2.391   5.184   2.057  0.3584  0.6955  0.1651
 2859poe    c2312702   2.371   5.076   1.969 -0.4132  0.4042  0.6945
 2859poe    c2312703   2.224   5.075   1.923 -0.1799  0.6869 -0.0702
 2859poe     o212704   2.164   5.016   2.037  0.2708  0.1587 -0.1009
 2859poe    c2312705   2.025   4.994   2.028  0.2230  0.2803  0.3080
 2859poe    c2312706   1.956   4.950   2.158  0.2470 -0.2708  0.1373
 2859poe     o212707   1.919   5.051   2.248 -0.0470 -0.3081  0.0595
 2859poe    c3112708   1.806   5.008   2.320 -0.3733 -0.6427 -0.6434
 2860poe    c3112709   1.708   1.833   3.799  0.5937 -0.5229 -1.1829
 2860poe     o212710   1.641   1.935   3.729 -0.2150 -0.0538  0.2440
 2860poe    c2312711   1.681   2.064   3.770 -0.5188  0.1444 -0.0737
 2860poe    c2312712   1.600   2.184   3.718  0.0602  0.4505 -0.2857
 2860poe     o212713   1.481   2.202   3.792 -0.1926 -0.6175 -0.4181
 2860poe    c2312714   1.392   2.280   3.717 -0.0618 -0.2240 -0.1707
 2860poe    c2312715   1.268   2.312   3.802  0.0906 -0.3882  0.1120
 2860poe     o212716   1.192   2.194   3.814  0.0520 -0.3830 -0.0819
 2860poe    c2312717   1.084   2.199   3.904  0.0285 -0.3168 -0.1141
 2860poe    c2312718   1.121   2.189   4.053  0.3077 -0.4727 -0.1943
 2860poe     o212719   1.190   2.294   4.116 -0.7373  0.1438 -0.0606
 2860poe    c3112720   1.121   2.417   4.122 -0.1568  0.4801 -0.1803
 2861poe    c3112721   0.935   3.135   1.400 -0.0432  0.2775 -0.0664
 2861poe     o212722   0.964   3.212   1.515  0.2325 -0.1756  0.1696
 2861poe    c2312723   1.058   3.312   1.481 -0.0048  0.0451  0.1649
 2861poe    c2312724   1.097   3.415   1.589 -0.0831 -0.0332  0.2674
 2861poe     o212725   1.138   3.356   1.711 -0.4821 -0.4047  0.2273
 2861poe    c2312726   1.177   3.464   1.794  0.0242  0.1083 -0.6625
 2861poe    c2312727   1.251   3.410   1.918 -0.2575 -0.0296 -0.5537
 2861poe     o212728   1.168   3.317   1.984 -0.0675  0.5533  0.5197
 2861poe    c2312729   1.229   3.214   2.059 -0.1538  0.0319 -0.1269
 2861poe    c2312730   1.118   3.147   2.141 -0.6771  0.6902 -0.2894
 2861poe     o212731   1.041   3.078   2.045 -0.2781 -0.1355 -0.0317
 2861poe    c3112732   0.958   2.967   2.072 -0.5795  0.0230 -0.2881
 2862poe    c3112733   5.576   1.215   2.955  0.0896  0.2425 -0.2991
 2862poe     o212734   5.691   1.296   2.944  0.3999 -0.2191 -0.4988
 2862poe    c2312735   5.705   1.327   2.807 -0.0928  0.4714 -0.3965
 2862poe    c2312736   5.819   1.427   2.782 -0.1807  0.7190  0.1586
 2862poe     o212737   5.945   1.363   2.787 -0.5262  0.0069 -0.1222
 2862poe    c2312738   6.021   1.420   2.682 -0.4510  0.3171  0.1011
 2862poe    c2312739   6.171   1.386   2.691 -0.4422  0.3506  0.0871
 2862poe     o212740   6.246   1.437   2.799  0.3249  0.1082 -0.3310
 2862poe    c2312741   6.384   1.412   2.780  0.2293 -0.5838 -0.1709
 2862poe    c2312742   6.495   1.473   2.867  0.1688 -0.3332 -0.2682
 2862poe     o212743   6.533   1.597   2.811  0.0374  0.0793  0.5246
 2862poe    c3112744   6.640   1.664   2.875  0.2678 -0.2769  0.5165
 2863poe    c3112745   1.870   3.846   5.675 -0.3395  0.0463 -0.0944
 2863poe     o212746   1.946   3.788   5.571 -0.2079  0.0070  0.0247
 2863poe    c2312747   2.070   3.743   5.622 -0.4001  0.0345  0.5208
 2863poe    c2312748   2.157   3.655   5.531 -0.4749  0.5226 -0.0251
 2863poe     o212749   2.116   3.522   5.555  0.9016 -0.0727 -0.8345
 2863poe    c2312750   2.033   3.468   5.455 -0.4551  0.1739  0.1338
 2863poe    c2312751   1.974   3.331   5.495 -0.2766  0.3811  1.1330
 2863poe     o212752   2.089   3.253   5.516 -0.1155  0.2227 -0.2500
 2863poe    c2312753   2.061   3.115   5.515 -0.0112  0.1831  0.6446
 2863poe    c2312754   2.164   3.046   5.423 -0.4360 -0.1331  0.3980
 2863poe     o212755   2.297   3.028   5.465 -0.1169  0.3171 -0.4087
 2863poe    c3112756   2.388   3.036   5.357  0.0827 -0.2574 -0.2832
 2864poe    c3112757   3.568   3.097   2.180 -0.5909  0.1354  0.0004
 2864poe     o212758   3.435   3.140   2.203 -0.5264  0.0437  0.5652
 2864poe    c2312759   3.404   3.266   2.148 -0.4339 -0.3452 -0.3931
 2864poe    c2312760   3.259   3.305   2.180 -0.1371  0.1412  0.3962
 2864poe     o212761   3.242   3.325   2.318  0.5158  0.2819  0.4575
 2864poe    c2312762   3.114   3.356   2.368  0.2886 -0.3512  0.2855
 2864poe    c2312763   3.093   3.317   2.515 -0.6812  0.0080  0.2520
 2864poe     o212764   3.075   3.178   2.528 -0.1741 -0.0866 -0.0421
 2864poe    c2312765   3.024   3.150   2.656 -0.2834  0.3457  0.0123
 2864poe    c2312766   3.041   2.999   2.685  0.1998  0.3069 -0.4484
 2864poe     o212767   2.947   2.920   2.614  0.2403 -0.3609  0.2312
 2864poe    c3112768   2.845   2.865   2.695 -0.0195 -0.1159  0.0716
 2865poe    c3112769   6.230   3.125   1.205  0.2098 -0.3048 -0.2625
 2865poe     o212770   6.310   3.011   1.226 -0.0546 -0.3721  0.4202
 2865poe    c2312771   6.290   2.931   1.112 -0.0754 -0.2464  0.3362
 2865poe    c2312772   6.411   2.844   1.074  0.2449  0.3086  0.0629
 2865poe     o212773   6.434   2.744   1.170  0.1704  0.2924  0.0642
 2865poe    c2312774   6.553   2.671   1.147  0.4515  0.8534 -0.2684
 2865poe    c2312775   6.610   2.614   1.278  0.2019 -0.0677 -0.5573
 2865poe     o212776   6.626   2.710   1.379 -0.5770 -0.1693 -0.3255
 2865poe    c2312777   6.684   2.647   1.491  0.2676  0.4493 -0.4014
 2865poe    c2312778   6.777   2.737   1.575  0.2063 -0.1212  0.2846
 2865poe     o212779   6.914   2.736   1.543  0.1833  0.2334  0.1699
 2865poe    c3112780   6.987   2.788   1.651  0.0433  0.6910  0.0479
 2866poe    c3112781   6.239   3.443   3.694  0.5374 -0.1938  0.0122
 2866poe     o212782   6.174   3.320   3.668  0.4106 -0.0906 -0.1586
 2866poe    c2312783   6.176   3.288   3.530  0.2646  0.1887 -0.2265
 2866poe    c2312784   6.095   3.375   3.433 -0.3022 -0.1194 -0.0348
 2866poe     o212785   5.956   3.371   3.460 -0.3254  0.2502 -0.0841
 2866poe    c2312786   5.888   3.437   3.356 -0.3452  0.0124 -0.2227
 2866poe    c2312787   5.855   3.346   3.236 -0.1643  0.0795 -0.3233
 2866poe     o212788   5.737   3.272   3.258  0.2661 -0.4993  0.0792
 2866poe    c2312789   5.713   3.195   3.142 -0.2054 -0.4147  0.1177
 2866poe    c2312790   5.588   3.109   3.171 -0.2934 -0.4595 -0.3837
 2866poe     o212791   5.603   3.047   3.297  0.0614  0.2527 -0.0664
 2866poe    c3112792   5.493   2.961   3.316  0.3745 -0.2716 -0.6015
 2867poe    c3112793   1.417   4.593   0.052  0.4085  0.1044  0.2926
 2867poe     o212794   1.427   4.563   0.189  0.0786 -0.2191  0.2494
 2867poe    c2312795   1.556   4.571   0.246  0.1792  0.1083 -0.0220
 2867poe    c2312796   1.635   4.441   0.223  0.4136  0.1015  0.8007
 2867poe     o212797   1.584   4.330   0.292 -0.2121 -0.3363 -0.3474
 2867poe    c2312798   1.662   4.214   0.271 -0.3398 -0.5693  0.4461
 2867poe    c2312799   1.637   4.078   0.339  0.3994 -0.9342  0.0035
 2867poe     o212800   1.540   3.995   0.279 -0.3588 -0.1823  0.1694
 2867poe    c2312801   1.584   3.931   0.162 -0.1651 -0.2426  0.2744
 2867poe    c2312802   1.532   3.786   0.168 -0.3495 -0.1727  0.3730
 2867poe     o212803   1.398   3.774   0.126 -0.1954  0.1364 -0.2203
 2867poe    c3112804   1.356   3.640   0.114 -0.2914  0.1593 -0.1516
 2868poe    c3112805   1.469   3.964   2.917 -0.5955  0.0658  0.2984
 2868poe     o212806   1.467   3.845   2.841  0.0098 -0.0192  0.4062
 2868poe    c2312807   1.441   3.867   2.704 -0.2190 -0.2091  0.4194
 2868poe    c2312808   1.432   3.736   2.623  0.3260 -0.2428  0.4120
 2868poe     o212809   1.554   3.667   2.608  0.3599  0.0133 -0.5266
 2868poe    c2312810   1.531   3.531   2.576  0.3299 -0.0839 -0.0893
 2868poe    c2312811   1.609   3.464   2.462 -0.2321 -0.1120 -0.4643
 2868poe     o212812   1.596   3.540   2.344 -0.0149  0.2522 -0.2572
 2868poe    c2312813   1.685   3.518   2.237 -0.2358 -0.0770 -0.3743
 2868poe    c2312814   1.736   3.639   2.155 -0.2667  0.0376 -0.2241
 2868poe     o212815   1.835   3.713   2.222 -0.3682 -0.2028  0.1968
 2868poe    c3112816   1.784   3.814   2.306  0.0170  0.1156  0.0520
 2869poe    c3112817   0.377   5.548   0.709 -0.4374 -0.3852 -0.1022
 2869poe     o212818   0.309   5.615   0.606  0.6614  0.8871 -0.0256
 2869poe    c2312819   0.383   5.603   0.486  0.3812  0.4410 -0.1583
 2869poe    c2312820   0.325   5.688   0.371  0.2472  0.0708 -0.3659
 2869poe     o212821   0.330   5.827   0.398  0.2737  0.0164 -0.0882
 2869poe    c2312822   0.294   5.890   0.278 -0.0746 -0.4166 -0.2167
 2869poe    c2312823   0.315   6.043   0.284  0.4299 -0.4793 -0.3669
 2869poe     o212824   0.235   6.083   0.393  0.4977 -0.0708 -0.4670
 2869poe    c2312825   0.223   6.223   0.411  0.2684 -0.1859  0.3113
 2869poe    c2312826   0.124   6.216   0.528 -0.1580  0.0814 -0.0326
 2869poe     o212827   0.167   6.110   0.610  0.3537  0.2068 -0.1366
 2869poe    c3112828   0.100   6.119   0.733 -0.1561 -0.3161 -0.3683
 2870poe    c3112829   5.245   2.274   3.165 -0.5060  0.1545  0.0070
 2870poe     o212830   5.223   2.295   3.028 -0.4101 -0.0964 -0.0468
 2870poe    c2312831   5.114   2.382   3.012  0.0589  0.4925 -0.0792
 2870poe    c2312832   5.062   2.405   2.869 -0.3966  0.2693  0.0479
 2870poe     o212833   5.023   2.297   2.787  0.0868 -0.3947  0.6866
 2870poe    c2312834   5.117   2.199   2.748  0.0079 -0.2914  0.2374
 2870poe    c2312835   5.178   2.244   2.614  0.4688 -0.1960  0.4802
 2870poe     o212836   5.288   2.327   2.648  0.2021  0.5091 -0.3477
 2870poe    c2312837   5.408   2.266   2.689 -0.0584  0.2665  0.0595
 2870poe    c2312838   5.490   2.358   2.781  0.0119 -0.3883  0.6608
 2870poe     o212839   5.536   2.480   2.729  0.0501 -0.6090  0.1697
 2870poe    c3112840   5.675   2.479   2.750  0.0085 -0.0594  0.5067
 2871poe    c3112841   7.146   0.599   1.193  0.2410  0.1758  0.1741
 2871poe     o212842   7.063   0.534   1.287 -0.0280  0.0289 -0.1613
 2871poe    c2312843   7.153   0.474   1.378 -0.4208 -0.0554  0.1732
 2871poe    c2312844   7.078   0.402   1.492 -0.2040  0.0381  0.3760
 2871poe     o212845   7.014   0.474   1.595  0.3279  0.3729  0.4733
 2871poe    c2312846   6.888   0.526   1.557  0.1323 -0.3491  0.1286
 2871poe    c2312847   6.764   0.439   1.533 -0.1511  0.0753  0.0516
 2871poe     o212848   6.742   0.379   1.407 -0.0597 -0.2419  0.1866
 2871poe    c2312849   6.609   0.334   1.411 -0.1421 -0.0191 -0.0284
 2871poe    c2312850   6.586   0.263   1.276 -0.2302 -0.0519  0.0037
 2871poe     o212851   6.553   0.340   1.162 -0.4977 -0.4788 -0.2112
 2871poe    c3112852   6.585   0.292   1.034  0.0861  0.3171 -0.3711
 2872poe    c3112853   3.961   3.229   4.707  0.0843  0.3414 -0.1203
 2872poe     o212854   3.866   3.325   4.665 -0.3538 -0.0560 -0.0599
 2872poe    c2312855   3.917   3.404   4.560 -0.4389  0.5607  0.3525
 2872poe    c2312856   4.012   3.517   4.605  0.5401 -0.2288  0.3191
 2872poe     o212857   3.937   3.625   4.656  0.6521 -0.0951  0.2036
 2872poe    c2312858   4.018   3.713   4.730  0.5868  0.3482 -0.2501
 2872poe    c2312859   3.957   3.788   4.850 -0.3005 -0.8175  0.0500
 2872poe     o212860   3.941   3.699   4.957  0.1424  0.1225  0.9144
 2872poe    c2312861   3.889   3.759   5.073 -0.3376  1.0299  0.2341
 2872poe    c2312862   3.894   3.670   5.199 -0.3227 -0.1327 -0.5736
 2872poe     o212863   4.028   3.657   5.241 -0.3777  0.2707 -0.2637
 2872poe    c3112864   4.053   3.734   5.357 -0.4979  0.3520 -0.2919
 2873poe    c3112865   2.913   6.191   3.391 -0.6169 -0.5856 -0.2807
 2873poe     o212866   2.968   6.192   3.261  0.4472 -0.5507  0.1586
 2873poe    c2312867   2.964   6.069   3.191 -0.1619 -0.7177  0.4733
 2873poe    c2312868   3.038   6.075   3.056 -0.2041  0.0800  0.4814
 2873poe     o212869   3.178   6.075   3.069 -0.1151 -0.1043 -0.4156
 2873poe    c2312870   3.245   5.952   3.054 -0.1106 -0.1842  0.2258
 2873poe    c2312871   3.380   5.993   2.992 -0.1485 -0.0727  0.2175
 2873poe     o212872   3.382   6.048   2.862 -0.0830  0.3993  0.4169
 2873poe    c2312873   3.317   5.977   2.759 -0.4405  0.6920  0.4367
 2873poe    c2312874   3.247   6.049   2.643  0.0888 -0.0705 -0.3648
 2873poe     o212875   3.319   6.072   2.523  0.2052  0.4318 -0.2010
 2873poe    c3112876   3.265   6.181   2.452 -0.2556 -0.1271 -0.7178
 2874poe    c3112877   6.460   6.813   0.336  0.4822  0.3739 -0.0933
 2874poe     o212878   6.600   6.802   0.318  0.3645 -0.5160 -0.4984
 2874poe    c2312879   6.663   6.683   0.359  0.0041 -0.6271 -0.2500
 2874poe    c2312880   6.708   6.676   0.506  0.0283 -0.4732 -0.2500
 2874poe     o212881   6.823   6.754   0.531 -0.1640 -0.4240  0.4795
 2874poe    c2312882   6.803   6.889   0.567  0.1374 -0.2480 -0.0022
 2874poe    c2312883   6.929   6.954   0.627  0.2593 -0.1893 -0.3238
 2874poe     o212884   6.959   6.903   0.754 -0.0817 -0.2524 -0.2677
 2874poe    c2312885   7.088   6.940   0.797 -0.4482  0.3157  0.3636
 2874poe    c2312886   7.120   6.859   0.923  0.6660  0.6112  0.2851
 2874poe     o212887   7.012   6.853   1.014 -0.0950 -0.5546 -0.6663
 2874poe    c3112888   7.042   6.800   1.141 -0.9695 -0.1743 -0.2924
 2875poe    c3112889   4.662   1.575   5.980 -0.7131  0.3077 -0.0340
 2875poe     o212890   4.522   1.591   5.982 -0.7637 -0.1402  0.0825
 2875poe    c2312891   4.468   1.656   6.094 -0.1349  0.7191 -0.1013
 2875poe    c2312892   4.315   1.641   6.098 -0.1155  0.4934 -0.1573
 2875poe     o212893   4.249   1.689   5.983  0.1125 -0.1217 -0.5502
 2875poe    c2312894   4.131   1.615   5.962  0.0053 -0.1859  0.2475
 2875poe    c2312895   4.050   1.669   5.843 -0.2527  0.5181  0.7312
 2875poe     o212896   3.980   1.786   5.875 -0.5766  0.4715  0.2105
 2875poe    c2312897   3.932   1.840   5.754 -0.0785  0.2637 -0.0803
 2875poe    c2312898   3.870   1.981   5.757 -0.3876  0.1305 -0.1070
 2875poe     o212899   3.952   2.096   5.766 -0.6863  0.3090  0.4006
 2875poe    c3112900   3.896   2.198   5.686  0.1773  0.4190 -0.0744
 2876poe    c3112901   3.769   0.994   6.090 -0.3050  0.5540  0.1897
 2876poe     o212902   3.906   1.017   6.115 -0.1519 -0.1842  0.0588
 2876poe    c2312903   3.938   1.133   6.041  0.3885 -0.4185 -0.0812
 2876poe    c2312904   4.086   1.175   6.034  0.3640 -0.3858 -0.4230
 2876poe     o212905   4.130   1.256   5.927 -0.2425  0.6535  0.0895
 2876poe    c2312906   4.268   1.278   5.910 -0.2721  0.3079 -0.6577
 2876poe    c2312907   4.359   1.159   5.873 -0.7042 -0.2994  0.1807
 2876poe     o212908   4.349   1.119   5.738  0.1417  0.1219 -0.0167
 2876poe    c2312909   4.398   0.988   5.720 -0.2063 -0.1134  0.7009
 2876poe    c2312910   4.323   0.907   5.611  0.3520  0.2985  0.0031
 2876poe     o212911   4.323   0.961   5.481  0.5799 -0.4082 -0.2944
 2876poe    c3112912   4.343   0.858   5.386 -0.0494 -0.8119  0.0033
 2877poe    c3112913   5.452   2.465   6.985  0.5141 -0.6117  0.3271
 2877poe     o212914   5.502   2.429   6.858 -0.2597 -0.1529 -0.1180
 2877poe    c2312915   5.591   2.320   6.861  0.0690  0.1035 -0.4222
 2877poe    c2312916   5.631   2.254   6.728  0.2957 -0.3196 -0.1469
 2877poe     o212917   5.516   2.209   6.661  0.3570 -0.2225 -0.3180
 2877poe    c2312918   5.558   2.132   6.551  0.2177 -0.3860 -0.2593
 2877poe    c2312919   5.441   2.057   6.486 -0.7675  0.9170 -0.0348
 2877poe     o212920   5.394   1.937   6.543  0.7067  0.3837  0.0958
 2877poe    c2312921   5.297   1.964   6.642  0.1748 -0.0721 -0.2960
 2877poe    c2312922   5.228   1.851   6.721  0.5842 -0.1351 -0.0234
 2877poe     o212923   5.311   1.783   6.812  0.4833 -0.0893  0.1027
 2877poe    c3112924   5.228   1.684   6.869  0.4079 -0.2988 -0.3681
 2878poe    c3112925   6.898   3.272   3.608  0.4838  0.1140  0.2668
 2878poe     o212926   6.822   3.379   3.658  0.4698  0.2877 -0.1245
 2878poe    c2312927   6.811   3.369   3.798 -0.0441 -0.3427 -0.2059
 2878poe    c2312928   6.694   3.456   3.846  0.7706  0.6367  0.0531
 2878poe     o212929   6.682   3.565   3.758  0.1977  0.2724 -0.3259
 2878poe    c2312930   6.629   3.681   3.818  0.2768  0.2381 -0.1886
 2878poe    c2312931   6.620   3.806   3.727 -0.0539  0.6256  0.3731
 2878poe     o212932   6.543   3.771   3.614  0.4778  0.2044  0.1367
 2878poe    c2312933   6.542   3.866   3.510 -0.1705  0.3950  0.3101
 2878poe    c2312934   6.450   3.815   3.398 -0.0377  0.3086  0.2404
 2878poe     o212935   6.480   3.697   3.326 -0.9553 -0.1244  0.5600
 2878poe    c3112936   6.381   3.678   3.227 -0.0617 -0.3826 -0.2923
 2879poe    c3112937   2.603   6.711   2.209  0.2048 -0.2752 -0.4838
 2879poe     o212938   2.663   6.838   2.192 -0.0265 -0.1140 -0.1036
 2879poe    c2312939   2.589   6.948   2.241  0.6801  0.3770 -0.1262
 2879poe    c2312940   2.575   7.046   2.123 -0.1513  0.2499 -0.1395
 2879poe     o212941   2.670   7.151   2.124 -0.4874  0.5471  0.9140
 2879poe    c2312942   2.622   7.265   2.058 -0.0100  0.1787 -0.0928
 2879poe    c2312943   2.730   7.365   2.012  0.0880 -0.0323 -0.3221
 2879poe     o212944   2.814   7.403   2.118 -0.6608  0.5069  0.0915
 2879poe    c2312945   2.903   7.506   2.082  0.2382 -0.4410 -0.4560
 2879poe    c2312946   3.004   7.546   2.192  0.0426 -0.2463 -0.3474
 2879poe     o212947   3.065   7.444   2.267  0.3366  0.2076  0.0380
 2879poe    c3112948   3.122   7.491   2.387  0.0118  0.2577  0.1741
 2880poe    c3112949   2.925   6.427   5.546  0.3500 -0.0980  0.3318
 2880poe     o212950   2.955   6.332   5.645 -0.4609 -0.4070  0.2932
 2880poe    c2312951   2.955   6.389   5.774  0.1982  0.3946 -0.0552
 2880poe    c2312952   2.844   6.360   5.876  0.6665  0.1568  0.3946
 2880poe     o212953   2.863   6.228   5.923  0.2418  0.1672  0.5985
 2880poe    c2312954   2.761   6.186   6.011 -0.4603  0.0871 -0.2408
 2880poe    c2312955   2.794   6.049   6.071 -0.1372  0.2508 -0.0444
 2880poe     o212956   2.785   5.946   5.975  0.3524  0.1533  0.0085
 2880poe    c2312957   2.658   5.895   5.939  0.3492  0.6516 -0.6910
 2880poe    c2312958   2.658   5.826   5.801  0.2683  0.2077 -0.4695
 2880poe     o212959   2.684   5.688   5.812  0.3705  0.2455 -0.2370
 2880poe    c3112960   2.693   5.620   5.688 -0.0994  0.1206 -0.2018
 2881poe    c3112961   5.028   5.016   5.602  0.2624  0.2712 -0.1678
 2881poe     o212962   5.103   4.990   5.718 -0.4506  0.1832  0.2773
 2881poe    c2312963   5.240   5.008   5.692 -0.6718  0.7588 -0.4988
 2881poe    c2312964   5.312   5.129   5.752 -0.1603  0.1652  0.0998
 2881poe     o212965   5.330   5.114   5.891 -0.5941  0.0701  0.1440
 2881poe    c2312966   5.379   5.239   5.934  0.1863 -0.2323  0.1483
 2881poe    c2312967   5.437   5.245   6.076 -0.0808  0.2626  0.2417
 2881poe     o212968   5.557   5.173   6.095  0.0563  0.3287 -0.3356
 2881poe    c2312969   5.616   5.210   6.218 -0.1586 -0.6727  0.0856
 2881poe    c2312970   5.736   5.121   6.253  0.3260 -0.0786 -0.0406
 2881poe     o212971   5.698   4.987   6.278  0.2521 -0.1182 -0.3635
 2881poe    c3112972   5.778   4.929   6.378  0.1982  0.3458 -0.0477
 2882poe    c3112973   1.169   0.397   6.364  0.3191  0.1191  0.4924
 2882poe     o212974   1.029   0.409   6.352  0.3759  0.6734  0.3484
 2882poe    c2312975   0.991   0.509   6.260  0.4105  0.4434  0.0794
 2882poe    c2312976   0.844   0.544   6.290  0.3452 -0.1702  0.5075
 2882poe     o212977   0.819   0.663   6.361  0.3941 -0.1916  0.5599
 2882poe    c2312978   0.682   0.666   6.395  0.3268 -0.4287  0.3121
 2882poe    c2312979   0.623   0.804   6.431  0.4379 -0.2568 -0.1618
 2882poe     o212980   0.603   0.904   6.333 -0.1163 -0.2312 -0.0248
 2882poe    c2312981   0.502   0.987   6.384  0.3170  0.0397  0.3939
 2882poe    c2312982   0.451   1.070   6.264  0.5160 -0.4369 -0.0222
 2882poe     o212983   0.387   0.989   6.168  0.3005  0.3214 -0.5208
 2882poe    c3112984   0.318   1.076   6.080 -0.2579  0.3603 -0.0500
 2883poe    c3112985   2.399   6.290   2.722  0.4193 -0.5793  0.0171
 2883poe     o212986   2.286   6.212   2.692  0.0740 -0.1577  0.2169
 2883poe    c2312987   2.196   6.280   2.607  0.6258 -0.2512 -0.4482
 2883poe    c2312988   2.077   6.192   2.567  0.6005 -0.2745 -0.3223
 2883poe     o212989   2.013   6.151   2.686 -0.0456 -0.0460 -0.5853
 2883poe    c2312990   1.891   6.219   2.699 -0.2267 -0.4330 -0.2441
 2883poe    c2312991   1.852   6.207   2.848  1.0068  0.3977  0.1574
 2883poe     o212992   1.872   6.074   2.890 -0.2391  0.1310 -0.0501
 2883poe    c2312993   1.828   6.064   3.023 -0.2355  0.0174 -0.0573
 2883poe    c2312994   1.851   5.918   3.065 -0.7570 -0.0825 -0.1151
 2883poe     o212995   1.981   5.894   3.017 -0.6480  0.3548 -0.0371
 2883poe    c3112996   2.071   5.870   3.123 -0.5899 -0.2615 -0.2219
 2884poe    c3112997   0.228   0.705   0.171 -0.0376  0.6518  0.5870
 2884poe     o212998   0.227   0.599   0.263 -0.6835  0.2757  0.1569
 2884poe    c2312999   0.358   0.591   0.316 -0.7580 -0.2076  0.2736
 2884poe    c2313000   0.370   0.477   0.419  0.1699 -0.2195  0.1543
 2884poe     o213001   0.321   0.497   0.550  0.4345  0.1076  0.2068
 2884poe    c2313002   0.305   0.366   0.598 -0.0482  0.1881  0.2711
 2884poe    c2313003   0.256   0.355   0.744  0.4294  0.1544  0.4291
 2884poe     o213004   0.308   0.468   0.810  0.3880  0.2051  0.3751
 2884poe    c2313005   0.266   0.467   0.944 -0.5057  0.2138  0.1020
 2884poe    c2313006   0.296   0.610   0.993  0.4662 -0.0636  0.3451
 2884poe     o213007   0.276   0.701   0.888 -0.0891 -0.0654  0.4471
 2884poe    c3113008   0.270   0.835   0.931  0.0061  0.2220 -0.4145
 2885poe    c3113009   4.891   5.494   5.689  0.2812  0.0646  0.0915
 2885poe     o213010   4.945   5.615   5.737 -0.1496  0.2313  0.1633
 2885poe    c2313011   5.047   5.594   5.833 -0.6264 -0.1792  0.5851
 2885poe    c2313012   5.092   5.722   5.905  0.3075 -0.0520 -0.2151
 2885poe     o213013   5.175   5.815   5.839  0.0090  0.2561 -0.1524
 2885poe    c2313014   5.227   5.922   5.915 -0.0485  0.1148  0.0848
 2885poe    c2313015   5.137   6.046   5.903 -0.7045 -0.3656 -0.0093
 2885poe     o213016   5.134   6.074   5.765  0.4345 -0.6214 -0.0975
 2885poe    c2313017   5.161   6.212   5.758 -0.5519 -0.4240 -0.1793
 2885poe    c2313018   5.071   6.280   5.654 -0.1311 -0.6207 -0.6747
 2885poe     o213019   5.126   6.305   5.526  0.2775  0.6446 -0.2666
 2885poe    c3113020   5.035   6.377   5.446  0.1356  0.6946 -0.0610
 2886poe    c3113021   2.595   6.379   3.507 -0.4089  0.2717  0.3379
 2886poe     o213022   2.699   6.445   3.576 -0.2098 -0.0026  0.3011
 2886poe    c2313023   2.656   6.491   3.702  0.0245 -0.3428  0.5088
 2886poe    c2313024   2.753   6.599   3.751 -0.0493  0.2422 -0.6082
 2886poe     o213025   2.725   6.729   3.702 -0.0002  0.4804 -0.0053
 2886poe    c2313026   2.762   6.823   3.800  0.1863  0.3011  0.0987
 2886poe    c2313027   2.735   6.972   3.770  0.1162  0.2326 -0.1822
 2886poe     o213028   2.595   6.992   3.763  0.0678 -0.0113  0.0615
 2886poe    c2313029   2.558   7.121   3.720  0.1244  0.1015  0.3522
 2886poe    c2313030   2.407   7.145   3.730  0.0388 -0.2224 -0.1225
 2886poe     o213031   2.342   7.065   3.634 -0.3512 -0.4541  0.3319
 2886poe    c3113032   2.206   7.048   3.667 -0.6671 -0.1017 -0.7448
 2887poe    c3113033   4.613   2.828   5.850  0.6126 -0.1657 -0.0157
 2887poe     o213034   4.607   2.910   5.964 -0.3081  0.0641 -0.2158
 2887poe    c2313035   4.480   2.962   5.993 -0.0431  0.5508  0.0915
 2887poe    c2313036   4.459   3.032   6.129  0.0358 -0.2067  0.4978
 2887poe     o213037   4.536   3.148   6.143  0.1444 -0.3041  0.7119
 2887poe    c2313038   4.467   3.220   6.243  0.4795  0.1395  0.6276
 2887poe    c2313039   4.498   3.371   6.251  0.5016  0.2214 -0.6925
 2887poe     o213040   4.635   3.384   6.281  0.2748 -0.0908  0.5634
 2887poe    c2313041   4.672   3.499   6.353 -0.4391  0.4783  0.0417
 2887poe    c2313042   4.632   3.634   6.293 -0.2958  0.7434  0.5354
 2887poe     o213043   4.735   3.667   6.202 -0.4612  0.3838  0.2137
 2887poe    c3113044   4.788   3.792   6.244  0.3982 -0.0671  0.5064
 2888poe    c3113045   3.726   1.529   4.817 -0.1650  0.1477 -0.9186
 2888poe     o213046   3.661   1.431   4.738 -0.7817 -0.0034 -0.2333
 2888poe    c2313047   3.570   1.481   4.643 -0.4030  0.0469 -0.5742
 2888poe    c2313048   3.515   1.361   4.563  0.1136 -0.4366 -0.2109
 2888poe     o213049   3.418   1.274   4.616  0.0902  0.2288  0.8565
 2888poe    c2313050   3.292   1.337   4.610 -0.1040 -0.2294 -0.1729
 2888poe    c2313051   3.184   1.265   4.693  0.8013 -0.3793  0.9084
 2888poe     o213052   3.190   1.276   4.833  0.4190 -0.2369  0.9167
 2888poe    c2313053   3.077   1.217   4.892  0.3218 -1.0303 -0.0390
 2888poe    c2313054   3.099   1.175   5.038  0.3553  0.1633  0.3106
 2888poe     o213055   3.202   1.079   5.049  0.4347  0.1921 -0.1898
 2888poe    c3113056   3.251   1.074   5.181  0.0941 -0.8636 -0.0969
 2889poe    c3113057   4.247   1.135   1.943 -0.3781  0.4441  0.5579
 2889poe     o213058   4.193   1.127   1.813 -0.2298  0.0348  0.5210
 2889poe    c2313059   4.082   1.213   1.812  0.1215  0.4900  0.4566
 2889poe    c2313060   4.034   1.253   1.671  0.2093  0.1327  0.3256
 2889poe     o213061   3.979   1.152   1.589  0.0033  0.5045  0.0052
 2889poe    c2313062   3.898   1.199   1.483  0.0262 -0.1090 -0.2898
 2889poe    c2313063   3.862   1.098   1.373 -0.4186 -0.0627 -0.1880
 2889poe     o213064   3.749   1.025   1.415 -0.1880 -0.2768  0.0677
 2889poe    c2313065   3.746   0.899   1.353  0.2448 -0.1085 -0.2971
 2889poe    c2313066   3.642   0.801   1.410  0.4771 -0.2538 -0.1210
 2889poe     o213067   3.646   0.799   1.551  0.3134  0.0731 -0.1120
 2889poe    c3113068   3.538   0.714   1.578  0.3579 -0.0518 -0.3187
 2890poe    c3113069   5.200   5.009   2.260  0.2658 -0.0456 -0.2984
 2890poe     o213070   5.063   5.032   2.240  0.1306 -0.4552  0.1434
 2890poe    c2313071   5.011   5.060   2.368 -0.6609 -0.3199 -0.1984
 2890poe    c2313072   4.865   5.110   2.373 -0.3085  0.6361  0.8264
 2890poe     o213073   4.768   5.028   2.312  0.2953  0.2824  0.3298
 2890poe    c2313074   4.702   4.953   2.411 -0.2214  0.3392  0.0267
 2890poe    c2313075   4.553   4.934   2.373 -0.2062  0.2489  0.0123
 2890poe     o213076   4.490   5.058   2.351  0.1134  0.3426 -0.3836
 2890poe    c2313077   4.359   5.047   2.300 -0.0398  0.0732  0.0681
 2890poe    c2313078   4.329   5.171   2.215  0.3787  0.0187 -0.1646
 2890poe     o213079   4.419   5.187   2.108 -0.1125 -0.5102 -0.6662
 2890poe    c3113080   4.386   5.303   2.035  0.3764  0.1194  0.0965
 2891poe    c3113081   5.387   3.277   3.954  0.1686  0.3795 -0.4573
 2891poe     o213082   5.518   3.225   3.952  0.2380  0.5142  0.1429
 2891poe    c2313083   5.536   3.126   4.050 -0.3762 -0.1618 -0.4200
 2891poe    c2313084   5.591   3.002   3.978  0.1561 -0.0405 -0.2267
 2891poe     o213085   5.515   2.961   3.866 -0.8052 -0.0003  0.4009
 2891poe    c2313086   5.416   2.873   3.912 -0.0855 -1.1717 -0.2499
 2891poe    c2313087   5.320   2.838   3.797 -0.5435  0.0454 -0.2497
 2891poe     o213088   5.350   2.749   3.692 -0.0731 -0.4073  0.2627
 2891poe    c2313089   5.242   2.739   3.602 -0.0406 -0.1729  0.1967
 2891poe    c2313090   5.276   2.616   3.516 -0.1048 -0.2920  0.3435
 2891poe     o213091   5.298   2.494   3.585 -0.2009 -0.5197 -0.0233
 2891poe    c3113092   5.382   2.404   3.517 -0.1932 -0.6354  0.1386
 2892poe    c3113093   1.263   5.898   2.508  0.4107  0.1450  0.7483
 2892poe     o213094   1.272   5.774   2.442  0.4069  0.2013  0.6417
 2892poe    c2313095   1.208   5.782   2.317  0.6969 -0.8566  0.4179
 2892poe    c2313096   1.228   5.641   2.256  0.6221 -0.4759 -0.5064
 2892poe     o213097   1.164   5.532   2.318 -0.0957  0.0979 -0.2154
 2892poe    c2313098   1.188   5.416   2.241  0.1565  0.1277 -0.1836
 2892poe    c2313099   1.100   5.302   2.295  0.0592  0.2174 -0.1521
 2892poe     o213100   1.104   5.308   2.436  0.3009 -0.0523 -0.1445
 2892poe    c2313101   1.045   5.195   2.496  0.1586  0.1275  0.0594
 2892poe    c2313102   1.020   5.238   2.641  0.4615  0.0035  0.1496
 2892poe     o213103   0.949   5.359   2.633  0.4460  0.0054  0.3019
 2892poe    c3113104   0.920   5.406   2.762 -0.0293  0.3033  0.0902
 2893poe    c3113105   1.943   1.330   1.364  0.2246 -0.1784  0.0039
 2893poe     o213106   1.995   1.204   1.325 -0.4741 -0.2793 -0.6295
 2893poe    c2313107   2.040   1.191   1.192 -0.0362  0.6092 -0.5766
 2893poe    c2313108   2.070   1.043   1.165 -0.2054  0.4325  0.1821
 2893poe     o213109   2.122   0.991   1.286 -0.2206  0.1571  0.0715
 2893poe    c2313110   2.176   0.861   1.280 -0.0075  0.2322  0.3677
 2893poe    c2313111   2.254   0.814   1.404  0.2695  0.3373  0.2344
 2893poe     o213112   2.177   0.817   1.522 -0.1152  0.7872 -0.0267
 2893poe    c2313113   2.262   0.844   1.631  0.0590 -0.2101  0.1009
 2893poe    c2313114   2.194   0.852   1.768  0.3381 -0.2247  0.2411
 2893poe     o213115   2.087   0.944   1.781  0.2761 -0.2706  0.0581
 2893poe    c3113116   2.007   0.914   1.893 -0.4874 -0.0879 -0.4299
 2894poe    c3113117   2.717   0.699   1.933 -0.9876  0.3762 -0.1328
 2894poe     o213118   2.606   0.735   2.013 -0.6732 -0.2625  0.6025
 2894poe    c2313119   2.646   0.803   2.130  0.0488 -0.0467  0.2434
 2894poe    c2313120   2.518   0.820   2.215 -0.0694 -0.4907  0.1588
 2894poe     o213121   2.472   0.692   2.251 -0.2388 -0.3042  0.6207
 2894poe    c2313122   2.412   0.688   2.378 -0.1034  0.8613  0.7333
 2894poe    c2313123   2.334   0.555   2.394  0.1571  0.6275  0.0716
 2894poe     o213124   2.261   0.533   2.275  0.2614 -0.5685  0.2259
 2894poe    c2313125   2.156   0.439   2.287 -0.1978 -0.0543  0.2263
 2894poe    c2313126   2.057   0.450   2.169  0.0770 -0.0236 -0.0016
 2894poe     o213127   2.137   0.485   2.058  0.2683 -0.4447  0.0006
 2894poe    c3113128   2.096   0.429   1.936  0.5955 -0.1568 -0.2433
 2895poe    c3113129   3.473   5.462   0.049 -0.0346  0.3778 -0.5935
 2895poe     o213130   3.369   5.391   0.113  0.1680  0.9072  0.3353
 2895poe    c2313131   3.345   5.280   0.030  0.2715  0.7412  0.5254
 2895poe    c2313132   3.207   5.217   0.055  0.3130  0.3465 -0.2035
 2895poe     o213133   3.115   5.315   0.098  0.0404  0.1209 -0.2682
 2895poe    c2313134   2.986   5.290   0.048 -0.1885  0.1585  0.2915
 2895poe    c2313135   2.879   5.400   0.059 -0.1422  0.1859  0.4589
 2895poe     o213136   2.931   5.519   0.005 -0.0760  0.0207  0.1607
 2895poe    c2313137   2.841   5.626  -0.009 -0.2144 -0.1734 -0.4666
 2895poe    c2313138   2.897   5.744  -0.091 -0.1146  0.1807  0.1083
 2895poe     o213139   2.988   5.822  -0.017  0.1000  0.2789 -0.2570
 2895poe    c3113140   3.028   5.935  -0.092  0.0408  0.1128 -0.5387
 2896poe    c3113141   3.203   4.111   6.660  0.2703  0.4455  0.1854
 2896poe     o213142   3.106   4.106   6.762 -0.0533  0.0063 -0.1408
 2896poe    c2313143   3.038   3.983   6.749 -0.1498  0.0635 -0.1798
 2896poe    c2313144   3.006   3.929   6.890 -0.4173 -0.0231 -0.2746
 2896poe     o213145   3.111   3.877   6.968 -0.4296  0.4851  0.0807
 2896poe    c2313146   3.064   3.822   7.089 -0.5094  0.1357 -0.1082
 2896poe    c2313147   3.174   3.822   7.198 -0.6368 -0.1570  0.0215
 2896poe     o213148   3.276   3.742   7.144  0.0542  0.1330  0.8771
 2896poe    c2313149   3.366   3.701   7.244  0.4001 -0.5183  0.3160
 2896poe    c2313150   3.499   3.679   7.169  0.3705 -0.1913  0.1678
 2896poe     o213151   3.480   3.586   7.065  0.0473  0.2942 -0.2116
 2896poe    c3113152   3.610   3.572   7.013  0.2975  0.5105  0.3508
 2897poe    c3113153   4.880   7.159   5.984 -0.0669  0.2009 -0.3638
 2897poe     o213154   4.821   7.251   5.895 -0.1073  0.5344  0.0032
 2897poe    c2313155   4.692   7.275   5.946  0.2762  0.4700  1.0356
 2897poe    c2313156   4.638   7.407   5.888  0.3293  0.0369 -0.0198
 2897poe     o213157   4.719   7.522   5.901  0.1610  0.1593 -0.0361
 2897poe    c2313158   4.638   7.635   5.879 -0.0476  0.0101 -0.0334
 2897poe    c2313159   4.737   7.744   5.924 -0.1931  0.0255  0.2516
 2897poe     o213160   4.850   7.729   5.841 -0.1095 -0.0762  0.3848
 2897poe    c2313161   4.946   7.831   5.856  0.1192 -0.2433  0.0796
 2897poe    c2313162   5.065   7.796   5.765 -0.2416  0.0638 -0.5143
 2897poe     o213163   5.090   7.660   5.791  0.1904  0.1173 -0.6552
 2897poe    c3113164   5.207   7.615   5.726  0.4140 -0.2444 -0.0109
 2898poe    c3113165   6.396   3.189   5.541  0.0825  0.2058  0.7543
 2898poe     o213166   6.416   3.291   5.446  0.0456 -0.2894  0.2126
 2898poe    c2313167   6.399   3.419   5.504 -0.4367 -0.1116 -0.3116
 2898poe    c2313168   6.412   3.538   5.407  0.5317  0.0934  0.0556
 2898poe     o213169   6.313   3.528   5.307  0.3176 -0.0188  0.2764
 2898poe    c2313170   6.318   3.648   5.232  0.3158 -0.0540  0.2197
 2898poe    c2313171   6.234   3.641   5.103 -0.0103  0.3241  0.4059
 2898poe     o213172   6.108   3.593   5.144 -0.5168  0.6338 -0.7593
 2898poe    c2313173   6.029   3.564   5.031 -0.4775 -0.5713 -0.4923
 2898poe    c2313174   5.896   3.525   5.098 -0.2941 -0.5890 -0.1396
 2898poe     o213175   5.917   3.440   5.209 -0.3866 -0.1943  0.1834
 2898poe    c3113176   5.798   3.376   5.248 -0.9158  0.2901 -0.6149
 2899poe    c3113177   1.426   2.632   4.424 -0.4572 -0.1544 -0.2336
 2899poe     o213178   1.457   2.501   4.465 -0.0086  0.1326  0.3666
 2899poe    c2313179   1.345   2.450   4.533 -0.1633  0.7993  0.6181
 2899poe    c2313180   1.360   2.318   4.611  0.6454  0.5258  0.0117
 2899poe     o213181   1.352   2.209   4.521  0.4911  0.1702  0.4548
 2899poe    c2313182   1.368   2.091   4.598  0.6273 -0.0745  0.0517
 2899poe    c2313183   1.410   1.975   4.506  0.1746 -0.1439 -0.0703
 2899poe     o213184   1.545   1.986   4.470  0.1972  0.0180  0.0604
 2899poe    c2313185   1.567   1.900   4.360 -0.3909  0.2212 -0.2235
 2899poe    c2313186   1.695   1.952   4.292  0.0139  0.0137  0.3655
 2899poe     o213187   1.696   2.080   4.233  0.1092 -0.2501 -0.2156
 2899poe    c3113188   1.817   2.103   4.166  0.2830  0.7075  0.4009
 2900poe    c3113189   0.303   1.922   4.927  0.9323 -0.4276 -0.5065
 2900poe     o213190   0.357   2.044   4.879  0.4976 -0.0869 -0.1314
 2900poe    c2313191   0.405   2.121   4.987 -0.4416  0.4183 -0.0598
 2900poe    c2313192   0.486   2.236   4.924  0.3683  0.3562  0.8471
 2900poe     o213193   0.612   2.186   4.885  0.0782  0.3228 -0.0593
 2900poe    c2313194   0.703   2.284   4.841  0.0141  0.5287  0.2654
 2900poe    c2313195   0.832   2.213   4.795  0.0253  0.4407  0.4344
 2900poe     o213196   0.906   2.140   4.890  0.0678 -0.0837 -0.0006
 2900poe    c2313197   1.042   2.130   4.855  0.1990  0.1985  0.4276
 2900poe    c2313198   1.115   2.039   4.955 -0.2610 -0.0792  0.5148
 2900poe     o213199   1.063   1.908   4.958  0.0447 -0.2508 -1.0301
 2900poe    c3113200   1.088   1.848   5.082  0.0988  0.6410 -0.6031
 2901poe    c3113201   2.880   6.322   6.721 -0.1422  0.1009 -0.4390
 2901poe     o213202   2.849   6.185   6.734 -0.5096  0.1651 -0.6079
 2901poe    c2313203   2.814   6.131   6.609 -0.3272  0.0124 -0.5929
 2901poe    c2313204   2.819   5.977   6.614  0.8292  0.0726  0.6267
 2901poe     o213205   2.731   5.926   6.711  0.0488  0.0861 -0.0663
 2901poe    c2313206   2.776   5.796   6.740  0.2832  0.1408 -0.1813
 2901poe    c2313207   2.678   5.698   6.808 -0.1903  0.2716 -0.6702
 2901poe     o213208   2.639   5.738   6.937  0.3553 -0.3599 -0.3097
 2901poe    c2313209   2.500   5.748   6.952  0.4214  0.0118  0.0891
 2901poe    c2313210   2.449   5.780   7.094  0.3431  0.2586  0.0056
 2901poe     o213211   2.479   5.681   7.190 -0.3005  0.0024 -0.0529
 2901poe    c3113212   2.440   5.721   7.320  0.1521  0.3529 -0.0225
 2902poe    c3113213   1.898   0.540   6.750  0.7383  0.1419 -0.6717
 2902poe     o213214   1.983   0.429   6.766  0.7354  0.2008 -0.2204
 2902poe    c2313215   1.901   0.322   6.808  0.7724 -0.0679 -0.8153
 2902poe    c2313216   1.969   0.185   6.797  0.4767 -0.2608 -0.2870
 2902poe     o213217   1.978   0.136   6.665  0.0015 -0.0644 -0.3935
 2902poe    c2313218   1.978  -0.005   6.656  0.6823 -0.1013  0.1499
 2902poe    c2313219   2.077  -0.081   6.566  0.5733  0.7421 -0.7002
 2902poe     o213220   2.211  -0.074   6.609  0.5294 -0.1868 -0.3734
 2902poe    c2313221   2.306  -0.133   6.523  0.4803 -0.0736 -0.5074
 2902poe    c2313222   2.449  -0.145   6.581  0.2935 -0.3286 -0.0927
 2902poe     o213223   2.520  -0.025   6.600  0.0464 -0.0281 -0.9903
 2902poe    c3113224   2.642  -0.057   6.664 -0.6529  0.2689  0.5324
 2903poe    c3113225   4.766   0.826   2.944  0.0696 -1.0218 -0.0891
 2903poe     o213226   4.673   0.756   3.023 -0.4199 -0.1195  0.1515
 2903poe    c2313227   4.565   0.842   3.051 -0.4171  0.1938 -0.7819
 2903poe    c2313228   4.443   0.766   3.107  0.1492 -0.1225  0.0324
 2903poe     o213229   4.433   0.764   3.247  0.0642  0.4536  0.0352
 2903poe    c2313230   4.343   0.662   3.285  0.7616 -0.2198 -0.1101
 2903poe    c2313231   4.335   0.630   3.435  0.1315  0.1131 -0.0713
 2903poe     o213232   4.272   0.727   3.515  0.1641 -0.0581  0.1629
 2903poe    c2313233   4.315   0.727   3.650 -0.0373  0.0069  0.2276
 2903poe    c2313234   4.258   0.857   3.710 -0.4157 -0.0769  0.0574
 2903poe     o213235   4.341   0.963   3.668 -0.1320 -0.2451  0.1884
 2903poe    c3113236   4.288   1.088   3.704  0.0897  0.0406 -0.4699
 2904poe    c3113237   3.624   6.945   2.833  0.4514 -0.2005 -0.0977
 2904poe     o213238   3.685   7.072   2.822  0.8603 -0.3731  0.1488
 2904poe    c2313239   3.730   7.069   2.689 -0.0039  0.0445 -0.1587
 2904poe    c2313240   3.797   7.202   2.648  0.1717 -0.0959 -0.3283
 2904poe     o213241   3.881   7.259   2.745  0.1449 -0.0947 -0.3057
 2904poe    c2313242   3.942   7.383   2.718 -0.0163  0.0727  0.0790
 2904poe    c2313243   3.840   7.488   2.766  0.3647  0.2577  0.4940
 2904poe     o213244   3.830   7.503   2.906 -0.3175  0.1080  0.4645
 2904poe    c2313245   3.733   7.600   2.939 -0.3588  0.1373  0.2625
 2904poe    c2313246   3.785   7.719   3.022  0.5035 -0.1087  0.0841
 2904poe     o213247   3.817   7.669   3.149  0.2666 -0.0252  0.1782
 2904poe    c3113248   3.856   7.771   3.238  0.5938 -0.1138  0.1378
 2905poe    c3113249   5.490   7.198   5.108  0.4928  0.2732 -0.0071
 2905poe     o213250   5.498   7.087   5.194 -0.1378  0.0037 -0.2894
 2905poe    c2313251   5.533   7.132   5.323 -0.5373 -0.3147 -0.0697
 2905poe    c2313252   5.560   7.010   5.413  0.4010  0.1358  0.2712
 2905poe     o213253   5.477   6.904   5.371 -0.2326  0.4937  0.5931
 2905poe    c2313254   5.493   6.791   5.453 -0.2065  0.4592  0.5403
 2905poe    c2313255   5.392   6.680   5.417 -0.1048  0.3896  0.4676
 2905poe     o213256   5.404   6.663   5.278 -0.2424  0.4550  0.4473
 2905poe    c2313257   5.323   6.550   5.255  0.1979  0.3168 -0.4656
 2905poe    c2313258   5.263   6.538   5.114  0.3561 -0.0562 -0.5026
 2905poe     o213259   5.166   6.638   5.090 -0.0853 -0.3335  0.0996
 2905poe    c3113260   5.058   6.579   5.022  0.3493 -0.3171 -0.6094
 2906poe    c3113261   4.783   2.851   1.436 -0.7175  0.2825 -0.4794
 2906poe     o213262   4.890   2.904   1.361  0.0601 -0.4532  0.0884
 2906poe    c2313263   4.969   2.985   1.446 -0.1269  0.0054 -0.1724
 2906poe    c2313264   4.972   3.138   1.430 -0.2451  0.0576  0.2898
 2906poe     o213265   5.057   3.170   1.322 -0.3140  0.2920  0.3048
 2906poe    c2313266   5.108   3.301   1.337 -0.3360  0.3032  0.2804
 2906poe    c2313267   5.154   3.343   1.196 -0.1511  0.3611  0.3573
 2906poe     o213268   5.052   3.348   1.098 -0.0340 -0.5122  0.1868
 2906poe    c2313269   4.954   3.447   1.122  0.3745  0.0188 -0.3199
 2906poe    c2313270   4.823   3.392   1.063 -0.3184  0.4569  0.7804
 2906poe     o213271   4.824   3.353   0.927  0.5288  0.9443  0.6407
 2906poe    c3113272   4.761   3.448   0.844  0.2601 -0.0979 -0.3646
 2907poe    c3113273   7.091   5.618   5.163  0.1957  0.2875  0.0867
 2907poe     o213274   6.979   5.702   5.170 -0.2871 -0.2943 -0.4618
 2907poe    c2313275   6.867   5.630   5.217 -0.1903 -0.3781 -0.3591
 2907poe    c2313276   6.758   5.739   5.222  0.3191  0.1384 -0.4250
 2907poe     o213277   6.826   5.860   5.250  0.0818  0.0533  0.5320
 2907poe    c2313278   6.728   5.961   5.246 -0.2980 -0.3248  0.0627
 2907poe    c2313279   6.793   6.098   5.276  0.5070 -0.8723  0.8744
 2907poe     o213280   6.899   6.111   5.183 -0.3987  0.0562 -0.0573
 2907poe    c2313281   6.983   6.222   5.203 -0.3245  0.0873 -0.5333
 2907poe    c2313282   7.079   6.242   5.085  0.2248 -0.0099 -0.1050
 2907poe     o213283   7.012   6.300   4.975 -0.1569  0.0442  0.1547
 2907poe    c3113284   7.088   6.284   4.857 -0.0151  0.0246  0.2485
 2908poe    c3113285   5.974   0.819   3.353  0.0684 -0.4230  0.0334
 2908poe     o213286   6.003   0.702   3.428  0.1251 -0.1190  0.4913
 2908poe    c2313287   6.105   0.732   3.520  0.6437 -0.5020  0.0442
 2908poe    c2313288   6.115   0.617   3.622  0.0140 -0.4117  0.2083
 2908poe     o213289   5.998   0.623   3.701  0.4159  1.0969  0.7139
 2908poe    c2313290   6.009   0.525   3.802 -0.3316  0.1021 -0.1548
 2908poe    c2313291   5.880   0.457   3.852 -0.5765  0.7589  0.1162
 2908poe     o213292   5.817   0.397   3.741 -0.1090 -0.4111  0.4661
 2908poe    c2313293   5.688   0.347   3.764 -0.7708  0.9748 -0.1195
 2908poe    c2313294   5.613   0.316   3.633 -0.3492 -0.3284 -0.0694
 2908poe     o213295   5.624   0.181   3.593 -0.5220 -0.2769 -0.2927
 2908poe    c3113296   5.598   0.171   3.455  0.2584 -0.1027 -0.4570
 2909poe    c3113297   4.712   5.466   5.281 -0.1257  0.2483 -0.2270
 2909poe     o213298   4.712   5.528   5.154 -0.2258 -0.3995 -0.5489
 2909poe    c2313299   4.828   5.608   5.143 -0.1898 -0.4102 -0.2516
 2909poe    c2313300   4.822   5.684   5.010 -0.4039  0.4640  0.2453
 2909poe     o213301   4.725   5.785   5.015 -0.4638  0.4341 -0.2224
 2909poe    c2313302   4.707   5.829   4.882 -0.1150  0.6715 -0.1925
 2909poe    c2313303   4.592   5.930   4.866 -0.5193  0.2049 -0.2493
 2909poe     o213304   4.471   5.863   4.893  0.0136 -0.6019  0.1893
 2909poe    c2313305   4.375   5.962   4.924 -0.1669 -0.5530 -0.5032
 2909poe    c2313306   4.237   5.897   4.905 -0.5928  0.0048  0.5874
 2909poe     o213307   4.249   5.759   4.929  0.4431 -0.0579 -0.2094
 2909poe    c3113308   4.121   5.701   4.943  0.1945  0.4069 -0.5619
 2910poe    c3113309   0.152   1.857   3.029 -0.0619  0.1579 -0.1776
 2910poe     o213310   0.190   1.960   2.941  0.0183  0.2774 -0.0053
 2910poe    c2313311   0.330   1.970   2.933  0.0202  0.2967  0.0540
 2910poe    c2313312   0.382   2.090   2.851 -0.0089  0.1508 -0.1791
 2910poe     o213313   0.289   2.191   2.884 -0.2706 -0.0663 -0.2477
 2910poe    c2313314   0.329   2.318   2.839 -0.2180 -0.0047 -0.0296
 2910poe    c2313315   0.207   2.412   2.840 -0.0761  0.1854 -0.2921
 2910poe     o213316   0.090   2.334   2.825  0.0458 -0.0310 -0.1322
 2910poe    c2313317  -0.006   2.424   2.774 -0.2696  0.0038  0.5150
 2910poe    c2313318  -0.150   2.370   2.771 -0.2822  0.0539  0.1299
 2910poe     o213319  -0.173   2.253   2.695 -0.3664 -0.4153  0.8615
 2910poe    c3113320  -0.308   2.245   2.657 -0.1531  0.1838 -0.0590
 2911poe    c3113321   1.375   6.093   2.117  0.2309 -0.1943  0.1179
 2911poe     o213322   1.322   6.219   2.152 -0.3978 -0.2924 -0.4464
 2911poe    c2313323   1.199   6.204   2.220 -0.1833 -0.3367 -0.0650
 2911poe    c2313324   1.165   6.332   2.298 -0.1568 -0.0211 -0.5679
 2911poe     o213325   1.101   6.443   2.240 -0.2076  0.3562  0.2010
 2911poe    c2313326   0.970   6.412   2.197 -0.2035  0.2180  0.2905
 2911poe    c2313327   0.895   6.520   2.118 -0.2747  0.1298  0.2371
 2911poe     o213328   0.878   6.651   2.168  0.8023  0.2481  0.3148
 2911poe    c2313329   0.880   6.753   2.071 -0.5893 -0.0423 -0.0324
 2911poe    c2313330   0.881   6.894   2.131  0.6089  0.0496 -0.2547
 2911poe     o213331   0.995   6.915   2.211  0.4342  0.0575 -0.0099
 2911poe    c3113332   1.012   7.053   2.233  0.1724  0.1480 -0.3844
 2912poe    c3113333   2.579   3.561   3.554 -0.2285  0.2249 -0.3781
 2912poe     o213334   2.605   3.527   3.689  0.0309  0.1813 -0.4384
 2912poe    c2313335   2.491   3.458   3.732  0.3435  0.0877  0.2485
 2912poe    c2313336   2.475   3.471   3.885  1.0992 -0.0378  0.3420
 2912poe     o213337   2.464   3.607   3.921  0.3237 -0.1039  0.3688
 2912poe    c2313338   2.397   3.608   4.045 -0.0721 -0.1158  0.1565
 2912poe    c2313339   2.319   3.741   4.045 -0.2664 -0.2287  0.0729
 2912poe     o213340   2.398   3.858   4.055  0.0198 -0.3982 -0.2014
 2912poe    c2313341   2.440   3.888   4.186 -0.4166 -0.5624 -0.0212
 2912poe    c2313342   2.500   4.029   4.204  0.0561 -0.6730 -0.7000
 2912poe     o213343   2.630   4.043   4.151  0.2010  0.4780 -0.0800
 2912poe    c3113344   2.619   4.102   4.024  0.4052  0.4536 -0.1093
 2913poe    c3113345   2.677   4.203   0.957 -0.0780  0.1372  0.1353
 2913poe     o213346   2.782   4.162   0.872  0.1856  0.1611  0.4432
 2913poe    c2313347   2.849   4.276   0.824  0.1453  0.2712  0.6473
 2913poe    c2313348   2.978   4.244   0.745  0.0151 -0.2000  0.6213
 2913poe     o213349   2.967   4.163   0.630  0.4112  0.5201  0.0654
 2913poe    c2313350   3.099   4.146   0.585  0.1523 -0.0520 -0.4935
 2913poe    c2313351   3.112   4.008   0.518  0.1158 -0.0721 -0.4599
 2913poe     o213352   2.990   3.974   0.456 -0.0437 -0.2421 -0.0541
 2913poe    c2313353   3.004   3.846   0.400 -0.0301 -0.2365 -0.0634
 2913poe    c2313354   2.880   3.811   0.316 -0.0298 -0.2227 -0.0696
 2913poe     o213355   2.776   3.771   0.402  0.2966 -0.6214  0.1408
 2913poe    c3113356   2.669   3.734   0.318 -0.1368 -0.1231  0.4681
 2914poe    c3113357   3.965   0.072   6.553 -0.2031  0.2436 -0.3384
 2914poe     o213358   3.883   0.103   6.442 -0.2782  0.1101 -0.3217
 2914poe    c2313359   3.961   0.114   6.325  0.3360  0.0760  0.0775
 2914poe    c2313360   3.881   0.203   6.228 -0.2090  0.1530  0.5943
 2914poe     o213361   3.763   0.133   6.197 -0.1206  0.3317 -0.1540
 2914poe    c2313362   3.675   0.207   6.114  0.0661  0.3896 -0.3027
 2914poe    c2313363   3.555   0.121   6.071  0.1796  0.1610 -0.1678
 2914poe     o213364   3.507   0.071   6.194  0.8866 -0.4283 -0.1240
 2914poe    c2313365   3.387   0.000   6.174 -0.1316  1.1613  0.1683
 2914poe    c2313366   3.337  -0.020   6.319 -0.1351  0.0520  0.0186
 2914poe     o213367   3.428  -0.099   6.391 -0.1876  0.4972  0.5813
 2914poe    c3113368   3.382  -0.160   6.510  0.4106 -0.0756  0.5280
 2915poe    c3113369   3.774   6.752   1.023  0.2522 -0.5107 -0.1281
 2915poe     o213370   3.671   6.698   0.944 -0.0226  0.2013 -0.2682
 2915poe    c2313371   3.736   6.614   0.850  0.2209 -0.2175  0.2719
 2915poe    c2313372   3.663   6.492   0.791 -0.2761 -0.0197  0.4737
 2915poe     o213373   3.535   6.530   0.744  0.1998  0.1418 -0.7269
 2915poe    c2313374   3.464   6.417   0.699 -0.7550  0.5126 -0.1749
 2915poe    c2313375   3.321   6.378   0.742 -0.6498 -0.2100 -0.4665
 2915poe     o213376   3.220   6.452   0.676 -0.4736  0.4086 -0.0421
 2915poe    c2313377   3.101   6.452   0.751 -0.2945 -0.2210  0.2530
 2915poe    c2313378   2.986   6.546   0.710  0.0239 -0.0917 -0.3547
 2915poe     o213379   3.023   6.682   0.714 -0.3681 -0.0010  0.2433
 2915poe    c3113380   3.049   6.732   0.844  0.0856  0.0986  0.1173
 2916poe    c3113381   4.055   5.914   0.397  0.2088  0.2074 -0.3865
 2916poe     o213382   3.993   5.989   0.499 -0.1728  0.1002 -0.5345
 2916poe    c2313383   3.858   6.013   0.469 -0.1773  0.2197 -0.4218
 2916poe    c2313384   3.822   6.150   0.528 -0.1661  0.1037 -0.1440
 2916poe     o213385   3.889   6.263   0.477  0.4701 -0.4456 -0.5277
 2916poe    c2313386   3.811   6.380   0.479  1.1712  0.0184 -0.2797
 2916poe    c2313387   3.741   6.429   0.351  1.0420 -0.1422 -0.2702
 2916poe     o213388   3.847   6.467   0.267  0.8286  0.4906 -0.2569
 2916poe    c2313389   3.781   6.488   0.144  0.0995  0.1354  0.0714
 2916poe    c2313390   3.867   6.524   0.021 -0.1208 -0.4067 -0.2434
 2916poe     o213391   3.963   6.429  -0.020  0.2001 -0.3239  0.3023
 2916poe    c3113392   4.051   6.485  -0.115 -0.5151  0.0274 -0.1670
 2917poe    c3113393   4.003   4.580   5.418  0.2756 -0.3322  0.1025
 2917poe     o213394   3.928   4.506   5.325 -0.3078  0.0638  0.2514
 2917poe    c2313395   3.829   4.430   5.390  0.0674 -0.4574  0.2199
 2917poe    c2313396   3.703   4.409   5.303  0.0845 -0.7394  0.2616
 2917poe     o213397   3.714   4.317   5.197  0.2811 -0.1312 -0.2493
 2917poe    c2313398   3.603   4.318   5.109  0.4714  0.2728 -0.4903
 2917poe    c2313399   3.595   4.203   5.007 -0.2216  0.0778 -0.2196
 2917poe     o213400   3.701   4.196   4.915  0.4459 -0.1413  0.5500
 2917poe    c2313401   3.688   4.089   4.823 -0.7750  0.8780 -0.5122
 2917poe    c2313402   3.800   4.100   4.718 -0.1499 -0.2579  0.0096
 2917poe     o213403   3.926   4.115   4.779  0.0055 -0.4337 -0.2647
 2917poe    c3113404   4.033   4.134   4.690 -0.0769  0.9150 -0.0828
 2918poe    c3113405   4.687   0.040   4.096 -0.3596  0.0524  0.1734
 2918poe     o213406   4.639  -0.076   4.160 -0.8008 -0.1466 -0.5137
 2918poe    c2313407   4.510  -0.046   4.208 -0.8154 -0.1232 -0.5679
 2918poe    c2313408   4.425  -0.168   4.249 -0.0729 -0.4640 -0.0271
 2918poe     o213409   4.481  -0.222   4.366 -0.0718  0.1792  0.2776
 2918poe    c2313410   4.391  -0.315   4.421  0.0382 -0.0765  0.0291
 2918poe    c2313411   4.416  -0.365   4.565  0.4125 -0.2401 -0.0914
 2918poe     o213412   4.532  -0.444   4.560  0.1896 -0.5709 -0.0632
 2918poe    c2313413   4.578  -0.498   4.682  0.1820  0.1428  0.2571
 2918poe    c2313414   4.715  -0.563   4.659 -0.1557 -0.1612 -0.9534
 2918poe     o213415   4.815  -0.469   4.623 -0.2127  0.1385 -0.3327
 2918poe    c3113416   4.933  -0.532   4.579  0.2568  0.6038  0.2389
 2919poe    c3113417   0.777   1.486   4.309  0.0862 -0.2964  0.4619
 2919poe     o213418   0.747   1.391   4.409  0.2186 -0.1072  0.6842
 2919poe    c2313419   0.741   1.455   4.534  0.0449  0.5926  0.3215
 2919poe    c2313420   0.704   1.358   4.648 -0.1220  0.1703 -0.0884
 2919poe     o213421   0.803   1.261   4.670 -0.5599 -0.3580 -0.4402
 2919poe    c2313422   0.793   1.194   4.794  0.2430  0.9476  0.3468
 2919poe    c2313423   0.874   1.063   4.795 -0.5622  0.4281 -0.6645
 2919poe     o213424   0.812   0.948   4.741 -0.0042 -0.0562 -0.2886
 2919poe    c2313425   0.912   0.850   4.724  0.2274  0.1303 -0.0077
 2919poe    c2313426   0.888   0.738   4.622  0.3439 -0.4960  0.6445
 2919poe     o213427   0.820   0.636   4.692 -0.5418 -0.0761  0.4088
 2919poe    c3113428   0.800   0.531   4.601  0.4462 -0.3095  0.4492
 2920poe    c3113429   1.571   1.660   3.451  0.9146 -0.4638 -0.4811
 2920poe     o213430   1.518   1.542   3.396  0.2424 -0.3637 -0.0565
 2920poe    c2313431   1.615   1.440   3.390  0.3950 -0.2932  1.0626
 2920poe    c2313432   1.567   1.302   3.341  0.3555 -0.1155  0.5905
 2920poe     o213433   1.488   1.248   3.445  0.0074 -0.3399  0.2115
 2920poe    c2313434   1.423   1.134   3.395 -0.2104 -0.4528  0.7432
 2920poe    c2313435   1.337   1.044   3.486  0.1007 -0.2627  1.2285
 2920poe     o213436   1.288   0.926   3.426  0.6294 -0.1125  0.4860
 2920poe    c2313437   1.188   0.868   3.506  0.0407 -0.0738 -0.2140
 2920poe    c2313438   1.230   0.732   3.566 -0.1895 -0.1298 -0.1759
 2920poe     o213439   1.246   0.644   3.456  0.0721 -0.1897 -0.0912
 2920poe    c3113440   1.273   0.513   3.500 -0.6954 -0.0503  0.8491
 2921poe    c3113441   5.069   0.882   6.487  0.0325  0.2304  0.1656
 2921poe     o213442   5.186   0.834   6.425 -0.4981 -0.2715 -0.4718
 2921poe    c2313443   5.185   0.695   6.448 -0.1932 -0.1119  0.6015
 2921poe    c2313444   5.305   0.637   6.371 -0.2862  0.6324 -0.1196
 2921poe     o213445   5.299   0.659   6.231 -0.2482  0.1065 -0.2062
 2921poe    c2313446   5.384   0.561   6.176 -0.1885  0.1256 -0.1486
 2921poe    c2313447   5.452   0.644   6.065  0.6499 -0.6269 -0.2047
 2921poe     o213448   5.354   0.698   5.980  0.9146  0.1095 -0.0461
 2921poe    c2313449   5.426   0.758   5.875  0.5981  0.0534 -0.2960
 2921poe    c2313450   5.330   0.856   5.805  0.4284  0.0297 -0.0963
 2921poe     o213451   5.264   0.934   5.902  0.0702  0.1141 -0.4043
 2921poe    c3113452   5.170   1.025   5.851  0.4154  0.7646  0.1052
 2922poe    c3113453   1.101   1.450   5.376  0.4444  0.2491 -0.0833
 2922poe     o213454   1.194   1.356   5.426 -0.4905 -0.6219  0.0529
 2922poe    c2313455   1.297   1.414   5.504 -0.7779  0.0086 -0.0302
 2922poe    c2313456   1.391   1.499   5.417 -0.2961 -0.3268  0.1614
 2922poe     o213457   1.429   1.434   5.297  0.0914 -0.4921  0.3710
 2922poe    c2313458   1.520   1.514   5.225 -0.5377  0.0701  0.1877
 2922poe    c2313459   1.528   1.471   5.078 -0.0291 -0.1014  0.2627
 2922poe     o213460   1.561   1.334   5.068  0.5915  0.0408  0.3128
 2922poe    c2313461   1.581   1.284   4.938  0.0053 -0.1469  0.2911
 2922poe    c2313462   1.598   1.132   4.955 -0.5266 -0.3207 -0.6466
 2922poe     o213463   1.498   1.089   5.045 -0.1037  0.3684  0.1750
 2922poe    c3113464   1.463   0.955   5.019  0.3315  0.1563  0.6848
 2923poe    c3113465   5.383   4.604   4.794  0.6437  0.2898  0.2081
 2923poe     o213466   5.333   4.714   4.721  0.3946  0.1405  0.1519
 2923poe    c2313467   5.405   4.832   4.749  0.4282  0.1481  0.0372
 2923poe    c2313468   5.325   4.960   4.720 -0.3782 -0.3156  0.1776
 2923poe     o213469   5.293   4.958   4.583  0.2289  0.1349  0.0212
 2923poe    c2313470   5.198   5.056   4.549 -0.2031 -0.0886  0.5546
 2923poe    c2313471   5.156   5.059   4.400  0.1786 -0.0360  0.4476
 2923poe     o213472   5.102   4.941   4.345  0.3377 -0.0425  0.3032
 2923poe    c2313473   5.069   4.977   4.212  0.1494 -0.4294  0.2447
 2923poe    c2313474   4.922   4.938   4.192 -0.0276 -0.0596  0.7825
 2923poe     o213475   4.900   4.801   4.221 -0.1091 -0.1363  0.3717
 2923poe    c3113476   4.772   4.771   4.169 -0.0282 -0.0237  0.1026
 2924poe    c3113477   3.567   1.741   5.436  0.1022 -0.3028  0.7175
 2924poe     o213478   3.466   1.807   5.508 -0.4481 -0.4742  0.1179
 2924poe    c2313479   3.475   1.816   5.649  0.0973  0.4529  0.0326
 2924poe    c2313480   3.464   1.680   5.721 -0.6814  0.0750 -0.7859
 2924poe     o213481   3.330   1.637   5.724 -0.5484 -0.2858  0.1068
 2924poe    c2313482   3.255   1.702   5.824 -0.0395  0.7680 -0.1873
 2924poe    c2313483   3.103   1.697   5.800 -0.0116  0.3288 -0.2718
 2924poe     o213484   3.046   1.572   5.829  0.1452  0.3411  0.0919
 2924poe    c2313485   2.908   1.582   5.860  0.1522  0.2367  0.1588
 2924poe    c2313486   2.854   1.442   5.893  0.6327  0.1086  0.4152
 2924poe     o213487   2.897   1.389   6.017 -0.1624 -0.3946  0.4859
 2924poe    c3113488   2.982   1.279   5.994  0.2174 -0.1630  0.7693
 2925poe    c3113489   0.309   3.948   1.771 -0.0272 -0.1459  0.1058
 2925poe     o213490   0.227   3.834   1.756 -0.3293  0.1242 -0.3043
 2925poe    c2313491   0.264   3.767   1.637  0.1750  0.0493 -0.1101
 2925poe    c2313492   0.262   3.614   1.647  0.4519  0.0836  0.4767
 2925poe     o213493   0.135   3.569   1.688  0.1614  0.1807 -0.2923
 2925poe    c2313494   0.155   3.436   1.731 -0.4065  0.2078  0.0669
 2925poe    c2313495   0.019   3.366   1.712 -0.2299 -0.1132 -0.0307
 2925poe     o213496  -0.071   3.461   1.765 -0.1519 -0.0514 -0.0088
 2925poe    c2313497  -0.204   3.417   1.776 -0.1130 -0.3589 -0.6798
 2925poe    c2313498  -0.270   3.521   1.870 -0.0403 -0.3243 -0.6671
 2925poe     o213499  -0.251   3.649   1.815  0.0079 -0.0808 -0.0903
 2925poe    c3113500  -0.327   3.750   1.877 -0.2237  0.0544 -0.5942
 2926poe    c3113501   2.583   2.453   6.027  0.3288 -0.8020 -0.1514
 2926poe     o213502   2.670   2.440   6.137  0.4213  0.4275 -0.0660
 2926poe    c2313503   2.789   2.511   6.115  0.4826  0.2860 -0.1922
 2926poe    c2313504   2.908   2.469   6.203 -0.1889  0.2441  0.7022
 2926poe     o213505   2.976   2.358   6.150 -0.0543  0.5732  0.1823
 2926poe    c2313506   3.073   2.314   6.242 -0.0547 -0.1960 -0.1739
 2926poe    c2313507   3.134   2.173   6.228 -0.0413 -0.1545 -0.5342
 2926poe     o213508   3.033   2.075   6.228  0.1761 -0.3852  0.0349
 2926poe    c2313509   3.036   1.992   6.113  0.4430 -0.2060 -0.0889
 2926poe    c2313510   2.988   1.848   6.136 -0.0914  0.0601  0.5095
 2926poe     o213511   3.097   1.767   6.173  0.0880  0.1541  0.1928
 2926poe    c3113512   3.055   1.633   6.189  0.5332  0.0103  0.2022
 2927poe    c3113513   6.146   0.213   6.536  0.4750 -0.6533 -0.0314
 2927poe     o213514   6.225   0.307   6.467 -0.1482 -0.2886 -0.2572
 2927poe    c2313515   6.347   0.347   6.526 -0.3431  0.4727 -0.3606
 2927poe    c2313516   6.427   0.413   6.412  0.3405  0.2537 -0.0116
 2927poe     o213517   6.369   0.518   6.337 -0.3065  0.3407  0.6052
 2927poe    c2313518   6.464   0.599   6.272 -0.4669  0.2401  0.2448
 2927poe    c2313519   6.410   0.719   6.193  0.0790  0.1459 -0.2764
 2927poe     o213520   6.321   0.806   6.259  0.2308  0.3101 -0.2867
 2927poe    c2313521   6.365   0.845   6.387  0.3465 -0.2545 -0.1501
 2927poe    c2313522   6.284   0.955   6.458  0.5270 -0.2711  0.0845
 2927poe     o213523   6.154   0.906   6.482  0.6364 -0.5553  0.1038
 2927poe    c3113524   6.103   0.989   6.584  0.0907 -0.4545 -0.2434
 2928poe    c3113525   6.920   4.670   2.137  0.3958 -0.0133  0.1365
 2928poe     o213526   7.022   4.747   2.078  0.3875  0.3070  0.5422
 2928poe    c2313527   6.998   4.886   2.085 -0.2796  0.2244 -0.1024
 2928poe    c2313528   7.097   4.964   1.997 -0.0246 -0.0451 -0.0552
 2928poe     o213529   7.106   4.900   1.872 -0.1144 -0.1846  0.0102
 2928poe    c2313530   7.165   4.991   1.782  0.0647  0.2354  0.5468
 2928poe    c2313531   7.142   4.970   1.632  0.7734  0.1272  0.4496
 2928poe     o213532   7.212   4.856   1.587 -0.0365 -0.1149 -0.2375
 2928poe    c2313533   7.161   4.823   1.460  0.0149  0.2787 -0.3627
 2928poe    c2313534   7.233   4.702   1.399  0.0831  0.2168 -0.1605
 2928poe     o213535   7.367   4.737   1.373  0.1939  0.2724  0.4766
 2928poe    c3113536   7.436   4.634   1.306  0.6044  0.2201  0.9748
 2929poe    c3113537   0.998   2.611   2.361  0.1531 -1.0341  0.0187
 2929poe     o213538   1.106   2.521   2.347  0.6385 -0.3926 -0.4016
 2929poe    c2313539   1.087   2.397   2.412 -0.4785 -0.1452 -0.2368
 2929poe    c2313540   1.204   2.314   2.357  0.0099  0.4744 -0.1358
 2929poe     o213541   1.320   2.393   2.373  0.0561  0.2936  0.4357
 2929poe    c2313542   1.431   2.334   2.310 -0.4705 -0.0758 -0.1537
 2929poe    c2313543   1.527   2.451   2.281  0.4046 -0.8729 -0.5462
 2929poe     o213544   1.461   2.561   2.222 -0.1118 -0.4957  0.7097
 2929poe    c2313545   1.554   2.652   2.169 -0.5797  0.0045  0.7364
 2929poe    c2313546   1.493   2.777   2.103 -0.0960 -0.0451  0.1887
 2929poe     o213547   1.397   2.753   2.003  0.1965  0.5576 -0.2416
 2929poe    c3113548   1.322   2.863   1.957 -1.2535 -0.3285 -0.0590
 2930poe    c3113549   0.095   2.442   1.861 -0.1893 -0.3669 -0.3189
 2930poe     o213550   0.018   2.325   1.865 -0.6470 -0.0626 -0.1130
 2930poe    c2313551  -0.061   2.308   1.749 -0.3238 -0.4144 -0.2843
 2930poe    c2313552  -0.140   2.176   1.768 -0.1031 -0.5083 -0.0042
 2930poe     o213553  -0.180   2.184   1.903 -0.2986  0.3755 -0.1051
 2930poe    c2313554  -0.281   2.089   1.929  0.2550 -0.2203 -0.1067
 2930poe    c2313555  -0.317   2.103   2.078  0.0461 -0.0464 -0.1731
 2930poe     o213556  -0.208   2.074   2.163 -0.2244 -0.2442  0.1042
 2930poe    c2313557  -0.238   2.073   2.301 -0.3692  0.1102  0.0762
 2930poe    c2313558  -0.108   2.073   2.384 -0.7093  0.9314  0.6259
 2930poe     o213559  -0.022   2.183   2.368  0.0222  0.2667 -0.1489
 2930poe    c3113560   0.112   2.183   2.412 -0.0716 -0.0624  0.1453
 2931poe    c3113561   4.190   5.878   6.446 -0.3227  0.5973  0.1833
 2931poe     o213562   4.244   5.806   6.337 -0.1234  0.2898  0.4818
 2931poe    c2313563   4.340   5.884   6.269  0.3030 -0.8599 -0.2751
 2931poe    c2313564   4.400   5.817   6.144 -0.0382  0.2198 -1.0349
 2931poe     o213565   4.471   5.698   6.166  0.0473  0.4694  0.1174
 2931poe    c2313566   4.496   5.638   6.040 -0.1272  0.2247  0.1981
 2931poe    c2313567   4.507   5.485   6.050 -0.3066  0.2372  0.6179
 2931poe     o213568   4.378   5.429   6.067 -0.5284  0.5013 -0.1434
 2931poe    c2313569   4.396   5.290   6.070  0.2198  0.5973  0.2458
 2931poe    c2313570   4.256   5.232   6.098  0.1000  0.7492 -0.0377
 2931poe     o213571   4.183   5.311   6.189 -0.5498  0.6393 -0.4583
 2931poe    c3113572   4.092   5.218   6.244  0.3751  0.3223  0.5678
 2932poe    c3113573   5.926   3.227   0.449 -0.2700  0.3966  0.1519
 2932poe     o213574   5.825   3.187   0.359 -0.2630  0.6577  0.0260
 2932poe    c2313575   5.694   3.203   0.409 -0.3496  0.1407 -0.0218
 2932poe    c2313576   5.593   3.143   0.309  0.0435 -0.3162 -0.1453
 2932poe     o213577   5.605   3.169   0.171  0.5683  0.7197  0.0828
 2932poe    c2313578   5.703   3.092   0.105 -0.2834 -0.0841 -0.2701
 2932poe    c2313579   5.703   3.116  -0.047 -0.1859  0.1538 -0.2332
 2932poe     o213580   5.732   3.247  -0.090  0.0452  0.2421  0.1881
 2932poe    c2313581   5.746   3.256  -0.230 -0.1238 -0.0501  0.1522
 2932poe    c2313582   5.617   3.308  -0.297 -0.2959 -0.2201  0.3485
 2932poe     o213583   5.510   3.218  -0.318 -0.2912 -0.0855 -0.2721
 2932poe    c3113584   5.391   3.289  -0.345 -0.2799  0.1373  0.2484
 2933poe    c3113585   7.227   2.693   2.219  0.1050  0.2305 -0.3298
 2933poe     o213586   7.308   2.783   2.290  0.3029 -0.2809  0.1026
 2933poe    c2313587   7.403   2.718   2.372  0.2315 -0.4793  0.0282
 2933poe    c2313588   7.425   2.795   2.503 -0.3281 -0.1136 -0.0875
 2933poe     o213589   7.331   2.784   2.607  0.1430 -0.5085  0.2995
 2933poe    c2313590   7.381   2.846   2.723 -0.2847 -0.4035  0.4307
 2933poe    c2313591   7.280   2.814   2.835 -0.1272 -0.9182  0.4256
 2933poe     o213592   7.148   2.857   2.812  0.1523 -0.0612  0.3872
 2933poe    c2313593   7.059   2.834   2.918 -0.2577 -0.1259  0.0326
 2933poe    c2313594   6.916   2.826   2.862  0.0497 -0.0213 -0.7701
 2933poe     o213595   6.887   2.732   2.761 -0.2082 -0.4446 -0.3043
 2933poe    c3113596   6.765   2.771   2.703  0.2342  0.0172 -0.9417
 2934poe    c3113597   6.599   3.930   0.641  0.6805  0.1174 -0.1094
 2934poe     o213598   6.665   3.806   0.631  0.0093 -0.3095  0.5807
 2934poe    c2313599   6.680   3.766   0.496  0.1913  0.2395  0.4350
 2934poe    c2313600   6.718   3.619   0.475 -0.5669  0.1078 -0.0379
 2934poe     o213601   6.604   3.537   0.492 -0.6413  0.2189 -0.0051
 2934poe    c2313602   6.631   3.401   0.518 -0.3852  0.2841  0.0748
 2934poe    c2313603   6.599   3.303   0.404 -0.4002 -0.3443  0.6120
 2934poe     o213604   6.461   3.289   0.381 -0.4934  0.2730  0.7674
 2934poe    c2313605   6.421   3.158   0.417  0.4404 -0.2086  0.1072
 2934poe    c2313606   6.290   3.121   0.344  0.4521 -0.2968  0.1319
 2934poe     o213607   6.293   3.137   0.204 -0.0295 -0.0598  0.1509
 2934poe    c3113608   6.199   3.058   0.135  0.3691 -0.2135 -0.2176
 2935poe    c3113609   0.603   2.170   3.191 -0.1842  0.0747 -0.3866
 2935poe     o213610   0.648   2.138   3.062 -0.2022 -0.3318 -0.2920
 2935poe    c2313611   0.721   2.242   3.000 -0.4190 -0.3068 -0.5070
 2935poe    c2313612   0.782   2.205   2.864 -0.3388 -0.7486 -0.3544
 2935poe     o213613   0.832   2.073   2.867  0.4052 -0.4642  0.0466
 2935poe    c2313614   0.909   2.033   2.756  0.0753  0.1198 -0.4015
 2935poe    c2313615   0.974   1.896   2.780 -0.1093  0.0231 -0.4535
 2935poe     o213616   0.885   1.788   2.795 -0.0261  0.0067 -0.0642
 2935poe    c2313617   0.957   1.679   2.849 -0.1299 -0.0794 -0.0976
 2935poe    c2313618   0.868   1.555   2.831 -0.0420 -0.2520  0.6178
 2935poe     o213619   0.744   1.590   2.890 -0.2806 -0.2918  0.1462
 2935poe    c3113620   0.657   1.480   2.879  0.4595 -0.8042 -0.7912
 2936poe    c3113621   2.645   2.095   4.554  0.3966 -0.3175  0.6334
 2936poe     o213622   2.680   2.230   4.575  0.3880 -0.2541  0.2584
 2936poe    c2313623   2.630   2.269   4.701  0.1898 -0.2150  0.1681
 2936poe    c2313624   2.654   2.421   4.714 -0.0808 -0.1274 -0.3300
 2936poe     o213625   2.792   2.447   4.697  0.0126 -0.1674  0.3237
 2936poe    c2313626   2.834   2.565   4.760 -0.0019 -0.1250  0.2541
 2936poe    c2313627   2.952   2.622   4.678 -0.3753  0.0311 -0.1818
 2936poe     o213628   3.039   2.517   4.642 -0.0142  0.5316 -0.7751
 2936poe    c2313629   3.168   2.568   4.613  0.4477 -0.1825 -0.0315
 2936poe    c2313630   3.279   2.466   4.642 -0.0361 -0.6381  0.2353
 2936poe     o213631   3.237   2.340   4.594 -0.1410 -0.4185 -0.2507
 2936poe    c3113632   3.334   2.256   4.652 -0.1109 -0.5138 -0.4373
 2937poe    c3113633   5.448   3.493   1.412 -0.1726 -0.4718  0.2634
 2937poe     o213634   5.423   3.613   1.342  0.2279 -0.5518 -0.0186
 2937poe    c2313635   5.508   3.713   1.395 -0.3217 -0.0865 -0.0147
 2937poe    c2313636   5.554   3.825   1.300  0.0842 -0.0521  0.2207
 2937poe     o213637   5.461   3.928   1.276  0.2164  0.1141  0.4158
 2937poe    c2313638   5.527   4.031   1.205 -0.0248  0.0963  0.1624
 2937poe    c2313639   5.433   4.147   1.167 -0.3873 -0.0466  0.5940
 2937poe     o213640   5.330   4.114   1.076  0.1091  0.1257 -0.0447
 2937poe    c2313641   5.254   4.233   1.076  0.2761  0.2351  0.1441
 2937poe    c2313642   5.123   4.213   0.998  0.1663 -0.0827  0.4078
 2937poe     o213643   5.028   4.131   1.063  0.0332 -0.3415 -0.1047
 2937poe    c3113644   4.902   4.145   1.002 -0.2097  0.0938  0.4812
 2938poe    c3113645   1.984   2.672   5.086 -0.3895 -0.1848  0.4073
 2938poe     o213646   2.122   2.663   5.056 -0.4207 -0.1459  0.2524
 2938poe    c2313647   2.198   2.707   5.166  0.2347  0.5972 -0.4931
 2938poe    c2313648   2.348   2.685   5.138  0.1535 -0.0989 -0.3868
 2938poe     o213649   2.379   2.552   5.172  0.0501 -0.1723 -0.5828
 2938poe    c2313650   2.491   2.515   5.093  0.5209  0.4874 -0.2374
 2938poe    c2313651   2.522   2.367   5.125 -0.0390  0.1537 -1.1792
 2938poe     o213652   2.410   2.286   5.097 -0.0517 -0.1188 -0.3813
 2938poe    c2313653   2.430   2.147   5.106 -0.2240 -0.0964  0.3748
 2938poe    c2313654   2.303   2.078   5.052 -0.1538  0.2254 -0.2143
 2938poe     o213655   2.194   2.135   5.122  0.2456 -0.2148  0.7947
 2938poe    c3113656   2.086   2.054   5.081  0.3042  0.1524 -0.1085
 2939poe    c3113657   3.609   3.205   1.428  0.0735 -0.1992 -0.0969
 2939poe     o213658   3.677   3.255   1.315  0.0014  0.3955  0.1246
 2939poe    c2313659   3.579   3.255   1.214  0.1993  0.2082 -0.0670
 2939poe    c2313660   3.560   3.390   1.143 -0.0659 -0.0546 -0.4980
 2939poe     o213661   3.659   3.426   1.049  0.0902 -0.1287 -0.3624
 2939poe    c2313662   3.619   3.549   0.993  0.1758 -0.0180 -0.1808
 2939poe    c2313663   3.737   3.647   0.982 -0.4104  0.6032 -1.0676
 2939poe     o213664   3.854   3.576   0.953 -0.1787  0.5924 -0.1316
 2939poe    c2313665   3.969   3.658   0.950  0.3620 -0.1286  0.2351
 2939poe    c2313666   4.095   3.594   0.889  0.3976 -0.0658  0.2430
 2939poe     o213667   4.126   3.470   0.949 -0.1624 -0.0869  0.4977
 2939poe    c3113668   4.244   3.409   0.901 -0.0078  0.6801 -0.1316
 2940poe    c3113669   4.426   3.693   4.100 -0.5214 -0.0521  0.0266
 2940poe     o213670   4.515   3.776   4.029  0.0209 -0.0999  0.6402
 2940poe    c2313671   4.651   3.748   4.051  0.0727 -0.5457 -0.2162
 2940poe    c2313672   4.748   3.849   3.986 -0.1910 -0.1741 -0.0315
 2940poe     o213673   4.766   3.841   3.847  0.2292  0.3781 -0.0135
 2940poe    c2313674   4.716   3.957   3.784  0.0259  0.2654 -0.0601
 2940poe    c2313675   4.679   3.956   3.635  0.1664  0.1438 -0.0942
 2940poe     o213676   4.559   3.890   3.603  0.1202  0.2041 -0.0439
 2940poe    c2313677   4.574   3.751   3.581 -0.5822  0.1152  0.0198
 2940poe    c2313678   4.439   3.691   3.538 -0.2160 -0.4819 -0.2964
 2940poe     o213679   4.338   3.743   3.621  0.2522 -0.0192 -0.0150
 2940poe    c3113680   4.210   3.700   3.583  0.3722  0.0466 -0.5021
 2941poe    c3113681   2.759   3.041   6.782 -0.3526 -0.3164 -0.1337
 2941poe     o213682   2.659   3.106   6.857  0.2557 -0.0955  0.5005
 2941poe    c2313683   2.634   3.236   6.807  0.6359 -0.0550  0.4122
 2941poe    c2313684   2.532   3.291   6.907 -0.1781 -0.1852 -0.3307
 2941poe     o213685   2.433   3.194   6.934  0.3070 -0.5080  0.3163
 2941poe    c2313686   2.354   3.220   7.048 -0.0612 -0.0795 -0.0309
 2941poe    c2313687   2.287   3.097   7.111  0.0260  0.0272  0.2744
 2941poe     o213688   2.390   3.002   7.126 -0.4544 -0.5264  0.1227
 2941poe    c2313689   2.355   2.884   7.195  0.2838 -0.7528  0.1246
 2941poe    c2313690   2.458   2.770   7.187  0.3975 -0.5915 -0.8124
 2941poe     o213691   2.585   2.786   7.246  0.1191  0.6180 -0.5143
 2941poe    c3113692   2.652   2.664   7.227 -0.5445  0.1701 -0.0032
 2942poe    c3113693   2.354   2.913   4.236 -0.0399  0.2556 -0.0308
 2942poe     o213694   2.307   2.886   4.366  0.2950 -0.5986 -0.0785
 2942poe    c2313695   2.176   2.838   4.345 -0.2830  0.8150  0.1329
 2942poe    c2313696   2.123   2.767   4.471 -0.1074  0.2198 -0.1203
 2942poe     o213697   2.152   2.860   4.574  0.8695 -0.1650 -0.0334
 2942poe    c2313698   2.121   2.816   4.704 -0.8056 -0.0903 -0.3793
 2942poe    c2313699   2.168   2.928   4.798 -0.4175 -0.0790 -0.5855
 2942poe     o213700   2.280   2.991   4.740 -0.1101 -0.1175 -0.0360
 2942poe    c2313701   2.349   3.068   4.836 -0.3264 -0.1906  0.1786
 2942poe    c2313702   2.328   3.220   4.820  0.1858 -0.1458 -0.0727
 2942poe     o213703   2.379   3.259   4.695 -0.0718 -0.0098 -0.1355
 2942poe    c3113704   2.439   3.387   4.695 -0.1290  0.0173 -0.1434
 2943poe    c3113705   4.551   6.535   6.091 -1.1960 -0.3394  0.0503
 2943poe     o213706   4.572   6.664   6.144  0.0244 -0.6661  0.3971
 2943poe    c2313707   4.672   6.748   6.090  0.2171 -0.5099  0.9905
 2943poe    c2313708   4.653   6.871   6.181 -0.0095  0.2165 -0.0189
 2943poe     o213709   4.637   6.837   6.317 -0.1033 -0.2827 -0.1503
 2943poe    c2313710   4.643   6.953   6.397 -0.9611 -0.1588 -0.2611
 2943poe    c2313711   4.627   6.917   6.546  0.2173 -0.5493 -0.2218
 2943poe     o213712   4.503   6.852   6.566  0.0448 -0.1086  0.1450
 2943poe    c2313713   4.481   6.801   6.695  0.3319 -0.3394  0.1024
 2943poe    c2313714   4.339   6.742   6.705  0.0541  0.3412  0.1980
 2943poe     o213715   4.244   6.834   6.656  0.2472  0.2815 -0.2959
 2943poe    c3113716   4.152   6.886   6.749  0.4202 -0.1313  0.1097
 2944poe    c3113717   0.319   4.603   6.371  0.6519 -0.2353 -0.2306
 2944poe     o213718   0.323   4.516   6.260  0.2017  0.4612 -0.7966
 2944poe    c2313719   0.438   4.435   6.267 -0.0940  0.0477 -0.7560
 2944poe    c2313720   0.465   4.321   6.167  0.1314 -0.6857  0.1256
 2944poe     o213721   0.483   4.353   6.031 -0.1193 -0.4649  0.1434
 2944poe    c2313722   0.359   4.391   5.977 -0.0192  0.0616  0.2845
 2944poe    c2313723   0.381   4.421   5.828  0.2993 -0.1202  0.2955
 2944poe     o213724   0.427   4.306   5.761  0.0479 -0.3090  0.4469
 2944poe    c2313725   0.401   4.311   5.622 -0.2535 -0.1821  0.5082
 2944poe    c2313726   0.448   4.175   5.568 -0.5225  0.0050 -0.2113
 2944poe     o213727   0.558   4.136   5.647 -0.5022 -0.5610 -0.5139
 2944poe    c3113728   0.647   4.065   5.563  0.3818  0.0475 -0.1119
 2945poe    c3113729   0.426   6.471   3.480  0.0616 -0.2192 -0.4954
 2945poe     o213730   0.511   6.461   3.592 -0.2281  0.1851 -0.2360
 2945poe    c2313731   0.572   6.587   3.611 -0.1944  0.1722 -0.2573
 2945poe    c2313732   0.674   6.587   3.726 -0.3666  0.1461 -0.1044
 2945poe     o213733   0.629   6.560   3.857 -0.0323 -0.4116 -0.1031
 2945poe    c2313734   0.724   6.609   3.949 -0.7439  0.4837  0.1741
 2945poe    c2313735   0.702   6.560   4.094 -0.4909 -0.4564 -0.0978
 2945poe     o213736   0.593   6.625   4.155  0.1716  0.3596  0.2376
 2945poe    c2313737   0.558   6.538   4.261  0.5718  0.7884  0.7247
 2945poe    c2313738   0.435   6.587   4.340 -0.6002  0.1175 -0.6420
 2945poe     o213739   0.429   6.727   4.358 -0.1990  0.0464  0.0981
 2945poe    c3113740   0.508   6.765   4.468  0.1499  0.0771 -0.1600
 2946poe    c3113741   1.118   5.610   1.014 -0.0135 -0.2287  0.3247
 2946poe     o213742   1.023   5.514   0.974 -0.1834  0.1638 -0.2317
 2946poe    c2313743   0.969   5.442   1.083  0.2181 -0.7619 -0.6364
 2946poe    c2313744   0.882   5.319   1.049 -0.7174 -0.4634  0.6122
 2946poe     o213745   0.759   5.346   0.986 -0.3343 -0.4591 -0.1555
 2946poe    c2313746   0.703   5.222   0.950  0.2300 -0.5115 -0.8623
 2946poe    c2313747   0.552   5.219   0.922  0.0148  0.0044  0.2087
 2946poe     o213748   0.465   5.235   1.032 -0.6662 -0.3615 -0.2683
 2946poe    c2313749   0.448   5.371   1.064  0.0070 -0.3969  0.2587
 2946poe    c2313750   0.349   5.367   1.182 -0.4057  0.1841 -0.0614
 2946poe     o213751   0.226   5.310   1.141  0.0756 -0.6459 -0.3811
 2946poe    c3113752   0.136   5.301   1.248 -0.1508  0.2503 -0.4867
 2947poe    c3113753   5.504   4.930   0.574  0.2590  0.1106  0.0144
 2947poe     o213754   5.624   4.882   0.631  0.2943  0.2283  0.0384
 2947poe    c2313755   5.638   4.744   0.608  0.1251  0.1580  0.3470
 2947poe    c2313756   5.788   4.715   0.625  0.2263  0.3195 -0.2563
 2947poe     o213757   5.836   4.757   0.751  0.0411 -0.0826 -0.0501
 2947poe    c2313758   5.955   4.695   0.792  0.2407  0.5464  0.3442
 2947poe    c2313759   6.037   4.775   0.895  0.3961  0.6280  0.1568
 2947poe     o213760   5.949   4.784   1.005  0.5200 -0.0441  0.3108
 2947poe    c2313761   5.967   4.904   1.076  0.2436  0.0096  0.2883
 2947poe    c2313762   5.889   4.880   1.207 -0.6326 -0.2710 -0.2715
 2947poe     o213763   5.764   4.825   1.174 -0.6070 -0.1322 -0.6045
 2947poe    c3113764   5.674   4.860   1.277 -0.1347 -0.0167 -0.2310
 2948poe    c3113765   0.174   2.843   0.472  0.0028  0.3120 -0.2025
 2948poe     o213766   0.293   2.837   0.547  0.0007  0.7275 -0.1641
 2948poe    c2313767   0.381   2.947   0.542  0.3315  0.5061  0.6206
 2948poe    c2313768   0.504   2.936   0.449 -0.2874 -0.1455 -0.1368
 2948poe     o213769   0.599   2.856   0.516 -0.4003  0.1006  0.3211
 2948poe    c2313770   0.722   2.878   0.452 -0.2739 -0.0865  0.4971
 2948poe    c2313771   0.802   2.988   0.523 -0.1514  0.0865  0.0939
 2948poe     o213772   0.760   3.121   0.500 -0.0443  0.1305  0.1481
 2948poe    c2313773   0.831   3.224   0.564  0.4934 -0.3339  0.3095
 2948poe    c2313774   0.950   3.278   0.482  0.0750  0.5808  0.2920
 2948poe     o213775   0.914   3.364   0.376 -0.2558  0.3130  0.1870
 2948poe    c3113776   1.023   3.385   0.290  0.2223 -0.0781  0.6878
 2949poe    c3113777   6.217   7.202   6.184 -0.8619 -0.0368  0.3044
 2949poe     o213778   6.115   7.270   6.114 -0.1712  0.6704 -0.0448
 2949poe    c2313779   5.992   7.203   6.132  0.1156  0.2113  0.2483
 2949poe    c2313780   5.883   7.265   6.043 -0.1681 -0.6584 -0.0250
 2949poe     o213781   5.898   7.276   5.903  0.3369  0.5244  0.1086
 2949poe    c2313782   5.869   7.164   5.823 -0.2424  0.5937  0.2164
 2949poe    c2313783   5.843   7.205   5.677 -0.1633 -0.3025 -0.0586
 2949poe     o213784   5.961   7.245   5.612 -0.4454  0.0713 -0.3463
 2949poe    c2313785   5.930   7.320   5.496 -0.3169  0.4244 -0.1554
 2949poe    c2313786   6.053   7.383   5.430 -0.6785  0.4023 -0.8656
 2949poe     o213787   6.079   7.514   5.477 -0.1718  0.0673 -0.1912
 2949poe    c3113788   6.019   7.615   5.399  0.0227  0.0435 -0.3743
 2950poe    c3113789   3.819   7.139   5.899 -0.7174 -0.2153 -0.2118
 2950poe     o213790   3.832   7.058   6.014  0.4170  0.0470 -0.1401
 2950poe    c2313791   3.921   6.950   5.997  0.6626  0.2402 -0.0953
 2950poe    c2313792   3.997   6.894   6.118  0.8781  0.1830 -0.2568
 2950poe     o213793   3.905   6.829   6.203  0.6512  0.8405  0.0091
 2950poe    c2313794   3.977   6.756   6.300 -0.0630 -0.3742 -0.3431
 2950poe    c2313795   3.894   6.699   6.417 -0.2581  0.3188 -0.1398
 2950poe     o213796   3.802   6.605   6.368  0.1421 -0.0096 -0.2651
 2950poe    c2313797   3.757   6.518   6.470  0.0361  0.4207  0.0540
 2950poe    c2313798   3.661   6.426   6.392 -0.3455  0.5755  0.3368
 2950poe     o213799   3.572   6.513   6.326  0.4185  0.8669 -0.3244
 2950poe    c3113800   3.482   6.443   6.242  0.2120  0.1111  0.5211
 2951poe    c3113801   5.923   5.837   5.867  0.1085 -0.0360 -0.0507
 2951poe     o213802   5.841   5.874   5.758  0.0762  0.3050  0.0873
 2951poe    c2313803   5.724   5.797   5.746  0.4756 -0.2948 -0.0091
 2951poe    c2313804   5.657   5.819   5.609 -0.3367  0.0314  0.4309
 2951poe     o213805   5.658   5.959   5.591 -0.2462 -0.0209  0.0055
 2951poe    c2313806   5.556   5.995   5.502 -0.0085  0.0744 -0.2296
 2951poe    c2313807   5.527   6.141   5.542 -0.1204 -0.0801  0.2620
 2951poe     o213808   5.628   6.234   5.505 -0.1014 -0.2495 -0.1198
 2951poe    c2313809   5.604   6.359   5.564  0.1000 -0.1016 -0.3517
 2951poe    c2313810   5.739   6.430   5.542  0.0644  0.2218  0.4527
 2951poe     o213811   5.837   6.370   5.623  0.5240  0.6543  0.2190
 2951poe    c3113812   5.968   6.408   5.584  0.4940  0.6110  0.0782
 2952poe    c3113813   0.494   0.075   0.410 -0.2584  0.3354 -0.0269
 2952poe     o213814   0.465   0.044   0.275 -0.1584  0.6083 -0.1130
 2952poe    c2313815   0.573   0.078   0.192  0.6458 -0.1941  0.5799
 2952poe    c2313816   0.595  -0.029   0.084 -0.4399  0.1937 -0.0405
 2952poe     o213817   0.666  -0.145   0.123 -0.6009  0.0089 -0.2952
 2952poe    c2313818   0.686  -0.233   0.014  0.2500  0.2157 -0.3138
 2952poe    c2313819   0.723  -0.380   0.038  0.1654  0.2781  0.2176
 2952poe     o213820   0.620  -0.456   0.098  0.1827 -0.2763 -0.4375
 2952poe    c2313821   0.643  -0.594   0.081 -0.1769 -0.4012  0.0908
 2952poe    c2313822   0.548  -0.654   0.187  0.1511 -0.1077  0.5566
 2952poe     o213823   0.583  -0.607   0.315  0.4606  0.4914  0.2571
 2952poe    c3113824   0.528  -0.696   0.410 -0.4634  0.7953  0.0127
 2953poe    c3113825   6.110   1.858   1.049  0.6894 -0.0406  0.0922
 2953poe     o213826   6.018   1.941   1.117  0.0588 -0.4738 -0.2108
 2953poe    c2313827   5.887   1.908   1.076 -0.1029 -0.2440  0.1248
 2953poe    c2313828   5.794   2.024   1.116  0.6656  0.4679 -0.1070
 2953poe     o213829   5.789   2.025   1.257  0.0685  0.2635 -0.1226
 2953poe    c2313830   5.692   2.119   1.299 -0.1074  0.0862 -0.1305
 2953poe    c2313831   5.677   2.144   1.450 -0.3656  0.1254 -0.1622
 2953poe     o213832   5.806   2.181   1.494 -0.5504  0.5637  0.0208
 2953poe    c2313833   5.821   2.180   1.635 -0.5637  0.7999  0.0237
 2953poe    c2313834   5.952   2.255   1.665 -0.0047 -0.1883  0.1014
 2953poe     o213835   6.040   2.204   1.567  0.1370  0.1681  0.0423
 2953poe    c3113836   6.173   2.245   1.588  0.2358 -0.0099 -0.2309
 2954poe    c3113837   1.854   4.364   3.273 -0.6644  0.5425  0.4485
 2954poe     o213838   1.941   4.403   3.377  0.4018 -0.1050 -0.1872
 2954poe    c2313839   1.907   4.529   3.428 -0.0840 -0.3591  0.1242
 2954poe    c2313840   2.012   4.572   3.532 -0.2348  0.5603 -0.0909
 2954poe     o213841   2.135   4.580   3.465  0.1018 -0.5909  0.3702
 2954poe    c2313842   2.237   4.565   3.562  0.2553 -0.7003  0.1940
 2954poe    c2313843   2.372   4.560   3.489  0.1665  0.1102 -0.0435
 2954poe     o213844   2.396   4.679   3.417  0.2265 -0.1706 -0.4938
 2954poe    c2313845   2.520   4.665   3.352  0.5445 -0.0527  0.0821
 2954poe    c2313846   2.525   4.743   3.219 -0.0159  0.5206  0.3936
 2954poe     o213847   2.468   4.867   3.255 -0.1186  0.4908  0.3334
 2954poe    c3113848   2.455   4.948   3.140 -0.1756  0.7478  0.5189
 2955poe    c3113849   6.008   2.458   5.536  0.3341 -0.0189 -0.4018
 2955poe     o213850   5.943   2.348   5.596  0.1268  0.2993 -0.0430
 2955poe    c2313851   6.015   2.281   5.697  0.0822  0.2061 -0.0729
 2955poe    c2313852   6.029   2.351   5.833  0.0150 -0.7694  0.4459
 2955poe     o213853   5.913   2.370   5.911  0.0561 -0.4250  0.4262
 2955poe    c2313854   5.939   2.405   6.045 -0.0759 -0.2684  0.4114
 2955poe    c2313855   5.813   2.414   6.134 -0.0466 -0.5989  0.4885
 2955poe     o213856   5.728   2.314   6.083  0.0142 -0.2041 -0.4081
 2955poe    c2313857   5.621   2.285   6.170  0.1799  0.1898 -0.0714
 2955poe    c2313858   5.527   2.188   6.096 -0.1874  0.3064  0.2388
 2955poe     o213859   5.516   2.233   5.962  0.0445 -0.0808  0.0884
 2955poe    c3113860   5.426   2.150   5.891 -0.1608 -0.1816  0.4604
 2956poe    c3113861   4.297   2.758   2.475  0.0654 -0.0839  0.0987
 2956poe     o213862   4.277   2.621   2.448 -0.7059  0.1218 -0.4046
 2956poe    c2313863   4.351   2.606   2.329  0.6393 -0.3459  0.4618
 2956poe    c2313864   4.332   2.479   2.244  0.2013  0.0451 -0.0367
 2956poe     o213865   4.197   2.440   2.240  0.2104  0.0694 -0.5726
 2956poe    c2313866   4.180   2.341   2.140  0.4894 -0.1108 -0.4401
 2956poe    c2313867   4.031   2.325   2.109  0.3368 -0.4033  0.4052
 2956poe     o213868   3.940   2.274   2.204 -0.0383  0.2389  0.3986
 2956poe    c2313869   3.808   2.267   2.156  0.0388  0.4062  0.1602
 2956poe    c2313870   3.728   2.203   2.271 -0.2722 -0.7069 -0.6476
 2956poe     o213871   3.775   2.072   2.293  0.2171 -0.3920  0.2583
 2956poe    c3113872   3.699   2.026   2.402 -0.7628  0.5718  0.0003
 2957poe    c3113873   7.032   1.230   1.812 -0.5046 -0.2566 -0.5203
 2957poe     o213874   7.165   1.193   1.783 -0.1007  0.6869  0.0958
 2957poe    c2313875   7.171   1.056   1.750 -0.2704  0.6627  0.1640
 2957poe    c2313876   7.313   0.997   1.733 -0.4342  0.3189 -0.0138
 2957poe     o213877   7.396   1.079   1.654  0.4045 -0.2061  0.3087
 2957poe    c2313878   7.443   0.991   1.555  0.1788 -0.1174  0.1198
 2957poe    c2313879   7.512   1.061   1.437  0.3310 -0.4514  0.0093
 2957poe     o213880   7.585   1.161   1.505  0.6859 -0.5088 -0.2793
 2957poe    c2313881   7.655   1.246   1.418  0.4470  0.0215  0.0446
 2957poe    c2313882   7.702   1.366   1.503 -0.2398  0.2951  0.0463
 2957poe     o213883   7.600   1.397   1.595 -0.0765 -0.1946  0.3990
 2957poe    c3113884   7.631   1.527   1.641  0.4058 -0.0989 -0.1870
 2958poe    c3113885   2.238   5.274   4.161  0.5259  0.6499  0.3693
 2958poe     o213886   2.199   5.406   4.192  0.1176  0.5105  0.4595
 2958poe    c2313887   2.058   5.410   4.185  0.1229  0.3231  0.2127
 2958poe    c2313888   2.016   5.522   4.087 -0.4407 -0.2294 -0.1813
 2958poe     o213889   2.050   5.649   4.138 -0.8374 -0.1534 -0.1035
 2958poe    c2313890   2.022   5.756   4.052  0.0017  0.3356  0.2226
 2958poe    c2313891   2.043   5.894   4.117  0.4324  0.3698  0.0150
 2958poe     o213892   1.954   5.918   4.224  0.1251 -0.0588 -0.1436
 2958poe    c2313893   1.982   6.034   4.299 -0.0771  0.3588 -0.7124
 2958poe    c2313894   1.900   6.059   4.427  0.0146  0.1671 -0.6163
 2958poe     o213895   1.762   6.072   4.401 -0.0469  0.1797 -0.2804
 2958poe    c3113896   1.689   6.128   4.508 -0.2735 -0.3194 -0.1717
 2959poe    c3113897   4.172   2.675   2.872 -0.3797  0.0737  0.0840
 2959poe     o213898   4.184   2.607   2.995  0.3319 -0.0482 -0.0485
 2959poe    c2313899   4.061   2.627   3.060  0.4474 -0.3105  0.2551
 2959poe    c2313900   4.042   2.533   3.180 -0.1353 -0.0680  0.3557
 2959poe     o213901   4.037   2.392   3.173  0.6046 -0.0980  0.3611
 2959poe    c2313902   4.058   2.335   3.300  0.1622  0.0855  0.5226
 2959poe    c2313903   4.067   2.181   3.308  0.2717  0.0593 -0.0373
 2959poe     o213904   4.181   2.131   3.242  0.1265 -0.3194 -0.0024
 2959poe    c2313905   4.149   1.994   3.234 -0.9611 -0.0777  0.0012
 2959poe    c2313906   4.251   1.929   3.139 -0.2979  0.4133  0.3628
 2959poe     o213907   4.238   1.974   3.006 -0.0126  0.3708  0.3207
 2959poe    c3113908   4.327   1.925   2.908  0.2427  0.0100  0.7280
 2960poe    c3113909   5.200   0.788   6.849  0.3783  0.1622 -0.5463
 2960poe     o213910   5.184   0.648   6.856 -0.3270  0.2443 -0.4888
 2960poe    c2313911   5.272   0.582   6.769  0.4859  0.3455  0.2380
 2960poe    c2313912   5.283   0.430   6.791 -0.3665  0.2103 -0.2291
 2960poe     o213913   5.167   0.355   6.763 -0.3068 -0.1533  0.4768
 2960poe    c2313914   5.164   0.297   6.635  0.5390 -0.3108  0.5217
 2960poe    c2313915   5.021   0.246   6.605  0.4168 -0.0952  0.7329
 2960poe     o213916   4.976   0.203   6.731 -0.5913  0.8978  0.7234
 2960poe    c2313917   4.846   0.151   6.713  0.0329 -0.4167 -0.1675
 2960poe    c2313918   4.786   0.128   6.853  0.3843 -0.2127  0.0163
 2960poe     o213919   4.824   0.242   6.927 -0.4308 -0.1004  0.2761
 2960poe    c3113920   4.786   0.225   7.062 -0.1032  0.3475  0.4286
 2961poe    c3113921   1.646   1.139   1.542  0.0021  0.4225  0.3039
 2961poe     o213922   1.755   1.203   1.604  0.2025  0.3072  0.0742
 2961poe    c2313923   1.712   1.263   1.724 -0.2090  0.0263  0.0686
 2961poe    c2313924   1.815   1.365   1.773 -0.2082  0.0658 -0.0155
 2961poe     o213925   1.830   1.471   1.680  0.0542 -0.1278 -0.1937
 2961poe    c2313926   1.949   1.538   1.715  0.4038 -0.5117 -0.6397
 2961poe    c2313927   1.970   1.671   1.641  0.0103 -0.0062  0.1606
 2961poe     o213928   1.976   1.639   1.504 -0.1361  0.2446  0.0941
 2961poe    c2313929   1.937   1.751   1.428 -0.8304 -0.0105  0.0754
 2961poe    c2313930   1.881   1.715   1.289  0.0051  0.0766 -0.2843
 2961poe     o213931   1.756   1.651   1.283 -0.0782  0.2219 -0.0894
 2961poe    c3113932   1.749   1.605   1.150  0.2287  0.2455 -0.1134
 2962poe    c3113933   2.042   6.565   4.626 -0.1046 -0.1004  0.6442
 2962poe     o213934   2.170   6.513   4.596 -0.0224  0.8704 -0.8144
 2962poe    c2313935   2.253   6.598   4.672  0.2786 -0.3015  0.1982
 2962poe    c2313936   2.388   6.526   4.688  0.0920 -0.7280 -0.1237
 2962poe     o213937   2.374   6.397   4.743 -0.0951 -0.5555  0.2369
 2962poe    c2313938   2.500   6.343   4.778  0.1280 -0.3366 -0.2168
 2962poe    c2313939   2.466   6.205   4.839 -0.2824  0.1232  0.6159
 2962poe     o213940   2.393   6.123   4.751  0.3780  0.2053 -0.0208
 2962poe    c2313941   2.481   6.017   4.716  0.0039 -0.1305  0.0492
 2962poe    c2313942   2.475   6.006   4.563 -0.0540  0.3778  0.0126
 2962poe     o213943   2.341   6.027   4.525 -0.0539  0.3452 -0.0066
 2962poe    c3113944   2.333   6.013   4.385  0.9765 -0.3235 -0.0110
 2963poe    c3113945   0.799   6.412   1.533  0.4661  0.2077  0.6229
 2963poe     o213946   0.820   6.447   1.399 -0.1619 -0.1336  0.4306
 2963poe    c2313947   0.763   6.363   1.301  0.2088  0.1363 -0.0211
 2963poe    c2313948   0.776   6.439   1.167  0.1990 -0.1380 -0.1777
 2963poe     o213949   0.912   6.477   1.162  0.0192  0.5796  0.1942
 2963poe    c2313950   0.937   6.523   1.031 -0.2780 -0.7672 -0.3591
 2963poe    c2313951   1.082   6.574   1.015 -0.2486 -0.7365 -0.0232
 2963poe     o213952   1.111   6.648   1.131 -0.4715  0.1475 -0.5229
 2963poe    c2313953   1.240   6.704   1.123 -0.1191 -0.5076  0.4548
 2963poe    c2313954   1.274   6.787   1.249  0.2749 -0.6858  0.4648
 2963poe     o213955   1.249   6.700   1.357 -0.0895 -0.7088  0.3623
 2963poe    c3113956   1.295   6.752   1.480  0.0536  0.8337 -0.3133
 2964poe    c3113957   2.018   2.683   1.661  0.4754  0.2729  0.0966
 2964poe     o213958   1.992   2.678   1.522  0.0974 -0.4072  0.1839
 2964poe    c2313959   2.062   2.769   1.440 -0.4350 -0.3339 -0.1924
 2964poe    c2313960   2.029   2.733   1.294 -0.4524 -0.0196 -0.2673
 2964poe     o213961   1.894   2.759   1.263 -0.5264  0.2277  0.2483
 2964poe    c2313962   1.874   2.740   1.125  0.3308  0.2485  0.1180
 2964poe    c2313963   1.728   2.766   1.083  0.3829  0.4221  0.0393
 2964poe     o213964   1.694   2.902   1.073  0.3385  0.3971 -0.1515
 2964poe    c2313965   1.554   2.916   1.085  0.3247 -0.0832  0.2852
 2964poe    c2313966   1.496   3.058   1.072  0.5358 -0.0254 -0.0306
 2964poe     o213967   1.517   3.127   1.193  0.7736  0.2908 -0.2509
 2964poe    c3113968   1.410   3.212   1.229  0.5736 -0.3433  0.6947
 2965poe    c3113969   3.584   4.485   3.709 -0.3458 -0.4498  0.6144
 2965poe     o213970   3.724   4.486   3.693 -0.4178  0.2083 -0.0071
 2965poe    c2313971   3.763   4.355   3.659  0.0889  0.2386  0.4467
 2965poe    c2313972   3.906   4.356   3.603  0.1391  0.0722  0.5687
 2965poe     o213973   3.998   4.411   3.695  0.4809  0.1638  0.1746
 2965poe    c2313974   4.113   4.446   3.621  0.4351  0.5044  0.2661
 2965poe    c2313975   4.237   4.500   3.697  0.5893  0.9110 -0.2657
 2965poe     o213976   4.315   4.392   3.744 -0.4659  0.2451  0.0073
 2965poe    c2313977   4.417   4.433   3.832  0.0996  0.0348 -0.5354
 2965poe    c2313978   4.508   4.318   3.879 -0.6239 -0.1899  0.3489
 2965poe     o213979   4.429   4.210   3.923 -0.6768 -0.0848  0.5118
 2965poe    c3113980   4.458   4.168   4.055 -0.6041 -0.3728  0.4034
 2966poe    c3113981   3.183   5.602   5.490 -0.1169  0.5350 -0.2514
 2966poe     o213982   3.236   5.556   5.613 -0.7968 -0.5671 -0.3559
 2966poe    c2313983   3.288   5.430   5.579  0.2991 -0.2050 -0.0769
 2966poe    c2313984   3.333   5.335   5.691 -0.1002  0.1070  0.3470
 2966poe     o213985   3.426   5.391   5.781  0.0271 -0.1956  0.4050
 2966poe    c2313986   3.481   5.277   5.843  0.5571 -0.3082 -0.2532
 2966poe    c2313987   3.547   5.308   5.979  0.7575 -0.0804 -0.4027
 2966poe     o213988   3.455   5.348   6.077  0.5608 -0.4172 -0.4497
 2966poe    c2313989   3.513   5.350   6.206  0.3721 -0.0144 -0.3682
 2966poe    c2313990   3.407   5.334   6.316  0.2541  0.1975 -0.4499
 2966poe     o213991   3.316   5.440   6.299  0.0683  0.2255  0.6556
 2966poe    c3113992   3.207   5.444   6.389  0.2411  0.2498  0.8658
 2967poe    c3113993   3.535   6.982   3.774 -0.0098  0.7276 -0.6034
 2967poe     o213994   3.675   6.965   3.785 -0.1425  0.1715  0.3797
 2967poe    c2313995   3.699   6.828   3.803 -0.1347  0.1655  0.3287
 2967poe    c2313996   3.827   6.800   3.722 -0.0592  0.0083  0.5017
 2967poe     o213997   3.918   6.902   3.755 -0.0958  0.2350 -0.0919
 2967poe    c2313998   4.056   6.888   3.730 -0.0382  0.2376  0.2248
 2967poe    c2313999   4.112   6.960   3.855  0.1871  0.3859  0.0395
 2967poe     o214000   4.062   7.090   3.876  0.1466  0.4824 -0.6034
 2967poe    c2314001   4.142   7.149   3.977  0.2400  0.3125 -0.5775
 2967poe    c2314002   4.096   7.293   4.006  0.1169  0.0634  0.4936
 2967poe     o214003   3.976   7.283   4.081  0.1095 -0.1893  0.4508
 2967poe    c3114004   3.935   7.416   4.103 -0.3612 -0.2349 -0.1341
 2968poe    c3114005   6.065   3.123   6.244  0.5183  0.1209  0.0019
 2968poe     o214006   6.057   3.242   6.168  0.3616  0.6844  0.8834
 2968poe    c2314007   6.184   3.301   6.156  0.5123  0.1963 -0.0289
 2968poe    c2314008   6.177   3.421   6.060 -1.1651  0.3470  0.2594
 2968poe     o214009   6.113   3.365   5.947 -0.1668  0.1694 -0.2307
 2968poe    c2314010   6.124   3.441   5.829 -0.1863  0.0435 -0.3138
 2968poe    c2314011   6.026   3.386   5.725 -0.2896 -0.2340 -0.0706
 2968poe     o214012   6.050   3.255   5.680 -0.1765 -0.3101  0.2098
 2968poe    c2314013   5.933   3.200   5.622 -0.3362 -0.4744  0.6842
 2968poe    c2314014   5.960   3.054   5.581  0.2262 -0.1968  0.0378
 2968poe     o214015   6.005   2.980   5.692 -0.1348 -0.6627 -0.1211
 2968poe    c3114016   6.038   2.849   5.652  0.3332 -0.8208  0.7641
 2969poe    c3114017   0.244   2.598   6.916  0.0033 -0.4195 -0.6580
 2969poe     o214018   0.373   2.654   6.907  0.1966 -0.7074  0.2125
 2969poe    c2314019   0.376   2.746   6.800 -0.3270 -0.7715  0.1409
 2969poe    c2314020   0.523   2.757   6.757 -0.4191  0.2761  0.0742
 2969poe     o214021   0.602   2.804   6.864  0.0640  0.2113 -0.2503
 2969poe    c2314022   0.733   2.754   6.874  0.0045  0.1117  0.0305
 2969poe    c2314023   0.799   2.761   7.013 -0.1604 -0.0925  0.1187
 2969poe     o214024   0.769   2.658   7.105  0.2498 -0.3130  0.0070
 2969poe    c2314025   0.836   2.654   7.229  0.1203  0.0180  0.0891
 2969poe    c2314026   0.854   2.508   7.276 -0.0674 -0.1294 -0.2982
 2969poe     o214027   0.728   2.460   7.318  0.0722  0.0685  0.3435
 2969poe    c3114028   0.744   2.328   7.367 -0.0801 -0.0964 -0.0539
 2970poe    c3114029   6.606   7.035   4.604  0.0676 -0.2593  0.4861
 2970poe     o214030   6.705   7.126   4.560 -0.4235 -0.0574 -0.2065
 2970poe    c2314031   6.657   7.250   4.515  0.8723  0.7000  0.4536
 2970poe    c2314032   6.774   7.343   4.476  0.3195  0.9545 -0.6438
 2970poe     o214033   6.876   7.344   4.573  0.3323  0.2246 -0.6422
 2970poe    c2314034   6.970   7.443   4.538  0.1954  0.4160 -0.4775
 2970poe    c2314035   7.077   7.433   4.648 -0.2225 -0.2971 -0.1314
 2970poe     o214036   7.125   7.300   4.643 -0.3178 -0.3335 -0.0900
 2970poe    c2314037   7.255   7.286   4.695 -0.3657  0.1430  0.1703
 2970poe    c2314038   7.314   7.144   4.679  0.0015  0.3161 -0.0344
 2970poe     o214039   7.258   7.042   4.759  0.1623 -0.0024 -0.3259
 2970poe    c3114040   7.353   6.940   4.780 -0.2610 -0.2266  0.5665
 2971poe    c3114041   4.623   5.697   1.098 -0.1906  0.3697 -0.0029
 2971poe     o214042   4.637   5.604   0.992  0.4566  0.2639  0.1732
 2971poe    c2314043   4.714   5.656   0.886  0.6214  0.2667  0.2923
 2971poe    c2314044   4.764   5.541   0.796  0.0740 -0.0027  0.3236
 2971poe     o214045   4.876   5.493   0.868  0.5317  0.2113 -0.2345
 2971poe    c2314046   4.965   5.410   0.796  0.1165 -0.2542 -0.2189
 2971poe    c2314047   5.062   5.348   0.897  0.0907  0.3434  0.1797
 2971poe     o214048   5.001   5.254   0.983  0.4298 -0.7576 -0.7481
 2971poe    c2314049   5.089   5.214   1.086 -0.1041  0.2156  0.1116
 2971poe    c2314050   5.047   5.075   1.138  0.5547  0.0214  0.1275
 2971poe     o214051   4.949   5.063   1.239  0.3036 -0.2571 -0.1487
 2971poe    c3114052   4.931   4.925   1.263  0.5239 -0.3477 -0.5022
 2972poe    c3114053   2.253   3.265   3.342 -0.0543 -0.5440  0.4978
 2972poe     o214054   2.181   3.167   3.414 -0.0910 -0.1218  1.0359
 2972poe    c2314055   2.274   3.068   3.450  0.4596  0.0284  0.0558
 2972poe    c2314056   2.178   2.956   3.495  0.1859  0.3728  0.3254
 2972poe     o214057   2.057   2.941   3.424  0.2373 -0.1725  0.3510
 2972poe    c2314058   1.995   2.823   3.470  0.2811 -0.3689 -0.0832
 2972poe    c2314059   1.871   2.808   3.380 -0.1604  0.3316  0.3950
 2972poe     o214060   1.794   2.922   3.412 -0.2221  0.3227  0.2790
 2972poe    c2314061   1.658   2.913   3.374  0.0515 -0.3460 -0.5541
 2972poe    c2314062   1.556   2.939   3.486  0.0440 -0.1234 -0.6119
 2972poe     o214063   1.586   3.069   3.529  0.3041 -0.6836  0.9632
 2972poe    c3114064   1.497   3.110   3.630  0.0770 -0.2708  0.6010
 2973poe    c3114065   0.898   6.814   2.624  0.2607 -0.0731  0.1295
 2973poe     o214066   0.984   6.868   2.722 -0.3551  0.0945  0.5793
 2973poe    c2314067   0.924   6.989   2.762 -0.2285  0.2933  0.1693
 2973poe    c2314068   0.954   7.019   2.910  0.0067  0.1675  0.1464
 2973poe     o214069   1.076   7.091   2.911  0.2154 -0.1835  0.2653
 2973poe    c2314070   1.075   7.172   3.026 -0.3172 -0.1548  0.2430
 2973poe    c2314071   1.224   7.208   3.041 -0.3604  0.2350 -0.2619
 2973poe     o214072   1.270   7.252   2.915  0.1042 -0.6153 -0.3939
 2973poe    c2314073   1.410   7.241   2.907  0.1627 -0.1485 -0.0363
 2973poe    c2314074   1.474   7.249   2.767 -0.2312 -0.2356 -0.2199
 2973poe     o214075   1.455   7.137   2.683 -0.1163 -0.4009 -0.0241
 2973poe    c3114076   1.528   7.150   2.563  0.5635  0.4708  0.4651
 2974poe    c3114077   2.658   6.694   5.758  0.3343  0.0441 -0.3595
 2974poe     o214078   2.735   6.782   5.837  0.0235  0.4190 -0.4698
 2974poe    c2314079   2.841   6.818   5.753  0.3967 -0.1108 -0.2350
 2974poe    c2314080   2.915   6.944   5.802  0.1840 -0.0335 -0.1147
 2974poe     o214081   2.843   7.064   5.783  0.2577  0.0654  0.2168
 2974poe    c2314082   2.879   7.168   5.871  0.7077 -0.0475  0.1660
 2974poe    c2314083   2.993   7.261   5.825  0.1373  0.3850 -0.3851
 2974poe     o214084   2.945   7.368   5.747  0.0305  0.2589 -0.4922
 2974poe    c2314085   2.987   7.348   5.614  0.6903 -0.0091 -0.2462
 2974poe    c2314086   2.943   7.468   5.528  0.2183  0.5189  0.7158
 2974poe     o214087   2.806   7.472   5.495  0.4284 -0.3884 -0.3377
 2974poe    c3114088   2.778   7.593   5.428 -0.2221 -0.2106  0.2374
 2975poe    c3114089   3.634   6.087   4.231 -0.2431  0.2355  0.2292
 2975poe     o214090   3.561   6.144   4.125 -0.3726  0.0112  0.1983
 2975poe    c2314091   3.639   6.147   4.007  0.2012  0.2625  0.5778
 2975poe    c2314092   3.597   6.268   3.922 -0.1276 -0.2462  0.0072
 2975poe     o214093   3.456   6.276   3.929 -0.0786  0.1845  0.5844
 2975poe    c2314094   3.410   6.386   3.853  0.4196 -0.3244 -0.4843
 2975poe    c2314095   3.257   6.384   3.835  0.3747  0.3070 -0.2023
 2975poe     o214096   3.191   6.337   3.950  0.2868  0.0456 -0.3579
 2975poe    c2314097   3.053   6.322   3.926  0.1794  0.8467 -0.2994
 2975poe    c2314098   2.969   6.280   4.048  0.9040  0.2309 -0.0029
 2975poe     o214099   3.001   6.147   4.082 -0.5148 -0.2718 -0.5687
 2975poe    c3114100   2.949   6.091   4.201  0.1725  0.1892 -0.0439
 2976poe    c3114101   6.130   3.159   4.819  0.3478 -0.2477 -0.4110
 2976poe     o214102   6.053   3.247   4.740  0.6472  0.0786 -0.3460
 2976poe    c2314103   6.020   3.184   4.618  0.0471  0.2206 -0.2598
 2976poe    c2314104   5.960   3.288   4.521 -0.3528 -0.0992 -0.3586
 2976poe     o214105   6.053   3.358   4.442  0.1488 -0.2497  0.0915
 2976poe    c2314106   6.028   3.365   4.303  0.7180  0.1461  0.0012
 2976poe    c2314107   6.113   3.470   4.229  0.5696 -0.0471 -0.4475
 2976poe     o214108   6.087   3.601   4.275 -0.3706 -0.2109 -0.4955
 2976poe    c2314109   6.164   3.703   4.217 -0.3267 -0.1837 -0.3891
 2976poe    c2314110   6.120   3.841   4.270 -0.2069 -0.1334 -0.4190
 2976poe     o214111   6.125   3.867   4.408  0.4061 -0.1460 -0.4380
 2976poe    c3114112   6.089   4.001   4.435  0.1401 -0.2765 -0.1363
 2977poe    c3114113   3.019   5.122   4.089 -0.1370  0.2516 -0.0378
 2977poe     o214114   3.102   5.069   3.988 -0.3020 -0.1127  0.0160
 2977poe    c2314115   3.034   4.968   3.916 -0.5578  0.0470  0.0334
 2977poe    c2314116   3.132   4.934   3.802 -0.4579  0.0014  0.1329
 2977poe     o214117   3.238   4.857   3.855 -0.0099  0.4892 -0.0424
 2977poe    c2314118   3.325   4.810   3.754 -0.3640  0.0004 -0.1254
 2977poe    c2314119   3.458   4.881   3.721 -0.1554 -0.4569 -0.2789
 2977poe     o214120   3.560   4.874   3.817 -0.3738  0.1900  0.0050
 2977poe    c2314121   3.658   4.971   3.789 -0.1451 -0.0854 -0.1440
 2977poe    c2314122   3.764   5.011   3.894  0.0164 -0.0203 -0.3310
 2977poe     o214123   3.861   4.910   3.908 -0.5281 -0.4906  0.0871
 2977poe    c3114124   3.887   4.889   4.045 -0.3440 -0.5028  0.0500
 2978poe    c3114125   2.267   5.215   6.165 -0.2178 -0.0186 -0.5021
 2978poe     o214126   2.253   5.097   6.088  0.0423 -0.3775 -0.0044
 2978poe    c2314127   2.378   5.031   6.087  0.0745 -0.3224  0.2382
 2978poe    c2314128   2.357   4.892   6.024  0.0692 -0.4059  0.4235
 2978poe     o214129   2.335   4.889   5.885  0.0023  0.0200  0.4254
 2978poe    c2314130   2.314   4.762   5.828  0.3876  0.1898 -0.1048
 2978poe    c2314131   2.372   4.745   5.686  0.6360 -0.1970  0.0394
 2978poe     o214132   2.303   4.822   5.590  0.2962 -0.5898 -0.0322
 2978poe    c2314133   2.342   4.794   5.458 -0.2861 -0.0236 -0.3313
 2978poe    c2314134   2.226   4.829   5.364 -0.0936  0.1295 -0.5149
 2978poe     o214135   2.170   4.952   5.403 -0.1112 -0.1045  0.2186
 2978poe    c3114136   2.108   5.020   5.295 -0.3100 -0.1528  0.3011
 2979poe    c3114137   5.993   4.139   6.590  0.2943 -0.3493 -0.2092
 2979poe     o214138   5.886   4.082   6.518  0.1998 -0.3194 -0.0920
 2979poe    c2314139   5.854   3.947   6.544 -0.2349 -0.1810  0.1071
 2979poe    c2314140   5.703   3.922   6.528 -0.2507  0.0777 -0.1512
 2979poe     o214141   5.630   3.984   6.631 -0.2397  0.0461 -0.1242
 2979poe    c2314142   5.505   3.925   6.659 -0.2002  0.1760  0.3328
 2979poe    c2314143   5.435   3.991   6.779 -0.4492 -0.3695  0.4917
 2979poe     o214144   5.407   4.126   6.749  0.4229 -0.2520  0.1872
 2979poe    c2314145   5.357   4.192   6.863 -0.0121  0.8431 -0.6213
 2979poe    c2314146   5.442   4.228   6.987 -0.0381 -0.4007 -0.2299
 2979poe     o214147   5.539   4.324   6.953 -0.1609 -0.1952  0.0035
 2979poe    c3114148   5.620   4.380   7.054 -0.1968 -0.1313 -0.0030
 2980poe    c3114149   4.901   3.280   4.738 -0.0889  0.2058  0.3390
 2980poe     o214150   4.969   3.401   4.717  0.2746  0.0195  0.4259
 2980poe    c2314151   5.096   3.382   4.659  0.1606 -0.6279  0.3894
 2980poe    c2314152   5.153   3.520   4.622  0.1253 -0.8459 -0.5125
 2980poe     o214153   5.047   3.569   4.543  0.5208  0.2286 -0.3963
 2980poe    c2314154   5.076   3.691   4.478 -0.1993  0.2913 -0.6052
 2980poe    c2314155   4.946   3.752   4.423 -0.4955  0.1417 -0.0758
 2980poe     o214156   4.836   3.741   4.510 -0.0395  0.1745  0.5137
 2980poe    c2314157   4.738   3.827   4.457  0.1500 -0.2484 -0.5339
 2980poe    c2314158   4.596   3.792   4.504  0.1443 -0.1529 -0.4807
 2980poe     o214159   4.560   3.665   4.457  0.0564 -0.1085 -0.5334
 2980poe    c3114160   4.420   3.652   4.438 -0.0513  0.1425  0.0910
 2981poe    c3114161   5.104   3.868   3.450  0.1672 -0.4571 -0.1225
 2981poe     o214162   5.186   3.824   3.556  0.2571 -0.0027 -0.0008
 2981poe    c2314163   5.101   3.750   3.641  0.3220 -0.0293  0.0414
 2981poe    c2314164   5.148   3.638   3.735 -0.1760 -0.2542  0.0286
 2981poe     o214165   5.226   3.540   3.670  0.1045  0.1178 -0.1981
 2981poe    c2314166   5.146   3.453   3.592  0.1649  0.0327 -0.1644
 2981poe    c2314167   5.233   3.349   3.520  0.4023  0.0487  0.0979
 2981poe     o214168   5.342   3.396   3.443  0.1770  0.2288 -0.1138
 2981poe    c2314169   5.313   3.465   3.324 -0.1293  0.0822 -0.1265
 2981poe    c2314170   5.445   3.497   3.251  0.1783 -0.5925  0.1197
 2981poe     o214171   5.528   3.571   3.338 -0.0439 -0.2255  0.0257
 2981poe    c3114172   5.545   3.702   3.291 -0.0405 -0.1909  0.1231
 2982poe    c3114173   5.005   4.090   6.796  0.2181 -0.3944  0.4766
 2982poe     o214174   4.873   4.052   6.761  0.2308 -0.0913  0.0992
 2982poe    c2314175   4.862   3.912   6.746 -0.1348 -0.0948  0.3837
 2982poe    c2314176   4.741   3.857   6.669  0.1900  0.1982 -0.3516
 2982poe     o214177   4.635   3.867   6.763  0.6807 -0.4115  0.2745
 2982poe    c2314178   4.538   3.771   6.727  0.4693 -0.1713  0.2056
 2982poe    c2314179   4.425   3.741   6.828  0.4332  0.5658  0.3945
 2982poe     o214180   4.355   3.851   6.880  0.1970  0.4975  0.2225
 2982poe    c2314181   4.245   3.820   6.961 -0.1883  0.2459 -0.3893
 2982poe    c2314182   4.138   3.931   6.957 -0.2875  0.1464 -0.5496
 2982poe     o214183   4.177   4.052   7.019 -0.7094 -0.1267  0.2751
 2982poe    c3114184   4.073   4.146   7.033 -0.1670  0.5095  0.1244
 2983poe    c3114185   1.538   1.364   0.124 -0.5052 -0.2292 -0.3620
 2983poe     o214186   1.488   1.469   0.203  0.3896 -0.3374  0.3576
 2983poe    c2314187   1.351   1.493   0.182  0.5374  0.2747  0.0769
 2983poe    c2314188   1.309   1.611   0.272 -0.3922  0.0153 -0.0091
 2983poe     o214189   1.302   1.568   0.406  0.0947 -0.1335 -0.0281
 2983poe    c2314190   1.245   1.673   0.481 -0.3987 -0.0732 -0.4762
 2983poe    c2314191   1.224   1.639   0.630  0.0472 -0.0676 -0.4104
 2983poe     o214192   1.142   1.525   0.636  0.5124 -0.3882 -0.0493
 2983poe    c2314193   1.157   1.473   0.766 -0.9678  0.1136  0.3428
 2983poe    c2314194   1.088   1.335   0.753  0.2646 -0.4946  0.0519
 2983poe     o214195   1.111   1.266   0.632 -0.4091 -0.2684 -0.2137
 2983poe    c3114196   1.023   1.158   0.612 -0.3531 -0.3335 -0.1134
 2984poe    c3114197   3.022   5.482   2.276 -0.3143  0.0777  0.1280
 2984poe     o214198   3.041   5.344   2.252 -0.2942  0.1712 -0.3959
 2984poe    c2314199   3.169   5.296   2.287 -0.6887 -0.7463 -0.1966
 2984poe    c2314200   3.193   5.269   2.437  0.3042 -0.3810 -0.2809
 2984poe     o214201   3.090   5.195   2.499  0.2940  0.2196  0.4454
 2984poe    c2314202   3.093   5.215   2.638 -0.0024  0.0125  0.4834
 2984poe    c2314203   2.993   5.125   2.713 -0.4088  0.3047  0.2997
 2984poe     o214204   2.977   4.989   2.678  0.3211  0.4072 -0.4876
 2984poe    c2314205   3.071   4.907   2.743 -0.1449  0.0557 -0.2473
 2984poe    c2314206   3.104   4.781   2.662  0.7368  0.0311  0.1339
 2984poe     o214207   3.145   4.830   2.536 -0.3793  0.0764 -0.2231
 2984poe    c3114208   3.207   4.729   2.460  0.0997  0.3772 -0.2366
 2985poe    c3114209   3.197   4.205   1.797 -0.5242 -0.2022  0.4356
 2985poe     o214210   3.112   4.164   1.692 -0.3297 -0.3145  0.3217
 2985poe    c2314211   2.978   4.204   1.711 -0.0389  0.7036  0.2839
 2985poe    c2314212   2.904   4.071   1.736  0.2736  0.4445 -0.1671
 2985poe     o214213   2.909   4.001   1.614  0.2238 -0.1569  0.1739
 2985poe    c2314214   2.825   3.888   1.619 -0.0351  0.0252 -0.0477
 2985poe    c2314215   2.866   3.776   1.522 -0.1074  0.0038 -0.0537
 2985poe     o214216   2.995   3.722   1.545 -0.0061  0.0446 -0.5225
 2985poe    c2314217   3.014   3.617   1.453 -0.0721 -0.4843  0.0659
 2985poe    c2314218   3.133   3.523   1.481  0.1371 -0.2457 -0.0119
 2985poe     o214219   3.131   3.455   1.605 -0.2953  0.2998  0.2830
 2985poe    c3114220   3.138   3.528   1.725  1.0190  0.8184 -0.0928
 2986poe    c3114221   6.545   6.724   5.751 -0.4150 -0.1196 -0.3020
 2986poe     o214222   6.546   6.858   5.795  0.0356 -0.2820  0.1957
 2986poe    c2314223   6.598   6.952   5.703 -0.4327 -0.3211 -0.1105
 2986poe    c2314224   6.594   7.095   5.760 -0.2096 -0.1334 -0.5613
 2986poe     o214225   6.660   7.113   5.883 -0.0280 -0.3954 -0.6213
 2986poe    c2314226   6.635   7.239   5.939  0.3146 -0.6058  0.0147
 2986poe    c2314227   6.687   7.255   6.083  0.1671 -0.1184  0.0176
 2986poe     o214228   6.641   7.160   6.177 -0.5268  0.1440 -0.0453
 2986poe    c2314229   6.683   7.186   6.309 -0.5994 -0.1648  0.0402
 2986poe    c2314230   6.656   7.055   6.387 -0.2902 -0.2815 -0.0495
 2986poe     o214231   6.688   6.944   6.306  0.3781 -0.2794  0.2111
 2986poe    c3114232   6.634   6.821   6.348 -0.0782 -0.2746 -0.3595
 2987poe    c3114233   4.472   4.024   2.044 -0.4430  0.7771  0.0841
 2987poe     o214234   4.560   4.133   2.028  0.9364 -0.3081  0.1096
 2987poe    c2314235   4.567   4.161   1.890 -0.1946 -0.0165  0.1039
 2987poe    c2314236   4.657   4.284   1.864 -0.4808  0.1634 -0.0325
 2987poe     o214237   4.793   4.250   1.874 -0.4186  0.0423 -1.1699
 2987poe    c2314238   4.876   4.361   1.850 -0.1236 -0.0524 -0.5826
 2987poe    c2314239   5.021   4.349   1.902 -0.2402  0.4843 -0.1242
 2987poe     o214240   5.013   4.322   2.040 -0.2384 -0.2778 -0.2684
 2987poe    c2314241   5.059   4.433   2.115 -0.4976 -0.2157 -0.2003
 2987poe    c2314242   4.993   4.448   2.253  0.2434 -0.2967  0.1669
 2987poe     o214243   5.002   4.331   2.331  0.2872 -0.1790  0.3401
 2987poe    c3114244   4.950   4.366   2.458 -0.2571  0.3892 -0.0342
 2988poe    c3114245   3.800   1.402   5.248  0.9498 -0.6639  0.4260
 2988poe     o214246   3.827   1.341   5.124 -0.5060 -0.1442 -0.1674
 2988poe    c2314247   3.947   1.390   5.068 -0.0746 -0.1414  0.7352
 2988poe    c2314248   4.032   1.273   5.018  0.0037  0.2975 -0.1758
 2988poe     o214249   3.994   1.198   4.905  0.2257  0.1909 -0.1814
 2988poe    c2314250   4.109   1.126   4.864  0.1339 -0.0558 -0.0100
 2988poe    c2314251   4.098   1.059   4.726  0.5642 -0.2771  0.0627
 2988poe     o214252   4.003   0.955   4.721  0.4867 -0.1853 -0.3810
 2988poe    c2314253   3.991   0.887   4.598 -0.6089 -0.1966 -0.2812
 2988poe    c2314254   3.902   0.947   4.488 -0.0802  0.7565 -0.2011
 2988poe     o214255   3.762   0.946   4.506  0.0900 -0.1343  1.1467
 2988poe    c3114256   3.706   1.029   4.407  0.2866 -0.3545  0.8472
 2989poe    c3114257   4.003   6.935   4.487 -0.3192  0.2195 -0.2324
 2989poe     o214258   3.884   6.868   4.523  0.2176 -0.3616  0.4976
 2989poe    c2314259   3.780   6.941   4.461  0.3148 -0.4319  0.2477
 2989poe    c2314260   3.633   6.901   4.487  0.3110 -0.5739  0.0031
 2989poe     o214261   3.599   6.907   4.623 -0.0222 -0.2683 -0.0941
 2989poe    c2314262   3.635   6.809   4.717 -0.0474 -0.2824 -0.0994
 2989poe    c2314263   3.540   6.799   4.838  0.2180  0.5923  0.1881
 2989poe     o214264   3.578   6.908   4.919  0.1790  0.5759  0.2288
 2989poe    c2314265   3.497   6.926   5.033 -0.1006  0.2392  0.0858
 2989poe    c2314266   3.555   7.040   5.119 -0.1458  0.3397 -0.0165
 2989poe     o214267   3.552   7.162   5.048 -0.3042  0.2231 -0.2127
 2989poe    c3114268   3.637   7.261   5.102  0.0148 -0.2761  0.2135
 2990poe    c3114269   3.740   6.831   3.320  0.0108  0.3710  0.8397
 2990poe     o214270   3.807   6.926   3.240  0.2195 -0.0358  0.5261
 2990poe    c2314271   3.895   6.863   3.150  0.1017 -0.5495  0.7662
 2990poe    c2314272   3.946   6.958   3.040 -0.1040  0.0068  1.1469
 2990poe     o214273   4.065   7.019   3.084  0.2593  0.3406 -0.2437
 2990poe    c2314274   4.143   7.032   2.967 -0.2469 -0.3493 -0.6616
 2990poe    c2314275   4.278   7.093   3.007 -0.7532  0.2522  0.1839
 2990poe     o214276   4.354   7.032   3.108 -0.3849  0.0554 -0.2076
 2990poe    c2314277   4.409   6.903   3.095 -0.5549  0.0036 -0.4035
 2990poe    c2314278   4.502   6.850   2.984 -0.2397 -0.6250  0.1528
 2990poe     o214279   4.625   6.916   2.998 -0.4183 -0.1920 -0.2912
 2990poe    c3114280   4.726   6.866   2.914 -0.3036 -0.4814  0.0178
 2991poe    c3114281   3.108   3.801   2.490  0.1606 -0.1152  0.1388
 2991poe     o214282   3.245   3.775   2.472  0.2552  0.0639  0.5824
 2991poe    c2314283   3.300   3.715   2.587  0.2975 -0.0474  0.5045
 2991poe    c2314284   3.441   3.656   2.567  0.0040 -0.3740 -0.6311
 2991poe     o214285   3.537   3.758   2.579 -0.0609 -0.3155 -0.6071
 2991poe    c2314286   3.669   3.708   2.578  0.0190 -0.1634  0.4606
 2991poe    c2314287   3.758   3.813   2.647  0.3733 -0.0891 -0.1015
 2991poe     o214288   3.733   3.946   2.605  0.4759 -0.1554 -0.3740
 2991poe    c2314289   3.790   4.042   2.691  0.0368 -0.0362 -0.2143
 2991poe    c2314290   3.746   4.178   2.632 -0.1041 -0.5773 -1.3939
 2991poe     o214291   3.608   4.174   2.604 -0.3659 -0.5030 -0.1908
 2991poe    c3114292   3.561   4.302   2.567  0.2230 -0.2230  0.0118
 2992poe    c3114293   3.767   3.427   5.450 -0.5173  0.2455 -0.0547
 2992poe     o214294   3.880   3.344   5.447 -0.5303  0.2148  0.3057
 2992poe    c2314295   3.877   3.228   5.527  0.1131  0.0841  0.1487
 2992poe    c2314296   3.979   3.114   5.509 -0.2311 -0.2366  0.2234
 2992poe     o214297   4.111   3.160   5.494 -0.1800 -0.3201  0.4307
 2992poe    c2314298   4.200   3.053   5.473  0.0265 -0.0551 -0.0554
 2992poe    c2314299   4.343   3.099   5.440  0.2626 -0.5818  0.2242
 2992poe     o214300   4.399   3.160   5.555  0.0541 -0.7002  0.3888
 2992poe    c2314301   4.533   3.173   5.516 -0.1688  0.2402 -0.0777
 2992poe    c2314302   4.631   3.239   5.616 -0.0061  0.3617 -0.3147
 2992poe     o214303   4.608   3.372   5.655  0.1517  0.1276  0.5941
 2992poe    c3114304   4.608   3.469   5.552  1.2828  0.7863  1.1926
 2993poe    c3114305   2.091   5.205   0.107  0.7141  0.0013  0.0538
 2993poe     o214306   2.103   5.167  -0.028  0.4306  0.0723  0.0098
 2993poe    c2314307   2.026   5.051  -0.049  0.0302  0.3028  0.1863
 2993poe    c2314308   2.025   4.992  -0.191 -0.2107  0.1749  0.2394
 2993poe     o214309   2.148   4.940  -0.236 -0.5650 -0.1722 -0.3500
 2993poe    c2314310   2.168   4.934  -0.375 -0.2435  0.0257 -0.3145
 2993poe    c2314311   2.219   5.063  -0.442 -0.3047  0.2487  0.0669
 2993poe     o214312   2.344   5.095  -0.385 -0.1975  0.1750 -0.1240
 2993poe    c2314313   2.428   5.158  -0.478  0.3644  0.0757  0.3106
 2993poe    c2314314   2.566   5.201  -0.424  0.7998 -0.3602 -0.4297
 2993poe     o214315   2.564   5.285  -0.311 -0.3628  0.2465 -0.8815
 2993poe    c3114316   2.685   5.353  -0.290 -0.2168 -0.5102  0.9352
 2994poe    c3114317   0.965   1.036   5.222  0.1282 -0.6769 -0.2942
 2994poe     o214318   1.102   1.008   5.232  0.2163  0.0995  0.7743
 2994poe    c2314319   1.124   0.875   5.273  0.1875 -0.0834  0.2034
 2994poe    c2314320   1.232   0.870   5.383  0.1452 -0.0359  0.2472
 2994poe     o214321   1.364   0.869   5.332 -0.0771  0.1175 -0.3400
 2994poe    c2314322   1.465   0.861   5.429 -0.4098 -0.1571 -0.0109
 2994poe    c2314323   1.599   0.810   5.373 -0.1784 -0.0299  0.4140
 2994poe     o214324   1.673   0.913   5.311 -0.6083  0.3399  0.5104
 2994poe    c2314325   1.811   0.885   5.315 -0.6072  0.3335  0.4198
 2994poe    c2314326   1.898   1.004   5.271 -0.1820 -0.0305  0.2632
 2994poe     o214327   1.905   1.112   5.362 -0.2107  0.0703  0.1471
 2994poe    c3114328   1.973   1.221   5.303 -0.4632  0.3376  0.3533
 2995poe    c3114329   3.531   5.058   2.518 -0.2077 -0.5514 -0.0442
 2995poe     o214330   3.521   4.975   2.404  0.2330 -0.7526  0.0581
 2995poe    c2314331   3.489   5.058   2.294  0.3338 -0.5547  0.1777
 2995poe    c2314332   3.605   5.120   2.214  0.0878  0.1353  0.3546
 2995poe     o214333   3.678   5.224   2.276  0.5176  0.0984 -0.0846
 2995poe    c2314334   3.815   5.195   2.290  0.5618  0.1425 -0.4078
 2995poe    c2314335   3.889   5.302   2.373  0.2655  0.1906 -0.2038
 2995poe     o214336   3.906   5.424   2.305 -0.0416  0.2105 -0.2459
 2995poe    c2314337   4.035   5.455   2.259  0.0887 -0.2934 -0.2175
 2995poe    c2314338   4.042   5.453   2.105 -0.1390 -0.5789 -0.2248
 2995poe     o214339   3.993   5.573   2.049  0.6045 -0.2072 -0.0979
 2995poe    c3114340   4.037   5.575   1.915 -0.3542 -0.1874 -0.4244
 2996poe    c3114341   2.231   3.531   6.651  0.4542  0.1855 -0.6290
 2996poe     o214342   2.203   3.596   6.774  0.6101 -0.3781 -0.2915
 2996poe    c2314343   2.165   3.503   6.872 -0.5985  0.3718 -0.0278
 2996poe    c2314344   2.143   3.569   7.010 -0.3185  0.2939  0.0550
 2996poe     o214345   2.257   3.644   7.046 -0.1311  0.2254 -0.3841
 2996poe    c2314346   2.230   3.712   7.167  0.0592 -0.3156 -0.0380
 2996poe    c2314347   2.353   3.753   7.249  0.1419  0.0574 -0.3462
 2996poe     o214348   2.433   3.838   7.170  0.7507 -0.5368 -0.3756
 2996poe    c2314349   2.534   3.904   7.242 -0.0858  0.2695  0.0833
 2996poe    c2314350   2.591   4.003   7.138 -0.3163  0.1144 -0.1933
 2996poe     o214351   2.595   3.927   7.020 -0.1608  0.1563 -0.2148
 2996poe    c3114352   2.656   3.991   6.910 -0.0539 -0.1246 -0.3213
 2997poe    c3114353   2.510   5.402   3.919 -0.1398 -0.6671  0.6865
 2997poe     o214354   2.598   5.445   4.020  0.5302  0.0678 -0.1942
 2997poe    c2314355   2.614   5.585   4.021  0.3925  0.0841  0.2476
 2997poe    c2314356   2.680   5.644   4.147  0.1020  0.6602  0.1370
 2997poe     o214357   2.816   5.609   4.160 -0.1021 -0.1918  0.0566
 2997poe    c2314358   2.898   5.722   4.139 -0.2996 -0.0166  0.2259
 2997poe    c2314359   3.031   5.689   4.070 -0.4184 -0.1333  0.0497
 2997poe     o214360   3.139   5.647   4.151  0.1119  0.1536 -0.4931
 2997poe    c2314361   3.257   5.630   4.076  0.4957  0.1383  0.1063
 2997poe    c2314362   3.336   5.506   4.123  0.6640  0.2581  0.1371
 2997poe     o214363   3.424   5.525   4.231  0.3534  0.0866  0.4205
 2997poe    c3114364   3.472   5.403   4.282 -0.2725 -0.5713 -0.5411
 2998poe    c3114365   3.141   6.369   1.162  0.0400 -0.3597 -0.3056
 2998poe     o214366   3.001   6.389   1.166  0.0847 -0.0605 -0.1755
 2998poe    c2314367   2.979   6.526   1.141 -0.4113  0.0475  0.8158
 2998poe    c2314368   2.831   6.569   1.142 -0.2727  0.5510  0.0910
 2998poe     o214369   2.764   6.509   1.034 -0.5444 -0.1476  0.6450
 2998poe    c2314370   2.624   6.526   1.037 -0.5211  0.2601 -0.3249
 2998poe    c2314371   2.561   6.500   0.899  0.4315  0.1907 -0.7503
 2998poe     o214372   2.559   6.364   0.862 -0.1936  0.1274 -0.4956
 2998poe    c2314373   2.462   6.357   0.761 -0.5905  0.5240 -0.1432
 2998poe    c2314374   2.445   6.214   0.706 -0.3265  0.2730  0.4229
 2998poe     o214375   2.378   6.132   0.799  0.3057  0.0986  0.7310
 2998poe    c3114376   2.411   5.996   0.781  0.2313  0.1645  0.0679
 2999poe    c3114377   3.275   5.403   3.242  0.3941  0.1108  0.5733
 2999poe     o214378   3.139   5.394   3.205  0.5954 -0.1255 -0.1213
 2999poe    c2314379   3.140   5.353   3.070  0.0335  0.0584 -0.1847
 2999poe    c2314380   3.004   5.386   3.006  0.0139 -0.6783 -0.5311
 2999poe     o214381   2.906   5.304   3.066  0.0409 -0.2474  0.1113
 2999poe    c2314382   2.776   5.319   3.012  0.0663 -0.2961  0.0363
 2999poe    c2314383   2.679   5.282   3.126 -0.0340 -0.5450 -0.1310
 2999poe     o214384   2.682   5.389   3.217 -0.4511 -0.3311 -0.3680
 2999poe    c2314385   2.581   5.368   3.312 -0.1878 -0.0191 -0.0137
 2999poe    c2314386   2.571   5.491   3.404  0.4432 -0.4340  0.6167
 2999poe     o214387   2.529   5.605   3.332  0.2998 -0.8361  0.0607
 2999poe    c3114388   2.415   5.667   3.388  0.3360 -0.1518 -0.6168
 3000poe    c3114389   7.089   3.679   0.869 -0.2570  0.5245 -0.2199
 3000poe     o214390   7.118   3.779   0.774  0.5168  0.3503 -0.1712
 3000poe    c2314391   7.023   3.780   0.670 -0.1669  0.2934  0.4493
 3000poe    c2314392   7.048   3.913   0.595 -0.4144  0.3322  0.4331
 3000poe     o214393   7.180   3.896   0.550 -0.5050 -0.1840  0.3555
 3000poe    c2314394   7.223   4.014   0.487  0.2724 -0.5665  0.1497
 3000poe    c2314395   7.362   3.983   0.427  0.0472 -0.8318 -0.2429
 3000poe     o214396   7.436   3.910   0.522  0.1686 -0.1637  0.1852
 3000poe    c2314397   7.574   3.936   0.506  0.1419 -0.2787 -0.2366
 3000poe    c2314398   7.653   3.839   0.595 -0.0011 -0.3229 -0.1577
 3000poe     o214399   7.639   3.852   0.735 -0.1817 -0.2284 -0.1842
 3000poe    c3114400   7.728   3.782   0.818 -0.2201  0.0082  0.0577
 3001poe    c3114401   5.679   1.547   3.214  0.0574 -0.2964  0.4150
 3001poe     o214402   5.804   1.509   3.266  0.2177 -0.3845 -0.0336
 3001poe    c2314403   5.800   1.483   3.405  0.1591 -0.5170 -0.0602
 3001poe    c2314404   5.937   1.481   3.476  0.2047 -0.5146 -0.1466
 3001poe     o214405   6.017   1.368   3.454  0.1048 -0.5341 -0.4156
 3001poe    c2314406   6.131   1.403   3.529 -0.7645  0.3398  0.5195
 3001poe    c2314407   6.185   1.277   3.598 -0.1244  0.1071 -0.3804
 3001poe     o214408   6.109   1.238   3.711 -0.2703  0.7245 -0.2613
 3001poe    c2314409   6.157   1.292   3.831  0.3893 -0.7137  0.1390
 3001poe    c2314410   6.116   1.212   3.957 -0.2272 -0.7469 -0.0797
 3001poe     o214411   5.982   1.247   3.980 -0.0234  0.2420 -0.3378
 3001poe    c3114412   5.971   1.232   4.119  0.0411  0.0250 -0.3550
 3002poe    c3114413   6.722   5.922   2.127 -0.2725 -0.1375  0.4185
 3002poe     o214414   6.651   5.979   2.235 -0.5921  0.4305 -0.0813
 3002poe    c2314415   6.703   6.103   2.278 -0.5566  0.5620 -0.4973
 3002poe    c2314416   6.673   6.121   2.428 -0.4241 -0.0836 -0.3885
 3002poe     o214417   6.537   6.101   2.459 -0.5325  0.4524 -0.5063
 3002poe    c2314418   6.477   6.224   2.495 -0.4739  0.1811  0.5526
 3002poe    c2314419   6.347   6.203   2.574 -0.4372 -0.4325  0.4533
 3002poe     o214420   6.249   6.158   2.482  0.2360 -0.6168 -0.1787
 3002poe    c2314421   6.122   6.159   2.542 -0.1155 -0.5662 -0.9113
 3002poe    c2314422   5.993   6.148   2.458 -0.4773 -0.1228 -0.4235
 3002poe     o214423   5.973   6.027   2.388  0.3048 -0.1584 -0.5952
 3002poe    c3114424   5.872   6.037   2.290 -0.5771 -0.2491  0.2954
 3003poe    c3114425   6.743   0.817   4.220  0.1422 -0.2108 -0.7113
 3003poe     o214426   6.611   0.844   4.261  0.2179 -0.2382 -0.4515
 3003poe    c2314427   6.535   0.930   4.180 -0.4188 -0.2303  0.1446
 3003poe    c2314428   6.385   0.908   4.207 -0.5841  0.1104 -0.4574
 3003poe     o214429   6.346   0.981   4.321  0.2949 -0.6765  0.3779
 3003poe    c2314430   6.210   0.959   4.353  0.1417 -0.6967 -0.2602
 3003poe    c2314431   6.163   1.046   4.471 -0.1249 -0.7434 -0.3329
 3003poe     o214432   6.191   0.985   4.594 -0.0301 -0.2263 -0.0941
 3003poe    c2314433   6.172   1.049   4.718 -0.0354 -0.6767  0.1419
 3003poe    c2314434   6.027   1.099   4.738  0.1724 -0.0190  0.0221
 3003poe     o214435   5.938   0.997   4.777 -0.1455  0.0720 -0.4516
 3003poe    c3114436   5.814   1.026   4.837 -0.1378 -0.2075 -0.3030
 3004poe    c3114437   3.855   4.283   1.609  0.5208 -0.2038 -0.2836
 3004poe     o214438   3.934   4.258   1.723  0.0901  0.5169  0.1821
 3004poe    c2314439   3.957   4.376   1.797  0.1798  0.5111  0.1644
 3004poe    c2314440   4.055   4.352   1.913  0.6703 -0.1049 -0.3697
 3004poe     o214441   4.013   4.264   2.015 -0.0286  0.3750 -0.2311
 3004poe    c2314442   4.111   4.272   2.116 -0.6872 -0.2594  0.4668
 3004poe    c2314443   4.057   4.198   2.240 -0.3160  0.0176  0.7954
 3004poe     o214444   4.029   4.063   2.211  0.2543  0.0658  0.0158
 3004poe    c2314445   3.961   4.012   2.322  0.1835 -0.0498 -0.0805
 3004poe    c2314446   3.913   3.867   2.301  0.1250 -0.1670  0.8021
 3004poe     o214447   3.794   3.869   2.225  0.5220 -0.3470  0.1626
 3004poe    c3114448   3.735   3.742   2.206 -0.0746 -0.0775  0.1824
 3005poe    c3114449   7.226   0.752   6.893  0.2317 -0.3668 -0.0054
 3005poe     o214450   7.142   0.666   6.969 -0.2189 -0.1090 -0.2071
 3005poe    c2314451   7.176   0.686   7.104  0.4178  0.1299 -0.3956
 3005poe    c2314452   7.180   0.540   7.153 -0.4514  0.2178 -0.0495
 3005poe     o214453   7.057   0.477   7.121 -0.1373 -0.0148 -0.8239
 3005poe    c2314454   7.047   0.340   7.152 -0.0186  0.0749 -0.3798
 3005poe    c2314455   6.908   0.282   7.121  0.1390 -0.2592 -0.4607
 3005poe     o214456   6.862   0.291   6.988 -0.0494  0.5035 -0.3440
 3005poe    c2314457   6.757   0.201   6.965  0.4090 -0.3470  0.7927
 3005poe    c2314458   6.621   0.256   7.011  0.1151  0.0653 -0.5081
 3005poe     o214459   6.614   0.238   7.151  0.2666 -0.5656 -0.5805
 3005poe    c3114460   6.492   0.286   7.203  0.4008  0.0272 -0.8046
 3006poe    c3114461   3.510   2.757   6.204 -0.2005 -0.4276 -0.7828
 3006poe     o214462   3.392   2.802   6.142 -0.1599  0.5102 -0.2062
 3006poe    c2314463   3.281   2.733   6.197 -0.0845 -0.0675 -0.7627
 3006poe    c2314464   3.140   2.779   6.155 -0.5352 -0.7465 -0.0124
 3006poe     o214465   3.098   2.881   6.243  0.6628 -0.3528  0.1248
 3006poe    c2314466   3.034   2.980   6.167 -0.8361 -0.7696  0.8031
 3006poe    c2314467   2.991   3.087   6.269  0.1092  0.1469  0.2677
 3006poe     o214468   3.083   3.187   6.304 -0.3383  0.6907 -0.0902
 3006poe    c2314469   3.025   3.305   6.357 -0.4014  0.3410  0.6332
 3006poe    c2314470   3.133   3.384   6.432  0.3424  0.0686 -0.1367
 3006poe     o214471   3.229   3.439   6.344  0.0314 -0.0997 -0.5825
 3006poe    c3114472   3.315   3.525   6.415 -0.7073  0.1124  0.0664
 3007poe    c3114473   0.380   5.002   3.519 -0.3014 -0.3198 -1.1705
 3007poe     o214474   0.272   5.078   3.567  0.3685 -0.0809 -0.0104
 3007poe    c2314475   0.182   5.000   3.642 -0.2040  0.3178 -0.2715
 3007poe    c2314476   0.042   5.062   3.657 -0.3767 -0.1441  0.0674
 3007poe     o214477   0.053   5.168   3.749  0.2716 -0.5076  0.4143
 3007poe    c2314478  -0.069   5.197   3.815  0.3962  0.3324  0.2837
 3007poe    c2314479  -0.058   5.290   3.937  0.1901  0.1335  0.4559
 3007poe     o214480  -0.048   5.429   3.913  0.2958  0.0827  0.1943
 3007poe    c2314481   0.017   5.488   4.024  0.5491 -0.6494  0.4414
 3007poe    c2314482   0.001   5.641   4.022 -0.1387 -0.7126  0.6452
 3007poe     o214483  -0.125   5.676   4.074 -0.2006  0.3969 -0.2120
 3007poe    c3114484  -0.152   5.813   4.055 -0.5079  0.3845  0.1293
 3008poe    c3114485   2.297   4.395   1.117 -0.2972  0.5452 -0.1797
 3008poe     o214486   2.176   4.434   1.057 -0.5324 -0.1939 -0.1828
 3008poe    c2314487   2.207   4.480   0.928 -0.1189 -0.1844 -0.0794
 3008poe    c2314488   2.154   4.400   0.807 -0.1288 -0.2247 -0.0488
 3008poe     o214489   2.014   4.383   0.802 -0.2121  0.4972 -0.3370
 3008poe    c2314490   1.986   4.296   0.695  0.3326 -0.4030  0.2354
 3008poe    c2314491   1.862   4.213   0.732 -0.0545  0.1935  0.2773
 3008poe     o214492   1.738   4.280   0.725 -0.0921  0.1143  0.1766
 3008poe    c2314493   1.634   4.196   0.771  0.0911 -0.2066  0.0058
 3008poe    c2314494   1.491   4.248   0.791  0.1006 -0.0906 -0.2268
 3008poe     o214495   1.487   4.340   0.898 -0.4777  0.0501 -0.3611
 3008poe    c3114496   1.364   4.402   0.925 -0.1242  0.7100 -0.2536
 3009poe    c3114497   2.111   6.931   0.681 -0.0055 -0.3098 -0.4067
 3009poe     o214498   2.002   6.944   0.592 -0.1362 -0.3614 -0.2553
 3009poe    c2314499   1.945   6.820   0.557  0.0121 -0.6100  0.3717
 3009poe    c2314500   1.815   6.850   0.480 -0.0597 -0.5861  0.5020
 3009poe     o214501   1.851   6.931   0.370 -0.3927 -0.2108  0.6664
 3009poe    c2314502   1.738   6.998   0.317  0.3516  0.2511 -0.3678
 3009poe    c2314503   1.778   7.053   0.179  0.1080  0.2893 -0.4220
 3009poe     o214504   1.901   7.121   0.186  0.4230 -0.2942 -0.1505
 3009poe    c2314505   1.948   7.204   0.082  0.4721  0.0126  0.1135
 3009poe    c2314506   1.884   7.344   0.075 -0.4953 -0.4340 -0.1165
 3009poe     o214507   1.951   7.426   0.167  0.0765 -0.2555 -0.6867
 3009poe    c3114508   1.896   7.556   0.160  0.5247  0.0424  0.8309
 3010poe    c3114509   1.416   4.622   4.069  0.1923  0.5388 -0.6812
 3010poe     o214510   1.553   4.592   4.089 -0.0921 -0.1440  0.3117
 3010poe    c2314511   1.626   4.668   3.995 -0.0135 -0.6544 -0.0438
 3010poe    c2314512   1.772   4.691   4.039 -0.1650 -0.0723  0.1643
 3010poe     o214513   1.837   4.569   4.067  0.1056 -0.0258 -0.2572
 3010poe    c2314514   1.967   4.598   4.114  0.2030  0.1707 -0.6395
 3010poe    c2314515   2.043   4.465   4.126 -0.4021 -0.1040  0.2486
 3010poe     o214516   2.011   4.397   4.006  0.1591 -0.2804  0.1942
 3010poe    c2314517   2.068   4.268   4.003  0.2145 -0.2743  0.7644
 3010poe    c2314518   2.066   4.234   3.852 -0.6134  0.5639  0.5735
 3010poe     o214519   1.940   4.211   3.794 -0.2339 -0.1968  0.0527
 3010poe    c3114520   1.953   4.184   3.656  0.3237  0.1227  0.0433
 3011poe    c3114521   3.131   0.947   3.979  0.3552 -0.8707 -0.6149
 3011poe     o214522   3.066   0.971   3.856  0.0921  0.1682 -0.2840
 3011poe    c2314523   3.159   1.014   3.760  0.2379  0.5838  0.0398
 3011poe    c2314524   3.072   1.056   3.640 -0.4800 -0.1074  0.3119
 3011poe     o214525   3.016   0.943   3.577 -0.5216 -0.3316  0.7470
 3011poe    c2314526   2.936   0.983   3.468 -0.1154 -0.3383  0.4425
 3011poe    c2314527   2.926   0.859   3.378  0.4158 -0.1613  0.1348
 3011poe     o214528   2.889   0.750   3.460 -0.0950  0.2071  0.3981
 3011poe    c2314529   2.866   0.632   3.387  0.8366  0.0294  0.3776
 3011poe    c2314530   2.791   0.541   3.486 -0.2794  0.5506  0.0328
 3011poe     o214531   2.872   0.552   3.601 -0.2491 -0.2005  0.0878
 3011poe    c3114532   2.821   0.489   3.716  0.1149 -0.4171  0.1315
 3012poe    c3114533   5.379   5.335   1.417  0.1461  0.5285  0.0722
 3012poe     o214534   5.398   5.459   1.480  0.3453  0.8195 -0.5639
 3012poe    c2314535   5.285   5.495   1.557 -0.1159  0.0854 -0.8926
 3012poe    c2314536   5.278   5.644   1.596  0.3114 -0.0547 -0.2571
 3012poe     o214537   5.240   5.734   1.494 -0.4897  0.0691  0.1377
 3012poe    c2314538   5.232   5.866   1.543 -0.2416  0.0387  0.2627
 3012poe    c2314539   5.180   5.960   1.432 -0.2831 -0.3919 -0.0865
 3012poe     o214540   5.239   5.905   1.317  0.1720 -0.0351 -0.0236
 3012poe    c2314541   5.204   5.981   1.203 -0.0970 -0.2558 -0.0874
 3012poe    c2314542   5.288   5.969   1.074  0.6615  0.0876  0.3698
 3012poe     o214543   5.301   5.843   1.013 -0.0456  0.1444  0.0963
 3012poe    c3114544   5.322   5.851   0.874 -0.2035 -0.4854  0.0311
 3013poe    c3114545   3.927   0.164   0.388  0.0247 -0.0232  0.0706
 3013poe     o214546   3.823   0.240   0.443  0.0684 -0.3322  0.5828
 3013poe    c2314547   3.866   0.293   0.567 -0.1735  0.5829  0.2858
 3013poe    c2314548   3.765   0.306   0.682 -0.0033 -0.2063  0.5311
 3013poe     o214549   3.732   0.186   0.749 -0.3857 -0.5674 -0.2757
 3013poe    c2314550   3.655   0.234   0.857  0.0843 -0.1948 -0.0969
 3013poe    c2314551   3.575   0.107   0.894 -0.5357  0.3300  0.3925
 3013poe     o214552   3.478   0.069   0.798  0.0785  0.2002 -0.1862
 3013poe    c2314553   3.440  -0.065   0.821 -0.1816  0.3583  0.3249
 3013poe    c2314554   3.293  -0.093   0.786 -0.0967 -0.2931  0.4791
 3013poe     o214555   3.188  -0.057   0.873  0.0372  0.4125  0.3492
 3013poe    c3114556   3.085  -0.149   0.849  0.8212 -0.3130 -0.2684
 3014poe    c3114557   6.578   5.396   7.084 -0.0671  0.5378 -0.1576
 3014poe     o214558   6.619   5.266   7.048  0.2055  0.5461  0.1202
 3014poe    c2314559   6.740   5.265   6.974  0.2825 -0.1779  0.2519
 3014poe    c2314560   6.819   5.134   6.984  0.2149 -0.2425 -0.0448
 3014poe     o214561   6.737   5.027   6.942 -0.3315  0.1609 -0.0158
 3014poe    c2314562   6.828   4.919   6.945 -0.0321  0.3988 -0.3506
 3014poe    c2314563   6.749   4.788   6.928 -0.2488  0.4157  0.4933
 3014poe     o214564   6.715   4.767   6.793  0.2563 -0.0788  0.4391
 3014poe    c2314565   6.607   4.682   6.764  0.0423  0.3695 -0.1161
 3014poe    c2314566   6.582   4.716   6.616  0.6085 -0.0650 -0.3151
 3014poe     o214567   6.547   4.850   6.590  0.1303 -0.0755  0.2543
 3014poe    c3114568   6.543   4.868   6.451 -0.9571 -0.1345  0.2706
 3015poe    c3114569   2.545   2.981   2.494 -0.2702  0.1113  0.3143
 3015poe     o214570   2.506   2.961   2.360 -1.0261  0.4717  0.4783
 3015poe    c2314571   2.614   2.969   2.270 -0.9507 -0.3990  0.4781
 3015poe    c2314572   2.686   2.835   2.247  0.1551  0.2003  0.3531
 3015poe     o214573   2.610   2.747   2.168  0.8847  0.1168 -0.2631
 3015poe    c2314574   2.680   2.625   2.167  0.4910 -0.1129 -0.2061
 3015poe    c2314575   2.565   2.522   2.161  0.6699 -0.3303  0.0667
 3015poe     o214576   2.492   2.516   2.040  0.1973  0.3377  0.3131
 3015poe    c2314577   2.394   2.415   2.051  0.5538 -0.0057  0.3576
 3015poe    c2314578   2.256   2.435   2.114  0.0266  0.1557 -0.8175
 3015poe     o214579   2.186   2.549   2.069 -0.2789  0.4165  0.2797
 3015poe    c3114580   2.058   2.551   2.129 -0.3710  0.4956  0.0812
 3016poe    c3114581   2.468   1.738   3.090  0.0873 -0.7929 -0.1822
 3016poe     o214582   2.488   1.750   3.229 -0.3668 -0.3671 -0.1500
 3016poe    c2314583   2.420   1.658   3.310 -0.1781 -0.5222 -0.1678
 3016poe    c2314584   2.266   1.663   3.321 -0.1170  0.1020  0.4576
 3016poe     o214585   2.200   1.637   3.199  0.2285  0.0263  0.2830
 3016poe    c2314586   2.060   1.635   3.220  0.1117 -0.5551 -0.5073
 3016poe    c2314587   1.976   1.706   3.112  0.0817  0.5416  0.2195
 3016poe     o214588   1.982   1.847   3.118 -0.0747  0.5649 -0.1692
 3016poe    c2314589   2.095   1.901   3.053  0.2859  0.1996  0.1494
 3016poe    c2314590   2.066   2.052   3.056  0.2376  0.1921  0.0326
 3016poe     o214591   1.932   2.081   3.021  0.0154 -0.0863  0.6455
 3016poe    c3114592   1.910   2.219   3.001 -0.2663 -0.3252 -0.7361
 3017poe    c3114593   3.640   4.718   5.816 -0.3952 -0.2882 -0.2267
 3017poe     o214594   3.559   4.669   5.920  0.2019 -0.3603  0.2149
 3017poe    c2314595   3.434   4.616   5.882  0.2725 -0.2208 -0.2200
 3017poe    c2314596   3.421   4.503   5.778 -0.1256 -0.1631 -0.2367
 3017poe     o214597   3.465   4.380   5.832  0.0382  0.0208  0.0587
 3017poe    c2314598   3.394   4.282   5.759 -0.5820  0.4256  0.1069
 3017poe    c2314599   3.417   4.158   5.848  0.3322  0.6206  0.1486
 3017poe     o214600   3.553   4.149   5.884  0.4707  0.2998 -0.4423
 3017poe    c2314601   3.585   4.025   5.943 -0.0251  0.0279 -0.7383
 3017poe    c2314602   3.727   4.034   6.002 -0.1728 -0.0753 -0.3603
 3017poe     o214603   3.738   4.161   6.062 -0.0613 -0.2884  0.0703
 3017poe    c3114604   3.842   4.161   6.157 -0.1807 -0.0358  0.2016
 3018poe    c3114605   0.636   0.269   1.720  0.1055 -0.3953  0.0343
 3018poe     o214606   0.725   0.314   1.620  0.0521 -0.2121  0.0679
 3018poe    c2314607   0.679   0.418   1.537 -0.1487 -0.0790  0.3451
 3018poe    c2314608   0.802   0.493   1.485 -0.7899  0.6799 -0.0907
 3018poe     o214609   0.878   0.546   1.592  0.2485 -0.4713 -0.2408
 3018poe    c2314610   0.959   0.643   1.530 -0.0594 -0.1626 -0.1628
 3018poe    c2314611   1.042   0.715   1.639 -0.3738  0.0136 -0.0386
 3018poe     o214612   1.106   0.608   1.704 -0.2831  0.1068  0.0246
 3018poe    c2314613   1.210   0.647   1.792  0.0888 -0.2953 -0.2305
 3018poe    c2314614   1.255   0.521   1.870  0.0691 -0.0682  0.1500
 3018poe     o214615   1.135   0.463   1.917  0.0680 -0.4014 -0.2594
 3018poe    c3114616   1.158   0.423   2.050 -0.0141 -0.1563 -0.1706
 3019poe    c3114617   3.865   4.384   4.383  0.3913  0.4974 -0.0168
 3019poe     o214618   3.812   4.413   4.256 -0.1851 -0.1224  0.0784
 3019poe    c2314619   3.707   4.324   4.226 -0.1834 -0.1140  0.0477
 3019poe    c2314620   3.656   4.355   4.084  0.3685  0.0014 -0.1281
 3019poe     o214621   3.533   4.423   4.074  0.0814 -0.3778  0.7692
 3019poe    c2314622   3.428   4.330   4.092 -0.3870  0.0694  0.3949
 3019poe    c2314623   3.293   4.400   4.068 -0.1018  0.2491 -0.7210
 3019poe     o214624   3.268   4.498   4.166  0.4566 -0.3110 -0.0035
 3019poe    c2314625   3.142   4.558   4.147  0.3634 -0.4950  0.0442
 3019poe    c2314626   3.017   4.490   4.207  0.5266 -0.2783  0.6358
 3019poe     o214627   3.007   4.351   4.184 -0.0643 -0.0735 -0.4289
 3019poe    c3114628   2.873   4.325   4.149 -0.3377  0.0179  0.5233
 3020poe    c3114629   4.324   5.302   2.995 -0.0281 -0.1896 -0.4496
 3020poe     o214630   4.444   5.250   3.047  0.0078 -0.0355 -0.3799
 3020poe    c2314631   4.418   5.212   3.180  0.2880 -0.2113 -0.3735
 3020poe    c2314632   4.536   5.261   3.265 -0.1967  0.1341  0.1096
 3020poe     o214633   4.656   5.225   3.200 -0.0486  0.1252  0.3881
 3020poe    c2314634   4.775   5.250   3.272  0.4483  0.0799 -0.4072
 3020poe    c2314635   4.887   5.179   3.194  1.0290  0.3780  0.1489
 3020poe     o214636   4.866   5.215   3.059 -0.1003  0.4366  0.3312
 3020poe    c2314637   4.893   5.105   2.976 -0.5355  0.5902 -0.0177
 3020poe    c2314638   4.787   5.098   2.865 -0.2875  0.5088 -0.2507
 3020poe     o214639   4.659   5.129   2.916 -0.0280  0.3320  0.5164
 3020poe    c3114640   4.577   5.071   2.817  0.0107  0.3407  0.4796
 3021poe    c3114641   5.662   2.880   0.797  0.1541  0.3420 -0.5274
 3021poe     o214642   5.741   2.811   0.703  0.0643 -0.4010 -0.0669
 3021poe    c2314643   5.842   2.896   0.654 -0.2157  0.1497  0.3105
 3021poe    c2314644   5.926   2.819   0.551 -0.6877  0.0182  0.0185
 3021poe     o214645   5.859   2.804   0.428 -0.0058 -0.0034 -0.3539
 3021poe    c2314646   5.954   2.739   0.346 -0.0001 -0.0799 -0.2864
 3021poe    c2314647   5.926   2.729   0.195 -0.0452 -0.1828 -0.2717
 3021poe     o214648   5.792   2.693   0.172  0.1336 -0.9467 -0.1406
 3021poe    c2314649   5.776   2.682   0.032 -0.2024  0.1458 -0.1993
 3021poe    c2314650   5.626   2.698   0.001 -0.2147  0.0392 -0.1946
 3021poe     o214651   5.549   2.776   0.090 -0.2127 -0.2227  0.0420
 3021poe    c3114652   5.440   2.832   0.019  0.1003 -0.0150 -0.2785
 3022poe    c3114653   2.800   2.189   1.011  0.2025  0.4078 -0.3764
 3022poe     o214654   2.712   2.094   0.955  0.3705 -0.1223  0.2498
 3022poe    c2314655   2.642   2.140   0.842  0.2486 -0.6588  0.1034
 3022poe    c2314656   2.538   2.036   0.796 -0.1205 -0.2671  0.0476
 3022poe     o214657   2.588   1.906   0.771  0.1308 -0.1000 -0.3334
 3022poe    c2314658   2.481   1.817   0.794  0.2755 -0.0452  0.5987
 3022poe    c2314659   2.523   1.670   0.806 -0.2733 -0.2590 -0.0130
 3022poe     o214660   2.605   1.647   0.919  0.0506  0.2567 -0.1390
 3022poe    c2314661   2.623   1.510   0.948 -0.1517  0.2615  0.0123
 3022poe    c2314662   2.677   1.483   1.090 -0.0801 -0.2953 -0.1190
 3022poe     o214663   2.587   1.480   1.198 -0.5143 -0.2913 -0.4756
 3022poe    c3114664   2.642   1.490   1.328 -0.2501  0.6598 -0.6534
 3023poe    c3114665   4.473   7.066   1.458 -0.2640  0.1394 -0.3036
 3023poe     o214666   4.556   7.174   1.423  0.2170 -0.2015 -0.2302
 3023poe    c2314667   4.529   7.216   1.291 -0.3094  0.0291 -0.0528
 3023poe    c2314668   4.625   7.333   1.263  0.1688 -0.2439  0.4221
 3023poe     o214669   4.622   7.419   1.375 -0.0576  0.0767  0.1714
 3023poe    c2314670   4.695   7.539   1.360 -0.3803  0.2530  0.0088
 3023poe    c2314671   4.702   7.626   1.487 -0.5696 -0.1868  0.3225
 3023poe     o214672   4.755   7.554   1.596  0.2781 -0.1954 -0.0871
 3023poe    c2314673   4.735   7.624   1.717  0.5430  0.1859 -0.2619
 3023poe    c2314674   4.756   7.542   1.845  0.1667 -0.7784 -0.8063
 3023poe     o214675   4.662   7.437   1.856 -0.5065 -0.1015  0.0530
 3023poe    c3114676   4.702   7.345   1.955 -0.0818 -0.4347 -0.4242
 3024poe    c3114677   3.812   5.971   1.803  0.1228 -0.8064  0.2000
 3024poe     o214678   3.834   6.104   1.846  0.1204 -0.5740 -0.5101
 3024poe    c2314679   3.968   6.109   1.889  0.0070 -0.2206 -0.1979
 3024poe    c2314680   4.016   6.256   1.891 -0.1421 -0.1757  0.5007
 3024poe     o214681   4.015   6.306   1.759 -0.2506  0.2904  0.6801
 3024poe    c2314682   4.070   6.436   1.765  0.6119 -0.0435  0.1693
 3024poe    c2314683   4.070   6.502   1.626 -0.1220 -0.5347 -0.0696
 3024poe     o214684   3.945   6.474   1.567 -0.2669  0.0970 -0.0647
 3024poe    c2314685   3.921   6.578   1.475 -0.0489  0.5643  0.3979
 3024poe    c2314686   3.783   6.552   1.413  0.2128 -0.2445  0.1358
 3024poe     o214687   3.779   6.465   1.302  0.2810 -0.2678  0.1521
 3024poe    c3114688   3.647   6.450   1.257  0.1394  0.3054  0.3602
 3025poe    c3114689   2.348   4.198   5.079 -0.1712  0.0984 -0.4672
 3025poe     o214690   2.400   4.190   4.949  0.6428 -0.0023 -0.1452
 3025poe    c2314691   2.352   4.072   4.889 -0.0041 -0.0886  0.5246
 3025poe    c2314692   2.396   4.075   4.741  0.1646 -0.0728  0.5747
 3025poe     o214693   2.534   4.098   4.727  0.2853 -1.0166  0.1267
 3025poe    c2314694   2.582   4.092   4.595 -0.1392 -0.3216 -0.0638
 3025poe    c2314695   2.733   4.112   4.570 -0.2575  0.5213 -0.1539
 3025poe     o214696   2.748   4.244   4.617  0.3583  0.3490  0.1450
 3025poe    c2314697   2.863   4.303   4.561  0.3720 -0.0100 -0.2079
 3025poe    c2314698   2.853   4.450   4.603  0.2718 -0.1526  0.2727
 3025poe     o214699   2.815   4.446   4.739  0.1400 -0.0909  0.2385
 3025poe    c3114700   2.797   4.577   4.786  0.2901 -0.0404  0.1583
 3026poe    c3114701   5.658   7.041   2.202 -0.0683  0.0944 -0.4358
 3026poe     o214702   5.702   7.106   2.319 -0.1703 -0.2920 -0.1816
 3026poe    c2314703   5.808   7.028   2.367  0.2249  0.4103  0.1093
 3026poe    c2314704   5.864   7.086   2.498  0.3320 -0.3131  0.3902
 3026poe     o214705   5.755   7.088   2.588 -0.0141  0.4794 -0.0364
 3026poe    c2314706   5.803   7.100   2.720  0.0832 -0.8356  0.0628
 3026poe    c2314707   5.693   7.150   2.815 -0.1050 -0.5552 -0.3002
 3026poe     o214708   5.630   7.267   2.770 -0.1270 -0.5415 -0.2341
 3026poe    c2314709   5.566   7.354   2.862 -0.3003 -0.3873 -0.4960
 3026poe    c2314710   5.437   7.304   2.928  0.0172 -0.5075  0.0419
 3026poe     o214711   5.334   7.267   2.838  0.0006  0.0356 -0.1662
 3026poe    c3114712   5.238   7.181   2.895 -0.2583  0.4844  0.0728
 3027poe    c3114713   5.107   3.305   2.482 -0.3344 -0.0990 -0.0791
 3027poe     o214714   5.090   3.413   2.393  0.2579  0.4731  0.4956
 3027poe    c2314715   5.082   3.365   2.261 -0.2236  0.4726  0.5262
 3027poe    c2314716   5.049   3.485   2.170  0.8586  0.2356 -0.1986
 3027poe     o214717   5.115   3.600   2.218 -0.0552  0.5084  0.4385
 3027poe    c2314718   5.128   3.683   2.104 -0.3379 -0.0171  0.0207
 3027poe    c2314719   5.256   3.767   2.113  0.1297 -0.7725  0.6056
 3027poe     o214720   5.239   3.869   2.209 -0.5825 -0.3223  0.0158
 3027poe    c2314721   5.353   3.896   2.287 -0.8181  0.5138  0.0755
 3027poe    c2314722   5.340   3.997   2.403  0.0312  0.1912  0.4625
 3027poe     o214723   5.264   3.943   2.509 -0.0384 -0.2300  0.2008
 3027poe    c3114724   5.209   4.052   2.579  0.3706  0.4296 -0.4880
 3028poe    c3114725   6.229   2.230   6.836 -0.4739  0.1812 -0.0016
 3028poe     o214726   6.262   2.329   6.932 -0.2128  0.0971 -0.0053
 3028poe    c2314727   6.256   2.279   7.063  0.8135 -0.2945 -0.0956
 3028poe    c2314728   6.309   2.375   7.171 -0.2277  0.1793  0.0044
 3028poe     o214729   6.447   2.402   7.174  0.0125 -1.0510  0.3435
 3028poe    c2314730   6.479   2.415   7.311  0.1402  0.2519  0.2028
 3028poe    c2314731   6.625   2.431   7.359  0.1963 -0.5020  0.3071
 3028poe     o214732   6.713   2.331   7.314  0.1390 -0.4244  0.0234
 3028poe    c2314733   6.849   2.366   7.318  0.0739 -0.1785  0.1548
 3028poe    c2314734   6.931   2.300   7.205  0.5061  0.1794  0.2576
 3028poe     o214735   6.890   2.341   7.076  0.7682  0.3164  0.2170
 3028poe    c3114736   6.948   2.272   6.968  0.1156 -0.1907  0.1803
 3029poe    c3114737   3.272   2.501   5.886 -0.2238  0.2534 -0.2586
 3029poe     o214738   3.223   2.431   5.773 -0.4976  0.1950 -0.1047
 3029poe    c2314739   3.222   2.499   5.650 -0.0920  0.2546 -0.0762
 3029poe    c2314740   3.175   2.397   5.545  0.0785  0.1587 -0.0594
 3029poe     o214741   3.068   2.319   5.595  0.3823  0.2098  0.6858
 3029poe    c2314742   2.997   2.253   5.493  0.3158  0.4136  0.6011
 3029poe    c2314743   2.880   2.170   5.548  0.1908  0.0866 -0.1382
 3029poe     o214744   2.917   2.054   5.619 -0.1758 -0.4103 -0.7505
 3029poe    c2314745   2.812   1.972   5.666  0.2735 -0.3449  0.4081
 3029poe    c2314746   2.764   1.857   5.576  0.1343  0.1813 -0.1967
 3029poe     o214747   2.852   1.748   5.560  0.0424  0.0994 -0.1474
 3029poe    c3114748   2.771   1.659   5.487  0.0644  0.1648 -0.2503
 3030poe    c3114749   0.946   4.365   4.821  0.3826  0.6642 -0.1300
 3030poe     o214750   1.071   4.369   4.756  0.2513 -0.6109 -0.4867
 3030poe    c2314751   1.101   4.506   4.742  0.1949 -0.6704 -1.2249
 3030poe    c2314752   1.247   4.540   4.706  0.2400  0.6050  0.0813
 3030poe     o214753   1.344   4.514   4.804 -0.1676  0.0885  0.3540
 3030poe    c2314754   1.460   4.591   4.783  0.0523 -0.4269 -0.3341
 3030poe    c2314755   1.580   4.517   4.846 -0.1117 -0.1343  0.3268
 3030poe     o214756   1.611   4.408   4.762  0.7277  0.5815 -0.3099
 3030poe    c2314757   1.711   4.329   4.821  0.0255 -0.2059 -0.1609
 3030poe    c2314758   1.749   4.193   4.758  0.3290 -0.4152  0.4620
 3030poe     o214759   1.632   4.116   4.743 -0.0258  0.1939  0.0406
 3030poe    c3114760   1.659   3.995   4.676  0.1893  0.1337  0.2374
 3031poe    c3114761   1.717   6.992   3.705 -0.2884  0.3347 -0.1601
 3031poe     o214762   1.680   7.054   3.826  0.0276  0.2071  0.0040
 3031poe    c2314763   1.745   7.179   3.835 -0.6464  0.5312  0.4596
 3031poe    c2314764   1.834   7.204   3.958  0.2764  0.3088 -0.1563
 3031poe     o214765   1.775   7.206   4.085  0.1903  0.2329 -0.1950
 3031poe    c2314766   1.856   7.191   4.200 -0.5553  0.2064  0.3392
 3031poe    c2314767   1.927   7.057   4.223  0.0687  0.4460 -0.1574
 3031poe     o214768   2.026   7.020   4.129  0.3501  0.1883  0.2356
 3031poe    c2314769   2.082   6.896   4.164  0.2567  0.1293  0.1764
 3031poe    c2314770   2.212   6.892   4.082  0.2164  0.1267  0.1134
 3031poe     o214771   2.324   6.969   4.122 -0.1359  0.3174  0.7366
 3031poe    c3114772   2.441   6.892   4.127  0.0322  0.4939 -0.2522
 3032poe    c3114773   2.225   4.009   2.179 -0.1951  0.6648  0.1457
 3032poe     o214774   2.152   3.970   2.064 -0.0827 -0.1066  0.3290
 3032poe    c2314775   2.016   3.998   2.089 -0.1251  0.2921 -0.3170
 3032poe    c2314776   1.927   3.999   1.963 -0.5053 -0.1205 -0.0542
 3032poe     o214777   1.913   3.864   1.925  0.4242 -0.3191  0.2834
 3032poe    c2314778   1.913   3.855   1.784  0.2972  0.2802  0.2422
 3032poe    c2314779   1.894   3.704   1.755  0.1538  0.2128  0.6815
 3032poe     o214780   2.017   3.635   1.751 -0.2117 -0.3885 -0.5482
 3032poe    c2314781   1.984   3.499   1.738 -0.1703 -0.4752  0.2103
 3032poe    c2314782   2.111   3.419   1.770  0.5159  0.2331 -0.6866
 3032poe     o214783   2.167   3.442   1.898 -0.1563 -0.4750 -0.2481
 3032poe    c3114784   2.304   3.407   1.898 -0.0473 -0.0572 -0.4302
 3033poe    c3114785   4.987   2.292   0.311 -0.3816  0.2830  0.1554
 3033poe     o214786   4.973   2.214   0.195 -0.2996 -0.0466  0.3669
 3033poe    c2314787   4.917   2.287   0.089  0.1259 -0.2063  0.0305
 3033poe    c2314788   4.909   2.194  -0.034 -0.0094  0.3607 -0.3919
 3033poe     o214789   5.045   2.159  -0.038 -0.0216  0.2746 -0.0625
 3033poe    c2314790   5.068   2.093  -0.161  0.1975  0.8655 -0.3425
 3033poe    c2314791   5.221   2.092  -0.185  0.3507  0.3673  0.5975
 3033poe     o214792   5.278   2.019  -0.079  0.1883 -0.7109 -0.0461
 3033poe    c2314793   5.417   2.046  -0.074  0.0349  0.1034 -0.0343
 3033poe    c2314794   5.487   1.949   0.023 -0.5270  0.1147  0.3920
 3033poe     o214795   5.466   1.816  -0.019 -0.5196  0.1093  0.4050
 3033poe    c3114796   5.500   1.735   0.091 -0.2142 -0.0646  0.1848
 3034poe    c3114797   1.844   6.413   1.733 -0.0072  0.2169 -0.7246
 3034poe     o214798   1.704   6.428   1.750  0.2379  0.3670  1.5131
 3034poe    c2314799   1.636   6.307   1.773  0.1065  0.1534  0.1319
 3034poe    c2314800   1.482   6.309   1.759  0.1042 -0.2692  0.0747
 3034poe     o214801   1.425   6.416   1.831  0.1037 -0.3345  0.1710
 3034poe    c2314802   1.294   6.439   1.783  0.4589 -0.3534 -0.8215
 3034poe    c2314803   1.254   6.580   1.830  0.8756 -0.5312  0.0851
 3034poe     o214804   1.287   6.599   1.966  0.1887 -0.4069  0.2371
 3034poe    c2314805   1.233   6.718   2.019 -0.7700 -0.7248  0.0044
 3034poe    c2314806   1.314   6.745   2.147 -0.5627 -0.5022 -0.1729
 3034poe     o214807   1.450   6.713   2.127 -0.3746 -0.0142  0.2902
 3034poe    c3114808   1.523   6.749   2.242 -0.3720 -0.3544  0.3980
 3035poe    c3114809   1.733   5.788   0.449  0.1298 -0.2766 -0.5022
 3035poe     o214810   1.623   5.725   0.510  0.2234  0.1279  0.1016
 3035poe    c2314811   1.558   5.804   0.606  0.0672  0.1019  0.0182
 3035poe    c2314812   1.460   5.912   0.556 -0.1801 -0.0684  0.1327
 3035poe     o214813   1.341   5.861   0.500 -0.1009  0.3230 -0.3974
 3035poe    c2314814   1.247   5.964   0.522 -0.5801 -0.2004  0.0422
 3035poe    c2314815   1.108   5.924   0.468 -0.4853 -0.0205 -0.3384
 3035poe     o214816   1.061   5.802   0.519 -0.3191  0.0333 -0.0499
 3035poe    c2314817   0.947   5.778   0.439 -0.3549 -0.1391  0.0525
 3035poe    c2314818   0.878   5.642   0.461 -0.2852 -0.2135 -0.1841
 3035poe     o214819   0.802   5.645   0.580 -0.1570 -0.1494 -0.1029
 3035poe    c3114820   0.835   5.541   0.670 -0.4853 -0.4023 -0.2709
 3036poe    c3114821   5.317   4.459   1.426 -0.0057  0.0410 -0.1068
 3036poe     o214822   5.201   4.384   1.397  0.0650 -0.0360 -0.1947
 3036poe    c2314823   5.101   4.481   1.374  0.3273  0.2404 -0.1767
 3036poe    c2314824   4.969   4.418   1.326  0.4536  0.1557 -0.4166
 3036poe     o214825   4.922   4.319   1.415  0.4231  0.1594 -0.4285
 3036poe    c2314826   4.787   4.280   1.409  0.5159 -0.3121  0.3137
 3036poe    c2314827   4.790   4.128   1.432 -0.2120 -0.3305  0.3016
 3036poe     o214828   4.859   4.114   1.554  0.3240 -0.4548 -0.0148
 3036poe    c2314829   4.844   3.983   1.602  0.4146 -0.5274 -0.1804
 3036poe    c2314830   4.951   3.887   1.546  0.0672 -1.0792  0.0816
 3036poe     o214831   5.073   3.904   1.616  0.1876 -0.1335 -0.3434
 3036poe    c3114832   5.119   3.786   1.677 -0.1540 -0.0230  0.1305
 3037poe    c3114833   2.939   2.494   2.822 -0.2833  0.1501 -0.1646
 3037poe     o214834   2.960   2.562   2.943 -0.0862  0.0854 -0.1615
 3037poe    c2314835   2.843   2.595   3.015  0.0605  0.4326 -0.0761
 3037poe    c2314836   2.876   2.591   3.165 -0.1292 -0.6475 -0.0540
 3037poe     o214837   3.003   2.647   3.188 -0.2202 -0.4475 -0.0375
 3037poe    c2314838   3.030   2.660   3.326 -0.2279  0.2598 -0.0981
 3037poe    c2314839   3.178   2.698   3.344 -0.1325  0.0594 -0.4551
 3037poe     o214840   3.248   2.690   3.221  0.6383  0.1600 -0.0268
 3037poe    c2314841   3.365   2.765   3.247  0.5751  0.2607 -0.0304
 3037poe    c2314842   3.467   2.763   3.132  0.4636  0.0190 -0.1261
 3037poe     o214843   3.568   2.857   3.162  0.0739  0.4636 -0.2143
 3037poe    c3114844   3.672   2.835   3.069 -0.5137 -0.5817 -0.6509
 3038poe    c3114845   1.956   5.352   4.552  0.2218 -0.2216  0.2609
 3038poe     o214846   1.835   5.423   4.538 -0.0694 -0.7438  0.0800
 3038poe    c2314847   1.774   5.420   4.411  0.8885  0.6224 -0.4383
 3038poe    c2314848   1.707   5.555   4.378  0.2821  0.5961  0.6279
 3038poe     o214849   1.590   5.580   4.451  0.0219 -0.4398  0.5817
 3038poe    c2314850   1.470   5.514   4.417 -0.1257  0.0502  0.1275
 3038poe    c2314851   1.339   5.560   4.482 -0.2030  0.2113 -0.1419
 3038poe     o214852   1.301   5.694   4.456  0.8101  0.4792 -0.2905
 3038poe    c2314853   1.210   5.733   4.556  0.0858 -0.1406 -0.6840
 3038poe    c2314854   1.233   5.883   4.584  0.1650 -0.2863  0.0788
 3038poe     o214855   1.361   5.906   4.639  0.3593  0.2037 -0.5590
 3038poe    c3114856   1.352   6.030   4.706 -0.2430 -0.1665  0.0551
 3039poe    c3114857   6.086   6.910   0.666 -0.3354  0.1915  0.1112
 3039poe     o214858   6.199   6.901   0.751 -0.0196  0.3530 -0.2879
 3039poe    c2314859   6.308   6.955   0.680  0.1410  0.0255 -0.2896
 3039poe    c2314860   6.442   6.920   0.748 -0.0674 -0.0189  0.1005
 3039poe     o214861   6.476   6.991   0.865 -0.0499 -0.1415  0.1697
 3039poe    c2314862   6.560   7.101   0.839 -0.3896  0.0790 -0.0006
 3039poe    c2314863   6.634   7.150   0.964  0.1951  0.0608 -0.3339
 3039poe     o214864   6.732   7.056   1.003 -0.3098 -0.2846  0.1146
 3039poe    c2314865   6.814   7.098   1.110  0.1126 -0.2183 -0.2306
 3039poe    c2314866   6.918   7.202   1.065  0.2925  0.0688  0.8093
 3039poe     o214867   6.858   7.329   1.054 -0.2338 -0.2800 -0.6594
 3039poe    c3114868   6.949   7.412   0.985 -0.4543  0.3732 -0.1739
 3040poe    c3114869   5.363   2.575   6.006  0.1553 -0.2749 -0.2979
 3040poe     o214870   5.440   2.691   5.987  0.0228 -0.1131  0.1482
 3040poe    c2314871   5.411   2.727   5.854 -0.0321  0.2507  0.2570
 3040poe    c2314872   5.460   2.867   5.812  0.3848 -0.0658 -0.3312
 3040poe     o214873   5.441   2.965   5.912  0.0767 -0.3435 -0.1166
 3040poe    c2314874   5.476   3.093   5.865  0.1301 -0.1782  0.3681
 3040poe    c2314875   5.417   3.193   5.967  0.6178 -0.0177  0.4953
 3040poe     o214876   5.482   3.191   6.092  0.6069 -0.4029  0.4964
 3040poe    c2314877   5.420   3.292   6.169  0.1627  0.1337 -0.5369
 3040poe    c2314878   5.508   3.347   6.283 -0.1015  0.6412 -0.5783
 3040poe     o214879   5.619   3.410   6.224  0.7429  0.1219  0.4270
 3040poe    c3114880   5.693   3.470   6.329 -0.1389  0.4713  0.8649
 3041poe    c3114881   0.378   5.236   3.956 -0.0191  0.2830 -0.0828
 3041poe     o214882   0.461   5.263   3.845 -0.0521 -0.7394 -0.3688
 3041poe    c2314883   0.576   5.332   3.887 -0.5018 -0.1133 -0.1448
 3041poe    c2314884   0.710   5.261   3.913 -0.6745 -0.3537  0.1006
 3041poe     o214885   0.726   5.166   4.016  0.2066  0.0215  0.3197
 3041poe    c2314886   0.665   5.041   3.994  0.3273 -0.0476  0.3786
 3041poe    c2314887   0.726   4.945   4.098  0.2504 -0.3196  0.1742
 3041poe     o214888   0.722   5.003   4.227 -0.2562 -0.0719  0.0524
 3041poe    c2314889   0.775   4.920   4.328  0.4918  0.2435 -0.0774
 3041poe    c2314890   0.771   5.000   4.460  0.1747 -0.1210  0.1344
 3041poe     o214891   0.794   5.136   4.430 -1.2752  0.1315  0.0913
 3041poe    c3114892   0.833   5.206   4.546  0.2455  0.0627 -0.3596
 3042poe    c3114893   5.522   2.522   1.299  0.0689 -0.0860 -0.0389
 3042poe     o214894   5.397   2.459   1.313  0.0055 -0.0288 -0.3435
 3042poe    c2314895   5.354   2.380   1.204  0.0030 -0.4163 -0.0596
 3042poe    c2314896   5.257   2.275   1.262 -0.0545 -0.4326 -0.1876
 3042poe     o214897   5.195   2.323   1.379  0.3123 -0.2014 -0.0866
 3042poe    c2314898   5.081   2.250   1.418  0.0762  0.3267  0.2214
 3042poe    c2314899   4.966   2.346   1.455  0.0178  0.3687 -0.0688
 3042poe     o214900   4.999   2.400   1.581  0.1002  0.1561  0.0011
 3042poe    c2314901   4.917   2.504   1.628 -0.3417 -0.4056  0.4925
 3042poe    c2314902   4.960   2.579   1.756  0.0084  0.3844 -0.0722
 3042poe     o214903   5.080   2.641   1.717  0.2682 -0.0473  0.0242
 3042poe    c3114904   5.122   2.724   1.823 -0.1407 -0.1781  0.2915
 3043poe    c3114905   0.577   6.456   2.549  0.1648  0.3267 -0.5718
 3043poe     o214906   0.473   6.402   2.471  0.2071 -0.5801 -0.0125
 3043poe    c2314907   0.522   6.288   2.404 -0.1458 -0.4845 -0.4333
 3043poe    c2314908   0.417   6.225   2.309 -0.8755 -0.0664  0.0864
 3043poe     o214909   0.401   6.310   2.198 -0.0870  0.0346  0.0453
 3043poe    c2314910   0.313   6.259   2.101  0.0876  0.3824 -0.3005
 3043poe    c2314911   0.263   6.373   2.011  0.1102  0.3716 -0.3271
 3043poe     o214912   0.194   6.462   2.095 -0.4246 -0.0949 -0.2681
 3043poe    c2314913   0.079   6.516   2.033 -0.5775 -0.4661 -0.3065
 3043poe    c2314914   0.005   6.639   2.089 -0.2424 -0.3855 -0.0426
 3043poe     o214915   0.084   6.754   2.071 -0.0425 -0.4974  0.1157
 3043poe    c3114916   0.005   6.871   2.077 -0.1093 -0.5348 -0.0291
 3044poe    c3114917   1.908   4.105   6.018 -0.1222 -0.2757 -0.1203
 3044poe     o214918   1.923   4.018   6.129 -0.1773 -0.0046  0.1003
 3044poe    c2314919   1.845   4.075   6.232  0.1496  0.0818  0.2977
 3044poe    c2314920   1.867   3.989   6.358 -0.6044  0.2554  0.5518
 3044poe     o214921   1.990   4.016   6.422  0.0654 -0.1056 -0.5554
 3044poe    c2314922   2.027   3.898   6.490 -0.1909  0.3945  0.4733
 3044poe    c2314923   2.178   3.918   6.507 -0.0898  0.2277 -0.2129
 3044poe     o214924   2.213   4.035   6.577 -0.0175  0.0684  0.0214
 3044poe    c2314925   2.351   4.063   6.576 -0.0383  0.1650 -0.1761
 3044poe    c2314926   2.388   4.188   6.658 -0.2023 -0.3220  0.6577
 3044poe     o214927   2.287   4.284   6.635 -0.1313 -0.3703  0.1351
 3044poe    c3114928   2.288   4.388   6.730 -0.5274 -0.0139 -0.2466
 3045poe    c3114929   6.932   3.299   7.146 -0.6357 -0.3780 -0.2518
 3045poe     o214930   6.894   3.373   7.032  0.1744  0.2340 -0.1310
 3045poe    c2314931   6.959   3.498   7.024  0.5018  0.0850  0.1923
 3045poe    c2314932   6.878   3.611   6.960  0.3787  0.4070  0.9047
 3045poe     o214933   6.762   3.649   7.031 -0.2150  0.2110  0.0557
 3045poe    c2314934   6.719   3.774   6.982 -0.4284  0.3442  0.5751
 3045poe    c2314935   6.567   3.798   6.981 -0.5212 -0.2105  0.5221
 3045poe     o214936   6.507   3.711   6.889 -0.3494 -0.4781  0.6633
 3045poe    c2314937   6.395   3.777   6.834  0.1879  0.0519  0.1973
 3045poe    c2314938   6.350   3.726   6.696  0.1872 -0.3136  0.3318
 3045poe     o214939   6.453   3.765   6.609 -0.2128 -0.0188 -0.0135
 3045poe    c3114940   6.398   3.794   6.482 -0.3407 -0.5494 -0.0817
 3046poe    c3114941   6.126   6.173   0.890  0.9568 -0.6172  0.4566
 3046poe     o214942   6.071   6.053   0.939 -0.0122 -0.2252  0.3563
 3046poe    c2314943   5.969   6.077   1.033 -0.0458  0.0116  0.2599
 3046poe    c2314944   5.945   5.943   1.106 -0.3769 -0.0457  0.0524
 3046poe     o214945   6.064   5.908   1.173 -0.1095 -0.0726 -0.4320
 3046poe    c2314946   6.079   5.771   1.201 -0.3112 -0.0455 -0.1926
 3046poe    c2314947   6.211   5.710   1.149 -0.4035 -0.6671  0.2925
 3046poe     o214948   6.321   5.761   1.221 -0.5566  0.0389  0.0329
 3046poe    c2314949   6.439   5.709   1.164 -0.3200  0.2406  0.3371
 3046poe    c2314950   6.568   5.774   1.217 -0.3148  0.2450  0.3171
 3046poe     o214951   6.605   5.716   1.340  0.1447  0.2383  0.1792
 3046poe    c3114952   6.738   5.749   1.373  0.3158  0.1709 -0.4321
 3047poe    c3114953   4.050   0.676   5.059 -0.3530 -0.2236 -0.1893
 3047poe     o214954   3.986   0.608   5.164  0.1911  0.0790  0.3411
 3047poe    c2314955   3.875   0.556   5.096 -0.2051  0.6432  0.5431
 3047poe    c2314956   3.788   0.480   5.198 -0.6720  0.4490  0.0136
 3047poe     o214957   3.736   0.555   5.305 -0.2582  0.0295  0.5194
 3047poe    c2314958   3.605   0.596   5.273 -0.1974  0.2962  0.6109
 3047poe    c2314959   3.565   0.698   5.382 -0.7501  0.3214  0.3873
 3047poe     o214960   3.666   0.794   5.402 -0.2063 -0.1295 -0.1672
 3047poe    c2314961   3.683   0.875   5.288  0.4374 -0.6657 -0.4635
 3047poe    c2314962   3.783   0.990   5.311  0.1187 -0.4289 -0.2588
 3047poe     o214963   3.884   0.932   5.390 -0.3850 -0.4799  0.3644
 3047poe    c3114964   3.988   1.025   5.414 -0.2782 -0.3457 -0.5863
 3048poe    c3114965   2.510   2.509   4.403 -0.1298  0.0452 -0.0451
 3048poe     o214966   2.573   2.623   4.457  0.1696 -0.2387  0.2061
 3048poe    c2314967   2.674   2.655   4.364  0.3067  0.6046  0.6303
 3048poe    c2314968   2.749   2.787   4.386  0.6864  0.5138 -0.0872
 3048poe     o214969   2.668   2.901   4.396 -0.0453  0.0422 -0.5813
 3048poe    c2314970   2.752   3.014   4.401 -0.1911  0.1216  0.3697
 3048poe    c2314971   2.680   3.146   4.435  0.0449  0.2754  0.2756
 3048poe     o214972   2.605   3.182   4.322  0.3628  0.1207  0.0147
 3048poe    c2314973   2.538   3.305   4.339  0.1894  0.0257  0.0267
 3048poe    c2314974   2.422   3.325   4.241  0.0748  0.1880  0.1954
 3048poe     o214975   2.313   3.237   4.256  0.3878 -0.1669  0.3979
 3048poe    c3114976   2.211   3.276   4.167  0.4269 -0.7893  0.0766
 3049poe    c3114977   7.185   5.386   2.638 -0.7692  0.1921  0.6065
 3049poe     o214978   7.320   5.411   2.606 -0.6403 -0.9662  0.1760
 3049poe    c2314979   7.401   5.365   2.711 -0.3931 -0.1893  0.3367
 3049poe    c2314980   7.549   5.406   2.693 -0.6536  0.5214 -0.2126
 3049poe     o214981   7.613   5.359   2.577 -0.2871 -0.5338  0.4073
 3049poe    c2314982   7.749   5.396   2.587 -0.4066  0.1206 -0.3409
 3049poe    c2314983   7.824   5.346   2.462  0.2296 -0.4722  0.2743
 3049poe     o214984   7.750   5.380   2.347  0.2189 -0.2689  0.3411
 3049poe    c2314985   7.826   5.378   2.229 -0.3638  0.6181 -0.0634
 3049poe    c2314986   7.765   5.473   2.124 -0.0315  0.6233 -0.2556
 3049poe     o214987   7.627   5.449   2.142  0.1451 -0.4110 -0.2382
 3049poe    c3114988   7.551   5.479   2.028  0.0220 -0.2809 -0.1218
 3050poe    c3114989   0.372   0.275   5.644 -0.0674 -0.0179  0.1431
 3050poe     o214990   0.241   0.265   5.695 -0.0172  0.0763  0.2900
 3050poe    c2314991   0.153   0.252   5.586  0.2456  0.2252  0.0564
 3050poe    c2314992   0.005   0.250   5.630  0.2187 -0.1872 -0.0488
 3050poe     o214993  -0.036   0.375   5.681 -0.2621 -0.2460 -0.2803
 3050poe    c2314994  -0.153   0.364   5.758 -0.0343 -0.3319  0.0609
 3050poe    c2314995  -0.197   0.490   5.835  0.7513 -0.2349  0.3514
 3050poe     o214996  -0.098   0.542   5.921  0.9112  0.3406 -0.1809
 3050poe    c2314997  -0.126   0.672   5.969 -0.0999  0.0093  0.1470
 3050poe    c2314998  -0.011   0.698   6.069 -0.0696 -0.0003  0.1147
 3050poe     o214999   0.115   0.667   6.014 -0.1412 -0.1028  0.0078
 3050poe    c3115000   0.210   0.705   6.111  0.4424  0.0703 -0.6211
 3051poe    c3115001   6.682   3.730   4.977 -0.2701 -0.3968  0.2074
 3051poe     o215002   6.787   3.768   5.062 -0.1753  0.0176 -0.0938
 3051poe    c2315003   6.733   3.871   5.141 -0.4439  0.2449 -0.5657
 3051poe    c2315004   6.840   3.982   5.142 -0.0947 -0.0890 -0.2002
 3051poe     o215005   6.953   3.901   5.162 -0.1295 -0.1597 -0.2884
 3051poe    c2315006   7.074   3.970   5.137  0.0180 -0.4856 -0.4889
 3051poe    c2315007   7.193   3.874   5.151  0.5766  0.2757  0.0169
 3051poe     o215008   7.161   3.763   5.071  0.4945  0.4691 -0.2184
 3051poe    c2315009   7.269   3.684   5.028  0.1299  0.0968 -0.4686
 3051poe    c2315010   7.245   3.559   4.943 -0.7150 -0.2157  0.2153
 3051poe     o215011   7.190   3.586   4.816  0.5134 -0.0001 -0.2805
 3051poe    c3115012   7.161   3.457   4.768  0.0833 -0.0436  0.0991
 3052poe    c3115013   5.987   0.732   0.832 -0.2142  0.0686  0.5273
 3052poe     o215014   6.122   0.773   0.834 -0.1665 -0.0351 -0.1437
 3052poe    c2315015   6.205   0.701   0.923 -0.0731  0.4821  0.1938
 3052poe    c2315016   6.352   0.746   0.917  0.0055  0.1703 -0.2815
 3052poe     o215017   6.433   0.714   0.805 -0.2402 -0.0526 -0.3950
 3052poe    c2315018   6.463   0.577   0.789  0.7381  0.0418  0.5111
 3052poe    c2315019   6.579   0.535   0.697  0.3444 -0.1040  0.0785
 3052poe     o215020   6.704   0.544   0.762  0.3535  0.0503  0.0393
 3052poe    c2315021   6.813   0.541   0.672 -0.0194 -0.0125 -0.4179
 3052poe    c2315022   6.952   0.532   0.737 -0.4028  0.1250  0.4368
 3052poe     o215023   7.024   0.653   0.733 -0.2922  0.0530  0.2186
 3052poe    c3115024   7.155   0.621   0.774  0.3264  0.6318 -1.2169
 3053poe    c3115025   0.231   0.851   3.411  0.0314  0.1670  0.4675
 3053poe     o215026   0.257   0.714   3.435  0.5263  0.1865  0.0661
 3053poe    c2315027   0.228   0.661   3.562 -0.0654  0.2895 -0.0226
 3053poe    c2315028   0.322   0.542   3.590  0.1749  0.5019  0.0696
 3053poe     o215029   0.296   0.440   3.497 -0.0851  0.1456  0.5295
 3053poe    c2315030   0.375   0.328   3.530 -0.0737 -0.1141 -0.3383
 3053poe    c2315031   0.314   0.222   3.437 -0.3867 -0.1687 -0.0746
 3053poe     o215032   0.327   0.264   3.303  0.1811 -0.0697  0.0079
 3053poe    c2315033   0.306   0.154   3.217  0.3399  0.5309 -0.8171
 3053poe    c2315034   0.258   0.171   3.072  0.1509  0.3638 -0.7752
 3053poe     o215035   0.131   0.233   3.071  0.1370  0.3629  0.0577
 3053poe    c3115036   0.073   0.235   2.942 -0.1708 -0.4246  0.1793
 3054poe    c3115037   7.057   6.296   3.343  0.8002 -0.4318 -0.0150
 3054poe     o215038   7.061   6.436   3.360 -0.0317 -0.4611  0.4655
 3054poe    c2315039   7.003   6.482   3.240  0.7394  0.5476  0.4703
 3054poe    c2315040   6.944   6.624   3.237 -0.0235  0.2258  0.0308
 3054poe     o215041   7.048   6.718   3.254  0.2070  0.0436 -0.3613
 3054poe    c2315042   6.998   6.838   3.309  0.0260 -0.1854 -0.0196
 3054poe    c2315043   6.992   6.847   3.462  0.4356  0.3438 -0.0354
 3054poe     o215044   7.128   6.842   3.500  0.6531  0.0659 -0.8372
 3054poe    c2315045   7.170   6.913   3.615  0.1238 -0.9106 -0.0190
 3054poe    c2315046   7.321   6.894   3.639  0.3004  0.0814 -0.3005
 3054poe     o215047   7.361   6.768   3.689  0.1136  0.1285 -0.0227
 3054poe    c3115048   7.496   6.778   3.731  0.2057  0.6446 -0.4194
 3055poe    c3115049   1.889   6.281   6.246 -0.5755  0.0950 -0.2819
 3055poe     o215050   1.927   6.412   6.281 -1.0726  0.0823  0.3286
 3055poe    c2315051   1.843   6.498   6.207 -0.3126  0.1831 -0.4391
 3055poe    c2315052   1.906   6.634   6.239  0.3131 -0.2313  0.1108
 3055poe     o215053   1.957   6.634   6.371  0.2811  0.4362  0.1260
 3055poe    c2315054   1.971   6.760   6.433 -0.3472  0.6466 -0.1566
 3055poe    c2315055   2.124   6.777   6.430 -0.2441 -0.1905  0.0965
 3055poe     o215056   2.175   6.649   6.459  0.2961  0.0150  0.0703
 3055poe    c2315057   2.309   6.640   6.418  0.3073  0.1803  0.0699
 3055poe    c2315058   2.337   6.562   6.288 -0.2141  0.0440  0.0408
 3055poe     o215059   2.224   6.480   6.263 -0.4443  0.5114 -0.4678
 3055poe    c3115060   2.239   6.399   6.149 -0.5683  0.1596 -0.2338
 3056poe    c3115061   0.056   3.579   4.321  0.5528 -0.0085  0.6168
 3056poe     o215062  -0.014   3.663   4.410  0.1639  0.4224 -0.0891
 3056poe    c2315063  -0.152   3.675   4.382  0.0619  0.2714  0.3435
 3056poe    c2315064  -0.221   3.763   4.488 -0.1598  0.5223 -0.0046
 3056poe     o215065  -0.162   3.889   4.507  0.1906  0.3909 -0.2150
 3056poe    c2315066  -0.263   3.956   4.579  0.5875  0.2195  0.5076
 3056poe    c2315067  -0.254   4.109   4.590 -0.7900  0.3053  0.5459
 3056poe     o215068  -0.146   4.147   4.673 -0.7771 -0.0227  0.6792
 3056poe    c2315069  -0.109   4.282   4.663  0.1673 -0.3477 -0.4917
 3056poe    c2315070  -0.037   4.321   4.793 -0.0481 -0.3520 -0.3702
 3056poe     o215071   0.082   4.247   4.797 -0.3085 -0.7457  0.1925
 3056poe    c3115072   0.145   4.248   4.923 -0.3873 -0.5758  0.2302
 3057poe    c3115073   3.965   2.696   2.109  0.5956  1.1391 -0.0965
 3057poe     o215074   3.986   2.646   1.979 -0.2003 -0.2077  0.2696
 3057poe    c2315075   3.916   2.726   1.886 -0.2067 -0.7832 -0.2229
 3057poe    c2315076   3.997   2.760   1.760 -0.0087  0.2592  0.1789
 3057poe     o215077   4.101   2.855   1.768  0.2419 -0.0131  0.1860
 3057poe    c2315078   4.149   2.893   1.640  0.7839 -0.8790  0.1304
 3057poe    c2315079   4.245   3.007   1.678 -0.0718 -0.2488  0.4291
 3057poe     o215080   4.326   2.958   1.783  0.3922 -0.3089  0.0491
 3057poe    c2315081   4.431   3.048   1.811 -0.2305  0.5615 -0.3483
 3057poe    c2315082   4.505   3.004   1.939 -0.6440  0.2285 -0.2207
 3057poe     o215083   4.422   3.005   2.053 -0.2763 -0.3238  0.0546
 3057poe    c3115084   4.491   2.965   2.170 -0.4737 -0.8091  0.0093
 3058poe    c3115085   5.513   6.309   0.241 -0.3154 -0.1458  0.3754
 3058poe     o215086   5.541   6.343   0.375 -0.0421 -0.0998  0.3077
 3058poe    c2315087   5.675   6.309   0.401  0.1570  0.2975 -0.1907
 3058poe    c2315088   5.699   6.315   0.553  0.1508 -0.6864 -0.1414
 3058poe     o215089   5.625   6.429   0.592  0.7420 -0.2653 -0.2436
 3058poe    c2315090   5.627   6.472   0.726 -0.5600  0.0838 -0.3295
 3058poe    c2315091   5.569   6.614   0.734 -0.1779  0.2098  0.2572
 3058poe     o215092   5.439   6.622   0.680 -0.1568 -0.1088  0.1591
 3058poe    c2315093   5.351   6.665   0.782  0.2778  0.0067  0.4870
 3058poe    c2315094   5.206   6.619   0.757  0.2109  0.3181  0.2919
 3058poe     o215095   5.203   6.478   0.766  0.2033  0.3165  0.2611
 3058poe    c3115096   5.074   6.429   0.794  0.2758 -0.0748 -0.0835
 3059poe    c3115097   6.743   4.483   1.491  0.3465  0.2805  0.4442
 3059poe     o215098   6.707   4.592   1.571  0.2143  0.5547  0.0157
 3059poe    c2315099   6.823   4.648   1.630  0.3209  0.0559  0.2875
 3059poe    c2315100   6.772   4.788   1.669 -0.5304 -0.3686  0.7243
 3059poe     o215101   6.654   4.761   1.742 -0.7363 -0.8700  0.2144
 3059poe    c2315102   6.586   4.881   1.774  0.3260 -0.0235 -0.6239
 3059poe    c2315103   6.450   4.821   1.813  0.5620 -0.2277 -0.0959
 3059poe     o215104   6.418   4.732   1.709  0.2161 -0.0700 -0.1260
 3059poe    c2315105   6.300   4.663   1.744 -0.0672  0.4621 -0.0201
 3059poe    c2315106   6.291   4.530   1.666  0.1535  0.1137  0.5400
 3059poe     o215107   6.422   4.497   1.626 -0.0443  0.2068 -0.1943
 3059poe    c3115108   6.413   4.375   1.556 -0.1734  0.0943  0.0172
 3060poe    c3115109   0.014   6.383   1.146  0.2671 -0.5208 -0.0379
 3060poe     o215110  -0.120   6.425   1.132  0.1558 -0.8401  0.0578
 3060poe    c2315111  -0.164   6.399   1.263  0.3102  0.0302  0.2848
 3060poe    c2315112  -0.308   6.450   1.281  0.1094 -0.4312 -0.0113
 3060poe     o215113  -0.407   6.389   1.201  0.2995 -0.6675 -0.0660
 3060poe    c2315114  -0.450   6.267   1.258  0.1356 -0.1592  0.9217
 3060poe    c2315115  -0.563   6.209   1.171  0.6935 -0.2066  0.2182
 3060poe     o215116  -0.538   6.181   1.035  0.1998  0.2099  0.0408
 3060poe    c2315117  -0.662   6.138   0.982  0.2879 -0.1847  0.1512
 3060poe    c2315118  -0.680   6.138   0.829 -0.0330 -0.0176  0.1877
 3060poe     o215119  -0.658   6.255   0.752 -0.0350 -0.1616 -0.0336
 3060poe    c3115120  -0.763   6.347   0.771  0.0671 -0.2590  1.1000
 3061poe    c3115121   4.359   3.412   0.182  0.7080 -0.2694  0.1374
 3061poe     o215122   4.401   3.533   0.123 -0.0925 -0.0716 -0.0389
 3061poe    c2315123   4.323   3.634   0.184  0.4247  0.4302 -0.2067
 3061poe    c2315124   4.336   3.763   0.100 -0.6615  0.4454 -0.3542
 3061poe     o215125   4.474   3.781   0.078 -0.6303  0.2827 -0.2920
 3061poe    c2315126   4.508   3.904   0.018  0.0435  0.3119  0.1414
 3061poe    c2315127   4.655   3.893  -0.026 -0.0624 -0.3625 -0.0590
 3061poe     o215128   4.687   3.782  -0.107 -0.4484 -0.8058  0.3855
 3061poe    c2315129   4.826   3.770  -0.128 -0.5115 -0.2269 -0.4189
 3061poe    c2315130   4.847   3.649  -0.221 -0.4879 -0.0427 -0.6553
 3061poe     o215131   4.796   3.527  -0.170  0.1145 -0.2762 -0.5992
 3061poe    c3115132   4.893   3.462  -0.092  0.6744  0.7048 -0.4502
 3062poe    c3115133   1.198   5.979   2.879 -0.5850 -0.3837 -0.2299
 3062poe     o215134   1.162   5.898   2.989 -0.0366 -0.4615 -0.1048
 3062poe    c2315135   1.271   5.847   3.062 -0.1283  0.4353  0.6834
 3062poe    c2315136   1.224   5.754   3.176 -0.8165 -0.0373  0.0214
 3062poe     o215137   1.123   5.821   3.249 -0.2712  0.3160  0.4664
 3062poe    c2315138   1.077   5.736   3.352  0.4550 -0.4052  0.2158
 3062poe    c2315139   0.950   5.797   3.414  0.3578 -0.4994  0.1105
 3062poe     o215140   0.864   5.840   3.310  0.0088 -0.3735  0.4460
 3062poe    c2315141   0.737   5.780   3.310 -0.0421 -0.2788 -0.6309
 3062poe    c2315142   0.632   5.825   3.206 -0.1678 -0.1895 -0.4652
 3062poe     o215143   0.672   5.813   3.072  0.4870 -0.1289 -0.2813
 3062poe    c3115144   0.597   5.907   2.997  0.7222  0.2741 -0.0100
 3063poe    c3115145   1.605   1.237   1.061  0.0374 -0.1576  0.0699
 3063poe     o215146   1.473   1.200   1.094  0.1222 -0.2006  0.3680
 3063poe    c2315147   1.447   1.073   1.148 -0.1940 -0.2489  0.1096
 3063poe    c2315148   1.316   1.064   1.229 -0.5046  0.1225 -0.3520
 3063poe     o215149   1.341   1.131   1.350 -0.5014  0.3540 -0.4808
 3063poe    c2315150   1.226   1.136   1.432 -0.1768  0.2983 -0.0216
 3063poe    c2315151   1.255   1.170   1.580  0.4393  0.1245 -0.0984
 3063poe     o215152   1.288   1.307   1.581  0.6758  0.0629  0.3117
 3063poe    c2315153   1.274   1.361   1.711  0.5951 -0.2013  0.4137
 3063poe    c2315154   1.324   1.507   1.714  0.5715 -0.1828  0.0149
 3063poe     o215155   1.457   1.533   1.676  0.6211 -0.0452  0.2786
 3063poe    c3115156   1.505   1.643   1.749  0.1945  0.6042 -0.4030
 3064poe    c3115157   4.034   5.972   2.942  0.3996  0.3007  0.6736
 3064poe     o215158   4.070   5.879   3.042 -0.4024 -0.6221  0.1152
 3064poe    c2315159   4.193   5.817   3.013  0.0355  0.4399 -0.3372
 3064poe    c2315160   4.230   5.706   3.114 -0.0809  0.3473 -0.3962
 3064poe     o215161   4.116   5.624   3.130  0.1010  0.2378  0.3485
 3064poe    c2315162   4.145   5.521   3.223 -0.1661  0.3190  0.5215
 3064poe    c2315163   4.016   5.443   3.254 -0.5350  0.4631 -0.5785
 3064poe     o215164   3.921   5.530   3.310 -0.2639  0.1091  0.4674
 3064poe    c2315165   3.793   5.474   3.331 -0.1437 -0.3592 -0.0416
 3064poe    c2315166   3.684   5.574   3.374  0.2975 -0.0059  0.2687
 3064poe     o215167   3.654   5.669   3.273 -0.1480 -0.2522  0.1644
 3064poe    c3115168   3.563   5.763   3.323  0.1308  0.1058  0.0009
 3065poe    c3115169   2.654   1.237   3.679  0.0449 -0.2275  0.1051
 3065poe     o215170   2.681   1.166   3.798  0.2772  0.5787  0.5428
 3065poe    c2315171   2.801   1.216   3.851  0.3710  0.6686  0.2493
 3065poe    c2315172   2.796   1.176   4.000  0.1173 -0.4509 -0.0525
 3065poe     o215173   2.760   1.040   4.010 -1.0229 -0.1655 -0.1187
 3065poe    c2315174   2.779   0.977   4.135 -0.0855  0.1060 -0.1163
 3065poe    c2315175   2.754   0.829   4.102  0.2175  0.0266  0.0061
 3065poe     o215176   2.623   0.817   4.051  0.1314 -0.1671  0.2737
 3065poe    c2315177   2.588   0.682   4.026 -0.1491  0.0180 -0.3462
 3065poe    c2315178   2.447   0.689   3.965 -0.3371  0.7794  0.1547
 3065poe     o215179   2.430   0.797   3.876 -0.2633  0.4493 -0.2650
 3065poe    c3115180   2.312   0.783   3.800 -0.1708  0.1034 -0.3442
 3066poe    c3115181   2.496   2.433   2.556 -0.1102  0.0469  0.7264
 3066poe     o215182   2.389   2.479   2.476  0.4614  0.0560 -0.0473
 3066poe    c2315183   2.365   2.614   2.508  0.0960 -0.1075  0.3740
 3066poe    c2315184   2.223   2.668   2.480  0.2439  0.0912  0.0090
 3066poe     o215185   2.122   2.606   2.556  0.0842  0.5577  0.1765
 3066poe    c2315186   2.002   2.679   2.549 -0.2277  0.0353  0.0319
 3066poe    c2315187   1.908   2.591   2.633  0.0876  0.0636  0.4157
 3066poe     o215188   1.898   2.458   2.587 -0.0701  0.1157  0.2970
 3066poe    c2315189   1.790   2.386   2.642 -0.1895 -0.0809 -0.1865
 3066poe    c2315190   1.816   2.249   2.577  0.5880  0.2942 -0.6786
 3066poe     o215191   1.946   2.217   2.622  0.1290 -0.1121  0.3649
 3066poe    c3115192   1.980   2.081   2.608 -0.1006 -0.1254 -0.0898
 3067poe    c3115193   5.348   2.844   1.405 -0.5280 -0.3975  0.0660
 3067poe     o215194   5.303   2.822   1.273 -0.0384 -0.3091 -0.1197
 3067poe    c2315195   5.386   2.869   1.170 -0.1334  0.4891  0.1588
 3067poe    c2315196   5.324   2.839   1.032  0.2959 -0.0381  0.0768
 3067poe     o215197   5.317   2.701   1.004  0.6080  0.0459 -0.4491
 3067poe    c2315198   5.230   2.682   0.895 -0.4462 -0.2152  0.4218
 3067poe    c2315199   5.228   2.543   0.828  0.4113 -0.0414  0.0286
 3067poe     o215200   5.167   2.451   0.915 -0.5965  0.5206 -0.0568
 3067poe    c2315201   5.128   2.334   0.846  0.3322  0.1179  0.0826
 3067poe    c2315202   5.070   2.230   0.944  0.5806 -0.0221  0.0820
 3067poe     o215203   4.945   2.272   0.993  0.7132  0.2492  0.1903
 3067poe    c3115204   4.890   2.156   1.051 -0.2447  0.6072  0.0143
 3068poe    c3115205   2.660   0.268   3.997  0.1540 -0.3912 -0.3450
 3068poe     o215206   2.570   0.178   4.058  0.1545  0.3794  0.8188
 3068poe    c2315207   2.434   0.205   4.033  0.0843 -0.4567  0.2513
 3068poe    c2315208   2.347   0.096   4.099 -0.0858 -0.1569  0.5270
 3068poe     o215209   2.349   0.107   4.240  0.3205 -0.2859  0.5329
 3068poe    c2315210   2.291  -0.013   4.287  0.7895 -0.7938 -0.1553
 3068poe    c2315211   2.322  -0.031   4.437  0.0554 -0.0487  0.0939
 3068poe     o215212   2.453  -0.081   4.451  0.3767  0.5991 -0.5414
 3068poe    c2315213   2.478  -0.141   4.576  0.3697 -0.4020 -1.0120
 3068poe    c2315214   2.602  -0.230   4.590  0.2621 -0.4143 -0.0584
 3068poe     o215215   2.713  -0.153   4.631 -0.0971  0.0644  0.0074
 3068poe    c3115216   2.833  -0.227   4.635 -0.1230  0.0175 -0.0815
 3069poe    c3115217   0.397   3.899   3.907  0.2682 -0.8718  0.7548
 3069poe     o215218   0.474   3.786   3.873  0.9286 -0.0614 -0.5828
 3069poe    c2315219   0.409   3.724   3.764  0.2841 -0.6759  0.1353
 3069poe    c2315220   0.312   3.613   3.808 -0.8390 -0.0428 -0.6848
 3069poe     o215221   0.399   3.514   3.859 -0.5083  0.3230 -0.5351
 3069poe    c2315222   0.323   3.417   3.927  0.1649  0.2035  0.0684
 3069poe    c2315223   0.414   3.308   3.985  0.1224  0.6351  0.9616
 3069poe     o215224   0.499   3.342   4.092  0.4742  0.3656  0.7733
 3069poe    c2315225   0.475   3.271   4.212  0.4421 -0.3313  0.3552
 3069poe    c2315226   0.569   3.306   4.329  0.3286  0.4548  0.2117
 3069poe     o215227   0.703   3.273   4.304  0.1079 -0.4622  0.2070
 3069poe    c3115228   0.773   3.314   4.419  0.7288  0.2165 -0.3937
 3070poe    c3115229   0.667   2.770   4.101  0.1180  0.4354  0.0070
 3070poe     o215230   0.660   2.674   3.998  0.0149  0.0081  0.4073
 3070poe    c2315231   0.743   2.566   4.033  0.3726  0.0293 -0.3521
 3070poe    c2315232   0.731   2.447   3.936 -0.4428 -0.1299 -0.0679
 3070poe     o215233   0.607   2.380   3.943 -0.5546  0.1100  0.2947
 3070poe    c2315234   0.612   2.274   3.850 -0.1067  0.1749  0.2395
 3070poe    c2315235   0.493   2.177   3.831 -0.1439  0.1828  0.4353
 3070poe     o215236   0.387   2.250   3.773  0.0774  0.2558  0.1170
 3070poe    c2315237   0.271   2.169   3.783  0.3566 -0.2407 -0.6434
 3070poe    c2315238   0.148   2.251   3.741 -0.1696 -0.5667  0.2344
 3070poe     o215239   0.121   2.357   3.830  0.3830  0.0010 -0.2578
 3070poe    c3115240  -0.018   2.385   3.827  0.4006  0.1307  0.1123
 3071poe    c3115241   6.113   3.475   1.327  0.0656  0.2658 -0.2253
 3071poe     o215242   6.082   3.537   1.450 -0.5628  0.0417 -0.2705
 3071poe    c2315243   6.097   3.442   1.553  0.5188  0.1969 -0.2731
 3071poe    c2315244   6.110   3.515   1.688  0.6466  0.2711 -0.3253
 3071poe     o215245   6.162   3.428   1.786  0.4567  0.0462 -0.4209
 3071poe    c2315246   6.155   3.503   1.905  1.3463  0.3882 -0.5719
 3071poe    c2315247   6.198   3.415   2.024 -0.3541  0.1270 -0.1209
 3071poe     o215248   6.116   3.302   2.043  0.2267 -0.3570 -0.4428
 3071poe    c2315249   6.140   3.221   2.156  0.1161 -0.0164 -0.1704
 3071poe    c2315250   6.043   3.101   2.161  0.0560  0.0473  0.1967
 3071poe     o215251   5.913   3.121   2.213 -0.0409 -0.0011 -0.0232
 3071poe    c3115252   5.828   3.009   2.219  0.4037 -0.3499 -0.1679
 3072poe    c3115253   6.141   4.299   2.140 -0.1749  0.0749  0.1539
 3072poe     o215254   6.006   4.287   2.179 -0.1017  0.1045  0.4193
 3072poe    c2315255   5.965   4.411   2.234 -0.3620  0.2924 -0.1986
 3072poe    c2315256   5.815   4.412   2.271 -0.3364 -0.1037 -0.0796
 3072poe     o215257   5.803   4.289   2.340  0.0645 -0.1773 -0.1354
 3072poe    c2315258   5.670   4.268   2.382  0.3397 -0.1136  0.7987
 3072poe    c2315259   5.659   4.140   2.466  0.4927 -0.1732  0.7285
 3072poe     o215260   5.692   4.028   2.387 -0.1399 -0.2798  0.6094
 3072poe    c2315261   5.708   3.916   2.470  0.1970 -0.2428  0.5980
 3072poe    c2315262   5.767   3.795   2.395  0.0010  0.2526 -0.3658
 3072poe     o215263   5.901   3.809   2.351  0.0789  0.0779 -0.1822
 3072poe    c3115264   5.944   3.697   2.278 -0.3828 -0.3423  0.1803
 3073poe    c3115265   3.191   6.389   2.825  0.1879  0.1885 -0.2976
 3073poe     o215266   3.292   6.468   2.883  0.3517  0.1416 -0.5218
 3073poe    c2315267   3.255   6.604   2.877 -0.3674 -0.0232  0.0906
 3073poe    c2315268   3.357   6.657   2.979  0.0238 -0.6732  0.0498
 3073poe     o215269   3.483   6.608   2.941  0.2221 -0.0963 -0.0470
 3073poe    c2315270   3.561   6.581   3.056  0.3368  0.8107  0.0973
 3073poe    c2315271   3.700   6.552   2.996  0.0836 -0.6638  0.1931
 3073poe     o215272   3.678   6.475   2.880 -0.3309 -0.1283 -0.0883
 3073poe    c2315273   3.796   6.438   2.812 -0.0682  0.5845 -0.0242
 3073poe    c2315274   3.777   6.347   2.689  0.5069  0.0561  0.2736
 3073poe     o215275   3.724   6.221   2.723  0.3141 -0.0320 -0.3516
 3073poe    c3115276   3.698   6.146   2.606  0.2113 -0.5792  0.0214
 3074poe    c3115277   2.847   0.132   6.936  0.3418 -0.0144 -0.0768
 3074poe     o215278   2.961   0.185   7.001  0.0071  0.5487  0.0659
 3074poe    c2315279   2.951   0.152   7.138 -0.0295 -0.1338 -0.0935
 3074poe    c2315280   2.925   0.274   7.229  0.5572  0.2946 -0.4863
 3074poe     o215281   3.045   0.343   7.251  0.4313  0.3548  0.0101
 3074poe    c2315282   3.024   0.467   7.315 -0.0849  0.0043  0.5319
 3074poe    c2315283   2.954   0.572   7.227  0.4807  0.0659  0.1467
 3074poe     o215284   2.862   0.643   7.307 -0.0804 -0.6041  0.1087
 3074poe    c2315285   2.824   0.749   7.222 -0.3837 -0.4760  0.4007
 3074poe    c2315286   2.752   0.860   7.301 -0.4472 -0.0975 -0.1838
 3074poe     o215287   2.628   0.825   7.359 -0.4019  0.3577  0.2002
 3074poe    c3115288   2.591   0.928   7.447 -0.0220  0.6808 -0.0135
 3075poe    c3115289   0.043   4.946   4.445  0.4367 -0.5489 -0.4745
 3075poe     o215290   0.141   5.042   4.477  0.0896 -0.6134  0.8568
 3075poe    c2315291   0.258   4.995   4.540  0.7454 -0.1055  0.0523
 3075poe    c2315292   0.328   5.103   4.625  0.1893  0.2922  0.0090
 3075poe     o215293   0.242   5.115   4.736 -0.1148 -0.1197 -0.1779
 3075poe    c2315294   0.307   5.150   4.856  0.3487 -0.0903 -0.4352
 3075poe    c2315295   0.205   5.201   4.959  0.6553 -0.3758  0.0121
 3075poe     o215296   0.094   5.113   4.967  0.1233  0.2984  0.1402
 3075poe    c2315297   0.011   5.141   5.077  0.4185 -0.6169  0.6085
 3075poe    c2315298  -0.101   5.036   5.070  0.0703 -0.2046 -0.2605
 3075poe     o215299  -0.168   5.044   4.946  0.2344  0.0974 -0.3299
 3075poe    c3115300  -0.260   4.937   4.953 -0.1998  0.5116  0.5666
 3076poe    c3115301   7.167   4.997   2.456 -0.5025  0.0916  0.3086
 3076poe     o215302   7.298   4.956   2.427 -0.6082 -0.3297  0.4158
 3076poe    c2315303   7.383   5.050   2.365 -0.5073 -0.6304  0.0891
 3076poe    c2315304   7.525   5.004   2.331  0.0925  0.8842  0.4264
 3076poe     o215305   7.579   4.944   2.446  0.3934 -0.0875 -0.2014
 3076poe    c2315306   7.664   5.034   2.514  0.2133 -0.1339  0.0850
 3076poe    c2315307   7.721   4.987   2.649  0.5557 -0.5465 -0.2024
 3076poe     o215308   7.629   4.968   2.754 -0.0110 -0.1135 -0.6153
 3076poe    c2315309   7.693   5.020   2.868  0.1517 -1.2234 -0.1820
 3076poe    c2315310   7.588   5.043   2.978 -0.1523 -0.4800 -0.6169
 3076poe     o215311   7.498   5.148   2.954  0.0923 -0.0302  0.3598
 3076poe    c3115312   7.372   5.093   2.921  0.3061 -0.3527  0.0677
 3077poe    c3115313   4.315   2.385   1.210  0.4516  0.0502  0.1535
 3077poe     o215314   4.385   2.265   1.232 -0.3214 -0.4575 -0.1434
 3077poe    c2315315   4.450   2.216   1.116  1.0871  0.8581  0.0610
 3077poe    c2315316   4.517   2.082   1.151 -0.5807  0.1921  0.8284
 3077poe     o215317   4.581   2.076   1.277  0.5134  0.2245  0.2868
 3077poe    c2315318   4.653   1.957   1.295 -0.0076 -0.0880  0.3390
 3077poe    c2315319   4.747   1.962   1.417  0.6479 -1.1050 -0.1141
 3077poe     o215320   4.674   1.984   1.535  0.4716  0.1290 -0.4461
 3077poe    c2315321   4.748   2.043   1.640  0.0918  0.5031 -0.3840
 3077poe    c2315322   4.672   2.064   1.772 -0.2196  0.0905 -0.4973
 3077poe     o215323   4.620   1.944   1.824  0.4454  0.2901  0.6704
 3077poe    c3115324   4.522   1.975   1.920 -0.6930 -0.3441 -0.2477
 3078poe    c3115325   5.752   6.295   5.203  0.1395  0.6437 -0.0362
 3078poe     o215326   5.840   6.188   5.233 -0.4292  0.1005 -0.2803
 3078poe    c2315327   5.762   6.070   5.233 -0.4600  0.1193  0.3843
 3078poe    c2315328   5.839   5.938   5.221  0.2461  0.5261  0.3517
 3078poe     o215329   5.932   5.895   5.318  0.3547  0.3069  0.1547
 3078poe    c2315330   6.012   5.782   5.296 -0.4416 -0.2609  0.1459
 3078poe    c2315331   6.144   5.795   5.374 -0.3736 -0.2288  0.0268
 3078poe     o215332   6.227   5.891   5.312  0.1524 -0.7051 -0.0084
 3078poe    c2315333   6.343   5.931   5.383 -0.1926 -0.0086  0.1664
 3078poe    c2315334   6.323   6.025   5.503  0.2174  0.0442  0.1915
 3078poe     o215335   6.251   5.958   5.604  0.2475  0.0023  0.1863
 3078poe    c3115336   6.330   5.890   5.699 -0.1595 -0.3773  0.2565
 3079poe    c3115337   5.455   6.628   2.114  0.4846 -0.0617  0.6177
 3079poe     o215338   5.340   6.704   2.143 -0.1357 -0.7150 -0.0751
 3079poe    c2315339   5.221   6.630   2.131 -0.3497 -0.4155  0.1964
 3079poe    c2315340   5.121   6.700   2.036 -0.1180 -0.1575  0.1404
 3079poe     o215341   5.066   6.810   2.104  0.0170  0.2517 -0.4032
 3079poe    c2315342   4.995   6.904   2.027 -0.0271  0.6502  0.1174
 3079poe    c2315343   4.846   6.911   2.064 -0.0836  0.7493 -0.1288
 3079poe     o215344   4.809   6.950   2.195  0.4809  0.5086  0.1026
 3079poe    c2315345   4.676   6.995   2.188  0.3803  0.1722 -0.1448
 3079poe    c2315346   4.639   7.025   2.334  0.4799 -0.3801 -0.0046
 3079poe     o215347   4.604   6.918   2.420  0.1094 -0.3588 -0.1260
 3079poe    c3115348   4.507   6.955   2.516  0.6406  0.2825  0.1724
 3080poe    c3115349   4.278   0.010   2.531  0.0397 -0.4810 -0.4140
 3080poe     o215350   4.275   0.064   2.401 -0.3058  0.3237 -0.0771
 3080poe    c2315351   4.323   0.197   2.401 -0.4195  0.3666  0.4348
 3080poe    c2315352   4.307   0.236   2.253  0.1063 -0.0349  0.2662
 3080poe     o215353   4.171   0.216   2.223  0.2112 -0.1445 -0.1348
 3080poe    c2315354   4.143   0.237   2.086 -0.1597 -0.3612 -0.0963
 3080poe    c2315355   3.995   0.229   2.045 -0.1405 -0.0976 -0.2248
 3080poe     o215356   3.931   0.115   2.099 -0.1685  0.3883  0.7816
 3080poe    c2315357   3.808   0.097   2.032  0.2315 -0.4739  0.2721
 3080poe    c2315358   3.775  -0.051   2.056 -0.1730 -0.3947  0.2047
 3080poe     o215359   3.810  -0.090   2.187  0.2414 -0.1804  0.1565
 3080poe    c3115360   3.812  -0.231   2.192  0.8238 -0.1552  0.7521
 3081poe    c3115361   0.318   3.346   2.429  0.0215  0.3146 -0.0018
 3081poe     o215362   0.401   3.350   2.315 -0.4686  0.2114 -0.3649
 3081poe    c2315363   0.425   3.223   2.258 -0.3315  0.2364 -0.3647
 3081poe    c2315364   0.532   3.228   2.148  0.2139 -0.1232  0.1487
 3081poe     o215365   0.658   3.272   2.194  0.2655 -0.2204  0.1027
 3081poe    c2315366   0.741   3.325   2.094 -0.0034 -0.1247 -0.0726
 3081poe    c2315367   0.836   3.438   2.139 -0.0379 -0.2558  0.3384
 3081poe     o215368   0.775   3.564   2.160  0.1168 -0.2149  0.5454
 3081poe    c2315369   0.855   3.673   2.196 -0.3253 -0.0092  0.9165
 3081poe    c2315370   0.777   3.803   2.224 -0.2984  0.2388 -0.0965
 3081poe     o215371   0.688   3.794   2.333 -0.2190  0.4267 -0.0147
 3081poe    c3115372   0.652   3.928   2.360  0.2587  0.4071  0.7465
 3082poe    c3115373   3.033   0.625   1.497 -0.6076  0.8594  0.4103
 3082poe     o215374   3.162   0.645   1.443 -0.4999  0.2990  0.4530
 3082poe    c2315375   3.148   0.685   1.309  0.1066 -0.1556  0.2512
 3082poe    c2315376   3.268   0.626   1.231  0.2833  0.6036 -0.0575
 3082poe     o215377   3.272   0.486   1.248  0.1788  0.5789 -0.2373
 3082poe    c2315378   3.365   0.423   1.162  0.3679  0.2203  0.2264
 3082poe    c2315379   3.392   0.274   1.188 -0.5056  0.0141 -0.0078
 3082poe     o215380   3.285   0.196   1.140 -0.2331 -0.1863 -0.2928
 3082poe    c2315381   3.297   0.061   1.181 -0.0519  0.0766  0.5375
 3082poe    c2315382   3.159  -0.000   1.209 -0.1330 -0.0331 -0.0890
 3082poe     o215383   3.096   0.064   1.317 -0.0313  0.1270 -0.1254
 3082poe    c3115384   2.965   0.012   1.321  0.0039  0.0413 -0.1019
 3083poe    c3115385   1.689   4.420   4.426  0.1862  0.2241 -0.5584
 3083poe     o215386   1.603   4.329   4.363 -0.1575  0.1009  0.0760
 3083poe    c2315387   1.465   4.348   4.384 -0.2290  0.1548 -0.4280
 3083poe    c2315388   1.390   4.221   4.340  0.4960 -0.4653  0.1161
 3083poe     o215389   1.444   4.205   4.210 -0.2170  0.5617 -0.3176
 3083poe    c2315390   1.375   4.111   4.131  0.1975  0.2583 -0.3206
 3083poe    c2315391   1.456   4.082   4.003 -0.1362 -0.1746 -0.4368
 3083poe     o215392   1.591   4.062   4.036 -0.2044  0.1204  0.0237
 3083poe    c2315393   1.653   4.023   3.916 -0.0835 -0.0685  0.1479
 3083poe    c2315394   1.791   3.960   3.942 -0.1134 -0.1817  0.0320
 3083poe     o215395   1.786   3.868   4.049 -0.4945 -0.2379 -0.0358
 3083poe    c3115396   1.909   3.801   4.061 -0.1991  0.2505 -0.3259
 3084poe    c3115397   2.168   4.403   4.790 -0.5341  0.0028  0.0012
 3084poe     o215398   2.059   4.482   4.831 -0.3228  0.3734 -0.1447
 3084poe    c2315399   2.049   4.515   4.968 -0.5311 -0.6984  0.1038
 3084poe    c2315400   1.960   4.632   5.013 -0.0269 -0.0307 -0.6078
 3084poe     o215401   2.007   4.760   4.980  0.0735 -0.0348 -0.4806
 3084poe    c2315402   1.919   4.867   5.011  0.1439  0.0580 -0.5998
 3084poe    c2315403   1.812   4.886   4.902 -0.2431  0.2163 -0.1942
 3084poe     o215404   1.857   4.896   4.769  0.2130 -0.9898 -0.1453
 3084poe    c2315405   1.745   4.908   4.684  0.1418  0.1921  0.1027
 3084poe    c2315406   1.780   4.932   4.536 -0.1459  0.2774  0.0477
 3084poe     o215407   1.905   4.870   4.515 -0.2929  0.0757 -0.2365
 3084poe    c3115408   1.936   4.844   4.380  0.0368  0.5115 -0.2473
 3085poe    c3115409   0.403   3.203   1.510  0.1819  0.6181 -0.3934
 3085poe     o215410   0.496   3.257   1.419  0.7657 -0.1119 -0.2314
 3085poe    c2315411   0.491   3.397   1.432  0.2801 -0.1227 -0.2739
 3085poe    c2315412   0.589   3.486   1.354  0.0603  0.1655 -0.2214
 3085poe     o215413   0.718   3.485   1.411  0.2060 -0.8173 -0.5519
 3085poe    c2315414   0.816   3.549   1.334  0.7841 -0.3642  0.5394
 3085poe    c2315415   0.835   3.702   1.341  0.2036 -0.2847  0.4563
 3085poe     o215416   0.736   3.782   1.281  0.3537 -0.3014  0.1840
 3085poe    c2315417   0.725   3.899   1.359  0.1127  0.1173 -0.4725
 3085poe    c2315418   0.625   4.002   1.303 -0.0298  0.1706 -0.1244
 3085poe     o215419   0.652   4.058   1.176  0.3204  0.2686 -0.0058
 3085poe    c3115420   0.608   3.982   1.066  0.5400 -0.3172  0.3076
 3086poe    c3115421   0.267   0.872   4.447 -0.1563 -0.2749 -0.5474
 3086poe     o215422   0.332   0.985   4.395 -0.1737 -0.1569 -0.3132
 3086poe    c2315423   0.254   1.014   4.281 -0.7877  0.1072  0.1668
 3086poe    c2315424   0.272   1.165   4.256  0.0972 -0.0510 -0.1966
 3086poe     o215425   0.385   1.202   4.182  0.2009  0.0576  0.0155
 3086poe    c2315426   0.386   1.340   4.151  0.0902  0.0310 -0.1072
 3086poe    c2315427   0.472   1.376   4.029  0.4164  0.2183  0.1771
 3086poe     o215428   0.403   1.342   3.911  0.3658  0.6064  0.0942
 3086poe    c2315429   0.428   1.433   3.806  0.3789  0.2052 -0.2525
 3086poe    c2315430   0.385   1.580   3.818 -0.3507 -0.0107 -0.1564
 3086poe     o215431   0.250   1.610   3.791 -0.4102 -0.1133  0.0258
 3086poe    c3115432   0.236   1.750   3.804 -0.2040 -0.0983  0.0778
 3087poe    c3115433   6.683   1.225   0.480 -0.1471  0.4956 -0.4188
 3087poe     o215434   6.778   1.124   0.455 -0.2255  0.2400  0.2717
 3087poe    c2315435   6.903   1.178   0.420 -0.3242  0.2173 -0.1243
 3087poe    c2315436   7.002   1.063   0.395 -0.4542  0.1080 -0.1318
 3087poe     o215437   6.932   0.960   0.329 -0.1020  0.2181 -0.6841
 3087poe    c2315438   7.029   0.859   0.313  0.0330  0.2123  0.1110
 3087poe    c2315439   6.984   0.750   0.213  0.0838 -0.1500  0.4802
 3087poe     o215440   6.859   0.702   0.259  0.0416  0.2715  0.8147
 3087poe    c2315441   6.818   0.597   0.175  0.1225  0.4987  0.4889
 3087poe    c2315442   6.673   0.574   0.222  0.0932  0.1465  0.2327
 3087poe     o215443   6.585   0.676   0.180 -0.2260 -0.3277 -0.2683
 3087poe    c3115444   6.451   0.631   0.180 -0.6099  0.7822 -0.0308
 3088poe    c3115445   3.045   3.830   0.893  0.1459  0.4562 -0.1377
 3088poe     o215446   2.912   3.870   0.918  0.0137  0.2777 -0.5339
 3088poe    c2315447   2.897   3.890   1.057 -0.0799  0.6944 -0.6046
 3088poe    c2315448   2.752   3.897   1.106 -0.0829 -0.0391 -0.5010
 3088poe     o215449   2.686   3.775   1.081  0.0605 -0.2064 -0.0717
 3088poe    c2315450   2.546   3.783   1.097  0.1069  0.0594  0.2367
 3088poe    c2315451   2.476   3.651   1.057  0.2733  0.0760 -0.1182
 3088poe     o215452   2.472   3.641   0.917 -0.1098 -0.1185 -0.0945
 3088poe    c2315453   2.360   3.564   0.878 -0.0925  0.1729 -0.7389
 3088poe    c2315454   2.307   3.578   0.734 -0.3827 -0.0187 -0.6511
 3088poe     o215455   2.423   3.564   0.655 -0.1159  0.0907 -0.2830
 3088poe    c3115456   2.391   3.579   0.518  0.2718  0.2531 -0.3567
 3089poe    c3115457   2.179   2.809   0.424 -0.0719 -0.3776  0.0015
 3089poe     o215458   2.044   2.815   0.382 -0.1169 -0.5803  0.1138
 3089poe    c2315459   1.993   2.946   0.390  0.1736 -0.4734  0.2403
 3089poe    c2315460   1.844   2.933   0.353  0.1620  0.3068 -0.0151
 3089poe     o215461   1.779   2.876   0.465  0.1990 -0.6752 -0.4852
 3089poe    c2315462   1.644   2.852   0.432 -0.1328  0.1358  0.2590
 3089poe    c2315463   1.578   2.760   0.537 -0.0580 -0.1781  0.0320
 3089poe     o215464   1.632   2.630   0.532  0.4779  0.0464 -0.1290
 3089poe    c2315465   1.548   2.534   0.592 -0.1055  0.7150  0.1358
 3089poe    c2315466   1.551   2.389   0.542 -0.0912  0.5559  0.5903
 3089poe     o215467   1.532   2.361   0.405  0.3713  0.2568  0.5835
 3089poe    c3115468   1.512   2.223   0.384  0.0671  0.4234 -0.2807
 3090poe    c3115469   7.166   1.825   3.516  0.0443 -0.0667 -0.2084
 3090poe     o215470   7.147   1.686   3.504  0.1066 -0.0983  0.0528
 3090poe    c2315471   7.253   1.631   3.429  0.3732  0.4083  0.0535
 3090poe    c2315472   7.231   1.491   3.368 -0.0528  0.3951  0.2332
 3090poe     o215473   7.220   1.389   3.466  0.3280 -0.0883 -0.2213
 3090poe    c2315474   7.205   1.263   3.404 -0.5025  0.0291 -0.2715
 3090poe    c2315475   7.153   1.158   3.505 -0.1656 -0.1212 -0.2543
 3090poe     o215476   7.242   1.145   3.613 -0.3005  0.2644 -0.0938
 3090poe    c2315477   7.190   1.056   3.710 -0.0807 -0.0640 -0.2744
 3090poe    c2315478   7.313   0.993   3.778 -0.0071  0.7352  0.3487
 3090poe     o215479   7.412   1.094   3.788  0.3554  0.4505 -0.3040
 3090poe    c3115480   7.513   1.058   3.879  0.2881 -0.1412 -0.4578
 3091poe    c3115481   6.569   2.697   5.572  0.0370  0.2982  0.1871
 3091poe     o215482   6.688   2.764   5.608  0.1026  0.1356  0.2682
 3091poe    c2315483   6.685   2.897   5.563 -0.1071  0.2360  0.5756
 3091poe    c2315484   6.832   2.943   5.560 -0.0084 -0.0858  0.3878
 3091poe     o215485   6.892   2.889   5.675  0.0575  0.0089  0.3984
 3091poe    c2315486   7.000   2.958   5.734  0.4768 -0.3574  0.0622
 3091poe    c2315487   6.984   2.938   5.886 -0.1088  0.1014  0.0649
 3091poe     o215488   6.955   2.803   5.914  0.0314  0.1227  0.3269
 3091poe    c2315489   7.012   2.759   6.035 -0.3095  0.3877  0.5867
 3091poe    c2315490   6.959   2.616   6.057  0.1235  0.1964  0.4150
 3091poe     o215491   6.818   2.604   6.052  0.1530  0.0475 -0.1679
 3091poe    c3115492   6.787   2.468   6.067 -0.5333  0.1579 -0.5532
 3092poe    c3115493   6.067   3.727   6.269  0.1036 -0.2914 -0.3334
 3092poe     o215494   6.060   3.851   6.203  0.1842 -0.3457 -0.4431
 3092poe    c2315495   6.178   3.919   6.241  0.1970 -0.5032 -0.1975
 3092poe    c2315496   6.211   4.037   6.148 -0.6284 -0.0905  0.0195
 3092poe     o215497   6.125   4.148   6.155 -0.2704  0.1903  0.0127
 3092poe    c2315498   6.182   4.268   6.107 -0.2267  0.0665 -0.2471
 3092poe    c2315499   6.187   4.273   5.953  0.4098  0.4155 -0.2161
 3092poe     o215500   6.062   4.288   5.891  0.3345  0.1669 -0.1266
 3092poe    c2315501   6.067   4.237   5.759  0.4382 -0.0199 -0.0508
 3092poe    c2315502   5.958   4.300   5.670  0.4601 -0.3092 -0.2814
 3092poe     o215503   5.831   4.290   5.729  0.5430  0.3920  0.0275
 3092poe    c3115504   5.721   4.273   5.642  0.3863  0.4639  0.2108
 3093poe    c3115505   4.795   1.186   7.068 -0.2588 -0.3072 -0.6890
 3093poe     o215506   4.669   1.129   7.098 -0.0056 -0.5139 -0.0029
 3093poe    c2315507   4.608   1.069   6.986  0.0122 -0.2785 -0.1396
 3093poe    c2315508   4.473   1.000   7.013 -0.1925  0.3133  0.3555
 3093poe     o215509   4.378   1.094   7.060 -0.2116  0.5866 -0.2219
 3093poe    c2315510   4.275   1.022   7.125  0.0155  0.7910  0.3745
 3093poe    c2315511   4.176   1.121   7.187 -0.8249  0.2638 -0.1051
 3093poe     o215512   4.242   1.210   7.275 -0.6102 -0.5244  0.5442
 3093poe    c2315513   4.145   1.299   7.326 -0.2171  0.2684 -0.0612
 3093poe    c2315514   4.189   1.373   7.453  0.1056  0.0322 -0.0331
 3093poe     o215515   4.224   1.281   7.554  0.1520  0.3804  0.2695
 3093poe    c3115516   4.274   1.340   7.673  0.5378 -0.4033  0.4993
 3094poe    c3115517   1.072   3.744   3.069  0.0639  0.4141  0.1227
 3094poe     o215518   1.077   3.712   2.932 -0.3554 -0.2036  0.2473
 3094poe    c2315519   0.992   3.789   2.850  0.4126  0.2923 -0.0946
 3094poe    c2315520   1.005   3.768   2.698  0.1330 -0.1862 -0.0565
 3094poe     o215521   0.948   3.648   2.652 -0.1322 -0.2254  0.3756
 3094poe    c2315522   1.042   3.550   2.615 -0.1972 -0.0198 -0.3506
 3094poe    c2315523   1.082   3.555   2.467  0.0424 -0.2793 -0.2956
 3094poe     o215524   1.128   3.676   2.413  0.1528 -0.2255 -0.0794
 3094poe    c2315525   1.194   3.670   2.288 -0.2902 -0.4446 -0.3072
 3094poe    c2315526   1.341   3.717   2.288 -0.2436 -0.5525  0.6819
 3094poe     o215527   1.339   3.858   2.301  0.2250 -0.4565 -0.2214
 3094poe    c3115528   1.461   3.896   2.240  0.1441  0.2189  0.0276
 3095poe    c3115529   6.053   6.859   4.776 -0.4180  0.2509  0.1752
 3095poe     o215530   5.984   6.746   4.826  0.2100 -0.3873 -0.3669
 3095poe    c2315531   6.054   6.664   4.916 -0.3930 -0.0720  0.4088
 3095poe    c2315532   5.959   6.571   4.993  0.0494 -0.7669  0.1221
 3095poe     o215533   5.879   6.480   4.919 -0.5842  0.1838 -0.3777
 3095poe    c2315534   5.947   6.373   4.857 -0.1570  0.3119 -0.1383
 3095poe    c2315535   5.893   6.370   4.713 -0.6273  0.3612  0.0344
 3095poe     o215536   5.752   6.364   4.706 -0.6138  0.3701 -0.2583
 3095poe    c2315537   5.704   6.399   4.578 -0.3188  0.2324 -0.4085
 3095poe    c2315538   5.555   6.436   4.584 -0.3439  0.1328 -0.4099
 3095poe     o215539   5.534   6.519   4.696  0.4432 -0.2479  0.0265
 3095poe    c3115540   5.398   6.555   4.699  0.5527  0.1578  0.2353
 3096poe    c3115541   3.775   1.269   0.224  0.5203 -0.0753  0.1090
 3096poe     o215542   3.876   1.192   0.284  0.5228 -0.2870 -0.1645
 3096poe    c2315543   3.865   1.055   0.250  0.4851 -0.1872 -0.5508
 3096poe    c2315544   3.955   0.966   0.338  0.1778  0.2955  0.2594
 3096poe     o215545   3.910   0.981   0.471 -0.1418 -0.5733  0.2522
 3096poe    c2315546   3.978   0.888   0.552  0.2504 -0.1679  0.3921
 3096poe    c2315547   3.910   0.881   0.691 -0.3663  0.0986  0.1058
 3096poe     o215548   3.894   1.015   0.732  0.4268  0.2724 -0.1348
 3096poe    c2315549   3.836   1.030   0.859 -0.3541 -0.0055 -0.4542
 3096poe    c2315550   3.796   1.178   0.873  0.0634  0.0534  0.1356
 3096poe     o215551   3.723   1.221   0.761  0.7892 -0.0146 -0.3665
 3096poe    c3115552   3.671   1.350   0.782 -0.0243 -0.4698  0.4538
 3097poe    c3115553   4.768   4.388   4.951  0.0630 -0.3912  0.2863
 3097poe     o215554   4.868   4.394   5.050 -0.0518 -0.3523  0.3997
 3097poe    c2315555   4.988   4.455   5.010 -0.4492  0.4166  0.3512
 3097poe    c2315556   5.081   4.485   5.129  0.0048 -0.4447  0.2261
 3097poe     o215557   5.125   4.365   5.187  0.6063 -0.2675  0.1500
 3097poe    c2315558   5.246   4.325   5.126  0.2822 -0.4373 -0.3840
 3097poe    c2315559   5.312   4.233   5.230  0.6580  0.1154 -0.1278
 3097poe     o215560   5.214   4.144   5.277  0.9441 -0.2365 -0.1910
 3097poe    c2315561   5.246   4.081   5.399 -0.1725  0.1771  0.3333
 3097poe    c2315562   5.127   3.993   5.440  0.1810 -0.7201 -0.5388
 3097poe     o215563   5.035   4.099   5.438  0.4351 -0.4890 -0.1191
 3097poe    c3115564   4.918   4.048   5.497  0.2951  0.1952  0.2133
 3098poe    c3115565   2.519   1.710   5.821  0.5177  0.1140  0.1795
 3098poe     o215566   2.509   1.575   5.859 -0.2137  0.1289  0.0613
 3098poe    c2315567   2.423   1.508   5.769  0.0245 -0.0330 -0.0469
 3098poe    c2315568   2.472   1.363   5.752  0.2222  0.0452 -0.1388
 3098poe     o215569   2.435   1.283   5.861 -0.1883 -0.2344 -0.4813
 3098poe    c2315570   2.481   1.151   5.844  0.2683 -0.1264 -0.1191
 3098poe    c2315571   2.416   1.053   5.944 -0.0194  0.1248 -0.0595
 3098poe     o215572   2.279   1.031   5.917  0.0862 -0.1080 -0.4064
 3098poe    c2315573   2.221   0.945   6.013 -0.1028  0.1206 -0.3163
 3098poe    c2315574   2.075   0.915   5.976 -0.2779  0.3248  0.2001
 3098poe     o215575   1.990   1.024   6.002 -0.1269  0.5419 -0.2181
 3098poe    c3115576   1.859   0.973   6.019  0.3589 -0.6162  0.0941
 3099poe    c3115577   1.823   1.676   0.048  0.6350  0.3433 -0.8096
 3099poe     o215578   1.940   1.649   0.121 -0.2687 -0.0290  0.5405
 3099poe    c2315579   1.948   1.521   0.180 -0.4142 -0.4118 -0.2611
 3099poe    c2315580   2.082   1.517   0.257 -0.2760  0.3592 -0.4538
 3099poe     o215581   2.086   1.638   0.330 -0.3940  0.3153 -0.3740
 3099poe    c2315582   2.153   1.625   0.453 -0.8121  0.4307 -0.1298
 3099poe    c2315583   2.161   1.763   0.521  0.0931  0.1226  0.4041
 3099poe     o215584   2.190   1.867   0.430  0.0412 -0.1657  0.0559
 3099poe    c2315585   2.261   1.965   0.503  0.6828 -0.5245 -0.0697
 3099poe    c2315586   2.313   2.066   0.399 -0.3231  0.2938  0.2068
 3099poe     o215587   2.417   2.023   0.315 -0.2102  0.0169  0.4902
 3099poe    c3115588   2.467   2.125   0.232 -0.0248 -0.4025  0.0801
 3100poe    c3115589   6.309   5.349   0.766  0.0936  0.2100  0.4688
 3100poe     o215590   6.332   5.221   0.820  0.2235  0.1173  0.1946
 3100poe    c2315591   6.402   5.219   0.943  0.5439  0.1763  0.0149
 3100poe    c2315592   6.356   5.089   1.011 -0.2487  0.4401  0.0015
 3100poe     o215593   6.419   4.970   0.969 -0.4073  0.3241  0.0921
 3100poe    c2315594   6.384   4.876   1.068 -0.0242  0.0238 -0.0533
 3100poe    c2315595   6.439   4.738   1.027  0.4349  0.1616  0.0979
 3100poe     o215596   6.369   4.679   0.920  0.1274 -0.0425  0.4108
 3100poe    c2315597   6.419   4.549   0.898  0.2082 -0.0283  0.5108
 3100poe    c2315598   6.341   4.479   0.786  0.1791 -0.0487  0.5437
 3100poe     o215599   6.375   4.542   0.664  0.3045 -0.4813  0.3506
 3100poe    c3115600   6.347   4.467   0.548 -0.4890  0.2139  0.0854
 3101poe    c3115601   4.611   6.107   6.168  0.1910  0.2759  0.1414
 3101poe     o215602   4.624   6.055   6.038 -0.0405 -0.1484  0.2859
 3101poe    c2315603   4.754   6.019   5.997 -0.0717 -0.1021  0.1459
 3101poe    c2315604   4.757   5.902   5.896  0.2922  0.1616 -0.1530
 3101poe     o215605   4.705   5.922   5.766 -0.2939 -0.1661  0.0271
 3101poe    c2315606   4.622   5.814   5.731  0.1068 -0.4410 -0.0868
 3101poe    c2315607   4.565   5.830   5.589 -0.2553  0.7298  0.1821
 3101poe     o215608   4.672   5.834   5.497 -0.2441  0.4559  0.1828
 3101poe    c2315609   4.631   5.863   5.365  0.2865  0.0574 -0.0733
 3101poe    c2315610   4.730   5.954   5.290  0.0331  0.2782 -0.1412
 3101poe     o215611   4.749   6.078   5.355  0.1080  0.1993 -0.0119
 3101poe    c3115612   4.763   6.194   5.277  0.6365  0.4261  0.4126
 3102poe    c3115613   1.204   5.614   5.367 -0.1918  0.6296  0.6644
 3102poe     o215614   1.117   5.682   5.280 -0.0093  0.3007  0.2208
 3102poe    c2315615   1.023   5.591   5.226  0.1109  0.3393 -0.0570
 3102poe    c2315616   0.881   5.626   5.275 -0.0291 -0.5005  0.1546
 3102poe     o215617   0.833   5.744   5.216 -0.7462 -0.5328  0.6541
 3102poe    c2315618   0.714   5.785   5.278 -0.7409  0.1559  0.2209
 3102poe    c2315619   0.667   5.924   5.229 -0.5817  0.2033  0.2027
 3102poe     o215620   0.755   6.030   5.260 -0.4274  0.1475 -0.0422
 3102poe    c2315621   0.712   6.148   5.195 -0.0269 -0.0928 -0.7513
 3102poe    c2315622   0.831   6.244   5.179 -0.2788  0.2616 -0.5082
 3102poe     o215623   0.930   6.178   5.103  0.2035  0.4438 -0.0433
 3102poe    c3115624   1.025   6.275   5.065  0.8972 -0.1411  0.1847
 3103poe    c3115625   6.199   0.889   1.262 -0.4872 -0.0241 -0.7707
 3103poe     o215626   6.113   0.785   1.304 -0.3063  0.1222 -0.0128
 3103poe    c2315627   5.998   0.840   1.362 -0.1883  0.5740 -0.2050
 3103poe    c2315628   5.891   0.740   1.410  0.1309  0.4223  0.1965
 3103poe     o215629   5.939   0.664   1.519  0.1919  0.3165  0.0956
 3103poe    c2315630   5.920   0.528   1.486 -0.1759  0.3461  0.1737
 3103poe    c2315631   5.941   0.427   1.600  0.0519  0.0720 -0.1072
 3103poe     o215632   6.075   0.420   1.643 -0.1011 -0.3093  0.3171
 3103poe    c2315633   6.087   0.304   1.722 -0.4020 -0.3999  0.2297
 3103poe    c2315634   6.209   0.289   1.814  0.0401  0.5545 -0.1930
 3103poe     o215635   6.320   0.222   1.759 -0.4102  0.3522 -0.8592
 3103poe    c3115636   6.427   0.214   1.850 -0.9591  0.1330 -0.2221
 3104poe    c3115637   3.613   2.075   4.884  0.4774 -0.1830 -0.1784
 3104poe     o215638   3.624   2.214   4.908 -0.1287 -0.1681  0.0387
 3104poe    c2315639   3.709   2.270   4.812  0.0992 -0.2840  0.1707
 3104poe    c2315640   3.746   2.418   4.838 -0.2868 -0.1583  0.0191
 3104poe     o215641   3.810   2.445   4.961  0.3130  0.2565 -0.3813
 3104poe    c2315642   3.934   2.389   4.998  0.0640 -0.1149 -0.1161
 3104poe    c2315643   4.065   2.433   4.930  0.1877  0.0805  0.2487
 3104poe     o215644   4.052   2.574   4.932 -0.0320  0.0686 -0.2276
 3104poe    c2315645   4.145   2.647   4.856 -0.1287 -0.2361 -0.6446
 3104poe    c2315646   4.143   2.800   4.876  0.7444 -0.2426 -0.4633
 3104poe     o215647   4.166   2.842   5.008  0.0746 -0.1355 -0.3745
 3104poe    c3115648   4.152   2.982   5.009  0.8530 -0.0505  0.3879
 3105poe    c3115649   3.535   0.866   6.387  0.4103 -0.2370 -0.5095
 3105poe     o215650   3.616   0.785   6.469  0.2873  0.0977 -0.0556
 3105poe    c2315651   3.660   0.668   6.405  0.0978 -0.0322  0.0479
 3105poe    c2315652   3.734   0.566   6.493  0.0048 -0.0597  0.0938
 3105poe     o215653   3.838   0.647   6.543  0.1808 -0.1727 -0.0862
 3105poe    c2315654   3.920   0.579   6.635  0.3172  0.0936 -0.0106
 3105poe    c2315655   4.028   0.682   6.676  0.1765  0.1716  0.1700
 3105poe     o215656   4.102   0.715   6.561 -0.4687  0.0551 -0.2889
 3105poe    c2315657   4.222   0.783   6.591 -0.0793 -0.5482 -0.4426
 3105poe    c2315658   4.328   0.764   6.481 -0.0887 -0.2183 -0.5091
 3105poe     o215659   4.256   0.805   6.367  0.2807  0.5794 -0.4673
 3105poe    c3115660   4.351   0.811   6.263  0.6035 -0.5542 -0.2510
 3106poe    c3115661   4.090   1.363   5.533 -0.1810  0.3271  0.5845
 3106poe     o215662   4.196   1.395   5.446  0.0954 -0.1003  0.7581
 3106poe    c2315663   4.189   1.533   5.418 -0.3258 -0.1960  0.3753
 3106poe    c2315664   4.268   1.539   5.286 -0.3035 -0.3567  0.3815
 3106poe     o215665   4.399   1.493   5.314 -0.0340  0.2058  0.0791
 3106poe    c2315666   4.489   1.489   5.206 -0.3388  0.3991 -0.1830
 3106poe    c2315667   4.615   1.433   5.273 -0.2279  0.1848 -0.5672
 3106poe     o215668   4.577   1.316   5.342  0.7518 -0.0821 -0.4597
 3106poe    c2315669   4.675   1.215   5.343  0.1558 -0.6611  0.1381
 3106poe    c2315670   4.758   1.213   5.473 -0.6823 -0.0299  0.6971
 3106poe     o215671   4.848   1.315   5.506  0.0864 -0.3940 -0.2220
 3106poe    c3115672   4.800   1.421   5.586 -0.3310 -0.4661 -0.3800
 3107poe    c3115673   2.023   3.197   5.873  0.2907  0.4720 -0.5751
 3107poe     o215674   2.093   3.303   5.935  0.4586  0.1642 -0.2365
 3107poe    c2315675   2.160   3.238   6.041 -0.0489  0.1092  0.0512
 3107poe    c2315676   2.230   3.339   6.134  0.2197 -0.4028  0.4046
 3107poe     o215677   2.343   3.409   6.087 -0.1595 -0.0458  0.0203
 3107poe    c2315678   2.455   3.325   6.105 -0.1827  0.1000  0.8731
 3107poe    c2315679   2.576   3.417   6.129  0.5032 -0.3993 -0.5721
 3107poe     o215680   2.599   3.510   6.026  0.1970  0.0004 -0.2826
 3107poe    c2315681   2.726   3.569   6.049  0.4211 -0.4384 -0.3895
 3107poe    c2315682   2.758   3.695   5.967 -0.3118 -0.1997 -0.3215
 3107poe     o215683   2.800   3.685   5.833  0.0482 -0.2236 -0.2085
 3107poe    c3115684   2.839   3.814   5.791 -0.0695 -0.0992  0.0678
 3108poe    c3115685   1.554   1.501   3.948 -0.2684 -0.3562 -0.7491
 3108poe     o215686   1.423   1.461   3.981 -0.1417  0.1096  0.3658
 3108poe    c2315687   1.398   1.326   3.947  0.0905  0.1781 -0.0774
 3108poe    c2315688   1.260   1.268   3.983  0.1017 -0.2779 -0.7441
 3108poe     o215689   1.142   1.333   3.941 -0.0691 -0.3570 -0.3875
 3108poe    c2315690   1.020   1.265   3.965  0.0322 -0.3371  0.1956
 3108poe    c2315691   0.913   1.329   3.875  0.4227  0.0953  0.0329
 3108poe     o215692   0.914   1.468   3.896  0.1268  0.0518  0.3465
 3108poe    c2315693   0.818   1.541   3.822  0.2782 -0.0578  0.0401
 3108poe    c2315694   0.826   1.690   3.858 -0.1164  0.0513 -0.3147
 3108poe     o215695   0.940   1.752   3.804  0.0008 -0.0755 -0.2115
 3108poe    c3115696   0.904   1.876   3.749 -0.7511 -0.0575  0.3196
 3109poe    c3115697   6.092   6.111   3.685  0.2431  0.3861 -0.3782
 3109poe     o215698   6.038   5.981   3.684  0.8206  0.1401 -0.0148
 3109poe    c2315699   6.121   5.889   3.752  0.4787  0.0824  0.3277
 3109poe    c2315700   6.092   5.877   3.903 -0.0126 -0.0225  0.2262
 3109poe     o215701   5.968   5.812   3.917 -0.0141 -0.1077 -0.1683
 3109poe    c2315702   5.974   5.754   4.045 -0.2086 -0.0440 -0.1305
 3109poe    c2315703   5.872   5.638   4.060 -0.1078 -0.1388 -0.1782
 3109poe     o215704   5.898   5.524   3.981 -0.1763 -0.3947  0.1704
 3109poe    c2315705   5.996   5.439   4.037  0.1392  0.0513  0.2958
 3109poe    c2315706   6.006   5.295   3.985 -0.3092  0.0429  0.2291
 3109poe     o215707   5.893   5.223   4.029  0.0361 -0.7426 -0.1590
 3109poe    c3115708   5.869   5.104   3.957 -0.6344 -0.1982 -0.8461
 3110poe    c3115709   0.329   6.292   4.927  0.4910 -0.4515  0.4676
 3110poe     o215710   0.444   6.273   4.847 -0.0247  0.0370 -0.4028
 3110poe    c2315711   0.464   6.375   4.752 -0.1625 -0.2916 -0.7855
 3110poe    c2315712   0.597   6.389   4.674  0.0766  0.4095 -0.2599
 3110poe     o215713   0.614   6.275   4.593  0.2943 -0.1745  0.6009
 3110poe    c2315714   0.734   6.293   4.522  0.0134 -0.1424  0.1284
 3110poe    c2315715   0.777   6.159   4.458  0.0882 -0.0316 -0.0530
 3110poe     o215716   0.767   6.062   4.560  0.0718 -0.2878 -0.2977
 3110poe    c2315717   0.856   5.953   4.554 -0.0950 -0.4184 -0.4235
 3110poe    c2315718   0.830   5.854   4.669  0.0303  0.0200 -0.0163
 3110poe     o215719   0.689   5.847   4.676  0.0098 -0.1437 -0.5699
 3110poe    c3115720   0.646   5.738   4.754  0.2605  0.0626 -0.1362
 3111poe    c3115721   5.719   1.531   6.098  0.4261 -0.1332 -0.2790
 3111poe     o215722   5.582   1.563   6.098  0.3873 -0.2825  0.1416
 3111poe    c2315723   5.566   1.703   6.089  0.3080 -0.3063 -0.0984
 3111poe    c2315724   5.446   1.758   6.010  0.4675  0.1051 -0.0607
 3111poe     o215725   5.459   1.747   5.870  0.1281  0.3445 -0.1115
 3111poe    c2315726   5.340   1.793   5.810 -0.4217 -0.4825  0.3291
 3111poe    c2315727   5.333   1.807   5.656  0.1609 -0.5622  0.2938
 3111poe     o215728   5.380   1.685   5.604  0.1281 -0.5617  0.2629
 3111poe    c2315729   5.365   1.684   5.464 -0.0173 -0.7459  0.2793
 3111poe    c2315730   5.450   1.567   5.410 -0.0142 -0.6081 -0.0145
 3111poe     o215731   5.432   1.460   5.500  0.0433 -0.3321  0.3301
 3111poe    c3115732   5.456   1.327   5.461  0.1339 -0.3619  0.4869
 3112poe    c3115733   2.691   2.287   1.913  0.1408 -0.0592  0.0516
 3112poe     o215734   2.760   2.352   1.809  0.0520 -0.4540 -0.2579
 3112poe    c2315735   2.886   2.399   1.851 -0.2008 -0.1400  0.1491
 3112poe    c2315736   2.986   2.389   1.735  0.3786  0.2554  0.6087
 3112poe     o215737   2.972   2.505   1.656 -0.6027 -0.1244  0.2185
 3112poe    c2315738   2.941   2.467   1.524  0.3274  0.0178 -0.0420
 3112poe    c2315739   2.919   2.593   1.438 -0.0778  0.3998  0.6163
 3112poe     o215740   2.810   2.668   1.486 -0.3682  0.0123  0.5723
 3112poe    c2315741   2.789   2.792   1.421 -0.0152 -0.2190  0.0111
 3112poe    c2315742   2.720   2.785   1.284  0.1978  0.2569 -0.1200
 3112poe     o215743   2.591   2.727   1.288  0.0890  0.5454  0.6266
 3112poe    c3115744   2.536   2.723   1.158  0.0473 -0.0017  0.6618
 3113poe    c3115745   6.207   5.706   4.843 -0.0304 -0.3550 -0.1475
 3113poe     o215746   6.262   5.824   4.787 -0.0070 -0.1145  0.3732
 3113poe    c2315747   6.361   5.799   4.690 -0.1911 -0.5974  0.3037
 3113poe    c2315748   6.494   5.825   4.764 -0.1393  0.2154 -0.0672
 3113poe     o215749   6.491   5.956   4.817 -0.3484  0.2600 -0.1841
 3113poe    c2315750   6.624   5.999   4.837 -0.3269 -0.0257  0.3360
 3113poe    c2315751   6.632   6.145   4.887 -0.0743  0.2522 -0.4861
 3113poe     o215752   6.553   6.138   5.004  0.0500  0.2860 -0.3987
 3113poe    c2315753   6.510   6.264   5.051 -0.4757  0.1084 -0.3935
 3113poe    c2315754   6.395   6.262   5.154 -0.3742  0.2028 -0.2777
 3113poe     o215755   6.269   6.216   5.111 -0.4260  0.0153  0.0735
 3113poe    c3115756   6.172   6.288   5.184 -0.1867  0.3937  0.0215
 3114poe    c3115757   4.383   4.164   0.324 -0.3377  0.0364 -0.1469
 3114poe     o215758   4.318   4.204   0.443 -0.0703 -0.2157  0.0850
 3114poe    c2315759   4.257   4.093   0.506  0.4678 -0.2982  0.4642
 3114poe    c2315760   4.221   4.133   0.650 -0.0932 -0.7298  0.4450
 3114poe     o215761   4.151   4.254   0.638  0.2024 -0.5770  0.2558
 3114poe    c2315762   4.090   4.296   0.758 -0.4538  0.1094 -0.3066
 3114poe    c2315763   4.033   4.438   0.743 -0.3937  0.1596 -0.0737
 3114poe     o215764   4.092   4.518   0.643 -0.4748 -0.1639 -0.3818
 3114poe    c2315765   4.073   4.657   0.649  0.5397 -0.0525  0.5406
 3114poe    c2315766   4.133   4.721   0.523 -0.1483 -0.1506  0.1604
 3114poe     o215767   4.272   4.694   0.515 -0.1113  0.0431  0.1509
 3114poe    c3115768   4.332   4.745   0.399 -0.0259  0.8663  0.5451
 3115poe    c3115769   4.720   2.455   5.273  0.3396 -0.6932  0.4151
 3115poe     o215770   4.622   2.417   5.367 -0.1122 -0.0252  0.2152
 3115poe    c2315771   4.595   2.280   5.350  0.3523 -0.0646 -0.2260
 3115poe    c2315772   4.452   2.252   5.401  0.5049 -0.7551 -0.1671
 3115poe     o215773   4.430   2.323   5.521  0.4243 -0.0709 -0.5798
 3115poe    c2315774   4.293   2.326   5.555  0.5831 -0.1363  0.0926
 3115poe    c2315775   4.212   2.427   5.471  0.5794  0.1260  0.4105
 3115poe     o215776   4.271   2.554   5.487  0.1260  0.3344  0.4192
 3115poe    c2315777   4.223   2.642   5.388  0.0903  0.0295  0.1618
 3115poe    c2315778   4.325   2.661   5.274 -0.0529 -0.3089 -0.0220
 3115poe     o215779   4.426   2.744   5.327  0.0074 -0.1496 -0.3841
 3115poe    c3115780   4.538   2.768   5.245  0.0302 -0.4919 -0.4555
 3116poe    c3115781   1.624   7.201   1.998 -0.1731 -0.1293 -0.2839
 3116poe     o215782   1.605   7.140   1.872 -0.3925 -0.2259 -0.2059
 3116poe    c2315783   1.564   7.008   1.899 -0.0830 -0.2025  0.4077
 3116poe    c2315784   1.538   6.925   1.772  0.8007 -0.3912  0.3454
 3116poe     o215785   1.656   6.910   1.696  0.4780 -0.0879 -0.2171
 3116poe    c2315786   1.651   6.844   1.571 -0.3535  0.1129 -0.2956
 3116poe    c2315787   1.782   6.772   1.536 -0.4592 -0.3187  0.1793
 3116poe     o215788   1.879   6.855   1.476 -0.5557 -0.4916 -0.2239
 3116poe    c2315789   1.979   6.790   1.401  0.0356  0.3549 -0.1797
 3116poe    c2315790   2.080   6.885   1.334  0.3412 -0.2787 -0.6298
 3116poe     o215791   2.184   6.905   1.426  0.2172 -0.8347 -0.3659
 3116poe    c3115792   2.286   6.989   1.376 -0.2092 -0.0099  0.1215
 3117poe    c3115793   3.751   6.953   1.381 -0.3342 -0.0042 -0.5616
 3117poe     o215794   3.875   7.007   1.339 -0.1420  0.0334  0.0530
 3117poe    c2315795   3.914   7.118   1.417 -0.0229 -0.0773  0.1508
 3117poe    c2315796   4.067   7.127   1.422 -0.0159  0.2073 -0.4506
 3117poe     o215797   4.150   7.151   1.310  0.4274  0.3772 -0.0916
 3117poe    c2315798   4.118   7.271   1.244 -0.3848  0.2156 -0.0054
 3117poe    c2315799   4.189   7.282   1.108 -0.0129  0.2591  0.1912
 3117poe     o215800   4.134   7.192   1.014 -0.2672  0.7359 -0.1205
 3117poe    c2315801   4.219   7.162   0.905 -0.5079  0.4587 -0.2301
 3117poe    c2315802   4.141   7.113   0.782  0.6135 -0.1389 -0.7200
 3117poe     o215803   4.067   7.006   0.836  0.4092  0.5017  0.2991
 3117poe    c3115804   4.016   6.920   0.736  0.1564  1.0344 -0.0363
 3118poe    c3115805   7.028   0.824   2.086 -0.1717 -0.4237  0.2418
 3118poe     o215806   7.156   0.776   2.123 -0.0664 -0.4375 -0.1381
 3118poe    c2315807   7.171   0.640   2.087 -0.6594 -0.7551  0.7763
 3118poe    c2315808   7.301   0.581   2.145  0.2593  0.3134 -0.1463
 3118poe     o215809   7.294   0.565   2.285 -0.0734  0.0907 -0.1858
 3118poe    c2315810   7.407   0.491   2.327 -0.1457  0.2828  0.3579
 3118poe    c2315811   7.394   0.453   2.476  0.5107 -0.7495  0.1574
 3118poe     o215812   7.427   0.558   2.564 -0.5476 -0.2318 -0.0499
 3118poe    c2315813   7.451   0.480   2.680  0.1626 -0.0014 -0.0383
 3118poe    c2315814   7.494   0.550   2.810  0.6265 -0.2298 -0.0663
 3118poe     o215815   7.390   0.616   2.880  0.4122 -0.1744 -0.4334
 3118poe    c3115816   7.461   0.701   2.969  0.0051  0.5635 -0.8070
 3119poe    c3115817   0.068   5.264   5.997  0.6070  0.6468 -0.2352
 3119poe     o215818  -0.017   5.319   6.095  0.7730 -0.3373  0.4761
 3119poe    c2315819  -0.062   5.206   6.167 -0.8257 -0.2565 -0.3348
 3119poe    c2315820  -0.160   5.234   6.282 -0.1674  0.4009  0.0750
 3119poe     o215821  -0.164   5.127   6.374 -0.0050  0.4813  0.1767
 3119poe    c2315822  -0.292   5.137   6.433 -0.0789  0.4228  0.0261
 3119poe    c2315823  -0.330   4.992   6.466  0.1248  0.3628  0.0008
 3119poe     o215824  -0.230   4.919   6.534  0.4197  0.1657 -0.6301
 3119poe    c2315825  -0.264   4.792   6.586  0.1779  0.3868 -0.2419
 3119poe    c2315826  -0.147   4.720   6.655  0.4065  0.5768 -0.4301
 3119poe     o215827  -0.041   4.673   6.575  0.1784 -0.2244 -0.2767
 3119poe    c3115828   0.015   4.563   6.643 -0.3367 -0.1442  0.2799
 3120poe    c3115829   4.136   0.235   1.704  0.2971 -0.4148  0.0034
 3120poe     o215830   4.150   0.361   1.643 -0.0868 -0.2646  0.2218
 3120poe    c2315831   4.288   0.389   1.628 -0.1445 -0.2194 -0.2555
 3120poe    c2315832   4.359   0.500   1.707 -0.0762 -0.3040 -0.1977
 3120poe     o215833   4.362   0.466   1.844 -0.0679 -0.1401 -0.1573
 3120poe    c2315834   4.407   0.566   1.933 -0.1195 -0.3956  0.1570
 3120poe    c2315835   4.307   0.576   2.050  0.0354 -0.1644  0.2700
 3120poe     o215836   4.177   0.618   2.016  0.1521 -0.4546 -0.5516
 3120poe    c2315837   4.101   0.614   2.135  0.2105  0.2237 -0.4896
 3120poe    c2315838   3.973   0.699   2.138  0.1188  0.0804 -0.3864
 3120poe     o215839   3.859   0.646   2.074 -0.4005  0.3569  0.3012
 3120poe    c3115840   3.747   0.713   2.129 -0.3762  0.9388 -0.3405
 3121poe    c3115841   2.401   6.064   0.220  0.6862 -0.3554 -0.2931
 3121poe     o215842   2.462   6.090   0.095 -0.0901 -0.1192 -0.6252
 3121poe    c2315843   2.549   6.201   0.094  0.3010 -0.4185 -0.0044
 3121poe    c2315844   2.624   6.208  -0.040  0.0812 -0.5163 -0.1330
 3121poe     o215845   2.573   6.293  -0.141 -0.0353  0.0939  0.4347
 3121poe    c2315846   2.653   6.406  -0.167 -0.3189  0.2919  0.4157
 3121poe    c2315847   2.595   6.468  -0.296 -0.0852 -0.1037  0.1153
 3121poe     o215848   2.584   6.374  -0.400  0.5329  0.2237 -0.2456
 3121poe    c2315849   2.518   6.432  -0.510  0.4309  1.0578  0.2467
 3121poe    c2315850   2.494   6.334  -0.626  0.4357  0.0519  1.0845
 3121poe     o215851   2.429   6.218  -0.578 -0.2925  0.0138  0.0586
 3121poe    c3115852   2.441   6.113  -0.671  0.3919 -0.3926  0.5941
 3122poe    c3115853   3.384   1.909   2.049  0.1533  0.3251  0.8157
 3122poe     o215854   3.500   1.955   1.983  0.1555 -0.6169  0.1291
 3122poe    c2315855   3.485   2.095   1.973  0.2106 -0.5871  0.4594
 3122poe    c2315856   3.560   2.131   1.843  0.0197 -0.8191  0.2859
 3122poe     o215857   3.701   2.140   1.849 -0.0201  0.0974 -0.0704
 3122poe    c2315858   3.755   2.126   1.720 -0.1089 -0.3912 -0.0570
 3122poe    c2315859   3.908   2.111   1.727 -0.0048  0.4681 -0.3044
 3122poe     o215860   3.923   1.991   1.799  0.1794  0.4798 -0.3241
 3122poe    c2315861   4.055   1.944   1.779 -0.0948 -0.1113 -0.7725
 3122poe    c2315862   4.067   1.794   1.812 -0.5740 -0.0266 -0.1892
 3122poe     o215863   3.996   1.771   1.932 -0.5730  0.1860 -0.1479
 3122poe    c3115864   3.984   1.631   1.942  0.2802  0.1152 -0.0265
 3123poe    c3115865   6.631   6.649   2.183 -0.0592 -0.1870  0.1348
 3123poe     o215866   6.638   6.750   2.281 -0.4427 -0.4601  0.4460
 3123poe    c2315867   6.765   6.759   2.342 -0.3591 -0.2431  0.2391
 3123poe    c2315868   6.747   6.850   2.465 -0.0694 -0.1164  0.1895
 3123poe     o215869   6.672   6.964   2.429  0.0041  0.2039  1.0160
 3123poe    c2315870   6.636   7.052   2.532 -0.5616  0.3003  0.7402
 3123poe    c2315871   6.590   7.192   2.488  0.0493  0.1393 -0.4469
 3123poe     o215872   6.475   7.177   2.409 -0.0782 -0.1477 -0.2071
 3123poe    c2315873   6.425   7.292   2.345 -0.0877 -0.0860 -0.0902
 3123poe    c2315874   6.320   7.268   2.234 -0.4350  0.0114  0.2147
 3123poe     o215875   6.338   7.159   2.147 -0.3216  0.1313  0.0870
 3123poe    c3115876   6.231   7.149   2.056 -0.3862 -0.5032  0.2268
 3124poe    c3115877   4.831   0.006   0.902 -0.0068 -0.0716 -0.0084
 3124poe     o215878   4.819  -0.061   0.779 -0.1072  0.1147 -0.1008
 3124poe    c2315879   4.741  -0.179   0.788 -0.4661  0.3865  0.3979
 3124poe    c2315880   4.717  -0.243   0.650 -0.1228  0.6363  0.2208
 3124poe     o215881   4.830  -0.238   0.566 -0.2658  0.4197  0.0164
 3124poe    c2315882   4.813  -0.333   0.464 -0.0536  0.0579  0.3144
 3124poe    c2315883   4.891  -0.280   0.342 -0.2723 -0.3614 -0.0151
 3124poe     o215884   5.021  -0.248   0.389 -0.4338 -0.1751  0.3100
 3124poe    c2315885   5.116  -0.193   0.301 -0.5550 -0.0776  0.2383
 3124poe    c2315886   5.240  -0.134   0.370 -0.7075  0.0837  0.3730
 3124poe     o215887   5.176  -0.053   0.466 -0.4766  0.0344  0.5724
 3124poe    c3115888   5.258   0.059   0.491 -0.0515 -0.2244  0.3411
 3125poe    c3115889   6.795   1.267   7.225  0.2945  0.1317 -0.1246
 3125poe     o215890   6.717   1.306   7.114  0.2060  0.3751  0.0239
 3125poe    c2315891   6.776   1.293   6.987 -0.1295 -0.6853 -0.0295
 3125poe    c2315892   6.685   1.339   6.871 -0.1107  0.3363  0.3528
 3125poe     o215893   6.555   1.286   6.878 -0.1058  0.3240  0.3426
 3125poe    c2315894   6.485   1.343   6.769  0.0436  0.4166  0.2961
 3125poe    c2315895   6.331   1.343   6.778 -0.0026 -0.2631 -0.3931
 3125poe     o215896   6.280   1.417   6.887 -0.0432 -0.5357 -0.2266
 3125poe    c2315897   6.141   1.391   6.891 -0.1232 -0.0275  0.5376
 3125poe    c2315898   6.072   1.502   6.971  0.2029  0.1170  0.6203
 3125poe     o215899   6.100   1.482   7.108 -0.1417 -0.2099  0.6431
 3125poe    c3115900   6.153   1.605   7.152 -0.6184  0.3417 -0.2980
 3126poe    c3115901   3.294   3.256   0.135  0.2874 -0.0843  1.0941
 3126poe     o215902   3.353   3.129   0.129  0.3450 -0.0211  0.2191
 3126poe    c2315903   3.306   3.051   0.236 -0.1971  0.0564  0.0401
 3126poe    c2315904   3.375   2.913   0.242 -0.1409  0.0960  0.3155
 3126poe     o215905   3.328   2.818   0.149 -0.2047  0.5431 -0.1157
 3126poe    c2315906   3.410   2.704   0.140 -0.7326  0.1405  0.1066
 3126poe    c2315907   3.387   2.634   0.005 -0.3317 -0.2602  0.2432
 3126poe     o215908   3.423   2.722  -0.099 -0.2169  0.0380  0.5334
 3126poe    c2315909   3.417   2.655  -0.223 -0.1036 -0.0044  0.5513
 3126poe    c2315910   3.440   2.747  -0.344  0.2215 -0.5415  0.1999
 3126poe     o215911   3.556   2.827  -0.332 -0.0814 -0.0314 -0.2471
 3126poe    c3115912   3.640   2.821  -0.445 -0.1121 -0.0986 -0.2660
 3127poe    c3115913   0.542   0.727   5.967 -0.5190  0.4025  0.0513
 3127poe     o215914   0.679   0.755   5.948 -0.3640 -0.1219  0.3942
 3127poe    c2315915   0.753   0.637   5.924 -0.1493  0.0800  0.0569
 3127poe    c2315916   0.895   0.648   5.866 -0.1679 -0.5582 -0.1171
 3127poe     o215917   0.955   0.768   5.909 -0.5408 -0.3364 -0.2098
 3127poe    c2315918   1.080   0.784   5.846 -0.2969 -0.1305  0.3176
 3127poe    c2315919   1.161   0.904   5.898  0.0785 -0.3431  0.2236
 3127poe     o215920   1.064   1.005   5.907  0.6608  0.2213  0.2446
 3127poe    c2315921   1.108   1.139   5.914  0.2390  0.3605  0.2960
 3127poe    c2315922   0.995   1.239   5.942 -0.4794 -0.2687 -0.3069
 3127poe     o215923   0.880   1.223   5.862 -0.0789 -0.0822 -0.9261
 3127poe    c3115924   0.845   1.339   5.789  0.4049  0.4010 -0.4051
 3128poe    c3115925   4.189   1.859   6.884  0.0899 -0.3982  0.6318
 3128poe     o215926   4.123   1.801   6.993 -0.1522  0.3082  0.8701
 3128poe    c2315927   4.186   1.818   7.119  0.0929  0.4300  0.7316
 3128poe    c2315928   4.119   1.708   7.204 -0.1933  0.1151  0.1101
 3128poe     o215929   3.980   1.708   7.181 -0.1184 -0.1174 -0.3505
 3128poe    c2315930   3.921   1.616   7.269 -0.0233  0.0433 -0.1176
 3128poe    c2315931   3.773   1.587   7.238 -0.0929 -0.1093  0.3540
 3128poe     o215932   3.748   1.556   7.103  0.0988 -0.0155  0.2964
 3128poe    c2315933   3.614   1.528   7.070  0.2264 -0.5695  0.2316
 3128poe    c2315934   3.588   1.484   6.925  0.3068 -0.1150  0.0773
 3128poe     o215935   3.605   1.576   6.820 -0.0705  0.2555  0.3408
 3128poe    c3115936   3.604   1.508   6.697 -0.7215  0.2956  0.3222
 3129poe    c3115937   5.438   3.954   5.039  0.0496  0.2439 -0.8779
 3129poe     o215938   5.355   3.840   5.038  0.4069 -0.0316 -0.1890
 3129poe    c2315939   5.222   3.888   5.045  0.3394 -0.1948 -0.3408
 3129poe    c2315940   5.118   3.778   5.018 -0.3961  0.3245  0.3088
 3129poe     o215941   5.151   3.661   5.090  0.0681  0.2388 -0.0366
 3129poe    c2315942   5.051   3.567   5.057  0.0475  0.1843  0.1793
 3129poe    c2315943   5.116   3.431   5.088 -0.1355  0.0219 -0.1361
 3129poe     o215944   5.245   3.419   5.032 -0.1175 -0.1734 -0.0513
 3129poe    c2315945   5.310   3.303   5.079 -0.5859 -0.4727 -0.1259
 3129poe    c2315946   5.408   3.249   4.973  0.1798 -0.2323  0.4477
 3129poe     o215947   5.508   3.339   4.930 -0.4297  0.1631 -0.1694
 3129poe    c3115948   5.598   3.257   4.858 -0.3079  0.0747  0.0837
 3130poe    c3115949   3.039   1.987   2.149 -0.1795  0.3566 -0.1752
 3130poe     o215950   2.948   1.886   2.187 -0.5315  0.3057 -1.1203
 3130poe    c2315951   2.899   1.910   2.318  0.2115 -0.1166 -0.7580
 3130poe    c2315952   2.806   1.795   2.360 -0.1388  0.3828 -0.1558
 3130poe     o215953   2.860   1.667   2.334  0.2994  0.4372  0.4610
 3130poe    c2315954   2.751   1.580   2.356  0.3705  0.1863 -0.1552
 3130poe    c2315955   2.783   1.432   2.329  0.4919  0.0752  0.5887
 3130poe     o215956   2.831   1.422   2.197 -0.6995 -0.2575  0.1645
 3130poe    c2315957   2.792   1.304   2.130 -0.5662 -0.2028 -0.0115
 3130poe    c2315958   2.881   1.262   2.012  0.1523  0.5299  0.2571
 3130poe     o215959   2.897   1.365   1.917  0.0284  0.5858  0.2968
 3130poe    c3115960   2.794   1.373   1.822  0.3818 -0.4908 -0.1875
 3131poe    c3115961   6.725   1.246   3.221  0.7086  0.1204  0.1069
 3131poe     o215962   6.677   1.350   3.138  0.3595  0.2340  0.4462
 3131poe    c2315963   6.786   1.437   3.120 -0.2251  0.7242 -0.8587
 3131poe    c2315964   6.818   1.529   3.239  0.3876  0.0619 -0.4981
 3131poe     o215965   6.710   1.618   3.261  0.2068 -0.3570  0.3399
 3131poe    c2315966   6.741   1.742   3.322 -0.4274  0.0896 -0.2451
 3131poe    c2315967   6.796   1.755   3.464  0.5051 -1.2755 -0.4661
 3131poe     o215968   6.705   1.687   3.548 -0.2075  0.6476  0.3764
 3131poe    c2315969   6.695   1.728   3.683  0.1924 -0.0439  0.6232
 3131poe    c2315970   6.579   1.658   3.754  0.2107 -0.4725  0.2322
 3131poe     o215971   6.595   1.523   3.716 -0.2882 -0.3781 -0.3316
 3131poe    c3115972   6.518   1.448   3.808  0.1158 -0.2461  0.1183
 3132poe    c3115973   5.033   7.143   4.321 -0.6406 -0.5805 -0.2619
 3132poe     o215974   4.988   7.258   4.389 -0.8928 -0.3502 -0.8098
 3132poe    c2315975   4.874   7.240   4.469 -0.3716 -0.4178 -0.0616
 3132poe    c2315976   4.922   7.188   4.605  0.2361  0.1815 -0.0419
 3132poe     o215977   4.999   7.278   4.682  0.0703  0.1173  0.2024
 3132poe    c2315978   5.136   7.242   4.683  0.1162  0.2907  0.0825
 3132poe    c2315979   5.212   7.350   4.762  0.3731 -0.0294  0.2731
 3132poe     o215980   5.172   7.480   4.724  0.2123 -0.1577  0.0004
 3132poe    c2315981   5.259   7.565   4.795  0.0369 -0.1209  0.1722
 3132poe    c2315982   5.260   7.713   4.752  0.0508 -0.1684  0.0099
 3132poe     o215983   5.138   7.776   4.784  0.4918  0.6403  0.1239
 3132poe    c3115984   5.124   7.894   4.707  0.1309  0.2945 -0.3477
 3133poe    c3115985   5.348   1.827   2.819 -0.3228 -0.1448  0.0312
 3133poe     o215986   5.303   1.710   2.754 -0.0043 -0.2087 -0.0765
 3133poe    c2315987   5.191   1.667   2.827  0.2733 -0.6287  0.1033
 3133poe    c2315988   5.149   1.532   2.766 -1.0422 -0.4226  0.5235
 3133poe     o215989   5.118   1.557   2.631  0.0633 -0.3474  0.2729
 3133poe    c2315990   5.088   1.434   2.570 -0.1184 -0.3068  0.2795
 3133poe    c2315991   5.049   1.440   2.421  0.0444  0.4875  0.2664
 3133poe     o215992   5.163   1.426   2.340 -0.3148  0.2584 -0.2070
 3133poe    c2315993   5.130   1.403   2.205 -0.0570 -0.3481 -0.1688
 3133poe    c2315994   5.253   1.395   2.112  0.0626  0.3978 -0.0768
 3133poe     o215995   5.314   1.519   2.084 -0.0487  0.2637 -0.9256
 3133poe    c3115996   5.447   1.498   2.043  0.2023  0.0852 -0.0385
 3134poe    c3115997   4.611   5.708   6.748  0.2006  0.2617 -0.3269
 3134poe     o215998   4.496   5.785   6.774  0.2523  0.3050 -0.2223
 3134poe    c2315999   4.405   5.685   6.812 -0.0507  0.6649  0.0050
 3134poe    c2316000   4.303   5.735   6.917 -0.0155  0.3581  0.1885
 3134poe     o216001   4.367   5.816   7.013 -0.2603  0.7841 -0.0038
 3134poe    c2316002   4.274   5.844   7.116 -0.3918 -0.5151  0.2557
 3134poe    c2316003   4.325   5.936   7.228 -0.1414 -0.9459  0.4960
 3134poe     o216004   4.447   5.890   7.281  0.4533 -0.1747 -0.1839
 3134poe    c2316005   4.458   5.931   7.416 -0.2714 -0.6511  0.0243
 3134poe    c2316006   4.586   5.875   7.481  0.0221 -0.0494 -0.0223
 3134poe     o216007   4.592   5.734   7.474  0.1214 -0.0611  0.2621
 3134poe    c3116008   4.697   5.687   7.555  0.2256  0.1389  0.2449
 3135poe    c3116009   0.401   1.366   4.844  0.8605  0.1749  0.7073
 3135poe     o216010   0.346   1.236   4.836  0.1098  0.5247  0.0113
 3135poe    c2316011   0.206   1.243   4.831  0.0934 -0.1579 -0.4324
 3135poe    c2316012   0.154   1.108   4.778  0.4424 -0.3096 -0.3917
 3135poe     o216013   0.214   1.022   4.873 -0.5448 -0.1923  0.3638
 3135poe    c2316014   0.174   0.891   4.840 -0.7548 -0.0892  0.2043
 3135poe    c2316015   0.212   0.799   4.958  0.0579  0.2239  0.1926
 3135poe     o216016   0.346   0.823   4.995  0.2574 -0.2760 -0.2020
 3135poe    c2316017   0.399   0.708   5.056  0.4384 -0.1695 -0.1599
 3135poe    c2316018   0.541   0.721   5.114  0.2689 -0.2048  0.2673
 3135poe     o216019   0.642   0.727   5.016  0.2059  0.2937  0.2290
 3135poe    c3116020   0.763   0.700   5.083 -0.0116 -0.2899  0.3924
 3136poe    c3116021   3.956   5.134   5.735 -0.2489 -0.4469  0.3455
 3136poe     o216022   3.931   5.158   5.599 -0.4916  0.2435  0.5045
 3136poe    c2316023   3.867   5.283   5.584 -0.3141  0.3195  0.3812
 3136poe    c2316024   3.817   5.287   5.439 -0.0978 -0.7651  0.2689
 3136poe     o216025   3.903   5.225   5.345  0.3123 -0.2700  0.3125
 3136poe    c2316026   3.828   5.236   5.225  0.1143  0.5660  0.5057
 3136poe    c2316027   3.894   5.156   5.112  0.0764  0.4277  0.5813
 3136poe     o216028   3.879   5.016   5.125 -0.2924  0.3681 -0.3486
 3136poe    c2316029   3.920   4.940   5.014  0.5300 -0.0026  0.2016
 3136poe    c2316030   3.906   4.791   5.050 -0.8861  0.0443 -0.0922
 3136poe     o216031   3.861   4.711   4.943 -0.4169 -0.1644 -0.1368
 3136poe    c3116032   3.840   4.583   4.998 -0.3475 -0.0775  0.0932
 3137poe    c3116033   6.604   4.739   4.467  0.2024 -0.1292  0.7731
 3137poe     o216034   6.484   4.789   4.411  0.5284 -0.4579 -0.2302
 3137poe    c2316035   6.399   4.686   4.364 -0.0603 -0.1064  0.0513
 3137poe    c2316036   6.272   4.736   4.293 -0.1607  0.4360  0.6046
 3137poe     o216037   6.186   4.815   4.372 -0.5576  0.3955  0.2163
 3137poe    c2316038   6.065   4.840   4.304 -0.1425  0.0320 -0.6691
 3137poe    c2316039   6.035   4.991   4.311 -0.4621 -0.0556 -0.0847
 3137poe     o216040   6.046   5.024   4.448  0.0639 -0.2537 -0.0760
 3137poe    c2316041   5.995   5.153   4.472  0.3124 -0.0827 -0.4486
 3137poe    c2316042   6.023   5.194   4.618 -0.0652 -0.4015 -0.2851
 3137poe     o216043   6.143   5.124   4.641 -0.2926 -0.7182 -0.0444
 3137poe    c3116044   6.204   5.184   4.753 -0.2989 -0.1933 -0.3201
 3138poe    c3116045   4.954   0.293   0.352  0.1895  0.2776 -0.2557
 3138poe     o216046   4.828   0.250   0.306  0.2414 -0.3851  0.1999
 3138poe    c2316047   4.760   0.355   0.241  0.4705 -0.7425 -0.6305
 3138poe    c2316048   4.628   0.308   0.177 -0.2349 -0.0386  0.2812
 3138poe     o216049   4.536   0.259   0.272 -0.4579  0.0134  0.0955
 3138poe    c2316050   4.418   0.237   0.199  0.0849 -0.3042 -0.7068
 3138poe    c2316051   4.326   0.158   0.294  0.5566 -0.0844 -0.0558
 3138poe     o216052   4.390   0.036   0.322  0.9142 -0.0012 -0.5024
 3138poe    c2316053   4.302  -0.068   0.286  0.2371  0.4012 -0.0320
 3138poe    c2316054   4.370  -0.194   0.343 -0.9004 -0.2485 -0.0906
 3138poe     o216055   4.375  -0.201   0.484 -0.9257  0.4242 -0.0561
 3138poe    c3116056   4.350  -0.334   0.520  0.1739  0.2212 -0.0101
 3139poe    c3116057   1.872   1.416   6.360  0.8568  0.2460  0.3890
 3139poe     o216058   1.807   1.504   6.449 -0.0681 -0.1111  0.0728
 3139poe    c2316059   1.670   1.529   6.423  0.0889  0.1510 -0.5312
 3139poe    c2316060   1.636   1.659   6.498  0.1744 -0.0741 -0.0939
 3139poe     o216061   1.706   1.653   6.620 -0.2283  0.1133  0.1488
 3139poe    c2316062   1.714   1.779   6.682  0.5816  0.2128 -0.1586
 3139poe    c2316063   1.765   1.762   6.826  0.2807  0.2480 -0.0480
 3139poe     o216064   1.893   1.707   6.806  0.4457  0.5585  0.1626
 3139poe    c2316065   1.948   1.678   6.933  0.0026  0.2928  0.2941
 3139poe    c2316066   2.095   1.632   6.941  0.0229  0.3331  0.1588
 3139poe     o216067   2.131   1.517   6.869 -0.1144  0.2315  0.2527
 3139poe    c3116068   2.266   1.479   6.887  0.2964  1.3749 -0.3883
 3140poe    c3116069   4.573   3.107   7.199 -0.2141 -0.0096  0.4930
 3140poe     o216070   4.539   3.113   7.335  0.1445  0.4292  0.5663
 3140poe    c2316071   4.550   2.986   7.396  0.6824  0.2289  0.0688
 3140poe    c2316072   4.529   3.007   7.547  0.2193  0.0028  0.0398
 3140poe     o216073   4.404   3.065   7.577  0.1830  0.0395 -0.1826
 3140poe    c2316074   4.426   3.116   7.707 -0.6228 -0.1613  0.0344
 3140poe    c2316075   4.289   3.159   7.764 -0.2981  0.4648  0.3559
 3140poe     o216076   4.230   3.259   7.684 -0.1985 -0.0545 -0.3816
 3140poe    c2316077   4.128   3.319   7.761 -0.1762 -0.3454 -0.1226
 3140poe    c2316078   4.079   3.427   7.663  0.3274 -0.2533 -0.2775
 3140poe     o216079   4.009   3.383   7.549  0.2850 -0.0032 -0.3483
 3140poe    c3116080   3.915   3.485   7.522 -0.1754 -0.4495 -0.4485
 3141poe    c3116081   1.262   4.333   5.061 -0.4473  0.6458  0.3091
 3141poe     o216082   1.184   4.218   5.087 -0.0025  0.3477  0.3297
 3141poe    c2316083   1.245   4.113   5.158 -0.2085  0.3396  0.4961
 3141poe    c2316084   1.164   3.986   5.189  0.2437 -0.0638  0.0528
 3141poe     o216085   1.130   3.903   5.080  0.1711 -0.3516  0.2911
 3141poe    c2316086   1.003   3.850   5.111 -0.2083  0.4086  0.0522
 3141poe    c2316087   0.932   3.780   4.994 -0.7171  0.4970  0.3053
 3141poe     o216088   0.918   3.877   4.893  0.1907 -0.0580 -0.3673
 3141poe    c2316089   0.800   3.860   4.818  0.1743  0.0092 -0.3565
 3141poe    c2316090   0.735   3.983   4.753 -0.1361 -0.0331 -0.1304
 3141poe     o216091   0.804   4.006   4.632  0.3733  0.4361  0.2469
 3141poe    c3116092   0.732   4.094   4.548 -0.2382 -0.4689 -0.1817
 3142poe    c3116093   3.653   2.189   3.000 -0.2458 -0.3824  0.2475
 3142poe     o216094   3.701   2.175   2.868  0.2752 -0.4652  0.4422
 3142poe    c2316095   3.614   2.083   2.806 -0.1854 -0.4477  1.0559
 3142poe    c2316096   3.581   1.938   2.845 -0.0992 -0.8309 -0.2432
 3142poe     o216097   3.695   1.860   2.816  0.6525  0.0127  0.3931
 3142poe    c2316098   3.671   1.721   2.817  0.1298  0.0974  0.3115
 3142poe    c2316099   3.800   1.654   2.766 -0.3148 -0.2750 -0.3314
 3142poe     o216100   3.906   1.653   2.859 -0.3217 -0.0533 -0.3227
 3142poe    c2316101   3.981   1.536   2.836 -0.0892  0.0285  0.0063
 3142poe    c2316102   4.128   1.563   2.799 -0.0778 -0.3602 -0.2344
 3142poe     o216103   4.140   1.665   2.703 -0.3108 -0.2786 -0.1776
 3142poe    c3116104   4.266   1.656   2.640 -0.0712  0.1320  0.2358
 3143poe    c3116105   1.516   5.555   6.728 -0.1504 -0.1034 -0.2054
 3143poe     o216106   1.549   5.456   6.634  0.5188 -0.0264 -0.0562
 3143poe    c2316107   1.519   5.326   6.680 -0.1170  0.3393  0.5832
 3143poe    c2316108   1.572   5.226   6.575 -0.4051  0.2994  0.4760
 3143poe     o216109   1.688   5.289   6.525 -0.2278 -0.6332 -0.3155
 3143poe    c2316110   1.770   5.210   6.442  0.7572 -0.2429  0.2669
 3143poe    c2316111   1.839   5.307   6.345  0.3716 -0.1777  0.0548
 3143poe     o216112   1.736   5.386   6.291  0.3345 -0.1880  0.1110
 3143poe    c2316113   1.690   5.344   6.164  0.0252 -0.3895  0.2868
 3143poe    c2316114   1.634   5.457   6.075  0.7294 -0.0054  0.3180
 3143poe     o216115   1.521   5.533   6.112  0.3533 -0.1062 -0.6047
 3143poe    c3116116   1.460   5.610   6.011  0.1446 -0.7825 -1.0006
 3144poe    c3116117   6.470   4.421   7.203  0.2747  0.5579  0.3393
 3144poe     o216118   6.561   4.357   7.289  0.1837 -0.2079 -0.1242
 3144poe    c2316119   6.666   4.452   7.292  0.1476 -0.1592 -0.4332
 3144poe    c2316120   6.788   4.415   7.378  0.2565  0.4272 -0.3334
 3144poe     o216121   6.842   4.286   7.361 -0.0693  0.2159  0.1980
 3144poe    c2316122   6.968   4.284   7.424 -0.1965 -0.1633  0.4474
 3144poe    c2316123   7.048   4.155   7.398 -0.1816 -0.2618  0.9740
 3144poe     o216124   6.966   4.044   7.427 -0.2542 -0.3927  0.2841
 3144poe    c2316125   7.029   3.924   7.387 -0.1152 -0.1747 -0.1625
 3144poe    c2316126   6.953   3.794   7.421  0.0612 -0.2459 -0.0418
 3144poe     o216127   6.819   3.802   7.379 -0.0888 -0.2906  0.4209
 3144poe    c3116128   6.754   3.677   7.375 -0.1546 -0.2366 -0.4768
 3145poe    c3116129   2.036   2.960   6.857  0.0538  0.0802 -0.1906
 3145poe     o216130   2.004   2.826   6.825 -0.2562  0.1425 -0.1491
 3145poe    c2316131   2.045   2.746   6.933 -0.2742  0.3242 -0.0068
 3145poe    c2316132   2.035   2.593   6.919  0.3415  0.3008 -0.2086
 3145poe     o216133   2.127   2.546   6.824  0.2697 -0.1388 -0.0637
 3145poe    c2316134   2.112   2.406   6.814 -0.1316 -0.1353  0.4557
 3145poe    c2316135   2.194   2.336   6.703 -0.1740 -0.1117  0.4094
 3145poe     o216136   2.157   2.378   6.574  0.9572  0.1144  0.1566
 3145poe    c2316137   2.259   2.328   6.489  0.7006  0.3203 -0.2774
 3145poe    c2316138   2.273   2.409   6.359 -0.0632  0.3957 -0.3220
 3145poe     o216139   2.334   2.535   6.374 -0.0546  0.3229  0.2884
 3145poe    c3116140   2.279   2.633   6.289  0.7881 -0.0419 -0.7060
 3146poe    c3116141   6.127   1.834   5.715  0.4528  1.0329 -1.0476
 3146poe     o216142   6.241   1.815   5.795 -0.0904  0.3865 -0.4220
 3146poe    c2316143   6.233   1.685   5.849 -0.0825  0.6489  0.2217
 3146poe    c2316144   6.380   1.645   5.871 -0.0648  0.5084 -0.1428
 3146poe     o216145   6.446   1.622   5.749 -0.0940 -0.1669 -0.0346
 3146poe    c2316146   6.569   1.556   5.770  0.1106  0.2815  0.1895
 3146poe    c2316147   6.604   1.488   5.636 -0.2893 -0.0984  0.2788
 3146poe     o216148   6.615   1.584   5.534 -0.4310 -0.9661 -0.5749
 3146poe    c2316149   6.677   1.535   5.418  0.4810 -0.4616 -0.3144
 3146poe    c2316150   6.647   1.651   5.320  0.7005  0.3021  0.5148
 3146poe     o216151   6.527   1.710   5.363  0.1255 -0.2134 -0.3660
 3146poe    c3116152   6.471   1.784   5.256  0.0774  0.5894  0.2022
 3147poe    c3116153   2.300   6.341   5.179 -0.0462  0.0008 -0.0103
 3147poe     o216154   2.438   6.353   5.202 -0.0946 -0.1256  0.3600
 3147poe    c2316155   2.506   6.273   5.297  0.0524 -0.3299  0.0852
 3147poe    c2316156   2.655   6.257   5.263  0.1622 -0.6460  0.7054
 3147poe     o216157   2.674   6.211   5.131  0.1461 -0.3186  0.5892
 3147poe    c2316158   2.803   6.164   5.100  0.2698 -0.1240  0.8072
 3147poe    c2316159   2.849   6.017   5.109 -0.0723 -0.2789  0.0929
 3147poe     o216160   2.857   5.981   5.245  0.1600  0.0633  0.1713
 3147poe    c2316161   2.816   5.846   5.247 -0.1798  0.1631  0.0463
 3147poe    c2316162   2.775   5.827   5.394  0.2371  0.1412  0.1614
 3147poe     o216163   2.677   5.908   5.455  0.4170  0.3658  0.1571
 3147poe    c3116164   2.551   5.903   5.393  0.2340  0.6609  0.5017
 3148poe    c3116165   6.780   5.340   6.054  0.1784 -0.9454 -0.4685
 3148poe     o216166   6.795   5.450   5.967 -0.7534 -0.0884  0.4264
 3148poe    c2316167   6.677   5.477   5.895 -0.3213  0.0987 -0.2190
 3148poe    c2316168   6.695   5.598   5.801 -0.5430  0.3606  0.0723
 3148poe     o216169   6.765   5.694   5.877 -0.6762  0.3532  0.2038
 3148poe    c2316170   6.795   5.812   5.807 -0.0100  0.1817  0.1905
 3148poe    c2316171   6.869   5.897   5.912  0.4803  0.3267 -0.2699
 3148poe     o216172   6.968   5.821   5.978  0.1042 -0.1149 -0.2048
 3148poe    c2316173   7.058   5.919   6.026 -0.1369  0.4105 -0.8068
 3148poe    c2316174   7.137   5.836   6.129 -0.3658  0.6655 -0.4199
 3148poe     o216175   7.060   5.769   6.227  0.0893  0.2165 -0.3644
 3148poe    c3116176   7.136   5.729   6.338 -0.2863  0.2680 -0.0879
 3149poe    c3116177   0.625   5.111   6.900  0.3754  0.8916  0.1362
 3149poe     o216178   0.718   5.083   6.797 -0.0027 -0.3950  0.1296
 3149poe    c2316179   0.822   5.009   6.857  0.1149 -0.6174 -0.3385
 3149poe    c2316180   0.902   4.951   6.739  0.0353 -0.2297 -0.5847
 3149poe     o216181   0.911   5.045   6.635  0.2431  0.4979  0.0833
 3149poe    c2316182   1.017   4.995   6.557  0.1544 -0.0786  0.3256
 3149poe    c2316183   1.009   5.071   6.423  0.8876 -0.2590  0.1766
 3149poe     o216184   0.888   5.052   6.354  0.7672  0.5260  0.1595
 3149poe    c2316185   0.904   5.096   6.221 -0.1125 -0.4420 -0.2778
 3149poe    c2316186   0.774   5.083   6.139 -0.0837  0.0682 -0.4034
 3149poe     o216187   0.754   4.950   6.098 -0.2894  0.0697 -0.3073
 3149poe    c3116188   0.696   4.867   6.197 -0.4343  0.3370 -0.1681
 3150poe    c3116189   0.432   4.874   5.899 -0.2732  0.9691  0.2041
 3150poe     o216190   0.461   4.947   5.782  0.1790  0.3375 -0.0860
 3150poe    c2316191   0.356   5.035   5.747 -0.1865 -0.0556  0.0234
 3150poe    c2316192   0.362   5.094   5.606 -0.2188  0.1649  0.1150
 3150poe     o216193   0.352   5.005   5.497 -0.0738  0.2916 -0.0022
 3150poe    c2316194   0.383   5.061   5.372 -0.2458  0.1322 -0.1173
 3150poe    c2316195   0.418   4.955   5.265 -0.0184 -0.0657  0.1523
 3150poe     o216196   0.300   4.890   5.224  0.0692  0.1219 -0.4088
 3150poe    c2316197   0.319   4.800   5.117  0.8185 -0.2557  0.0360
 3150poe    c2316198   0.201   4.701   5.111  0.5292  0.0890  0.0160
 3150poe     o216199   0.200   4.610   5.219  0.2801  0.0823  0.0061
 3150poe    c3116200   0.111   4.505   5.188  0.0743  0.0777  0.5988
 3151poe    c3116201   6.827   5.677   3.063 -0.3810 -0.3716 -0.3301
 3151poe     o216202   6.841   5.758   2.948  0.2596 -0.3764 -0.2593
 3151poe    c2316203   6.844   5.894   2.985 -0.0902 -0.3128 -0.4575
 3151poe    c2316204   6.848   5.977   2.856 -0.2291  0.4491  0.0249
 3151poe     o216205   6.977   5.964   2.801 -0.0591 -0.2757  0.5750
 3151poe    c2316206   6.969   6.034   2.679  0.1977  0.3018  0.8844
 3151poe    c2316207   7.103   6.105   2.652  0.2082 -0.0148  0.0644
 3151poe     o216208   7.203   6.018   2.604  0.0126  0.2832 -0.9188
 3151poe    c2316209   7.305   6.065   2.519  0.6580 -0.3188 -0.4888
 3151poe    c2316210   7.273   6.076   2.369 -0.2724  0.3138 -0.2493
 3151poe     o216211   7.235   5.953   2.311  0.1453  0.0779 -0.0249
 3151poe    c3116212   7.210   5.962   2.172  0.0080 -0.4989 -0.0410
 3152poe    c3116213   4.893   4.842   0.847  0.0018 -0.0165  0.4511
 3152poe     o216214   4.810   4.728   0.850  0.1547 -0.1428  0.0139
 3152poe    c2316215   4.780   4.679   0.979  0.6930 -0.4172  0.0381
 3152poe    c2316216   4.670   4.572   0.972  0.1208  0.1390  0.3745
 3152poe     o216217   4.691   4.509   0.847 -0.3936  0.2087  0.2508
 3152poe    c2316218   4.597   4.404   0.841  0.1130 -0.2098 -0.4656
 3152poe    c2316219   4.627   4.306   0.726  0.0638 -0.2370 -0.4556
 3152poe     o216220   4.615   4.360   0.597 -0.1103  0.3782 -0.1839
 3152poe    c2316221   4.689   4.281   0.507  0.6187  0.7511  0.0760
 3152poe    c2316222   4.705   4.341   0.366  0.2242  0.6186 -0.0275
 3152poe     o216223   4.794   4.450   0.379  0.0904  0.7137  0.0907
 3152poe    c3116224   4.818   4.494   0.247  0.4368 -0.2035 -0.1524
 3153poe    c3116225   2.736   5.863   1.137  0.0976  0.2859  0.4767
 3153poe     o216226   2.784   5.913   1.014 -0.6877 -0.3375 -0.0931
 3153poe    c2316227   2.757   5.812   0.919 -0.0724 -0.3947 -0.2102
 3153poe    c2316228   2.839   5.839   0.792  0.6085  0.2329  0.3510
 3153poe     o216229   2.773   5.938   0.716 -0.6542 -0.7972  0.0709
 3153poe    c2316230   2.850   5.931   0.599 -0.3038  0.6605  0.1966
 3153poe    c2316231   2.805   6.025   0.485  0.0536  0.2625 -0.2757
 3153poe     o216232   2.802   6.152   0.546 -0.2470  0.1661 -0.0914
 3153poe    c2316233   2.807   6.258   0.454 -0.3191  0.0193 -0.2648
 3153poe    c2316234   2.689   6.355   0.440  0.0550  0.4407 -0.5070
 3153poe     o216235   2.576   6.302   0.374  0.0021 -0.2586  0.1331
 3153poe    c3116236   2.456   6.376   0.375  0.0720 -0.1446  0.2667
 3154poe    c3116237   4.105   6.110   4.341  0.2806 -0.0060 -0.3789
 3154poe     o216238   3.996   6.023   4.361  0.2714  0.1656  0.3497
 3154poe    c2316239   4.028   5.892   4.322 -0.4352  0.1485 -0.1956
 3154poe    c2316240   3.908   5.803   4.286 -0.4703  0.2377 -0.3003
 3154poe     o216241   3.816   5.800   4.394  0.0058 -0.1865  0.1020
 3154poe    c2316242   3.699   5.729   4.362 -0.3752  0.5680 -0.2030
 3154poe    c2316243   3.599   5.726   4.479 -0.1463 -0.2580 -0.0270
 3154poe     o216244   3.664   5.670   4.592  0.3826 -0.2344 -0.3180
 3154poe    c2316245   3.566   5.654   4.692  0.2647 -0.5197 -0.4794
 3154poe    c2316246   3.626   5.539   4.775  0.6716 -0.3353 -0.5185
 3154poe     o216247   3.758   5.572   4.812  0.3282  0.3387  0.1440
 3154poe    c3116248   3.809   5.467   4.892 -0.0267 -0.1117 -0.2104
 3155poe    c3116249   0.586   0.837   2.391 -0.1435  0.1585 -0.9097
 3155poe     o216250   0.451   0.800   2.382 -0.1748 -0.1148  0.4866
 3155poe    c2316251   0.391   0.783   2.256  0.5295 -0.0047  0.1376
 3155poe    c2316252   0.388   0.898   2.153  0.1260  0.2851  0.4711
 3155poe     o216253   0.313   1.001   2.214  0.2586  0.5139  0.2518
 3155poe    c2316254   0.272   1.086   2.110  0.1413 -0.1893 -0.2884
 3155poe    c2316255   0.186   1.208   2.149  0.1918 -0.3462  0.3097
 3155poe     o216256   0.055   1.166   2.183  0.0436 -0.3445 -0.2501
 3155poe    c2316257  -0.030   1.277   2.168  0.1924 -0.2399 -0.3281
 3155poe    c2316258  -0.180   1.250   2.193  0.2526 -0.1690  0.1243
 3155poe     o216259  -0.202   1.238   2.332  0.1071  0.0217  0.1170
 3155poe    c3116260  -0.327   1.180   2.362  0.1597 -0.3131 -0.2961
 3156poe    c3116261   1.305   1.291   6.358 -0.1771  1.0573  0.7159
 3156poe     o216262   1.381   1.220   6.453 -0.1211  0.0333 -0.0796
 3156poe    c2316263   1.434   1.094   6.418 -0.1189 -0.0530  0.2280
 3156poe    c2316264   1.527   1.034   6.525  0.0732 -0.0890  0.0406
 3156poe     o216265   1.468   1.027   6.652 -0.1391  0.3550 -0.0316
 3156poe    c2316266   1.576   1.026   6.743 -0.1458 -0.3880 -0.0230
 3156poe    c2316267   1.548   1.067   6.889 -0.6999 -0.0937 -0.2101
 3156poe     o216268   1.480   1.190   6.879 -0.6839 -0.0901 -0.2749
 3156poe    c2316269   1.444   1.231   7.009  0.4379  0.3473 -0.0847
 3156poe    c2316270   1.376   1.369   7.005 -0.1069  0.1062  0.5589
 3156poe     o216271   1.471   1.470   6.979 -0.0853 -0.1011 -0.1887
 3156poe    c3116272   1.433   1.605   6.965 -0.2063 -0.1297 -0.1397
 3157poe    c3116273   1.271   6.430   0.678  0.5264  0.1761  0.0236
 3157poe     o216274   1.287   6.297   0.720  0.0050 -0.0919 -0.5935
 3157poe    c2316275   1.384   6.286   0.823  0.1730 -0.2780 -0.7699
 3157poe    c2316276   1.430   6.140   0.831  0.0713 -0.2729 -0.0024
 3157poe     o216277   1.337   6.035   0.844 -0.0231 -0.1506  0.3010
 3157poe    c2316278   1.384   5.938   0.936  0.5823 -0.2715 -0.1313
 3157poe    c2316279   1.311   5.959   1.070 -0.0428  0.3078 -0.5551
 3157poe     o216280   1.172   5.956   1.048 -0.0304 -0.0348 -0.5859
 3157poe    c2316281   1.093   5.956   1.165  0.2949 -0.0334 -0.3660
 3157poe    c2316282   0.945   5.966   1.124  0.3002  0.2818 -0.3054
 3157poe     o216283   0.939   6.049   1.009  0.2021  0.4972 -0.1460
 3157poe    c3116284   0.813   6.090   0.961 -0.5739 -0.4835  0.9695
 3158poe    c3116285   5.147   0.350   4.386 -0.0576  0.8830  0.6062
 3158poe     o216286   5.013   0.392   4.391 -0.2958  0.1700  0.3683
 3158poe    c2316287   4.954   0.343   4.272 -0.0673 -0.0470  0.3450
 3158poe    c2316288   4.801   0.351   4.278 -0.1015 -0.2015 -0.2918
 3158poe     o216289   4.746   0.480   4.296 -0.0376 -0.2762  0.4499
 3158poe    c2316290   4.610   0.479   4.261  0.0098 -0.1687  0.2668
 3158poe    c2316291   4.534   0.535   4.382  0.5161 -0.1080  0.5597
 3158poe     o216292   4.549   0.459   4.500  0.3526 -0.4000  0.3930
 3158poe    c2316293   4.545   0.542   4.614 -0.3573  0.2049 -0.0658
 3158poe    c2316294   4.568   0.472   4.749  0.1571  0.0945 -0.2108
 3158poe     o216295   4.700   0.422   4.756  0.2048  0.2422 -0.0434
 3158poe    c3116296   4.769   0.508   4.844  0.2124 -0.0094  0.1983
 3159poe    c3116297   2.731   4.637   0.919 -0.2809  0.5490  0.0308
 3159poe     o216298   2.647   4.720   0.997 -0.8325  0.0829 -0.0597
 3159poe    c2316299   2.623   4.658   1.121 -0.2405 -0.1747 -0.0687
 3159poe    c2316300   2.533   4.751   1.205 -0.4594 -0.1976 -0.2772
 3159poe     o216301   2.597   4.872   1.235 -0.1693 -0.4569  0.1573
 3159poe    c2316302   2.500   4.960   1.288  0.3321  0.3108 -0.1691
 3159poe    c2316303   2.536   5.109   1.296  0.1892  0.3223  0.3028
 3159poe     o216304   2.534   5.167   1.167  0.1895  0.4128  0.3435
 3159poe    c2316305   2.556   5.306   1.177  0.4341  0.4206 -0.2753
 3159poe    c2316306   2.522   5.375   1.044  0.2646 -0.0534 -0.4800
 3159poe     o216307   2.597   5.322   0.936  0.5051  0.1733 -0.4251
 3159poe    c3116308   2.522   5.349   0.820  0.0161 -0.6139 -0.2969
 3160poe    c3116309   5.692   0.747   0.476  0.2566 -0.2979 -0.7351
 3160poe     o216310   5.651   0.612   0.467 -0.1906 -0.2330  0.2466
 3160poe    c2316311   5.636   0.551   0.593 -0.3426 -0.2344  0.2283
 3160poe    c2316312   5.610   0.399   0.593 -0.6124 -0.1890 -0.0261
 3160poe     o216313   5.704   0.328   0.516 -0.3783  0.1048 -0.0118
 3160poe    c2316314   5.643   0.217   0.454 -0.3100  0.0275  0.0597
 3160poe    c2316315   5.755   0.117   0.417 -0.2950  0.0662 -0.0002
 3160poe     o216316   5.826   0.186   0.317 -0.0770  0.3852  0.3715
 3160poe    c2316317   5.931   0.111   0.261  0.0850  0.5454  0.4578
 3160poe    c2316318   6.001   0.191   0.150 -0.0517  0.0870  0.0352
 3160poe     o216319   6.010   0.323   0.198 -0.1214  0.1392 -0.0950
 3160poe    c3116320   6.079   0.396   0.098 -0.1554 -0.1955 -0.3638
 3161poe    c3116321   2.038   5.537   6.025 -0.5103 -0.2905  0.2296
 3161poe     o216322   2.071   5.515   5.890 -0.1280 -0.1772  0.3035
 3161poe    c2316323   2.205   5.481   5.862  0.1308  0.8718  0.2281
 3161poe    c2316324   2.225   5.482   5.709 -0.2575 -0.0589  0.1607
 3161poe     o216325   2.104   5.437   5.653  0.1062 -0.6759 -0.1254
 3161poe    c2316326   2.102   5.476   5.517 -0.5102  0.5810  0.2327
 3161poe    c2316327   1.971   5.423   5.456 -0.2191  0.4680 -0.2968
 3161poe     o216328   1.859   5.467   5.529 -0.0495  0.7534 -0.2051
 3161poe    c2316329   1.736   5.426   5.475 -0.2236  0.4672  0.3957
 3161poe    c2316330   1.623   5.521   5.519 -0.4093  0.2943  0.2968
 3161poe     o216331   1.582   5.530   5.654 -0.0752 -0.2499  0.4403
 3161poe    c3116332   1.524   5.414   5.711 -0.0829 -0.4675 -0.0079
 3162poe    c3116333   3.131   4.811   6.953  0.0747 -0.2383  0.0934
 3162poe     o216334   3.231   4.752   7.033  0.2925 -0.2845 -0.2128
 3162poe    c2316335   3.294   4.865   7.089  0.0494 -0.4366  0.3695
 3162poe    c2316336   3.428   4.823   7.153  0.2914 -0.4595 -0.1481
 3162poe     o216337   3.412   4.694   7.209 -0.1283 -0.1180  0.5315
 3162poe    c2316338   3.528   4.653   7.277  0.6886 -0.0490 -0.7775
 3162poe    c2316339   3.533   4.511   7.336  0.7630  0.1885 -0.2036
 3162poe     o216340   3.538   4.413   7.235 -0.1120  0.1432 -0.2169
 3162poe    c2316341   3.460   4.304   7.276  0.0932  0.1581  0.2124
 3162poe    c2316342   3.464   4.183   7.180  0.1959 -0.1639  0.6143
 3162poe     o216343   3.384   4.214   7.068  0.9744 -0.0160  0.0811
 3162poe    c3116344   3.368   4.098   6.988  0.5250 -0.1305  0.3288
 3163poe    c3116345   4.558   7.121   4.806 -0.7958  0.7828  0.2334
 3163poe     o216346   4.498   7.079   4.926 -0.3322 -0.1354  0.1528
 3163poe    c2316347   4.578   6.984   4.993 -0.0668 -0.3325 -0.4341
 3163poe    c2316348   4.531   6.955   5.137 -0.3795  0.1329 -0.4413
 3163poe     o216349   4.395   6.920   5.137 -0.1180 -0.9111 -0.5513
 3163poe    c2316350   4.356   6.853   5.255  0.2403  0.1361  0.1774
 3163poe    c2316351   4.218   6.792   5.225  0.2080  0.1798  0.2381
 3163poe     o216352   4.132   6.886   5.166 -0.1951 -0.3249  0.0121
 3163poe    c2316353   4.003   6.844   5.130 -0.0155 -0.1238 -0.8982
 3163poe    c2316354   3.922   6.954   5.058 -0.5058  0.5876  0.6890
 3163poe     o216355   3.975   6.983   4.931  0.0722  0.2158  0.8418
 3163poe    c3116356   3.904   7.072   4.848  0.1193 -0.2851  0.2579
 3164poe    c3116357   0.095   7.075   6.152  0.5507 -0.0214 -0.1513
 3164poe     o216358   0.197   6.987   6.110  0.4504 -0.0975 -0.2341
 3164poe    c2316359   0.282   6.972   6.222  0.3109  0.2471 -0.0816
 3164poe    c2316360   0.411   6.906   6.169  0.3023 -0.2347  0.4925
 3164poe     o216361   0.365   6.789   6.106 -0.4204  0.5935 -0.5370
 3164poe    c2316362   0.459   6.721   6.026 -0.5678 -0.2382 -0.0111
 3164poe    c2316363   0.396   6.595   5.963 -0.1114 -0.5270  0.1055
 3164poe     o216364   0.284   6.652   5.900  0.3950 -0.2190 -0.5323
 3164poe    c2316365   0.203   6.566   5.823 -0.9498  0.6399 -0.1247
 3164poe    c2316366   0.157   6.439   5.897  0.0779  0.3863  0.0991
 3164poe     o216367   0.080   6.467   6.012 -0.6325 -0.0011 -0.2776
 3164poe    c3116368   0.035   6.345   6.067 -0.0059 -0.0845  0.0580
 3165poe    c3116369   0.582   6.845   2.755 -0.5778  0.5052  0.2882
 3165poe     o216370   0.526   6.780   2.867 -0.2402  0.2645  0.3191
 3165poe    c2316371   0.586   6.834   2.983  0.6636  0.4094 -0.2135
 3165poe    c2316372   0.514   6.777   3.106  0.4976  1.4643  0.1868
 3165poe     o216373   0.377   6.814   3.108  0.2045  0.4205  0.1111
 3165poe    c2316374   0.331   6.798   3.240 -0.2204  0.1539 -0.0678
 3165poe    c2316375   0.196   6.872   3.249 -0.3442 -0.1352  0.4955
 3165poe     o216376   0.105   6.845   3.145  0.4463  0.1095 -0.2750
 3165poe    c2316377   0.026   6.960   3.126 -0.2167 -0.2552  0.2307
 3165poe    c2316378  -0.073   6.945   3.009  0.2564 -0.1792 -0.1827
 3165poe     o216379  -0.002   6.948   2.888 -0.0333  0.6069 -0.3348
 3165poe    c3116380  -0.086   6.956   2.775 -0.2657  0.4802 -0.1706
 3166poe    c3116381   5.833   2.602   4.103  0.3904 -0.0920  0.3306
 3166poe     o216382   5.939   2.679   4.052  0.2034 -0.1462 -0.1466
 3166poe    c2316383   6.057   2.631   4.112  0.1605  0.3937  0.3893
 3166poe    c2316384   6.175   2.641   4.014 -0.1128 -0.4962 -0.0447
 3166poe     o216385   6.152   2.567   3.896  0.0154 -0.6129  0.0025
 3166poe    c2316386   6.270   2.555   3.820 -0.1881 -0.4814 -0.3421
 3166poe    c2316387   6.261   2.536   3.668 -0.5380  0.0262 -0.3882
 3166poe     o216388   6.220   2.406   3.632 -1.0301  0.1357 -0.2282
 3166poe    c2316389   6.165   2.390   3.503 -0.3812  0.0090 -0.4908
 3166poe    c2316390   6.081   2.261   3.496 -0.2937 -0.1026  0.3880
 3166poe     o216391   6.178   2.160   3.481  0.2405  0.4610 -0.0018
 3166poe    c3116392   6.114   2.038   3.452  0.5377  0.2358  0.2826
 3167poe    c3116393   1.635   6.362   6.769  0.3007 -0.3677  0.5682
 3167poe     o216394   1.741   6.451   6.796  0.1840 -0.0856  0.1086
 3167poe    c2316395   1.807   6.475   6.674  0.2114 -0.1875  0.1037
 3167poe    c2316396   1.909   6.587   6.706  0.3488 -0.3526  0.2463
 3167poe     o216397   2.032   6.563   6.770  0.4167 -0.2227  0.1646
 3167poe    c2316398   2.047   6.668   6.863 -0.2758  0.0458 -0.0205
 3167poe    c2316399   2.178   6.640   6.939  0.0636 -0.1558 -0.6741
 3167poe     o216400   2.153   6.555   7.049 -0.1182  0.5859 -0.1297
 3167poe    c2316401   2.271   6.545   7.127  0.0689 -0.0934 -0.4896
 3167poe    c2316402   2.239   6.454   7.247  0.3489  0.1887 -0.2036
 3167poe     o216403   2.117   6.486   7.310 -0.0110 -0.8427 -0.3668
 3167poe    c3116404   2.068   6.399   7.410  0.3131 -0.5668  0.0349
 3168poe    c3116405   4.535   1.938   6.309  0.2589  0.7773  0.3600
 3168poe     o216406   4.520   1.987   6.177 -0.3716  0.3034  0.2510
 3168poe    c2316407   4.637   2.058   6.145 -0.5974  0.6172  0.1091
 3168poe    c2316408   4.621   2.142   6.017  0.3770  0.7076  0.0391
 3168poe     o216409   4.538   2.254   6.034 -0.4851 -0.0193  0.6771
 3168poe    c2316410   4.505   2.316   5.912  0.1957 -0.2674  0.3640
 3168poe    c2316411   4.410   2.434   5.941  0.3484 -0.2426  0.7681
 3168poe     o216412   4.316   2.406   6.041  0.1076 -0.1618  0.5652
 3168poe    c2316413   4.227   2.514   6.057  0.2299 -0.0465  0.4610
 3168poe    c2316414   4.096   2.469   6.125  0.0598 -0.0568  0.1265
 3168poe     o216415   4.043   2.371   6.039  0.2074 -0.0200 -0.0094
 3168poe    c3116416   3.903   2.366   6.060  0.2266 -0.6145  0.0080
 3169poe    c3116417   7.153   0.385   4.076  0.5976  0.1348 -0.3958
 3169poe     o216418   7.081   0.418   3.959 -0.2776  0.3058  0.1787
 3169poe    c2316419   7.062   0.557   3.942 -0.4996  0.2526 -0.0161
 3169poe    c2316420   7.131   0.598   3.810  0.2450 -0.0750  0.2626
 3169poe     o216421   7.127   0.487   3.723  0.3049  0.1211  0.0100
 3169poe    c2316422   7.117   0.514   3.585 -0.2312  0.3941  0.0996
 3169poe    c2316423   6.979   0.470   3.533  0.0385  0.1672 -0.4288
 3169poe     o216424   6.962   0.354   3.611  0.0854  0.2520 -0.2920
 3169poe    c2316425   6.825   0.317   3.613  0.1491  0.0197 -0.1026
 3169poe    c2316426   6.838   0.179   3.678 -0.3290  0.0966  0.1597
 3169poe     o216427   6.905   0.201   3.801  0.2300 -0.1689 -0.0902
 3169poe    c3116428   6.889   0.094   3.891 -0.3878  0.4283  0.5285
 3170poe    c3116429   1.275   1.493   3.655 -0.0338 -0.3658 -0.2537
 3170poe     o216430   1.192   1.522   3.544  0.1077 -0.0628 -0.2813
 3170poe    c2316431   1.063   1.482   3.586 -0.1809  0.6848 -0.4430
 3170poe    c2316432   0.978   1.474   3.458 -0.2677 -0.2088 -0.3351
 3170poe     o216433   1.019   1.589   3.387 -0.3254  0.2982  0.4436
 3170poe    c2316434   0.947   1.623   3.271 -0.1818  0.2702  0.3458
 3170poe    c2316435   0.957   1.774   3.246  0.1421  0.1251 -0.4137
 3170poe     o216436   1.087   1.829   3.244  0.1991  0.0255  0.4396
 3170poe    c2316437   1.079   1.960   3.193 -0.4717  0.0365  0.5668
 3170poe    c2316438   1.202   2.041   3.240  0.1940 -0.4137 -0.3765
 3170poe     o216439   1.221   2.040   3.379  0.5904 -0.1273 -0.4282
 3170poe    c3116440   1.328   2.126   3.410 -0.0943  0.4996  0.2595
 3171poe    c3116441   4.184   2.579   4.085  0.5103 -0.3804 -0.2151
 3171poe     o216442   4.114   2.651   3.985 -0.1073  0.0351  0.4992
 3171poe    c2316443   4.068   2.547   3.901  0.1115  0.4270 -0.1134
 3171poe    c2316444   4.011   2.599   3.768  0.1521 -0.3658 -0.4458
 3171poe     o216445   3.882   2.655   3.768  0.4325  0.2914  0.1301
 3171poe    c2316446   3.777   2.568   3.805  0.3753  0.1941 -0.2620
 3171poe    c2316447   3.642   2.635   3.840  0.3767 -0.1567  0.4238
 3171poe     o216448   3.648   2.697   3.966  0.3286  0.2715  0.2160
 3171poe    c2316449   3.641   2.609   4.076 -0.3212 -0.1650 -0.1729
 3171poe    c2316450   3.591   2.683   4.202 -0.0786 -0.1981 -0.0574
 3171poe     o216451   3.453   2.704   4.223 -0.0840 -0.2627 -0.0253
 3171poe    c3116452   3.424   2.701   4.361 -0.5010  0.0314 -0.1038
 3172poe    c3116453   3.382   1.087   6.072  0.0201 -0.3288 -0.3452
 3172poe     o216454   3.283   0.988   6.085  0.2035 -0.4856 -0.1290
 3172poe    c2316455   3.183   1.030   6.175  0.5837  0.2779 -0.0518
 3172poe    c2316456   3.096   0.908   6.210  0.0869  0.4918 -0.5236
 3172poe     o216457   3.048   0.866   6.084 -0.0495 -0.1212 -0.2717
 3172poe    c2316458   2.958   0.758   6.092 -0.7342  0.4340 -0.4092
 3172poe    c2316459   2.909   0.729   5.949 -0.3999 -0.4520 -0.3519
 3172poe     o216460   3.017   0.710   5.861 -0.3606  0.4358 -0.5032
 3172poe    c2316461   2.962   0.690   5.732 -0.5572 -0.7027 -0.2452
 3172poe    c2316462   3.074   0.708   5.628  0.0277  0.7772  0.6058
 3172poe     o216463   3.183   0.631   5.674  0.1689  0.4713 -0.2301
 3172poe    c3116464   3.280   0.610   5.573  0.1865  0.2394 -0.1661
 3173poe    c3116465   1.051   7.040   1.132  0.1378  0.2531 -0.0126
 3173poe     o216466   0.932   7.068   1.061  0.0714  0.2161  0.0839
 3173poe    c2316467   0.865   7.180   1.114  0.2682  0.4401 -0.1375
 3173poe    c2316468   0.748   7.221   1.023 -0.1013 -0.0401  0.1155
 3173poe     o216469   0.791   7.259   0.894  0.0732  0.1927  0.2421
 3173poe    c2316470   0.703   7.321   0.803  0.1902  0.1788  0.1205
 3173poe    c2316471   0.774   7.345   0.668  0.2983  0.3192  0.2014
 3173poe     o216472   0.825   7.218   0.633  0.3812  0.3577  0.1820
 3173poe    c2316473   0.853   7.196   0.497  0.1795 -0.3350  0.2455
 3173poe    c2316474   0.949   7.077   0.482  0.2780 -0.2307  0.0333
 3173poe     o216475   1.079   7.078   0.536  0.3829  0.3595 -0.2215
 3173poe    c3116476   1.126   6.966   0.463 -0.3317 -0.2898  0.2960
 3174poe    c3116477   4.802   5.682   1.456 -0.7431  0.2079 -0.4832
 3174poe     o216478   4.830   5.655   1.592  0.0615 -0.4848 -0.7731
 3174poe    c2316479   4.719   5.681   1.675  0.5738 -0.8276  0.0294
 3174poe    c2316480   4.760   5.719   1.819 -0.2221 -0.0653  0.0629
 3174poe     o216481   4.830   5.622   1.894 -0.1551  0.5109  0.7542
 3174poe    c2316482   4.745   5.533   1.962 -0.2449 -0.0823 -0.1155
 3174poe    c2316483   4.828   5.421   2.028  0.1237  0.0795 -0.3027
 3174poe     o216484   4.933   5.370   1.948  0.1071  0.3446 -0.4916
 3174poe    c2316485   5.000   5.266   2.014 -0.5035  0.4201  0.2476
 3174poe    c2316486   5.124   5.246   1.926 -1.1800  0.0611 -0.6421
 3174poe     o216487   5.198   5.364   1.906 -0.3289 -0.4008 -0.2736
 3174poe    c3116488   5.338   5.345   1.896 -0.2941 -0.5948  0.5067
 3175poe    c3116489   4.768   6.397   5.872 -0.1583 -0.3136  0.2959
 3175poe     o216490   4.671   6.388   5.769 -0.3813  0.4601  0.4368
 3175poe    c2316491   4.690   6.488   5.671 -0.2715 -0.3175 -0.3433
 3175poe    c2316492   4.572   6.504   5.573 -0.1062  0.0562 -0.4824
 3175poe     o216493   4.532   6.371   5.546 -0.7051  0.1308  0.0195
 3175poe    c2316494   4.450   6.365   5.431  0.0690  0.0681 -0.5377
 3175poe    c2316495   4.409   6.216   5.423  0.2938 -0.0226 -0.0909
 3175poe     o216496   4.350   6.151   5.532  0.6193  0.0035  0.1027
 3175poe    c2316497   4.216   6.188   5.557  0.6002 -0.1257  0.1960
 3175poe    c2316498   4.177   6.081   5.661 -0.0840  0.1061  0.1862
 3175poe     o216499   4.258   6.092   5.776 -0.2547 -0.0151  0.3165
 3175poe    c3116500   4.207   6.005   5.875  0.1937  0.3006  0.8311
 3176poe    c3116501   1.865   5.760   5.236 -0.1596  0.1411 -0.0496
 3176poe     o216502   1.934   5.813   5.126  0.0626 -0.1190 -0.0379
 3176poe    c2316503   2.044   5.896   5.157  0.1654 -0.2559 -0.0355
 3176poe    c2316504   2.099   5.956   5.026 -0.6697 -0.0537 -0.3008
 3176poe     o216505   2.154   5.861   4.936  0.2942 -0.0232  0.2476
 3176poe    c2316506   2.261   5.776   4.972 -0.1779 -0.5874  0.3310
 3176poe    c2316507   2.262   5.650   4.884  0.5913 -0.3999  0.0639
 3176poe     o216508   2.270   5.694   4.750  0.0823  0.1169  0.2005
 3176poe    c2316509   2.256   5.589   4.657  0.5359  0.2445 -0.0175
 3176poe    c2316510   2.249   5.622   4.507  0.3492 -0.8611 -0.2570
 3176poe     o216511   2.363   5.677   4.445  0.4332 -0.3272  0.3566
 3176poe    c3116512   2.364   5.658   4.305  0.3284 -0.3388  0.3573
 3177poe    c3116513   1.068   0.147   5.345 -0.3284  0.2602  0.2123
 3177poe     o216514   0.933   0.118   5.376 -0.3961 -0.0617 -0.3849
 3177poe    c2316515   0.849   0.222   5.331 -0.4932 -0.0114 -0.0869
 3177poe    c2316516   0.700   0.186   5.344 -0.5100  0.0034 -0.2398
 3177poe     o216517   0.656   0.075   5.269 -0.1188 -0.2359 -0.1195
 3177poe    c2316518   0.656   0.101   5.130 -0.3479 -0.5812 -0.1862
 3177poe    c2316519   0.643  -0.023   5.040  0.0998 -0.3482 -0.5732
 3177poe     o216520   0.751  -0.114   5.038  0.0127 -0.4830  0.3834
 3177poe    c2316521   0.740  -0.218   4.943  0.0840 -0.6661  0.5776
 3177poe    c2316522   0.857  -0.318   4.950  0.5058 -0.2163  0.0180
 3177poe     o216523   0.851  -0.388   5.072 -0.7251 -0.4226 -0.1487
 3177poe    c3116524   0.957  -0.481   5.084 -0.3273  0.0596  0.1063
 3178poe    c3116525   0.308   3.683   6.254  0.4045 -0.0779 -0.3771
 3178poe     o216526   0.417   3.603   6.294  0.3734  0.4035  0.7090
 3178poe    c2316527   0.367   3.488   6.358  0.5489 -0.2070 -0.2263
 3178poe    c2316528   0.463   3.399   6.440  0.0905 -0.0435  0.5046
 3178poe     o216529   0.538   3.322   6.348 -0.0597  0.5331 -0.1071
 3178poe    c2316530   0.510   3.185   6.361  0.6322  0.3889 -0.1140
 3178poe    c2316531   0.576   3.110   6.479 -0.3449 -0.3271 -0.0104
 3178poe     o216532   0.715   3.129   6.471 -0.3437 -0.1831  0.3179
 3178poe    c2316533   0.777   3.030   6.549 -0.2021  0.0297  0.4761
 3178poe    c2316534   0.927   3.065   6.562 -0.0329 -0.4983 -0.0102
 3178poe     o216535   0.983   3.077   6.434 -0.9043  0.4055 -0.3175
 3178poe    c3116536   1.107   3.139   6.461 -0.6701 -0.0655 -0.3084
 3179poe    c3116537   6.482   2.705   3.360  0.1643  0.0270 -0.7873
 3179poe     o216538   6.595   2.626   3.331  0.2277 -0.2545  0.1735
 3179poe    c2316539   6.653   2.680   3.214 -0.0275  0.5322  0.4050
 3179poe    c2316540   6.800   2.650   3.177 -0.2490 -0.0789 -0.0006
 3179poe     o216541   6.891   2.695   3.275 -0.2828  0.3296 -0.1528
 3179poe    c2316542   7.019   2.648   3.239 -0.4269  0.0223 -0.2686
 3179poe    c2316543   7.120   2.718   3.332 -0.3191 -0.0926 -0.2991
 3179poe     o216544   7.057   2.739   3.456  0.0136  0.8838 -0.2822
 3179poe    c2316545   7.154   2.786   3.547  0.0033 -0.6765  0.5778
 3179poe    c2316546   7.081   2.840   3.671 -0.0101  0.0884  0.2403
 3179poe     o216547   6.950   2.884   3.643 -0.0671 -0.0957  0.2191
 3179poe    c3116548   6.884   2.935   3.757 -0.3731 -0.3057  0.1377
 3180poe    c3116549   0.131   6.387   4.098  0.0929 -0.2038  0.5676
 3180poe     o216550   0.249   6.322   4.058 -0.0017 -0.1327  0.1737
 3180poe    c2316551   0.311   6.261   4.169  0.4783 -0.0523 -0.0457
 3180poe    c2316552   0.421   6.157   4.139 -0.1035 -0.5633 -0.4396
 3180poe     o216553   0.517   6.222   4.058 -0.1394  0.3538  0.2366
 3180poe    c2316554   0.647   6.167   4.059 -0.2944 -0.0563 -0.6883
 3180poe    c2316555   0.662   6.072   3.939 -0.3834 -0.4472 -0.3946
 3180poe     o216556   0.643   6.142   3.818 -0.5183 -0.2529 -0.2627
 3180poe    c2316557   0.727   6.064   3.736 -0.0296 -0.0573  0.0466
 3180poe    c2316558   0.782   6.147   3.619 -0.2803 -0.0971 -0.1015
 3180poe     o216559   0.688   6.174   3.518 -0.3060  0.4259  0.0612
 3180poe    c3116560   0.755   6.224   3.404 -0.5095  0.2324 -0.1466
 3181poe    c3116561   2.230   5.712   0.920 -0.1655  0.6618 -0.2898
 3181poe     o216562   2.104   5.682   0.864 -0.0233  0.3081 -0.4251
 3181poe    c2316563   2.127   5.588   0.762 -0.4034 -0.0697 -0.1598
 3181poe    c2316564   1.992   5.574   0.688 -0.3366  0.4400 -0.3810
 3181poe     o216565   1.892   5.527   0.776  0.0833  0.1403 -0.0578
 3181poe    c2316566   1.790   5.448   0.720  0.2634 -0.1509  0.0275
 3181poe    c2316567   1.720   5.395   0.847 -0.8217 -0.0531 -0.5234
 3181poe     o216568   1.716   5.495   0.946 -0.3285 -0.5607  0.0179
 3181poe    c2316569   1.610   5.488   1.038 -0.2799  0.1558  0.1323
 3181poe    c2316570   1.623   5.591   1.152  0.1636  0.2833 -0.0328
 3181poe     o216571   1.746   5.585   1.221 -0.0360 -0.1324  0.2916
 3181poe    c3116572   1.740   5.680   1.326  0.4916 -0.2022  0.3876
 3182poe    c3116573   3.775   3.250   0.033  0.2838  0.0319  0.4103
 3182poe     o216574   3.823   3.147   0.116 -0.2352  0.3310  1.0919
 3182poe    c2316575   3.707   3.078   0.160 -0.4445 -0.0038  0.0415
 3182poe    c2316576   3.744   2.944   0.227  0.6254 -0.0245 -0.5637
 3182poe     o216577   3.782   2.833   0.149  0.1036 -0.4956 -0.1544
 3182poe    c2316578   3.781   2.723   0.236  0.2898 -0.0802  0.3782
 3182poe    c2316579   3.881   2.610   0.204  0.3869  0.3367 -0.8213
 3182poe     o216580   4.013   2.637   0.245  0.2583 -0.1240 -0.0917
 3182poe    c2316581   4.092   2.520   0.234 -0.3189 -0.5103 -0.2061
 3182poe    c2316582   4.204   2.548   0.337 -0.4378  0.1247 -0.2434
 3182poe     o216583   4.275   2.667   0.310  0.0421 -0.1040  0.0099
 3182poe    c3116584   4.358   2.688   0.422 -0.9059  0.7257  0.5729
 3183poe    c3116585   1.975   2.343   1.712 -0.0837 -0.1606  0.0239
 3183poe     o216586   2.111   2.341   1.675 -0.0666 -0.1101  0.0845
 3183poe    c2316587   2.124   2.251   1.567  0.1500  0.2114 -0.1632
 3183poe    c2316588   2.255   2.170   1.557  0.0391 -0.0475  0.4225
 3183poe     o216589   2.363   2.249   1.602  0.2740  0.0455 -0.2899
 3183poe    c2316590   2.488   2.190   1.572  0.2602 -0.1587  0.0400
 3183poe    c2316591   2.534   2.057   1.633  0.6582  0.0743  0.2475
 3183poe     o216592   2.464   1.944   1.587  0.3566  0.3667 -0.0082
 3183poe    c2316593   2.503   1.823   1.646  0.4155  0.2107 -0.3632
 3183poe    c2316594   2.410   1.707   1.604  0.4886  0.1562 -0.3764
 3183poe     o216595   2.402   1.681   1.466 -0.6602  0.3257 -0.3520
 3183poe    c3116596   2.304   1.584   1.434 -0.7959  0.1386  0.5796
 3184poe    c3116597   6.570   0.302   2.733  0.6154  0.2871  0.6657
 3184poe     o216598   6.530   0.420   2.668  0.3527 -0.1922 -0.0510
 3184poe    c2316599   6.569   0.430   2.533  0.3947  0.6536  0.0194
 3184poe    c2316600   6.568   0.573   2.475  0.3099  0.4347 -0.5237
 3184poe     o216601   6.676   0.648   2.525 -0.0440  0.1180  0.7545
 3184poe    c2316602   6.670   0.779   2.474 -0.5000 -0.0477  0.3796
 3184poe    c2316603   6.636   0.892   2.573 -0.2359  0.3773 -0.0085
 3184poe     o216604   6.738   0.959   2.644 -0.3388  0.5394 -0.0134
 3184poe    c2316605   6.669   1.050   2.727 -0.2726  0.2169  0.3979
 3184poe    c2316606   6.753   1.170   2.775  0.2335  0.0076  0.0480
 3184poe     o216607   6.798   1.257   2.674  0.4214 -0.0062  0.1202
 3184poe    c3116608   6.924   1.310   2.709 -0.0244  0.8152  0.5223
 3185poe    c3116609   1.232   1.242   2.110 -0.0478 -0.2484 -0.3619
 3185poe     o216610   1.274   1.361   2.048 -0.2461 -0.2129 -0.4271
 3185poe    c2316611   1.213   1.481   2.091  0.5837 -0.0535  0.3198
 3185poe    c2316612   1.274   1.555   2.212  0.6832  0.0138  0.2291
 3185poe     o216613   1.405   1.599   2.186  0.6904 -0.3652 -0.3835
 3185poe    c2316614   1.468   1.670   2.290  0.7936 -0.2334 -0.5342
 3185poe    c2316615   1.598   1.737   2.243  1.0642 -0.0425  0.4517
 3185poe     o216616   1.673   1.646   2.166  0.1449 -0.0401 -0.4840
 3185poe    c2316617   1.797   1.705   2.133  0.5969 -0.6260  0.1467
 3185poe    c2316618   1.908   1.701   2.240  0.6735  0.3639  0.1122
 3185poe     o216619   1.955   1.571   2.268 -0.2913 -0.0570 -0.1821
 3185poe    c3116620   2.068   1.600   2.347 -0.7434  0.0557  0.4293
 3186poe    c3116621   0.130   3.493   5.701 -0.3107  0.4041 -0.6330
 3186poe     o216622   0.268   3.519   5.712 -0.1710 -0.5745  0.1665
 3186poe    c2316623   0.310   3.616   5.806  0.2115 -0.0947 -0.4861
 3186poe    c2316624   0.457   3.595   5.845  0.0523  0.2467  0.3253
 3186poe     o216625   0.522   3.572   5.722 -0.0363  0.3888  0.2525
 3186poe    c2316626   0.652   3.522   5.745 -0.0356  0.0443 -0.4452
 3186poe    c2316627   0.714   3.520   5.605 -0.0317  0.0791 -0.4442
 3186poe     o216628   0.630   3.452   5.515  0.0263 -0.2433 -0.2538
 3186poe    c2316629   0.673   3.458   5.381  0.4735 -0.4370 -0.1199
 3186poe    c2316630   0.592   3.370   5.283  0.1366  0.1849 -0.4051
 3186poe     o216631   0.464   3.420   5.251 -0.1852 -0.4705 -0.1648
 3186poe    c3116632   0.395   3.355   5.148 -0.3356 -0.0467 -0.3344
 3187poe    c3116633   5.304   5.712   6.736 -0.5379  0.4289 -0.2847
 3187poe     o216634   5.344   5.843   6.768 -0.0895  0.1766  0.2181
 3187poe    c2316635   5.479   5.853   6.808  0.0869 -0.6093 -0.1697
 3187poe    c2316636   5.519   5.988   6.871  0.1343 -0.6567 -0.0967
 3187poe     o216637   5.430   6.011   6.978  0.2437 -0.3701 -0.0669
 3187poe    c2316638   5.450   6.136   7.039 -0.2755 -0.5098  0.4060
 3187poe    c2316639   5.353   6.145   7.157 -0.1039  0.2827  0.4930
 3187poe     o216640   5.219   6.135   7.113  0.0494  0.1162  0.0569
 3187poe    c2316641   5.133   6.163   7.222  0.0154  0.5557 -0.0807
 3187poe    c2316642   4.984   6.177   7.188  0.0025  0.2185 -0.1707
 3187poe     o216643   4.907   6.077   7.125  0.1040 -0.0960  0.2030
 3187poe    c3116644   4.863   5.974   7.210  0.6877 -0.3861  0.1543
 3188poe    c3116645   0.730   4.219   1.712  0.5572 -0.3188 -0.4119
 3188poe     o216646   0.696   4.263   1.582 -0.2459  0.0400 -0.0875
 3188poe    c2316647   0.558   4.294   1.574 -0.1098  0.7585  0.2606
 3188poe    c2316648   0.524   4.355   1.437  0.3698 -0.4332 -0.4064
 3188poe     o216649   0.582   4.478   1.400 -0.6274  0.2149  0.1253
 3188poe    c2316650   0.608   4.486   1.261 -0.0512 -0.1622  0.2087
 3188poe    c2316651   0.721   4.398   1.203  0.0681 -0.1203  0.3739
 3188poe     o216652   0.854   4.426   1.240  0.0827  0.1406  0.1326
 3188poe    c2316653   0.944   4.437   1.132 -0.0695  0.6872  0.0608
 3188poe    c2316654   0.997   4.304   1.074  0.9438  0.9991  0.2531
 3188poe     o216655   1.113   4.256   1.139  0.4322  0.3791  0.7231
 3188poe    c3116656   1.145   4.125   1.098  0.4726  0.6036  0.0195
 3189poe    c3116657   1.418   4.924   2.274  0.0424  0.2218  0.0877
 3189poe     o216658   1.423   4.982   2.403  0.3506 -0.3393  0.3324
 3189poe    c2316659   1.417   5.122   2.388 -0.3352 -0.3897  0.1022
 3189poe    c2316660   1.438   5.190   2.525 -0.1086  0.4374 -0.3386
 3189poe     o216661   1.377   5.137   2.641  0.2078  0.1768 -0.2933
 3189poe    c2316662   1.405   5.206   2.761  0.1461 -0.1100 -0.1142
 3189poe    c2316663   1.324   5.137   2.872 -0.0694  0.1755 -0.0942
 3189poe     o216664   1.366   5.003   2.881 -0.2123  0.0967 -0.5817
 3189poe    c2316665   1.266   4.928   2.946 -0.1447  0.3284 -0.2089
 3189poe    c2316666   1.328   4.811   3.025 -0.0912  0.0282 -0.6921
 3189poe     o216667   1.434   4.760   2.948  0.3572  0.1320 -0.1465
 3189poe    c3116668   1.496   4.651   3.013  0.3217  0.3767  0.2979
 3190poe    c3116669   6.429   5.093   5.713 -0.5038  0.0411 -0.4871
 3190poe     o216670   6.348   4.996   5.651 -0.2959 -0.3578 -0.1371
 3190poe    c2316671   6.301   4.919   5.760 -0.0444  0.2571  0.4089
 3190poe    c2316672   6.158   4.866   5.739  0.0751  0.0903  0.0098
 3190poe     o216673   6.151   4.803   5.613 -0.0652  0.0813  0.0225
 3190poe    c2316674   6.023   4.745   5.608 -0.0938  0.1596 -0.1775
 3190poe    c2316675   5.996   4.665   5.479 -0.5731  0.1884 -0.0997
 3190poe     o216676   6.074   4.547   5.487 -0.1640  0.4613 -0.0078
 3190poe    c2316677   6.083   4.507   5.352  0.4489  0.3660  0.0590
 3190poe    c2316678   6.200   4.408   5.337 -0.7414 -0.9970 -0.4591
 3190poe     o216679   6.326   4.454   5.378 -0.9104 -0.6957 -0.2752
 3190poe    c3116680   6.432   4.360   5.378 -0.0673  0.2312 -0.0203
 3191poe    c3116681   3.431   0.520   3.090  0.7007 -0.0221  0.1627
 3191poe     o216682   3.413   0.412   3.179 -0.0909 -0.0327 -0.0020
 3191poe    c2316683   3.352   0.456   3.298 -0.1180  0.0776 -0.0566
 3191poe    c2316684   3.307   0.330   3.374 -0.2206 -0.0605 -0.3437
 3191poe     o216685   3.172   0.289   3.362 -0.2896  0.1786 -0.3979
 3191poe    c2316686   3.167   0.160   3.418 -0.1308  0.1989 -0.3345
 3191poe    c2316687   3.023   0.125   3.460  0.1203  0.0300  0.4140
 3191poe     o216688   2.945   0.120   3.342  0.3143  0.0162  0.2871
 3191poe    c2316689   2.810   0.111   3.379  0.1613 -0.1257 -0.2852
 3191poe    c2316690   2.726   0.139   3.253  0.2596  0.2913 -0.2617
 3191poe     o216691   2.726   0.279   3.245 -0.0778  0.2869 -0.3435
 3191poe    c3116692   2.640   0.332   3.146  0.1591  1.1307 -0.1060
 3192poe    c3116693   6.664   6.664   4.011  0.3882 -0.1533  0.4328
 3192poe     o216694   6.733   6.761   4.086  0.4616 -0.2011  0.4274
 3192poe    c2316695   6.668   6.794   4.207 -0.0176  0.2957  0.0376
 3192poe    c2316696   6.746   6.873   4.314 -0.4559  0.0436  0.5500
 3192poe     o216697   6.768   7.005   4.269  0.0703 -0.2474 -0.0612
 3192poe    c2316698   6.888   7.035   4.202  0.3678 -0.3227  0.4318
 3192poe    c2316699   7.004   7.094   4.284  0.1624 -0.4218  0.7934
 3192poe     o216700   7.128   7.131   4.228 -0.4737  0.5329 -0.0035
 3192poe    c2316701   7.190   7.223   4.314 -0.1327 -0.2516  0.5928
 3192poe    c2316702   7.337   7.228   4.269 -0.1861 -0.3987  0.4007
 3192poe     o216703   7.357   7.317   4.161  0.0714 -0.2634  0.5591
 3192poe    c3116704   7.493   7.353   4.153 -0.1847  0.5222 -0.3199
 3193poe    c3116705   0.248   5.641   6.010  0.2905 -0.5019 -0.5240
 3193poe     o216706   0.336   5.613   6.116  0.4088 -0.2145 -0.5449
 3193poe    c2316707   0.279   5.642   6.241  1.0043  0.3414 -0.3986
 3193poe    c2316708   0.364   5.574   6.351  0.0455  0.3178  0.3378
 3193poe     o216709   0.340   5.438   6.380  0.0966  0.1716 -0.2940
 3193poe    c2316710   0.404   5.347   6.293  0.1068  0.1853 -0.3004
 3193poe    c2316711   0.354   5.204   6.317 -0.2836  0.4018  0.2031
 3193poe     o216712   0.369   5.141   6.442  0.9431 -0.4853 -0.3707
 3193poe    c2316713   0.339   5.004   6.423  0.0721 -0.3435 -0.0290
 3193poe    c2316714   0.409   4.920   6.531 -0.1774 -0.0809  0.3415
 3193poe     o216715   0.539   4.889   6.486 -0.0462  0.1359  0.5615
 3193poe    c3116716   0.594   4.791   6.570 -0.6380 -0.4171  0.3130
 3194poe    c3116717   4.866   3.789   2.325 -0.5432 -0.5515 -0.1751
 3194poe     o216718   4.841   3.770   2.462 -0.1399 -0.0553 -0.0292
 3194poe    c2316719   4.845   3.633   2.496 -0.1009 -0.1398 -0.3791
 3194poe    c2316720   4.853   3.630   2.649 -0.2350 -0.2146 -0.3729
 3194poe     o216721   4.980   3.654   2.707 -0.0899 -0.3594 -0.6295
 3194poe    c2316722   4.976   3.660   2.848 -0.3491 -0.0716 -0.6490
 3194poe    c2316723   5.090   3.752   2.893 -0.4377 -0.2324 -0.0876
 3194poe     o216724   5.038   3.882   2.883  0.0570 -0.0491 -0.2851
 3194poe    c2316725   5.084   3.957   2.994  0.2064  0.1428 -0.4737
 3194poe    c2316726   5.011   4.091   3.010  0.3499  0.1817 -0.1472
 3194poe     o216727   5.038   4.185   2.909 -0.1397  0.1147 -0.3434
 3194poe    c3116728   4.981   4.308   2.949 -0.5517 -0.2440  0.1679
 3195poe    c3116729   4.333   6.385   3.485 -0.3685 -0.9287 -0.3268
 3195poe     o216730   4.369   6.313   3.600  0.0395  0.0706  0.1850
 3195poe    c2316731   4.341   6.380   3.721 -0.1848  0.1184  0.1048
 3195poe    c2316732   4.392   6.305   3.844 -0.2326  0.4840  0.3500
 3195poe     o216733   4.341   6.174   3.853  0.7008  0.1031  0.2393
 3195poe    c2316734   4.377   6.110   3.974 -0.4978  0.3282  0.7261
 3195poe    c2316735   4.346   5.960   3.960 -0.0416  0.2628  0.4004
 3195poe     o216736   4.231   5.950   3.880  0.0310  0.1170  0.3130
 3195poe    c2316737   4.178   5.821   3.858  0.2045  0.1322 -0.2123
 3195poe    c2316738   4.067   5.845   3.754 -0.0175 -0.9303 -0.2256
 3195poe     o216739   4.110   5.931   3.652  0.1508 -0.2589  0.3974
 3195poe    c3116740   4.026   5.903   3.542 -0.1995 -0.3171  0.6778
 3196poe    c3116741   2.099   4.110   5.340  0.0025  0.6517 -0.6550
 3196poe     o216742   2.081   4.050   5.213  0.3221 -0.1857 -0.3107
 3196poe    c2316743   2.119   3.916   5.195 -0.6304 -0.5390  0.1928
 3196poe    c2316744   2.057   3.859   5.066  0.0073 -0.5149 -0.1321
 3196poe     o216745   1.919   3.831   5.081 -0.1497  0.1898 -0.2138
 3196poe    c2316746   1.871   3.737   4.988 -0.1423 -0.2393  0.2096
 3196poe    c2316747   1.723   3.751   4.949 -0.0871 -0.2200  0.0042
 3196poe     o216748   1.657   3.764   5.073 -0.1868 -0.0510 -0.0661
 3196poe    c2316749   1.523   3.810   5.072 -0.1338  0.1008 -0.1873
 3196poe    c2316750   1.471   3.808   5.217  0.0107  0.1081 -0.1343
 3196poe     o216751   1.572   3.884   5.280 -0.0675  0.0097  0.1096
 3196poe    c3116752   1.535   3.902   5.415 -0.7752  0.4737 -0.1388
 3197poe    c3116753   1.942   1.306   4.599  0.1559 -0.2682  0.0640
 3197poe     o216754   2.056   1.352   4.530 -0.2498  0.3145 -0.2320
 3197poe    c2316755   2.097   1.255   4.436  0.3004  0.1406  0.1780
 3197poe    c2316756   2.231   1.276   4.364  0.2590  0.4015  0.1773
 3197poe     o216757   2.352   1.249   4.431  0.1183 -0.3140  0.1460
 3197poe    c2316758   2.455   1.319   4.365 -0.1470 -0.3660 -0.3261
 3197poe    c2316759   2.585   1.302   4.446 -0.2555  0.0184 -0.0714
 3197poe     o216760   2.563   1.337   4.580  0.1628 -0.3273  0.0905
 3197poe    c2316761   2.669   1.296   4.663  0.2611 -0.1751  0.0394
 3197poe    c2316762   2.634   1.328   4.809  0.2295 -0.4962  0.1024
 3197poe     o216763   2.498   1.300   4.831  0.0821  0.0939 -0.0425
 3197poe    c3116764   2.475   1.258   4.964  0.0700 -0.2188 -0.1409
 3198poe    c3116765   6.114   0.471   4.262 -0.3419  0.4745  0.5722
 3198poe     o216766   6.096   0.352   4.336  0.3276  0.1139  0.1681
 3198poe    c2316767   5.981   0.279   4.298  0.3535  0.0646  0.1854
 3198poe    c2316768   5.938   0.164   4.390  0.4023  0.0754  0.2223
 3198poe     o216769   6.028   0.055   4.393  0.2688 -0.0342  0.2883
 3198poe    c2316770   6.014  -0.016   4.514 -0.1001  0.3554  0.4769
 3198poe    c2316771   6.065  -0.153   4.466 -0.1864  0.3885  0.2905
 3198poe     o216772   6.190  -0.132   4.404 -0.0875  0.3466  0.4762
 3198poe    c2316773   6.253  -0.253   4.372  0.1429  0.5506  0.1533
 3198poe    c2316774   6.385  -0.211   4.303  0.3294 -0.3402 -0.0492
 3198poe     o216775   6.353  -0.111   4.209  0.0527  0.0155  0.4172
 3198poe    c3116776   6.472  -0.079   4.139  0.1290  0.1905  0.6236
 3199poe    c3116777   6.032   3.361   0.039 -0.0157  0.3003  0.0783
 3199poe     o216778   5.993   3.460   0.132  0.2170 -0.0661  0.5727
 3199poe    c2316779   6.112   3.524   0.170  0.4224  0.1019 -0.3313
 3199poe    c2316780   6.077   3.663   0.226 -0.6808 -0.2875 -0.0407
 3199poe     o216781   6.042   3.751   0.122  0.0277 -0.1528 -0.1676
 3199poe    c2316782   5.941   3.838   0.167  0.6873  0.4703  0.1411
 3199poe    c2316783   5.892   3.915   0.043  0.6498 -0.2289 -0.2826
 3199poe     o216784   6.004   3.988  -0.002  0.3230  0.4294 -0.0402
 3199poe    c2316785   5.974   4.060  -0.120  0.1093  0.1466 -0.1604
 3199poe    c2316786   6.092   4.144  -0.173  0.0429  0.1797 -0.2547
 3199poe     o216787   6.206   4.066  -0.199  0.4182  0.5751  0.1837
 3199poe    c3116788   6.308   4.142  -0.259  0.2460  0.3892 -0.3494
 3200poe    c3116789   4.112   2.104   6.436  0.2102 -0.0352  0.1588
 3200poe     o216790   4.066   2.099   6.569  0.5088  0.3573  0.2810
 3200poe    c2316791   3.946   2.171   6.586 -0.1099 -0.5351 -0.1960
 3200poe    c2316792   3.871   2.144   6.717  0.1154  0.2243  0.0984
 3200poe     o216793   3.826   2.013   6.745  0.1944  0.1296 -0.2202
 3200poe    c2316794   3.725   1.943   6.676 -0.2234  0.2452  0.2677
 3200poe    c2316795   3.784   1.853   6.566 -0.3681  0.1448  0.2722
 3200poe     o216796   3.875   1.751   6.602 -0.4543  0.0052  0.1031
 3200poe    c2316797   3.934   1.681   6.495  0.3447  0.5739  0.1599
 3200poe    c2316798   4.030   1.572   6.547 -0.4056 -0.1174  0.1200
 3200poe     o216799   4.153   1.609   6.607 -0.1926  0.0009 -0.3868
 3200poe    c3116800   4.246   1.680   6.529  0.2472 -0.0641  0.0731
 3201poe    c3116801   5.193   1.641   0.599 -0.2459  0.0893 -0.0026
 3201poe     o216802   5.215   1.725   0.487  0.0381 -0.1293 -0.1116
 3201poe    c2316803   5.343   1.782   0.495 -0.1361  0.1615  0.7273
 3201poe    c2316804   5.345   1.927   0.547  0.0537  0.4176  0.0097
 3201poe     o216805   5.318   2.018   0.442  0.4429 -0.2389 -0.6678
 3201poe    c2316806   5.317   2.150   0.490  0.9252 -0.3717 -0.2751
 3201poe    c2316807   5.380   2.244   0.385  0.3631  0.4585  0.1206
 3201poe     o216808   5.295   2.285   0.279  0.0475 -0.0821  0.1618
 3201poe    c2316809   5.371   2.319   0.166 -0.0423 -0.4050  0.0024
 3201poe    c2316810   5.287   2.400   0.066  0.3452 -0.1974 -0.1579
 3201poe     o216811   5.256   2.524   0.126 -0.0998 -0.4057  0.0447
 3201poe    c3116812   5.164   2.599   0.050  0.1619  0.0792  0.1964
 3202poe    c3116813   4.119   2.180   3.702  0.3681 -0.2076  0.6479
 3202poe     o216814   4.022   2.093   3.756 -0.1398  0.1726  0.3531
 3202poe    c2316815   4.056   1.960   3.725 -0.5653  0.1409  0.0044
 3202poe    c2316816   3.949   1.863   3.778 -0.0865 -0.4289 -0.0627
 3202poe     o216817   3.828   1.907   3.721 -0.0059  0.2634  0.2888
 3202poe    c2316818   3.769   1.806   3.642 -0.0694  0.1976  0.4203
 3202poe    c2316819   3.632   1.866   3.605  0.0461  0.1663 -0.0710
 3202poe     o216820   3.583   1.917   3.728  0.1605  0.1538 -0.0205
 3202poe    c2316821   3.471   1.993   3.689 -0.2930 -0.2025  0.5828
 3202poe    c2316822   3.416   2.070   3.810  0.0884  0.0163  0.6194
 3202poe     o216823   3.517   2.155   3.859  0.1958  0.1364  0.1898
 3202poe    c3116824   3.488   2.215   3.983 -0.2820  0.2936  0.0042
 3203poe    c3116825   5.117   1.292   3.902  0.5861 -0.2643  0.1227
 3203poe     o216826   5.235   1.343   3.844  0.3360  0.2445  0.0602
 3203poe    c2316827   5.267   1.267   3.729  0.7378  0.0680  0.2880
 3203poe    c2316828   5.356   1.327   3.619  0.0012  0.1401 -0.2755
 3203poe     o216829   5.300   1.443   3.562  0.2684  0.3382 -0.1393
 3203poe    c2316830   5.392   1.496   3.469  0.0620  0.2778 -0.3796
 3203poe    c2316831   5.337   1.475   3.327  0.7541  0.3317 -0.6601
 3203poe     o216832   5.226   1.560   3.303  0.1870 -0.2470 -0.1352
 3203poe    c2316833   5.234   1.617   3.174 -0.4901  0.3253  0.0726
 3203poe    c2316834   5.158   1.749   3.156 -0.1270  0.5668  0.2981
 3203poe     o216835   5.021   1.715   3.156 -0.0965  0.4442  0.1764
 3203poe    c3116836   4.945   1.808   3.082  0.1116 -0.0318 -0.6482
 3204poe    c3116837   4.895   0.848   3.329 -0.0321 -0.4607 -0.4248
 3204poe     o216838   4.910   0.848   3.469  0.1880  0.1406 -0.4453
 3204poe    c2316839   4.844   0.735   3.523 -0.2933  0.4220 -0.4379
 3204poe    c2316840   4.814   0.744   3.673  0.1147 -0.0920 -0.3216
 3204poe     o216841   4.723   0.840   3.722 -0.0084 -0.2807 -0.1792
 3204poe    c2316842   4.696   0.825   3.860  0.2943 -0.0265 -0.0890
 3204poe    c2316843   4.616   0.946   3.912  0.2590 -0.0523 -0.0831
 3204poe     o216844   4.704   1.054   3.931  0.2140 -0.0890  0.3488
 3204poe    c2316845   4.634   1.164   3.984 -0.0894  0.1013 -0.4347
 3204poe    c2316846   4.716   1.289   4.018 -0.2073  0.1008 -0.1442
 3204poe     o216847   4.791   1.293   4.138 -0.0052 -0.2896 -0.2556
 3204poe    c3116848   4.790   1.417   4.205  0.3296 -0.1356 -0.5288
 3205poe    c3116849   3.728   0.167   4.667 -0.1474  0.5624  0.6156
 3205poe     o216850   3.597   0.166   4.617 -0.1359 -0.3597  0.5726
 3205poe    c2316851   3.602   0.148   4.477 -0.3346  0.4126  0.4600
 3205poe    c2316852   3.465   0.104   4.422  0.1334 -0.0523 -0.3549
 3205poe     o216853   3.418  -0.017   4.477 -0.0718  0.2198  0.0748
 3205poe    c2316854   3.280  -0.043   4.464 -0.0172 -0.0341  0.0045
 3205poe    c2316855   3.219  -0.143   4.563 -0.3580 -0.1632 -0.3329
 3205poe     o216856   3.200  -0.095   4.694  0.1218 -0.5428 -0.1218
 3205poe    c2316857   3.185  -0.197   4.790  0.1489 -0.1532  0.2994
 3205poe    c2316858   3.165  -0.124   4.924 -0.5501  0.1521  0.0363
 3205poe     o216859   3.266  -0.029   4.948 -0.1697 -0.2162 -0.0953
 3205poe    c3116860   3.232   0.056   5.055  0.5544  0.2202 -0.1998
 3206poe    c3116861   1.768   5.559   3.219  0.0461  0.2389 -0.1368
 3206poe     o216862   1.665   5.469   3.255 -0.3328  0.8601  0.3500
 3206poe    c2316863   1.555   5.459   3.167 -0.1559  0.1154  0.2070
 3206poe    c2316864   1.426   5.418   3.240 -0.5423  0.7263 -0.1236
 3206poe     o216865   1.423   5.291   3.301  0.5053  0.4516 -0.6247
 3206poe    c2316866   1.298   5.227   3.303  0.6581  0.1631  0.7659
 3206poe    c2316867   1.323   5.114   3.405 -0.2427 -0.4277  0.3386
 3206poe     o216868   1.377   5.168   3.523  0.2525  0.1606 -0.1524
 3206poe    c2316869   1.431   5.071   3.610 -0.5677 -0.0757  0.1014
 3206poe    c2316870   1.491   5.147   3.729 -0.2039 -0.0606 -0.0907
 3206poe     o216871   1.551   5.260   3.670 -0.1148  0.0743  0.2540
 3206poe    c3116872   1.645   5.302   3.767 -0.3572  0.2979  0.3946
 3207poe    c3116873   6.538   4.560   3.270  0.2905 -0.2449  0.2194
 3207poe     o216874   6.439   4.546   3.369 -0.2369 -0.5652 -0.3474
 3207poe    c2316875   6.483   4.443   3.455 -0.1493  0.0250  0.3167
 3207poe    c2316876   6.397   4.386   3.569 -0.7368 -0.1937 -0.2321
 3207poe     o216877   6.387   4.481   3.673 -0.1989  0.0247 -0.3748
 3207poe    c2316878   6.338   4.413   3.786  0.0281  0.1621 -0.1942
 3207poe    c2316879   6.270   4.490   3.901  0.4105 -0.0162  0.1572
 3207poe     o216880   6.193   4.407   3.984 -0.3220  0.2606 -0.2303
 3207poe    c2316881   6.246   4.389   4.114  0.5231 -0.0730 -0.6159
 3207poe    c2316882   6.379   4.313   4.127  0.2879 -0.3352  0.3030
 3207poe     o216883   6.495   4.391   4.105 -0.0191  0.0454  0.0303
 3207poe    c3116884   6.620   4.330   4.127  0.0498  0.2567  0.2249
 3208poe    c3116885   0.201   2.545   1.444 -0.7909 -0.0866  0.0455
 3208poe     o216886   0.149   2.647   1.362 -0.2351  0.3069  0.1721
 3208poe    c2316887   0.142   2.765   1.439  0.1923  0.3032  0.2201
 3208poe    c2316888   0.133   2.870   1.327 -0.1209  0.1869  0.1339
 3208poe     o216889   0.013   2.892   1.256 -0.1889 -0.5208  0.0183
 3208poe    c2316890   0.039   2.972   1.143 -0.0287 -0.0108  0.4066
 3208poe    c2316891  -0.090   2.971   1.059  0.0606  0.2653  0.2646
 3208poe     o216892  -0.142   2.842   1.030  0.1761  0.2428  0.1557
 3208poe    c2316893  -0.246   2.837   0.935 -0.1450 -0.3527  0.5364
 3208poe    c2316894  -0.297   2.694   0.911 -0.7709 -0.0129 -0.1713
 3208poe     o216895  -0.301   2.627   1.035 -0.1674 -0.0971 -0.1982
 3208poe    c3116896  -0.340   2.493   1.015  0.6544 -0.3263 -0.3317
 3209poe    c3116897   6.465   5.115   2.710 -0.1832 -0.2596 -0.2790
 3209poe     o216898   6.404   5.234   2.666 -0.2094 -0.0691  0.2632
 3209poe    c2316899   6.266   5.231   2.694 -0.3630 -0.5034 -0.5210
 3209poe    c2316900   6.204   5.372   2.695  0.1427 -0.2800 -0.2014
 3209poe     o216901   6.291   5.457   2.624 -0.0609 -0.0474 -0.1734
 3209poe    c2316902   6.240   5.588   2.619  0.7586  0.2703 -0.3467
 3209poe    c2316903   6.339   5.692   2.675 -0.4012  1.2788 -0.1246
 3209poe     o216904   6.452   5.707   2.592  0.0142  0.1948  0.2331
 3209poe    c2316905   6.572   5.681   2.662 -0.2571 -0.3048  0.5169
 3209poe    c2316906   6.664   5.566   2.618 -0.2043 -0.0496 -0.0456
 3209poe     o216907   6.606   5.439   2.638  0.4354 -0.3324  0.0730
 3209poe    c3116908   6.708   5.343   2.645  0.4794 -0.2681  0.3174
 3210poe    c3116909   0.106   6.974   0.401 -0.4608 -0.2595 -0.1371
 3210poe     o216910   0.135   6.974   0.263 -0.1591 -0.3621 -0.0740
 3210poe    c2316911   0.273   6.946   0.256  0.0091  0.4330 -0.0053
 3210poe    c2316912   0.310   6.915   0.110  0.2249 -0.1814  0.1777
 3210poe     o216913   0.238   7.010   0.034  0.6089  0.1102  0.1767
 3210poe    c2316914   0.241   7.004  -0.107 -0.1077  0.2893  0.1516
 3210poe    c2316915   0.165   7.128  -0.158  0.1753  0.5513  0.3589
 3210poe     o216916   0.044   7.132  -0.084  0.0309 -0.3134  0.1908
 3210poe    c2316917  -0.051   7.228  -0.126  0.1253 -0.3119 -0.0252
 3210poe    c2316918  -0.128   7.215  -0.259 -0.6445  0.9795  0.2818
 3210poe     o216919  -0.210   7.101  -0.261  0.1326  0.4133  0.0665
 3210poe    c3116920  -0.279   7.106  -0.384  0.8726 -0.6829 -0.4072
 3211poe    c3116921   0.792   3.557   7.183 -0.1002 -0.2412  0.0733
 3211poe     o216922   0.774   3.696   7.194 -0.1112 -0.1704 -0.7668
 3211poe    c2316923   0.644   3.750   7.189 -0.1914 -0.3022 -0.1245
 3211poe    c2316924   0.636   3.887   7.120 -0.3249 -0.0521  0.3854
 3211poe     o216925   0.695   3.972   7.216  0.6327 -0.1700 -0.0869
 3211poe    c2316926   0.672   4.109   7.194 -0.5579 -0.2222  0.7403
 3211poe    c2316927   0.652   4.218   7.301 -0.4392  0.1572  0.3790
 3211poe     o216928   0.779   4.258   7.346 -0.0968 -0.9443  0.4036
 3211poe    c2316929   0.774   4.364   7.439 -0.3044 -0.3039 -0.3278
 3211poe    c2316930   0.911   4.430   7.464 -0.5868  0.3531 -0.4979
 3211poe     o216931   0.996   4.463   7.356  0.0694  0.0407 -0.0797
 3211poe    c3116932   1.090   4.362   7.324  0.0635  0.1008 -0.2877
 3212poe    c3116933   1.451   0.236   3.913 -0.0802 -0.6012 -0.3328
 3212poe     o216934   1.338   0.274   3.989  0.0253 -0.2601 -0.3450
 3212poe    c2316935   1.381   0.362   4.090  0.2361  0.0294 -0.6853
 3212poe    c2316936   1.274   0.367   4.200  0.2283 -0.5419 -0.6615
 3212poe     o216937   1.153   0.372   4.128 -0.1055 -0.2455 -0.0930
 3212poe    c2316938   1.035   0.363   4.205 -0.1927  0.0501 -0.1930
 3212poe    c2316939   0.925   0.429   4.120 -0.1102  0.2497 -0.1460
 3212poe     o216940   0.906   0.362   3.998  0.1148  0.3115 -0.2155
 3212poe    c2316941   0.822   0.431   3.909  0.6012  0.1800 -0.7848
 3212poe    c2316942   0.797   0.340   3.787 -0.1691 -0.6666 -0.0126
 3212poe     o216943   0.921   0.334   3.720 -0.1501 -0.4361  0.0001
 3212poe    c3116944   0.904   0.264   3.599 -0.4868  0.1361 -0.2896
 3213poe    c3116945   5.229   6.080   3.040  0.3474 -0.4505  0.3321
 3213poe     o216946   5.209   6.009   2.920  0.2631 -0.2814  0.2450
 3213poe    c2316947   5.077   5.973   2.889  0.0432  0.5421  0.1945
 3213poe    c2316948   5.058   5.971   2.737  0.3362  0.3987  0.1583
 3213poe     o216949   5.029   6.098   2.682 -0.1315  0.3745  0.3413
 3213poe    c2316950   5.151   6.157   2.643 -0.0206  0.1844  0.3984
 3213poe    c2316951   5.150   6.297   2.579  0.5136 -0.1384 -0.3307
 3213poe     o216952   5.069   6.315   2.465 -0.2750 -0.0208  0.2333
 3213poe    c2316953   5.065   6.451   2.430 -0.0241  0.1441  0.8423
 3213poe    c2316954   4.925   6.512   2.412 -0.0573 -0.2886 -0.4443
 3213poe     o216955   4.849   6.455   2.308 -0.1055 -0.4625 -0.3137
 3213poe    c3116956   4.828   6.555   2.210 -0.1062 -0.7757 -0.6369
 3214poe    c3116957   2.002   4.437   0.341 -0.2447  0.7564 -0.3728
 3214poe     o216958   2.047   4.565   0.380  0.3671  0.4035  0.1010
 3214poe    c2316959   2.084   4.632   0.261 -0.7070  0.5385 -0.1721
 3214poe    c2316960   2.164   4.757   0.304 -0.3114  0.0124  0.6626
 3214poe     o216961   2.283   4.735   0.375 -0.2322  0.0393  0.5387
 3214poe    c2316962   2.312   4.849   0.453 -0.1023  0.0021  0.5458
 3214poe    c2316963   2.421   4.828   0.560  0.0495  0.1323  0.4171
 3214poe     o216964   2.545   4.790   0.505 -0.4207 -0.7036 -0.1015
 3214poe    c2316965   2.642   4.824   0.601 -0.3475 -0.3106 -0.3097
 3214poe    c2316966   2.785   4.827   0.545 -0.0174 -0.4343  0.5091
 3214poe     o216967   2.830   4.693   0.548 -0.0125 -0.4387  0.2431
 3214poe    c3116968   2.969   4.685   0.524 -0.0117  0.3017 -0.0185
 3215poe    c3116969   2.928   1.376   6.943  0.1425  0.2895  0.2318
 3215poe     o216970   2.995   1.335   7.061 -0.3798 -0.2657  0.3407
 3215poe    c2316971   2.944   1.397   7.177 -0.2864  0.1798  0.1454
 3215poe    c2316972   3.028   1.521   7.213  0.4234 -0.1240 -0.4311
 3215poe     o216973   3.033   1.592   7.092  0.0992  0.1823 -0.2685
 3215poe    c2316974   3.157   1.654   7.071 -0.2457  0.9431 -0.0791
 3215poe    c2316975   3.170   1.700   6.924 -0.5618 -0.1085 -0.4422
 3215poe     o216976   3.211   1.597   6.837 -0.0953 -0.3553  0.0668
 3215poe    c2316977   3.250   1.635   6.707 -0.0062 -0.0089  0.1921
 3215poe    c2316978   3.209   1.532   6.600  0.2052  0.0635  0.0420
 3215poe     o216979   3.256   1.401   6.619 -0.5294 -0.2206 -0.0591
 3215poe    c3116980   3.239   1.334   6.496 -0.4857  0.0465 -0.2118
 3216poe    c3116981   3.070   3.379   5.502  0.1415  0.2979 -0.5142
 3216poe     o216982   2.931   3.359   5.492  0.1407  0.2612 -0.4318
 3216poe    c2316983   2.900   3.301   5.367 -0.4380  0.0676 -0.2023
 3216poe    c2316984   2.751   3.266   5.356 -0.4850  0.0840  0.3694
 3216poe     o216985   2.669   3.376   5.390 -0.5555  0.1513 -0.0166
 3216poe    c2316986   2.529   3.360   5.387 -0.4764 -0.6105  0.2400
 3216poe    c2316987   2.475   3.414   5.253 -0.8472 -0.3559  0.4890
 3216poe     o216988   2.486   3.551   5.220  0.4454 -0.5698 -0.0341
 3216poe    c2316989   2.442   3.568   5.087 -0.3991 -0.1313  0.2936
 3216poe    c2316990   2.554   3.606   4.988 -0.0986  0.1533  0.7344
 3216poe     o216991   2.640   3.709   5.030 -0.0009  0.1661  0.5058
 3216poe    c3116992   2.741   3.726   4.933  0.3304 -0.3541  0.7572
 3217poe    c3116993   0.940   3.040   0.057  0.4234  0.6847  0.7384
 3217poe     o216994   0.809   3.094   0.058  0.1336  0.0161 -0.2041
 3217poe    c2316995   0.745   3.068  -0.065 -0.5375  0.2192  0.1038
 3217poe    c2316996   0.636   3.173  -0.096 -0.6034 -0.0795 -0.6920
 3217poe     o216997   0.542   3.165   0.008 -0.2397 -0.0331 -0.3564
 3217poe    c2316998   0.428   3.245  -0.011 -0.4773 -0.2826 -0.0092
 3217poe    c2316999   0.322   3.216   0.097  0.3335 -0.6932  0.6852
 3217poe     o217000   0.381   3.236   0.223 -0.1245  0.4462  0.7375
 3217poe    c2317001   0.290   3.213   0.328 -0.3977 -0.2484  0.3551
 3217poe    c2317002   0.327   3.308   0.444 -0.4835  0.0069  0.1749
 3217poe     o217003   0.466   3.324   0.457 -0.4524 -0.0961 -0.0253
 3217poe    c3117004   0.497   3.422   0.554 -0.0941  0.3521 -0.5804
 3218poe    c3117005   3.791   2.096   1.209 -0.5960 -0.0268  0.1278
 3218poe     o217006   3.745   2.041   1.088 -0.2326 -0.0909  0.0168
 3218poe    c2317007   3.714   1.906   1.113 -0.2421 -0.0034  0.4990
 3218poe    c2317008   3.703   1.820   0.985  0.0377  0.1170  0.3935
 3218poe     o217009   3.587   1.850   0.911  0.3558  0.0470 -0.1329
 3218poe    c2317010   3.590   1.782   0.787 -0.0773 -0.2860  0.0388
 3218poe    c2317011   3.480   1.832   0.692  0.5019  0.2723 -0.3505
 3218poe     o217012   3.478   1.972   0.711  0.5101  0.1536  0.5732
 3218poe    c2317013   3.436   2.022   0.586  0.0966  0.1999  0.7273
 3218poe    c2317014   3.511   2.146   0.533  0.4447 -0.1821  0.3127
 3218poe     o217015   3.462   2.263   0.593 -0.4474 -0.5567  0.3381
 3218poe    c3117016   3.509   2.385   0.540 -0.2072 -0.6554  0.3229
 3219poe    c3117017   1.491   4.164   1.332  1.1849  0.5550 -0.5997
 3219poe     o217018   1.571   4.229   1.429  0.1534  0.3031  0.4282
 3219poe    c2317019   1.502   4.225   1.552 -0.6979 -0.2212 -0.0490
 3219poe    c2317020   1.508   4.369   1.607  0.1521 -0.0102 -0.6748
 3219poe     o217021   1.630   4.424   1.650  0.1212 -0.0596 -0.5264
 3219poe    c2317022   1.685   4.364   1.766  0.2725  0.4736 -0.3183
 3219poe    c2317023   1.805   4.431   1.834  0.3608 -0.1355  0.1252
 3219poe     o217024   1.922   4.439   1.756  0.3394  0.0172  0.1098
 3219poe    c2317025   2.026   4.471   1.846  0.6561  0.0771 -0.2706
 3219poe    c2317026   2.061   4.621   1.851 -0.0493  0.2492 -0.3476
 3219poe     o217027   2.161   4.655   1.758  0.1683  0.4339 -0.0459
 3219poe    c3117028   2.289   4.675   1.815  0.4371 -0.5750 -0.2749
 3220poe    c3117029   5.861   6.823   1.459  0.4912  0.0448 -0.3519
 3220poe     o217030   5.877   6.823   1.319 -0.3745  0.1211 -0.4576
 3220poe    c2317031   5.761   6.785   1.250 -0.3963 -0.7290  0.0404
 3220poe    c2317032   5.780   6.786   1.097 -0.9160 -0.8274 -0.0287
 3220poe     o217033   5.900   6.716   1.074 -0.3697 -0.0406  0.3723
 3220poe    c2317034   5.941   6.734   0.940 -0.1492 -0.8805  0.3210
 3220poe    c2317035   6.082   6.672   0.927  0.0530 -0.4532  0.4705
 3220poe     o217036   6.164   6.712   1.034 -0.1112  0.2245  0.3486
 3220poe    c2317037   6.303   6.699   1.017 -0.1816  0.2709 -0.3206
 3220poe    c2317038   6.366   6.570   1.074 -0.0600  0.5860  0.2751
 3220poe     o217039   6.335   6.538   1.208 -0.4074  0.5524  0.1872
 3220poe    c3117040   6.432   6.455   1.267 -0.2996  0.1508 -0.5397
 3221poe    c3117041   1.359   6.540   0.349 -0.3539 -0.5288  0.6273
 3221poe     o217042   1.334   6.633   0.246  0.3498 -0.1254  0.8109
 3221poe    c2317043   1.458   6.694   0.219 -0.0348  0.3521  0.1244
 3221poe    c2317044   1.441   6.828   0.145 -0.3541  0.3344  0.1623
 3221poe     o217045   1.371   6.815   0.023 -0.1806 -0.0983  0.1089
 3221poe    c2317046   1.303   6.937   0.010 -0.6418 -0.3518  0.1377
 3221poe    c2317047   1.209   6.920  -0.111 -0.1393 -0.4334 -0.2416
 3221poe     o217048   1.128   6.805  -0.115  0.0071 -0.5657  0.4369
 3221poe    c2317049   1.069   6.799  -0.243 -0.1399 -0.1690  0.4848
 3221poe    c2317050   0.955   6.698  -0.224 -0.0246 -0.5024 -0.5289
 3221poe     o217051   0.995   6.581  -0.154  0.8310 -0.2522 -0.5806
 3221poe    c3117052   0.901   6.480  -0.183  0.6093  0.0352 -0.8849
 3222poe    c3117053   0.130   5.005   0.220 -0.2211 -0.0195 -0.5599
 3222poe     o217054   0.228   5.085   0.283 -0.0740 -0.3857 -0.3158
 3222poe    c2317055   0.275   5.189   0.200 -0.2109  0.1295  0.2503
 3222poe    c2317056   0.186   5.315   0.199 -0.0811  0.2203  0.0526
 3222poe     o217057   0.150   5.370   0.324  0.1086 -0.3872  0.3761
 3222poe    c2317058   0.022   5.428   0.321  0.4229  0.3033  0.0949
 3222poe    c2317059  -0.034   5.471   0.458  0.2636 -0.3497  0.2421
 3222poe     o217060  -0.052   5.357   0.538  0.0968 -0.4973 -0.0055
 3222poe    c2317061  -0.134   5.388   0.648  0.7980  0.4972  0.2477
 3222poe    c2317062  -0.105   5.319   0.783  0.7913  0.2303  0.1130
 3222poe     o217063   0.026   5.342   0.831  0.7581  0.5419  0.0544
 3222poe    c3117064   0.020   5.431   0.940  0.0412 -0.0997  0.5550
 3223poe    c3117065   5.651   4.113   3.429 -0.2988  0.2083 -0.5001
 3223poe     o217066   5.551   4.118   3.329 -0.6388 -0.0030 -0.1727
 3223poe    c2317067   5.440   4.171   3.397 -0.3088  0.0666  0.3173
 3223poe    c2317068   5.344   4.218   3.285 -0.8397 -0.1442  0.6812
 3223poe     o217069   5.356   4.353   3.246  0.2985 -0.3985  0.1024
 3223poe    c2317070   5.416   4.384   3.122 -0.1368  0.3676  0.0809
 3223poe    c2317071   5.359   4.515   3.064 -0.7497  0.1229  0.1290
 3223poe     o217072   5.347   4.620   3.157 -0.2435  0.5778 -0.3170
 3223poe    c2317073   5.468   4.688   3.185  0.2838 -0.5419  0.1636
 3223poe    c2317074   5.474   4.817   3.268 -0.1362 -0.2340 -0.2787
 3223poe     o217075   5.418   4.808   3.397  0.4259 -0.4183 -0.0429
 3223poe    c3117076   5.447   4.930   3.462  0.2389 -0.5655  0.3232
 3224poe    c3117077   2.512   2.506   3.545  0.7992  0.8156 -0.5812
 3224poe     o217078   2.610   2.422   3.603  0.0389  0.0812 -0.3294
 3224poe    c2317079   2.677   2.478   3.713 -0.4478  0.2776 -0.1281
 3224poe    c2317080   2.743   2.382   3.814 -0.0315  0.3432 -0.3348
 3224poe     o217081   2.652   2.342   3.914  0.3237 -0.0314 -0.1611
 3224poe    c2317082   2.554   2.253   3.866 -0.4464  0.6157  0.1979
 3224poe    c2317083   2.442   2.229   3.970 -0.8082 -0.0037 -0.3313
 3224poe     o217084   2.487   2.140   4.069 -0.6899  0.2962 -0.1138
 3224poe    c2317085   2.401   2.117   4.178  0.0194  0.7825  0.5593
 3224poe    c2317086   2.413   1.977   4.241 -0.5053  0.2361 -0.5298
 3224poe     o217087   2.544   1.941   4.276 -0.7862 -0.2286  0.0546
 3224poe    c3117088   2.544   1.808   4.322 -0.5790 -0.2998 -0.1531
 3225poe    c3117089   4.885   1.750   4.661 -0.9301  0.2336 -0.0268
 3225poe     o217090   4.801   1.786   4.769 -0.7244  0.1055  0.1770
 3225poe    c2317091   4.869   1.758   4.889 -0.1927 -0.1795 -0.1900
 3225poe    c2317092   4.758   1.728   4.991  0.4074  0.2124  0.5892
 3225poe     o217093   4.665   1.831   4.967  0.2466 -0.0539  0.0544
 3225poe    c2317094   4.544   1.804   5.035 -0.1479  0.1765 -0.5484
 3225poe    c2317095   4.427   1.878   4.967 -0.5586 -0.1949 -0.2478
 3225poe     o217096   4.463   1.866   4.831 -0.3550  0.4555 -0.2526
 3225poe    c2317097   4.353   1.879   4.744 -0.6001  0.1753  0.0149
 3225poe    c2317098   4.415   1.809   4.621  0.1296  1.0974 -0.1536
 3225poe     o217099   4.551   1.838   4.601  0.2566  0.6216  0.0114
 3225poe    c3117100   4.591   1.828   4.466  0.4742  0.4188  0.0889
 3226poe    c3117101   6.577   4.548   5.673 -0.2934 -0.2182 -0.3077
 3226poe     o217102   6.548   4.484   5.795  0.8353  0.3002  0.2407
 3226poe    c2317103   6.423   4.514   5.854  0.7648  0.8450 -0.1764
 3226poe    c2317104   6.447   4.521   6.006  0.0492 -0.2375 -0.0056
 3226poe     o217105   6.534   4.411   6.028  0.0055 -0.1919  0.4020
 3226poe    c2317106   6.583   4.411   6.159  1.2900  1.1054 -0.0482
 3226poe    c2317107   6.673   4.286   6.169 -0.2625 -0.0610 -0.3299
 3226poe     o217108   6.750   4.262   6.053 -0.1444 -0.3682 -0.1882
 3226poe    c2317109   6.851   4.165   6.075  0.1184 -0.0105  0.1825
 3226poe    c2317110   6.931   4.142   5.946 -0.0750 -0.1301  0.0833
 3226poe     o217111   6.841   4.101   5.846  0.0577 -0.2953  0.0315
 3226poe    c3117112   6.915   4.028   5.750 -0.3375 -0.4221 -0.1779
 3227poe    c3117113   3.391   4.509   6.507  0.2391  0.2353 -0.5462
 3227poe     o217114   3.465   4.519   6.627 -0.3594  0.0840 -0.1606
 3227poe    c2317115   3.495   4.393   6.681 -0.6246  0.1484  0.1364
 3227poe    c2317116   3.588   4.419   6.802 -0.1216 -0.3040 -0.1476
 3227poe     o217117   3.684   4.513   6.760 -0.3554 -0.0722 -0.1674
 3227poe    c2317118   3.765   4.548   6.870 -0.2829  0.6289 -0.4372
 3227poe    c2317119   3.855   4.663   6.822  0.4186 -0.1856 -1.1171
 3227poe     o217120   3.777   4.775   6.783 -0.0977 -0.2728 -0.3641
 3227poe    c2317121   3.845   4.880   6.718 -0.2040  0.1954  0.2774
 3227poe    c2317122   3.753   4.988   6.656  0.3099  0.4578 -0.0341
 3227poe     o217123   3.678   4.924   6.555  0.2910  0.3106  0.0716
 3227poe    c3117124   3.604   5.025   6.491  0.1963  0.4221  0.3543
 3228poe    c3117125   1.776   0.469   3.858 -0.1153 -0.6963 -0.0269
 3228poe     o217126   1.748   0.577   3.772  0.1561 -0.2581  0.4296
 3228poe    c2317127   1.640   0.547   3.686  0.3785 -0.0124  0.0612
 3228poe    c2317128   1.595   0.680   3.622  0.2048  0.2035  0.6299
 3228poe     o217129   1.700   0.772   3.606  0.0151  0.3067 -0.0428
 3228poe    c2317130   1.659   0.899   3.561 -0.5048  0.3446  0.5274
 3228poe    c2317131   1.788   0.978   3.535  0.0923 -0.6034  0.5521
 3228poe     o217132   1.874   0.953   3.644  0.4204  0.1095  0.4678
 3228poe    c2317133   1.957   1.066   3.660  0.2396  0.3133 -0.0208
 3228poe    c2317134   2.035   1.069   3.792  0.2708 -0.4851 -0.0116
 3228poe     o217135   1.950   1.078   3.904  0.2253  0.2461 -0.1000
 3228poe    c3117136   2.017   1.129   4.017 -0.0789  0.1371  0.1303
 3229poe    c3117137   6.069   1.421   0.210  0.0138  0.3089 -0.3888
 3229poe     o217138   5.977   1.326   0.161  0.0978  0.1563 -0.2558
 3229poe    c2317139   5.852   1.389   0.142  0.1769  0.4474  0.1943
 3229poe    c2317140   5.768   1.301   0.048  0.4121  0.4852 -0.0506
 3229poe     o217141   5.826   1.293  -0.080  0.0741  0.6630 -0.2149
 3229poe    c2317142   5.748   1.206  -0.159  0.4160 -0.1848  0.3726
 3229poe    c2317143   5.822   1.183  -0.292 -0.0427 -0.8450  0.2239
 3229poe     o217144   5.921   1.087  -0.263  0.9000 -0.1727 -0.6967
 3229poe    c2317145   5.910   0.960  -0.324  0.3304 -0.4501 -0.0358
 3229poe    c2317146   6.043   0.887  -0.295  0.3283 -0.4224  0.0446
 3229poe     o217147   6.040   0.865  -0.156 -0.3196 -0.2257  0.0658
 3229poe    c3117148   6.114   0.747  -0.133 -0.2324 -0.1063  0.4122
 3230poe    c3117149   3.722   5.576   0.758  0.1171 -0.4150  0.6729
 3230poe     o217150   3.863   5.568   0.756  0.1770  0.4624  0.8167
 3230poe    c2317151   3.900   5.607   0.626  0.4337 -0.7418  0.5116
 3230poe    c2317152   4.053   5.595   0.614  0.5099  0.7701 -0.2420
 3230poe     o217153   4.120   5.686   0.699  0.0376  0.2179  0.7354
 3230poe    c2317154   4.254   5.646   0.709  0.0435  0.2076  0.6171
 3230poe    c2317155   4.329   5.722   0.820 -0.0511  0.5263  0.4631
 3230poe     o217156   4.270   5.712   0.947 -0.3010 -0.2192  0.2907
 3230poe    c2317157   4.288   5.590   1.015  0.6289 -0.1266  0.2177
 3230poe    c2317158   4.221   5.593   1.154  0.2192  0.0927  0.0155
 3230poe     o217159   4.263   5.699   1.237  0.3392 -0.0081  0.0828
 3230poe    c3117160   4.182   5.701   1.352  0.3467  0.0769  0.0867
 3231poe    c3117161   5.695   2.515   6.478  0.5931  0.2861 -0.1960
 3231poe     o217162   5.732   2.626   6.400  0.1519  0.0970 -0.6881
 3231poe    c2317163   5.833   2.708   6.455 -0.5152  0.2145  0.3898
 3231poe    c2317164   5.859   2.825   6.358  0.0724 -0.0948  0.1722
 3231poe     o217165   5.758   2.918   6.325  0.8668  0.5009 -0.6367
 3231poe    c2317166   5.759   3.029   6.411  0.5149 -0.1236  0.1873
 3231poe    c2317167   5.668   3.045   6.534  0.1933 -0.1905 -0.0429
 3231poe     o217168   5.536   3.080   6.498  0.1032 -0.2984  0.1792
 3231poe    c2317169   5.440   3.059   6.599 -0.0914 -0.8420 -0.1139
 3231poe    c2317170   5.299   3.060   6.536 -0.0159  0.0921 -0.2815
 3231poe     o217171   5.269   2.946   6.458 -0.0128  0.0515 -0.2225
 3231poe    c3117172   5.135   2.956   6.418 -0.1320  0.4247  0.2560
 3232poe    c3117173   1.687   5.917   2.034 -0.0648  0.2615 -0.2878
 3232poe     o217174   1.777   5.830   1.968  0.2806  0.1513  0.3221
 3232poe    c2317175   1.805   5.869   1.835 -0.4447  0.1030  0.1509
 3232poe    c2317176   1.922   5.787   1.780  0.0588  0.5878  0.4875
 3232poe     o217177   2.006   5.793   1.893  0.4941  0.5097  0.1720
 3232poe    c2317178   2.143   5.813   1.863  0.6439 -0.2713  0.3119
 3232poe    c2317179   2.242   5.848   1.975  0.5239 -0.4793  0.4831
 3232poe     o217180   2.268   5.739   2.061  0.3073 -0.5850  0.4131
 3232poe    c2317181   2.313   5.799   2.180 -0.0188  0.0640  0.2167
 3232poe    c2317182   2.335   5.708   2.302  0.2555 -0.3853 -0.1635
 3232poe     o217183   2.213   5.649   2.343  0.0854  0.0535 -0.0323
 3232poe    c3117184   2.233   5.543   2.434  0.2860  0.5437  0.5049
 3233poe    c3117185   5.584   5.866   0.593  0.3834  0.8361  0.1999
 3233poe     o217186   5.714   5.830   0.633  0.3675  0.3509 -0.1736
 3233poe    c2317187   5.719   5.696   0.676  0.3264  0.3025 -0.3194
 3233poe    c2317188   5.837   5.654   0.767 -0.0528  0.4184  0.2275
 3233poe     o217189   5.963   5.660   0.704 -0.0235  0.1798  0.2632
 3233poe    c2317190   6.061   5.712   0.790 -0.0545  0.3912  0.1731
 3233poe    c2317191   6.186   5.767   0.719 -0.1495 -0.1389 -0.4142
 3233poe     o217192   6.261   5.665   0.657  0.5455 -0.1950  0.4859
 3233poe    c2317193   6.388   5.714   0.621  0.0653  0.7887  0.0944
 3233poe    c2317194   6.478   5.612   0.549 -0.7424  0.3541 -0.3095
 3233poe     o217195   6.473   5.629   0.409 -0.2063  0.2145 -0.3462
 3233poe    c3117196   6.571   5.540   0.361  0.2290  0.0447  0.8168
 3234poe    c3117197   0.683   6.094   6.832 -0.3080  0.5245  0.2214
 3234poe     o217198   0.619   6.011   6.927  0.3854  0.0584  0.2847
 3234poe    c2317199   0.714   5.998   7.030  0.3369  0.9649  0.4518
 3234poe    c2317200   0.672   5.908   7.148  0.0092  0.3058 -0.1662
 3234poe     o217201   0.631   5.789   7.083 -0.1814  0.3649 -0.1551
 3234poe    c2317202   0.586   5.686   7.167  0.1896 -0.0002 -0.3966
 3234poe    c2317203   0.528   5.580   7.072 -0.0944 -0.4198  0.2344
 3234poe     o217204   0.461   5.646   6.966 -0.4602  0.0838  0.7678
 3234poe    c2317205   0.388   5.553   6.889  0.0877  0.2024  0.1020
 3234poe    c2317206   0.250   5.576   6.825  0.1247  0.2321  0.0315
 3234poe     o217207   0.268   5.679   6.731 -0.2906  0.5317  0.2778
 3234poe    c3117208   0.171   5.674   6.629  0.1385 -0.6589 -0.0912
 3235poe    c3117209   5.020   0.773   0.658 -0.0222  0.3062  0.8097
 3235poe     o217210   5.077   0.871   0.741  0.2468  0.4709  0.4317
 3235poe    c2317211   5.086   0.991   0.668 -0.2711  0.2258 -0.0374
 3235poe    c2317212   5.109   1.112   0.761 -0.0277  0.2965 -0.1887
 3235poe     o217213   5.216   1.080   0.847 -0.1273  0.9886  0.1949
 3235poe    c2317214   5.192   1.101   0.984 -0.4391 -0.0345  0.3047
 3235poe    c2317215   5.301   1.037   1.072 -0.3690 -0.0542  0.2031
 3235poe     o217216   5.432   1.054   1.021 -0.3133 -0.8330  0.0634
 3235poe    c2317217   5.520   0.994   1.113  0.3613  0.1972  0.1187
 3235poe    c2317218   5.654   1.067   1.097  0.2625  0.3226 -0.1325
 3235poe     o217219   5.656   1.109   0.962  0.2595  0.4846 -0.0819
 3235poe    c3117220   5.786   1.145   0.920  0.4308 -0.2309 -0.1719
 3236poe    c3117221   5.196   3.356   0.164  0.0526 -0.1252  0.6803
 3236poe     o217222   5.284   3.400   0.264  0.8124  0.0536 -0.0537
 3236poe    c2317223   5.216   3.438   0.382  0.5261  0.1825 -0.2616
 3236poe    c2317224   5.304   3.435   0.507  0.3505  0.6875 -0.1214
 3236poe     o217225   5.415   3.522   0.496  0.7293  0.2199 -0.0407
 3236poe    c2317226   5.480   3.530   0.620  0.1012  0.5920  0.2693
 3236poe    c2317227   5.555   3.661   0.648  0.4246  0.4736 -0.0394
 3236poe     o217228   5.468   3.769   0.622  0.0871  0.3047  0.3820
 3236poe    c2317229   5.537   3.891   0.643  0.6774  0.1883 -0.7960
 3236poe    c2317230   5.440   4.008   0.624 -0.0399 -0.2258  0.2118
 3236poe     o217231   5.337   4.007   0.720 -0.3219 -0.0754 -0.0837
 3236poe    c3117232   5.248   4.110   0.686 -0.2451 -0.0264 -0.1357
 3237poe    c3117233   1.337   2.463   5.416 -0.9398  0.0896 -0.3255
 3237poe     o217234   1.259   2.506   5.525 -0.3980  0.5764 -0.1221
 3237poe    c2317235   1.153   2.586   5.478 -0.9690 -0.1247 -0.0478
 3237poe    c2317236   1.088   2.655   5.600 -0.6370 -0.4943  0.3442
 3237poe     o217237   1.184   2.725   5.675 -0.2666 -0.2160 -0.3862
 3237poe    c2317238   1.155   2.725   5.812 -0.2349  0.1093 -0.3770
 3237poe    c2317239   1.270   2.780   5.897 -0.5737  0.0974  0.0978
 3237poe     o217240   1.309   2.914   5.872  0.4130 -0.2105 -0.0814
 3237poe    c2317241   1.373   2.933   5.748 -0.0084  0.2514 -0.2345
 3237poe    c2317242   1.438   3.072   5.735  0.4363  0.0480 -0.2074
 3237poe     o217243   1.574   3.067   5.773  0.3404 -0.4065  0.0810
 3237poe    c3117244   1.612   3.186   5.709 -0.5223 -0.0592  0.2038
 3238poe    c3117245   5.026   2.786   6.033 -0.0424  0.0245  0.4052
 3238poe     o217246   4.903   2.752   6.092 -0.0110 -0.0954  0.4020
 3238poe    c2317247   4.861   2.626   6.043  0.2995 -0.1090  0.1672
 3238poe    c2317248   4.789   2.555   6.160  0.0738 -0.3118 -0.0931
 3238poe     o217249   4.688   2.640   6.208  0.1326 -0.1864 -0.1899
 3238poe    c2317250   4.603   2.575   6.300 -0.1300 -0.3764 -0.5638
 3238poe    c2317251   4.504   2.669   6.371  0.2739 -0.3673 -0.0079
 3238poe     o217252   4.566   2.762   6.457 -0.0124 -0.1899  0.0072
 3238poe    c2317253   4.471   2.840   6.526 -0.0786 -0.2212 -0.0493
 3238poe    c2317254   4.552   2.935   6.616 -0.3734 -0.0531  0.0387
 3238poe     o217255   4.668   2.990   6.559 -0.2061  0.2529  0.6751
 3238poe    c3117256   4.711   3.116   6.606  0.3068  0.2503  0.2272
 3239poe    c3117257   6.569   4.464   2.245  0.1717 -0.5830 -0.1310
 3239poe     o217258   6.446   4.415   2.294 -0.0136 -0.0203 -0.0291
 3239poe    c2317259   6.456   4.347   2.417  0.1532  0.3564  0.1679
 3239poe    c2317260   6.323   4.287   2.466  0.3870 -0.1399  0.2015
 3239poe     o217261   6.236   4.389   2.511  0.2519 -0.2081  0.0961
 3239poe    c2317262   6.143   4.323   2.594  0.3402  0.3242  0.6225
 3239poe    c2317263   6.043   4.419   2.660  0.0719  0.2328  0.3480
 3239poe     o217264   6.014   4.508   2.554  0.0790 -0.5496 -0.3208
 3239poe    c2317265   5.975   4.629   2.615  1.4244 -0.2023 -0.1052
 3239poe    c2317266   5.945   4.740   2.512  0.0133  0.1351  0.6400
 3239poe     o217267   6.062   4.797   2.459 -0.1430  0.2867  0.4614
 3239poe    c3117268   6.027   4.907   2.377 -0.5320 -0.0074  0.2318
 3240poe    c3117269   5.053   6.543   6.897 -0.4159 -0.7763  0.5314
 3240poe     o217270   5.171   6.467   6.882  0.3644  0.5234 -0.0821
 3240poe    c2317271   5.157   6.366   6.784  0.1111 -0.2247  0.7124
 3240poe    c2317272   5.292   6.300   6.752  0.0852  0.1713 -0.2530
 3240poe     o217273   5.384   6.396   6.707 -0.0426  0.3363 -0.1650
 3240poe    c2317274   5.464   6.330   6.611  0.3407  0.1286  0.2925
 3240poe    c2317275   5.524   6.426   6.507 -0.0737 -0.2206 -0.2799
 3240poe     o217276   5.625   6.521   6.536 -0.1768 -0.0976 -0.3286
 3240poe    c2317277   5.753   6.463   6.531 -0.0946  0.0766 -0.2720
 3240poe    c2317278   5.865   6.557   6.578  0.1359 -0.3411  0.0289
 3240poe     o217279   5.855   6.573   6.718  0.0476 -0.3040  0.0182
 3240poe    c3117280   5.974   6.633   6.763 -0.2132 -0.0720  0.3990
 3241lim     li17281   0.790   0.897   5.968 -0.7690 -0.6186  0.7178
 3242lim     li17282   1.530   2.528   0.009  1.0009  0.3012 -0.4705
 3243lim     li17283   2.019   2.273   0.683 -0.2854  0.3740  1.3553
 3244lim     li17284   3.076   0.263   4.548  0.7804 -0.6670  0.4070
 3245lim     li17285   5.827   6.010   5.643  0.8569 -0.4184 -0.0979
 3246lim     li17286   3.769   5.857   7.103  0.5254  0.0645  0.1874
 3247lim     li17287   3.142   2.624   3.063 -1.0677  1.9086 -0.0065
 3248lim     li17288   5.687   0.007   6.946  0.9228 -0.5274  0.7521
 3249lim     li17289   1.181   1.388   0.522  0.1761 -0.2201  0.1223
 3250lim     li17290   2.247   3.842   1.966  0.1812 -0.7187  1.0262
 3251lim     li17291   5.676   6.694   6.039  0.2083 -1.4002  0.8235
 3252lim     li17292   6.692   7.051   0.003 -0.0332 -0.0579  0.1695
 3253lim     li17293   4.124   3.533   5.174 -0.6797  0.0388 -0.8159
 3254lim     li17294   1.606   4.968   1.236 -0.6658  1.0279 -0.5029
 3255lim     li17295   6.689   1.410   4.383 -0.6616 -0.3305  0.8052
 3256lim     li17296   3.326   3.586   6.987  0.2522 -0.5224 -0.1142
 3257lim     li17297   4.488   4.969   3.613  0.0344  0.5674 -0.5823
 3258lim     li17298   5.603   1.570   6.969 -0.1420  0.5294  0.2350
 3259lim     li17299   4.538   3.608   0.041 -0.0977 -1.2851  0.0478
 3260lim     li17300   0.096   0.863   2.466 -0.9043  0.6750 -0.6920
 3261lim     li17301   3.433   3.229   4.640  0.4211 -0.2629  0.0695
 3262lim     li17302   4.926   4.175   2.112 -0.3349 -1.2716 -0.1534
 3263lim     li17303   4.245   3.056   0.252  1.1827 -0.5970  0.4323
 3264lim     li17304   6.234   1.125   7.209 -0.1738  0.1375 -0.3226
 3265lim     li17305   1.644   5.474   6.462 -0.1679 -0.7040 -0.1184
 3266lim     li17306   0.293   5.171   1.012 -0.0574  0.5914 -0.2121
 3267lim     li17307   1.615   4.236   4.218  0.2615 -0.5494 -0.6589
 3268lim     li17308   2.951   6.147   5.613  0.0597 -0.2363 -0.3983
 3269lim     li17309   1.774   1.742   4.722 -0.7708 -0.4485  0.0358
 3270lim     li17310   4.543   6.696   6.330  0.3925  0.4956 -0.2952
 3271lim     li17311   1.056   0.947   6.704  0.4513 -0.6767 -1.4657
 3272lim     li17312   0.611   6.012   4.623 -0.2344  0.1867  0.1160
 3273lim     li17313   2.231   2.317   5.132 -0.6923 -0.0241 -0.6963
 3274lim     li17314   6.048   0.793   6.399  0.4586  0.7142  0.2591
 3275lim     li17315   5.697   4.758   5.885  0.4366 -1.2966 -0.3371
 3276lim     li17316   7.211   3.631   1.750  0.9734 -0.7346  0.1359
 3277lim     li17317   4.310   4.109   3.853  0.2841 -0.2929  0.5302
 3278lim     li17318   3.953   3.911   1.879  0.2818 -0.0455 -0.3786
 3279lim     li17319   5.969   5.663   0.372  0.2861  0.6101 -0.9052
 3280lim     li17320   4.565   4.784   4.693  0.4297 -0.4759  0.1064
 3281lim     li17321   5.110   5.888   5.458 -0.0385 -1.4777 -0.4078
 3282lim     li17322   4.193   4.406   0.550  0.1797  0.2126  0.3154
 3283lim     li17323   5.815   4.215   4.091 -0.4401  0.1355  0.0116
 3284lim     li17324   0.885   2.226   5.475 -0.1442 -0.8643 -0.3944
 3285lim     li17325   2.941   4.353   2.140 -0.2022  0.1709 -0.2171
 3286lim     li17326   0.035   5.605   3.043 -0.9615  0.3449 -0.0163
 3287lim     li17327   3.994   5.095   5.454  0.0243  0.5866  0.2129
 3288lim     li17328   5.669   1.568   1.312 -0.4966 -0.2747  0.0269
 3289lim     li17329   4.930   0.338   5.834 -0.0990  0.1267  0.3286
 3290lim     li17330   2.939   2.761   0.673 -0.2418 -0.6944  0.4003
 3291lim     li17331   0.976   6.506   1.321 -0.2041 -0.1701 -0.3777
 3292lim     li17332   6.737   3.523   3.597 -0.0268 -0.8802 -0.2603
 3293lim     li17333   1.144   5.850   5.253  0.4909  0.6037 -0.6212
 3294lim     li17334   6.404   6.349   7.160 -0.4929  0.2983 -0.4348
 3295lim     li17335   5.686   3.165   3.413 -0.4892  0.4944  0.4749
 3296lim     li17336   3.959   0.022   2.242 -0.2581 -0.3835  0.2514
 3297lim     li17337   5.306   5.168   0.135 -0.4323  0.0932  0.0588
 3298lim     li17338   3.286   4.610   7.118 -0.7601  0.0652 -0.3463
 3299lim     li17339   5.468   6.431   0.510 -0.1997 -0.0493  0.9917
 3300lim     li17340   0.664   1.746   0.860  0.8811 -0.2083  0.2941
 3301lim     li17341   3.836   5.224   0.976  0.9986 -0.5599  0.4667
 3302lim     li17342   3.574   4.752   4.210  0.1573  0.0119 -0.4389
 3303lim     li17343   6.744   2.342   4.509 -0.9314 -0.1844 -0.4502
 3304lim     li17344   5.977   3.235   6.011  0.9152  0.6081 -0.9433
 3305lim     li17345   3.104   0.823   0.381  0.0460  0.1255 -0.1030
 3306lim     li17346   6.761   6.644   5.047 -0.4087  0.0293 -0.2958
 3307lim     li17347   1.572   7.049   3.995  0.2393  0.6715  0.9594
 3308lim     li17348   4.564   2.441   5.539 -0.4645 -0.1185  0.5120
 3309lim     li17349   0.049   3.806   0.680  0.0294 -0.9520  0.1492
 3310lim     li17350   3.108   2.295   5.767 -0.3056  0.7936 -0.7863
 3311lim     li17351   0.119   2.152   2.909  0.2456 -0.1793  1.3283
 3312lim     li17352   4.004   7.072   1.001 -0.3130  0.6746 -0.2812
 3313lim     li17353   6.995   5.884   5.191  0.3327  0.0807  0.7601
 3314lim     li17354   2.526   3.032   6.944  0.4507  0.4645  0.0261
 3315lim     li17355   1.844   1.961   3.104 -0.7943  0.7707 -0.1787
 3316lim     li17356   6.442   5.392   2.574 -1.2259  1.1862  0.2107
 3317lim     li17357   6.877   1.974   5.953  0.1353  0.3026 -0.2690
 3318lim     li17358   0.155   1.236   3.676 -0.0061  0.8589  0.1465
 3319lim     li17359   4.319   6.060   1.141  0.2395  0.7122 -0.3145
 3320lim     li17360   7.203   3.992   2.233  0.1980 -0.8236 -0.1727
 3321lim     li17361   2.782   5.317   0.925 -0.2153 -0.0321 -0.6194
 3322lim     li17362   2.790   4.094   3.174  0.0721 -0.3144 -0.0403
 3323lim     li17363   0.275   5.955   0.536  0.8400  0.1579 -0.0112
 3324lim     li17364   4.743   4.620   0.716 -1.0752  1.2559  0.8723
 3325lim     li17365   5.002   5.510   1.875 -0.3597  0.1714  1.0760
 3326lim     li17366   4.261   3.790   1.307  0.9958 -0.2291  0.2105
 3327lim     li17367   7.003   0.541   6.954 -0.2104 -0.0590  0.1796
 3328lim     li17368   6.949   0.668   2.779  1.0691  0.1433 -0.3164
 3329lim     li17369   6.303   5.981   4.869 -0.8585  0.1156 -1.5356
 3330lim     li17370   0.127   4.348   4.133  1.1198 -0.0496  0.1502
 3331lim     li17371   0.723   5.417   1.549  0.5370  1.1952 -0.3375
 3332lim     li17372   6.604   6.918   2.269  0.4376  0.2422 -0.2639
 3333lim     li17373   6.260   4.868   0.305  0.1943  0.3764 -0.0381
 3334lim     li17374   1.476   2.968   5.019  0.1583  1.0203 -1.4254
 3335lim     li17375   5.190   6.985   2.408  0.5017  0.8962 -0.3680
 3336lim     li17376   0.105   3.018   5.311 -0.0173  0.1777 -0.8621
 3337lim     li17377   0.451   5.809   5.747 -0.6251  0.3710  1.2683
 3338lim     li17378   0.225   5.085   0.452 -0.3758 -0.1743  0.1489
 3339lim     li17379   4.442   4.111   3.255  0.1989  0.2077 -0.7816
 3340lim     li17380   1.437   0.814   3.126 -0.0878  0.5783 -0.1839
 3341lim     li17381   1.515   5.867   4.115 -0.6169 -0.2548 -0.2777
 3342lim     li17382   3.093   2.921   2.259 -0.0144  0.2955  0.6049
 3343lim     li17383   3.511   0.853   2.548  0.1032 -0.2027 -0.0661
 3344lim     li17384   6.475   1.531   1.868 -0.2623 -0.3190  0.6686
 3345lim     li17385   6.235   3.392   2.546  0.3425  0.3841  0.0503
 3346lim     li17386   1.779   6.502   7.152  0.9331  0.3875  0.5571
 3347lim     li17387   5.028   5.823   3.843 -0.0444 -0.7097 -0.5599
 3348lim     li17388   0.814   6.955   5.517 -0.9052  0.6849 -0.5710
 3349lim     li17389   5.082   1.834   0.162  0.2457 -0.1404 -0.6649
 3350lim     li17390   4.903   5.415   6.784 -0.1811  0.4699  0.5537
 3351lim     li17391   1.419   5.652   0.171 -0.4707 -0.2653  0.4135
 3352lim     li17392   1.054   3.877   0.181 -0.0730  0.0252  0.1643
 3353lim     li17393   6.768   0.916   0.362  1.0991 -0.4264 -1.2237
 3354lim     li17394   2.838   6.072   0.994 -0.3258 -0.0287  0.2771
 3355lim     li17395   4.668   5.245   3.033 -0.2334 -0.3719  0.4402
 3356lim     li17396   6.648   0.677   1.190  0.0374 -0.7837  0.1684
 3357lim     li17397   3.056   0.408   3.020  0.5419  0.8362  0.8998
 3358lim     li17398   5.507   2.784   6.128 -0.6459 -0.8443 -0.1291
 3359lim     li17399   1.947   5.466   5.753  0.1680 -0.2328  0.0441
 3360lim     li17400   5.444   6.905   5.185 -0.8255 -0.4255  0.3345
 3361lim     li17401   1.656   0.427   4.672  0.3884 -1.0586 -0.2741
 3362lim     li17402   1.829   1.508   6.634  0.2587  0.8653  0.1162
 3363lim     li17403   6.657   1.509   3.536 -0.1170 -1.1239 -0.1073
 3364lim     li17404   4.418   5.004   6.390 -0.1850  0.3829  0.7225
 3365lim     li17405   3.638   0.018   6.312  0.5921 -0.3891 -0.3394
 3366lim     li17406   6.073   6.590   2.569 -0.8213  1.1713 -0.0319
 3367lim     li17407   1.856   5.623   0.921  0.6039  0.2747  0.6798
 3368lim     li17408   4.640   6.160   6.859 -0.5504  0.4592 -0.4434
 3369lim     li17409   4.667   4.080   2.626 -0.0935  0.4420 -1.2866
 3370lim     li17410   1.069   6.041   0.900 -0.0087  0.1180 -0.2266
 3371lim     li17411   0.663   3.384   6.225 -0.2655 -0.0096 -0.7759
 3372lim     li17412   0.666   1.805   4.900  0.1048 -0.7339 -0.9039
 3373lim     li17413   0.881   7.120   0.804 -0.1943 -0.5061 -0.3758
 3374lim     li17414   2.318   1.425   2.745 -0.5861  0.2685  0.4426
 3375lim     li17415   3.651   4.779   4.648 -0.0977 -0.0065 -0.4810
 3376lim     li17416   0.155   4.342   0.886  0.0869 -0.1074  0.4991
 3377lim     li17417   2.664   2.464   6.547  0.7748  1.0473 -0.3626
 3378lim     li17418   4.495   3.046   2.951 -0.1400 -0.2990 -0.3175
 3379lim     li17419   0.311   0.625   0.678  0.3393  0.0789  0.0156
 3380lim     li17420   1.510   5.302   3.498  0.0300  0.1680 -0.2214
 3381lim     li17421   5.527   6.555   6.923 -1.0640 -0.0355  0.1014
 3382lim     li17422   0.100   0.214   1.758 -0.0502  1.6004  0.3870
 3383lim     li17423   0.114   4.169   6.798  0.6432 -0.3375  0.6540
 3384lim     li17424   1.075   5.477   2.504  0.6417  0.8052  0.9316
 3385lim     li17425   1.563   2.201   4.241  1.0018  0.1047  1.4524
 3386lim     li17426   0.516   6.548   1.700  0.0416  0.3313  1.1802
 3387lim     li17427   0.960   3.143   3.228 -0.3644 -1.0770 -0.1761
 3388lim     li17428   4.538   0.124   0.413  0.6252  0.0362  0.6265
 3389lim     li17429   1.473   4.729   5.608 -0.3255 -0.5871 -0.4210
 3390lim     li17430   4.669   6.241   2.908  0.2862  0.0146 -1.2377
 3391lim     li17431   7.134   4.666   1.960 -0.8963 -1.0254  0.4318
 3392lim     li17432   2.374   4.847   3.421 -0.1476 -0.4972 -0.7291
 3393lim     li17433   1.287   6.777   4.238 -1.6040 -1.0449  0.3270
 3394lim     li17434   5.691   5.415   3.633  1.0378  0.9652  0.4696
 3395lim     li17435   3.145   1.868   1.071 -0.5694  0.7194 -0.1103
 3396lim     li17436   0.081   2.109   4.580 -0.4075  0.4937  0.4292
 3397lim     li17437   4.556   0.040   3.241 -0.9793  0.7034  0.0213
 3398lim     li17438   0.298   6.939   4.054 -0.5724  0.2267 -0.1946
 3399lim     li17439   4.398   1.403   6.837 -0.3047  1.3046  0.1011
 3400lim     li17440   0.004   3.931   4.574 -0.8939 -1.0381 -0.5644
 3401lim     li17441   5.183   0.744   2.837  1.0293 -0.7726 -1.0498
 3402lim     li17442   2.768   1.778   0.445 -0.6971  0.1544  0.8401
 3403lim     li17443   0.536   3.312   0.289  0.2372  0.3165 -0.3016
 3404lim     li17444   6.395   5.860   0.085 -0.0196 -0.3911 -0.3541
 3405lim     li17445   4.650   1.855   4.798  0.1197 -0.7693  0.6140
 3406lim     li17446   2.657   5.773   1.748 -0.3819 -0.0298  0.3225
 3407lim     li17447   3.841   3.410   1.034  0.5944  0.5890 -0.7504
 3408lim     li17448   6.111   1.103   0.593  0.7342 -0.4202 -0.6579
 3409lim     li17449   7.076   3.020   2.437 -0.4756 -0.3161  0.7852
 3410lim     li17450   3.203   5.438   0.165 -0.6960  0.2455 -0.2669
 3411lim     li17451   2.471   2.645   1.645 -0.0075 -0.6046 -0.4634
 3412lim     li17452   4.989   6.673   1.500 -0.4647  0.0024  0.1452
 3413lim     li17453   3.671   3.296   2.797  0.7639 -0.2422  0.3740
 3414lim     li17454   4.997   0.283   6.898 -0.7309  0.5434  0.0226
 3415lim     li17455   2.856   1.083   0.884 -0.0816  0.3094  0.8146
 3416lim     li17456   6.145   4.812   3.482 -0.1283 -0.5741 -0.0849
 3417lim     li17457   3.634   5.699   2.167  0.2528  1.4601  0.1023
 3418lim     li17458   2.959   4.381   6.466  0.4041  0.3155 -0.0198
 3419lim     li17459   4.241   4.333   5.208 -0.1634 -0.2561  0.7740
 3420lim     li17460   4.035   3.723   6.474  0.4874 -0.9973  0.0996
 3421lim     li17461   1.985   7.049   0.329 -0.3184  0.1928 -0.3803
 3422lim     li17462   5.140   1.004   4.219  0.2956 -0.3043  0.1354
 3423lim     li17463   2.352   3.803   6.099 -0.2300 -0.3939  0.3966
 3424lim     li17464   5.546   2.628   0.400 -0.4982  0.6263  0.3047
 3425lim     li17465   4.867   3.181   0.857  0.0423 -0.4876  1.1045
 3426lim     li17466   6.677   6.996   6.120  1.4402 -0.1570  0.0835
 3427lim     li17467   4.591   4.409   5.971 -0.2517 -0.8012  0.7536
 3428lim     li17468   0.521   5.852   6.921  0.1201  0.0798  0.3390
 3429lim     li17469   4.492   2.211   1.359 -0.2410  0.1881  0.5039
 3430lim     li17470   0.846   3.209   1.665 -0.0794  0.4087 -0.7381
 3431lim     li17471   3.077   4.030   1.568  0.7836  0.1127 -0.1588
 3432lim     li17472   1.134   6.236   6.136  1.2083  0.3283  1.3430
 3433lim     li17473   5.275   3.688   0.996 -1.1866 -0.2471  0.4774
 3434lim     li17474   2.168   6.741   1.825 -0.0126 -0.0659 -1.1577
 3435lim     li17475   7.214   1.094   6.389 -0.6847  0.2856  0.1284
 3436lim     li17476   5.837   0.927   3.775 -0.1172  0.4369  0.4612
 3437lim     li17477   5.298   5.745   1.311  0.3679 -0.1479 -0.7308
 3438lim     li17478   2.443   5.322   7.054 -0.5025 -0.0174 -0.2940
 3439lim     li17479   6.390   2.866   1.849  0.4830  0.2532 -1.1243
 3440lim     li17480   3.234   1.487   5.369 -1.3793 -1.1095 -0.0062
 3441lim     li17481   2.459   6.780   3.380  0.0812  0.8095 -0.5712
 3442lim     li17482   5.773   2.638   3.687  0.1658 -1.1037  0.5355
 3443lim     li17483   4.591   6.254   5.664 -0.0743 -0.5613  0.3531
 3444lim     li17484   6.355   1.828   6.895 -0.1153  0.3250  0.0701
 3445lim     li17485   6.973   3.730   5.043  0.1084 -0.0516 -0.3218
 3446lim     li17486   6.378   4.797   5.341  0.1382  0.4615 -0.4458
 3447lim     li17487   5.299   4.697   3.489 -0.2286 -0.3545  0.6920
 3448lim     li17488   3.467   3.219   6.084  0.2601 -0.6929 -0.0901
 3449lim     li17489   3.131   5.537   4.807  0.4295 -1.1164 -0.5923
 3450lim     li17490   4.922   0.679   1.094 -0.0675  0.7812  0.0026
 3451lim     li17491   1.283   4.541   0.481  1.0492  0.1337  0.3307
 3452lim     li17492   3.812   6.436   4.528 -0.7442  1.5123  0.4189
 3453lim     li17493   5.953   2.199   1.417  0.8051  0.1180 -0.8369
 3454lim     li17494   4.621   0.084   1.528 -0.5450 -0.8439  0.7918
 3455lim     li17495   6.180   0.047   1.378  0.0401 -0.2515 -0.7995
 3456lim     li17496   2.304   2.944   4.553 -1.2442  0.1584  0.7793
 3457lim     li17497   3.306   3.926   4.173  0.4487 -0.2972  0.4979
 3458lim     li17498   6.033   0.153   3.396 -0.9574 -0.4682  0.6188
 3459lim     li17499   5.364   2.214   4.784 -1.0397 -0.5003 -0.8593
 3460lim     li17500   0.254   1.920   6.096  0.1778  0.4483  0.0493
 3461lim     li17501   0.290   1.255   1.662 -0.2844 -0.3002 -0.1477
 3462lim     li17502   4.528   4.917   1.235  1.2657 -0.5984 -0.4255
 3463lim     li17503   4.645   1.257   0.200 -0.8753 -0.4661  1.2983
 3464lim     li17504   0.703   1.776   2.842 -1.5367  1.1677 -0.6182
 3465lim     li17505   6.398   1.626   2.395 -0.5390 -0.8579 -0.0769
 3466lim     li17506   3.515   2.039   0.883  0.9617 -0.3234 -1.3171
 3467lim     li17507   1.313   6.540   3.494 -0.5048  0.2230  0.0633
 3468lim     li17508   1.616   2.931   6.863  0.2129 -0.8381 -0.1333
 3469lim     li17509   2.837   4.043   0.538 -0.3411  0.7707 -0.0318
 3470lim     li17510   2.472   1.759   1.323  0.1329 -0.5461  0.1898
 3471lim     li17511   6.516   3.523   0.945 -0.8764  0.5670 -0.3475
 3472lim     li17512   3.309   3.229   5.257 -0.6057  0.9008 -0.0608
 3473lim     li17513   0.035   5.380   4.398  0.0959  0.2643 -1.3106
 3474lim     li17514   6.364   0.674   4.823  0.4674 -0.9007  0.2666
 3475lim     li17515   1.006   0.213   2.563  0.3380  0.0815  0.6815
 3476lim     li17516   2.360   0.933   7.052  0.1057  1.2640  0.3645
 3477lim     li17517   3.856   1.883   1.926  0.4865 -0.7747 -0.9897
 3478lim     li17518   1.746   3.843   5.206 -0.0196  0.5931  1.0967
 3479lim     li17519   6.539   2.467   7.036 -0.3993  0.4284  0.5848
 3480lim     li17520   1.915   4.432   1.393 -1.7874 -0.4196  0.0911
 3481lim     li17521   6.430   3.477   7.200  1.2721 -0.4341  0.8249
 3482lim     li17522   2.596   4.556   0.252 -1.0130 -1.1849  0.4259
 3483lim     li17523   6.196   0.778   5.798 -0.1642 -0.0411  0.7482
 3484lim     li17524   1.699   3.107   1.290 -0.6708 -0.6588  0.3849
 3485lim     li17525   1.462   1.207   5.179  0.9194 -0.9511  0.3636
 3486lim     li17526   6.563   6.124   3.824 -0.6519 -0.3959 -0.5015
 3487lim     li17527   5.531   3.747   3.729  0.7809 -0.4080  0.8383
 3488lim     li17528   0.913   5.079   1.783 -1.0217 -0.2830  0.8878
 3489lim     li17529   4.551   5.131   0.091 -0.2866  0.4821  0.2691
 3490lim     li17530   3.637   0.455   4.174 -0.1700  0.9625 -1.1349
 3491lim     li17531   0.307   0.454   3.308 -1.8560  0.0710 -0.4151
 3492lim     li17532   6.163   3.758   4.541 -0.6585 -0.3702 -0.3171
 3493lim     li17533   3.436   7.216   4.890 -0.4537 -0.7595  0.0281
 3494lim     li17534   6.680   4.852   3.669 -0.6105  0.9819  1.1720
 3495lim     li17535   0.225   5.460   3.550 -0.0926 -0.4546 -0.0679
 3496lim     li17536   4.920   1.720   3.583 -0.2794 -0.6155  0.1417
 3497lim     li17537   5.886   0.340   0.336  1.0130 -0.7013 -0.5859
 3498lim     li17538   6.953   1.688   1.017  0.8985 -0.2309  1.0844
 3499lim     li17539   2.938   0.709   3.615  0.1943 -0.4156  0.3521
 3500lim     li17540   0.067   4.695   2.728  0.3743 -0.8222  0.0610
 3501lim     li17541   2.079   6.328   1.015  0.3310 -0.5108  0.0160
 3502lim     li17542   0.706   2.464   0.740 -0.3955 -0.0940  0.9081
 3503lim     li17543   0.247   6.347   2.844 -1.0055  0.3249  0.4654
 3504lim     li17544   2.064   2.358   2.586 -0.0116  0.7931 -0.6935
 3505lim     li17545   6.946   2.855   4.730 -0.5158  0.9812 -0.2454
 3506lim     li17546   0.034   5.774   1.260 -1.0509  0.7766  0.5940
 3507lim     li17547   0.756   5.180   4.247 -0.8300  0.1197  0.1169
 3508lim     li17548   3.565   4.008   2.579  0.3916 -0.6385 -1.0323
 3509lim     li17549   1.077   4.221   1.519  1.3852  0.8720 -0.2539
 3510lim     li17550   3.654   2.980   3.775  0.1356 -0.4880 -1.6306
 3511lim     li17551   5.390   1.508   5.671  0.7412  0.6760  0.0443
 3512lim     li17552   3.838   5.634   4.650  0.0042  0.9729 -0.6523
 3513lim     li17553   4.023   4.893   1.701  1.5446  1.1725  0.3059
 3514lim     li17554   3.198   5.870   1.965 -0.1911 -1.1105 -0.3475
 3515lim     li17555   3.479   6.463   2.846  0.8478 -1.0758 -0.4496
 3516lim     li17556   0.789   5.175   6.647 -0.3359 -0.2984 -0.1405
 3517lim     li17557   1.845   1.202   2.211 -0.5415 -0.5148 -0.8342
 3518lim     li17558   2.343   1.500   6.168  0.2611 -0.8920 -0.0107
 3519lim     li17559   0.772   3.140   3.905  0.5174  0.3693  0.3581
 3520lim     li17560   0.868   0.305   6.920 -0.5203  0.2974 -0.3576
 3521lim     li17561   3.357   4.750   1.380 -0.2615 -0.2114  0.2305
 3522lim     li17562   4.223   6.263   2.383 -0.3554  0.4111 -0.7226
 3523lim     li17563   6.308   5.573   1.627  0.9054  1.0849 -0.1218
 3524lim     li17564   2.186   3.238   2.400  0.4934 -0.3232 -0.6595
 3525lim     li17565   2.272   0.147   1.029 -1.1039  0.0714  0.5732
 3526lim     li17566   5.769   3.937   5.965 -0.5861 -0.1451 -0.2123
 3527lim     li17567   1.168   6.852   2.716 -1.5051  0.4460  0.8888
 3528lim     li17568   6.884   5.608   6.005  0.3409 -1.2396 -0.6747
 3529lim     li17569   1.474   1.502   1.485  1.2189  0.7078 -0.7583
 3530lim     li17570   3.395   5.842   6.318 -0.7271  0.7780 -0.4531
 3531lim     li17571   4.552   4.223   6.881 -0.7612 -0.1849 -0.2053
 3532lim     li17572   0.987   5.897   3.169  0.3255  0.3754 -0.2338
 3533lim     li17573   3.333   1.216   6.947 -0.4666  0.9834  0.6561
 3534lim     li17574   3.824   0.808   5.491 -0.0231 -0.3424  1.0478
 3535lim     li17575   2.193   4.977   5.580  0.1249  0.1956 -0.0911
 3536lim     li17576   1.724   3.510   4.326  0.0919 -0.3359  1.1004
 3537lim     li17577   3.699   0.089   3.169  0.6290  1.5202  0.7079
 3538lim     li17578   5.430   2.626   2.664 -1.0389 -0.0878  0.0128
 3539lim     li17579   2.639   0.670   5.182 -1.2805 -0.6622 -0.0572
 3540lim     li17580   6.187   4.982   4.542  0.1042  0.6899  0.2533
 3541lim     li17581   2.846   3.746   3.859 -0.2029 -0.3240  0.3220
 3542lim     li17582   3.754   7.199   6.993 -0.6459 -0.5343 -0.5508
 3543lim     li17583   4.240   6.996   5.088 -0.9763  0.0270  0.3300
 3544lim     li17584   0.045   6.493   6.664  1.3281  0.0927 -0.5901
 3545lim     li17585   6.194   7.212   4.276  1.1305  0.0780 -0.4526
 3546lim     li17586   0.463   1.789   1.942  0.5853 -0.5052 -0.3014
 3547lim     li17587   4.287   6.549   0.226 -0.2006  1.1712  0.2659
 3548lim     li17588   6.467   1.676   5.546 -0.0160 -1.4103 -0.1093
 3549lim     li17589   2.996   5.225   3.531  1.4980  1.3630  0.3102
 3550lim     li17590   0.532   4.179   5.833  0.7259  0.0176  0.0121
 3551lim     li17591   4.381   1.343   5.424  0.2580  0.4778 -0.1602
 3552lim     li17592   0.491   4.534   2.698  0.2191 -0.4494  0.5548
 3553lim     li17593   4.809   6.102   2.228 -0.4820 -0.3461 -0.2406
 3554lim     li17594   0.210   6.830   6.005  0.5059 -0.2699 -0.4681
 3555lim     li17595   4.757   5.005   1.978 -0.2442 -0.7316  0.0145
 3556lim     li17596   3.763   6.277   5.528  0.7098 -0.0725 -0.1303
 3557lim     li17597   5.817   2.992   2.667  0.4465  0.8328 -0.2567
 3558lim     li17598   1.169   1.687   4.107  0.0368 -0.1601  0.6896
 3559lim     li17599   1.153   6.632   7.169  1.7309  0.2595 -0.3785
 3560lim     li17600   4.322   1.137   1.279 -0.6351 -0.1170 -0.3584
 3561lim     li17601   2.236   6.135   4.651  0.7424  0.9814  0.4653
 3562lim     li17602   2.805   4.579   5.394 -0.5547  0.7820 -0.2932
 3563lim     li17603   1.770   5.779   4.748 -0.2235  0.1462  0.8452
 3564lim     li17604   0.169   6.913   2.817 -0.0422  0.2055 -0.0354
 3565lim     li17605   3.255   6.747   0.396 -0.7567 -0.3095  0.2359
 3566lim     li17606   1.486   4.881   2.826 -0.4895 -0.7263 -0.2804
 3567lim     li17607   0.606   3.686   2.443 -1.9614 -0.1488  0.3276
 3568lim     li17608   5.389   2.683   6.634 -0.2722  0.5680  0.2138
 3569lim     li17609   3.056   7.050   2.174  0.3505  0.5846 -0.7362
 3570lim     li17610   3.910   6.277   1.609  0.0096 -0.3983 -1.7839
 3571lim     li17611   1.760   6.959   5.610 -0.0497  0.9973 -0.8786
 3572lim     li17612   4.416   5.698   4.927  0.3623 -0.3887  1.0433
 3573lim     li17613   5.346   3.656   5.057 -0.3200 -0.1882 -0.3548
 3574lim     li17614   4.245   5.478   6.165  0.4607  0.4661 -0.0333
 3575lim     li17615   6.536   4.641   1.609 -0.0545  0.8192  0.5380
 3576lim     li17616   1.470   6.575   1.986  0.5836 -0.4492 -0.4771
 3577lim     li17617   1.079   2.114   5.997  0.1273  1.0095 -0.5377
 3578lim     li17618   0.322   6.347   3.904  0.5639 -0.9962 -0.0064
 3579lim     li17619   6.869   2.764   3.449 -0.3174 -0.5191  0.8786
 3580lim     li17620   5.951   5.545   6.353  0.6955  1.0546  0.4075
 3581lim     li17621   4.969   5.692   4.568 -0.2140  1.0419  0.6861
 3582lim     li17622   3.354   3.112   1.710  0.3189  0.2859  0.1034
 3583lim     li17623   1.186   4.198   2.338  0.2715  0.1557  0.7078
 3584lim     li17624   0.882   4.748   3.625 -0.2457  0.5138 -0.7215
 3585lim     li17625   1.133   4.207   4.759 -0.2452 -0.2385 -1.0019
 3586lim     li17626   5.718   6.499   4.821 -0.2249 -0.1637 -0.5289
 3587lim     li17627   5.918   4.158   2.269  1.0486  0.7970 -0.4373
 3588lim     li17628   2.586   0.390   4.411 -0.6136  0.3077 -0.0727
 3589lim     li17629   4.528   3.298   3.758  0.9602 -0.2353 -0.1348
 3590lim     li17630   3.997   1.022   3.360 -0.7894 -0.9683 -0.3823
 3591lim     li17631   3.333   1.633   3.261 -0.0101 -0.8414 -0.2721
 3592lim     li17632   7.079   6.990   4.765  0.0577 -0.1099  0.1560
 3593lim     li17633   4.495   3.400   5.793  0.1579 -0.3063 -0.2011
 3594lim     li17634   4.213   6.067   3.745 -0.1378  0.5996 -0.6335
 3595lim     li17635   2.366   0.257   6.731  0.5764  0.3264  0.5958
 3596lim     li17636   0.150   1.122   5.407 -0.4559 -0.3322  0.7192
 3597lim     li17637   1.168   0.301   3.953 -0.3878 -0.9288 -0.9801
 3598lim     li17638   4.173   2.491   0.825 -0.3216 -0.1414 -0.4959
 3599lim     li17639   3.718   2.004   3.825  1.7630  0.0277 -0.1428
 3600lim     li17640   3.955   0.703   1.698 -0.0244 -0.1769  0.2024
 3601lim     li17641   3.370   6.221   4.099  1.1478  0.1903 -0.0867
 3602lim     li17642   2.450   3.782   7.001 -1.7657  0.5675  0.1265
 3603lim     li17643   1.927   2.589   6.449 -0.9864 -0.1146 -0.4528
 3604lim     li17644   1.570   4.411   6.785 -0.2584 -0.4816  0.1036
 3605lim     li17645   4.473   0.964   2.553 -1.3177 -0.6420  0.1194
 3606lim     li17646   6.425   0.057   5.350  0.1102  0.1491 -0.9952
 3607lim     li17647   6.260   2.234   0.782  0.2009 -0.2302  1.5674
 3608lim     li17648   3.330   1.185   1.992 -0.7162  0.6605 -0.7228
 3609lim     li17649   1.921   5.779   2.052 -1.5230  0.0550  0.8659
 3610lim     li17650   3.799   4.712   2.843 -0.2418 -0.0075  0.4063
 3611lim     li17651   3.229   6.362   3.292  0.6238  0.6145 -0.2060
 3612lim     li17652   1.589   2.423   1.581 -0.8158  0.5630  0.8320
 3613lim     li17653   4.315   2.507   3.065 -0.5638  0.7038 -0.8312
 3614lim     li17654   6.298   0.874   1.690  0.0105 -0.9011  0.3906
 3615lim     li17655   3.758   2.568   5.092 -0.5563  0.2995  0.8166
 3616lim     li17656   2.001   4.842   4.649  0.3453 -1.2883  0.3066
 3617lim     li17657   3.608   4.633   6.665 -0.5792 -1.2088 -0.4235
 3618lim     li17658   4.577   2.809   4.179  0.4984  0.0933  0.8619
 3619lim     li17659   5.250   0.801   6.093 -0.4448 -0.2349 -0.4704
 3620lim     li17660   4.457   2.643   7.066 -0.5623 -0.3950 -0.3230
 3621lim     li17661   0.083   5.045   4.796 -0.3970  0.4697  0.6133
 3622lim     li17662   6.099   3.467   5.279  0.7821  0.7517 -0.7492
 3623lim     li17663   0.080   7.080   0.114  0.9116 -0.8072 -0.8272
 3624lim     li17664   5.586   0.293   2.296 -0.4667 -0.5148 -0.1641
 3625lim     li17665   0.422   3.490   5.596 -0.2558  0.3351 -0.0705
 3626lim     li17666   6.328   6.088   6.278 -0.7873  0.0860 -0.4340
 3627lim     li17667   0.070   2.028   0.169  0.2543 -0.0239 -0.2116
 3628lim     li17668   0.321   2.633   3.863 -1.5385 -0.4533  0.3085
 3629lim     li17669   1.197   5.838   6.489 -0.0460  1.1022 -0.5483
 3630lim     li17670   0.986   2.676   2.975 -0.3679 -1.3955 -0.2472
 3631lim     li17671   1.557   7.226   1.468  0.1513 -0.6654  0.4804
 3632lim     li17672   0.495   2.993   1.186 -0.5852  0.4828  0.5867
 3633lim     li17673   5.501   2.710   4.854  0.4658  0.9629 -0.6384
 3634lim     li17674   3.137   3.612   3.500  0.4550  0.7666  0.6426
 3635lim     li17675   7.062   0.329   3.768 -0.9231 -0.4152  0.6509
 3636lim     li17676   0.308   1.573   7.098  0.2207 -0.7242 -0.5482
 3637lim     li17677   5.615   3.597   0.160  0.4866  0.6256  1.0246
 3638lim     li17678   5.325   1.832   2.447  0.7033 -0.0811  0.4184
 3639lim     li17679   6.275   2.062   3.005 -0.3342 -0.1421 -0.9207
 3640lim     li17680   0.977   0.492   1.763 -1.2739  0.6258 -0.4204
 3641lim     li17681   5.646   4.546   6.593  1.0933  0.3221  1.0456
 3642lim     li17682   5.209   4.030   1.567  0.4806  0.4955 -1.3886
 3643lim     li17683   2.792   3.490   5.523  0.0266 -0.0103  0.8249
 3644lim     li17684   0.310   6.948   1.268 -1.0353  0.2718  0.4385
 3645lim     li17685   2.394   2.840   5.809 -0.4110 -0.9171  1.4409
 3646lim     li17686   2.646   2.011   3.554  0.0320  0.2142  0.4038
 3647lim     li17687   5.222   4.646   4.453  1.1975  0.4554  0.5367
 3648lim     li17688   6.350   5.099   6.836  0.6697 -0.9551  0.7112
 3649lim     li17689   2.374   6.736   2.555 -0.4919  0.2478 -0.0651
 3650lim     li17690   7.044   2.736   1.162 -0.1429  0.7366  0.3326
 3651lim     li17691   3.611   4.303   5.935  0.7025 -0.8743 -0.4432
 3652lim     li17692   2.084   6.485   6.383  0.0404  0.2619 -0.0016
 3653lim     li17693   1.172   1.662   3.416  0.5152  0.1514  1.1360
 3654lim     li17694   3.185   0.662   5.847 -1.0300  0.3359  0.5843
 3655lim     li17695   6.917   3.014   6.405  0.0605  0.1180  0.7527
 3656lim     li17696   3.250   0.310   1.543 -0.7936  0.4300 -0.0794
 3657lim     li17697   0.807   4.790   5.746  0.0239  0.3824 -0.4524
 3658lim     li17698   6.106   6.311   3.210 -0.6049  0.4827  0.9782
 3659lim     li17699   5.107   7.068   3.682  0.5830 -0.1326 -0.2148
 3660lim     li17700   2.530   0.120   5.757 -0.4250 -1.1905  1.2863
 3661lim     li17701   3.107   2.023   4.001 -0.4368 -0.4604  0.2385
 3662lim     li17702   6.789   2.748   5.746  0.2533 -0.4774  0.0381
 3663lim     li17703   5.058   0.728   5.075 -0.1885 -0.2365 -0.0104
 3664lim     li17704   0.292   0.423   4.679 -0.2279  0.4417  0.8836
 3665lim     li17705   5.247   2.482   1.423 -0.3859  0.5656 -0.2653
 3666lim     li17706   1.835   4.641   0.732  0.4127  0.0233 -0.3344
 3667lim     li17707   2.012   3.119   3.397  0.9615  1.1927  0.6236
 3668lim     li17708   1.766   2.055   5.658 -0.6442 -0.3259  0.3284
 3669lim     li17709   4.228   2.859   1.895 -0.0325  0.2182 -0.0419
 3670lim     li17710   2.414   1.310   4.664 -0.1551 -0.1398  0.5378
 3671lim     li17711   6.759   5.075   0.708  0.4875 -0.0464 -0.0856
 3672lim     li17712   3.603   2.938   7.050 -0.0542 -0.5176  0.3190
 3673lim     li17713   1.068   3.176   6.036  0.4648  0.1454 -0.0320
 3674lim     li17714   6.235   4.763   2.463  0.2119  0.5497  0.9115
 3675lim     li17715   3.649   1.082   4.862  0.3659  0.0883  0.4038
 3676lim     li17716   6.096   0.321   5.846 -0.1607 -0.9134  0.3261
 3677lim     li17717   4.696   6.794   4.252  0.4339 -0.8023 -0.2637
 3678lim     li17718   5.205   2.196   3.872  1.4219 -0.4002 -0.4049
 3679lim     li17719   2.036   5.159   2.348  0.3518 -0.3634  0.1998
 3680lim     li17720   1.817   3.553   3.160 -0.3068  0.1971 -0.1121
 3681lim     li17721   0.696   3.636   4.186 -0.4883  0.7265  0.3583
 3682lim     li17722   2.092   1.802   0.260  0.4361  0.7541 -0.6876
 3683lim     li17723   0.440   1.080   2.783 -0.3788  0.5583 -0.2270
 3684lim     li17724   1.403   3.740   6.380  0.2552 -0.9296 -0.3771
 3685lim     li17725   5.951   5.088   5.353  0.0233 -1.6760  0.3379
 3686lim     li17726   0.691   2.610   4.465  0.6892 -0.3116 -0.2022
 3687lim     li17727   0.354   5.464   2.323  0.2007  0.5264 -0.6430
 3688lim     li17728   2.738   4.300   4.799 -1.7007 -0.4784  0.1215
 3689lim     li17729   4.084   0.733   6.378  0.7479 -0.7565 -0.2486
 3690lim     li17730   1.301   0.442   0.568 -0.2296 -0.5829  1.7241
 3691lim     li17731   2.788   5.333   4.341  1.1260  0.6088  0.2746
 3692lim     li17732   6.025   6.770   1.223 -1.3595 -0.1980 -1.0818
 3693lim     li17733   0.075   3.698   3.464 -0.5496 -0.1786 -0.1162
 3694lim     li17734   5.746   2.287   5.914  0.6215  0.1546  0.1694
 3695lim     li17735   6.647   4.361   5.905 -1.2895  0.4214  0.1077
 3696lim     li17736   1.029   7.009   6.431 -0.4432  0.0036 -0.7529
 3697lim     li17737   4.769   0.262   4.706  0.4614 -0.7952 -0.1950
 3698lim     li17738   6.887   6.449   0.810  0.8737 -0.7689 -1.2051
 3699lim     li17739   3.519   4.340   0.557  0.6229 -0.1500  0.0232
 3700lim     li17740   6.238   0.625   2.775 -0.3806  0.9025  0.1491
 3701lim     li17741   2.546   6.219   6.921  0.3517 -1.0241  0.3917
 3702lim     li17742   1.704   1.289   0.546 -0.3851 -0.7639 -0.2018
 3703lim     li17743   6.472   5.962   2.228  0.0106  0.3544 -0.3152
 3704lim     li17744   3.097   0.062   6.628  0.2091 -0.9267  0.6222
 3705lim     li17745   3.141   2.001   6.527 -0.1682  0.1275  0.3595
 3706lim     li17746   4.852   1.604   1.817  0.2356  0.2622 -0.3168
 3707lim     li17747   3.946   1.765   7.013  0.0275  1.1462  1.2607
 3708lim     li17748   2.155   4.210   6.545  0.0836 -0.9272  0.4126
 3709lim     li17749   5.027   7.105   0.544 -1.0226 -0.0666  0.4281
 3710lim     li17750   3.839   7.042   3.819  0.2110  0.6604 -0.0352
 3711lim     li17751   5.780   1.641   5.063 -0.2658 -0.5735 -0.5285
 3712lim     li17752   0.401   2.570   0.055  0.2351  0.5449  0.5064
 3713lim     li17753   3.660   6.646   6.274  0.1312 -1.0675  0.2135
 3714lim     li17754   2.108   1.102   1.435  0.5888  0.1547 -0.5367
 3715lim     li17755   7.179   2.227   2.013  0.5425 -0.1467  0.0321
 3716lim     li17756   3.965   5.721   3.106  0.3713 -0.5421  0.0235
 3717lim     li17757   5.499   1.112   0.871  1.3396 -0.6111  0.4998
 3718lim     li17758   0.380   1.072   4.919  0.0799  0.2754  0.6305
 3719lim     li17759   4.528   7.196   5.492 -0.3473 -0.9948 -0.1082
 3720lim     li17760   5.136   4.353   6.480 -0.2137 -0.1692 -0.3412
 3721lim     li17761   5.900   7.117   3.773  1.5405 -0.0153 -0.5010
 3722lim     li17762   4.716   1.188   3.548 -0.3155  0.0622  0.2413
 3723lim     li17763   4.397   2.251   2.547  0.1292 -1.1954 -0.3049
 3724lim     li17764   6.563   4.177   0.149 -0.8335  0.0315 -0.5659
 3725lim     li17765   1.380   6.912   5.218  1.5273 -0.0802  0.6963
 3726lim     li17766   5.899   3.043   1.800  0.9102  0.5865 -0.0231
 3727lim     li17767   5.702   5.268   2.734  0.0368 -0.1174 -0.1577
 3728lim     li17768   0.003   4.643   5.739  0.1380 -1.0059  0.3781
 3729lim     li17769   2.623   1.038   3.908  0.3596 -0.0206 -0.1264
 3730lim     li17770   6.387   4.032   2.753  0.0390 -0.4708  0.5921
 3731lim     li17771   7.158   4.986   6.474 -0.2915  0.1099  0.9295
 3732lim     li17772   6.012   3.973   1.483 -1.0084  0.2872  0.6971
 3733lim     li17773   6.597   5.552   3.682  0.3547  0.6636 -0.2274
 3734lim     li17774   0.229   1.644   1.201 -0.3697  0.2805 -1.1349
 3735lim     li17775   5.331   1.555   6.432  0.3983  0.0570 -0.0692
 3736lim     li17776   5.055   4.238   5.327 -0.1603  0.2904 -0.3189
 3737lim     li17777   5.763   4.788   1.000 -0.6325 -1.2370 -0.3411
 3738lim     li17778   3.886   2.137   2.847 -0.3379 -0.2002  0.3370
 3739lim     li17779   2.497   6.959   5.474 -0.7309  0.2632 -0.5933
 3740lim     li17780   6.079   1.218   3.063  1.5726 -0.5828 -0.5395
 3741lim     li17781   4.095   1.531   4.279 -0.7485  1.0669  0.7708
 3742lim     li17782   6.683   2.536   3.928  0.7757 -0.2415  0.2923
 3743lim     li17783   3.414   0.194   0.390 -0.0086 -0.1980 -0.3972
 3744lim     li17784   3.833   1.105   0.583  0.2371 -0.2412 -0.4388
 3745lim     li17785   5.490   0.564   1.878  0.0337  0.0576 -0.1936
 3746lim     li17786   2.919   1.702   2.170 -0.6718  0.6955  0.5270
 3747lim     li17787   1.267   2.581   2.280 -0.9626  0.1449  0.1514
 3748lim     li17788   1.696   0.174   6.132  0.0933 -0.4536 -0.3772
 3749lim     li17789   1.830   0.745   3.724 -1.1814  0.0576 -1.7604
 3750lim     li17790   0.761   1.024   4.243  0.9370  0.3338 -0.6182
 3751lim     li17791   4.985   3.447   6.037 -0.2599  0.5086  1.0485
 3752lim     li17792   3.020   5.223   6.095  0.4427 -0.0141 -0.7464
 3753lim     li17793   1.901   3.325   0.676 -0.5648  0.5102  0.0586
 3754lim     li17794   2.014   5.988   2.809 -0.1703  0.6116  0.2034
 3755lim     li17795   2.263   0.624   2.116  0.8889 -0.7219  0.5012
 3756lim     li17796   1.253   2.013   6.563 -0.8824 -0.6195  0.8127
 3757lim     li17797   6.322   6.097   1.441 -1.5070 -0.7265 -0.4534
 3758lim     li17798   3.938   4.763   3.799  0.0715  0.5156 -0.4066
 3759lim     li17799   6.745   3.411   6.334 -0.0133  0.4932  0.1448
 3760lim     li17800   5.204   5.554   3.186 -0.1776 -0.5404  0.5737
 3761lim     li17801   2.187   4.504   2.832  0.8234  0.3703  0.5360
 3762lim     li17802   2.880   5.000   2.239 -0.7720  0.3808  0.1218
 3763lim     li17803   5.169   3.571   2.390 -0.0724 -0.6421  0.8069
 3764lim     li17804   2.640   5.685   3.207  0.3652  0.3988 -0.3230
 3765lim     li17805   2.402   0.359   2.820 -1.3779 -0.2429 -1.4475
 3766lim     li17806   5.436   6.998   3.989 -0.1988  0.4128  0.4899
 3767lim     li17807   1.052   4.856   7.227 -0.6210 -0.5722 -0.4897
 3768lim     li17808   4.219   2.038   6.010  0.6487  0.1494 -0.1676
 3769lim     li17809   5.123   1.430   5.113  0.4628  0.6404 -0.9682
 3770lim     li17810   1.441   3.935   3.530 -0.1798 -0.0770 -0.6647
 3771lim     li17811   2.795   3.280   0.722 -0.0539  0.5048 -0.2527
 3772lim     li17812   1.065   2.111   1.769 -0.2274 -0.3182 -0.0645
 3773lim     li17813   4.728   2.839   6.473 -1.1355 -1.2816 -0.2495
 3774lim     li17814   2.873   2.353   4.571  0.5312  1.0552  1.2142
 3775lim     li17815   2.904   0.189   0.733  1.3614  0.1652  0.1511
 3776lim     li17816   4.881   3.552   4.645  0.4388  0.8730  0.7256
 3777lim     li17817   2.935   6.543   1.707 -0.2462  0.7944 -0.9034
 3778lim     li17818   0.074   0.532   5.906 -0.4057 -0.3765 -0.2565
 3779lim     li17819   5.747   4.967   1.814  0.6415 -1.2336  0.8439
 3780lim     li17820   2.062   0.990   5.634 -0.4323 -0.2644 -0.1494
 3781ntf    cn117821   3.415   6.933   5.751  0.6095 -0.4294 -0.0594
 3781ntf    sn217822   3.407   6.801   5.876 -0.5411 -0.1501  0.1706
 3781ntf    nn317823   3.292   6.863   5.963 -0.6795 -0.5018  0.2413
 3781ntf    sn217824   3.262   6.846   6.116 -0.0797 -0.0273  0.4209
 3781ntf    cn117825   3.135   6.717   6.096 -0.1451  0.1134 -0.0800
 3781ntf    fn417826   3.443   7.055   5.794  0.6482 -0.3618 -0.2753
 3781ntf    fn417827   3.503   6.909   5.655  0.0526 -0.2713 -0.6120
 3781ntf    fn417828   3.296   6.938   5.695  0.3788 -0.1044  0.4558
 3781ntf    on517829   3.375   6.685   5.797 -0.2353  0.0459 -0.2460
 3781ntf    on517830   3.537   6.817   5.935 -0.3491 -0.1729 -0.2389
 3781ntf    on517831   3.180   6.949   6.174  0.0094  0.1087  0.3059
 3781ntf    on517832   3.360   6.776   6.194  0.4836 -0.0397 -0.2857
 3781ntf    fn417833   3.031   6.760   6.026  0.1203  0.8221 -0.0496
 3781ntf    fn417834   3.181   6.614   6.028 -0.2171 -0.2078  0.3582
 3781ntf    fn417835   3.090   6.672   6.212 -0.3960 -0.5661 -0.4353
 3782ntf    cn117836   7.203   6.416   5.505 -0.3736  0.1610 -0.1486
 3782ntf    sn217837   7.202   6.568   5.405  0.0237  0.3581  0.1473
 3782ntf    nn317838   7.326   6.647   5.462  0.2562  0.0896  0.0123
 3782ntf    sn217839   7.352   6.800   5.437  0.0673  0.1195 -0.0027
 3782ntf    cn117840   7.516   6.802   5.359 -0.1039  0.0161 -0.3707
 3782ntf    fn417841   7.311   6.342   5.491 -0.5232 -0.1247  0.2053
 3782ntf    fn417842   7.195   6.437   5.636  0.6715  0.0611 -0.0648
 3782ntf    fn417843   7.108   6.329   5.478 -0.0360 -0.1363 -0.3820
 3782ntf    on517844   7.228   6.531   5.269 -0.7112 -0.0738  0.1252
 3782ntf    on517845   7.071   6.618   5.438 -0.0666 -0.0375  0.3870
 3782ntf    on517846   7.370   6.877   5.557  0.1136 -0.3872  0.3169
 3782ntf    on517847   7.260   6.858   5.342  0.3349  0.2359 -0.1891
 3782ntf    fn417848   7.544   6.913   5.293 -0.0693  0.1386 -0.1526
 3782ntf    fn417849   7.618   6.775   5.439  0.2411  0.5561 -0.6166
 3782ntf    fn417850   7.524   6.704   5.271 -0.2489 -0.4542  0.1315
 3783ntf    cn117851   6.303   6.517   4.559 -0.0369 -0.1593  0.2673
 3783ntf    sn217852   6.385   6.504   4.720  0.2751 -0.0724  0.1159
 3783ntf    nn317853   6.514   6.429   4.671 -0.0513 -0.2217 -0.5188
 3783ntf    sn217854   6.658   6.480   4.637 -0.0230  0.1310  0.1080
 3783ntf    cn117855   6.696   6.373   4.495 -0.4284 -0.3178  0.3399
 3783ntf    fn417856   6.363   6.605   4.481 -0.2297 -0.5890 -0.3850
 3783ntf    fn417857   6.306   6.401   4.495 -0.1439  0.0082 -0.0412
 3783ntf    fn417858   6.178   6.558   4.569 -0.0936 -0.3516  0.3474
 3783ntf    on517859   6.396   6.643   4.758 -0.5272  0.0519 -0.0949
 3783ntf    on517860   6.297   6.428   4.806  0.0643 -0.0344 -0.0662
 3783ntf    on517861   6.763   6.452   4.732  0.1310  0.2265 -0.0318
 3783ntf    on517862   6.660   6.613   4.579 -0.1726  0.1090  0.0520
 3783ntf    fn417863   6.627   6.405   4.387 -0.2536  0.5119  0.4690
 3783ntf    fn417864   6.821   6.383   4.453 -0.3264  0.0751  0.7389
 3783ntf    fn417865   6.684   6.246   4.530 -0.0598 -0.3468  0.3623
 3784ntf    cn117866   5.061   4.390   7.219 -0.0661  0.1068  0.3739
 3784ntf    sn217867   4.941   4.440   7.092  0.0809  0.0382  0.2073
 3784ntf    nn317868   4.912   4.585   7.144 -0.1125  0.0362  0.1067
 3784ntf    sn217869   4.982   4.719   7.100  0.0038  0.0627  0.3748
 3784ntf    cn117870   4.851   4.758   6.981  0.2704 -0.2303 -0.0194
 3784ntf    fn417871   5.134   4.284   7.186 -0.4050 -0.1760  0.5146
 3784ntf    fn417872   5.147   4.485   7.251  0.2165  0.1399 -0.4656
 3784ntf    fn417873   5.005   4.364   7.337 -0.6411  0.7758  0.2537
 3784ntf    on517874   5.004   4.420   6.964 -0.1028 -0.0850  0.1346
 3784ntf    on517875   4.825   4.356   7.111 -0.2109  0.3308 -0.2910
 3784ntf    on517876   5.104   4.712   7.023 -0.4048  0.4056 -0.3001
 3784ntf    on517877   4.979   4.815   7.207  0.1315  0.1420  0.3079
 3784ntf    fn417878   4.742   4.805   7.040  0.5419 -0.0170  0.3186
 3784ntf    fn417879   4.875   4.852   6.892 -0.8710  0.0034 -0.1005
 3784ntf    fn417880   4.806   4.657   6.908 -0.4186  0.0687 -0.0133
 3785ntf    cn117881   3.765   3.866   6.847  0.2505  0.1022 -0.1872
 3785ntf    sn217882   3.745   3.963   6.694  0.1664  0.1184 -0.1651
 3785ntf    nn317883   3.703   3.855   6.589 -0.1661 -0.0590  0.1456
 3785ntf    sn217884   3.560   3.813   6.539 -0.1251 -0.1473  0.1032
 3785ntf    cn117885   3.517   3.934   6.410  0.3266 -0.1250 -0.0287
 3785ntf    fn417886   3.647   3.833   6.897  0.4271 -0.1543  0.0614
 3785ntf    fn417887   3.838   3.760   6.815 -0.5757 -0.4484 -0.2696
 3785ntf    fn417888   3.834   3.928   6.942  0.3185 -0.1577 -0.0673
 3785ntf    on517889   3.644   4.062   6.727  0.0141  0.1241 -0.6459
 3785ntf    on517890   3.878   4.009   6.665  0.0872  0.7516  0.4323
 3785ntf    on517891   3.456   3.817   6.638 -0.1744 -0.4204  0.0640
 3785ntf    on517892   3.575   3.695   6.457 -0.1028 -0.0809  0.0122
 3785ntf    fn417893   3.606   3.927   6.312  0.6086  0.1494  0.2045
 3785ntf    fn417894   3.399   3.923   6.352  0.2971  0.6570 -0.1189
 3785ntf    fn417895   3.516   4.059   6.454  0.2724 -0.0924 -0.1227
 3786ntf    cn117896   5.928   1.378   5.641  0.3403  0.1068 -0.5189
 3786ntf    sn217897   6.016   1.309   5.498  0.2525 -0.3142 -0.3695
 3786ntf    nn317898   6.152   1.385   5.514 -0.3293  0.5891  0.3296
 3786ntf    sn217899   6.204   1.506   5.429 -0.3638  0.4313  0.0852
 3786ntf    cn117900   6.274   1.412   5.290 -0.3162  0.1498  0.2967
 3786ntf    fn417901   5.817   1.316   5.677  0.7377 -0.0400  0.4677
 3786ntf    fn417902   6.014   1.364   5.740 -0.1843 -0.7118 -0.1679
 3786ntf    fn417903   5.902   1.508   5.636 -0.2207  0.0265  0.2102
 3786ntf    on517904   6.026   1.170   5.535 -0.1900 -0.0550  0.7557
 3786ntf    on517905   5.938   1.345   5.382 -0.1704  0.8109  0.2464
 3786ntf    on517906   6.316   1.570   5.493  0.0186  0.0624 -0.2072
 3786ntf    on517907   6.104   1.594   5.373 -0.8515 -0.3181 -0.2446
 3786ntf    fn417908   6.188   1.333   5.227 -0.1856  0.5019 -0.3361
 3786ntf    fn417909   6.317   1.503   5.203 -0.3892  0.2173  0.3314
 3786ntf    fn417910   6.374   1.332   5.322  0.2184  0.5325 -0.3751
 3787ntf    cn117911   1.529   4.142   5.834 -0.0682  0.6000 -0.4616
 3787ntf    sn217912   1.562   4.318   5.863 -0.2067  0.5285  0.1533
 3787ntf    nn317913   1.576   4.316   6.019 -0.8416  0.2734  0.2127
 3787ntf    sn217914   1.647   4.420   6.114 -0.0101 -0.1666  0.0873
 3787ntf    cn117915   1.507   4.531   6.147  0.0086 -0.1106 -0.0198
 3787ntf    fn417916   1.405   4.110   5.867  0.0470 -0.0501 -0.6561
 3787ntf    fn417917   1.545   4.092   5.713 -0.0192 -0.3468 -0.0744
 3787ntf    fn417918   1.604   4.069   5.915 -0.2812  0.3828 -0.4612
 3787ntf    on517919   1.683   4.332   5.786 -0.3661 -1.0829 -0.4262
 3787ntf    on517920   1.436   4.374   5.820 -0.1015  0.7033  0.0717
 3787ntf    on517921   1.762   4.490   6.061  0.2447 -0.6483 -0.0009
 3787ntf    on517922   1.668   4.361   6.244 -0.0327 -0.6772 -0.1377
 3787ntf    fn417923   1.512   4.591   6.265  0.4560 -0.2998  0.0577
 3787ntf    fn417924   1.496   4.631   6.061  0.4053  0.3505  0.4603
 3787ntf    fn417925   1.390   4.468   6.147  0.0752 -0.2346 -0.0797
 3788ntf    cn117926   2.438   1.594   7.165 -0.1335 -0.3762 -0.0451
 3788ntf    sn217927   2.563   1.610   7.296 -0.1401  0.0325 -0.0881
 3788ntf    nn317928   2.597   1.457   7.302  0.0617  0.0831  0.0842
 3788ntf    sn217929   2.618   1.370   7.431 -0.0542 -0.2288 -0.1069
 3788ntf    cn117930   2.454   1.292   7.439 -0.1707  0.0166 -0.1024
 3788ntf    fn417931   2.493   1.562   7.049  0.1890  0.3207 -0.0887
 3788ntf    fn417932   2.349   1.500   7.191 -0.2740 -0.0586  0.6466
 3788ntf    fn417933   2.363   1.701   7.142 -0.4244 -0.7147 -0.7118
 3788ntf    on517934   2.672   1.693   7.249 -0.0857  0.1936  0.3194
 3788ntf    on517935   2.488   1.663   7.407  0.2037  0.2909  0.0233
 3788ntf    on517936   2.632   1.439   7.556  0.4408  0.0194 -0.2977
 3788ntf    on517937   2.705   1.257   7.411  0.0374 -0.0953 -0.4692
 3788ntf    fn417938   2.424   1.250   7.561 -0.7011  0.4637 -0.0724
 3788ntf    fn417939   2.356   1.377   7.410 -0.4571 -0.1913  0.2443
 3788ntf    fn417940   2.446   1.184   7.363 -0.4905  0.1282 -0.2311
 3789ntf    cn117941   1.000   5.873   3.804  0.1632 -0.0860  0.2594
 3789ntf    sn217942   0.915   5.716   3.835  0.0737 -0.0417  0.2381
 3789ntf    nn317943   0.904   5.704   3.991  0.0949  0.4030  0.2744
 3789ntf    sn217944   1.010   5.640   4.087  0.1904  0.1671  0.0101
 3789ntf    cn117945   0.966   5.723   4.242 -0.1789 -0.2037  0.1071
 3789ntf    fn417946   1.133   5.874   3.800  0.1460 -0.1787 -0.4603
 3789ntf    fn417947   0.967   5.923   3.686 -0.0900  0.2037  0.4543
 3789ntf    fn417948   0.969   5.965   3.894  0.8227  0.5283 -0.1278
 3789ntf    on517949   0.788   5.737   3.769  0.2690  0.1825 -0.0668
 3789ntf    on517950   0.995   5.616   3.769  0.1548  0.4495 -0.4139
 3789ntf    on517951   1.146   5.681   4.061  0.0742  0.4306 -0.1840
 3789ntf    on517952   0.992   5.498   4.105  0.0526  0.1355 -0.3605
 3789ntf    fn417953   1.020   5.656   4.343  0.3259  0.0729  0.0278
 3789ntf    fn417954   0.985   5.854   4.242 -0.3764 -0.1745 -0.4356
 3789ntf    fn417955   0.838   5.702   4.266 -0.1504  0.0689  0.5301
 3790ntf    cn117956   6.917   4.620   5.159  0.0810 -0.3872  0.0475
 3790ntf    sn217957   6.862   4.578   5.328 -0.0991  0.2642  0.1534
 3790ntf    nn317958   6.955   4.455   5.356 -0.3809 -0.0106 -0.0964
 3790ntf    sn217959   6.957   4.368   5.487 -0.1992  0.0092 -0.0845
 3790ntf    cn117960   6.898   4.214   5.411 -0.1925 -0.1449  0.2224
 3790ntf    fn417961   6.948   4.515   5.084  0.4057 -0.1503 -0.1502
 3790ntf    fn417962   6.828   4.690   5.092  0.3799 -0.3393 -0.2986
 3790ntf    fn417963   7.026   4.694   5.169  0.1207 -0.4902  0.3953
 3790ntf    on517964   6.888   4.692   5.412  0.7882  0.0579  0.1691
 3790ntf    on517965   6.727   4.532   5.307 -0.1244  0.2280  0.3927
 3790ntf    on517966   6.855   4.397   5.585 -0.0570 -0.1800  0.1202
 3790ntf    on517967   7.090   4.344   5.536 -0.1130  0.3632 -0.1443
 3790ntf    fn417968   6.811   4.231   5.313  0.6629  0.0361 -0.5178
 3790ntf    fn417969   6.996   4.143   5.359 -0.3063 -0.1268 -0.0178
 3790ntf    fn417970   6.848   4.123   5.494  0.2896 -0.8384 -0.2332
 3791ntf    cn117971   2.758   1.603   4.088 -0.2120  0.0137 -0.3034
 3791ntf    sn217972   2.936   1.604   4.122 -0.1594  0.0135 -0.5834
 3791ntf    nn317973   2.959   1.452   4.155 -0.1519  0.1236 -0.0754
 3791ntf    sn217974   3.050   1.408   4.275 -0.0091  0.3249 -0.1096
 3791ntf    cn117975   3.142   1.277   4.189  0.3107  0.2050  0.4123
 3791ntf    fn417976   2.700   1.551   4.196 -0.2164  0.5697 -0.0357
 3791ntf    fn417977   2.715   1.728   4.077  0.6960  0.3390 -0.2500
 3791ntf    fn417978   2.715   1.540   3.980 -0.6773  0.0884 -0.1645
 3791ntf    on517979   3.000   1.652   4.001 -0.2026 -0.1956 -0.6901
 3791ntf    on517980   2.934   1.691   4.236 -0.2564 -0.1188 -0.4842
 3791ntf    on517981   2.975   1.339   4.377  0.5245 -0.0552  0.0276
 3791ntf    on517982   3.157   1.497   4.314  0.1293  0.2835 -0.3935
 3791ntf    fn417983   3.238   1.332   4.116  0.1714  0.1909  0.2180
 3791ntf    fn417984   3.208   1.200   4.273 -0.2457 -0.6045  0.1184
 3791ntf    fn417985   3.064   1.205   4.110  0.4924  0.3876  0.0639
 3792ntf    cn117986   5.419   1.088   6.640 -0.0910 -0.1252 -0.0701
 3792ntf    sn217987   5.344   1.166   6.786  0.1679  0.0307 -0.0191
 3792ntf    nn317988   5.191   1.165   6.749  0.3131  0.3092 -0.6389
 3792ntf    sn217989   5.090   1.274   6.800  0.4303  0.0060  0.2568
 3792ntf    cn117990   4.938   1.186   6.754  0.4035 -0.0668  0.4846
 3792ntf    fn417991   5.550   1.100   6.656 -0.2147  0.8290  0.2407
 3792ntf    fn417992   5.387   0.959   6.636  0.3334 -0.2277 -0.2140
 3792ntf    fn417993   5.399   1.148   6.524  0.0762  0.6861  0.3187
 3792ntf    on517994   5.378   1.086   6.901 -0.4220 -0.2705 -0.0488
 3792ntf    on517995   5.398   1.299   6.773  0.1210  0.0145 -0.4183
 3792ntf    on517996   5.084   1.394   6.720  0.2933 -0.3084 -0.2034
 3792ntf    on517997   5.074   1.287   6.943 -0.3106  0.7483  0.1110
 3792ntf    fn417998   4.832   1.266   6.751  0.5294  0.0854  0.0354
 3792ntf    fn417999   4.953   1.150   6.628  0.0116  0.4726  0.2793
 3792ntf    fn418000   4.914   1.078   6.826  0.2715 -0.0929  0.3998
 3793ntf    cn118001   5.609   6.282   3.739  0.2360 -0.0297 -0.0149
 3793ntf    sn218002   5.701   6.282   3.896 -0.0625  0.4200  0.1626
 3793ntf    nn318003   5.680   6.131   3.934 -0.3137  0.3604 -0.2120
 3793ntf    sn218004   5.582   6.078   4.045  0.1628  0.0910  0.0825
 3793ntf    cn118005   5.634   6.167   4.194  0.0370  0.0933  0.1248
 3793ntf    fn418006   5.647   6.356   3.636 -0.1374  0.1488 -0.0251
 3793ntf    fn418007   5.606   6.160   3.688 -0.0033 -0.1925  0.3826
 3793ntf    fn418008   5.480   6.306   3.749  0.1344 -0.4729 -0.2481
 3793ntf    on518009   5.831   6.316   3.845  0.3361 -0.5684  0.4884
 3793ntf    on518010   5.626   6.383   3.966 -0.0869  0.4465  0.0977
 3793ntf    on518011   5.601   5.938   4.074  0.1531 -0.0021 -0.3530
 3793ntf    on518012   5.446   6.125   4.032 -0.0786 -0.5364  0.3042
 3793ntf    fn418013   5.586   6.290   4.191 -0.7243 -0.1984  0.1994
 3793ntf    fn418014   5.586   6.113   4.305 -0.0244  0.2630  0.1814
 3793ntf    fn418015   5.766   6.177   4.206  0.0669  0.1403 -0.2409
 3794ntf    cn118016   4.372   4.806   4.256  0.0751  0.0756 -0.2182
 3794ntf    sn218017   4.334   4.779   4.080  0.0800  0.1353 -0.2283
 3794ntf    nn318018   4.311   4.624   4.093 -0.3233  0.2198  0.0747
 3794ntf    sn218019   4.186   4.553   4.156 -0.1886  0.0269  0.1280
 3794ntf    cn118020   4.264   4.465   4.294  0.4545  0.5744  0.1197
 3794ntf    fn418021   4.479   4.737   4.292 -0.4029 -0.4808  0.1578
 3794ntf    fn418022   4.403   4.932   4.281  0.1252 -0.0984  0.6385
 3794ntf    fn418023   4.271   4.771   4.334  0.1263  0.0316 -0.1721
 3794ntf    on518024   4.224   4.865   4.049  0.2496  0.2924 -0.3962
 3794ntf    on518025   4.457   4.810   4.010  0.9692 -0.5052  1.0071
 3794ntf    on518026   4.132   4.452   4.068 -0.2227 -0.1397  0.3381
 3794ntf    on518027   4.089   4.639   4.221  0.0048  0.4049 -0.0792
 3794ntf    fn418028   4.353   4.376   4.255 -0.0095 -0.0242  0.4103
 3794ntf    fn418029   4.330   4.550   4.371  0.0641  0.7542  0.2643
 3794ntf    fn418030   4.172   4.406   4.369  0.6412 -0.0677 -0.1535
 3795ntf    cn118031   3.890   1.723   1.448  0.0269 -0.2063 -0.3365
 3795ntf    sn218032   4.036   1.637   1.382  0.2619 -0.0601 -0.0082
 3795ntf    nn318033   4.077   1.718   1.253 -0.3440  0.0685 -0.1230
 3795ntf    sn218034   4.190   1.824   1.230  0.0844 -0.3305  0.1200
 3795ntf    cn118035   4.325   1.708   1.190  0.1806 -0.1705 -0.0175
 3795ntf    fn418036   3.916   1.850   1.474  0.2833 -0.2800 -0.2325
 3795ntf    fn418037   3.794   1.735   1.357 -0.3973  0.2564  0.1717
 3795ntf    fn418038   3.842   1.671   1.559 -0.2304  0.5893 -0.0696
 3795ntf    on518039   4.133   1.641   1.488  0.1174 -0.5843  0.1472
 3795ntf    on518040   3.987   1.504   1.357  0.3217 -0.1483  0.3426
 3795ntf    on518041   4.235   1.892   1.349 -0.0627 -0.2150  0.1096
 3795ntf    on518042   4.188   1.900   1.107  1.1514 -0.1487  0.1991
 3795ntf    fn418043   4.440   1.756   1.146  0.0603  0.4979  0.3739
 3795ntf    fn418044   4.357   1.641   1.299 -0.1311 -0.0489  0.1515
 3795ntf    fn418045   4.289   1.610   1.110  0.4399 -0.0914 -0.2296
 3796ntf    cn118046   5.050   2.992   0.349 -0.0477  0.2420 -0.1454
 3796ntf    sn218047   5.074   2.855   0.466  0.2168  0.4028 -0.0112
 3796ntf    nn318048   4.932   2.789   0.451  0.1552  0.3829  0.6306
 3796ntf    sn218049   4.826   2.759   0.563 -0.1172 -0.1553  0.2305
 3796ntf    cn118050   4.712   2.652   0.471  0.0888 -0.2117  0.0391
 3796ntf    fn418051   5.158   3.066   0.333 -0.0256  0.1643 -0.3550
 3796ntf    fn418052   5.019   2.940   0.231  0.1685 -0.2703  0.0172
 3796ntf    fn418053   4.948   3.070   0.382 -0.0855  0.0264  0.2570
 3796ntf    on518054   5.184   2.776   0.415  0.3167  0.6920 -0.2398
 3796ntf    on518055   5.096   2.922   0.592 -0.1825  0.4453  0.0381
 3796ntf    on518056   4.749   2.876   0.600  0.0233 -0.0845  0.2994
 3796ntf    on518057   4.870   2.671   0.668 -0.1991  0.1005  0.4820
 3796ntf    fn418058   4.780   2.552   0.417  0.0958 -0.0566 -0.2390
 3796ntf    fn418059   4.615   2.598   0.543  0.1241  0.0531  0.2833
 3796ntf    fn418060   4.656   2.717   0.371 -0.1464 -0.4596  0.0071
 3797ntf    cn118061   3.564   1.247   4.085 -0.0331  0.0293  0.0861
 3797ntf    sn218062   3.578   1.397   3.983 -0.1784 -0.0021  0.0195
 3797ntf    nn318063   3.463   1.383   3.877  0.1967  0.2251 -0.4185
 3797ntf    sn218064   3.420   1.458   3.746 -0.0346  0.1193 -0.4019
 3797ntf    cn118065   3.313   1.335   3.666  0.0473 -0.0354 -0.2743
 3797ntf    fn418066   3.441   1.226   4.129 -0.0709  0.2212  0.0730
 3797ntf    fn418067   3.602   1.139   4.019 -0.0618  0.3061 -0.3829
 3797ntf    fn418068   3.641   1.248   4.193  0.4955  0.3073 -0.2873
 3797ntf    on518069   3.564   1.508   4.073 -0.2004  0.0173 -0.0077
 3797ntf    on518070   3.705   1.382   3.917 -0.0967  0.0157  0.1720
 3797ntf    on518071   3.522   1.482   3.647 -0.1519  0.5614 -0.4166
 3797ntf    on518072   3.326   1.565   3.768 -0.4443 -0.3252  0.0242
 3797ntf    fn418073   3.203   1.316   3.738  0.1357  0.0856 -0.1084
 3797ntf    fn418074   3.266   1.361   3.545 -0.4016 -0.0470 -0.1074
 3797ntf    fn418075   3.368   1.216   3.650  0.4815  0.1397 -0.0817
 3798ntf    cn118076   6.422   0.640   6.775 -0.2218 -0.2256  0.1100
 3798ntf    sn218077   6.459   0.680   6.948 -0.2550 -0.0108  0.0680
 3798ntf    nn318078   6.612   0.652   6.968 -0.2809 -0.1159  0.1227
 3798ntf    sn218079   6.731   0.736   6.909 -0.3612 -0.1040 -0.0208
 3798ntf    cn118080   6.745   0.862   7.039 -0.0638  0.0234 -0.1761
 3798ntf    fn418081   6.291   0.628   6.760 -0.2313 -0.0315  0.0397
 3798ntf    fn418082   6.457   0.736   6.691  0.0806 -0.7454 -0.3656
 3798ntf    fn418083   6.479   0.529   6.729  0.1137  0.2661 -0.6756
 3798ntf    on518084   6.422   0.819   6.963  0.5657  0.1193  1.0056
 3798ntf    on518085   6.382   0.578   7.015  0.4775 -0.5516  0.0997
 3798ntf    on518086   6.708   0.810   6.787  0.1535 -0.1352 -0.1388
 3798ntf    on518087   6.855   0.663   6.920 -0.4850 -0.3294 -0.1112
 3798ntf    fn418088   6.856   0.934   7.031  0.0073 -0.0569  0.0866
 3798ntf    fn418089   6.642   0.945   7.041 -0.2500 -0.2084 -0.0263
 3798ntf    fn418090   6.753   0.804   7.157  0.5971  0.1514 -0.1527
 3799ntf    cn118091   5.730   6.021   0.102  0.0211 -0.1896  0.0812
 3799ntf    sn218092   5.829   5.941  -0.027  0.1824 -0.1497  0.1803
 3799ntf    nn318093   5.799   6.028  -0.154 -0.5110  0.0252  0.4631
 3799ntf    sn218094   5.891   6.128  -0.233 -0.3144 -0.1991  0.4095
 3799ntf    cn118095   6.011   6.009  -0.301 -0.1286  0.4485 -0.4103
 3799ntf    fn418096   5.756   6.150   0.121 -0.5802  0.0669 -0.7722
 3799ntf    fn418097   5.603   6.014   0.065 -0.0400 -0.0723  0.2640
 3799ntf    fn418098   5.745   5.962   0.219 -0.1109 -0.0944  0.1466
 3799ntf    on518099   5.957   5.943   0.039  0.5056  0.1722 -0.4412
 3799ntf    on518100   5.770   5.810  -0.028 -0.2211  0.0321  0.1343
 3799ntf    on518101   5.983   6.211  -0.158 -0.0514 -0.6117  0.5478
 3799ntf    on518102   5.837   6.186  -0.353  0.2797  0.3697  0.4108
 3799ntf    fn418103   5.943   5.922  -0.374  0.5938 -0.3795 -0.1135
 3799ntf    fn418104   6.106   6.057  -0.379  0.1042  1.1132  0.2621
 3799ntf    fn418105   6.082   5.951  -0.206 -0.2390  0.0839 -0.5497
 3800ntf    cn118106   1.816   3.233   6.306 -0.2146 -0.0218  0.0810
 3800ntf    sn218107   1.725   3.130   6.186  0.0518  0.3092 -0.4095
 3800ntf    nn318108   1.625   3.067   6.289  0.4505  0.2146 -0.0761
 3800ntf    sn218109   1.612   2.918   6.339 -0.2418  0.2154 -0.2396
 3800ntf    cn118110   1.434   2.902   6.310 -0.2802  0.0607  0.0728
 3800ntf    fn418111   1.935   3.267   6.260 -0.1204  0.2594  0.5266
 3800ntf    fn418112   1.750   3.346   6.329  0.0284  0.2872 -0.7032
 3800ntf    fn418113   1.841   3.182   6.425 -0.5397  0.0183  0.1693
 3800ntf    on518114   1.651   3.219   6.102 -0.5713 -0.5764 -0.8141
 3800ntf    on518115   1.831   3.048   6.132  0.3184 -0.1082  0.7073
 3800ntf    on518116   1.622   2.904   6.483  0.4903  0.1366 -0.2935
 3800ntf    on518117   1.677   2.821   6.256 -0.4949  0.1903 -0.4059
 3800ntf    fn418118   1.400   2.777   6.281 -0.1084  0.1728 -0.6291
 3800ntf    fn418119   1.355   2.941   6.409 -0.4260  0.0646 -0.0444
 3800ntf    fn418120   1.395   2.975   6.207  0.5920  0.6755  0.1689
 3801ntf    cn118121   4.321   1.922   4.025  0.6667  0.0382  0.0540
 3801ntf    sn218122   4.435   1.793   4.085  0.0616 -0.4277  0.2073
 3801ntf    nn318123   4.419   1.684   3.972 -0.5141 -0.6139  0.4635
 3801ntf    sn218124   4.537   1.625   3.887 -0.1504  0.0544  0.4939
 3801ntf    cn118125   4.546   1.745   3.750 -0.3507 -0.3799  0.0941
 3801ntf    fn418126   4.358   1.977   3.910  0.3895 -0.0782 -0.0921
 3801ntf    fn418127   4.196   1.883   4.010  0.4787  0.4641  0.5102
 3801ntf    fn418128   4.320   2.021   4.112 -0.1839  0.1163 -0.0336
 3801ntf    on518129   4.556   1.872   4.082 -0.1177 -0.1645 -0.3463
 3801ntf    on518130   4.381   1.761   4.215 -0.0874 -0.7755  0.0615
 3801ntf    on518131   4.497   1.500   3.827  0.9134  0.2802 -0.7298
 3801ntf    on518132   4.669   1.632   3.943 -0.4189  0.3359  1.0970
 3801ntf    fn418133   4.569   1.871   3.785  0.3054 -0.5246  0.2044
 3801ntf    fn418134   4.632   1.723   3.653 -0.2475 -0.6810  0.2510
 3801ntf    fn418135   4.427   1.750   3.693 -0.1102  0.2158 -0.3656
 3802ntf    cn118136   2.081   0.230   3.778  0.1457  0.1768  0.1253
 3802ntf    sn218137   2.156   0.247   3.614  0.0795 -0.1717  0.0586
 3802ntf    nn318138   2.308   0.230   3.650  0.1840 -0.4399 -0.4876
 3802ntf    sn218139   2.434   0.297   3.584  0.0691  0.0820 -0.1869
 3802ntf    cn118140   2.451   0.456   3.669  0.3241  0.1604 -0.3831
 3802ntf    fn418141   2.117   0.122   3.845  0.0614 -0.0112 -0.1338
 3802ntf    fn418142   2.104   0.335   3.855 -0.0126  0.2518  0.0713
 3802ntf    fn418143   1.949   0.217   3.766  0.1817 -0.0737  0.0076
 3802ntf    on518144   2.118   0.129   3.540  0.1849 -0.3572  0.2962
 3802ntf    on518145   2.104   0.374   3.570  0.3443 -0.0400  0.1229
 3802ntf    on518146   2.425   0.349   3.450  0.3330  0.4950 -0.0431
 3802ntf    on518147   2.554   0.226   3.619 -0.5239 -0.6771  0.3543
 3802ntf    fn418148   2.343   0.531   3.656  0.0307 -0.1819  0.0344
 3802ntf    fn418149   2.487   0.444   3.795 -0.4528  0.1052 -0.1578
 3802ntf    fn418150   2.544   0.532   3.614  0.5409 -0.0676 -0.3283
 3803ntf    cn118151   2.933   3.662   4.647 -0.4896  0.3004 -0.2291
 3803ntf    sn218152   2.967   3.576   4.491  0.1169  0.3750 -0.1409
 3803ntf    nn318153   2.821   3.567   4.435  0.0744  0.3717 -0.0284
 3803ntf    sn218154   2.748   3.682   4.357 -0.3145  0.3372  0.2782
 3803ntf    cn118155   2.611   3.708   4.474 -0.3384 -0.5612  0.4535
 3803ntf    fn418156   2.866   3.774   4.630 -0.1271  0.4949 -0.3961
 3803ntf    fn418157   2.860   3.588   4.729  0.1477 -0.1777 -0.0801
 3803ntf    fn418158   3.041   3.699   4.715 -0.8343  0.5737  0.1768
 3803ntf    on518159   3.061   3.662   4.424  0.2249  0.5901  0.2844
 3803ntf    on518160   3.008   3.441   4.524 -0.0038  0.2632 -0.4491
 3803ntf    on518161   2.677   3.640   4.238 -0.7560  0.3668  0.5292
 3803ntf    on518162   2.815   3.810   4.351  0.0224  0.1404 -0.1938
 3803ntf    fn418163   2.513   3.621   4.458 -0.4516 -0.3779  0.1563
 3803ntf    fn418164   2.662   3.693   4.595  0.2115  0.2103  0.3245
 3803ntf    fn418165   2.569   3.833   4.470 -0.1085 -0.5130 -0.7131
 3804ntf    cn118166   1.769   6.067   5.978 -0.2348  0.1327 -0.2029
 3804ntf    sn218167   1.637   5.942   5.988 -0.1047 -0.0047 -0.2079
 3804ntf    nn318168   1.557   5.972   5.857  0.2021  0.1809 -0.3535
 3804ntf    sn218169   1.467   6.092   5.811 -0.3046 -0.1325 -0.1964
 3804ntf    cn118170   1.568   6.194   5.699 -0.3215 -0.2574 -0.3243
 3804ntf    fn418171   1.856   6.066   6.078 -0.4908  0.7732  0.0336
 3804ntf    fn418172   1.846   6.057   5.871 -0.0766 -0.5368 -0.0315
 3804ntf    fn418173   1.720   6.190   5.983 -0.5152 -0.0101  0.7775
 3804ntf    on518174   1.723   5.826   5.990  0.1406  0.1815  0.3188
 3804ntf    on518175   1.568   5.967   6.112  0.3504  0.2468 -0.0019
 3804ntf    on518176   1.446   6.190   5.914 -0.3114 -0.1363 -0.1940
 3804ntf    on518177   1.351   6.060   5.733 -0.4135  0.5538 -0.3247
 3804ntf    fn418178   1.663   6.262   5.760 -0.6115 -0.1140 -0.0314
 3804ntf    fn418179   1.627   6.134   5.596  0.1744  0.2460 -0.3393
 3804ntf    fn418180   1.492   6.287   5.645 -0.3694 -0.0084  0.1695
 3805ntf    cn118181   5.626   5.954   3.097 -0.6590  0.2839  0.0443
 3805ntf    sn218182   5.645   5.773   3.096 -0.3481  0.3162  0.0088
 3805ntf    nn318183   5.799   5.769   3.064 -0.2567 -0.2570  0.5045
 3805ntf    sn218184   5.911   5.668   3.108  0.4202  0.1332 -0.2897
 3805ntf    cn118185   5.993   5.681   2.946  0.1137  0.5069 -0.4169
 3805ntf    fn418186   5.709   6.024   3.173 -0.0461  0.0250 -0.3737
 3805ntf    fn418187   5.638   5.998   2.973  0.2493 -0.3797 -0.1172
 3805ntf    fn418188   5.506   5.982   3.143 -0.7153  0.3690 -0.1524
 3805ntf    on518189   5.608   5.741   3.231  0.3117  0.2717  0.1850
 3805ntf    on518190   5.563   5.728   2.986 -0.1295  0.3235 -0.1589
 3805ntf    on518191   5.866   5.530   3.107  0.0423  0.2530 -0.1037
 3805ntf    on518192   6.013   5.702   3.203  0.3702 -0.0420 -0.1725
 3805ntf    fn418193   6.074   5.578   2.929 -0.5375 -0.0345 -0.2852
 3805ntf    fn418194   5.908   5.674   2.845 -0.6037 -0.4419  0.2387
 3805ntf    fn418195   6.063   5.792   2.926  0.0523  0.5360 -0.4729
 3806ntf    cn118196   5.681   4.121   4.725  0.2453 -0.3026  0.2589
 3806ntf    sn218197   5.756   4.025   4.590  0.0346  0.1002 -0.1462
 3806ntf    nn318198   5.632   3.936   4.553  0.2123 -0.0173 -0.4616
 3806ntf    sn218199   5.602   3.785   4.582  0.1341  0.1127  0.1449
 3806ntf    cn118200   5.425   3.796   4.544  0.1494  0.0013  0.0380
 3806ntf    fn418201   5.631   4.039   4.815 -0.6359 -0.0532  0.0046
 3806ntf    fn418202   5.771   4.184   4.799 -0.0588 -0.5216  0.8146
 3806ntf    fn418203   5.596   4.215   4.688  0.4632  0.0039  0.5281
 3806ntf    on518204   5.779   4.130   4.493  0.1253  0.0202 -0.2116
 3806ntf    on518205   5.868   3.966   4.658  0.4194  0.5826 -0.3523
 3806ntf    on518206   5.609   3.745   4.720 -0.2832 -0.3967  0.0219
 3806ntf    on518207   5.654   3.690   4.486  0.3431 -0.1808  0.5448
 3806ntf    fn418208   5.406   3.856   4.428 -0.3031  0.0098  0.1150
 3806ntf    fn418209   5.371   3.677   4.526  0.1660 -0.0016  0.0081
 3806ntf    fn418210   5.359   3.864   4.636  0.5915  0.1973  0.2129
 3807ntf    cn118211   0.899   2.649   1.552  0.0538  0.2105 -0.0963
 3807ntf    sn218212   1.015   2.773   1.620  0.1093 -0.0262  0.2448
 3807ntf    nn318213   1.113   2.784   1.498  0.1854 -0.5152  0.2576
 3807ntf    sn218214   1.269   2.776   1.487  0.1900  0.0004 -0.0910
 3807ntf    cn118215   1.299   2.917   1.376 -0.2333  0.1777  0.0194
 3807ntf    fn418216   0.828   2.714   1.461 -0.4561  0.6545  0.6062
 3807ntf    fn418217   0.960   2.550   1.490 -0.8082  0.1807 -0.9018
 3807ntf    fn418218   0.813   2.603   1.641 -0.1630 -0.2381 -0.5408
 3807ntf    on518219   0.933   2.891   1.634 -0.4373 -0.3541 -0.1375
 3807ntf    on518220   1.064   2.709   1.739 -0.3168  0.2793  0.5866
 3807ntf    on518221   1.308   2.661   1.410  0.6524  0.1912 -0.1460
 3807ntf    on518222   1.340   2.815   1.607 -0.2590 -0.1750  0.2339
 3807ntf    fn418223   1.265   2.888   1.252 -0.3267  0.5305 -0.0384
 3807ntf    fn418224   1.232   3.027   1.407 -0.4050  0.0016  0.2770
 3807ntf    fn418225   1.428   2.947   1.379 -0.2746  0.3255  0.4286
 3808ntf    cn118226   4.162   0.522   4.468 -0.3684  0.4584  0.6215
 3808ntf    sn218227   4.063   0.378   4.520 -0.1284  0.0405 -0.0623
 3808ntf    nn318228   4.175   0.275   4.556  0.0435  0.2255 -0.0612
 3808ntf    sn218229   4.233   0.161   4.465 -0.4105  0.0230 -0.0991
 3808ntf    cn118230   4.101   0.037   4.487 -0.5880  0.2535  0.1342
 3808ntf    fn418231   4.240   0.496   4.364 -0.3898  1.0202  0.4668
 3808ntf    fn418232   4.090   0.627   4.435  0.1719  0.6071 -0.1027
 3808ntf    fn418233   4.244   0.552   4.567  0.1977  0.1461  0.2555
 3808ntf    on518234   3.974   0.418   4.626 -0.1246 -0.3349  0.0833
 3808ntf    on518235   3.988   0.348   4.400 -0.2009 -0.5424  0.1306
 3808ntf    on518236   4.342   0.093   4.531 -0.0473  0.7814  0.0959
 3808ntf    on518237   4.241   0.190   4.324  0.4822  0.1375 -0.0325
 3808ntf    fn418238   3.987   0.082   4.440 -0.6197  0.3297  0.2808
 3808ntf    fn418239   4.132  -0.078   4.430 -0.6078  0.0954  0.4414
 3808ntf    fn418240   4.078   0.015   4.616  0.2841  0.2314  0.2954
 3809ntf    cn118241   4.601   3.375   1.498  0.1531  0.8479 -0.1646
 3809ntf    sn218242   4.655   3.411   1.668  0.2094  0.0687 -0.0147
 3809ntf    nn318243   4.811   3.390   1.661  0.1954  0.2301 -0.9413
 3809ntf    sn218244   4.929   3.435   1.753  0.0791 -0.5089 -0.4155
 3809ntf    cn118245   4.971   3.275   1.828  0.1196 -0.2363  0.1449
 3809ntf    fn418246   4.615   3.247   1.466 -0.3537  0.7400  0.0346
 3809ntf    fn418247   4.471   3.397   1.490 -0.1743 -0.6218  0.6452
 3809ntf    fn418248   4.657   3.451   1.405 -0.2202  0.9539 -0.3005
 3809ntf    on518249   4.619   3.550   1.678  0.2644  0.0266  0.8256
 3809ntf    on518250   4.585   3.317   1.752  0.4447 -0.4182 -0.3566
 3809ntf    on518251   4.908   3.520   1.867 -0.0895 -0.4598 -0.4838
 3809ntf    on518252   5.040   3.456   1.663 -0.0792 -0.4650 -0.6013
 3809ntf    fn418253   4.876   3.226   1.906 -0.0672 -0.3724 -0.1648
 3809ntf    fn418254   5.000   3.182   1.739  0.7690  0.1220 -0.0257
 3809ntf    fn418255   5.078   3.286   1.906  0.1079  0.3006  0.0920
 3810ntf    cn118256   2.749   3.474   6.500  0.2059 -0.2546  0.1738
 3810ntf    sn218257   2.624   3.596   6.549  0.2181 -0.1942  0.0535
 3810ntf    nn318258   2.699   3.734   6.549 -0.5414  0.2287 -0.1492
 3810ntf    sn218259   2.709   3.856   6.451 -0.1376  0.2005 -0.1454
 3810ntf    cn118260   2.861   3.825   6.356  0.2005 -0.2601  0.5330
 3810ntf    fn418261   2.857   3.485   6.576  0.2258  0.3199  0.0609
 3810ntf    fn418262   2.716   3.348   6.523  0.3683 -0.3670 -0.2054
 3810ntf    fn418263   2.799   3.482   6.378  0.0485 -0.1235  0.1176
 3810ntf    on518264   2.527   3.585   6.442  0.4228  0.3887 -0.1949
 3810ntf    on518265   2.583   3.558   6.682  0.1252  0.5651  0.2519
 3810ntf    on518266   2.735   3.984   6.514 -0.5445  0.1298  0.1713
 3810ntf    on518267   2.599   3.856   6.358 -0.3430  0.3368  0.0951
 3810ntf    fn418268   2.968   3.810   6.431  0.3124  0.1007  0.4499
 3810ntf    fn418269   2.850   3.721   6.275  0.0774  0.4007 -0.3248
 3810ntf    fn418270   2.885   3.921   6.268  0.6495 -0.3408  0.5656
 3811ntf    cn118271   0.265   6.139   5.295  0.2554  0.2418  0.2220
 3811ntf    sn218272   0.266   5.958   5.307  0.3336  0.2202 -0.0830
 3811ntf    nn318273   0.322   5.919   5.166  0.6685  0.0094  0.1059
 3811ntf    sn218274   0.257   5.856   5.038 -0.2173  0.0900  0.5095
 3811ntf    cn118275   0.329   5.689   5.047 -0.1461  0.0765 -0.2533
 3811ntf    fn418276   0.259   6.203   5.411  0.1145  0.2778  0.1952
 3811ntf    fn418277   0.375   6.182   5.236  0.1570 -0.1135 -0.2224
 3811ntf    fn418278   0.174   6.184   5.210  0.4268 -0.1635 -0.1819
 3811ntf    on518279   0.363   5.938   5.412  0.2798  0.1852 -0.0402
 3811ntf    on518280   0.127   5.928   5.332  0.3310  0.4801  0.2210
 3811ntf    on518281   0.310   5.923   4.922 -0.9294  0.1365  0.2018
 3811ntf    on518282   0.115   5.831   5.046 -0.2900  0.2753 -0.1482
 3811ntf    fn418283   0.297   5.635   5.163  0.0100 -0.0520 -0.2698
 3811ntf    fn418284   0.290   5.598   4.960 -0.0542  0.6400 -0.8967
 3811ntf    fn418285   0.462   5.690   5.044 -0.1349  0.2292  0.2326
 3812ntf    cn118286   0.752   2.548   6.541 -0.1537 -0.4498 -0.6591
 3812ntf    sn218287   0.932   2.547   6.560 -0.2083  0.1798 -0.1016
 3812ntf    nn318288   0.974   2.604   6.420  0.7384  0.5541  0.3229
 3812ntf    sn218289   1.006   2.519   6.292 -0.2813  0.3586  0.1872
 3812ntf    cn118290   0.942   2.638   6.170 -0.5640 -0.1077 -0.1191
 3812ntf    fn418291   0.685   2.524   6.652  0.0042 -0.4504 -0.5648
 3812ntf    fn418292   0.710   2.668   6.503 -0.0796 -0.2147 -0.0107
 3812ntf    fn418293   0.712   2.464   6.447 -0.0806 -0.2590 -0.8624
 3812ntf    on518294   0.953   2.649   6.661 -0.5515 -0.1614  0.3166
 3812ntf    on518295   0.971   2.412   6.591  0.3272  0.3838  0.1278
 3812ntf    on518296   0.920   2.408   6.261  0.0515  0.0021  0.5243
 3812ntf    on518297   1.147   2.502   6.269 -0.4420 -0.3607 -0.2640
 3812ntf    fn418298   0.827   2.684   6.218 -0.2184  0.9413 -0.2790
 3812ntf    fn418299   1.019   2.744   6.154 -0.5130 -0.1101  0.1003
 3812ntf    fn418300   0.910   2.588   6.052  0.6147 -0.4820 -0.2891
 3813ntf    cn118301   5.365   0.984   1.474  0.3294 -0.2443  0.0579
 3813ntf    sn218302   5.525   1.011   1.557  0.3284 -0.1122  0.0175
 3813ntf    nn318303   5.481   1.107   1.673  0.7888  0.0648  0.0471
 3813ntf    sn218304   5.453   1.262   1.668  0.0231 -0.0580  0.3383
 3813ntf    cn118305   5.280   1.255   1.723 -0.1059 -0.4197 -0.1030
 3813ntf    fn418306   5.281   0.915   1.549 -0.2792 -0.0901 -0.4708
 3813ntf    fn418307   5.318   1.103   1.442  0.4973 -0.1117  0.3019
 3813ntf    fn418308   5.381   0.920   1.359 -0.2681 -0.3406  0.0268
 3813ntf    on518309   5.558   0.882   1.613  0.1907 -0.0076  0.3407
 3813ntf    on518310   5.609   1.067   1.454  0.2829 -0.1423 -0.0364
 3813ntf    on518311   5.440   1.319   1.536 -0.2295 -1.1095 -0.1037
 3813ntf    on518312   5.523   1.344   1.764  0.1305  0.8572 -0.5087
 3813ntf    fn418313   5.275   1.180   1.831  0.0554  0.2681  0.3907
 3813ntf    fn418314   5.225   1.372   1.752  0.0178 -0.3051 -0.3262
 3813ntf    fn418315   5.206   1.186   1.638 -0.1826 -0.3419 -0.0999
 3814ntf    cn118316   4.372   5.845   1.909  0.0154 -0.1664 -0.3194
 3814ntf    sn218317   4.412   6.022   1.896  0.2712 -0.1964  0.0271
 3814ntf    nn318318   4.324   6.064   1.773  0.3591 -0.5240 -0.1489
 3814ntf    sn218319   4.324   6.037   1.618 -0.6364  0.1355 -0.2745
 3814ntf    cn118320   4.404   6.191   1.562 -0.4005 -0.0514 -0.4512
 3814ntf    fn418321   4.245   5.812   1.928  0.1849 -0.6822 -0.0629
 3814ntf    fn418322   4.417   5.776   1.806 -0.0758 -0.3569 -0.2319
 3814ntf    fn418323   4.432   5.793   2.015 -0.5521  0.0968  0.1440
 3814ntf    on518324   4.364   6.077   2.020 -0.7538  0.5120 -0.6655
 3814ntf    on518325   4.555   6.030   1.878  0.2730 -0.2478  0.0127
 3814ntf    on518326   4.194   6.050   1.557 -0.6432 -0.0982 -0.3089
 3814ntf    on518327   4.413   5.938   1.564 -0.1380  0.0690  0.6526
 3814ntf    fn418328   4.512   6.209   1.635 -0.5227  0.3211 -0.3595
 3814ntf    fn418329   4.435   6.188   1.433 -0.1153  0.6995 -0.4022
 3814ntf    fn418330   4.331   6.300   1.579 -0.3612  0.0114 -0.6704
 3815ntf    cn118331   4.083   6.510   0.840  0.2658  0.1761  0.1690
 3815ntf    sn218332   4.256   6.519   0.786  0.3553 -0.0870  0.4084
 3815ntf    nn318333   4.304   6.656   0.845 -0.0799  0.1154  0.2973
 3815ntf    sn218334   4.447   6.686   0.902  0.0482 -0.1247  0.1033
 3815ntf    cn118335   4.431   6.867   0.915 -0.0925 -0.1285 -0.0204
 3815ntf    fn418336   4.074   6.551   0.965 -0.1066 -0.3484  0.3174
 3815ntf    fn418337   3.999   6.584   0.768  0.3684  0.3047  0.1813
 3815ntf    fn418338   4.029   6.389   0.837  0.2059  0.2116 -0.2329
 3815ntf    on518339   4.311   6.404   0.852  0.2111 -0.3130  0.1367
 3815ntf    on518340   4.240   6.517   0.642 -0.7935 -0.7350  0.5315
 3815ntf    on518341   4.561   6.666   0.816 -0.4017  0.3294 -0.6056
 3815ntf    on518342   4.469   6.645   1.038  0.1978 -0.4467 -0.0186
 3815ntf    fn418343   4.404   6.930   0.801 -0.8719  0.1477  0.3075
 3815ntf    fn418344   4.332   6.904   0.995  0.0074 -0.1512  0.1131
 3815ntf    fn418345   4.541   6.916   0.968 -0.1221 -0.2213  0.1277
 3816ntf    cn118346   1.326   1.928   5.442  0.2147 -0.4643 -0.3183
 3816ntf    sn218347   1.342   2.078   5.340  0.4788 -0.2451  0.0448
 3816ntf    nn318348   1.398   2.004   5.214 -0.7094 -0.0934 -0.5828
 3816ntf    sn218349   1.544   1.992   5.156 -0.3553  0.0355  0.2684
 3816ntf    cn118350   1.538   2.127   5.034  0.1125  0.0751  0.2889
 3816ntf    fn418351   1.236   1.846   5.391 -0.2660 -0.5691  0.6877
 3816ntf    fn418352   1.443   1.868   5.455  0.4487  0.0938  0.2260
 3816ntf    fn418353   1.300   1.966   5.566  0.5036 -0.3487 -0.2929
 3816ntf    on518354   1.206   2.120   5.317  0.5292 -0.1114 -0.0133
 3816ntf    on518355   1.429   2.160   5.422  0.3909  0.1571 -0.2617
 3816ntf    on518356   1.564   1.867   5.086  0.3463  0.2858  0.0127
 3816ntf    on518357   1.650   2.026   5.247  0.3139 -0.6356 -0.2529
 3816ntf    fn418358   1.516   2.248   5.083 -0.4425  0.1454 -0.1278
 3816ntf    fn418359   1.650   2.138   4.965  0.1661 -0.5652  0.2670
 3816ntf    fn418360   1.444   2.100   4.945  0.0852 -0.0111  0.3438
 3817ntf    cn118361   0.801   3.968   0.649 -0.0298 -0.1779  0.1748
 3817ntf    sn218362   0.802   4.073   0.500  0.0766 -0.3929  0.0237
 3817ntf    nn318363   0.959   4.071   0.486  0.1133 -0.2797  0.3996
 3817ntf    sn218364   1.054   4.186   0.533  0.0356 -0.0499 -0.0052
 3817ntf    cn118365   1.166   4.097   0.644  0.0850 -0.4153 -0.3471
 3817ntf    fn418366   0.862   4.024   0.752  0.1241 -0.4572  0.2372
 3817ntf    fn418367   0.675   3.939   0.681 -0.2553 -0.0958 -0.6281
 3817ntf    fn418368   0.859   3.852   0.623  0.3907 -0.0907  0.7014
 3817ntf    on518369   0.734   3.987   0.407 -0.5243 -0.1925  0.2776
 3817ntf    on518370   0.730   4.191   0.540  0.0087 -0.3809 -0.1361
 3817ntf    on518371   1.009   4.297   0.614 -0.1466 -0.0464 -0.1105
 3817ntf    on518372   1.149   4.221   0.431  0.0530  0.8543  0.3081
 3817ntf    fn418373   1.237   4.178   0.722 -0.2529 -0.1400 -0.3260
 3817ntf    fn418374   1.100   4.018   0.728 -0.5726  0.7356  0.2388
 3817ntf    fn418375   1.257   4.020   0.586 -0.2571 -0.1589 -1.2411
 3818ntf    cn118376   3.303   1.441   0.795 -0.2809  0.3968  0.5035
 3818ntf    sn218377   3.157   1.535   0.850 -0.2593  0.7295 -0.0075
 3818ntf    nn318378   3.197   1.547   1.001  0.1926 -0.3855 -0.0329
 3818ntf    sn218379   3.162   1.446   1.116  0.2076 -0.0111  0.3035
 3818ntf    cn118380   3.328   1.431   1.187  0.2901 -0.0948  0.0947
 3818ntf    fn418381   3.288   1.423   0.665  0.0354 -0.4619  0.5813
 3818ntf    fn418382   3.418   1.505   0.806 -0.0386  0.0577 -0.0504
 3818ntf    fn418383   3.322   1.321   0.848  0.4572  0.3343  0.1115
 3818ntf    on518384   3.163   1.666   0.790  0.3935  0.4979 -0.4570
 3818ntf    on518385   3.040   1.454   0.828  0.1544  0.1676 -0.1543
 3818ntf    on518386   3.131   1.308   1.085 -0.3534  0.0700  0.4939
 3818ntf    on518387   3.095   1.514   1.224 -0.0406  0.3482 -0.0748
 3818ntf    fn418388   3.357   1.320   1.253  0.1817  0.1458  0.5544
 3818ntf    fn418389   3.428   1.458   1.104  0.2040  0.2111  0.0875
 3818ntf    fn418390   3.345   1.534   1.269 -0.2659  0.3597 -0.3571
 3819ntf    cn118391   1.709   3.075   2.395 -0.2816 -0.2020  0.0609
 3819ntf    sn218392   1.660   3.092   2.569  0.2126 -0.1241  0.1931
 3819ntf    nn318393   1.526   3.169   2.543  0.1015 -0.2595  0.3670
 3819ntf    sn218394   1.383   3.107   2.525 -0.0253  0.2139 -0.2670
 3819ntf    cn118395   1.273   3.251   2.510  0.0208  0.2929  0.1585
 3819ntf    fn418396   1.826   3.014   2.380 -0.2779  0.0623 -1.0976
 3819ntf    fn418397   1.619   3.014   2.320 -0.0299 -0.0649 -0.3585
 3819ntf    fn418398   1.731   3.190   2.333 -0.1533 -0.3776 -0.2272
 3819ntf    on518399   1.654   2.961   2.628  0.5167 -0.5342 -0.6682
 3819ntf    on518400   1.761   3.182   2.619  0.1104  0.5929 -0.8525
 3819ntf    on518401   1.334   3.039   2.642  0.2368  0.0123 -0.2751
 3819ntf    on518402   1.356   3.036   2.402  0.2018 -0.5638  0.1292
 3819ntf    fn418403   1.274   3.336   2.612 -0.3113  0.1536  0.2795
 3819ntf    fn418404   1.301   3.324   2.403 -0.5243  0.4054  0.0869
 3819ntf    fn418405   1.148   3.210   2.498  0.1888 -0.1231 -0.1628
 3820ntf    cn118406   0.215   2.442   4.999  0.0507 -0.3182 -0.2298
 3820ntf    sn218407   0.116   2.578   4.930  0.0239 -0.1684  0.1009
 3820ntf    nn318408   0.219   2.630   4.824  0.2087 -0.4379  0.1472
 3820ntf    sn218409   0.238   2.584   4.675  0.0227  0.1506 -0.0602
 3820ntf    cn118410   0.180   2.736   4.594  0.1356  0.1667 -0.1112
 3820ntf    fn418411   0.201   2.321   4.948  0.4737 -0.4191 -0.1115
 3820ntf    fn418412   0.343   2.477   4.989  0.0968 -0.4766 -0.1975
 3820ntf    fn418413   0.202   2.428   5.130  0.1690  0.0692 -0.1724
 3820ntf    on518414  -0.000   2.509   4.880  0.4997 -0.4685 -0.5970
 3820ntf    on518415   0.084   2.671   5.035 -0.3518 -0.0618 -0.1070
 3820ntf    on518416   0.144   2.489   4.621 -0.1555  0.2123  0.1408
 3820ntf    on518417   0.374   2.570   4.629 -0.1049 -0.5800 -0.2191
 3820ntf    fn418418   0.253   2.843   4.620  0.1454  0.0545  0.3271
 3820ntf    fn418419   0.184   2.727   4.462  0.2054  0.2291 -0.1136
 3820ntf    fn418420   0.057   2.758   4.638  0.1337 -0.1045  0.0197
 3821ntf    cn118421   7.008   4.443   4.317  0.0084 -0.1244 -0.4126
 3821ntf    sn218422   7.026   4.615   4.375 -0.1268 -0.2801  0.0927
 3821ntf    nn318423   7.041   4.597   4.531 -0.1020 -0.0549  0.1156
 3821ntf    sn218424   7.014   4.697   4.649  0.0291 -0.0884  0.1731
 3821ntf    cn118425   6.868   4.607   4.711 -0.1583  0.2422  0.2094
 3821ntf    fn418426   7.081   4.359   4.388 -0.3959 -0.1846 -0.0623
 3821ntf    fn418427   6.884   4.397   4.324 -0.1025  0.2741  0.3506
 3821ntf    fn418428   7.041   4.422   4.191  0.3535 -0.4550 -0.2674
 3821ntf    on518429   7.143   4.656   4.302  0.1456 -0.6547  0.3130
 3821ntf    on518430   6.903   4.677   4.334 -0.2355 -0.7886 -0.3644
 3821ntf    on518431   6.975   4.831   4.615  0.4042 -0.0776 -0.2179
 3821ntf    on518432   7.100   4.690   4.765  0.0821 -0.9185  0.0933
 3821ntf    fn418433   6.868   4.478   4.681 -0.5215  0.2978 -0.0496
 3821ntf    fn418434   6.856   4.617   4.842 -0.3553 -0.0157  0.2109
 3821ntf    fn418435   6.760   4.665   4.660 -0.1610  0.4382  0.4387
 3822ntf    cn118436   2.158   3.682   4.520 -0.0850  0.0728 -0.0244
 3822ntf    sn218437   2.089   3.820   4.617  0.0879  0.0353  0.1521
 3822ntf    nn318438   2.153   3.946   4.549  0.1205 -0.0447  0.0327
 3822ntf    sn218439   2.100   4.023   4.423  0.1965 -0.1992 -0.0936
 3822ntf    cn118440   2.224   4.157   4.421  0.2348 -0.2337 -0.0545
 3822ntf    fn418441   2.144   3.565   4.579 -0.3246 -0.1749 -0.5688
 3822ntf    fn418442   2.108   3.669   4.398  0.4668  0.0164 -0.2519
 3822ntf    fn418443   2.290   3.695   4.515 -0.0401 -0.4705 -0.3321
 3822ntf    on518444   1.948   3.814   4.590  0.1757  0.0151 -0.3096
 3822ntf    on518445   2.139   3.793   4.749  0.2643 -0.8785 -0.0928
 3822ntf    on518446   1.989   4.112   4.447  0.0442 -0.3706 -0.1620
 3822ntf    on518447   2.116   3.960   4.295 -0.0848 -0.3079 -0.0744
 3822ntf    fn418448   2.233   4.215   4.302 -0.2830  0.6374  0.3144
 3822ntf    fn418449   2.185   4.250   4.507 -0.1064 -0.2874 -0.1503
 3822ntf    fn418450   2.344   4.112   4.452  0.1683 -0.2672  0.1609
 3823ntf    cn118451   5.640   2.091   3.255 -0.2319 -0.0231  0.0030
 3823ntf    sn218452   5.539   1.970   3.345 -0.0967 -0.1685 -0.0397
 3823ntf    nn318453   5.650   1.909   3.438 -0.2504 -0.2463  0.0937
 3823ntf    sn218454   5.688   1.958   3.582  0.2296  0.1375 -0.1613
 3823ntf    cn118455   5.580   1.848   3.678  0.2276  0.2190 -0.0682
 3823ntf    fn418456   5.725   2.037   3.170 -0.0151  0.1678  0.0958
 3823ntf    fn418457   5.572   2.178   3.184 -0.3894  0.2144  0.4381
 3823ntf    fn418458   5.715   2.167   3.334 -0.2573 -0.2804  0.2743
 3823ntf    on518459   5.427   2.038   3.406  0.2383  0.4009 -0.0609
 3823ntf    on518460   5.498   1.877   3.243  0.2378 -0.5701  0.1902
 3823ntf    on518461   5.640   2.087   3.627 -0.1937 -0.2573  0.5283
 3823ntf    on518462   5.823   1.919   3.617  0.4347  0.3430 -0.7135
 3823ntf    fn418463   5.627   1.724   3.683 -0.2475  0.0197 -0.4432
 3823ntf    fn418464   5.559   1.894   3.800  0.0222  0.1518 -0.0787
 3823ntf    fn418465   5.457   1.840   3.630  0.4306 -0.5117 -0.4791
 3824ntf    cn118466   7.186   2.679   4.125  0.0635  0.3466  0.2045
 3824ntf    sn218467   7.087   2.820   4.183 -0.1419  0.3357 -0.1144
 3824ntf    nn318468   7.150   2.933   4.095 -0.4811  0.5393 -0.0973
 3824ntf    sn218469   7.276   3.022   4.127 -0.1773  0.0726  0.0195
 3824ntf    cn118470   7.196   3.174   4.186  0.0324  0.2357 -0.1127
 3824ntf    fn418471   7.150   2.574   4.196 -0.4702  0.1638 -0.3196
 3824ntf    fn418472   7.184   2.638   3.999  0.4937  0.5380  0.1325
 3824ntf    fn418473   7.314   2.696   4.152  0.1489  0.1270 -0.0543
 3824ntf    on518474   6.957   2.776   4.138 -0.3412  0.1654  0.6104
 3824ntf    on518475   7.099   2.817   4.327 -0.5392  0.2152 -0.0827
 3824ntf    on518476   7.344   3.067   4.008  0.3291 -0.5115  0.0867
 3824ntf    on518477   7.354   2.986   4.242  0.2891  0.0713 -0.2951
 3824ntf    fn418478   7.283   3.272   4.204 -0.1448  0.2760  0.5404
 3824ntf    fn418479   7.107   3.225   4.102 -0.0636  0.3045  0.0305
 3824ntf    fn418480   7.131   3.156   4.300 -0.1612  0.5059 -0.1778
 3825ntf    cn118481   6.766   5.714   6.688  0.2880 -0.3895  0.2633
 3825ntf    sn218482   6.803   5.558   6.602  0.1514 -0.1904 -0.1580
 3825ntf    nn318483   6.678   5.468   6.631  0.2299 -0.5071 -0.7897
 3825ntf    sn218484   6.551   5.447   6.541 -0.2966  0.0131 -0.1783
 3825ntf    cn118485   6.598   5.317   6.423 -0.1480  0.2151 -0.3456
 3825ntf    fn418486   6.646   5.751   6.649  0.4924 -0.3085 -0.2970
 3825ntf    fn418487   6.769   5.705   6.820  0.1376  0.1336  0.3042
 3825ntf    fn418488   6.849   5.813   6.657  0.2406 -0.5590 -0.4163
 3825ntf    on518489   6.824   5.590   6.463  0.1272  1.2119  0.1472
 3825ntf    on518490   6.919   5.504   6.669 -0.3005 -0.5089  0.3686
 3825ntf    on518491   6.519   5.558   6.454 -0.6735  0.0575  0.0175
 3825ntf    on518492   6.440   5.386   6.610 -0.3110  0.0976 -0.1273
 3825ntf    fn418493   6.514   5.306   6.322 -0.0848 -0.4509 -0.3353
 3825ntf    fn418494   6.716   5.337   6.368  0.1009  0.7334  0.3610
 3825ntf    fn418495   6.600   5.193   6.470 -0.4766  0.1060 -0.6168
 3826ntf    cn118496   2.679   6.971   7.088 -0.1308 -0.0805 -0.6418
 3826ntf    sn218497   2.515   6.903   7.126 -0.1229  0.1164 -0.2591
 3826ntf    nn318498   2.552   6.787   7.225  0.0509  0.2802 -0.1304
 3826ntf    sn218499   2.558   6.782   7.382  0.1178  0.0134 -0.1401
 3826ntf    cn118500   2.718   6.697   7.395  0.2605  0.3128  0.0789
 3826ntf    fn418501   2.757   6.971   7.195 -0.4187  0.2057 -0.4300
 3826ntf    fn418502   2.741   6.899   6.995  0.6121  0.8251 -0.8668
 3826ntf    fn418503   2.672   7.096   7.047 -0.6196  0.0527 -0.1533
 3826ntf    on518504   2.451   7.020   7.181  0.2217  0.1166  0.1474
 3826ntf    on518505   2.459   6.850   7.004 -0.0336  0.0171 -0.2575
 3826ntf    on518506   2.462   6.693   7.443 -0.5080  0.7642 -0.0040
 3826ntf    on518507   2.579   6.911   7.442  0.0308  0.0647 -0.2192
 3826ntf    fn418508   2.753   6.661   7.517  0.0467  0.1716  0.0998
 3826ntf    fn418509   2.721   6.592   7.315  0.2511  0.2178  0.2027
 3826ntf    fn418510   2.816   6.775   7.353  0.6601 -0.0811  0.2772
 3827ntf    cn118511   4.568   6.476   5.046  0.1591 -0.0549  0.1405
 3827ntf    sn218512   4.401   6.413   5.011  0.1352  0.1387 -0.0977
 3827ntf    nn318513   4.362   6.499   4.885  0.7821  0.4010 -0.1190
 3827ntf    sn218514   4.226   6.569   4.850  0.4304 -0.1349  0.1626
 3827ntf    cn118515   4.223   6.567   4.668 -0.2795 -0.1648  0.1749
 3827ntf    fn418516   4.636   6.401   5.131  0.6368 -0.0852 -0.2615
 3827ntf    fn418517   4.645   6.477   4.938 -0.1534 -0.8681 -0.1026
 3827ntf    fn418518   4.568   6.595   5.104 -0.5499 -0.1794  0.4054
 3827ntf    on518519   4.421   6.274   4.978 -0.0850 -0.0980  0.7383
 3827ntf    on518520   4.334   6.445   5.134 -0.1821 -0.2576 -0.1646
 3827ntf    on518521   4.223   6.711   4.876  0.0852 -0.1352  0.1264
 3827ntf    on518522   4.112   6.499   4.903  0.4682 -0.1571  0.2142
 3827ntf    fn418523   4.342   6.587   4.613 -0.2572  0.0839  0.3123
 3827ntf    fn418524   4.187   6.452   4.613  0.4466 -0.4650  0.3086
 3827ntf    fn418525   4.148   6.659   4.610  0.1975  0.1768  0.0992
 3828ntf    cn118526   3.858   2.666   6.374  0.3239 -0.4401  0.1030
 3828ntf    sn218527   3.944   2.673   6.534  0.4703  0.1225  0.0011
 3828ntf    nn318528   3.913   2.825   6.561  0.2912  0.1837 -0.5296
 3828ntf    sn218529   4.012   2.945   6.583  0.2186  0.1449  0.0223
 3828ntf    cn118530   4.076   2.978   6.416 -0.1331  0.1380 -0.1155
 3828ntf    fn418531   3.866   2.543   6.326  0.6641 -0.0967 -0.7425
 3828ntf    fn418532   3.729   2.695   6.381  0.4285  0.0908 -0.1278
 3828ntf    fn418533   3.911   2.745   6.282 -0.3524  0.4837  0.4900
 3828ntf    on518534   3.869   2.593   6.628  0.0683  0.0993 -0.3346
 3828ntf    on518535   4.083   2.642   6.512  0.5029  0.8467 -0.9200
 3828ntf    on518536   4.130   2.920   6.662  0.1415 -0.6389 -0.1026
 3828ntf    on518537   3.938   3.066   6.611 -0.0588  0.0080 -0.1102
 3828ntf    fn418538   4.189   3.048   6.410 -0.2058  0.2343 -0.4008
 3828ntf    fn418539   4.101   2.864   6.353  0.3566  0.0707  0.1955
 3828ntf    fn418540   3.980   3.042   6.352 -0.0616  0.0321 -0.3282
 3829ntf    cn118541   3.921   5.077   7.156  0.1306  0.0886  0.0918
 3829ntf    sn218542   3.781   5.180   7.212 -0.0952 -0.1524 -0.0247
 3829ntf    nn318543   3.753   5.115   7.352  0.0336 -0.3524 -0.0914
 3829ntf    sn218544   3.838   5.133   7.483 -0.1002  0.0442 -0.0579
 3829ntf    cn118545   3.756   5.259   7.586  0.1146 -0.1848  0.3960
 3829ntf    fn418546   4.041   5.114   7.197  0.0864  0.1295  0.1854
 3829ntf    fn418547   3.904   4.948   7.179  0.7153  0.1104  0.6646
 3829ntf    fn418548   3.932   5.082   7.024  0.5339 -0.2014  0.1139
 3829ntf    on518549   3.833   5.314   7.222 -0.4496 -0.0194  0.0255
 3829ntf    on518550   3.683   5.148   7.111  0.5818 -0.2486 -0.6653
 3829ntf    on518551   3.971   5.185   7.466 -0.2411  0.3839 -0.1242
 3829ntf    on518552   3.833   5.013   7.564 -0.1718  0.2145  0.1921
 3829ntf    fn418553   3.741   5.370   7.517  0.2984 -0.2112  0.3117
 3829ntf    fn418554   3.632   5.227   7.618  0.0352 -0.0687  0.2030
 3829ntf    fn418555   3.831   5.276   7.694  0.4260 -0.3301  0.2068
 3830ntf    cn118556   0.341   3.143   3.428  0.1043  0.0588  0.1350
 3830ntf    sn218557   0.167   3.151   3.480 -0.0140 -0.1592 -0.2159
 3830ntf    nn318558   0.093   3.099   3.353 -0.1663  0.5309 -0.4125
 3830ntf    sn218559  -0.036   3.150   3.279 -0.3047  0.1057 -0.4639
 3830ntf    cn118560   0.004   3.114   3.105  0.3687 -0.1157 -0.2637
 3830ntf    fn418561   0.359   3.216   3.319 -0.1487 -0.5411 -0.3139
 3830ntf    fn418562   0.434   3.177   3.515  0.4835 -0.0026 -0.2386
 3830ntf    fn418563   0.375   3.018   3.398 -0.3220 -0.1411  0.4779
 3830ntf    on518564   0.160   3.061   3.593 -0.7581  0.0134 -0.1227
 3830ntf    on518565   0.142   3.291   3.504  0.0585 -0.2016  0.1207
 3830ntf    on518566  -0.061   3.292   3.279  0.4534  0.2386  0.1388
 3830ntf    on518567  -0.149   3.061   3.298 -0.4710  0.5367  0.6348
 3830ntf    fn418568  -0.095   3.149   3.025  0.2185 -0.1635 -0.0992
 3830ntf    fn418569   0.112   3.184   3.073  0.3079  0.3199  0.4429
 3830ntf    fn418570   0.033   2.987   3.082 -0.4760 -0.2651 -0.5302
 3831ntf    cn118571   0.898   5.219   5.565  0.2072 -0.3889 -0.0963
 3831ntf    sn218572   0.983   5.143   5.424  0.1882 -0.2780 -0.1676
 3831ntf    nn318573   0.907   5.214   5.306  0.3756  0.0265 -0.1054
 3831ntf    sn218574   0.808   5.152   5.202  0.2701  0.5279 -0.3060
 3831ntf    cn118575   0.868   5.225   5.046  0.0927  0.1795 -0.5392
 3831ntf    fn418576   0.769   5.188   5.574  0.2022 -0.1130  0.9768
 3831ntf    fn418577   0.951   5.177   5.679 -0.1647 -0.4261  0.0671
 3831ntf    fn418578   0.910   5.349   5.580  0.1417 -0.4029  0.0788
 3831ntf    on518579   1.119   5.191   5.426  0.0839  0.0285 -0.3053
 3831ntf    on518580   0.961   5.001   5.434 -0.7552 -0.1341 -0.1432
 3831ntf    on518581   0.673   5.201   5.207 -0.0446 -0.3247 -0.2810
 3831ntf    on518582   0.816   5.013   5.164 -0.0765  0.3822  0.1531
 3831ntf    fn418583   0.855   5.357   5.042  0.2789  0.2194  0.0534
 3831ntf    fn418584   0.998   5.201   5.035 -0.0589 -0.7144 -0.4725
 3831ntf    fn418585   0.810   5.172   4.939  0.1578 -0.4030 -0.2910
 3832ntf    cn118586   5.341   4.396   2.619  0.1847  0.1077  0.1155
 3832ntf    sn218587   5.478   4.507   2.659  0.0438  0.3471 -0.0646
 3832ntf    nn318588   5.514   4.558   2.515  0.2245  0.6211  0.0758
 3832ntf    sn218589   5.449   4.680   2.439 -0.2212  0.3075 -0.0533
 3832ntf    cn118590   5.389   4.592   2.292  0.0644 -0.2298  0.1470
 3832ntf    fn418591   5.288   4.338   2.726  0.1929 -0.4527 -0.1775
 3832ntf    fn418592   5.247   4.464   2.554  0.1276 -0.1433 -0.0686
 3832ntf    fn418593   5.390   4.298   2.544 -0.6490 -0.2467  0.0129
 3832ntf    on518594   5.420   4.598   2.754 -0.2151 -0.1361  0.2405
 3832ntf    on518595   5.587   4.423   2.702 -0.4367 -0.2359  0.0084
 3832ntf    on518596   5.548   4.773   2.391 -0.1058  0.0620 -0.2918
 3832ntf    on518597   5.333   4.744   2.495 -0.1491  0.2682  0.1431
 3832ntf    fn418598   5.309   4.494   2.331 -0.2689  0.0794  0.2410
 3832ntf    fn418599   5.317   4.674   2.217  0.1185 -0.3565 -0.0445
 3832ntf    fn418600   5.480   4.543   2.210 -0.1624  0.5278 -0.5670
 3833ntf    cn118601   1.642   6.631   0.878  0.1958 -0.3423  0.1140
 3833ntf    sn218602   1.788   6.656   0.984  0.2924  0.1630 -0.1354
 3833ntf    nn318603   1.759   6.797   1.048 -0.2799 -0.0018 -0.0329
 3833ntf    sn218604   1.839   6.930   1.029 -0.0884 -0.0451  0.4520
 3833ntf    cn118605   1.767   6.977   0.869 -0.0758 -0.4184  0.3355
 3833ntf    fn418606   1.641   6.712   0.773  0.1968 -0.4730  0.0122
 3833ntf    fn418607   1.632   6.509   0.828  0.5445 -0.0451 -0.7098
 3833ntf    fn418608   1.528   6.662   0.937  0.4497  0.1814  0.3390
 3833ntf    on518609   1.777   6.545   1.074 -0.2654  0.0021 -0.3967
 3833ntf    on518610   1.893   6.643   0.887  0.3075 -0.3628 -0.0470
 3833ntf    on518611   1.981   6.922   1.003 -0.2236 -0.3478 -0.2122
 3833ntf    on518612   1.795   7.042   1.108  0.1328  0.1864  0.2467
 3833ntf    fn418613   1.645   7.022   0.892  0.2520  0.9042 -0.4194
 3833ntf    fn418614   1.838   7.070   0.807 -0.3671 -0.3993  0.0282
 3833ntf    fn418615   1.765   6.870   0.791 -0.1631 -0.3962  0.3074
 3834ntf    cn118616   4.288   7.144   7.069  0.2258 -0.2427  0.5107
 3834ntf    sn218617   4.398   7.010   7.123  0.3883 -0.3204 -0.0061
 3834ntf    nn318618   4.535   7.085   7.140  0.2857 -0.0448 -0.3534
 3834ntf    sn218619   4.631   7.072   7.264 -0.0082 -0.2826 -0.1466
 3834ntf    cn118620   4.788   7.041   7.177 -0.0244 -0.6474 -0.0439
 3834ntf    fn418621   4.163   7.103   7.054  0.1813  0.1785 -0.3819
 3834ntf    fn418622   4.275   7.246   7.152 -0.0879  0.2217 -0.0948
 3834ntf    fn418623   4.322   7.201   6.954 -0.2234  0.1982  0.5903
 3834ntf    on518624   4.325   6.967   7.239 -0.2485  0.0355 -0.2672
 3834ntf    on518625   4.404   6.919   7.011  0.6364 -0.1284 -0.1510
 3834ntf    on518626   4.619   6.959   7.353  0.0198  0.2420  0.5299
 3834ntf    on518627   4.656   7.201   7.324  0.1874 -0.2038 -0.3923
 3834ntf    fn418628   4.780   6.924   7.116 -0.5237 -0.4802 -0.2975
 3834ntf    fn418629   4.811   7.129   7.082  0.5563 -0.1997  0.5046
 3834ntf    fn418630   4.890   7.032   7.262 -0.1357 -0.4440  0.1099
 3835ntf    cn118631   1.746   1.054   0.053 -0.1556 -0.2431 -0.2994
 3835ntf    sn218632   1.863   0.956  -0.044 -0.2645 -0.3347 -0.3383
 3835ntf    nn318633   1.829   0.808  -0.005 -0.2239 -0.0652  0.7389
 3835ntf    sn218634   1.685   0.745  -0.012 -0.0592 -0.4104  0.4790
 3835ntf    cn118635   1.733   0.595  -0.105  0.5211  0.3182 -0.4178
 3835ntf    fn418636   1.618   1.047   0.017 -0.1489  0.3647 -0.4585
 3835ntf    fn418637   1.743   1.014   0.179 -0.2585  0.0961 -0.1917
 3835ntf    fn418638   1.777   1.183   0.059 -0.2467 -0.2238 -0.2294
 3835ntf    on518639   1.844   0.993  -0.182  0.2490  0.4766 -0.2001
 3835ntf    on518640   1.986   1.001   0.016 -0.2535 -0.6223 -0.1419
 3835ntf    on518641   1.587   0.808  -0.098  0.0718 -0.4825  0.2747
 3835ntf    on518642   1.644   0.693   0.116 -0.0224  0.0617  0.6830
 3835ntf    fn418643   1.751   0.619  -0.234 -0.3967  0.5340 -0.5174
 3835ntf    fn418644   1.846   0.551  -0.054  0.0445 -0.0420  0.3512
 3835ntf    fn418645   1.646   0.496  -0.097  0.2358  0.5589 -0.4893
 3836ntf    cn118646   1.479   4.722   1.733 -0.0157  0.0417  0.1252
 3836ntf    sn218647   1.377   4.842   1.641  0.0070 -0.0784 -0.0565
 3836ntf    nn318648   1.357   4.764   1.506  0.5315 -0.0923 -0.1287
 3836ntf    sn218649   1.247   4.656   1.479  0.1069  0.2464  0.2328
 3836ntf    cn118650   1.129   4.766   1.395  0.1503 -0.0229 -0.1827
 3836ntf    fn418651   1.583   4.680   1.665  0.0067 -0.3132  0.3805
 3836ntf    fn418652   1.519   4.773   1.849  0.0757  0.0062  0.1089
 3836ntf    fn418653   1.410   4.611   1.753 -0.3793  0.2964  0.3107
 3836ntf    on518654   1.257   4.859   1.717 -0.0897  0.0848 -0.2450
 3836ntf    on518655   1.455   4.963   1.630  0.1741 -0.1745  0.0625
 3836ntf    on518656   1.179   4.595   1.590  0.1407  0.2707  0.2668
 3836ntf    on518657   1.296   4.564   1.379  0.0627  0.1061  0.3396
 3836ntf    fn418658   1.075   4.847   1.484  0.4620 -0.0598  0.0423
 3836ntf    fn418659   1.189   4.847   1.308 -0.3776  0.2599 -0.2896
 3836ntf    fn418660   1.035   4.701   1.328 -0.0333 -0.0656  0.1190
 3837ntf    cn118661   0.200   0.688   4.019  0.0773 -0.2739  0.3848
 3837ntf    sn218662   0.279   0.537   4.081  0.0101 -0.4991 -0.0790
 3837ntf    nn318663   0.426   0.584   4.110 -0.0266 -0.4346  0.0006
 3837ntf    sn218664   0.504   0.576   4.245  0.1547 -0.2236 -0.0909
 3837ntf    cn118665   0.526   0.396   4.264  0.4645 -0.1831 -0.0612
 3837ntf    fn418666   0.234   0.794   4.091 -0.3190  0.0172  0.1458
 3837ntf    fn418667   0.243   0.710   3.896  0.0531 -0.1771  0.3939
 3837ntf    fn418668   0.068   0.686   4.014  0.0824  0.6320 -0.5907
 3837ntf    on518669   0.193   0.509   4.193  0.2674  0.4443  0.3559
 3837ntf    on518670   0.272   0.438   3.975 -0.2227 -0.5725  0.0037
 3837ntf    on518671   0.432   0.608   4.366  0.1467  0.1188 -0.1871
 3837ntf    on518672   0.637   0.627   4.221  0.1187 -0.0790  0.0129
 3837ntf    fn418673   0.590   0.343   4.161  0.7878 -0.0838  0.0850
 3837ntf    fn418674   0.597   0.367   4.372  0.2201 -0.2620  0.0781
 3837ntf    fn418675   0.413   0.334   4.293  0.4375 -0.1098 -0.0091
 3838ntf    cn118676   4.751   1.049   5.919  0.4327  0.1901 -0.0303
 3838ntf    sn218677   4.726   0.938   6.061 -0.0821  0.4586  0.0906
 3838ntf    nn318678   4.632   1.023   6.153 -0.2731  0.3007  0.0430
 3838ntf    sn218679   4.672   1.128   6.262  0.2199 -0.1466  0.2931
 3838ntf    cn118680   4.530   1.236   6.229  0.1398 -0.4188 -0.2668
 3838ntf    fn418681   4.867   1.033   5.858  0.5577  0.0939  0.2305
 3838ntf    fn418682   4.659   1.029   5.826  0.0542 -0.1587  0.4144
 3838ntf    fn418683   4.748   1.178   5.949  0.2111  0.1861 -0.0335
 3838ntf    on518684   4.664   0.823   5.999 -0.3126  0.3891  0.4482
 3838ntf    on518685   4.858   0.912   6.113 -0.2578 -0.4829  0.0904
 3838ntf    on518686   4.785   1.217   6.242  0.3875 -0.1776  1.0474
 3838ntf    on518687   4.653   1.093   6.401 -0.0961  0.1644  0.3281
 3838ntf    fn418688   4.535   1.333   6.320 -0.3327 -0.2051 -0.4655
 3838ntf    fn418689   4.531   1.299   6.113 -0.3196  0.2708  0.0987
 3838ntf    fn418690   4.415   1.171   6.240 -0.1488  0.2019  0.5099
 3839ntf    cn118691   1.066   6.353   3.869 -0.2141 -0.1353 -0.0822
 3839ntf    sn218692   1.133   6.464   3.997 -0.3252  0.1306 -0.2555
 3839ntf    nn318693   1.114   6.375   4.124  0.0644  0.2445 -0.1170
 3839ntf    sn218694   1.211   6.262   4.176 -0.3517 -0.0053  0.1237
 3839ntf    cn118695   1.090   6.133   4.219 -0.0256 -0.2653  0.2678
 3839ntf    fn418696   1.141   6.244   3.858  0.0020 -0.0374  0.3823
 3839ntf    fn418697   0.941   6.319   3.895 -0.2142 -0.3564 -0.3635
 3839ntf    fn418698   1.067   6.406   3.748  0.1551  0.0022 -0.0198
 3839ntf    on518699   1.272   6.484   3.962 -0.1720 -0.1864  0.1645
 3839ntf    on518700   1.046   6.579   3.994 -0.2998  0.1532 -0.0936
 3839ntf    on518701   1.276   6.300   4.299  0.0200  0.0654 -0.0928
 3839ntf    on518702   1.282   6.199   4.068 -0.2266  0.1110  0.1387
 3839ntf    fn418703   0.985   6.191   4.276 -0.1808 -0.2274 -0.0559
 3839ntf    fn418704   1.041   6.077   4.109  0.5751  0.0952 -0.1914
 3839ntf    fn418705   1.141   6.039   4.296 -0.2659 -0.0630  0.6791
 3840ntf    cn118706   2.392   4.899   4.046 -0.0790 -0.2458 -0.0227
 3840ntf    sn218707   2.554   4.958   3.987  0.0560 -0.0946  0.4902
 3840ntf    nn318708   2.627   4.819   3.978  0.3209  0.0497  0.4026
 3840ntf    sn218709   2.697   4.736   3.865  0.0765  0.1360  0.1870
 3840ntf    cn118710   2.583   4.595   3.855  0.0558  0.1863 -0.3425
 3840ntf    fn418711   2.307   4.993   4.083 -0.2999 -0.3881 -0.1683
 3840ntf    fn418712   2.328   4.842   3.945 -0.3168 -0.1163  0.0548
 3840ntf    fn418713   2.403   4.819   4.151  0.3897  0.2067  0.2801
 3840ntf    on518714   2.534   5.024   3.860  0.1605 -0.8678  0.0661
 3840ntf    on518715   2.603   5.040   4.095  0.3310  0.1701  0.1662
 3840ntf    on518716   2.821   4.679   3.910  0.3047  0.4827  0.0112
 3840ntf    on518717   2.696   4.793   3.732 -0.4959 -0.0479  0.1114
 3840ntf    fn418718   2.612   4.503   3.764 -0.1437  0.3946 -0.6167
 3840ntf    fn418719   2.573   4.531   3.971 -0.3156  1.0740  0.1232
 3840ntf    fn418720   2.458   4.627   3.825 -0.2452 -0.3989  0.2657
 3841ntf    cn118721   2.721   1.230   2.875  0.2898 -0.2479 -0.3891
 3841ntf    sn218722   2.815   1.204   2.721 -0.2141 -0.2427 -0.6981
 3841ntf    nn318723   2.735   1.080   2.666  0.0741 -0.8839  0.2976
 3841ntf    sn218724   2.636   1.078   2.544  0.2884  0.1165  0.0992
 3841ntf    cn118725   2.497   0.992   2.624  0.0388  0.1936 -0.2513
 3841ntf    fn418726   2.776   1.324   2.951  0.2376 -0.1417 -0.4828
 3841ntf    fn418727   2.599   1.270   2.847  0.2665 -0.0415 -0.0006
 3841ntf    fn418728   2.703   1.119   2.945 -0.6711  0.4600  0.5229
 3841ntf    on518729   2.804   1.325   2.643 -0.2168  0.1931 -0.0288
 3841ntf    on518730   2.946   1.171   2.770 -0.6920  0.4487  1.1133
 3841ntf    on518731   2.686   0.987   2.444  0.4258  0.1287  0.1557
 3841ntf    on518732   2.577   1.202   2.501  0.2668 -0.0188 -0.2615
 3841ntf    fn418733   2.379   1.030   2.578  0.2730  0.5557 -0.5685
 3841ntf    fn418734   2.507   0.863   2.598 -0.4602  0.0072  0.4760
 3841ntf    fn418735   2.492   1.006   2.755  0.3612  0.5096 -0.2695
 3842ntf    cn118736   5.286   3.112   5.425 -0.3311 -0.0625 -0.3784
 3842ntf    sn218737   5.121   3.178   5.386 -0.4469 -0.1737 -0.0802
 3842ntf    nn318738   5.165   3.328   5.383 -0.3744 -0.1910  0.0974
 3842ntf    sn218739   5.156   3.429   5.503 -0.1237  0.1971 -0.2064
 3842ntf    cn118740   4.983   3.481   5.485 -0.1975  0.0549  0.0866
 3842ntf    fn418741   5.359   3.119   5.315 -0.1944  0.1799 -0.2731
 3842ntf    fn418742   5.348   3.187   5.514 -0.4018  0.1692 -0.5235
 3842ntf    fn418743   5.282   2.989   5.475  0.0846  0.0094 -0.1685
 3842ntf    on518744   5.088   3.131   5.254  0.3670 -0.7916 -0.0713
 3842ntf    on518745   5.030   3.139   5.492 -0.7678  0.2930 -0.1805
 3842ntf    on518746   5.234   3.546   5.472 -0.4517  0.5653  0.3496
 3842ntf    on518747   5.166   3.381   5.639  0.1140  0.1343 -0.2459
 3842ntf    fn418748   4.935   3.533   5.597 -0.7497  0.3322 -0.2731
 3842ntf    fn418749   4.956   3.568   5.389 -0.1798  0.4134  0.4035
 3842ntf    fn418750   4.915   3.370   5.459 -0.1637 -0.0154  0.2914
 3843ntf    cn118751   0.391   5.776   2.681 -0.0512 -0.3585 -0.2701
 3843ntf    sn218752   0.465   5.921   2.601 -0.2908 -0.1856 -0.1798
 3843ntf    nn318753   0.604   5.910   2.673 -0.1237  0.3713 -0.4151
 3843ntf    sn218754   0.716   5.807   2.634  0.0545  0.4752 -0.1859
 3843ntf    cn118755   0.833   5.915   2.547  0.6274 -0.0470 -0.0699
 3843ntf    fn418756   0.263   5.771   2.646 -0.2867 -0.0363  0.5130
 3843ntf    fn418757   0.453   5.666   2.642  0.6077 -0.5246  1.1712
 3843ntf    fn418758   0.395   5.770   2.813 -0.6464  0.2197 -0.2195
 3843ntf    on518759   0.465   5.895   2.459 -0.1273 -0.2913 -0.1615
 3843ntf    on518760   0.390   6.035   2.647 -0.3310 -0.2832 -0.0010
 3843ntf    on518761   0.677   5.708   2.536  0.1829  0.6495 -0.4131
 3843ntf    on518762   0.799   5.766   2.745  0.1973  0.6158 -0.2405
 3843ntf    fn418763   0.940   5.849   2.506  0.5831 -0.4292  0.4211
 3843ntf    fn418764   0.781   5.972   2.440  0.1228 -0.2083  0.0872
 3843ntf    fn418765   0.874   6.011   2.628 -0.6189  0.2808  0.1937
 3844ntf    cn118766   2.897   5.319   5.463  0.2574  0.4999  0.3419
 3844ntf    sn218767   2.896   5.278   5.640  0.1528 -0.3245  0.1551
 3844ntf    nn318768   2.747   5.229   5.649 -0.1095  0.4766  0.2658
 3844ntf    sn218769   2.685   5.111   5.733  0.2554  0.1198  0.0374
 3844ntf    cn118770   2.719   4.960   5.638 -0.0147 -0.1209  0.3229
 3844ntf    fn418771   2.823   5.425   5.434 -0.5159 -0.1081  0.0666
 3844ntf    fn418772   3.017   5.329   5.408  0.1143 -0.3093 -0.1222
 3844ntf    fn418773   2.838   5.215   5.406 -0.3116  0.7170  0.5302
 3844ntf    on518774   2.997   5.180   5.670  0.3195  0.0446  0.8437
 3844ntf    on518775   2.919   5.405   5.704 -0.1092  0.0586 -0.5093
 3844ntf    on518776   2.541   5.118   5.744  0.2487  0.1620 -0.0785
 3844ntf    on518777   2.756   5.098   5.858 -0.1084  0.2704  0.2605
 3844ntf    fn418778   2.718   4.976   5.506 -0.1092  0.0157  0.3394
 3844ntf    fn418779   2.836   4.905   5.664  0.3152  0.4125 -0.0206
 3844ntf    fn418780   2.628   4.866   5.661 -0.0466 -0.1712 -0.0061
 3845ntf    cn118781   5.367   4.156   0.189 -0.1942  0.1595 -0.0268
 3845ntf    sn218782   5.430   4.006   0.110 -0.3260  0.2046 -0.2202
 3845ntf    nn318783   5.328   3.988  -0.008 -0.2523  0.4650 -0.3226
 3845ntf    sn218784   5.192   3.910  -0.000  0.1308 -0.2080 -0.2976
 3845ntf    cn118785   5.243   3.758  -0.086 -0.0517 -0.4753  0.0675
 3845ntf    fn418786   5.353   4.251   0.098  0.2539  0.1848 -0.0722
 3845ntf    fn418787   5.251   4.132   0.248 -0.0646 -0.1197  0.1107
 3845ntf    fn418788   5.439   4.196   0.293  0.3682  0.3914 -0.5042
 3845ntf    on518789   5.560   4.054   0.069 -0.0001  0.1568  0.7085
 3845ntf    on518790   5.420   3.912   0.220 -0.1307  0.2929 -0.1257
 3845ntf    on518791   5.094   3.972  -0.086 -0.2090  0.3470  0.4795
 3845ntf    on518792   5.141   3.859   0.125 -0.4149 -0.0396 -0.4487
 3845ntf    fn418793   5.344   3.692  -0.031 -0.0553 -0.3635  0.2107
 3845ntf    fn418794   5.141   3.673  -0.087  0.0201 -0.5694  0.4534
 3845ntf    fn418795   5.275   3.779  -0.212 -0.3526 -0.3989  0.0041
 3846ntf    cn118796   1.610   6.490   1.335  0.0383  0.2954 -0.2840
 3846ntf    sn218797   1.537   6.328   1.299 -0.1363  0.3722 -0.2739
 3846ntf    nn318798   1.597   6.241   1.415 -0.0517  0.3655 -0.3230
 3846ntf    sn218799   1.616   6.085   1.426 -0.1209  0.3873  0.1337
 3846ntf    cn118800   1.451   6.036   1.484  0.0594  0.0072  0.3245
 3846ntf    fn418801   1.569   6.585   1.253 -0.4704  0.1326 -0.2212
 3846ntf    fn418802   1.579   6.532   1.456 -0.1088 -0.3049 -0.1087
 3846ntf    fn418803   1.743   6.489   1.329  0.0513 -0.3897  0.0597
 3846ntf    on518804   1.396   6.356   1.318 -0.2688 -0.4841  0.0766
 3846ntf    on518805   1.575   6.309   1.161 -0.0771  0.4002 -0.2614
 3846ntf    on518806   1.707   6.044   1.530  0.0789  0.2662 -0.0854
 3846ntf    on518807   1.626   6.015   1.300  0.2005  0.4399  0.1295
 3846ntf    fn418808   1.360   6.051   1.390  0.6074  0.0080 -0.2119
 3846ntf    fn418809   1.453   5.912   1.531  0.5367 -0.0103  0.2646
 3846ntf    fn418810   1.411   6.107   1.588 -0.0898  0.1548  0.1669
 3847ntf    cn118811   1.666   5.854   2.441 -0.3060 -0.5135  0.2858
 3847ntf    sn218812   1.648   5.684   2.505 -0.3614 -0.4288  0.4965
 3847ntf    nn318813   1.544   5.706   2.620 -0.4250  0.0051  0.3607
 3847ntf    sn218814   1.544   5.632   2.759 -0.1476 -0.0654  0.3246
 3847ntf    cn118815   1.616   5.765   2.860  0.1050  0.1534 -0.1430
 3847ntf    fn418816   1.657   5.950   2.530  0.1152 -0.5690  0.3899
 3847ntf    fn418817   1.782   5.874   2.379 -0.3493 -0.2945  0.2754
 3847ntf    fn418818   1.566   5.870   2.356 -0.1363  0.1043  0.1988
 3847ntf    on518819   1.596   5.616   2.389 -0.7800  0.4031  0.1888
 3847ntf    on518820   1.785   5.653   2.537 -0.0198  0.1233 -0.3640
 3847ntf    on518821   1.623   5.512   2.763 -0.6505 -0.4146 -0.0147
 3847ntf    on518822   1.413   5.625   2.819 -0.2204 -0.8551  0.0899
 3847ntf    fn418823   1.613   5.726   2.986 -0.4353 -0.1811 -0.2576
 3847ntf    fn418824   1.743   5.786   2.827  0.2723  0.1186  0.4795
 3847ntf    fn418825   1.549   5.878   2.856 -0.0293  0.0807  0.0518
 3848ntf    cn118826   5.996   2.791   4.793 -0.2973 -0.1497  0.0130
 3848ntf    sn218827   5.897   2.852   4.933 -0.0590  0.2523  0.0079
 3848ntf    nn318828   6.014   2.903   5.023 -0.0693  0.5833 -0.1634
 3848ntf    sn218829   6.024   2.930   5.178  0.1817  0.0683 -0.0887
 3848ntf    cn118830   6.116   2.784   5.234 -0.1295  0.0832  0.4659
 3848ntf    fn418831   6.066   2.685   4.831  0.0510 -0.0091 -0.2372
 3848ntf    fn418832   5.916   2.747   4.697 -0.3297  0.2822 -0.1580
 3848ntf    fn418833   6.086   2.867   4.733  0.3360 -0.2041  0.8721
 3848ntf    on518834   5.817   2.957   4.873  0.0829  0.0584 -0.5268
 3848ntf    on518835   5.825   2.733   4.971  0.2713  0.0179 -0.0970
 3848ntf    on518836   5.900   2.935   5.252  0.1511  0.6075 -0.1700
 3848ntf    on518837   6.119   3.036   5.200  0.4631 -0.2209  0.0938
 3848ntf    fn418838   6.240   2.774   5.187 -0.2774 -0.0717  0.1081
 3848ntf    fn418839   6.132   2.779   5.366 -0.3109  0.5039  0.5051
 3848ntf    fn418840   6.063   2.671   5.191 -0.1766  0.0559  0.5948
 3849ntf    cn118841   3.957   1.020   6.835  0.2694 -0.0065 -0.1423
 3849ntf    sn218842   3.881   1.183   6.860  0.3098 -0.0006 -0.0602
 3849ntf    nn318843   3.861   1.235   6.714 -0.1179 -0.1330 -0.0501
 3849ntf    sn218844   3.771   1.179   6.598 -0.2388  0.0054 -0.0236
 3849ntf    cn118845   3.801   1.302   6.468  0.3982 -0.0264  0.0881
 3849ntf    fn418846   4.078   1.035   6.782  0.3202 -0.5415 -0.1842
 3849ntf    fn418847   3.975   0.949   6.945 -0.0310 -0.2449 -0.2449
 3849ntf    fn418848   3.890   0.945   6.748 -0.1211  0.7489 -0.5005
 3849ntf    on518849   3.752   1.159   6.921  0.2161  0.2794 -0.1494
 3849ntf    on518850   3.982   1.258   6.932  0.2783  0.0751 -0.0951
 3849ntf    on518851   3.628   1.187   6.614 -0.2314  0.0980 -0.0037
 3849ntf    on518852   3.824   1.064   6.528 -0.0389  0.0844 -0.0046
 3849ntf    fn418853   3.771   1.429   6.494  0.1051 -0.0738 -0.0160
 3849ntf    fn418854   3.926   1.321   6.428  0.2863  0.2829 -0.1226
 3849ntf    fn418855   3.730   1.267   6.362  0.2557  0.4371  0.0289
 3850ntf    cn118856   1.509   4.757   5.188 -0.0124 -0.0796 -0.0971
 3850ntf    sn218857   1.622   4.689   5.313  0.1767  0.2469 -0.0895
 3850ntf    nn318858   1.633   4.538   5.272  0.6286  0.3494 -0.3418
 3850ntf    sn218859   1.720   4.420   5.329 -0.0578  0.0661  0.1394
 3850ntf    cn118860   1.596   4.317   5.413  0.0276 -0.0759  0.0925
 3850ntf    fn418861   1.382   4.723   5.199 -0.1059  0.3195  0.0481
 3850ntf    fn418862   1.511   4.889   5.182  0.3685 -0.0628  0.3617
 3850ntf    fn418863   1.542   4.708   5.069 -0.3990 -0.2590 -0.1319
 3850ntf    on518864   1.740   4.770   5.296 -0.1163  0.7093  0.0436
 3850ntf    on518865   1.547   4.697   5.437 -0.0737  0.4370 -0.2506
 3850ntf    on518866   1.812   4.457   5.434  0.6377 -0.5839 -0.2311
 3850ntf    on518867   1.774   4.335   5.226 -0.6226  0.1374 -0.2150
 3850ntf    fn418868   1.657   4.219   5.478 -0.5696 -0.8290 -0.4651
 3850ntf    fn418869   1.525   4.381   5.504  0.5147 -0.2867  0.6277
 3850ntf    fn418870   1.512   4.262   5.326 -0.2926  0.2636  0.1835
 3851ntf    cn118871   4.715   5.988   0.569 -0.0634 -0.0678 -0.1367
 3851ntf    sn218872   4.821   6.113   0.649 -0.2229  0.0007 -0.0315
 3851ntf    nn318873   4.872   6.041   0.778 -0.1827  0.2281  0.0793
 3851ntf    sn218874   4.806   6.040   0.921 -0.0638 -0.3753  0.1321
 3851ntf    cn118875   4.891   6.178   1.003  0.2941 -0.2900 -0.3824
 3851ntf    fn418876   4.642   5.924   0.658 -0.1505  0.2974  0.0546
 3851ntf    fn418877   4.633   6.043   0.481 -0.4008 -0.3157  0.0255
 3851ntf    fn418878   4.785   5.898   0.501  0.3882  0.2819 -0.1452
 3851ntf    on518879   4.929   6.135   0.555 -0.4282 -0.0340 -0.2785
 3851ntf    on518880   4.727   6.220   0.673 -0.3487 -0.0725 -0.1923
 3851ntf    on518881   4.849   5.927   1.000 -0.5598 -0.5212  0.1983
 3851ntf    on518882   4.667   6.078   0.917 -0.0136 -0.2328 -0.3450
 3851ntf    fn418883   5.020   6.164   0.975  0.2875 -0.7677 -0.1857
 3851ntf    fn418884   4.850   6.296   0.958 -0.4960 -0.5254 -0.2923
 3851ntf    fn418885   4.868   6.174   1.133  0.1571  0.0897 -0.3929
 3852ntf    cn118886   2.117   3.460   3.775  0.0049  0.0586 -0.6333
 3852ntf    sn218887   1.941   3.451   3.817  0.2199 -0.1344  0.2525
 3852ntf    nn318888   1.898   3.588   3.753 -0.5214 -0.5450 -0.1480
 3852ntf    sn218889   1.835   3.606   3.610 -0.0611  0.0323 -0.2790
 3852ntf    cn118890   1.956   3.719   3.534  0.0294  0.0720 -0.0769
 3852ntf    fn418891   2.186   3.353   3.811 -0.6750 -0.1337  0.1297
 3852ntf    fn418892   2.133   3.485   3.646  0.0491  0.5163 -0.5408
 3852ntf    fn418893   2.181   3.560   3.834  0.5128 -0.4373 -0.3249
 3852ntf    on518894   1.899   3.325   3.759  0.1335 -0.2281  0.5154
 3852ntf    on518895   1.958   3.457   3.960  0.4298  0.4690  0.2026
 3852ntf    on518896   1.718   3.689   3.621 -0.0030  0.1464 -0.5021
 3852ntf    on518897   1.833   3.491   3.523  0.1045 -0.5541  0.4784
 3852ntf    fn418898   1.924   3.843   3.566  0.3385  0.0125  0.4834
 3852ntf    fn418899   2.079   3.693   3.576  0.1018  0.2709 -0.1636
 3852ntf    fn418900   1.952   3.703   3.403  0.3803 -0.1765 -0.0594
 3853ntf    cn118901   5.993   2.501   6.788  0.1347 -0.1777  0.1571
 3853ntf    sn218902   5.884   2.589   6.904 -0.0675 -0.1528 -0.0499
 3853ntf    nn318903   5.974   2.714   6.936  0.1717 -0.0598 -1.0600
 3853ntf    sn218904   5.940   2.864   6.967 -0.1029 -0.3214 -0.0520
 3853ntf    cn118905   5.980   2.939   6.806 -0.3465 -0.0141  0.0286
 3853ntf    fn418906   5.984   2.538   6.661 -0.0881 -0.1000  0.1951
 3853ntf    fn418907   6.121   2.517   6.816  0.1075 -0.0333  0.1991
 3853ntf    fn418908   5.964   2.372   6.781  0.3842 -0.2330  0.1447
 3853ntf    on518909   5.778   2.623   6.814 -0.3410  0.7083  0.5831
 3853ntf    on518910   5.856   2.492   7.007 -0.5641  0.0367 -0.0060
 3853ntf    on518911   6.024   2.934   7.060  0.0092 -0.2247 -0.2252
 3853ntf    on518912   5.798   2.888   6.972 -0.0685 -0.0648 -0.3030
 3853ntf    fn418913   5.912   2.883   6.708  0.7284 -0.5453 -0.4330
 3853ntf    fn418914   5.945   3.066   6.797  0.0409  0.0750 -0.2832
 3853ntf    fn418915   6.108   2.935   6.771 -0.2387 -0.0460  0.4145
 3854ntf    cn118916   5.724   6.058   6.495 -0.5434  0.0268 -0.2420
 3854ntf    sn218917   5.819   6.082   6.342  0.0151  0.1048  0.1145
 3854ntf    nn318918   5.710   6.175   6.276 -0.2891 -0.5148 -0.2643
 3854ntf    sn218919   5.671   6.168   6.124 -0.0514  0.1470 -0.3583
 3854ntf    cn118920   5.527   6.057   6.131 -0.0586  0.1889  0.2231
 3854ntf    fn418921   5.712   6.167   6.568 -0.2463  0.1970 -0.4463
 3854ntf    fn418922   5.599   6.018   6.475 -0.3468 -0.5184 -0.3794
 3854ntf    fn418923   5.787   5.972   6.572 -0.1365  0.2292 -0.3461
 3854ntf    on518924   5.939   6.149   6.385 -0.2750  0.5752  0.2008
 3854ntf    on518925   5.837   5.950   6.286  0.4059  0.0211  0.4391
 3854ntf    on518926   5.767   6.115   6.030  0.0764  0.4608 -0.4079
 3854ntf    on518927   5.618   6.294   6.078  0.0562  0.3191 -0.0123
 3854ntf    fn418928   5.463   6.027   6.019  0.4155 -0.3956  0.1035
 3854ntf    fn418929   5.555   5.941   6.188 -0.4276 -0.0400 -0.0579
 3854ntf    fn418930   5.436   6.105   6.214 -0.5215  0.0597 -0.2006
 3855ntf    cn118931   2.980   4.399   3.733  0.4782  0.1516 -0.2284
 3855ntf    sn218932   3.015   4.240   3.653 -0.0481  0.0847 -0.3314
 3855ntf    nn318933   3.171   4.239   3.676 -0.1198 -0.2119  0.1457
 3855ntf    sn218934   3.260   4.116   3.715  0.0431 -0.1106  0.0907
 3855ntf    cn118935   3.404   4.127   3.604  0.2089  0.2266  0.3395
 3855ntf    fn418936   2.853   4.434   3.719  0.3938 -0.2238 -0.4098
 3855ntf    fn418937   3.002   4.396   3.863  0.3260 -0.1711 -0.2108
 3855ntf    fn418938   3.044   4.503   3.680  0.1405  0.6251  0.2887
 3855ntf    on518939   2.943   4.148   3.737  0.2997  0.1427  0.0345
 3855ntf    on518940   2.976   4.251   3.515  0.1733 -0.4291 -0.4393
 3855ntf    on518941   3.214   3.982   3.686  0.4656 -0.2060 -0.1573
 3855ntf    on518942   3.325   4.140   3.842  0.2633  0.1605 -0.0721
 3855ntf    fn418943   3.491   4.220   3.642  0.2189  0.4656 -0.2523
 3855ntf    fn418944   3.478   4.018   3.617 -0.0663  0.0814  0.7151
 3855ntf    fn418945   3.379   4.144   3.475 -0.1782 -0.2204  0.3538
 3856ntf    cn118946   3.409   4.958   2.940 -0.0939 -0.0340  0.0455
 3856ntf    sn218947   3.367   5.005   3.111  0.0921 -0.0309  0.0919
 3856ntf    nn318948   3.383   4.867   3.184  0.3779 -0.0637 -0.0334
 3856ntf    sn218949   3.265   4.793   3.256  0.4155 -0.0568  0.0353
 3856ntf    cn118950   3.344   4.643   3.321 -0.1308 -0.3613  0.0041
 3856ntf    fn418951   3.426   5.061   2.860  0.5022 -0.3586 -0.2605
 3856ntf    fn418952   3.523   4.889   2.938  0.0907  0.2576  0.4206
 3856ntf    fn418953   3.319   4.881   2.881 -0.5003  0.3471  0.1699
 3856ntf    on518954   3.476   5.094   3.143  0.2086 -0.1407 -0.0006
 3856ntf    on518955   3.235   5.063   3.101 -0.3207 -0.9518  0.1638
 3856ntf    on518956   3.175   4.733   3.161 -0.2722  0.3999  0.3884
 3856ntf    on518957   3.211   4.869   3.366  0.2524  0.0914 -0.1463
 3856ntf    fn418958   3.382   4.552   3.233  0.2063 -0.0667 -0.1579
 3856ntf    fn418959   3.452   4.680   3.388  0.0885 -0.0959 -0.4856
 3856ntf    fn418960   3.262   4.588   3.409 -0.3590  0.3918  0.2764
 3857ntf    cn118961   6.834   1.008   3.883 -0.0117 -0.2332 -0.3841
 3857ntf    sn218962   6.842   1.180   3.941  0.1718 -0.2236 -0.4394
 3857ntf    nn318963   6.996   1.211   3.948  0.1527 -0.1387 -0.3989
 3857ntf    sn218964   7.054   1.354   3.979  0.0619 -0.1760 -0.0494
 3857ntf    cn118965   7.194   1.297   4.080 -0.2652 -0.4278  0.2637
 3857ntf    fn418966   6.902   0.926   3.962 -0.2357  0.6159  0.7041
 3857ntf    fn418967   6.709   0.964   3.885 -0.0418 -0.1236  0.2760
 3857ntf    fn418968   6.871   0.992   3.757  0.3479  0.0746 -0.3191
 3857ntf    on518969   6.786   1.255   3.832 -0.2211  0.1090 -0.0142
 3857ntf    on518970   6.770   1.175   4.066  0.2345 -0.0216 -0.3959
 3857ntf    on518971   6.985   1.437   4.075  0.4799  0.0728  0.0417
 3857ntf    on518972   7.116   1.422   3.868  0.1863  0.2260  0.2634
 3857ntf    fn418973   7.284   1.235   4.006 -0.0061  0.2038  0.0436
 3857ntf    fn418974   7.257   1.394   4.145 -0.2623 -0.4465  0.2894
 3857ntf    fn418975   7.153   1.211   4.172 -0.2536 -0.0245  0.6507
 3858ntf    cn118976   3.314   5.774   0.588  0.1335  0.2729 -0.0574
 3858ntf    sn218977   3.339   5.935   0.667 -0.4906  0.3929 -0.1005
 3858ntf    nn318978   3.442   5.890   0.777 -0.5584  0.4159 -0.0264
 3858ntf    sn218979   3.521   5.966   0.889  0.0023 -0.1994  0.0023
 3858ntf    cn118980   3.390   5.960   1.015  0.0296  0.3543  0.0579
 3858ntf    fn418981   3.429   5.732   0.536  0.3199 -0.0074  0.5701
 3858ntf    fn418982   3.269   5.689   0.679 -0.4762 -0.3721 -0.9446
 3858ntf    fn418983   3.220   5.788   0.496 -0.5915  0.0581  0.6447
 3858ntf    on518984   3.395   6.028   0.572  0.0600  0.2087  0.0374
 3858ntf    on518985   3.210   5.965   0.724 -0.4334 -0.2631  0.3776
 3858ntf    on518986   3.543   6.106   0.862 -0.0048 -0.1746  0.1255
 3858ntf    on518987   3.627   5.885   0.944 -0.0869 -0.3735 -0.0795
 3858ntf    fn418988   3.422   6.023   1.127  0.2719 -0.1945  0.2998
 3858ntf    fn418989   3.280   6.021   0.974  0.0867  0.3671 -0.0768
 3858ntf    fn418990   3.347   5.840   1.050  0.4344  0.2141  0.0754
 3859ntf    cn118991   3.498   7.196   1.652 -0.4065 -0.3540 -0.2575
 3859ntf    sn218992   3.507   7.328   1.527 -0.3148 -0.1896 -0.0788
 3859ntf    nn318993   3.630   7.406   1.586 -0.1007 -0.2209 -0.4777
 3859ntf    sn218994   3.683   7.548   1.546  0.1659 -0.1216  0.2017
 3859ntf    cn118995   3.832   7.496   1.456  0.3547 -0.0909  0.4943
 3859ntf    fn418996   3.620   7.146   1.664 -0.5183 -0.6714 -0.4519
 3859ntf    fn418997   3.460   7.236   1.773 -0.4554 -0.3678 -0.2687
 3859ntf    fn418998   3.424   7.093   1.615 -0.5752 -0.5734  0.6651
 3859ntf    on518999   3.539   7.266   1.401  0.2069 -0.2000  0.0545
 3859ntf    on519000   3.381   7.394   1.546 -0.1762  0.0802 -0.0976
 3859ntf    on519001   3.732   7.628   1.656 -0.3933  0.0739  0.3150
 3859ntf    on519002   3.604   7.612   1.443  0.1185 -0.2121  0.1822
 3859ntf    fn419003   3.894   7.387   1.498  0.3216 -0.0870  0.5526
 3859ntf    fn419004   3.808   7.478   1.327 -0.5418  0.0308  0.6358
 3859ntf    fn419005   3.922   7.592   1.450  0.1146  0.1129  0.0878
 3860ntf    cn119006   2.705   4.960   4.705 -0.0822  0.2459  0.2716
 3860ntf    sn219007   2.569   4.919   4.592  0.3618 -0.2776 -0.0753
 3860ntf    nn319008   2.577   4.762   4.585  0.0538 -0.3269  0.6781
 3860ntf    sn219009   2.454   4.665   4.573 -0.0801 -0.0954  0.1216
 3860ntf    cn119010   2.489   4.592   4.411 -0.4920 -0.2002  0.0786
 3860ntf    fn419011   2.695   4.897   4.821  0.2080 -0.4112 -0.0518
 3860ntf    fn419012   2.817   4.904   4.660 -0.1696  0.2145  0.0926
 3860ntf    fn419013   2.720   5.091   4.715  0.6144  0.2171 -0.2644
 3860ntf    on519014   2.450   4.972   4.653  0.4519  0.0321 -0.1645
 3860ntf    on519015   2.622   4.976   4.470  0.4524 -0.2374 -0.0170
 3860ntf    on519016   2.322   4.720   4.554  0.2142  0.2607 -0.9088
 3860ntf    on519017   2.463   4.551   4.662 -0.8573  0.0571  0.4031
 3860ntf    fn419018   2.573   4.492   4.434 -0.0142  0.1608 -0.0714
 3860ntf    fn419019   2.378   4.543   4.357 -0.5156 -0.0402 -0.0189
 3860ntf    fn419020   2.544   4.673   4.322 -0.3615 -0.5057 -0.1206
 3861ntf    cn119021   1.194   7.224   4.878  0.3380 -0.4104 -0.2541
 3861ntf    sn219022   1.304   7.261   4.738 -0.0076  0.0226 -0.4107
 3861ntf    nn319023   1.308   7.418   4.729  0.0390  0.0321 -0.2313
 3861ntf    sn219024   1.279   7.516   4.610  0.0711  0.0331 -0.2381
 3861ntf    cn119025   1.102   7.548   4.638  0.1514  0.3815 -0.1274
 3861ntf    fn419026   1.088   7.303   4.884  0.3214 -0.4913  0.5663
 3861ntf    fn419027   1.153   7.098   4.880  0.0432 -0.3063  0.3078
 3861ntf    fn419028   1.258   7.241   4.993  0.1736  0.1122 -0.2384
 3861ntf    on519029   1.432   7.212   4.781 -0.1048 -0.0539 -0.2064
 3861ntf    on519030   1.238   7.182   4.637 -0.5039 -0.0302 -0.0498
 3861ntf    on519031   1.310   7.469   4.477  0.1274 -0.4599 -0.0529
 3861ntf    on519032   1.340   7.641   4.648 -0.4567  0.3135 -0.3030
 3861ntf    fn419033   1.086   7.605   4.757  0.0986  0.2091 -0.0515
 3861ntf    fn419034   1.047   7.621   4.543  0.2349  0.5024 -0.0842
 3861ntf    fn419035   1.037   7.433   4.633  0.0622  0.4404 -0.3195
 3862ntf    cn119036   2.901   2.567   5.257  0.1143  0.0188  0.3008
 3862ntf    sn219037   3.053   2.517   5.171 -0.1423 -0.2327 -0.0079
 3862ntf    nn319038   3.026   2.367   5.134 -0.2655 -0.1992 -0.0544
 3862ntf    sn219039   3.124   2.275   5.054  0.1032  0.0910  0.0601
 3862ntf    cn119040   3.123   2.134   5.168  0.0856  0.2649  0.2749
 3862ntf    fn419041   2.910   2.692   5.300  0.0758  0.3030 -0.4923
 3862ntf    fn419042   2.799   2.562   5.172 -0.2216  0.7803  0.6489
 3862ntf    fn419043   2.867   2.487   5.357 -0.1982 -0.1071  0.0937
 3862ntf    on519044   3.056   2.597   5.050  0.1705  0.2896  0.3406
 3862ntf    on519045   3.163   2.548   5.259 -0.2618  0.1516  0.0114
 3862ntf    on519046   3.262   2.318   5.059  0.1883 -0.1096 -0.4897
 3862ntf    on519047   3.073   2.229   4.927 -0.4597  0.1401  0.2663
 3862ntf    fn419048   3.005   2.107   5.220  0.0447  0.5294  0.3157
 3862ntf    fn419049   3.173   2.024   5.114  0.0275  0.6333 -0.5285
 3862ntf    fn419050   3.203   2.153   5.272  0.3223  0.4125  0.0662
 3863ntf    cn119051   1.883   0.925   4.819  0.0226  0.1475 -0.2209
 3863ntf    sn219052   2.034   0.998   4.890  0.1026 -0.1662 -0.0669
 3863ntf    nn319053   2.087   0.885   4.985 -0.2929 -0.6528 -0.4175
 3863ntf    sn219054   2.195   0.777   4.949  0.0860 -0.4733  0.1651
 3863ntf    cn119055   2.207   0.687   5.106 -0.0633 -0.1884  0.3405
 3863ntf    fn419056   1.808   1.008   4.748 -0.1917  0.1924  0.0591
 3863ntf    fn419057   1.923   0.825   4.742  0.1976  0.3646 -0.4164
 3863ntf    fn419058   1.816   0.868   4.918  0.4910  0.0067  0.0167
 3863ntf    on519059   2.117   1.037   4.779 -0.1315 -0.1343 -0.2320
 3863ntf    on519060   1.976   1.106   4.966  0.2507  0.3696 -0.6933
 3863ntf    on519061   2.332   0.820   4.937 -0.1153  0.1513  0.0356
 3863ntf    on519062   2.152   0.682   4.849 -1.0637  0.4164 -0.2146
 3863ntf    fn419063   2.087   0.665   5.158 -0.0793  0.2463  0.4896
 3863ntf    fn419064   2.271   0.573   5.088  0.0455 -0.0204 -0.3747
 3863ntf    fn419065   2.267   0.757   5.200  0.0215  0.3648 -0.1199
 3864ntf    cn119066   4.102   3.968   4.308 -0.0273  0.2974  0.1286
 3864ntf    sn219067   3.941   3.905   4.253  0.0731  0.2703 -0.1328
 3864ntf    nn319068   3.953   3.902   4.096  0.1160  0.2637 -0.1297
 3864ntf    sn219069   3.847   3.937   3.985  0.0135  0.1206 -0.0780
 3864ntf    cn119070   3.891   3.819   3.854  0.1021  0.0261  0.0371
 3864ntf    fn419071   4.138   4.083   4.255  0.5595  0.2030  0.3073
 3864ntf    fn419072   4.117   3.976   4.440 -0.0366  0.5545  0.1130
 3864ntf    fn419073   4.188   3.877   4.266 -0.7855 -0.1149 -0.5494
 3864ntf    on519074   3.940   3.770   4.303 -0.2311  0.4092  0.2316
 3864ntf    on519075   3.849   3.998   4.312 -0.5738  0.0861 -0.8241
 3864ntf    on519076   3.868   4.063   3.918 -0.0993  0.0738 -0.2010
 3864ntf    on519077   3.709   3.911   4.017  0.0765 -0.5825 -0.3732
 3864ntf    fn419078   4.007   3.849   3.797  0.0490  0.5414  0.1968
 3864ntf    fn419079   3.920   3.696   3.893  0.0375  0.0802  0.2606
 3864ntf    fn419080   3.801   3.815   3.758 -0.1910 -0.0137  0.3117
 3865ntf    cn119081   3.878   2.954   2.483 -0.0069 -0.4693  0.3945
 3865ntf    sn219082   3.780   2.877   2.615 -0.2542 -0.5070  0.1905
 3865ntf    nn319083   3.855   2.739   2.616  0.0828 -0.3311 -0.3911
 3865ntf    sn219084   3.793   2.600   2.657 -0.4663  0.0094 -0.0608
 3865ntf    cn119085   3.769   2.522   2.494 -0.4256  0.1011 -0.1109
 3865ntf    fn419086   3.860   3.081   2.448  1.0468 -0.3599  0.2011
 3865ntf    fn419087   4.005   2.954   2.520  0.2789 -0.4845 -0.5668
 3865ntf    fn419088   3.873   2.876   2.376  0.3024 -0.1559  0.1486
 3865ntf    on519089   3.811   2.952   2.735 -0.2162 -0.0854 -0.0832
 3865ntf    on519090   3.647   2.877   2.560 -0.0254  0.1570 -0.3673
 3865ntf    on519091   3.669   2.593   2.730 -0.3525  0.9083  0.2387
 3865ntf    on519092   3.892   2.516   2.719 -0.8074 -0.3601 -0.0203
 3865ntf    fn419093   3.727   2.397   2.505  0.1784 -0.0596  0.5345
 3865ntf    fn419094   3.684   2.587   2.418 -0.3181  0.3204 -0.0459
 3865ntf    fn419095   3.880   2.509   2.423 -0.2769 -0.1205  0.1571
 3866ntf    cn119096   5.810   2.109   5.402  0.1643 -0.2310  0.0456
 3866ntf    sn219097   5.663   2.002   5.413 -0.0346  0.0470  0.1230
 3866ntf    nn319098   5.569   2.057   5.301  0.0763  0.0502  0.0306
 3866ntf    sn219099   5.459   2.168   5.318  0.1463  0.1026  0.1440
 3866ntf    cn119100   5.318   2.066   5.370  0.3240  0.0733  0.5675
 3866ntf    fn419101   5.883   2.096   5.511 -0.1678 -0.2696  0.2639
 3866ntf    fn419102   5.888   2.080   5.299  0.1168  0.1077 -0.0882
 3866ntf    fn419103   5.783   2.237   5.382  0.4389 -0.3272 -1.0170
 3866ntf    on519104   5.717   1.874   5.375  0.3598  0.3662 -0.3956
 3866ntf    on519105   5.627   2.011   5.553 -0.4502  0.0961  0.0110
 3866ntf    on519106   5.419   2.220   5.189 -0.2640 -0.2201  0.1393
 3866ntf    on519107   5.483   2.261   5.425  0.8688 -0.1352  0.1907
 3866ntf    fn419108   5.333   2.029   5.496  0.0906 -0.0458  0.5605
 3866ntf    fn419109   5.209   2.138   5.350  0.4078  0.0434 -0.0215
 3866ntf    fn419110   5.301   1.963   5.289 -0.1206  0.5300  0.0751
 3867ntf    cn119111   3.861   3.666   5.859  0.0166  0.6734 -0.0593
 3867ntf    sn219112   4.011   3.565   5.869 -0.3650  0.0992 -0.0693
 3867ntf    nn319113   3.994   3.489   6.006  0.2067  0.0048 -0.0476
 3867ntf    sn219114   4.020   3.336   6.032 -0.2246 -0.0177  0.2616
 3867ntf    cn119115   4.053   3.338   6.211  0.3027  0.1102  0.1650
 3867ntf    fn419116   3.751   3.595   5.835  0.3310  0.3171 -0.4597
 3867ntf    fn419117   3.837   3.743   5.964 -0.1465  0.7573 -0.1562
 3867ntf    fn419118   3.858   3.748   5.755 -0.1353  0.3663 -0.2987
 3867ntf    on519119   4.005   3.486   5.749 -0.5383 -0.1817  0.1242
 3867ntf    on519120   4.113   3.667   5.880 -0.0390 -0.2316 -0.0077
 3867ntf    on519121   4.142   3.279   5.979 -0.3017  0.4581 -0.4501
 3867ntf    on519122   3.902   3.254   6.027 -0.1817 -0.0644  0.0085
 3867ntf    fn419123   4.046   3.221   6.272 -0.0157  0.3669  0.6239
 3867ntf    fn419124   4.173   3.384   6.241  0.2816  0.3525 -0.1152
 3867ntf    fn419125   3.966   3.410   6.279  0.5500  0.4266  0.1481
 3868ntf    cn119126   4.934   4.739   2.688 -0.2115 -0.4871  0.0334
 3868ntf    sn219127   4.784   4.678   2.770 -0.3869  0.0261  0.0960
 3868ntf    nn319128   4.763   4.774   2.893 -0.5450  0.1148 -0.0015
 3868ntf    sn219129   4.748   4.731   3.043  0.5224  0.2467  0.1482
 3868ntf    cn119130   4.598   4.819   3.093  0.1720 -0.0961 -0.2792
 3868ntf    fn419131   4.916   4.856   2.629 -0.1301 -0.1261  0.7186
 3868ntf    fn419132   5.028   4.767   2.777 -0.2905  0.2301 -0.1092
 3868ntf    fn419133   4.976   4.662   2.589  0.1456 -0.0666 -0.1429
 3868ntf    on519134   4.689   4.694   2.663  0.3825  0.4675 -0.5292
 3868ntf    on519135   4.836   4.547   2.800  0.0869  0.0829 -0.4586
 3868ntf    on519136   4.839   4.799   3.131  0.7096 -0.1837  0.2935
 3868ntf    on519137   4.719   4.591   3.064 -0.2685  0.3030 -0.5208
 3868ntf    fn419138   4.498   4.792   3.011  0.4100 -0.6183 -0.3990
 3868ntf    fn419139   4.557   4.779   3.212  0.5949 -0.1399 -0.1456
 3868ntf    fn419140   4.612   4.951   3.103 -0.3587 -0.0638  0.1026
 3869ntf    cn119141   5.293   4.820   5.285  0.2037  0.2606  0.2747
 3869ntf    sn219142   5.211   4.926   5.162  0.0882 -0.2306 -0.0751
 3869ntf    nn319143   5.120   4.827   5.081  0.1826 -0.4615  0.0977
 3869ntf    sn219144   5.021   4.855   4.963  0.3017 -0.1597  0.0684
 3869ntf    cn119145   4.859   4.841   5.045  0.0058  0.4779 -0.3931
 3869ntf    fn419146   5.207   4.750   5.357 -0.0259  0.3645  0.0995
 3869ntf    fn419147   5.367   4.727   5.228 -0.3830  0.1258 -0.2695
 3869ntf    fn419148   5.374   4.886   5.367  0.4883 -0.0995  0.2880
 3869ntf    on519149   5.133   5.021   5.238  0.2242 -0.0822 -0.1193
 3869ntf    on519150   5.315   4.985   5.081  0.0466  0.0016  0.0410
 3869ntf    on519151   5.026   4.750   4.865  1.0528  0.0776 -0.1550
 3869ntf    on519152   5.025   4.987   4.904  0.1577 -0.4283 -0.5563
 3869ntf    fn419153   4.756   4.879   4.970 -0.2756  0.3549 -0.0698
 3869ntf    fn419154   4.826   4.721   5.091 -0.4053  0.8367  0.2612
 3869ntf    fn419155   4.857   4.922   5.149 -0.4279 -0.1332  0.0821
 3870ntf    cn119156   5.953   4.207   0.775 -0.1159  0.2617  0.4113
 3870ntf    sn219157   6.003   4.199   0.600 -0.4106  0.0255  0.3379
 3870ntf    nn319158   5.957   4.345   0.566  0.1688  0.1789  0.2168
 3870ntf    sn219159   5.932   4.404   0.423 -0.2130 -0.1148  0.1633
 3870ntf    cn119160   5.751   4.420   0.415 -0.1649  0.4276  0.1447
 3870ntf    fn419161   5.833   4.260   0.796 -0.2825 -0.0266  0.1863
 3870ntf    fn419162   5.946   4.090   0.835  0.2756  0.0103 -0.0318
 3870ntf    fn419163   6.042   4.282   0.838  0.5063  0.0294 -0.1872
 3870ntf    on519164   6.146   4.183   0.603 -0.3871  0.1905  0.0714
 3870ntf    on519165   5.924   4.095   0.539 -0.2651  0.3939 -0.4851
 3870ntf    on519166   5.967   4.313   0.316  0.1194  0.0087  0.1665
 3870ntf    on519167   5.980   4.538   0.400  0.1502 -0.2117  0.3644
 3870ntf    fn419168   5.702   4.485   0.311 -0.5605  0.2869  0.2382
 3870ntf    fn419169   5.693   4.301   0.414 -0.1712  0.4364 -0.5410
 3870ntf    fn419170   5.698   4.479   0.521 -0.3649  0.1930  0.1779
 3871ntf    cn119171   5.422   7.041   1.814 -0.3048 -0.1163  0.0281
 3871ntf    sn219172   5.337   7.148   1.934  0.0266  0.0837  0.0812
 3871ntf    nn319173   5.197   7.164   1.865  0.0358 -0.4218 -0.0567
 3871ntf    sn219174   5.152   7.282   1.772 -0.2184 -0.3985  0.0967
 3871ntf    cn119175   5.140   7.411   1.899 -0.0556 -0.0942 -0.1957
 3871ntf    fn419176   5.425   7.097   1.694  0.2415  0.0863  0.1359
 3871ntf    fn419177   5.548   7.016   1.845 -0.3761  0.1839  0.5698
 3871ntf    fn419178   5.361   6.924   1.799 -0.0620 -0.1931 -0.3856
 3871ntf    on519179   5.322   7.063   2.049  0.4125  0.0850  0.1362
 3871ntf    on519180   5.415   7.268   1.955  0.5428 -0.1989 -0.2077
 3871ntf    on519181   5.012   7.275   1.734 -0.2643  0.6892  0.0336
 3871ntf    on519182   5.255   7.327   1.682 -0.0136 -0.3021  0.3809
 3871ntf    fn419183   5.100   7.356   2.012  0.1887  0.1380  0.0055
 3871ntf    fn419184   5.253   7.473   1.929 -0.2145 -0.2832  0.8242
 3871ntf    fn419185   5.059   7.509   1.859  0.1058  0.3045  0.4348
 3872ntf    cn119186   6.271   6.608   5.453  0.4750 -0.0585 -0.2356
 3872ntf    sn219187   6.173   6.742   5.527  0.0290 -0.3484 -0.3012
 3872ntf    nn319188   6.059   6.748   5.419  0.0045 -0.2194 -0.2676
 3872ntf    sn219189   5.917   6.812   5.433  0.2920  0.3483  0.0804
 3872ntf    cn119190   5.946   6.960   5.332 -0.4512  0.0860 -0.5297
 3872ntf    fn419191   6.199   6.500   5.426 -0.1239  0.0325  0.9534
 3872ntf    fn419192   6.328   6.640   5.338  0.7454  0.1162 -0.0571
 3872ntf    fn419193   6.373   6.568   5.528  0.0260 -0.8691 -0.0467
 3872ntf    on519194   6.136   6.684   5.654  0.0356  0.2639 -0.0204
 3872ntf    on519195   6.261   6.855   5.517  0.1068 -0.4209 -0.4428
 3872ntf    on519196   5.879   6.864   5.562 -0.1217 -0.0035  0.1018
 3872ntf    on519197   5.816   6.742   5.358  0.0425  0.5242  0.2502
 3872ntf    fn419198   5.844   7.044   5.319  0.0308  0.7428 -0.1380
 3872ntf    fn419199   6.045   7.041   5.368 -0.3307  0.0680 -0.8164
 3872ntf    fn419200   5.979   6.934   5.206  0.5191  0.0433 -0.2754
 3873ntf    cn119201   4.193   0.449   0.775  0.2986  0.2632  0.6596
 3873ntf    sn219202   4.305   0.350   0.672 -0.3322  0.1351  0.0925
 3873ntf    nn319203   4.441   0.428   0.681 -0.2726  0.1338 -0.7365
 3873ntf    sn219204   4.588   0.404   0.630 -0.0251 -0.1302  0.0906
 3873ntf    cn119205   4.620   0.556   0.537 -0.0240 -0.1230  0.1028
 3873ntf    fn419206   4.149   0.553   0.706 -0.3163 -0.3467  0.1138
 3873ntf    fn419207   4.083   0.388   0.815  0.3052 -0.0015  0.2879
 3873ntf    fn419208   4.260   0.503   0.875  0.7108  0.2673  0.3848
 3873ntf    on519209   4.321   0.223   0.740  0.1017 -0.2701 -0.7480
 3873ntf    on519210   4.245   0.352   0.541  0.3976  0.1034 -0.2513
 3873ntf    on519211   4.588   0.300   0.529  0.3717 -0.1642  0.1261
 3873ntf    on519212   4.688   0.405   0.734 -0.0348 -0.6677  0.1111
 3873ntf    fn419213   4.741   0.554   0.483 -0.0142 -0.3472  0.1345
 3873ntf    fn419214   4.535   0.568   0.435  0.0886  0.1577  0.0395
 3873ntf    fn419215   4.605   0.669   0.604 -0.5893 -0.0324 -0.1633
 3874ntf    cn119216   3.532   4.550   1.945 -0.1929  0.0682  0.0464
 3874ntf    sn219217   3.536   4.729   1.973 -0.1560  0.0498  0.1576
 3874ntf    nn319218   3.646   4.731   2.085  0.0184 -0.3672 -0.0059
 3874ntf    sn219219   3.797   4.692   2.072  0.0102 -0.3568 -0.1359
 3874ntf    cn119220   3.870   4.852   2.116 -0.0708 -0.2737 -0.3051
 3874ntf    fn419221   3.621   4.508   1.856 -0.1145  0.1734  0.0748
 3874ntf    fn419222   3.553   4.485   2.058 -0.1097  0.2616  0.1410
 3874ntf    fn419223   3.416   4.500   1.905 -0.0571  0.0484 -0.3316
 3874ntf    on519224   3.574   4.791   1.849 -0.6735 -0.2667 -0.1649
 3874ntf    on519225   3.407   4.763   2.029 -0.3389 -0.3174 -0.0364
 3874ntf    on519226   3.845   4.669   1.938 -0.1087 -0.3237 -0.1835
 3874ntf    on519227   3.832   4.603   2.181  0.2581  0.6294  0.6042
 3874ntf    fn419228   3.816   4.959   2.060  0.4604  0.3940  0.4373
 3874ntf    fn419229   3.843   4.874   2.244 -0.4636  0.7541 -0.5528
 3874ntf    fn419230   4.002   4.854   2.106 -0.0469  0.4521  0.0689
 3875ntf    cn119231   0.016   2.218   1.275 -0.2308 -0.0237 -0.2508
 3875ntf    sn219232  -0.107   2.095   1.327 -0.2946  0.1487  0.0026
 3875ntf    nn319233  -0.224   2.176   1.393 -0.1463  0.5294 -0.2015
 3875ntf    sn219234  -0.358   2.221   1.323 -0.3439  0.5767  0.2039
 3875ntf    cn119235  -0.470   2.140   1.441 -0.1880 -0.2465 -0.2072
 3875ntf    fn419236   0.110   2.158   1.203  0.2673  0.3559  0.0800
 3875ntf    fn419237  -0.038   2.314   1.202 -0.1599  0.1111 -0.1255
 3875ntf    fn419238   0.071   2.283   1.375  0.3266 -0.7494 -0.0748
 3875ntf    on519239  -0.131   2.006   1.216  0.4850  0.2827 -0.2750
 3875ntf    on519240  -0.044   2.032   1.441  0.2127  0.3552 -0.1654
 3875ntf    on519241  -0.396   2.161   1.197  0.9564  0.5679 -0.1979
 3875ntf    on519242  -0.388   2.362   1.325 -0.4597  0.5504  0.3539
 3875ntf    fn419243  -0.582   2.209   1.447 -0.0010  0.0178  0.2734
 3875ntf    fn419244  -0.501   2.019   1.397 -0.0370 -0.3792  0.0438
 3875ntf    fn419245  -0.416   2.136   1.562 -0.7109 -0.1604  0.0298
 3876ntf    cn119246   3.031   6.888   2.850 -0.3432 -0.0688 -0.1861
 3876ntf    sn219247   3.121   7.024   2.770  0.2707 -0.1948  0.2777
 3876ntf    nn319248   3.256   6.956   2.727  0.2473 -0.0788  0.0157
 3876ntf    sn219249   3.297   6.885   2.593  0.2285  0.0625 -0.0653
 3876ntf    cn119250   3.339   7.034   2.497 -0.1736  0.3796  0.2499
 3876ntf    fn419251   2.927   6.933   2.918  0.0619  0.0703  0.3511
 3876ntf    fn419252   2.987   6.795   2.766 -0.0753 -0.1226 -0.2690
 3876ntf    fn419253   3.111   6.832   2.941 -0.2580 -0.4424 -0.4870
 3876ntf    on519254   3.033   7.074   2.667  0.3398 -0.2383  0.1978
 3876ntf    on519255   3.145   7.113   2.880  0.7381  0.1017 -0.0610
 3876ntf    on519256   3.196   6.808   2.526 -0.1365  0.0832  0.4572
 3876ntf    on519257   3.423   6.816   2.603 -0.0189 -0.2979  0.6141
 3876ntf    fn419258   3.311   7.024   2.368  0.0758 -0.6162  0.2657
 3876ntf    fn419259   3.272   7.142   2.533 -0.4905  0.2453  0.0686
 3876ntf    fn419260   3.463   7.078   2.504 -0.0716  0.0820  0.3154
 3877ntf    cn119261   3.411   3.751   0.683  0.1204  0.3160  0.2521
 3877ntf    sn219262   3.394   3.672   0.520 -0.0889 -0.1568  0.5013
 3877ntf    nn319263   3.521   3.580   0.518 -0.1994 -0.3050  0.3608
 3877ntf    sn219264   3.548   3.437   0.577  0.2020 -0.3696  0.0269
 3877ntf    cn119265   3.531   3.335   0.428 -0.4736 -0.1334 -0.0634
 3877ntf    fn419266   3.518   3.829   0.684  0.2536  0.1367 -0.0349
 3877ntf    fn419267   3.305   3.822   0.720 -0.3084 -0.0790 -0.2155
 3877ntf    fn419268   3.434   3.664   0.780  0.3977  0.4915  0.3453
 3877ntf    on519269   3.271   3.597   0.513 -0.0709 -0.1491  0.1034
 3877ntf    on519270   3.403   3.781   0.426  0.7335 -1.0435 -0.4698
 3877ntf    on519271   3.447   3.381   0.664  0.1209 -0.8390 -0.3635
 3877ntf    on519272   3.685   3.421   0.619  0.2165  0.1792  0.1910
 3877ntf    fn419273   3.409   3.342   0.378 -0.3670  0.2160 -0.2778
 3877ntf    fn419274   3.606   3.383   0.330 -0.2194 -0.7463 -0.1734
 3877ntf    fn419275   3.569   3.209   0.442  0.5769  0.2910  1.0684
 3878ntf    cn119276   7.217   0.143   6.490  0.1911  0.3826 -0.0524
 3878ntf    sn219277   7.041   0.175   6.523  0.0883  0.0904 -0.3137
 3878ntf    nn319278   7.022   0.301   6.430 -0.5596  0.0860 -0.1924
 3878ntf    sn219279   6.983   0.313   6.279 -0.1072  0.0192 -0.3149
 3878ntf    cn119280   6.804   0.342   6.274 -0.1551 -0.3060 -0.5612
 3878ntf    fn419281   7.251   0.022   6.529 -0.0351  0.3142 -0.0645
 3878ntf    fn419282   7.251   0.151   6.362  0.4131  0.2181 -0.0053
 3878ntf    fn419283   7.305   0.220   6.553 -0.1838  0.4678  0.3714
 3878ntf    on519284   6.971   0.055   6.488 -0.0263  0.1045 -0.1320
 3878ntf    on519285   7.038   0.223   6.659 -0.1837 -0.2275 -0.2062
 3878ntf    on519286   6.986   0.195   6.195  0.8934 -0.3295  0.1952
 3878ntf    on519287   7.043   0.430   6.219  0.1510  0.1400  0.1777
 3878ntf    fn419288   6.772   0.378   6.151 -0.0175  0.6055 -0.3391
 3878ntf    fn419289   6.738   0.229   6.298 -0.0442 -0.1975  0.2924
 3878ntf    fn419290   6.764   0.441   6.352  0.3208 -0.4879 -0.0802
 3879ntf    cn119291   1.328   1.754   2.661 -0.2234  0.3881 -0.1126
 3879ntf    sn219292   1.412   1.915   2.664  0.0967  0.2242 -0.1847
 3879ntf    nn319293   1.325   1.990   2.772  0.0241  0.2868 -0.2864
 3879ntf    sn219294   1.365   2.073   2.899  0.6577  0.2252 -0.4404
 3879ntf    cn119295   1.469   2.197   2.816  0.5736  0.2056 -0.5733
 3879ntf    fn419296   1.216   1.751   2.590 -0.3452 -0.4579  0.1065
 3879ntf    fn419297   1.399   1.655   2.610 -0.6934 -0.1657  0.2936
 3879ntf    fn419298   1.284   1.719   2.781 -0.2846  0.6716 -0.0516
 3879ntf    on519299   1.547   1.881   2.700  0.0421  0.0824 -0.1112
 3879ntf    on519300   1.391   1.961   2.529  0.4881 -0.5153 -0.4965
 3879ntf    on519301   1.449   1.999   2.990  0.1183  0.1606  0.0149
 3879ntf    on519302   1.248   2.146   2.941 -0.0912 -0.6442 -0.9700
 3879ntf    fn419303   1.400   2.297   2.764  0.1062  0.0467 -0.2652
 3879ntf    fn419304   1.550   2.258   2.900  0.0282  0.0149  0.1071
 3879ntf    fn419305   1.537   2.147   2.714  0.3475 -0.3718 -0.4456
 3880ntf    cn119306   6.365   6.280   5.806  0.1337 -0.1223  0.4216
 3880ntf    sn219307   6.519   6.232   5.889  0.1027 -0.2049  0.4312
 3880ntf    nn319308   6.627   6.303   5.799 -0.1338 -0.1915  0.1568
 3880ntf    sn219309   6.715   6.247   5.681 -0.1305 -0.4205  0.2669
 3880ntf    cn119310   6.879   6.248   5.760 -0.0572 -0.1692  0.1145
 3880ntf    fn419311   6.258   6.208   5.837 -0.0025  0.0214  0.2929
 3880ntf    fn419312   6.338   6.409   5.813  0.1177 -0.0846 -0.2569
 3880ntf    fn419313   6.385   6.260   5.677 -0.7402 -0.2531  0.3002
 3880ntf    on519314   6.508   6.296   6.018  0.0942  0.0475  0.3060
 3880ntf    on519315   6.525   6.088   5.886  1.0051 -0.1755  0.4247
 3880ntf    on519316   6.737   6.343   5.576 -0.0307  0.3711  0.9946
 3880ntf    on519317   6.692   6.112   5.636 -0.3478 -0.1476 -0.4438
 3880ntf    fn419318   6.972   6.177   5.697  0.6265  0.3809  0.4868
 3880ntf    fn419319   6.937   6.366   5.774 -0.7057  0.1164  0.4064
 3880ntf    fn419320   6.867   6.200   5.883 -0.1089 -0.3441  0.0409
 3881ntf    cn119321   0.449   1.592   2.398  0.2579  0.2038 -0.4112
 3881ntf    sn219322   0.629   1.585   2.370  0.3581  0.2448  0.2112
 3881ntf    nn319323   0.654   1.453   2.451  0.3821 -0.1237 -0.3909
 3881ntf    sn219324   0.686   1.320   2.375  0.5595 -0.2386 -0.1157
 3881ntf    cn119325   0.867   1.334   2.367  0.5168  0.2135 -0.2824
 3881ntf    fn419326   0.383   1.666   2.310  0.0446  0.0768 -0.3563
 3881ntf    fn419327   0.407   1.468   2.381 -0.2032  0.3289 -0.2028
 3881ntf    fn419328   0.417   1.629   2.521  0.2726 -0.1249 -0.3085
 3881ntf    on519329   0.655   1.592   2.228 -0.0394  0.1842  0.1324
 3881ntf    on519330   0.679   1.696   2.447 -0.3266  0.9188 -0.2853
 3881ntf    on519331   0.648   1.291   2.239 -0.2753 -0.1813  0.1001
 3881ntf    on519332   0.668   1.214   2.471 -0.4095 -0.2247 -0.2762
 3881ntf    fn419333   0.916   1.455   2.341 -0.0681  0.6077  0.4116
 3881ntf    fn419334   0.917   1.297   2.484 -0.4091 -0.1216  0.0130
 3881ntf    fn419335   0.918   1.249   2.280  0.7060 -0.3453  0.3675
 3882ntf    cn119336   4.298   0.407   1.232  0.1573  0.3150 -0.0468
 3882ntf    sn219337   4.354   0.578   1.254  0.0260  0.3706 -0.1439
 3882ntf    nn319338   4.274   0.641   1.134  0.1726  0.1569 -0.3553
 3882ntf    sn219339   4.150   0.737   1.138  0.2050  0.1892 -0.1111
 3882ntf    cn119340   4.025   0.621   1.073  0.2351 -0.1341  0.3985
 3882ntf    fn419341   4.364   0.332   1.319 -0.0729 -0.5307 -0.5934
 3882ntf    fn419342   4.167   0.392   1.238  0.2817 -0.9541 -0.1100
 3882ntf    fn419343   4.342   0.348   1.122 -0.5740 -0.2204 -0.0582
 3882ntf    on519344   4.320   0.613   1.390  0.5157  0.0455  0.0661
 3882ntf    on519345   4.494   0.568   1.221 -0.0133  0.0675 -0.2140
 3882ntf    on519346   4.156   0.844   1.042 -0.5263 -0.3668 -0.7940
 3882ntf    on519347   4.094   0.767   1.268  0.4328  0.0316  0.0244
 3882ntf    fn419348   4.046   0.496   1.109 -0.1490 -0.3425 -0.1045
 3882ntf    fn419349   3.903   0.657   1.109  0.0854  0.0195 -0.2454
 3882ntf    fn419350   4.029   0.622   0.941 -0.4144 -0.0261  0.3757
 3883ntf    cn119351   0.568   4.386   2.332 -0.5262  0.0296  0.8143
 3883ntf    sn219352   0.517   4.282   2.192  0.4855  0.0635  0.4169
 3883ntf    nn319353   0.441   4.384   2.101 -0.4532 -0.5972  0.4448
 3883ntf    sn219354   0.285   4.397   2.085 -0.2999  0.3698 -0.4159
 3883ntf    cn119355   0.270   4.384   1.904 -0.5242  0.1342 -0.3818
 3883ntf    fn419356   0.684   4.439   2.299 -0.3119 -0.8630  0.1218
 3883ntf    fn419357   0.489   4.490   2.355 -0.3538  0.2526  0.3916
 3883ntf    fn419358   0.585   4.319   2.445 -0.0528 -0.3160  0.5424
 3883ntf    on519359   0.642   4.239   2.133 -0.0480 -0.2373 -0.5112
 3883ntf    on519360   0.447   4.172   2.253  0.0070 -0.0475 -0.3170
 3883ntf    on519361   0.245   4.531   2.118  0.3266  0.6615 -0.8223
 3883ntf    on519362   0.201   4.289   2.132 -0.3242  0.4517 -0.2732
 3883ntf    fn419363   0.344   4.473   1.840  0.3951 -0.3174  0.0257
 3883ntf    fn419364   0.314   4.267   1.863 -0.3523 -0.0326  0.2663
 3883ntf    fn419365   0.145   4.406   1.867 -0.5418 -0.1578 -0.4939
 3884ntf    cn119366   5.598   5.241   6.717  0.1827  0.0244  0.3763
 3884ntf    sn219367   5.540   5.069   6.721 -0.2218  0.1523  0.1307
 3884ntf    nn319368   5.425   5.074   6.614 -0.2342 -0.7693  0.0914
 3884ntf    sn219369   5.271   5.062   6.640 -0.3687  0.3059 -0.1440
 3884ntf    cn119370   5.224   5.051   6.465 -0.0220 -0.0473 -0.2185
 3884ntf    fn419371   5.531   5.319   6.801 -0.6604  0.1131 -0.3558
 3884ntf    fn419372   5.726   5.262   6.738  0.2786  0.2717 -0.4023
 3884ntf    fn419373   5.574   5.297   6.599 -0.1302 -0.2608  0.3016
 3884ntf    on519374   5.656   4.996   6.677 -0.6031 -0.2740 -0.1837
 3884ntf    on519375   5.491   5.048   6.855 -0.1246  0.2965  0.1888
 3884ntf    on519376   5.213   5.186   6.683 -0.0329  0.5412 -0.3684
 3884ntf    on519377   5.216   4.942   6.699 -0.1160  0.0495 -0.4202
 3884ntf    fn419378   5.269   4.941   6.407 -0.2762 -0.3716  0.1872
 3884ntf    fn419379   5.092   5.037   6.460 -0.0183 -0.3538  0.4323
 3884ntf    fn419380   5.268   5.153   6.394  0.1184  0.2790  0.3308
 3885ntf    cn119381   6.523   3.053   5.862 -0.4906  0.3519 -0.0632
 3885ntf    sn219382   6.505   3.046   6.043 -0.1668 -0.0534 -0.0453
 3885ntf    nn319383   6.356   2.996   6.057 -0.1362 -0.0842  0.1727
 3885ntf    sn219384   6.310   2.848   6.032  0.1257 -0.1777  0.2342
 3885ntf    cn119385   6.308   2.776   6.198  0.0033 -0.2823  0.1872
 3885ntf    fn419386   6.453   3.153   5.811 -0.7955  0.2815  0.2115
 3885ntf    fn419387   6.647   3.065   5.820 -0.4448 -0.0938 -0.0600
 3885ntf    fn419388   6.484   2.944   5.798  0.0728  0.1645 -0.0849
 3885ntf    on519389   6.610   2.957   6.086 -0.2051  0.0795  0.3267
 3885ntf    on519390   6.516   3.185   6.078  0.3476 -0.1283  0.0940
 3885ntf    on519391   6.402   2.763   5.961  0.4176  0.1570  0.2060
 3885ntf    on519392   6.174   2.842   5.984  0.4137 -0.0155 -0.6269
 3885ntf    fn419393   6.420   2.782   6.268  0.1550 -0.3321 -0.0503
 3885ntf    fn419394   6.215   2.830   6.275 -0.3293 -0.4169 -0.1214
 3885ntf    fn419395   6.276   2.648   6.195  0.0218 -0.2702 -0.5339
 3886ntf    cn119396   2.486   5.345   2.694 -0.1368 -0.3991 -0.0612
 3886ntf    sn219397   2.332   5.296   2.776 -0.1485 -0.1537  0.0646
 3886ntf    nn319398   2.299   5.421   2.865 -0.2683 -0.1601  0.0297
 3886ntf    sn219399   2.162   5.483   2.910 -0.1548  0.0134  0.1392
 3886ntf    cn119400   2.132   5.408   3.073  0.2965  0.0446  0.2379
 3886ntf    fn419401   2.479   5.431   2.593  0.0249  0.2931  0.5076
 3886ntf    fn419402   2.571   5.409   2.774 -0.0815  0.0373 -0.4626
 3886ntf    fn419403   2.558   5.240   2.656 -0.3261 -0.3738 -0.4974
 3886ntf    on519404   2.237   5.276   2.670 -0.3032 -0.1643  0.2033
 3886ntf    on519405   2.382   5.179   2.845 -0.7687 -0.7040 -0.4050
 3886ntf    on519406   2.052   5.455   2.821 -0.0225 -0.2500  0.0562
 3886ntf    on519407   2.176   5.623   2.940  0.3369 -0.1138  0.5151
 3886ntf    fn419408   2.139   5.276   3.074  0.1971  0.0401  0.3092
 3886ntf    fn419409   2.216   5.445   3.168  0.3025  0.2722  0.1448
 3886ntf    fn419410   2.012   5.438   3.121  0.1088 -0.2930 -0.0157
 3887ntf    cn119411   0.225   6.829   0.755 -0.2870  0.0374  0.2900
 3887ntf    sn219412   0.381   6.772   0.828 -0.2205 -0.2485 -0.0764
 3887ntf    nn319413   0.336   6.642   0.904 -0.0377 -0.4288 -0.2707
 3887ntf    sn219414   0.419   6.514   0.939 -0.0543 -0.3559  0.0373
 3887ntf    cn119415   0.348   6.410   0.809  0.0641 -0.4634  0.0588
 3887ntf    fn419416   0.143   6.731   0.717  0.2497 -0.4665  0.4152
 3887ntf    fn419417   0.152   6.890   0.848 -0.8291 -0.1012 -0.0365
 3887ntf    fn419418   0.241   6.906   0.649  0.3824 -0.3053  0.1363
 3887ntf    on519419   0.468   6.750   0.714 -0.0845 -0.3303  0.0421
 3887ntf    on519420   0.406   6.887   0.911 -0.1414 -0.1783 -0.1957
 3887ntf    on519421   0.377   6.458   1.065 -0.3918  0.0981  0.1293
 3887ntf    on519422   0.559   6.526   0.905 -0.0233 -0.3386  0.1710
 3887ntf    fn419423   0.411   6.294   0.792 -0.1366 -0.4947 -0.5069
 3887ntf    fn419424   0.222   6.377   0.830  0.0877 -0.5895  0.0097
 3887ntf    fn419425   0.364   6.467   0.691  0.5169  0.1662  0.4219
 3888ntf    cn119426   3.837   2.010   0.245  0.0828 -0.4162  0.1022
 3888ntf    sn219427   3.921   2.163   0.194 -0.0601 -0.4113 -0.1194
 3888ntf    nn319428   3.790   2.223   0.132  0.1948  0.6311  0.3289
 3888ntf    sn219429   3.763   2.252  -0.020  0.0511 -0.1007  0.2122
 3888ntf    cn119430   3.583   2.276  -0.011  0.0617 -0.0649  0.3348
 3888ntf    fn419431   3.916   1.921   0.302  0.2290 -0.1074  0.3918
 3888ntf    fn419432   3.740   2.030   0.332 -0.3646 -0.6281 -0.3465
 3888ntf    fn419433   3.780   1.948   0.143  0.3189 -0.4194 -0.0290
 3888ntf    on519434   3.949   2.221   0.323 -0.1884 -0.0836 -0.2367
 3888ntf    on519435   4.024   2.124   0.102  0.2159 -0.4524  0.2031
 3888ntf    on519436   3.779   2.137  -0.105  0.9377  0.5127 -0.4669
 3888ntf    on519437   3.801   2.382  -0.068 -0.4852 -0.0238 -0.0148
 3888ntf    fn419438   3.519   2.309  -0.122  0.2727  0.1307  0.2697
 3888ntf    fn419439   3.521   2.173   0.045 -0.1210 -0.1568 -0.0332
 3888ntf    fn419440   3.560   2.377   0.072 -0.3346 -0.1279  0.3033
 3889ntf    cn119441   0.187   5.420   5.418 -0.1643  0.3892  0.0420
 3889ntf    sn219442   0.088   5.422   5.571  0.0467 -0.0568  0.1877
 3889ntf    nn319443  -0.042   5.486   5.510  0.2129 -0.1383 -0.2588
 3889ntf    sn219444  -0.172   5.525   5.589  0.2763  0.3698 -0.3968
 3889ntf    cn119445  -0.286   5.389   5.548  0.6301  0.0091 -0.1940
 3889ntf    fn419446   0.309   5.372   5.435 -0.3008  0.1791  0.4585
 3889ntf    fn419447   0.131   5.348   5.322  0.4099 -0.0034 -0.0014
 3889ntf    fn419448   0.208   5.539   5.365 -0.0608  0.2733 -0.1800
 3889ntf    on519449   0.076   5.282   5.601 -0.3417 -0.0669 -0.0094
 3889ntf    on519450   0.172   5.514   5.644 -0.1923  0.5002 -0.2305
 3889ntf    on519451  -0.231   5.637   5.522 -0.1306  0.4132  0.0301
 3889ntf    on519452  -0.170   5.525   5.734  0.2553  0.6406 -0.3966
 3889ntf    fn419453  -0.402   5.403   5.609  0.4635 -0.0418 -0.5018
 3889ntf    fn419454  -0.301   5.376   5.418 -0.1404 -0.0744 -0.0987
 3889ntf    fn419455  -0.231   5.279   5.597  0.0091 -0.0493  0.3905
 3890ntf    cn119456   6.147   1.777   0.456 -0.0694 -0.3215  0.0665
 3890ntf    sn219457   6.192   1.734   0.626 -0.0585  0.3049  0.2245
 3890ntf    nn319458   6.048   1.714   0.685 -0.0518  0.1961  0.2055
 3890ntf    sn219459   5.963   1.587   0.721  0.0198  0.0146 -0.2570
 3890ntf    cn119460   5.895   1.553   0.555  0.1236  0.3991 -0.3798
 3890ntf    fn419461   6.255   1.752   0.384 -0.2353 -0.2012 -0.2262
 3890ntf    fn419462   6.040   1.720   0.403  0.0489 -0.5362  0.0599
 3890ntf    fn419463   6.128   1.908   0.449 -0.4818 -0.3834 -0.0417
 3890ntf    on519464   6.280   1.621   0.606 -0.0405  0.3991 -0.2418
 3890ntf    on519465   6.249   1.857   0.677  0.3615  0.2691 -0.1513
 3890ntf    on519466   5.845   1.612   0.801  0.7854 -0.1041  0.9317
 3890ntf    on519467   6.034   1.463   0.739  0.3236  0.2574  0.2372
 3890ntf    fn419468   5.848   1.665   0.503  0.4629  0.6265 -0.2044
 3890ntf    fn419469   5.975   1.495   0.467  0.5540 -0.3404  0.4801
 3890ntf    fn419470   5.789   1.475   0.554  0.1190  0.3837  0.4573
 3891ntf    cn119471   0.595   1.553   6.055  0.0921  0.0742 -0.2483
 3891ntf    sn219472   0.679   1.482   6.200 -0.5040 -0.0453  0.0473
 3891ntf    nn319473   0.554   1.490   6.294 -0.2781 -0.7383  0.4119
 3891ntf    sn219474   0.539   1.613   6.392  0.3438 -0.0672 -0.3204
 3891ntf    cn119475   0.646   1.575   6.534  0.1199 -0.0595 -0.1499
 3891ntf    fn419476   0.575   1.684   6.056  0.1370  0.0846 -0.6383
 3891ntf    fn419477   0.654   1.524   5.941  0.2136  0.5430 -0.3052
 3891ntf    fn419478   0.474   1.500   6.049  0.1599 -0.1011 -0.0721
 3891ntf    on519479   0.707   1.347   6.159  0.1325  0.2466 -0.5161
 3891ntf    on519480   0.791   1.570   6.222 -0.8017  0.1252  0.9118
 3891ntf    on519481   0.404   1.620   6.441  0.2683  0.2228 -0.5726
 3891ntf    on519482   0.578   1.739   6.336 -0.0396 -0.2081 -0.9150
 3891ntf    fn419483   0.769   1.544   6.497  0.3904  0.4832  0.2747
 3891ntf    fn419484   0.658   1.682   6.611  0.6079 -0.2639  0.0628
 3891ntf    fn419485   0.602   1.478   6.612  0.3667 -0.1388 -0.1103
 3892ntf    cn119486   5.020   6.803   6.403  0.1506  0.0525 -0.5528
 3892ntf    sn219487   5.084   6.634   6.382 -0.0718 -0.1351  0.2722
 3892ntf    nn319488   5.108   6.629   6.227 -0.0233 -0.4367  0.2889
 3892ntf    sn219489   5.048   6.537   6.115  0.2242  0.2461 -0.4154
 3892ntf    cn119490   5.186   6.418   6.122 -0.1288 -0.1692 -0.4752
 3892ntf    fn419491   4.931   6.825   6.307  0.3581 -0.0638 -0.7748
 3892ntf    fn419492   4.953   6.827   6.514  0.6866  0.3035 -0.2776
 3892ntf    fn419493   5.113   6.896   6.387 -0.5068  0.9068  0.4405
 3892ntf    on519494   5.210   6.653   6.449  0.2864  0.1500 -0.4684
 3892ntf    on519495   4.981   6.551   6.440 -0.1860  0.0407  0.3245
 3892ntf    on519496   5.068   6.593   5.984  0.7432  0.1134 -0.3967
 3892ntf    on519497   4.926   6.467   6.147 -0.1770  0.7240 -0.8918
 3892ntf    fn419498   5.151   6.304   6.064 -0.3565 -0.1331 -0.4108
 3892ntf    fn419499   5.287   6.466   6.052  0.1118 -0.1651 -0.1265
 3892ntf    fn419500   5.222   6.392   6.246  0.1121  0.1019 -0.4875
 3893ntf    cn119501   3.091   0.264   6.329 -0.2322 -0.0368  0.1577
 3893ntf    sn219502   3.185   0.417   6.357 -0.2402  0.0785 -0.4315
 3893ntf    nn319503   3.122   0.461   6.494 -0.2668  0.3373 -0.5269
 3893ntf    sn219504   3.036   0.582   6.546 -0.0708  0.2613 -0.0204
 3893ntf    cn119505   3.170   0.698   6.587  0.4319 -0.0952 -0.6258
 3893ntf    fn419506   2.962   0.278   6.305 -0.1900  0.2325  0.0809
 3893ntf    fn419507   3.135   0.207   6.219 -0.3488  0.0103  0.0855
 3893ntf    fn419508   3.110   0.181   6.430  0.9050 -0.0403 -0.0478
 3893ntf    on519509   3.324   0.380   6.364 -0.2742  0.0909  0.5232
 3893ntf    on519510   3.143   0.502   6.248  0.2237  0.4069 -0.3590
 3893ntf    on519511   2.966   0.563   6.671  0.1162 -0.1394  0.0233
 3893ntf    on519512   2.957   0.647   6.444 -0.1709 -0.6009 -0.5018
 3893ntf    fn419513   3.117   0.799   6.655 -0.1424 -0.7674 -0.0613
 3893ntf    fn419514   3.257   0.654   6.676  0.1424  0.0719 -0.2554
 3893ntf    fn419515   3.232   0.750   6.482  0.4531  0.3165 -0.4140
 3894ntf    cn119516   5.512   6.308   1.510 -0.2924 -0.0818 -0.0331
 3894ntf    sn219517   5.625   6.434   1.442 -0.4110  0.0752  0.0592
 3894ntf    nn319518   5.565   6.445   1.297  0.0744  0.5295 -0.1083
 3894ntf    sn219519   5.632   6.395   1.164  0.2751 -0.2019  0.2604
 3894ntf    cn119520   5.496   6.290   1.105 -0.1700  0.0932  0.7482
 3894ntf    fn419521   5.517   6.293   1.641  0.0407 -0.1366 -0.0502
 3894ntf    fn419522   5.387   6.341   1.483 -0.2302  0.2185  0.0428
 3894ntf    fn419523   5.527   6.183   1.467  0.5928 -0.2378  0.7152
 3894ntf    on519524   5.591   6.556   1.511 -0.2997  0.2326 -0.1646
 3894ntf    on519525   5.761   6.386   1.442 -0.3541  0.2399 -0.0107
 3894ntf    on519526   5.742   6.302   1.174 -0.0808 -0.6458  0.0774
 3894ntf    on519527   5.642   6.494   1.059 -0.4806 -1.0580 -0.6360
 3894ntf    fn419528   5.535   6.209   1.008  0.3460  1.0132  0.1744
 3894ntf    fn419529   5.443   6.212   1.198 -0.1668 -0.8314 -0.0058
 3894ntf    fn419530   5.400   6.359   1.047  0.2841  0.4472  0.4162
 3895ntf    cn119531   3.984   0.573   2.524 -0.0953  0.0258 -0.1899
 3895ntf    sn219532   4.163   0.583   2.556 -0.1757  0.0243  0.2664
 3895ntf    nn319533   4.164   0.524   2.702  0.1557 -0.6707 -0.0125
 3895ntf    sn219534   4.294   0.509   2.789  0.1488 -0.0312  0.1116
 3895ntf    cn119535   4.295   0.330   2.817  0.1997 -0.0387  0.0624
 3895ntf    fn419536   3.939   0.450   2.509 -0.7029  0.2707 -0.3915
 3895ntf    fn419537   3.916   0.625   2.625  0.3407  0.1586  0.0383
 3895ntf    fn419538   3.949   0.636   2.413 -0.4807  0.0882 -0.0344
 3895ntf    on519539   4.222   0.503   2.451  0.3905  0.6765  0.0816
 3895ntf    on519540   4.192   0.724   2.555  0.5749 -0.1258  0.4865
 3895ntf    on519541   4.273   0.566   2.920  0.2789 -0.0966  0.1609
 3895ntf    on519542   4.422   0.539   2.729 -0.0687 -0.2580 -0.4698
 3895ntf    fn419543   4.180   0.274   2.852  0.1173 -0.1370 -0.3646
 3895ntf    fn419544   4.327   0.263   2.707 -0.1644  0.1510 -0.1605
 3895ntf    fn419545   4.388   0.296   2.905 -0.3599  0.1623  0.7477
 3896ntf    cn119546   1.632   0.505   2.081  0.0157 -0.1961  0.2759
 3896ntf    sn219547   1.674   0.671   2.021 -0.1626 -0.1718  0.2186
 3896ntf    nn319548   1.532   0.730   1.989 -0.1550 -0.2999 -0.0497
 3896ntf    sn219549   1.494   0.880   1.964  0.4544 -0.1749 -0.2414
 3896ntf    cn119550   1.513   0.892   1.784 -0.1619 -0.1690 -0.3101
 3896ntf    fn419551   1.549   0.528   2.182  0.1021 -0.1285  0.3321
 3896ntf    fn419552   1.560   0.428   2.002  0.5808 -0.3980 -0.0460
 3896ntf    fn419553   1.733   0.441   2.138  0.5588  0.2773 -0.1529
 3896ntf    on519554   1.740   0.730   2.135  0.2544 -0.4334  0.1154
 3896ntf    on519555   1.762   0.640   1.911 -0.0027  0.6392  0.1047
 3896ntf    on519556   1.585   0.980   2.013  0.2702  0.0378 -0.3337
 3896ntf    on519557   1.354   0.914   1.977  0.5561 -0.0687  0.6769
 3896ntf    fn419558   1.439   0.988   1.733 -0.1662 -0.0739 -0.1262
 3896ntf    fn419559   1.638   0.918   1.747 -0.0028 -0.0728  0.2885
 3896ntf    fn419560   1.485   0.783   1.716 -0.1303  0.0129 -0.6175
 3897ntf    cn119561   3.941   1.842   4.889  0.4347 -0.7816  0.0552
 3897ntf    sn219562   3.906   1.809   5.065 -0.1268  0.0490  0.1018
 3897ntf    nn319563   3.921   1.952   5.129 -0.1011  0.1687 -0.1675
 3897ntf    sn219564   3.974   1.984   5.273 -0.4392  0.2452 -0.0578
 3897ntf    cn119565   4.136   2.051   5.223 -0.0781 -0.3266  0.3323
 3897ntf    fn419566   3.935   1.732   4.816  0.2071 -0.5662 -0.2476
 3897ntf    fn419567   3.865   1.931   4.828  0.5207 -0.1557  0.8476
 3897ntf    fn419568   4.062   1.894   4.878  0.0712 -0.0103 -0.3564
 3897ntf    on519569   3.769   1.767   5.063 -0.1388  0.1083 -1.0492
 3897ntf    on519570   4.009   1.714   5.098 -0.1567  0.0381  0.1631
 3897ntf    on519571   4.003   1.874   5.362  0.2114  0.2627 -0.2394
 3897ntf    on519572   3.903   2.097   5.327 -0.3582  0.4460 -0.3665
 3897ntf    fn419573   4.128   2.137   5.123 -0.1589  0.0601  0.6685
 3897ntf    fn419574   4.215   2.103   5.316 -0.1012 -0.0663  0.2053
 3897ntf    fn419575   4.206   1.950   5.174  0.2166 -0.1463  0.3806
 3898ntf    cn119576   1.393   3.793   5.723  0.0485  0.4742  0.0466
 3898ntf    sn219577   1.395   3.616   5.679  0.1157  0.5666 -0.3248
 3898ntf    nn319578   1.240   3.591   5.669  0.2537 -0.6634  0.5007
 3898ntf    sn219579   1.172   3.482   5.579 -0.0348 -0.2385  0.2053
 3898ntf    cn119580   1.141   3.577   5.427  0.0242 -0.6920 -0.0916
 3898ntf    fn419581   1.334   3.817   5.839  0.1998 -0.0503  0.2376
 3898ntf    fn419582   1.516   3.840   5.740  0.2840 -0.2074  0.2628
 3898ntf    fn419583   1.332   3.860   5.626 -0.0099  0.0216 -0.2325
 3898ntf    on519584   1.468   3.611   5.555 -0.4083  0.3728 -0.6255
 3898ntf    on519585   1.458   3.556   5.794 -0.1737  0.1770 -0.3692
 3898ntf    on519586   1.040   3.446   5.627 -0.1328 -0.0444  0.0831
 3898ntf    on519587   1.259   3.374   5.539 -0.6078 -0.3840 -0.6764
 3898ntf    fn419588   1.073   3.689   5.444 -0.2100 -0.7657 -0.5195
 3898ntf    fn419589   1.255   3.616   5.374 -0.0236  0.2418  0.4757
 3898ntf    fn419590   1.079   3.512   5.330  0.2762 -0.2961 -0.5192
 3899ntf    cn119591   3.106   0.613   4.024  0.2120 -0.0896 -0.0818
 3899ntf    sn219592   3.060   0.448   4.085  0.0352 -0.0622 -0.1417
 3899ntf    nn319593   3.074   0.381   3.943 -0.1684  0.3669 -0.3675
 3899ntf    sn219594   3.195   0.308   3.875  0.0904  0.3364  0.1222
 3899ntf    cn119595   3.128   0.142   3.843  0.0293  0.3687  0.0833
 3899ntf    fn419596   3.008   0.671   3.956  0.2969  0.3669  0.1793
 3899ntf    fn419597   3.133   0.694   4.125  0.1290  0.0774 -0.1936
 3899ntf    fn419598   3.213   0.605   3.945  0.3266  0.5140  0.0085
 3899ntf    on519599   3.166   0.420   4.178  0.0591  0.2988 -0.0589
 3899ntf    on519600   2.923   0.461   4.127 -0.1104 -0.0260 -0.6173
 3899ntf    on519601   3.311   0.284   3.958 -0.1387 -1.1271  0.0504
 3899ntf    on519602   3.217   0.365   3.745 -0.1207  0.0609 -0.0352
 3899ntf    fn419603   3.198   0.084   3.747 -0.1897 -0.4838  0.4320
 3899ntf    fn419604   3.123   0.054   3.942  0.2890 -0.0158 -0.2447
 3899ntf    fn419605   3.004   0.156   3.798 -0.0231 -0.4122 -0.0337
 3900ntf    cn119606   0.599   5.519   4.456 -0.0401  0.0273  0.2977
 3900ntf    sn219607   0.535   5.421   4.317 -0.1951 -0.0499  0.4220
 3900ntf    nn319608   0.498   5.522   4.203 -0.4009 -0.0735  0.4690
 3900ntf    sn219609   0.422   5.658   4.223 -0.3260  0.0100  0.1891
 3900ntf    cn119610   0.466   5.732   4.063  0.0575 -0.1189  0.2331
 3900ntf    fn419611   0.625   5.452   4.567  0.5856 -0.4592 -0.1373
 3900ntf    fn419612   0.703   5.595   4.426 -0.0809  0.0828  0.2958
 3900ntf    fn419613   0.508   5.603   4.503 -0.2546  0.2468 -0.5069
 3900ntf    on519614   0.647   5.341   4.273 -0.2549  0.0600  0.0734
 3900ntf    on519615   0.422   5.348   4.369 -0.1866 -0.5237 -0.2069
 3900ntf    on519616   0.499   5.753   4.301  0.2430  0.2807 -0.6921
 3900ntf    on519617   0.278   5.662   4.227 -0.3236  0.4229 -0.0265
 3900ntf    fn419618   0.596   5.737   4.041 -0.0326 -0.7317 -0.4793
 3900ntf    fn419619   0.408   5.662   3.967  0.1887 -0.0292  0.0872
 3900ntf    fn419620   0.411   5.851   4.049  0.0433 -0.1594 -0.0590
 3901ntf    cn119621   0.423   6.117   1.153  0.2119 -0.0524 -0.2621
 3901ntf    sn219622   0.501   5.986   1.252 -0.1188  0.1534  0.2764
 3901ntf    nn319623   0.565   5.897   1.140 -0.1668  0.4189  0.0364
 3901ntf    sn219624   0.504   5.797   1.036 -0.1079  0.3274  0.0896
 3901ntf    cn119625   0.647   5.685   1.022  0.0607  0.5240  0.2328
 3901ntf    fn419626   0.355   6.197   1.234 -0.1195  0.0822 -0.6700
 3901ntf    fn419627   0.511   6.191   1.090 -0.1716  0.5580 -0.0905
 3901ntf    fn419628   0.338   6.071   1.063  0.5134 -0.4557 -0.3420
 3901ntf    on519629   0.596   6.062   1.330  0.4309 -0.1619 -0.0860
 3901ntf    on519630   0.400   5.920   1.330 -0.4146 -0.0526 -0.2820
 3901ntf    on519631   0.498   5.854   0.904  0.7733  0.5235  0.1271
 3901ntf    on519632   0.403   5.705   1.081 -0.0442  0.2109 -0.0052
 3901ntf    fn419633   0.678   5.627   1.137  0.0327 -0.1832 -0.1114
 3901ntf    fn419634   0.627   5.593   0.929 -0.4187  0.5714  0.2869
 3901ntf    fn419635   0.758   5.748   0.988  0.3730 -0.2846 -0.2656
 3902ntf    cn119636   3.349   0.251   2.726 -0.0835 -0.4854 -0.0930
 3902ntf    sn219637   3.401   0.400   2.636 -0.0850 -0.4152  0.0227
 3902ntf    nn319638   3.435   0.333   2.498  0.6395 -1.0762  0.5138
 3902ntf    sn219639   3.556   0.367   2.405 -0.1404 -0.0093 -0.1236
 3902ntf    cn119640   3.484   0.300   2.252 -0.1347 -0.0971 -0.0874
 3902ntf    fn419641   3.420   0.144   2.693  0.4475  0.0810 -0.8076
 3902ntf    fn419642   3.352   0.263   2.858  0.4424 -0.4448 -0.1086
 3902ntf    fn419643   3.223   0.221   2.696 -0.2712  0.0733  0.1143
 3902ntf    on519644   3.278   0.475   2.632  0.0321 -0.2375 -0.3027
 3902ntf    on519645   3.507   0.458   2.716 -0.1926  0.2371 -0.3024
 3902ntf    on519646   3.677   0.293   2.428 -0.2275 -0.3112 -0.6254
 3902ntf    on519647   3.582   0.509   2.389 -1.1454  0.1564 -0.3200
 3902ntf    fn419648   3.394   0.375   2.190 -0.1459 -0.2166 -0.2163
 3902ntf    fn419649   3.580   0.283   2.163  0.5920  0.6600  0.5320
 3902ntf    fn419650   3.423   0.184   2.271 -0.6655  0.2741  0.5397
 3903ntf    cn119651   1.583   2.546   3.416 -0.0427  0.3845 -0.1198
 3903ntf    sn219652   1.557   2.457   3.260 -0.0596 -0.1620  0.1907
 3903ntf    nn319653   1.657   2.525   3.160  0.0305 -0.2043  0.2513
 3903ntf    sn219654   1.618   2.595   3.024 -0.0941  0.0722  0.4293
 3903ntf    cn119655   1.780   2.607   2.943 -0.3172 -0.2113 -0.0610
 3903ntf    fn419656   1.546   2.672   3.404 -0.7938  0.1786  0.0113
 3903ntf    fn419657   1.516   2.486   3.514  0.0266  0.5421  0.0246
 3903ntf    fn419658   1.711   2.554   3.451 -0.0425  0.0675 -0.0411
 3903ntf    on519659   1.597   2.319   3.272  0.2311 -0.0933  0.0278
 3903ntf    on519660   1.414   2.465   3.240 -0.1862 -0.5088  0.9190
 3903ntf    on519661   1.575   2.731   3.043  0.2600  0.3082 -0.4422
 3903ntf    on519662   1.542   2.516   2.931  0.0150  0.3963  0.0641
 3903ntf    fn419663   1.814   2.484   2.907  0.0672 -0.0076 -0.4049
 3903ntf    fn419664   1.778   2.684   2.836  0.1613  0.0210  0.0956
 3903ntf    fn419665   1.879   2.655   3.016 -0.3488 -0.5346  0.1995
 3904ntf    cn119666   1.154   3.793   4.390 -0.1029  0.0977 -0.4915
 3904ntf    sn219667   1.333   3.785   4.424 -0.2207  0.2748  0.2012
 3904ntf    nn319668   1.346   3.641   4.486 -0.1601  0.2953  0.2371
 3904ntf    sn219669   1.414   3.601   4.621 -0.3365 -0.0544  0.2233
 3904ntf    cn119670   1.273   3.604   4.737 -0.4788 -0.2131  0.0547
 3904ntf    fn419671   1.124   3.892   4.308 -0.4993  0.2891 -0.1153
 3904ntf    fn419672   1.106   3.688   4.326  0.0006  0.1254 -0.6155
 3904ntf    fn419673   1.080   3.805   4.499  0.4506  0.0864 -0.1036
 3904ntf    on519674   1.383   3.795   4.289 -0.0536  0.1395  0.2524
 3904ntf    on519675   1.351   3.899   4.510 -0.1646  0.5099 -0.1212
 3904ntf    on519676   1.508   3.699   4.671 -0.0386 -0.1396 -0.1695
 3904ntf    on519677   1.456   3.463   4.625  0.1428  0.1021  0.9408
 3904ntf    fn419678   1.301   3.535   4.846  0.0695 -0.0447  0.0261
 3904ntf    fn419679   1.240   3.728   4.768 -0.1846 -0.2064  0.3473
 3904ntf    fn419680   1.167   3.547   4.683 -0.2375 -0.2684 -0.3739
 3905ntf    cn119681   3.944   2.277   4.224  0.1520 -0.6329  0.3853
 3905ntf    sn219682   3.867   2.135   4.307 -0.0061 -0.5640  0.3551
 3905ntf    nn319683   3.986   2.059   4.376  0.2204 -0.3014  0.2570
 3905ntf    sn219684   3.982   1.990   4.517 -0.1839 -0.4768  0.1608
 3905ntf    cn119685   4.047   2.124   4.620 -0.0039 -0.3527 -0.1121
 3905ntf    fn419686   4.009   2.359   4.305 -0.7320 -0.0780  0.5494
 3905ntf    fn419687   4.020   2.246   4.120  0.2908  0.1471  0.2480
 3905ntf    fn419688   3.848   2.350   4.171  0.9437  0.3414  0.2631
 3905ntf    on519689   3.770   2.199   4.394 -0.0950  0.2450 -0.3291
 3905ntf    on519690   3.812   2.065   4.194 -0.0445 -0.2266  0.1622
 3905ntf    on519691   4.084   1.888   4.523  0.2751 -0.0593 -0.4902
 3905ntf    on519692   3.851   1.957   4.569 -0.2532  0.0617  0.3267
 3905ntf    fn419693   4.169   2.164   4.588  0.0247 -0.3379  0.0145
 3905ntf    fn419694   3.980   2.238   4.609 -0.4008 -0.5561  0.1577
 3905ntf    fn419695   4.055   2.090   4.748 -0.6605  0.3526  0.1324
 3906ntf    cn119696   5.342   6.046   1.926 -0.2923  0.3370 -0.3550
 3906ntf    sn219697   5.162   6.023   1.916 -0.2505 -0.3956  0.4432
 3906ntf    nn319698   5.138   6.117   1.792 -0.5648 -0.6123  0.3371
 3906ntf    sn219699   5.034   6.231   1.760 -0.0036 -0.1276  0.2153
 3906ntf    cn119700   4.903   6.134   1.679 -0.2194  0.4875 -0.1742
 3906ntf    fn419701   5.377   6.172   1.948  0.4279  0.1871 -0.6100
 3906ntf    fn419702   5.398   5.976   2.023 -0.0983  0.7928 -0.1347
 3906ntf    fn419703   5.399   6.006   1.813 -0.0856  0.0759 -0.1587
 3906ntf    on519704   5.145   5.883   1.886 -0.0931 -0.2254 -0.4894
 3906ntf    on519705   5.111   6.065   2.045 -0.3046  0.0200  0.2904
 3906ntf    on519706   5.074   6.323   1.657  0.1411 -0.1477  0.2535
 3906ntf    on519707   4.974   6.293   1.876 -0.5009  0.0268 -0.1243
 3906ntf    fn419708   4.826   6.202   1.595  0.4635  0.3839 -0.8962
 3906ntf    fn419709   4.958   6.038   1.607  0.1767  0.1409  0.5798
 3906ntf    fn419710   4.830   6.074   1.771  0.5879  0.3518  0.3940
 3907ntf    cn119711   2.966   2.856   5.472  0.4373  0.1003 -0.1236
 3907ntf    sn219712   3.013   2.959   5.615  0.1430  0.1732 -0.0779
 3907ntf    nn319713   2.883   3.044   5.637 -0.1666 -0.3898  0.3179
 3907ntf    sn219714   2.795   3.072   5.763  0.1506 -0.0013  0.4596
 3907ntf    cn119715   2.888   3.207   5.840  0.4433  0.2193 -0.2744
 3907ntf    fn419716   2.887   2.756   5.506  0.1155  0.4068  0.0355
 3907ntf    fn419717   2.898   2.928   5.384  0.5351  0.0590 -0.2324
 3907ntf    fn419718   3.072   2.812   5.407  1.1449  0.5156  0.7260
 3907ntf    on519719   3.035   2.864   5.721 -0.0954 -0.0541 -0.2295
 3907ntf    on519720   3.124   3.035   5.563  0.2601 -0.0091 -0.0959
 3907ntf    on519721   2.797   2.959   5.852  0.6478 -0.0741  0.3588
 3907ntf    on519722   2.666   3.127   5.726  0.0432 -0.0918  0.6941
 3907ntf    fn419723   2.837   3.255   5.953 -0.1706 -0.7211 -0.1428
 3907ntf    fn419724   3.013   3.172   5.864  0.1153 -0.4811  0.4383
 3907ntf    fn419725   2.890   3.314   5.762 -0.6747 -0.2676 -0.9987
 3908ntf    cn119726   4.975   3.554   3.248  0.4357 -0.4325  0.4974
 3908ntf    sn219727   4.816   3.569   3.335  0.1796 -0.1050 -0.0207
 3908ntf    nn319728   4.714   3.504   3.235 -0.4950  0.5873  0.2091
 3908ntf    sn219729   4.636   3.568   3.115 -0.1537 -0.0040 -0.3375
 3908ntf    cn119730   4.667   3.435   2.996  0.0601 -0.1402 -0.1290
 3908ntf    fn419731   5.081   3.592   3.317  0.2805  0.4030  0.2864
 3908ntf    fn419732   5.002   3.432   3.205  0.0166 -0.3368 -0.0447
 3908ntf    fn419733   4.965   3.625   3.137 -0.3493 -0.0248  0.8140
 3908ntf    on519734   4.833   3.490   3.455  0.8029  0.7877  0.4871
 3908ntf    on519735   4.796   3.711   3.339 -1.3248 -0.2840 -0.5501
 3908ntf    on519736   4.689   3.681   3.043 -0.2773  0.1987 -0.1121
 3908ntf    on519737   4.493   3.555   3.124 -0.0687 -0.6779  0.0740
 3908ntf    fn419738   4.578   3.437   2.898  0.3321 -0.2538 -0.3809
 3908ntf    fn419739   4.787   3.425   2.942 -0.1340 -0.3001 -0.5349
 3908ntf    fn419740   4.650   3.321   3.062  0.1176  0.0587  0.2327
 3909ntf    cn119741   2.098   2.158   3.840 -0.6814 -0.0208 -0.1928
 3909ntf    sn219742   2.080   2.285   3.711 -0.2013 -0.0487 -0.2878
 3909ntf    nn319743   2.027   2.206   3.586 -0.2082  0.0282 -0.3333
 3909ntf    sn219744   2.109   2.175   3.455 -0.0689  0.0404 -0.2496
 3909ntf    cn119745   2.076   2.327   3.362  0.1370  0.1443 -0.1521
 3909ntf    fn419746   1.984   2.102   3.879 -0.3328 -0.2449  0.5209
 3909ntf    fn419747   2.181   2.062   3.803 -0.0826  0.4810 -0.1724
 3909ntf    fn419748   2.158   2.204   3.949  0.0416 -0.4529 -0.4024
 3909ntf    on519749   1.979   2.361   3.778 -0.2671 -0.2638 -0.1413
 3909ntf    on519750   2.205   2.354   3.692 -0.3402  0.5100  0.7573
 3909ntf    on519751   2.037   2.073   3.383 -0.1970 -0.3743  0.4549
 3909ntf    on519752   2.252   2.163   3.467 -0.1305  0.0883  0.5742
 3909ntf    fn419753   1.949   2.343   3.330 -0.0707 -0.5427  0.3077
 3909ntf    fn419754   2.115   2.442   3.416 -0.0581  0.2190 -0.1698
 3909ntf    fn419755   2.134   2.312   3.244  0.0109 -0.3254 -0.1550
 3910ntf    cn119756   6.770   0.969   1.815 -0.1619  0.0052 -0.1557
 3910ntf    sn219757   6.681   0.947   1.972 -0.0684  0.1866 -0.0769
 3910ntf    nn319758   6.737   0.804   2.002 -0.5410  0.0302  0.0762
 3910ntf    sn219759   6.677   0.665   1.960 -0.3195 -0.0238 -0.0638
 3910ntf    cn119760   6.608   0.606   2.117  0.1781  0.0076  0.1697
 3910ntf    fn419761   6.758   1.097   1.780  0.2946  0.0929  0.0072
 3910ntf    fn419762   6.901   0.957   1.830 -0.1859  0.3016  0.3498
 3910ntf    fn419763   6.723   0.900   1.713 -0.2928  0.2074 -0.2346
 3910ntf    on519764   6.740   1.050   2.055  0.8119 -0.1214 -0.3130
 3910ntf    on519765   6.541   0.961   1.940 -0.0125 -0.3475 -0.5610
 3910ntf    on519766   6.786   0.575   1.928 -0.4647 -0.2603  0.1059
 3910ntf    on519767   6.568   0.666   1.866  0.2696 -0.3084 -0.7599
 3910ntf    fn419768   6.685   0.589   2.223 -0.1825 -0.5493  0.3490
 3910ntf    fn419769   6.513   0.691   2.152  0.1536  0.1985 -0.3526
 3910ntf    fn419770   6.540   0.493   2.101  0.6451 -0.2595  0.0302
 3911ntf    cn119771   6.297   0.085   4.738  0.2485  0.3709 -0.1784
 3911ntf    sn219772   6.394   0.090   4.892  0.0681  0.0640 -0.0552
 3911ntf    nn319773   6.348   0.220   4.966  0.5817  0.0896  0.2236
 3911ntf    sn219774   6.270   0.226   5.102 -0.2479  0.0802 -0.2447
 3911ntf    cn119775   6.104   0.165   5.059 -0.2930 -0.3237  0.4907
 3911ntf    fn419776   6.352  -0.015   4.669 -0.2682 -0.0025 -0.0491
 3911ntf    fn419777   6.169   0.057   4.749  0.3977 -0.4308 -0.3763
 3911ntf    fn419778   6.309   0.194   4.664 -0.5071  0.0613 -0.7786
 3911ntf    on519779   6.355  -0.033   4.958  0.5006 -0.0343  0.0177
 3911ntf    on519780   6.531   0.098   4.848  0.2372 -0.2860  0.4055
 3911ntf    on519781   6.257   0.364   5.142  0.6798  0.1623 -0.2247
 3911ntf    on519782   6.313   0.134   5.204  0.1160 -0.3857 -0.8178
 3911ntf    fn419783   6.029   0.262   5.010  0.5485 -0.1846 -0.5737
 3911ntf    fn419784   6.103   0.072   4.965 -0.0256 -0.6298  0.7856
 3911ntf    fn419785   6.046   0.117   5.168 -0.5703 -0.2246  0.3862
 3912ntf    cn119786   4.927   6.275   4.211 -0.1548  0.3660  0.0917
 3912ntf    sn219787   4.749   6.257   4.179 -0.0795  0.2728 -0.2812
 3912ntf    nn319788   4.713   6.164   4.300  0.4513  0.6387  0.1606
 3912ntf    sn219789   4.708   6.196   4.454  0.0307 -0.1635  0.3193
 3912ntf    cn119790   4.530   6.188   4.492 -0.2450  0.5405 -0.7554
 3912ntf    fn419791   4.990   6.346   4.119 -0.2039 -0.7134 -0.7997
 3912ntf    fn419792   4.945   6.337   4.326  0.3653 -0.2124  0.3299
 3912ntf    fn419793   4.996   6.162   4.217 -0.5720  0.1078  0.0595
 3912ntf    on519794   4.692   6.390   4.178 -0.8663 -0.0586 -0.3734
 3912ntf    on519795   4.742   6.187   4.053 -0.3508 -0.2439  0.0182
 3912ntf    on519796   4.736   6.333   4.488  0.4249 -0.0715 -0.3513
 3912ntf    on519797   4.772   6.090   4.527  0.3689  0.3403  0.7542
 3912ntf    fn419798   4.510   6.212   4.621  0.1878 -0.1731 -0.5516
 3912ntf    fn419799   4.452   6.267   4.420 -0.5101  0.4754 -0.5433
 3912ntf    fn419800   4.485   6.067   4.464  0.2112  0.1207  0.2885
 3913ntf    cn119801   2.630   0.944   6.263 -0.4795 -0.2166  0.3196
 3913ntf    sn219802   2.580   1.043   6.407  0.1800  0.3685  0.1519
 3913ntf    nn319803   2.710   1.041   6.496 -0.1906 -0.5510  0.6954
 3913ntf    sn219804   2.764   1.150   6.595 -0.1748 -0.1328  0.2333
 3913ntf    cn119805   2.874   1.246   6.488 -0.2096 -0.1160  0.2128
 3913ntf    fn419806   2.716   1.003   6.182 -0.5639 -0.4215  0.0787
 3913ntf    fn419807   2.688   0.838   6.314  0.0681  0.1238  0.4063
 3913ntf    fn419808   2.531   0.895   6.190  0.1024 -0.1589 -0.5271
 3913ntf    on519809   2.545   1.163   6.337 -0.0343 -0.0277 -0.4285
 3913ntf    on519810   2.480   0.956   6.464  0.3198 -0.2092 -0.4666
 3913ntf    on519811   2.856   1.094   6.690  0.0815 -0.0249  0.0492
 3913ntf    on519812   2.672   1.247   6.649  0.4130  0.4741  0.1462
 3913ntf    fn419813   2.915   1.358   6.546 -0.2306  0.0915 -0.1626
 3913ntf    fn419814   2.985   1.181   6.455 -0.2188 -0.1501  0.2490
 3913ntf    fn419815   2.819   1.285   6.374  0.2722 -0.4712 -0.1480
 3914ntf    cn119816   6.535   1.790   4.159 -0.0438 -0.2239 -0.4857
 3914ntf    sn219817   6.389   1.868   4.083 -0.1917 -0.1905 -0.1692
 3914ntf    nn319818   6.357   1.765   3.970 -0.0052 -0.4030 -0.0290
 3914ntf    sn219819   6.216   1.710   3.929 -0.3265  0.2416  0.2049
 3914ntf    cn119820   6.186   1.576   4.047  0.2352 -0.2106 -0.1634
 3914ntf    fn419821   6.505   1.674   4.215  0.0596 -0.0801 -0.1315
 3914ntf    fn419822   6.622   1.761   4.063  0.3502 -0.2394 -0.1263
 3914ntf    fn419823   6.588   1.870   4.250 -0.3634 -0.6642  0.0939
 3914ntf    on519824   6.285   1.881   4.182 -0.1532  0.8305 -0.2480
 3914ntf    on519825   6.443   1.991   4.030 -0.3163 -0.1917 -0.2983
 3914ntf    on519826   6.217   1.635   3.806  0.1104  0.4625  0.0725
 3914ntf    on519827   6.110   1.804   3.954 -0.2958  0.2511  0.2968
 3914ntf    fn419828   6.277   1.480   4.032 -0.0382 -0.3516 -0.9564
 3914ntf    fn419829   6.199   1.615   4.173  0.2454  0.1800 -0.2847
 3914ntf    fn419830   6.070   1.512   4.037  0.0198  0.1476  0.0495
 3915ntf    cn119831   4.075   0.297   3.705  0.1677 -0.0348 -0.2145
 3915ntf    sn219832   3.953   0.337   3.577 -0.0945  0.1669  0.0970
 3915ntf    nn319833   3.826   0.273   3.645  0.2091 -0.2755  0.2528
 3915ntf    sn219834   3.719   0.341   3.737  0.0054 -0.0188 -0.1738
 3915ntf    cn119835   3.583   0.383   3.623 -0.1696  0.1161  0.0821
 3915ntf    fn419836   4.193   0.351   3.677 -0.0213  0.1858 -0.5866
 3915ntf    fn419837   4.029   0.345   3.820  0.3776 -0.3618  0.0096
 3915ntf    fn419838   4.108   0.171   3.730  0.0473  0.0159  0.2150
 3915ntf    on519839   3.968   0.480   3.577 -0.3941  0.2023  0.4516
 3915ntf    on519840   3.990   0.268   3.456  0.4097  0.2174  0.2205
 3915ntf    on519841   3.763   0.466   3.793  0.2853  0.0438 -0.5308
 3915ntf    on519842   3.658   0.246   3.827 -0.2653  0.3457  0.0303
 3915ntf    fn419843   3.631   0.441   3.514 -0.2276  0.0859  0.0407
 3915ntf    fn419844   3.518   0.281   3.571  0.1554  0.0703 -0.2454
 3915ntf    fn419845   3.495   0.468   3.673  0.0365  0.3342  0.0776
 3916ntf    cn119846   2.089   5.380   3.731 -0.0562  0.0166 -0.0728
 3916ntf    sn219847   2.057   5.252   3.606 -0.2240 -0.0180  0.0065
 3916ntf    nn319848   1.949   5.166   3.681 -0.3866  0.5663  0.4476
 3916ntf    sn219849   1.919   5.012   3.670 -0.2278  0.5494  0.2657
 3916ntf    cn119850   2.024   4.948   3.803 -0.0461 -0.0400 -0.1596
 3916ntf    fn419851   1.975   5.433   3.771  0.1286  0.4456 -0.1055
 3916ntf    fn419852   2.147   5.341   3.843 -0.3616 -0.3220 -0.0342
 3916ntf    fn419853   2.166   5.478   3.685 -0.3117  0.2990  0.1025
 3916ntf    on519854   2.000   5.328   3.498  0.0607 -0.4671 -0.4644
 3916ntf    on519855   2.190   5.200   3.591  0.0668  0.6265  0.3147
 3916ntf    on519856   1.956   4.955   3.543  0.2270  0.6265  0.3602
 3916ntf    on519857   1.788   4.981   3.722  0.0942 -0.2958  0.5855
 3916ntf    fn419858   2.005   5.003   3.922 -0.1480  0.3696 -0.3659
 3916ntf    fn419859   2.020   4.818   3.827 -0.0127 -0.0125 -0.0057
 3916ntf    fn419860   2.152   4.974   3.778 -0.1534  0.3760 -0.2686
 3917ntf    cn119861   4.565   5.223   0.773  0.0350  0.4288  0.5162
 3917ntf    sn219862   4.483   5.270   0.618  0.3982 -0.1410  0.1459
 3917ntf    nn319863   4.337   5.295   0.670  0.4475  0.1549  0.1433
 3917ntf    sn219864   4.224   5.191   0.699  0.4318  0.0462 -0.3027
 3917ntf    cn119865   4.149   5.181   0.534 -0.4384  0.3852  0.0618
 3917ntf    fn419866   4.514   5.108   0.813  0.5938 -0.0904 -0.2353
 3917ntf    fn419867   4.694   5.197   0.761 -0.1360 -0.5334  0.6401
 3917ntf    fn419868   4.553   5.323   0.859  0.4541  0.4711  0.5281
 3917ntf    on519869   4.555   5.388   0.577  0.5877 -0.2440  0.1858
 3917ntf    on519870   4.487   5.156   0.530 -0.1368  0.1559 -0.2764
 3917ntf    on519871   4.116   5.248   0.777  0.2191  0.5649 -0.9690
 3917ntf    on519872   4.265   5.057   0.732  0.3983  0.0469 -0.2579
 3917ntf    fn419873   4.034   5.117   0.543 -0.2557  0.0108 -0.2189
 3917ntf    fn419874   4.127   5.301   0.483  0.5346  0.2966 -0.5871
 3917ntf    fn419875   4.221   5.117   0.443  0.0913 -0.2885  0.9467
 3918ntf    cn119876   7.058   4.636   1.058 -0.1048  0.0353  0.2340
 3918ntf    sn219877   7.135   4.796   1.016  0.2696 -0.1804  0.0949
 3918ntf    nn319878   7.081   4.884   1.134 -0.0057  0.2596 -0.3602
 3918ntf    sn219879   6.957   4.981   1.133 -0.0125  0.2541 -0.0558
 3918ntf    cn119880   7.031   5.141   1.087 -0.0122  0.2765  0.0225
 3918ntf    fn419881   7.095   4.590   1.176  0.5505  0.0849  0.0535
 3918ntf    fn419882   6.927   4.647   1.071 -0.1473 -0.2186  0.0261
 3918ntf    fn419883   7.086   4.544   0.967  0.0701  0.3878 -0.0734
 3918ntf    on519884   7.276   4.772   1.033  0.3566  0.1966 -0.1019
 3918ntf    on519885   7.088   4.829   0.884 -0.1893  0.1062  0.3298
 3918ntf    on519886   6.907   5.007   1.266  0.2885  0.5458  0.0031
 3918ntf    on519887   6.862   4.956   1.028  0.3347  0.3374 -0.3897
 3918ntf    fn419888   7.098   5.188   1.191 -0.0900 -0.4002  0.3882
 3918ntf    fn419889   7.111   5.137   0.982  0.0778 -0.4182  0.1110
 3918ntf    fn419890   6.940   5.231   1.054  0.1443  0.6682  0.6401
 3919ntf    cn119891   1.068   4.577   3.282 -0.5240  0.2342 -0.0613
 3919ntf    sn219892   1.134   4.705   3.393  0.2576 -0.4160  0.2381
 3919ntf    nn319893   1.213   4.612   3.491  0.6695  0.4769  0.7678
 3919ntf    sn219894   1.359   4.556   3.475  0.3320 -0.1337 -0.2763
 3919ntf    cn119895   1.460   4.675   3.568  0.1048 -0.0189 -0.1765
 3919ntf    fn419896   1.008   4.485   3.355  0.1572 -0.3326 -0.2061
 3919ntf    fn419897   0.972   4.626   3.206 -0.4297  0.3135 -0.1307
 3919ntf    fn419898   1.155   4.515   3.203 -0.4110 -0.0912  0.3136
 3919ntf    on519899   1.204   4.789   3.300 -0.3389 -0.0785  0.0847
 3919ntf    on519900   1.012   4.761   3.448  0.2665 -0.1169 -0.0449
 3919ntf    on519901   1.407   4.557   3.339  0.3921 -0.6440 -0.2607
 3919ntf    on519902   1.369   4.428   3.541 -0.0973  0.2636  0.5676
 3919ntf    fn419903   1.589   4.648   3.565  0.0455 -0.2893 -0.2876
 3919ntf    fn419904   1.446   4.795   3.514 -0.1330  0.2619  0.4952
 3919ntf    fn419905   1.412   4.693   3.690 -0.2467 -0.3726 -0.2591
 3920ntf    cn119906   3.898   1.131   2.151  0.1899  0.3480 -0.1753
 3920ntf    sn219907   3.910   1.147   2.332  0.1639 -0.0078 -0.1430
 3920ntf    nn319908   4.011   1.267   2.338  0.2455 -0.0973  0.2784
 3920ntf    sn219909   4.167   1.255   2.355  0.2496 -0.4687 -0.0061
 3920ntf    cn119910   4.213   1.388   2.240  0.0247 -0.3693  0.0185
 3920ntf    fn419911   4.020   1.115   2.102  0.2438 -0.1301  0.1136
 3920ntf    fn419912   3.827   1.027   2.112  0.5463  0.0572 -0.0524
 3920ntf    fn419913   3.842   1.236   2.092 -0.0305  0.0313 -0.5334
 3920ntf    on519914   3.775   1.186   2.361  0.4013  0.2755  0.5847
 3920ntf    on519915   3.947   1.016   2.382 -0.4649 -0.2733 -0.3624
 3920ntf    on519916   4.231   1.141   2.295 -0.0880 -0.3518 -0.5988
 3920ntf    on519917   4.225   1.302   2.478 -0.1964 -0.2469  0.1204
 3920ntf    fn419918   4.181   1.358   2.116 -0.7191 -0.4442  0.2250
 3920ntf    fn419919   4.148   1.500   2.271 -0.0203 -0.3482 -0.1532
 3920ntf    fn419920   4.341   1.421   2.236 -0.1078  0.1803  0.1529
 3921ntf    cn119921   6.280   6.731   6.520 -0.0816  0.0080  0.2140
 3921ntf    sn219922   6.219   6.851   6.398 -0.2077 -0.2400  0.0307
 3921ntf    nn319923   6.172   6.746   6.292 -0.1767 -0.3119  0.0884
 3921ntf    sn219924   6.183   6.761   6.136 -0.0742  0.2054  0.1428
 3921ntf    cn119925   6.297   6.622   6.108 -0.2666  0.0765 -0.0028
 3921ntf    fn419926   6.381   6.659   6.474 -0.6547 -0.5406 -0.2063
 3921ntf    fn419927   6.321   6.783   6.635  0.3812  0.2069 -0.0380
 3921ntf    fn419928   6.186   6.650   6.567  0.0114 -0.2277 -0.0017
 3921ntf    on519929   6.118   6.927   6.468  0.4394  0.3448  0.3488
 3921ntf    on519930   6.335   6.929   6.364 -0.1312 -0.2751  0.2074
 3921ntf    on519931   6.266   6.864   6.080 -0.6193  0.3692 -0.3750
 3921ntf    on519932   6.063   6.726   6.063  0.1951 -0.3260 -0.0544
 3921ntf    fn419933   6.284   6.529   6.201  0.4234  0.4157  0.4397
 3921ntf    fn419934   6.280   6.559   5.993 -0.2826  0.0307  0.0236
 3921ntf    fn419935   6.423   6.661   6.106 -0.3047  0.1979 -0.0216
 3922ntf    cn119936   4.580   1.187   1.711  0.5863 -0.0629 -0.1251
 3922ntf    sn219937   4.718   1.110   1.621  0.5072 -0.0550 -0.2533
 3922ntf    nn319938   4.750   0.986   1.712  0.2045  0.0420 -0.0114
 3922ntf    sn219939   4.667   0.854   1.728  0.4279 -0.0770  0.1629
 3922ntf    cn119940   4.672   0.846   1.910  0.0767 -0.2392  0.1669
 3922ntf    fn419941   4.469   1.125   1.674  0.5063  0.2054 -0.3469
 3922ntf    fn419942   4.586   1.184   1.843 -0.2577 -0.2593 -0.0835
 3922ntf    fn419943   4.557   1.313   1.677 -0.5408 -0.4379 -0.8259
 3922ntf    on519944   4.655   1.081   1.494  0.0233  0.3648 -0.1153
 3922ntf    on519945   4.825   1.207   1.615  0.4676 -0.0219 -0.4381
 3922ntf    on519946   4.738   0.734   1.692  0.2489 -0.1689  0.1171
 3922ntf    on519947   4.525   0.852   1.700  0.2456  0.4871  0.9826
 3922ntf    fn419948   4.602   0.945   1.962  0.0538 -0.1459 -0.0390
 3922ntf    fn419949   4.624   0.731   1.955 -0.1203 -0.0313  0.4904
 3922ntf    fn419950   4.793   0.861   1.962  0.2291  0.2057 -0.3075
 3923ntf    cn119951   5.454   3.622   2.833 -0.1488  0.0343  0.1707
 3923ntf    sn219952   5.546   3.500   2.734 -0.0365  0.1862  0.0888
 3923ntf    nn319953   5.687   3.569   2.733 -0.1175  0.3495 -0.1286
 3923ntf    sn219954   5.830   3.506   2.753 -0.3046  0.0232  0.1877
 3923ntf    cn119955   5.865   3.552   2.925  0.2931  0.0801  0.0506
 3923ntf    fn419956   5.521   3.638   2.946  0.2882  0.1480 -0.1001
 3923ntf    fn419957   5.451   3.742   2.777 -0.0257 -0.2350 -0.4195
 3923ntf    fn419958   5.328   3.586   2.852  0.0069 -0.7936 -0.2761
 3923ntf    on519959   5.526   3.384   2.816 -0.0941 -0.0681 -0.2826
 3923ntf    on519960   5.488   3.495   2.602  0.3369  0.3158 -0.0839
 3923ntf    on519961   5.927   3.583   2.680 -0.1193  0.0511  0.4621
 3923ntf    on519962   5.844   3.363   2.756 -0.3474  0.0145  0.0310
 3923ntf    fn419963   5.795   3.493   3.020  0.0064  0.3550  0.0133
 3923ntf    fn419964   5.992   3.529   2.957  0.3403 -0.3107 -0.4116
 3923ntf    fn419965   5.848   3.682   2.944  0.0040  0.0789 -0.2002
 3924ntf    cn119966   6.226   3.843   3.810  0.2693 -0.3092 -0.4134
 3924ntf    sn219967   6.193   3.988   3.704  0.0330 -0.0386  0.0269
 3924ntf    nn319968   6.171   3.920   3.565  0.3194 -0.1192  0.0198
 3924ntf    sn219969   6.038   3.929   3.481  0.2417 -0.0780  0.1468
 3924ntf    cn119970   6.089   3.940   3.306  0.0566 -0.2357  0.0827
 3924ntf    fn419971   6.259   3.880   3.933 -0.2180 -0.0122 -0.3639
 3924ntf    fn419972   6.136   3.748   3.831  0.3401 -0.1465  0.7142
 3924ntf    fn419973   6.327   3.777   3.757  0.5141 -0.0514 -0.2714
 3924ntf    on519974   6.088   4.060   3.773  0.2237 -0.1385  0.4249
 3924ntf    on519975   6.318   4.059   3.703  0.1899 -0.2969  0.5971
 3924ntf    on519976   5.964   4.052   3.498  0.0072 -0.2836  0.6010
 3924ntf    on519977   5.965   3.806   3.485 -0.5398  0.3671 -0.1620
 3924ntf    fn419978   6.123   3.826   3.250 -0.3268 -0.2495 -0.1246
 3924ntf    fn419979   5.989   3.992   3.236  0.2539  0.7113  0.4836
 3924ntf    fn419980   6.190   4.024   3.293  0.1310 -0.3377  0.0015
 3925ntf    cn119981   3.385   1.988   1.526 -0.2155  0.0408 -0.2831
 3925ntf    sn219982   3.230   1.903   1.483 -0.3019  0.0535  0.0022
 3925ntf    nn319983   3.176   1.848   1.620 -0.1521  0.1628  0.1060
 3925ntf    sn219984   3.030   1.814   1.665 -0.0833  0.3330  0.4587
 3925ntf    cn119985   2.995   1.971   1.750 -0.1036  0.3834  0.3576
 3925ntf    fn419986   3.440   1.943   1.637  0.4281 -0.3061 -0.7371
 3925ntf    fn419987   3.483   1.966   1.440  0.1744 -0.0409  0.1777
 3925ntf    fn419988   3.367   2.118   1.542  0.2401  0.0432  0.2451
 3925ntf    on519989   3.150   2.011   1.429  0.3041  0.5043 -0.0122
 3925ntf    on519990   3.270   1.804   1.387 -0.0011  0.0923  0.0852
 3925ntf    on519991   3.027   1.722   1.777 -0.2093  0.1711  0.3237
 3925ntf    on519992   2.923   1.809   1.568  0.0129 -0.0514  0.3705
 3925ntf    fn419993   2.981   2.067   1.661 -0.4123  0.4015  0.4265
 3925ntf    fn419994   2.887   1.975   1.826 -0.2942  1.0213  0.0517
 3925ntf    fn419995   3.092   2.005   1.834  0.1843  0.1261  0.1338
 3926ntf    cn119996   6.753   2.070   0.430 -0.1739 -0.7366  0.0562
 3926ntf    sn219997   6.812   1.914   0.357  0.1411 -0.5409 -0.1092
 3926ntf    nn319998   6.880   1.847   0.482 -0.0226  0.0504  0.3034
 3926ntf    sn219999   7.009   1.760   0.500 -0.0177 -0.0609 -0.2561
 3926ntf    cn120000   6.964   1.606   0.414  0.2418 -0.1510 -0.2337
 3926ntf    fn420001   6.708   2.159   0.343  0.0513 -0.2655  0.4140
 3926ntf    fn420002   6.660   2.053   0.523 -0.1309  0.1125  0.2591
 3926ntf    fn420003   6.856   2.124   0.493 -0.2919  0.1633 -0.5024
 3926ntf    on520004   6.687   1.854   0.317  0.0357  0.0146 -0.6357
 3926ntf    on520005   6.901   1.957   0.252  0.4754  0.0335  0.3998
 3926ntf    on520006   7.016   1.720   0.638 -0.5878  0.3620 -0.1033
 3926ntf    on520007   7.132   1.815   0.448  0.4027  0.1763  0.9655
 3926ntf    fn420008   6.924   1.628   0.289 -0.2203 -0.0057 -0.0648
 3926ntf    fn420009   7.066   1.524   0.404  0.1716 -0.3142  0.3643
 3926ntf    fn420010   6.869   1.541   0.479 -0.0818  0.2734 -0.2755
 3927ntf    cn120011   0.919   6.841   4.566  0.2769 -0.1821 -0.0667
 3927ntf    sn220012   0.960   6.664   4.580  0.3111 -0.1847 -0.2066
 3927ntf    nn320013   1.056   6.667   4.703  0.0235  0.3983  0.0099
 3927ntf    sn220014   1.202   6.724   4.712  0.2430 -0.1064 -0.3139
 3927ntf    cn120015   1.310   6.581   4.740  0.2351  0.0249  0.3929
 3927ntf    fn420016   1.008   6.916   4.504 -0.0932  0.5256  0.2454
 3927ntf    fn420017   0.811   6.860   4.493  0.3732  0.3764 -0.0697
 3927ntf    fn420018   0.904   6.899   4.684  0.0461 -0.5251  0.0771
 3927ntf    on520019   0.834   6.598   4.606  0.1972  0.1602  0.1295
 3927ntf    on520020   1.024   6.624   4.457  0.0255 -0.6872 -0.1934
 3927ntf    on520021   1.232   6.807   4.826  0.4713 -0.3466 -0.1965
 3927ntf    on520022   1.247   6.771   4.583  0.3594 -0.2268 -0.3178
 3927ntf    fn420023   1.270   6.500   4.838 -0.7766  0.2638  0.1864
 3927ntf    fn420024   1.333   6.513   4.629  0.0191  0.3642  0.1402
 3927ntf    fn420025   1.434   6.616   4.771  0.3762 -0.2708  0.1732
 3928ntf    cn120026   2.648   1.683   5.075  0.0513 -0.2579  0.0653
 3928ntf    sn220027   2.827   1.655   5.063  0.1068  0.1505 -0.0809
 3928ntf    nn320028   2.861   1.694   4.915  0.1127 -0.5811 -0.2781
 3928ntf    sn220029   2.958   1.804   4.857  0.1514 -0.5184 -0.0986
 3928ntf    cn120030   2.843   1.944   4.869  0.5535 -0.2101  0.1308
 3928ntf    fn420031   2.631   1.813   5.059 -0.3051 -0.2311  0.6459
 3928ntf    fn420032   2.584   1.622   4.978  0.0537 -0.0708 -0.0539
 3928ntf    fn420033   2.591   1.656   5.191  0.1700  0.3196  0.2629
 3928ntf    on520034   2.874   1.755   5.156 -0.0944  0.3459 -0.1896
 3928ntf    on520035   2.861   1.521   5.105  0.0660  0.2188  0.1715
 3928ntf    on520036   2.979   1.793   4.714 -0.0411 -0.0319 -0.1658
 3928ntf    on520037   3.076   1.834   4.933 -0.2297  0.1387  0.2437
 3928ntf    fn420038   2.724   1.920   4.818  0.7111 -0.0317 -0.3251
 3928ntf    fn420039   2.820   1.981   4.994 -0.3121 -0.1431 -0.0441
 3928ntf    fn420040   2.890   2.052   4.809  0.1884 -0.0411  0.1484
 3929ntf    cn120041   3.710   6.585   6.832  0.1740 -0.1260 -0.1432
 3929ntf    sn220042   3.609   6.719   6.903 -0.3740 -0.5758 -0.0656
 3929ntf    nn320043   3.470   6.677   6.843 -0.4096 -0.6996  0.1026
 3929ntf    sn220044   3.415   6.721   6.702 -0.1820 -0.0531  0.2123
 3929ntf    cn120045   3.314   6.579   6.652 -0.0049 -0.0682 -0.1043
 3929ntf    fn420046   3.716   6.481   6.914  0.2822  0.0760  0.1087
 3929ntf    fn420047   3.654   6.539   6.722 -0.3624  0.1921 -0.0063
 3929ntf    fn420048   3.835   6.615   6.803  0.1716  0.2011  0.1803
 3929ntf    on520049   3.604   6.713   7.047 -0.2156  0.7704  0.0114
 3929ntf    on520050   3.664   6.836   6.839 -0.0779 -0.8014 -0.2241
 3929ntf    on520051   3.511   6.727   6.595 -0.0665  0.1708  0.3268
 3929ntf    on520052   3.334   6.840   6.720  0.2175  0.2374  0.1056
 3929ntf    fn420053   3.376   6.463   6.659 -0.2446 -0.2051 -0.2189
 3929ntf    fn420054   3.207   6.572   6.730  0.5721 -0.2500  0.6830
 3929ntf    fn420055   3.264   6.593   6.530 -0.6652 -0.1956  0.1448
 3930ntf    cn120056   3.707   5.797   2.800 -0.1286  0.3130  0.3653
 3930ntf    sn220057   3.639   5.665   2.695  0.0525  0.2783  0.2918
 3930ntf    nn320058   3.650   5.543   2.793  0.1671  0.0622  0.0138
 3930ntf    sn220059   3.579   5.406   2.764  0.3417 -0.0319  0.0343
 3930ntf    cn120060   3.422   5.412   2.854  0.2628 -0.1384 -0.0959
 3930ntf    fn420061   3.840   5.795   2.805 -0.0936  0.8662 -0.2307
 3930ntf    fn420062   3.665   5.913   2.753  0.1722 -0.0205 -0.7697
 3930ntf    fn420063   3.659   5.787   2.923 -0.1392  0.0272  0.3404
 3930ntf    on520064   3.504   5.702   2.659  0.0594 -0.4777 -0.5626
 3930ntf    on520065   3.730   5.651   2.584 -0.2314  0.1425  0.0748
 3930ntf    on520066   3.646   5.292   2.822 -0.2543 -0.2805  0.2448
 3930ntf    on520067   3.541   5.385   2.626 -0.4159  0.1574  0.2115
 3930ntf    fn420068   3.356   5.297   2.846  0.3075 -0.1629 -0.1091
 3930ntf    fn420069   3.452   5.415   2.983  0.5111 -0.2908 -0.1506
 3930ntf    fn420070   3.345   5.517   2.828 -0.0214 -0.2950  0.0940
 3931ntf    cn120071   5.273   1.056   2.285  0.0117 -0.1332  0.1218
 3931ntf    sn220072   5.123   0.982   2.357  0.1017 -0.2170  0.2247
 3931ntf    nn320073   5.087   0.870   2.253  0.3040  0.4493 -0.5728
 3931ntf    sn220074   5.182   0.755   2.205 -0.3094 -0.1663 -0.3182
 3931ntf    cn120075   5.056   0.630   2.166 -0.3510 -0.2330  0.0225
 3931ntf    fn420076   5.272   1.091   2.158 -0.3182  0.3242  0.2474
 3931ntf    fn420077   5.308   1.160   2.358  0.5736 -0.2418  0.0140
 3931ntf    fn420078   5.376   0.973   2.295 -0.4316 -0.7640 -0.4860
 3931ntf    on520079   5.161   0.935   2.488 -0.0635 -0.7480  0.0831
 3931ntf    on520080   5.019   1.082   2.366  0.5616  0.2583  0.3331
 3931ntf    on520081   5.249   0.694   2.317  0.2590 -0.3467 -0.7465
 3931ntf    on520082   5.247   0.778   2.078 -0.2876  1.0492 -0.0976
 3931ntf    fn420083   5.102   0.547   2.073  0.5223  0.4418 -0.1622
 3931ntf    fn420084   5.018   0.553   2.266 -0.1362  0.5934  0.7500
 3931ntf    fn420085   4.945   0.686   2.122  0.1420  0.2942 -0.5681
 3932ntf    cn120086   5.402   4.166   5.754  0.1171 -0.1210  0.0915
 3932ntf    sn220087   5.236   4.219   5.808  0.2360  0.1098  0.2355
 3932ntf    nn320088   5.222   4.351   5.726 -0.0091 -0.1037 -0.0663
 3932ntf    sn220089   5.105   4.400   5.634  0.2660  0.2986 -0.2063
 3932ntf    cn120090   5.151   4.575   5.616  0.0113  0.4219  0.3127
 3932ntf    fn420091   5.430   4.048   5.806  0.5894 -0.1536 -0.2327
 3932ntf    fn420092   5.401   4.148   5.623  0.0792 -0.2631  0.1116
 3932ntf    fn420093   5.499   4.252   5.783  0.4522 -0.5207  0.1551
 3932ntf    on520094   5.159   4.109   5.754  0.3531 -0.0842  0.4580
 3932ntf    on520095   5.254   4.227   5.951 -0.3492 -0.0494  0.3208
 3932ntf    on520096   4.986   4.412   5.716  0.4103  0.4203 -0.0149
 3932ntf    on520097   5.100   4.350   5.499 -0.0279  0.0406 -0.1015
 3932ntf    fn420098   5.232   4.592   5.513  0.3118 -0.6213  0.3656
 3932ntf    fn420099   5.041   4.645   5.590 -0.1616  0.2064  0.4612
 3932ntf    fn420100   5.208   4.610   5.730  0.5485  0.6824 -0.0344
 3933ntf    cn120101   1.819   2.396   4.747  0.3048  0.3416 -0.1551
 3933ntf    sn220102   1.934   2.432   4.611  0.1882  0.0503 -0.3332
 3933ntf    nn320103   1.939   2.289   4.547 -0.2514 -0.3021  0.4084
 3933ntf    sn220104   2.021   2.162   4.591  0.2272 -0.0704  0.1864
 3933ntf    cn120105   2.171   2.186   4.490  0.0051  0.4050 -0.0387
 3933ntf    fn420106   1.793   2.510   4.808 -0.2046  0.0383  0.1988
 3933ntf    fn420107   1.708   2.338   4.702  0.3549 -0.1642  0.3695
 3933ntf    fn420108   1.870   2.315   4.837  0.2571  0.1790 -0.2747
 3933ntf    on520109   1.863   2.529   4.533 -0.2509 -0.1586 -0.1941
 3933ntf    on520110   2.054   2.467   4.683 -0.1179  0.0629  0.1726
 3933ntf    on520111   1.963   2.041   4.539 -0.0125  0.3088 -0.4403
 3933ntf    on520112   2.073   2.153   4.725  0.0901  0.5685  0.2880
 3933ntf    fn420113   2.140   2.196   4.362  0.3425  0.0989 -0.1463
 3933ntf    fn420114   2.239   2.295   4.519  0.2199  0.3913 -0.4894
 3933ntf    fn420115   2.252   2.082   4.495 -0.5072 -0.0062 -0.1654
 3934ntf    cn120116   2.026   3.930   0.463  0.2312  0.3123  0.1533
 3934ntf    sn220117   2.166   3.988   0.363  0.1919  0.0680 -0.0427
 3934ntf    nn320118   2.207   4.115   0.445 -0.1206  0.1893 -0.0709
 3934ntf    sn220119   2.347   4.179   0.477 -0.1923  0.1994  0.2232
 3934ntf    cn120120   2.371   4.104   0.641  0.2485  0.1067  0.1167
 3934ntf    fn420121   1.957   3.839   0.397 -0.1629  0.4667  0.3489
 3934ntf    fn420122   2.064   3.877   0.578  0.4621 -0.2686 -0.1904
 3934ntf    fn420123   1.935   4.022   0.493 -0.2483 -0.1486  0.1279
 3934ntf    on520124   2.263   3.883   0.376  0.2392  0.2199  0.9005
 3934ntf    on520125   2.111   4.026   0.235  0.3967  0.0889 -0.1240
 3934ntf    on520126   2.337   4.317   0.517  0.1863  0.1563  0.4753
 3934ntf    on520127   2.460   4.143   0.395  0.0771  0.1644  0.6055
 3934ntf    fn420128   2.491   4.132   0.688  0.4653 -0.1255 -0.2848
 3934ntf    fn420129   2.288   4.157   0.728  0.2030 -0.0488  0.1675
 3934ntf    fn420130   2.353   3.972   0.640 -0.5685  0.2109  0.0799
 3935ntf    cn120131   6.683   1.330   0.913  0.2933 -0.5559  0.1075
 3935ntf    sn220132   6.601   1.173   0.951 -0.5577 -0.1133  0.1155
 3935ntf    nn320133   6.471   1.214   1.029 -0.2193 -0.5024  0.8978
 3935ntf    sn220134   6.324   1.238   0.979  0.1142 -0.0412  0.1206
 3935ntf    cn120135   6.295   1.408   1.037 -0.4788  0.0106 -0.3155
 3935ntf    fn420136   6.718   1.399   1.020 -0.1385  0.0543 -0.1344
 3935ntf    fn420137   6.797   1.303   0.852  0.5673 -0.1133  0.4111
 3935ntf    fn420138   6.614   1.421   0.847 -0.1134 -0.5787  0.4989
 3935ntf    on520139   6.586   1.124   0.816  0.3995 -0.2762  0.0661
 3935ntf    on520140   6.692   1.102   1.037  0.2305  0.5095 -0.1977
 3935ntf    on520141   6.221   1.161   1.044 -0.2467 -0.0940 -0.5067
 3935ntf    on520142   6.310   1.266   0.838  0.0413  0.1773  0.1714
 3935ntf    fn420143   6.269   1.416   1.166 -0.3617 -0.3186 -0.2694
 3935ntf    fn420144   6.391   1.496   1.012 -0.1423 -0.2199  0.1425
 3935ntf    fn420145   6.193   1.464   0.974 -0.2759  0.4753 -0.2345
 3936ntf    cn120146   0.175   2.133   5.462  0.0982  0.0068 -0.0616
 3936ntf    sn220147   0.197   2.220   5.621 -0.3229 -0.0796  0.0461
 3936ntf    nn320148   0.282   2.344   5.577  0.0041 -0.1601  0.4425
 3936ntf    sn220149   0.438   2.362   5.567 -0.1138  0.7364  0.0937
 3936ntf    cn120150   0.449   2.429   5.399 -0.2996 -0.0555 -0.2342
 3936ntf    fn420151   0.138   2.208   5.360 -0.0389  0.0741  0.0366
 3936ntf    fn420152   0.289   2.075   5.430  0.2342  0.2596 -0.0429
 3936ntf    fn420153   0.074   2.049   5.470 -0.0430  0.1185 -0.6160
 3936ntf    on520154   0.069   2.265   5.668 -0.2433 -0.0572  0.2416
 3936ntf    on520155   0.268   2.126   5.705 -0.3983 -0.2841 -0.1156
 3936ntf    on520156   0.514   2.240   5.554 -0.0298  0.7617  0.3280
 3936ntf    on520157   0.478   2.470   5.655  0.0225  0.4221  0.4192
 3936ntf    fn420158   0.529   2.534   5.398  0.0496 -0.3206 -0.4080
 3936ntf    fn420159   0.499   2.339   5.316 -0.3703 -0.2525 -0.0647
 3936ntf    fn420160   0.329   2.459   5.351 -0.5204 -0.0799  0.3023
 3937ntf    cn120161   3.640   5.405   1.625 -0.2143  0.0162 -0.5084
 3937ntf    sn220162   3.582   5.335   1.783 -0.1581  0.1673 -0.4207
 3937ntf    nn320163   3.436   5.302   1.736  0.0902 -0.3644 -0.8329
 3937ntf    sn220164   3.303   5.378   1.768  0.5028  0.0832 -0.1596
 3937ntf    cn120165   3.231   5.291   1.911  0.5754 -0.1210 -0.2471
 3937ntf    fn420166   3.769   5.432   1.616 -0.2095  0.2749  0.2712
 3937ntf    fn420167   3.602   5.326   1.526 -0.5456  0.0732 -0.4264
 3937ntf    fn420168   3.582   5.523   1.626  0.6439  0.4461 -0.0506
 3937ntf    on520169   3.670   5.222   1.803 -0.0324  0.2743 -0.3633
 3937ntf    on520170   3.604   5.440   1.879  0.3056 -0.0356 -0.2993
 3937ntf    on520171   3.203   5.355   1.666  0.0495 -0.0065  0.2964
 3937ntf    on520172   3.317   5.515   1.812 -0.4450  0.3760 -0.7403
 3937ntf    fn420173   3.123   5.347   1.963  0.2952 -0.4286 -0.4967
 3937ntf    fn420174   3.183   5.176   1.867  0.0571 -0.1271  0.3288
 3937ntf    fn420175   3.322   5.269   2.005  0.2065 -0.3359  0.0579
 3938ntf    cn120176   4.901   0.804   5.495  0.0717 -0.2453  0.4872
 3938ntf    sn220177   5.050   0.755   5.402 -0.1299 -0.0594  0.0635
 3938ntf    nn320178   5.159   0.847   5.468  0.2323 -0.2302 -0.2932
 3938ntf    sn220179   5.234   0.975   5.416 -0.1388  0.0700 -0.0980
 3938ntf    cn120180   5.395   0.916   5.354 -0.2403 -0.0260 -0.2722
 3938ntf    fn420181   4.880   0.935   5.489  0.5462 -0.1979 -0.5066
 3938ntf    fn420182   4.786   0.750   5.460 -0.4604  0.9854  0.2818
 3938ntf    fn420183   4.913   0.770   5.622 -0.2281  0.0418  0.5916
 3938ntf    on520184   5.069   0.617   5.437  0.4324 -0.0141 -0.0555
 3938ntf    on520185   5.018   0.778   5.263  0.5401 -0.8302 -0.2273
 3938ntf    on520186   5.266   1.064   5.525 -0.1490 -0.6601  0.5090
 3938ntf    on520187   5.173   1.041   5.304 -0.6580  0.1910  0.2552
 3938ntf    fn420188   5.380   0.815   5.270 -0.2549 -0.1786 -0.0863
 3938ntf    fn420189   5.455   1.018   5.297 -0.0387  0.1609  0.2680
 3938ntf    fn420190   5.474   0.879   5.453 -0.5029  0.0635 -0.0274
 3939ntf    cn120191   6.771   4.170   3.466  0.2622  0.1211 -0.0797
 3939ntf    sn220192   6.836   4.225   3.306  0.1130 -0.0294 -0.1915
 3939ntf    nn320193   6.725   4.164   3.212 -0.0819 -0.2387  0.1745
 3939ntf    sn220194   6.720   4.016   3.161 -0.2703 -0.1566 -0.0465
 3939ntf    cn120195   6.845   4.030   3.029 -0.0923 -0.0836  0.1285
 3939ntf    fn420196   6.800   4.253   3.565 -0.1344  0.0770  0.0754
 3939ntf    fn420197   6.639   4.175   3.473  0.2577 -0.2329  0.1422
 3939ntf    fn420198   6.806   4.047   3.501 -0.3395 -0.1288 -0.3559
 3939ntf    on520199   6.824   4.368   3.323 -0.1534 -0.1119  0.3235
 3939ntf    on520200   6.966   4.163   3.304  0.4277  0.5971  0.3695
 3939ntf    on520201   6.599   3.972   3.096 -0.1843 -0.5358  0.0485
 3939ntf    on520202   6.780   3.913   3.241  0.3916  0.2872  0.0403
 3939ntf    fn420203   6.967   4.039   3.078 -0.1429 -0.0918  0.2562
 3939ntf    fn420204   6.838   3.923   2.951 -0.3469  0.4066 -0.5269
 3939ntf    fn420205   6.821   4.134   2.952 -0.1886  0.1337  0.4488
 3940ntf    cn120206   2.339   1.897   5.419  0.3639 -0.3654 -0.0428
 3940ntf    sn220207   2.192   1.900   5.527  0.2277  0.0469 -0.2368
 3940ntf    nn320208   2.193   1.745   5.552  0.1588  0.0813 -0.0259
 3940ntf    sn220209   2.084   1.646   5.498  0.1881 -0.0651  0.1798
 3940ntf    cn120210   2.202   1.541   5.409  0.0887 -0.1778  0.1812
 3940ntf    fn420211   2.446   1.854   5.484  0.1841  0.4500  0.8308
 3940ntf    fn420212   2.321   1.828   5.308  0.2727 -0.0865 -0.2033
 3940ntf    fn420213   2.358   2.024   5.388  0.1083 -0.3027  0.0541
 3940ntf    on520214   2.231   1.987   5.635 -0.2875 -0.1848  0.1374
 3940ntf    on520215   2.093   1.960   5.441  0.0845 -0.3751 -0.3699
 3940ntf    on520216   1.992   1.684   5.393  0.6033 -0.0087 -0.1663
 3940ntf    on520217   2.030   1.558   5.598 -0.4579  0.2635  0.1253
 3940ntf    fn420218   2.278   1.478   5.497  0.2041 -0.0503  0.1723
 3940ntf    fn420219   2.143   1.444   5.340 -0.3086  0.3875 -0.2750
 3940ntf    fn420220   2.286   1.598   5.324  0.0973 -0.2184  0.1624
 3941ntf    cn120221   3.589   2.725   0.596 -0.0252  0.1086  0.0423
 3941ntf    sn220222   3.755   2.687   0.659  0.0951  0.0809 -0.2936
 3941ntf    nn320223   3.841   2.798   0.589  0.3734  0.2172  0.2639
 3941ntf    sn220224   3.926   2.911   0.658  0.1782  0.3473  0.2933
 3941ntf    cn120225   3.840   3.055   0.588 -0.0445  0.0886  0.0333
 3941ntf    fn420226   3.574   2.704   0.466  0.1590  0.1292  0.0187
 3941ntf    fn420227   3.495   2.647   0.647 -0.1295  0.6052  0.6357
 3941ntf    fn420228   3.551   2.847   0.633  0.0899 -0.0571  0.7301
 3941ntf    on520229   3.740   2.687   0.802 -0.2221  0.2148 -0.3266
 3941ntf    on520230   3.792   2.564   0.593 -0.2513  0.1466 -0.6190
 3941ntf    on520231   4.056   2.937   0.601  0.0065  0.2532 -0.1407
 3941ntf    on520232   3.912   2.941   0.799 -0.9476  0.1514  0.2332
 3941ntf    fn420233   3.875   3.066   0.461 -0.3633 -0.1778 -0.0813
 3941ntf    fn420234   3.708   3.051   0.600 -0.0210 -0.0624  0.2511
 3941ntf    fn420235   3.876   3.165   0.651 -0.4918  0.3181 -0.1104
 3942ntf    cn120236   0.750   0.581   1.135 -0.2466  0.2554 -0.0293
 3942ntf    sn220237   0.763   0.676   0.980  0.0048  0.1701 -0.0619
 3942ntf    nn320238   0.727   0.820   1.031 -0.1099 -0.0078  0.3709
 3942ntf    sn220239   0.816   0.948   1.015 -0.4164  0.1769  0.1322
 3942ntf    cn120240   0.864   0.978   1.188 -0.3307 -0.0529  0.1483
 3942ntf    fn420241   0.744   0.450   1.126 -0.1082  0.2503 -0.0509
 3942ntf    fn420242   0.863   0.604   1.201 -0.3363 -0.1128  0.2514
 3942ntf    fn420243   0.653   0.618   1.217  0.4444  0.4427  0.7180
 3942ntf    on520244   0.896   0.648   0.934  0.2826  0.2188  0.6945
 3942ntf    on520245   0.662   0.610   0.901  0.0646  0.3226 -0.2642
 3942ntf    on520246   0.740   1.062   0.968  0.2350  0.4163 -0.3554
 3942ntf    on520247   0.936   0.930   0.938 -0.3628  0.1180  0.2300
 3942ntf    fn420248   0.945   1.079   1.212 -0.2019 -0.0488 -0.2967
 3942ntf    fn420249   0.759   0.993   1.267 -0.2122 -0.5531  0.4001
 3942ntf    fn420250   0.928   0.878   1.246  0.0395  0.1499  0.0894
 3943ntf    cn120251   2.247   2.401   1.194  0.0884 -0.1330  0.2911
 3943ntf    sn220252   2.180   2.239   1.146 -0.2116  0.0330  0.1505
 3943ntf    nn320253   2.058   2.230   1.244  0.0994  0.6183  0.5958
 3943ntf    sn220254   1.905   2.244   1.210  0.1516  0.0509  0.1124
 3943ntf    cn120255   1.853   2.086   1.136 -0.3104  0.1586  0.2037
 3943ntf    fn420256   2.241   2.409   1.326  0.3658  0.3743  0.2760
 3943ntf    fn420257   2.371   2.426   1.158 -0.0418 -0.0553 -0.1034
 3943ntf    fn420258   2.169   2.493   1.140  0.4117  0.1747  0.3463
 3943ntf    on520259   2.137   2.245   1.008  0.3627  0.3303 -0.0167
 3943ntf    on520260   2.276   2.139   1.184 -0.0966  0.1656  0.2085
 3943ntf    on520261   1.871   2.336   1.105 -0.3950 -0.3810 -0.0898
 3943ntf    on520262   1.834   2.247   1.336 -0.4366  0.5937 -0.2298
 3943ntf    fn420263   1.914   2.065   1.021  0.1937 -0.5182  0.5846
 3943ntf    fn420264   1.878   1.986   1.219  0.6741  0.2281  0.0075
 3943ntf    fn420265   1.722   2.092   1.123 -0.3245 -0.2155  0.1762
 3944ntf    cn120266   5.028   3.044   7.120 -0.1490  0.1111 -0.2978
 3944ntf    sn220267   4.960   2.968   6.970  0.1488 -0.3145 -0.2186
 3944ntf    nn320268   4.845   2.882   7.032  0.2148 -0.0493  0.2749
 3944ntf    sn220269   4.777   2.754   6.972  0.0493 -0.0191  0.3960
 3944ntf    cn120270   4.871   2.629   7.065  0.0913 -0.3378 -0.0686
 3944ntf    fn420271   4.939   3.113   7.191 -0.0489 -0.8830  0.8241
 3944ntf    fn420272   5.071   2.960   7.212 -0.7346  0.1485  0.0182
 3944ntf    fn420273   5.121   3.134   7.095 -0.0435  0.0387 -0.1671
 3944ntf    on520274   4.902   3.081   6.901 -0.3340 -0.2125  0.3491
 3944ntf    on520275   5.069   2.894   6.911  0.3383 -0.7879  0.7147
 3944ntf    on520276   4.803   2.733   6.832  0.7383  0.5111  0.4419
 3944ntf    on520277   4.642   2.731   7.019 -0.1351 -0.5056 -0.3454
 3944ntf    fn420278   4.998   2.630   7.026  0.0705  0.5555 -0.1463
 3944ntf    fn420279   4.871   2.656   7.195 -0.5418 -0.2136 -0.0909
 3944ntf    fn420280   4.829   2.504   7.054 -0.2513 -0.2089 -0.2404
 3945ntf    cn120281   4.692   2.639   4.690 -0.1840  0.4668  0.0527
 3945ntf    sn220282   4.596   2.601   4.840 -0.1406 -0.0879 -0.0619
 3945ntf    nn320283   4.606   2.445   4.860 -0.7481 -0.1881 -0.5099
 3945ntf    sn220284   4.495   2.354   4.922 -0.5682  0.1139  0.2695
 3945ntf    cn120285   4.398   2.300   4.778  0.3033 -0.2153 -0.1970
 3945ntf    fn420286   4.668   2.760   4.640  0.2927  0.5756  0.0824
 3945ntf    fn420287   4.822   2.638   4.714 -0.1707  0.6127 -0.0102
 3945ntf    fn420288   4.669   2.551   4.594 -0.4549  0.4389  0.1425
 3945ntf    on520289   4.671   2.677   4.937 -0.3677  0.3268 -0.2105
 3945ntf    on520290   4.468   2.647   4.793  0.0728  0.7576  0.1663
 3945ntf    on520291   4.402   2.424   5.008 -0.8332  0.2536 -0.1285
 3945ntf    on520292   4.543   2.225   4.967 -0.5626  0.0696  0.1354
 3945ntf    fn420293   4.302   2.386   4.752  0.4872  0.0176 -0.1083
 3945ntf    fn420294   4.470   2.275   4.669  0.3424  0.3539 -0.3042
 3945ntf    fn420295   4.339   2.183   4.796  0.2239 -0.0918  0.3376
 3946ntf    cn120296   1.102   1.749   1.024  0.1880  0.4507 -0.1550
 3946ntf    sn220297   1.016   1.739   1.184  0.2826 -0.1292 -0.1384
 3946ntf    nn320298   0.981   1.587   1.175  0.3768 -0.1707  0.1807
 3946ntf    sn220299   1.049   1.459   1.238  0.3341 -0.1100  0.3493
 3946ntf    cn120300   0.903   1.380   1.313  0.3371 -0.4930 -0.0511
 3946ntf    fn420301   1.029   1.702   0.925  0.1868  0.3570 -0.1094
 3946ntf    fn420302   1.134   1.872   0.985 -0.2663  0.5950 -0.0807
 3946ntf    fn420303   1.202   1.663   1.019  0.1546  0.3471  0.7617
 3946ntf    on520304   1.117   1.791   1.274 -0.1192 -0.0032  0.2468
 3946ntf    on520305   0.898   1.822   1.179  0.1685 -0.2444  0.4852
 3946ntf    on520306   1.144   1.483   1.344  0.5338 -0.6034  0.2805
 3946ntf    on520307   1.089   1.364   1.138  0.3630  0.0160  0.2404
 3946ntf    fn420308   0.829   1.443   1.402 -0.0302  0.0487 -0.7322
 3946ntf    fn420309   0.811   1.360   1.220  0.3651 -0.1772 -0.1459
 3946ntf    fn420310   0.939   1.263   1.363  0.5067 -0.2349  0.4316
 3947ntf    cn120311   6.800   7.183   1.498  0.1941 -0.1635  0.2084
 3947ntf    sn220312   6.667   7.094   1.585 -0.1850  0.0066 -0.1927
 3947ntf    nn320313   6.686   6.958   1.508 -0.2903 -0.5144  0.6856
 3947ntf    sn220314   6.586   6.880   1.415 -0.0256  0.0428 -0.0756
 3947ntf    cn120315   6.694   6.766   1.325 -0.0656  0.0232 -0.0982
 3947ntf    fn420316   6.785   7.194   1.367  0.4325  0.2254  0.2114
 3947ntf    fn420317   6.816   7.310   1.532 -0.1792  0.0952 -0.5673
 3947ntf    fn420318   6.922   7.137   1.523  0.2675 -0.1269 -0.0820
 3947ntf    on520319   6.706   7.077   1.723 -0.1011 -0.1998 -0.2406
 3947ntf    on520320   6.550   7.172   1.555  0.1461  0.5610 -0.0424
 3947ntf    on520321   6.527   6.950   1.303 -0.1707  0.5380  0.3056
 3947ntf    on520322   6.498   6.796   1.492  0.2202  0.1569  0.3294
 3947ntf    fn420323   6.780   6.828   1.246 -0.1099 -0.3715 -0.4624
 3947ntf    fn420324   6.758   6.689   1.412 -0.4067 -0.0565  0.0851
 3947ntf    fn420325   6.637   6.688   1.235 -0.3013 -0.1610  0.2080
 3948ntf    cn120326   1.272   2.929   4.202  0.1936  0.1004 -0.1176
 3948ntf    sn220327   1.157   3.059   4.147  0.1105  0.1837  0.2491
 3948ntf    nn320328   1.248   3.184   4.174  0.4576 -0.0311  0.0814
 3948ntf    sn220329   1.182   3.324   4.198  0.3211 -0.0985  0.1000
 3948ntf    cn120330   1.163   3.312   4.378 -0.3406 -0.2961  0.0214
 3948ntf    fn420331   1.389   2.939   4.141  0.5425  0.3333  0.5857
 3948ntf    fn420332   1.290   2.936   4.333 -0.0058 -0.1326 -0.0767
 3948ntf    fn420333   1.233   2.804   4.184 -0.2263  0.1346  0.5429
 3948ntf    on520334   1.145   3.038   4.004 -0.1918 -0.4122  0.3574
 3948ntf    on520335   1.038   3.042   4.226  0.2069 -0.2882  0.2964
 3948ntf    on520336   1.046   3.345   4.154  0.3929  0.1759  0.0101
 3948ntf    on520337   1.277   3.430   4.175  0.4433 -0.1784  0.2326
 3948ntf    fn420338   1.085   3.405   4.431 -0.0229  0.1157 -0.2274
 3948ntf    fn420339   1.115   3.200   4.429 -0.0329 -0.3414  0.2191
 3948ntf    fn420340   1.279   3.318   4.443 -0.4142  0.5073  0.0958
 3949ntf    cn120341   4.907   1.880   0.783 -0.3465  0.3445 -0.0909
 3949ntf    sn220342   4.732   1.830   0.780 -0.2218 -0.0810 -0.3785
 3949ntf    nn320343   4.695   1.871   0.633  0.5598  0.4367 -0.4413
 3949ntf    sn220344   4.694   1.779   0.506  0.0448 -0.0347 -0.1006
 3949ntf    cn120345   4.519   1.730   0.494  0.1985 -0.6259  0.0259
 3949ntf    fn420346   4.915   2.012   0.778  0.0237  0.3100 -0.5075
 3949ntf    fn420347   4.979   1.842   0.887 -0.2695  0.3164 -0.1543
 3949ntf    fn420348   4.972   1.833   0.678 -0.1030 -0.2852  0.3327
 3949ntf    on520349   4.727   1.691   0.815 -0.4628  0.0532  0.1301
 3949ntf    on520350   4.675   1.921   0.876  0.3400  0.1749 -0.2767
 3949ntf    on520351   4.763   1.653   0.507  0.4929  0.2048 -0.3899
 3949ntf    on520352   4.726   1.859   0.391  0.4515 -0.1246 -0.0511
 3949ntf    fn420353   4.500   1.636   0.403 -0.3070 -0.5437  0.0444
 3949ntf    fn420354   4.483   1.678   0.610 -0.0704 -1.3815 -0.3905
 3949ntf    fn420355   4.442   1.835   0.466  0.4183 -0.4830 -0.0459
 3950ntf    cn120356   2.774   3.392   0.054  0.0145  0.5572  0.1854
 3950ntf    sn220357   2.881   3.516  -0.025  0.2072  0.0824 -0.3045
 3950ntf    nn320358   2.904   3.440  -0.161 -0.0687 -0.5218 -0.0170
 3950ntf    sn220359   3.040   3.400  -0.227 -0.0865 -0.0351 -0.3513
 3950ntf    cn120360   3.009   3.451  -0.399 -0.1665 -0.0567 -0.3432
 3950ntf    fn420361   2.670   3.359  -0.022 -0.0068  0.8129  0.1026
 3950ntf    fn420362   2.843   3.281   0.074 -0.0015  0.4959 -0.0937
 3950ntf    fn420363   2.725   3.422   0.173 -0.1006  0.3706  0.1859
 3950ntf    on520364   2.793   3.630  -0.032 -0.3649 -0.3385 -0.0961
 3950ntf    on520365   2.995   3.526   0.062 -0.1469 -0.5925  0.2408
 3950ntf    on520366   3.053   3.258  -0.249  0.3091 -0.0190 -0.2290
 3950ntf    on520367   3.157   3.479  -0.196 -0.2732 -0.0200  0.3146
 3950ntf    fn420368   3.108   3.423  -0.482 -0.1588 -0.8711 -0.0693
 3950ntf    fn420369   2.898   3.403  -0.453 -0.4046 -0.2638  0.3158
 3950ntf    fn420370   3.002   3.583  -0.401 -0.3915 -0.0710 -0.6253
 3951ntf    cn120371   6.906   2.337   3.457 -0.1469 -0.1344  0.2674
 3951ntf    sn220372   6.890   2.165   3.400 -0.1715  0.0302 -0.2256
 3951ntf    nn320373   6.933   2.171   3.249  0.4282 -0.0052 -0.0597
 3951ntf    sn220374   6.869   2.240   3.123 -0.3032 -0.1046  0.2511
 3951ntf    cn120375   6.821   2.099   3.020 -0.1969  0.0069  0.0484
 3951ntf    fn420376   6.878   2.356   3.585 -0.1906  0.3050  0.1940
 3951ntf    fn420377   7.026   2.388   3.438 -0.1990 -0.0242  0.2293
 3951ntf    fn420378   6.821   2.418   3.395 -0.0052 -0.0727  0.1556
 3951ntf    on520379   6.978   2.093   3.488  0.1982  0.5043 -0.2036
 3951ntf    on520380   6.749   2.142   3.417 -0.2236  0.4180 -0.1086
 3951ntf    on520381   6.969   2.317   3.052 -0.0410 -0.5213  0.1677
 3951ntf    on520382   6.746   2.304   3.163 -0.2716  0.1539 -0.0619
 3951ntf    fn420383   6.917   2.010   2.999 -0.0756  0.2053 -0.2514
 3951ntf    fn420384   6.719   2.041   3.081  0.0167 -0.0125  0.3899
 3951ntf    fn420385   6.783   2.137   2.899 -0.3229 -0.1593  0.0356
 3952ntf    cn120386   6.617   3.483   1.600  0.1661 -0.5520  0.3738
 3952ntf    sn220387   6.557   3.394   1.453 -0.2275  0.0014  0.1960
 3952ntf    nn320388   6.678   3.301   1.416 -0.1305  0.1302  0.1878
 3952ntf    sn220389   6.707   3.152   1.456 -0.2456  0.0567  0.0021
 3952ntf    cn120390   6.874   3.164   1.527 -0.1509  0.1301 -0.2320
 3952ntf    fn420391   6.619   3.404   1.706  0.2752 -0.7235  0.2442
 3952ntf    fn420392   6.741   3.528   1.590  0.0617 -0.4352 -0.4869
 3952ntf    fn420393   6.543   3.583   1.644  0.1515 -0.3344 -0.1332
 3952ntf    on520394   6.442   3.327   1.510 -0.4036 -0.2025 -0.3908
 3952ntf    on520395   6.538   3.499   1.357  0.3808 -0.2153 -0.1684
 3952ntf    on520396   6.731   3.072   1.339 -0.4061  0.0176 -0.0038
 3952ntf    on520397   6.629   3.098   1.565 -0.4695  0.2946 -0.0399
 3952ntf    fn420398   6.870   3.240   1.635 -0.8872 -1.1375  0.6702
 3952ntf    fn420399   6.939   3.052   1.559 -0.5590 -0.0151  0.0928
 3952ntf    fn420400   6.954   3.221   1.439 -0.4161  0.6496 -0.1350
 3953ntf    cn120401   2.917   6.327   2.255  0.1222 -0.3383  0.0054
 3953ntf    sn220402   2.804   6.288   2.118 -0.2498  0.2069  0.1550
 3953ntf    nn320403   2.679   6.247   2.203  0.0044 -0.0789  0.3923
 3953ntf    sn220404   2.545   6.326   2.228  0.0644  0.0713  0.2427
 3953ntf    cn120405   2.428   6.187   2.237 -0.0547  0.1742  0.2941
 3953ntf    fn420406   2.927   6.229   2.343  0.3664 -0.1615  0.1761
 3953ntf    fn420407   3.042   6.343   2.213 -0.0137 -0.7219 -0.5528
 3953ntf    fn420408   2.872   6.437   2.314 -0.0801 -0.3972 -0.0398
 3953ntf    on520409   2.781   6.410   2.044  0.3071 -0.0148 -0.3897
 3953ntf    on520410   2.868   6.176   2.055 -0.2524 -0.2121  0.8881
 3953ntf    on520411   2.492   6.405   2.120  0.4076  0.3593  0.2813
 3953ntf    on520412   2.540   6.379   2.363  0.5247 -0.9065  0.6545
 3953ntf    fn420413   2.469   6.080   2.304  0.1691 -0.1174 -0.2917
 3953ntf    fn420414   2.313   6.226   2.288 -0.0296  0.0083  0.4799
 3953ntf    fn420415   2.404   6.137   2.116  0.5740  0.2705  0.1238
 3954ntf    cn120416   4.715   2.816   3.461  0.1216  0.3978 -0.4984
 3954ntf    sn220417   4.550   2.893   3.467  0.0270  0.1363  0.3334
 3954ntf    nn320418   4.453   2.770   3.465  0.3910 -0.1480  0.0903
 3954ntf    sn220419   4.326   2.741   3.552  0.3889  0.1905  0.2015
 3954ntf    cn120420   4.391   2.625   3.677  0.1730 -0.4450 -0.2681
 3954ntf    fn420421   4.726   2.725   3.365 -0.1547 -0.1635 -0.0062
 3954ntf    fn420422   4.807   2.908   3.435  0.4779  0.1164 -0.2274
 3954ntf    fn420423   4.751   2.759   3.574  0.2032 -0.1493 -0.7950
 3954ntf    on520424   4.553   2.960   3.595 -0.5655  0.3425  0.2408
 3954ntf    on520425   4.548   2.971   3.346  0.3421  0.6470  0.6512
 3954ntf    on520426   4.233   2.664   3.473  0.4269  0.1191  0.2264
 3954ntf    on520427   4.271   2.852   3.625  0.0903  0.1458  0.0449
 3954ntf    fn420428   4.463   2.526   3.627  0.6584 -0.1475 -0.1735
 3954ntf    fn420429   4.480   2.693   3.748  0.1032 -0.5165 -0.1131
 3954ntf    fn420430   4.300   2.578   3.760 -0.0325 -0.0575 -0.2701
 3955ntf    cn120431   1.094   6.097   0.120 -0.0175  0.4311  0.0034
 3955ntf    sn220432   1.093   6.260   0.202 -0.1823  0.3441  0.1763
 3955ntf    nn320433   1.051   6.220   0.347 -0.0358  0.3649  0.2245
 3955ntf    sn220434   0.930   6.271   0.433 -0.3839 -0.0801  0.0018
 3955ntf    cn120435   0.781   6.191   0.367 -0.3159 -0.1679 -0.0466
 3955ntf    fn420436   1.141   6.014   0.212  0.1841 -0.0329 -0.5145
 3955ntf    fn420437   0.978   6.052   0.076  0.0658 -0.1021  0.3220
 3955ntf    fn420438   1.184   6.082   0.025  0.4838  0.2598  0.4961
 3955ntf    on520439   1.233   6.292   0.187 -0.1335  0.0077 -0.1143
 3955ntf    on520440   0.995   6.338   0.132 -0.2881 -0.0977 -0.1755
 3955ntf    on520441   0.905   6.412   0.413 -0.6925 -0.1491 -0.1065
 3955ntf    on520442   0.936   6.227   0.570 -0.3372  0.4319  0.1667
 3955ntf    fn420443   0.778   6.061   0.392  0.0327 -0.2323 -0.3452
 3955ntf    fn420444   0.672   6.242   0.422 -0.3397 -0.4236  0.1450
 3955ntf    fn420445   0.758   6.204   0.237  0.8640 -0.4666 -0.2967
 3956ntf    cn120446   1.595   4.598   2.100 -0.0256  0.0981  0.1938
 3956ntf    sn220447   1.626   4.564   2.276  0.1910  0.1252  0.1614
 3956ntf    nn320448   1.736   4.453   2.265 -0.2828 -0.3293 -0.0527
 3956ntf    sn220449   1.723   4.297   2.268 -0.0189 -0.3547 -0.1712
 3956ntf    cn120450   1.876   4.249   2.354  0.0975  0.1457 -0.0943
 3956ntf    fn420451   1.535   4.497   2.040  0.0133  0.0411  0.2516
 3956ntf    fn420452   1.499   4.688   2.081 -0.5481 -0.5342 -0.1944
 3956ntf    fn420453   1.702   4.631   2.030 -0.0856 -0.0338  0.0403
 3956ntf    on520454   1.681   4.684   2.333  0.1159  0.1502  0.1818
 3956ntf    on520455   1.499   4.525   2.333  0.1323  0.3332  0.1759
 3956ntf    on520456   1.743   4.231   2.141 -0.2692 -0.2517 -0.2641
 3956ntf    on520457   1.618   4.240   2.350 -0.2200  0.2488 -0.0072
 3956ntf    fn420458   1.988   4.305   2.311  0.0264  0.4498  0.1166
 3956ntf    fn420459   1.866   4.280   2.482 -0.1164  0.3466 -0.1595
 3956ntf    fn420460   1.897   4.118   2.358 -0.2244  0.0820 -0.3498
 3957ntf    cn120461   4.395   3.230   4.820  0.1256 -0.3640  0.1395
 3957ntf    sn220462   4.446   3.399   4.863 -0.1197 -0.2483 -0.0252
 3957ntf    nn320463   4.460   3.395   5.019  0.5387 -0.2817 -0.0824
 3957ntf    sn220464   4.582   3.382   5.117  0.5844  0.0213 -0.0993
 3957ntf    cn120465   4.619   3.204   5.112 -0.4593 -0.2146  0.3066
 3957ntf    fn420466   4.297   3.189   4.898 -0.2536 -0.2369 -0.2677
 3957ntf    fn420467   4.342   3.222   4.699 -0.1178  0.2403  0.2037
 3957ntf    fn420468   4.488   3.137   4.832  0.0503 -0.4695 -0.0858
 3957ntf    on520469   4.565   3.429   4.788  0.2379  0.7863  0.9324
 3957ntf    on520470   4.331   3.475   4.820 -0.1353 -0.3050 -0.0858
 3957ntf    on520471   4.537   3.409   5.251  0.7749 -0.1306 -0.0051
 3957ntf    on520472   4.707   3.437   5.072  0.6811 -0.2572 -0.1705
 3957ntf    fn420473   4.663   3.169   4.992 -0.2569 -0.1413  0.3586
 3957ntf    fn420474   4.709   3.170   5.203 -0.0418  0.1660  0.0428
 3957ntf    fn420475   4.514   3.130   5.144 -1.0409  0.5630  0.2469
 3958ntf    cn120476   3.812   4.444   1.041 -0.5715 -0.0811  0.1470
 3958ntf    sn220477   3.835   4.624   1.034 -0.1677 -0.1429 -0.1850
 3958ntf    nn320478   3.806   4.655   1.185  0.1935 -0.8771  0.0422
 3958ntf    sn220479   3.896   4.715   1.299  0.1693 -0.2509 -0.2619
 3958ntf    cn120480   3.909   4.568   1.405  0.1787 -0.1040 -0.0586
 3958ntf    fn420481   3.705   4.422   1.116 -0.2836  0.2830  0.6734
 3958ntf    fn420482   3.794   4.388   0.922  0.0156 -0.2852  0.1506
 3958ntf    fn420483   3.911   4.376   1.097 -0.2853  0.2260  0.0130
 3958ntf    on520484   3.975   4.636   1.000 -0.1755  0.3356 -0.0517
 3958ntf    on520485   3.739   4.671   0.938  0.0431 -0.1125 -0.3827
 3958ntf    on520486   3.819   4.807   1.379 -0.2507 -0.8105 -0.0213
 3958ntf    on520487   4.033   4.754   1.278  0.0638  0.1027 -0.2956
 3958ntf    fn420488   3.963   4.606   1.520  0.0769  0.0710 -0.0682
 3958ntf    fn420489   3.793   4.517   1.442 -0.2505  0.7713 -0.1602
 3958ntf    fn420490   3.981   4.470   1.353 -0.2532 -0.5172  0.1065
 3959ntf    cn120491   4.629   1.254   4.677  0.2368  0.0330  0.1606
 3959ntf    sn220492   4.598   1.304   4.849 -0.2247  0.1341  0.0518
 3959ntf    nn320493   4.500   1.187   4.886 -0.4451  0.3497  0.1464
 3959ntf    sn220494   4.529   1.066   4.982 -0.4404  0.4479  0.2698
 3959ntf    cn120495   4.481   0.922   4.883  0.3827  0.3208  0.0433
 3959ntf    fn420496   4.718   1.157   4.678  0.1867 -0.0169 -0.0951
 3959ntf    fn420497   4.520   1.213   4.613  0.4825  0.4167 -0.5124
 3959ntf    fn420498   4.674   1.354   4.603 -0.3931  0.2534  0.0686
 3959ntf    on520499   4.728   1.303   4.912 -0.1379  0.0882 -0.1298
 3959ntf    on520500   4.519   1.425   4.845  0.0427  0.3146  0.1922
 3959ntf    on520501   4.438   1.057   5.093 -0.0831 -0.4916  0.4883
 3959ntf    on520502   4.668   1.040   5.011 -0.5689 -0.1165  0.3786
 3959ntf    fn420503   4.501   0.805   4.942  0.0194  0.4037  0.3379
 3959ntf    fn420504   4.352   0.932   4.854  0.1589 -0.3739  0.7657
 3959ntf    fn420505   4.545   0.910   4.768 -0.1253  0.4837 -0.2580
 3960ntf    cn120506   5.433   4.352   1.863 -0.6061 -0.2642  0.6395
 3960ntf    sn220507   5.442   4.188   1.940  0.2546 -0.3991  0.2718
 3960ntf    nn320508   5.547   4.115   1.849  0.1034  0.1582 -0.3526
 3960ntf    sn220509   5.524   4.028   1.721 -0.0137 -0.2891 -0.0311
 3960ntf    cn120510   5.529   3.862   1.793  0.0601 -0.2614  0.0272
 3960ntf    fn420511   5.351   4.438   1.920  0.1194  0.5162  0.5236
 3960ntf    fn420512   5.553   4.408   1.861 -0.8087  0.1607 -0.2815
 3960ntf    fn420513   5.402   4.340   1.735  0.0418 -0.4373  0.4926
 3960ntf    on520514   5.491   4.207   2.075 -0.3943  0.2942  0.4160
 3960ntf    on520515   5.308   4.134   1.934 -0.0734  0.4354  0.0210
 3960ntf    on520516   5.636   4.016   1.631 -0.3999  0.0777 -0.5729
 3960ntf    on520517   5.392   4.039   1.664  0.1630 -0.2305 -0.4365
 3960ntf    fn420518   5.521   3.768   1.700 -0.6816  0.0653 -0.2477
 3960ntf    fn420519   5.643   3.848   1.860  0.4325  0.4721 -0.4436
 3960ntf    fn420520   5.429   3.835   1.875  0.3481  0.1878  0.5293
 3961ntf    cn120521   4.410   3.407   2.172  0.2650  0.1289 -0.1175
 3961ntf    sn220522   4.525   3.538   2.225  0.1538  0.1255  0.1336
 3961ntf    nn320523   4.445   3.622   2.331  0.4117  0.0280  0.4074
 3961ntf    sn220524   4.360   3.751   2.305 -0.0019 -0.3314 -0.0484
 3961ntf    cn120525   4.256   3.735   2.453  0.3787  0.1012  0.2678
 3961ntf    fn420526   4.459   3.329   2.078 -0.0170  0.0925 -0.2353
 3961ntf    fn420527   4.372   3.329   2.272  0.4103  0.4242  0.1727
 3961ntf    fn420528   4.299   3.457   2.120  0.2289 -0.2222 -0.3802
 3961ntf    on520529   4.636   3.462   2.276 -0.3449 -0.1980  0.7508
 3961ntf    on520530   4.550   3.615   2.105  0.1794 -0.2112 -0.0770
 3961ntf    on520531   4.266   3.741   2.196 -0.5688 -0.2217  0.4226
 3961ntf    on520532   4.440   3.868   2.334 -0.0514 -0.1462 -0.6479
 3961ntf    fn420533   4.174   3.632   2.449  0.0574  0.3357  0.6373
 3961ntf    fn420534   4.329   3.718   2.562  0.4709  0.0561  0.1989
 3961ntf    fn420535   4.184   3.844   2.473  0.0830  0.0151 -0.3151
 3962ntf    cn120536   5.560   3.482   5.652 -0.1237  0.3696 -0.0916
 3962ntf    sn220537   5.612   3.655   5.674 -0.3096  0.4828 -0.5321
 3962ntf    nn320538   5.578   3.710   5.531 -0.5540  0.7410 -0.3747
 3962ntf    sn220539   5.673   3.740   5.409  0.0249 -0.0184 -0.1207
 3962ntf    cn120540   5.674   3.920   5.437  0.3547 -0.0578  0.1266
 3962ntf    fn420541   5.595   3.437   5.533  0.2104  0.3056  0.0297
 3962ntf    fn420542   5.612   3.405   5.746  0.2441  0.2290 -0.4062
 3962ntf    fn420543   5.429   3.465   5.663  0.0710 -0.8044  0.6181
 3962ntf    on520544   5.520   3.699   5.776  0.1625  0.3375 -0.0365
 3962ntf    on520545   5.750   3.651   5.718 -0.5782  1.0093  0.3823
 3962ntf    on520546   5.606   3.720   5.283  0.0699  0.1763 -0.1751
 3962ntf    on520547   5.811   3.701   5.420  0.0032  0.0665  0.5191
 3962ntf    fn420548   5.742   3.958   5.544  0.1808  0.0573  0.1956
 3962ntf    fn420549   5.723   3.983   5.332 -0.4675 -0.2081 -0.3549
 3962ntf    fn420550   5.552   3.968   5.451  0.1762 -0.6034  0.4709
 3963ntf    cn120551   0.773   1.302   7.027 -0.1110 -0.2277 -0.7378
 3963ntf    sn220552   0.948   1.256   7.023 -0.0594 -0.0951 -0.0760
 3963ntf    nn320553   0.988   1.236   7.173 -0.0092  0.1292 -0.0576
 3963ntf    sn220554   1.098   1.142   7.235 -0.2030 -0.0195  0.0649
 3963ntf    cn120555   1.002   1.005   7.306  0.2269 -0.1516  0.3972
 3963ntf    fn420556   0.726   1.354   6.914 -0.3541 -0.0724 -0.5666
 3963ntf    fn420557   0.698   1.193   7.041 -0.3013  0.0044  0.0712
 3963ntf    fn420558   0.740   1.384   7.125  0.0853 -0.8338 -0.1589
 3963ntf    on520559   0.942   1.139   6.940  0.2377 -0.0920 -0.1058
 3963ntf    on520560   1.010   1.374   6.966 -0.1792 -0.0471 -0.1059
 3963ntf    on520561   1.157   1.206   7.350 -0.2722  0.8198 -0.3559
 3963ntf    on520562   1.179   1.070   7.140 -0.4683  0.0426 -0.2086
 3963ntf    fn420563   0.955   0.916   7.220 -0.0534 -0.1427  0.5393
 3963ntf    fn420564   1.084   0.936   7.383  0.5709 -0.1292  0.0559
 3963ntf    fn420565   0.909   1.043   7.393  0.3071 -0.2193  0.5123
 3964ntf    cn120566   4.291   4.197   1.095 -0.1665 -0.2702  0.7464
 3964ntf    sn220567   4.419   4.301   1.172 -0.1454  0.1728  0.1244
 3964ntf    nn320568   4.399   4.276   1.326 -0.2725  0.3427  0.1363
 3964ntf    sn220569   4.420   4.363   1.455 -0.1280  0.2317  0.1883
 3964ntf    cn120570   4.257   4.443   1.448 -0.0246  0.4047 -0.2702
 3964ntf    fn420571   4.166   4.229   1.127 -0.2533  0.1358  0.0088
 3964ntf    fn420572   4.291   4.203   0.963 -0.3422 -0.2232  0.7477
 3964ntf    fn420573   4.307   4.069   1.124  0.1890 -0.4315 -0.1572
 3964ntf    on520574   4.543   4.243   1.127 -0.0003  0.5462  0.0421
 3964ntf    on520575   4.388   4.436   1.134 -0.7833  0.0067  0.0336
 3964ntf    on520576   4.507   4.478   1.453 -0.1053  0.2075 -0.1943
 3964ntf    on520577   4.424   4.283   1.575  0.2006  0.1870  0.1485
 3964ntf    fn420578   4.227   4.515   1.555 -0.2002  0.7223 -0.5303
 3964ntf    fn420579   4.239   4.525   1.346  0.0003  0.3345 -0.3316
 3964ntf    fn420580   4.160   4.352   1.447  0.4331 -0.0884 -0.6621
 3965ntf    cn120581   2.628   6.780   6.567 -0.0899 -0.1496  0.3406
 3965ntf    sn220582   2.798   6.756   6.508 -0.0960  0.4372  0.0692
 3965ntf    nn320583   2.779   6.612   6.448 -0.0071  0.4661 -0.0304
 3965ntf    sn220584   2.763   6.563   6.300 -0.1160  0.1039  0.1003
 3965ntf    cn120585   2.899   6.442   6.293 -0.5230 -0.3397 -0.2278
 3965ntf    fn420586   2.550   6.811   6.464  0.0907 -0.1816  0.1952
 3965ntf    fn420587   2.586   6.666   6.619  0.1519 -0.4805 -0.1788
 3965ntf    fn420588   2.614   6.883   6.649  0.5884  0.3828 -0.2006
 3965ntf    on520589   2.825   6.864   6.417 -0.7081 -0.0793 -0.7410
 3965ntf    on520590   2.875   6.749   6.630  0.4373  0.2492 -0.2711
 3965ntf    on520591   2.796   6.656   6.195 -0.1222 -0.1486 -0.1266
 3965ntf    on520592   2.648   6.479   6.276  0.0948  0.0784 -0.8564
 3965ntf    fn420593   2.918   6.403   6.168 -0.2697  0.4053 -0.4244
 3965ntf    fn420594   3.009   6.507   6.327 -0.1809 -0.9980 -0.0587
 3965ntf    fn420595   2.887   6.336   6.372  0.0080 -0.1263  0.1475
 3966ntf    cn120596   1.745   2.890   5.356 -0.1352 -0.5033 -0.0420
 3966ntf    sn220597   1.706   3.048   5.273  0.2939 -0.0962  0.5214
 3966ntf    nn320598   1.852   3.090   5.232 -0.0197  0.3813 -0.1097
 3966ntf    sn220599   1.912   3.109   5.088  0.2563 -0.0869 -0.0586
 3966ntf    cn120600   1.905   3.291   5.093 -0.2897 -0.1015 -0.1808
 3966ntf    fn420601   1.640   2.811   5.365 -0.1353 -0.5088 -0.0898
 3966ntf    fn420602   1.846   2.835   5.290  0.2631  0.1271  0.0254
 3966ntf    fn420603   1.787   2.906   5.480  0.2624 -0.1480 -0.2174
 3966ntf    on520604   1.614   3.016   5.166  0.0485  0.1694  0.6530
 3966ntf    on520605   1.650   3.126   5.380 -0.6617 -0.1376  0.0623
 3966ntf    on520606   1.826   3.073   4.979 -0.0650  0.0900  0.1358
 3966ntf    on520607   2.055   3.095   5.076  0.2344 -0.0814 -0.3313
 3966ntf    fn420608   1.781   3.333   5.083 -0.3221 -0.1721 -0.0786
 3966ntf    fn420609   1.956   3.346   5.203 -0.3243 -0.1203 -0.1552
 3966ntf    fn420610   1.979   3.336   4.993 -0.0240 -0.3707 -0.1119
 3967ntf    cn120611   1.513   1.228   5.785  0.3592 -0.1646 -0.0679
 3967ntf    sn220612   1.507   1.261   5.964 -0.0480  0.0397 -0.1176
 3967ntf    nn320613   1.398   1.375   5.962 -0.1248 -0.0082  0.7712
 3967ntf    sn220614   1.367   1.497   6.055 -0.2238  0.4324  0.1675
 3967ntf    cn120615   1.368   1.625   5.926 -0.1011  0.3428  0.0803
 3967ntf    fn420616   1.397   1.174   5.752  0.3144  0.2301 -0.5690
 3967ntf    fn420617   1.527   1.339   5.715 -0.6948 -0.2168 -0.3870
 3967ntf    fn420618   1.612   1.154   5.739  0.1050 -0.3845 -0.2620
 3967ntf    on520619   1.458   1.141   6.028 -0.6244  0.0388 -0.5487
 3967ntf    on520620   1.638   1.310   5.998 -0.0242 -0.0874 -0.0256
 3967ntf    on520621   1.474   1.535   6.143  0.2360 -0.1488 -0.1357
 3967ntf    on520622   1.229   1.504   6.097 -0.3140 -0.0603 -0.0313
 3967ntf    fn420623   1.305   1.579   5.819  0.2463  0.7768 -0.3156
 3967ntf    fn420624   1.321   1.739   5.973 -0.3765 -0.0190  0.7077
 3967ntf    fn420625   1.495   1.632   5.891 -0.2437 -0.3132 -0.6188
 3968ntf    cn120626   5.470   6.300   2.763  0.0761 -0.1104 -0.2039
 3968ntf    sn220627   5.591   6.431   2.796  0.0653 -0.1365 -0.0583
 3968ntf    nn320628   5.512   6.550   2.730 -0.0890 -0.0581  0.2694
 3968ntf    sn220629   5.571   6.668   2.645  0.2057 -0.4931 -0.1365
 3968ntf    cn120630   5.523   6.608   2.481 -0.1612 -0.0870 -0.1793
 3968ntf    fn420631   5.361   6.308   2.838  0.3673 -0.0858  0.2193
 3968ntf    fn420632   5.429   6.293   2.637  0.5730  0.6187 -0.4122
 3968ntf    fn420633   5.526   6.183   2.789  0.2164 -0.0082 -0.0473
 3968ntf    on520634   5.590   6.432   2.940  0.1060 -0.3642 -0.0561
 3968ntf    on520635   5.711   6.384   2.729  0.2837  0.1673  0.1154
 3968ntf    on520636   5.714   6.685   2.636  0.1175  0.2618 -0.2026
 3968ntf    on520637   5.490   6.787   2.635  0.8108 -0.0733 -0.1342
 3968ntf    fn420638   5.558   6.700   2.392 -0.1938 -0.7050 -0.8406
 3968ntf    fn420639   5.581   6.493   2.451  0.0444 -0.0759  0.1705
 3968ntf    fn420640   5.392   6.595   2.465 -0.2965  0.8710  0.0856
 3969ntf    cn120641   4.041   7.026   1.744  0.0951 -0.1639 -0.2078
 3969ntf    sn220642   4.203   7.057   1.821  0.0489 -0.0094 -0.1726
 3969ntf    nn320643   4.253   6.911   1.851 -0.8125 -0.2674  0.0390
 3969ntf    sn220644   4.248   6.838   1.990  0.2577 -0.2675  0.0872
 3969ntf    cn120645   4.424   6.806   2.022  0.2600  0.1326  0.4842
 3969ntf    fn420646   3.949   6.989   1.832  0.4141 -0.2926  0.0741
 3969ntf    fn420647   3.988   7.134   1.688  0.3346  0.0209 -0.0785
 3969ntf    fn420648   4.042   6.936   1.647 -0.1727 -0.3940  0.0023
 3969ntf    on520649   4.276   7.112   1.709 -0.0634  0.6294  0.0691
 3969ntf    on520650   4.191   7.145   1.934  0.2972 -0.0706 -0.0976
 3969ntf    on520651   4.187   6.708   1.977 -0.1817 -0.0343 -0.2219
 3969ntf    on520652   4.211   6.911   2.109 -0.2388 -0.4375  0.0399
 3969ntf    fn420653   4.441   6.757   2.144 -0.0874 -0.1874  0.4064
 3969ntf    fn420654   4.470   6.715   1.939 -0.1433  0.2153  0.1660
 3969ntf    fn420655   4.497   6.916   2.009 -0.1110  0.3503  0.2184
 3970ntf    cn120656   1.449   6.667   6.231 -0.0125  0.5802  0.2537
 3970ntf    sn220657   1.337   6.736   6.106  0.0890  0.1738 -0.0617
 3970ntf    nn320658   1.435   6.733   5.983  0.5499 -0.3783  0.3120
 3970ntf    sn220659   1.408   6.728   5.828  0.1509 -0.2308  0.3745
 3970ntf    cn120660   1.435   6.552   5.790 -0.1875 -0.1713 -0.1589
 3970ntf    fn420661   1.443   6.535   6.234 -0.2058  0.5973  0.6715
 3970ntf    fn420662   1.574   6.706   6.214  0.1587 -0.2331 -0.4225
 3970ntf    fn420663   1.417   6.703   6.355 -0.1473  0.5529  0.2279
 3970ntf    on520664   1.229   6.641   6.098 -0.2714  0.6208 -0.6000
 3970ntf    on520665   1.305   6.869   6.153  0.4197  0.4047 -0.4797
 3970ntf    on520666   1.511   6.796   5.754 -0.4154  0.1304 -0.0896
 3970ntf    on520667   1.273   6.764   5.794  0.2845  0.3552  0.4610
 3970ntf    fn420668   1.556   6.513   5.826 -0.2154 -0.0059  0.1228
 3970ntf    fn420669   1.351   6.469   5.851  0.1823 -0.3262  0.1421
 3970ntf    fn420670   1.424   6.535   5.660  0.0421 -0.2814 -0.1638
 3971ntf    cn120671   5.623   2.150   0.692  0.0514 -0.1342  0.3899
 3971ntf    sn220672   5.759   2.264   0.730  0.0388 -0.0870  0.2933
 3971ntf    nn320673   5.727   2.289   0.882 -0.0700 -0.0235  0.2599
 3971ntf    sn220674   5.759   2.416   0.969  0.1451  0.0078  0.1351
 3971ntf    cn120675   5.607   2.513   0.948  0.0550 -0.1876 -0.1095
 3971ntf    fn420676   5.624   2.098   0.570 -0.8058  0.2663  0.2086
 3971ntf    fn420677   5.626   2.044   0.772  0.4879 -0.3855  0.0487
 3971ntf    fn420678   5.501   2.201   0.700 -0.1167 -0.3368 -0.7276
 3971ntf    on520679   5.874   2.179   0.709 -0.1777 -0.3602  0.2083
 3971ntf    on520680   5.742   2.380   0.647 -0.1280 -0.2509  0.0978
 3971ntf    on520681   5.869   2.493   0.917  0.3798 -0.6277 -0.3242
 3971ntf    on520682   5.771   2.380   1.108  0.7028 -0.5404 -0.0520
 3971ntf    fn420683   5.595   2.619   1.025 -0.0140 -0.3081  0.0455
 3971ntf    fn420684   5.599   2.553   0.822 -0.2939  0.1076  0.0057
 3971ntf    fn420685   5.496   2.442   0.963 -0.0041 -0.0126  0.3003
 3972ntf    cn120686   5.887   2.085   0.220  0.3981  0.4897 -0.2056
 3972ntf    sn220687   5.825   2.181   0.078  0.0384  0.0940 -0.3152
 3972ntf    nn320688   5.792   2.058  -0.013  0.0488 -0.2656  0.1591
 3972ntf    sn220689   5.871   1.978  -0.124 -0.1460  0.3628 -0.4386
 3972ntf    cn120690   5.792   2.055  -0.269 -0.2777  0.0180 -0.5518
 3972ntf    fn420691   5.940   2.168   0.309  0.0284 -0.2946  0.7656
 3972ntf    fn420692   5.795   2.011   0.279  0.3417 -0.0807 -1.0067
 3972ntf    fn420693   5.987   2.005   0.187 -0.0553 -0.2195  0.1211
 3972ntf    on520694   5.712   2.255   0.127  0.0999  0.1068 -0.1925
 3972ntf    on520695   5.939   2.258   0.035  0.2540 -0.0534 -0.0181
 3972ntf    on520696   5.824   1.842  -0.129 -0.2823  0.3878  0.0464
 3972ntf    on520697   6.010   2.006  -0.150  0.0750 -0.4032 -0.0887
 3972ntf    fn420698   5.789   1.993  -0.385 -0.3267  0.3510 -0.7307
 3972ntf    fn420699   5.666   2.081  -0.237 -0.2123 -0.1415 -0.1521
 3972ntf    fn420700   5.855   2.170  -0.290  0.3836 -0.2858 -0.2503
 3973ntf    cn120701   7.099   3.697   3.909 -0.1490  0.2124  0.0436
 3973ntf    sn220702   7.104   3.869   3.849 -0.1695  0.0815 -0.3410
 3973ntf    nn320703   6.987   3.939   3.927 -0.0078 -0.1590  0.1205
 3973ntf    sn220704   6.999   4.010   4.067  0.1485 -0.3089  0.1830
 3973ntf    cn120705   6.859   3.931   4.152  0.0218 -0.0396  0.2259
 3973ntf    fn420706   7.199   3.626   3.859 -0.0811  0.1583  0.2549
 3973ntf    fn420707   7.106   3.686   4.040 -0.1018 -0.4445 -0.0120
 3973ntf    fn420708   6.988   3.642   3.862  0.1738 -0.2223 -0.2169
 3973ntf    on520709   7.235   3.925   3.866 -0.4660  0.5325  0.5522
 3973ntf    on520710   7.055   3.846   3.715 -0.0462 -0.3719 -0.3093
 3973ntf    on520711   6.975   4.152   4.074  0.5068 -0.2095 -0.4946
 3973ntf    on520712   7.111   3.960   4.142 -0.1027 -0.0020  0.7697
 3973ntf    fn420713   6.744   3.992   4.134 -0.1292 -0.3635  0.0862
 3973ntf    fn420714   6.846   3.808   4.103 -0.0510  0.0915 -0.0848
 3973ntf    fn420715   6.879   3.926   4.283  0.0713  0.8074  0.2536
 3974ntf    cn120716   6.751   4.964   5.842  0.1323 -0.1802 -0.6570
 3974ntf    sn220717   6.903   4.969   5.942 -0.1168  0.1838 -0.2928
 3974ntf    nn320718   6.928   4.814   5.936 -0.3505  0.1482 -0.3545
 3974ntf    sn220719   6.978   4.727   6.057 -0.3004  0.3013 -0.2652
 3974ntf    cn120720   6.820   4.698   6.143 -0.2326  0.0634 -0.2221
 3974ntf    fn420721   6.669   4.883   5.908 -0.0622  0.2759 -0.3389
 3974ntf    fn420722   6.703   5.087   5.834 -0.2201 -0.2219  0.6281
 3974ntf    fn420723   6.772   4.914   5.721 -0.1039 -0.1031 -0.7302
 3974ntf    on520724   6.994   5.053   5.868  0.0507  0.2267 -0.0386
 3974ntf    on520725   6.858   5.018   6.070  0.1286 -0.1912 -0.0603
 3974ntf    on520726   7.071   4.793   6.145 -0.2114 -0.2545  0.0618
 3974ntf    on520727   7.011   4.593   6.017 -0.3265  0.1072  0.3572
 3974ntf    fn420728   6.785   4.802   6.217 -0.5606 -0.2976  0.1366
 3974ntf    fn420729   6.717   4.663   6.068 -0.3651  0.5295 -0.2575
 3974ntf    fn420730   6.834   4.605   6.236 -0.0040  0.0213 -0.2968
 3975ntf    cn120731   4.450   1.508   3.138  0.2446  0.1140  0.3736
 3975ntf    sn220732   4.424   1.503   3.318 -0.2470  0.0687  0.3003
 3975ntf    nn320733   4.295   1.593   3.320  0.0414  0.4825  0.5678
 3975ntf    sn220734   4.144   1.552   3.338  0.0202  0.3734  0.1642
 3975ntf    cn120735   4.117   1.587   3.514 -0.2435  0.1893  0.1612
 3975ntf    fn420736   4.334   1.531   3.079  0.1014 -0.3516  0.4652
 3975ntf    fn420737   4.549   1.587   3.100  0.6006 -0.7068 -0.4722
 3975ntf    fn420738   4.474   1.389   3.084  0.1333  0.3128 -0.1199
 3975ntf    on520739   4.417   1.361   3.338  0.1342 -0.0097 -0.1088
 3975ntf    on520740   4.544   1.567   3.365  0.1874 -0.4949 -0.0452
 3975ntf    on520741   4.120   1.411   3.314  0.3897  0.3955 -0.3484
 3975ntf    on520742   4.053   1.643   3.274 -0.1379 -0.1773 -0.4023
 3975ntf    fn420743   4.004   1.533   3.558 -0.1037  0.1310  0.4517
 3975ntf    fn420744   4.205   1.533   3.598 -0.3014 -0.0012  0.0987
 3975ntf    fn420745   4.112   1.717   3.539 -0.2612  0.1525  0.3538
 3976ntf    cn120746   6.505   0.808   3.111 -0.0245  0.2028  0.0191
 3976ntf    sn220747   6.398   0.760   3.250 -0.0508 -0.0965 -0.1031
 3976ntf    nn320748   6.460   0.824   3.379  0.0176  0.1051 -0.2341
 3976ntf    sn220749   6.442   0.970   3.433 -0.0620 -0.0649  0.2051
 3976ntf    cn120750   6.609   1.008   3.496 -0.0083 -0.1599  0.1190
 3976ntf    fn420751   6.629   0.762   3.108 -0.1239 -0.0813  0.2426
 3976ntf    fn420752   6.446   0.772   2.998  0.2054  0.4078 -0.1680
 3976ntf    fn420753   6.527   0.938   3.100  0.3851  0.1117 -0.2318
 3976ntf    on520754   6.271   0.807   3.200 -0.0944  0.4372  0.4978
 3976ntf    on520755   6.411   0.617   3.248  0.5448 -0.0472  0.1917
 3976ntf    on520756   6.363   0.989   3.552 -0.2410 -0.3668  0.1333
 3976ntf    on520757   6.428   1.069   3.329  0.5282 -0.3513 -0.1493
 3976ntf    fn420758   6.704   0.994   3.406  0.0983  0.2573  0.1676
 3976ntf    fn420759   6.621   1.124   3.557 -0.0746  0.0123 -0.1920
 3976ntf    fn420760   6.634   0.918   3.590 -0.0897 -0.7816 -0.4447
 3977ntf    cn120761   4.837   6.713   5.271  0.4723 -0.2387  0.1658
 3977ntf    sn220762   4.894   6.870   5.342  0.2233 -0.0966  0.0507
 3977ntf    nn320763   4.958   6.821   5.476 -0.6798  0.0288  0.5346
 3977ntf    sn220764   4.996   6.899   5.608  0.4208 -0.0308  0.2629
 3977ntf    cn120765   4.886   6.818   5.729  0.3170 -0.3438 -0.0364
 3977ntf    fn420766   4.801   6.722   5.144 -0.5923 -0.4908  0.4373
 3977ntf    fn420767   4.930   6.619   5.280  0.4744 -0.3270 -0.6962
 3977ntf    fn420768   4.736   6.662   5.339  0.1987  0.2553  0.1344
 3977ntf    on520769   4.995   6.920   5.251 -0.7877  0.3340 -0.8650
 3977ntf    on520770   4.778   6.954   5.359  0.4389  0.1594  0.2559
 3977ntf    on520771   4.961   7.039   5.607  0.2756 -0.0679 -0.1826
 3977ntf    on520772   5.126   6.856   5.653  0.2493 -0.5948  0.2261
 3977ntf    fn420773   4.894   6.686   5.722  0.3447 -0.3408 -0.0643
 3977ntf    fn420774   4.904   6.858   5.854  0.0165 -0.4632  0.0441
 3977ntf    fn420775   4.758   6.846   5.712  0.5002  0.4507 -0.1672
 3978ntf    cn120776   0.634   0.070   4.251  0.4486  0.0057 -0.2264
 3978ntf    sn220777   0.659  -0.062   4.372 -0.3269  0.2459  0.2054
 3978ntf    nn320778   0.647  -0.004   4.518 -0.0607 -0.2805  0.4420
 3978ntf    sn220779   0.512   0.034   4.589 -0.1484 -0.3005  0.2865
 3978ntf    cn120780   0.461  -0.126   4.660 -0.0791 -0.3364  0.2573
 3978ntf    fn420781   0.608   0.020   4.131  0.0119  0.6091 -0.3909
 3978ntf    fn420782   0.531   0.150   4.275  0.7979  0.1529  0.7970
 3978ntf    fn420783   0.734   0.157   4.240 -0.1834  0.8363  0.4363
 3978ntf    on520784   0.550  -0.151   4.340 -0.1216 -0.0462  0.3029
 3978ntf    on520785   0.794  -0.107   4.347 -0.6165 -0.4390 -0.1362
 3978ntf    on520786   0.405   0.076   4.502  0.4972  0.0312 -0.3587
 3978ntf    on520787   0.529   0.112   4.709  0.6691 -0.3257  0.1938
 3978ntf    fn420788   0.384  -0.193   4.577  0.1203  0.2452 -0.4130
 3978ntf    fn420789   0.566  -0.202   4.687  0.0577 -0.3159 -0.2167
 3978ntf    fn420790   0.400  -0.122   4.777  0.0081 -0.0091  0.2931
 3979ntf    cn120791   6.535   3.717   5.800 -0.4924 -0.1345  0.1918
 3979ntf    sn220792   6.416   3.846   5.850 -0.3635  0.0076  0.1335
 3979ntf    nn320793   6.355   3.881   5.710  0.1353 -0.3819 -0.1864
 3979ntf    sn220794   6.211   3.845   5.659  0.0083  0.1971 -0.2544
 3979ntf    cn120795   6.231   3.937   5.504 -0.0131  0.4487 -0.1085
 3979ntf    fn420796   6.637   3.772   5.736 -0.2713 -0.2931  0.4052
 3979ntf    fn420797   6.583   3.645   5.900 -0.2260 -0.1614  0.0452
 3979ntf    fn420798   6.475   3.637   5.714 -0.2138 -0.1220 -0.0141
 3979ntf    on520799   6.332   3.776   5.943 -0.4327 -0.3258 -0.1787
 3979ntf    on520800   6.503   3.948   5.903 -0.3099  0.1061 -0.1423
 3979ntf    on520801   6.101   3.905   5.730  0.4208  0.5322  0.1111
 3979ntf    on520802   6.202   3.707   5.617  0.3877  0.0662  0.0828
 3979ntf    fn420803   6.124   3.921   5.427  0.1072  0.2727 -0.2416
 3979ntf    fn420804   6.239   4.067   5.524  0.0475  0.4753 -0.3036
 3979ntf    fn420805   6.332   3.893   5.430 -0.1359 -0.3703  0.1926
 3980ntf    cn120806   3.236   2.178   3.397  0.3589 -0.5179 -0.2078
 3980ntf    sn220807   3.392   2.191   3.305  0.2820 -0.0404 -0.2761
 3980ntf    nn320808   3.493   2.242   3.414 -0.1210 -0.4559  0.2961
 3980ntf    sn220809   3.650   2.242   3.422 -0.1206  0.0093  0.3194
 3980ntf    cn120810   3.686   2.412   3.370  0.2392 -0.1893 -0.0873
 3980ntf    fn420811   3.193   2.292   3.448 -0.1609 -0.9668  0.3698
 3980ntf    fn420812   3.134   2.129   3.328  0.0005 -0.1826  0.0773
 3980ntf    fn420813   3.249   2.098   3.502 -0.6561 -0.2055  0.1708
 3980ntf    on520814   3.415   2.052   3.274 -0.3194 -0.1509 -0.2304
 3980ntf    on520815   3.358   2.283   3.200 -0.5658 -0.3111 -0.2412
 3980ntf    on520816   3.718   2.158   3.327 -0.2615  0.5249 -0.2390
 3980ntf    on520817   3.692   2.247   3.560  0.1992 -0.0407  0.2242
 3980ntf    fn420818   3.683   2.419   3.238  0.1428 -0.2026 -0.0858
 3980ntf    fn420819   3.585   2.482   3.421  0.0566 -0.0859 -0.5836
 3980ntf    fn420820   3.801   2.466   3.408  0.1518 -0.0197 -0.0607
 3981ntf    cn120821   2.534   5.759   6.377  0.0190 -0.1650 -0.5056
 3981ntf    sn220822   2.440   5.625   6.298 -0.0777 -0.2463 -0.2534
 3981ntf    nn320823   2.445   5.529   6.423  0.6043  0.5279  0.3323
 3981ntf    sn220824   2.354   5.541   6.551 -0.3663 -0.1572 -0.2699
 3981ntf    cn120825   2.259   5.390   6.517 -0.0801 -0.4499  0.2263
 3981ntf    fn420826   2.471   5.806   6.484  0.4095 -0.4319 -0.1523
 3981ntf    fn420827   2.650   5.718   6.426  0.1367  0.4256 -0.2844
 3981ntf    fn420828   2.554   5.861   6.296  0.0662 -0.3965 -0.7887
 3981ntf    on520829   2.311   5.677   6.261  0.2580  0.6355 -0.1938
 3981ntf    on520830   2.535   5.590   6.196 -0.0640  0.1616 -0.3825
 3981ntf    on520831   2.262   5.650   6.569 -0.1048  0.0278 -0.0449
 3981ntf    on520832   2.420   5.497   6.671  0.1754 -0.2983 -0.6122
 3981ntf    fn420833   2.171   5.363   6.612 -0.1782 -0.4254  0.1421
 3981ntf    fn420834   2.186   5.399   6.407 -0.0500 -0.3889  0.2116
 3981ntf    fn420835   2.333   5.281   6.512 -0.0511 -0.4104 -0.1949
 3982ntf    cn120836   4.351   3.143   1.221  0.2204 -0.2719 -0.3995
 3982ntf    sn220837   4.418   3.039   1.088  0.0778 -0.3718 -0.3935
 3982ntf    nn320838   4.483   2.921   1.170  0.3026 -0.2954 -0.4613
 3982ntf    sn220839   4.461   2.766   1.172 -0.1321 -0.2376 -0.5260
 3982ntf    cn120840   4.392   2.741   1.338 -0.0874  0.1791 -0.4431
 3982ntf    fn420841   4.448   3.172   1.305 -0.2429  0.1532 -0.0047
 3982ntf    fn420842   4.293   3.256   1.182 -0.2865 -0.4549 -0.1810
 3982ntf    fn420843   4.268   3.078   1.301  0.0290  0.2700 -0.1493
 3982ntf    on520844   4.298   3.012   1.013  0.0301  0.5699 -0.6576
 3982ntf    on520845   4.514   3.129   1.030 -0.2916 -0.0306 -0.4780
 3982ntf    on520846   4.592   2.705   1.179  0.0266  0.1237 -0.3285
 3982ntf    on520847   4.359   2.713   1.085 -0.0497 -0.2130 -0.6384
 3982ntf    fn420848   4.289   2.820   1.361  0.0420  0.2618 -0.1517
 3982ntf    fn420849   4.355   2.614   1.351  0.1244  0.2146  0.5458
 3982ntf    fn420850   4.475   2.757   1.439  0.1481 -0.1095 -0.5899
 3983ntf    cn120851   2.748   5.993   2.532 -0.1625 -0.0241 -0.1475
 3983ntf    sn220852   2.829   5.839   2.481  0.2706  0.1598 -0.0142
 3983ntf    nn320853   2.796   5.740   2.598 -0.1340 -0.0470 -0.3028
 3983ntf    sn220854   2.874   5.709   2.730 -0.1589  0.1019 -0.2537
 3983ntf    cn120855   2.955   5.552   2.687 -0.2504 -0.0503  0.1248
 3983ntf    fn420856   2.776   6.095   2.452 -0.1932  0.0542 -0.0592
 3983ntf    fn420857   2.617   5.977   2.539 -0.1278 -0.0697  0.4249
 3983ntf    fn420858   2.778   6.035   2.654 -0.6999 -0.2258  0.0571
 3983ntf    on520859   2.771   5.805   2.354  0.2378 -0.2884  0.1207
 3983ntf    on520860   2.969   5.875   2.480  0.2557  0.2283  0.3749
 3983ntf    on520861   2.784   5.671   2.836 -0.4714  1.2030 -0.1102
 3983ntf    on520862   2.986   5.792   2.770  0.0737 -0.3543  0.0530
 3983ntf    fn420863   2.879   5.444   2.698  0.3097 -0.4847 -0.2161
 3983ntf    fn420864   2.998   5.561   2.562  0.3120  0.0242  0.3202
 3983ntf    fn420865   3.066   5.525   2.754 -0.1895  0.0130  0.0503
 3984ntf    cn120866   0.818   0.730   3.567  0.1779 -0.2023 -0.0568
 3984ntf    sn220867   0.639   0.749   3.544  0.1287 -0.3311  0.2090
 3984ntf    nn320868   0.636   0.896   3.489  0.4737 -0.2580  0.3775
 3984ntf    sn220869   0.638   1.028   3.573  0.4187  0.0057 -0.0297
 3984ntf    cn120870   0.800   1.101   3.530  0.3842  0.2453  0.2420
 3984ntf    fn420871   0.859   0.608   3.599  0.0137 -0.1890  0.2058
 3984ntf    fn420872   0.898   0.761   3.466  0.2742 -0.1540  0.0336
 3984ntf    fn420873   0.872   0.805   3.662 -0.1406 -0.0174 -0.0232
 3984ntf    on520874   0.612   0.646   3.447 -0.0126  0.6398 -0.8028
 3984ntf    on520875   0.595   0.720   3.678 -0.1524  0.5556  0.3158
 3984ntf    on520876   0.650   1.008   3.715  0.3009 -0.3418 -0.0675
 3984ntf    on520877   0.544   1.127   3.526  0.1844 -0.1725  0.0659
 3984ntf    fn420878   0.905   1.026   3.558  0.3932  0.0866 -0.2164
 3984ntf    fn420879   0.807   1.117   3.399  0.0783  0.2241  0.2213
 3984ntf    fn420880   0.823   1.217   3.588  0.2600  0.4206 -0.0600
 3985ntf    cn120881   0.286   2.035   6.776  0.5384  0.1707  0.0562
 3985ntf    sn220882   0.215   2.083   6.936  0.1096  0.4614 -0.2192
 3985ntf    nn320883   0.338   2.154   7.002  0.0515 -0.3704  0.8113
 3985ntf    sn220884   0.442   2.113   7.112  0.4873  0.2004  0.6166
 3985ntf    cn120885   0.602   2.145   7.030 -0.1379  0.6237 -0.4539
 3985ntf    fn420886   0.400   1.968   6.773  0.6201  0.3239 -0.4714
 3985ntf    fn420887   0.201   1.959   6.708  0.6980 -0.0928  0.1490
 3985ntf    fn420888   0.308   2.141   6.701  0.2849 -0.0170 -0.2891
 3985ntf    on520889   0.109   2.178   6.912  0.5347  0.9028 -0.3599
 3985ntf    on520890   0.181   1.959   7.002 -0.1507  0.6706  0.0421
 3985ntf    on520891   0.440   1.973   7.149 -0.7189  0.1707  0.4738
 3985ntf    on520892   0.450   2.211   7.217 -0.7011  0.3517  0.5691
 3985ntf    fn420893   0.606   2.262   6.969  0.1628  0.7279 -0.2340
 3985ntf    fn420894   0.706   2.138   7.111 -0.4527  0.3055 -0.0728
 3985ntf    fn420895   0.629   2.055   6.937 -0.1450 -0.3061  0.4203
 3986ntf    cn120896   5.981   0.484   6.798 -0.1761 -0.3121  0.0898
 3986ntf    sn220897   5.822   0.546   6.736 -0.0439 -0.0161  0.0467
 3986ntf    nn320898   5.824   0.514   6.583 -0.4051  0.2407 -0.0126
 3986ntf    sn220899   5.781   0.383   6.507  0.0026  0.0044  0.1625
 3986ntf    cn120900   5.610   0.421   6.457 -0.0616 -0.2457  0.1923
 3986ntf    fn420901   6.073   0.480   6.703  0.3602  0.3601  0.5723
 3986ntf    fn420902   6.029   0.569   6.887  0.1096 -0.0157 -0.3470
 3986ntf    fn420903   5.977   0.365   6.857 -0.6646 -0.1065  0.4718
 3986ntf    on520904   5.731   0.472   6.820  0.0801  0.0723  0.2608
 3986ntf    on520905   5.814   0.689   6.753 -0.2147 -0.0202  0.0039
 3986ntf    on520906   5.773   0.258   6.579  0.1708  0.0136  0.1989
 3986ntf    on520907   5.852   0.383   6.382 -0.1822  0.1286  0.0563
 3986ntf    fn420908   5.561   0.329   6.375 -0.0923 -0.3595  0.3359
 3986ntf    fn420909   5.524   0.421   6.557  0.0694  0.0665  0.3065
 3986ntf    fn420910   5.598   0.536   6.394  0.1890 -0.1801  0.2625
 3987ntf    cn120911   5.623   2.530   3.186 -0.0275  0.0932  0.0805
 3987ntf    sn220912   5.748   2.642   3.116 -0.0215 -0.0037 -0.0661
 3987ntf    nn320913   5.831   2.534   3.038  0.1252  0.1153 -0.0764
 3987ntf    sn220914   5.965   2.466   3.084  0.1054  0.0987 -0.0425
 3987ntf    cn120915   6.087   2.568   2.996  0.4483 -0.4105 -0.1615
 3987ntf    fn420916   5.552   2.467   3.093  0.4253  0.0748 -0.2605
 3987ntf    fn420917   5.683   2.434   3.255 -0.2653  0.1217  0.3287
 3987ntf    fn420918   5.539   2.588   3.269  0.1122  0.0436  0.2586
 3987ntf    on520919   5.691   2.730   3.017  0.3787  0.0343 -0.2648
 3987ntf    on520920   5.797   2.709   3.234  0.1466 -0.3356  0.0538
 3987ntf    on520921   5.975   2.332   3.034 -0.6561  0.3253 -0.8320
 3987ntf    on520922   6.000   2.483   3.223  0.0385  0.3610 -0.0566
 3987ntf    fn420923   6.055   2.572   2.868 -1.1666 -0.6666  0.2127
 3987ntf    fn420924   6.087   2.695   3.036 -0.4072 -0.2507 -0.6340
 3987ntf    fn420925   6.211   2.526   3.008  0.5875  0.0501  0.0442
 3988ntf    cn120926   6.898   0.772   4.901  0.1327 -0.7431 -0.3427
 3988ntf    sn220927   6.948   0.869   4.755 -0.0506 -0.0973  0.0213
 3988ntf    nn320928   7.061   0.781   4.690 -0.0796 -0.6430  0.6922
 3988ntf    sn220929   7.039   0.662   4.590 -0.3548 -0.1697  0.1798
 3988ntf    cn120930   7.066   0.745   4.431 -0.0590 -0.0406  0.2965
 3988ntf    fn420931   6.990   0.744   4.992 -0.4107  0.4260  0.5901
 3988ntf    fn420932   6.805   0.832   4.973  0.7674  0.1244 -0.2347
 3988ntf    fn420933   6.837   0.662   4.859 -0.4182 -0.2768 -0.7814
 3988ntf    on520934   6.825   0.883   4.681 -0.1304 -0.3479  0.1045
 3988ntf    on520935   7.016   0.985   4.806  0.1990 -0.5663  0.7781
 3988ntf    on520936   6.906   0.606   4.580 -0.4105 -0.0779  0.3888
 3988ntf    on520937   7.149   0.569   4.592 -0.3645 -0.1975 -0.4031
 3988ntf    fn420938   6.998   0.857   4.415 -0.5746 -0.4620 -0.5355
 3988ntf    fn420939   7.193   0.782   4.423 -0.0474 -0.1860 -0.2478
 3988ntf    fn420940   7.038   0.659   4.334  0.0616  0.5147 -0.2384
 3989ntf    cn120941   5.326   4.777   0.919  0.4537  0.0721 -0.2958
 3989ntf    sn220942   5.278   4.611   0.976  0.2114  0.2261 -0.0473
 3989ntf    nn320943   5.295   4.534   0.840 -0.5156 -0.1424  0.0644
 3989ntf    sn220944   5.198   4.528   0.717  0.0148  0.2409 -0.3749
 3989ntf    cn120945   5.321   4.497   0.586  0.1798 -0.0644 -0.1477
 3989ntf    fn420946   5.423   4.821   0.997  0.2629 -0.0749  0.0283
 3989ntf    fn420947   5.373   4.776   0.796  0.3697  0.9348 -0.3428
 3989ntf    fn420948   5.225   4.862   0.925  0.3018 -0.1431  0.3747
 3989ntf    on520949   5.390   4.573   1.059  0.1911  0.2217 -0.0219
 3989ntf    on520950   5.148   4.610   1.038  0.1256 -0.2624 -0.2264
 3989ntf    on520951   5.137   4.652   0.676  0.0025  0.3704  0.0351
 3989ntf    on520952   5.117   4.411   0.700  0.7116 -0.3023  0.0020
 3989ntf    fn420953   5.371   4.375   0.590 -0.0838 -0.1641  0.1902
 3989ntf    fn420954   5.260   4.509   0.469 -0.2454  0.0356  0.0841
 3989ntf    fn420955   5.415   4.589   0.587 -0.4682  0.6058  0.6523
 3990ntf    cn120956   2.831   4.669   1.663 -0.3235 -0.0066  0.1138
 3990ntf    sn220957   2.936   4.818   1.663 -0.1619 -0.1210  0.1473
 3990ntf    nn320958   2.826   4.923   1.626 -0.5017 -0.5543 -0.0924
 3990ntf    sn220959   2.721   4.992   1.720  0.0458  0.4606 -0.2050
 3990ntf    cn120960   2.780   5.164   1.716  0.3767  0.3725  0.5605
 3990ntf    fn420961   2.806   4.620   1.543 -0.0375  0.3026 -0.0750
 3990ntf    fn420962   2.896   4.574   1.727  0.1300  0.2484  0.0368
 3990ntf    fn420963   2.718   4.684   1.729 -0.2934 -0.4717  0.2744
 3990ntf    on520964   3.000   4.817   1.793  0.0194 -0.3409  0.0582
 3990ntf    on520965   3.022   4.795   1.549 -0.8144  0.3382 -0.4433
 3990ntf    on520966   2.732   4.955   1.859 -0.1356 -0.1893 -0.3600
 3990ntf    on520967   2.586   4.993   1.670  0.0133  0.3034 -0.1230
 3990ntf    fn420968   2.705   5.230   1.803 -0.1951  0.4494  0.0183
 3990ntf    fn420969   2.908   5.187   1.739  0.6500  0.2284 -0.7356
 3990ntf    fn420970   2.761   5.230   1.603  0.8403 -0.4250  0.0030
 3991ntf    cn120971   1.218   5.404   6.866 -0.1910  0.3337 -0.0401
 3991ntf    sn220972   1.072   5.368   6.969 -0.0489  0.3446  0.1656
 3991ntf    nn320973   1.075   5.495   7.061 -0.3305 -0.0162  0.6750
 3991ntf    sn220974   1.013   5.635   7.024 -0.2161 -0.1212  0.0831
 3991ntf    cn120975   0.991   5.703   7.191 -0.0036 -0.0363  0.0777
 3991ntf    fn420976   1.248   5.301   6.789  0.7910  0.0818  0.6651
 3991ntf    fn420977   1.197   5.506   6.785 -0.1981 -0.0323 -0.5049
 3991ntf    fn420978   1.327   5.425   6.937  0.3235 -0.6947 -0.5052
 3991ntf    on520979   0.962   5.354   6.877 -0.0662  0.1125  0.2227
 3991ntf    on520980   1.108   5.242   7.028 -0.0273  0.4110  0.2943
 3991ntf    on520981   0.883   5.638   6.961 -0.2584  0.5465  0.1949
 3991ntf    on520982   1.112   5.720   6.963 -0.5443  0.2378  0.0489
 3991ntf    fn420983   0.942   5.825   7.185  0.1533  0.0170 -0.1151
 3991ntf    fn420984   0.904   5.634   7.263 -0.0272  0.0627  0.1448
 3991ntf    fn420985   1.102   5.706   7.263 -0.0025 -0.1332  0.0806
 3992ntf    cn120986   4.510   4.514   7.169  0.0962  0.3616 -0.3015
 3992ntf    sn220987   4.419   4.575   7.314  0.1367 -0.0548 -0.0975
 3992ntf    nn320988   4.307   4.657   7.241 -0.0737  0.1500  0.4498
 3992ntf    sn220989   4.161   4.609   7.209  0.0242  0.3083 -0.2459
 3992ntf    cn120990   4.118   4.746   7.096 -0.0449  0.1704 -0.3865
 3992ntf    fn420991   4.434   4.470   7.070  0.1801  0.0288 -0.2227
 3992ntf    fn420992   4.578   4.614   7.117  0.2764  0.1328 -0.5098
 3992ntf    fn420993   4.591   4.414   7.202 -0.2895  0.1748  0.0898
 3992ntf    on520994   4.383   4.456   7.387  0.8056 -0.3327 -0.2124
 3992ntf    on520995   4.514   4.668   7.371  0.1485 -0.4129  0.4712
 3992ntf    on520996   4.069   4.625   7.319 -0.1858 -0.5974 -0.2815
 3992ntf    on520997   4.142   4.491   7.130 -0.0135  0.1831 -0.0496
 3992ntf    fn420998   4.200   4.743   6.992 -0.0819 -0.0224 -0.4104
 3992ntf    fn420999   3.994   4.726   7.054 -0.2030 -0.0476  0.1671
 3992ntf    fn421000   4.127   4.863   7.156 -0.7175 -0.0728  0.2058
 3993ntf    cn121001   1.700   1.984   6.307  0.1418  0.1054  0.0356
 3993ntf    sn221002   1.690   2.161   6.266  0.1456  0.1014  0.0169
 3993ntf    nn321003   1.651   2.142   6.115  0.2799 -0.7365  0.0846
 3993ntf    sn221004   1.514   2.167   6.042  0.2977 -0.2873  0.2011
 3993ntf    cn121005   1.525   2.343   5.999  0.2876 -0.2282  0.4419
 3993ntf    fn421006   1.718   1.959   6.436  0.2934 -0.5047 -0.1010
 3993ntf    fn421007   1.592   1.923   6.260  0.0365  0.8694 -0.7478
 3993ntf    fn421008   1.801   1.934   6.238  0.1961  0.2926 -0.0223
 3993ntf    on521009   1.586   2.218   6.348  0.2589  0.5340 -0.1348
 3993ntf    on521010   1.821   2.219   6.288  0.0598  0.2427  0.1571
 3993ntf    on521011   1.393   2.158   6.119 -0.1826 -0.2198 -0.5404
 3993ntf    on521012   1.510   2.100   5.914  0.5990 -0.3690  0.2328
 3993ntf    fn421013   1.567   2.424   6.095  0.0971  0.0889  0.2595
 3993ntf    fn421014   1.610   2.349   5.898  0.0640  0.5526  0.2962
 3993ntf    fn421015   1.413   2.393   5.948  0.2823 -0.4511  0.2359
 3994ntf    cn121016   1.678   6.383   4.831  0.3817  0.2897  0.2072
 3994ntf    sn221017   1.786   6.274   4.928  0.1058  0.0677  0.2642
 3994ntf    nn321018   1.694   6.228   5.047  0.1542 -0.3785  0.1328
 3994ntf    sn221019   1.659   6.306   5.179  0.0111 -0.2287  0.0064
 3994ntf    cn121020   1.735   6.193   5.298  0.2988 -0.1175 -0.0721
 3994ntf    fn421021   1.731   6.420   4.716  0.0013 -0.0431 -0.0751
 3994ntf    fn421022   1.555   6.336   4.818  0.5277 -0.0719  0.1218
 3994ntf    fn421023   1.655   6.494   4.899  0.6682  0.0791  0.6577
 3994ntf    on521024   1.813   6.161   4.843  0.0455 -0.1391  0.5171
 3994ntf    on521025   1.894   6.361   4.968 -0.3882  0.6387  0.3761
 3994ntf    on521026   1.516   6.309   5.198 -0.0221 -0.3662 -0.2170
 3994ntf    on521027   1.726   6.432   5.196 -0.5571  0.1534 -0.5140
 3994ntf    fn421028   1.673   6.076   5.300  0.1205 -0.0186  0.2142
 3994ntf    fn421029   1.861   6.170   5.262  0.3947  0.1207  0.1150
 3994ntf    fn421030   1.737   6.229   5.425  0.6311  0.1006 -0.1369
 3995ntf    cn121031   1.293   0.077   3.456  0.3241  0.4449  0.1717
 3995ntf    sn221032   1.440   0.008   3.536  0.2070  0.0150  0.0213
 3995ntf    nn321033   1.509  -0.076   3.423 -0.2855 -0.2308 -0.0999
 3995ntf    sn221034   1.618  -0.038   3.316 -0.1588  0.0443  0.1261
 3995ntf    cn121035   1.590  -0.155   3.179  0.2519  0.0791  0.0099
 3995ntf    fn421036   1.318   0.172   3.368  0.5220  0.3298  0.1029
 3995ntf    fn421037   1.230  -0.015   3.385 -0.0621  0.4907  0.4521
 3995ntf    fn421038   1.200   0.129   3.534 -0.1896 -0.3846  0.1348
 3995ntf    on521039   1.516   0.124   3.576 -0.2279  0.3156 -0.0164
 3995ntf    on521040   1.398  -0.080   3.642  0.2469  0.4036  0.3619
 3995ntf    on521041   1.744  -0.094   3.359  0.0149  0.4915  0.2059
 3995ntf    on521042   1.614   0.097   3.268  0.3418  0.1135  0.2750
 3995ntf    fn421043   1.678  -0.136   3.082  0.3148 -0.0601  0.0400
 3995ntf    fn421044   1.595  -0.283   3.212 -0.3588  0.0676  0.0748
 3995ntf    fn421045   1.466  -0.140   3.135  0.1556 -0.0618  0.2301
 3996ntf    cn121046   5.922   0.113   2.070  0.1620  0.0060 -0.0183
 3996ntf    sn221047   5.885   0.284   2.116  0.1762 -0.1341  0.5270
 3996ntf    nn321048   6.021   0.334   2.175  0.3207 -0.5620  0.5564
 3996ntf    sn221049   6.052   0.479   2.228 -0.0188 -0.1576 -0.3358
 3996ntf    cn121050   6.161   0.538   2.095  0.4563 -0.0917  0.0835
 3996ntf    fn421051   6.009   0.117   1.971  0.1956  0.1336  0.0166
 3996ntf    fn421052   5.968   0.038   2.169  0.1919 -0.2645 -0.2347
 3996ntf    fn421053   5.814   0.055   2.021 -0.0687  0.4239 -0.0056
 3996ntf    on521054   5.856   0.345   1.988  0.0557  0.0726  0.6517
 3996ntf    on521055   5.776   0.264   2.209 -0.3878  0.5978  0.0409
 3996ntf    on521056   6.135   0.463   2.344  0.1395 -0.3634 -0.4764
 3996ntf    on521057   5.947   0.578   2.229  0.0738 -0.0563 -0.5015
 3996ntf    fn421058   6.270   0.466   2.075  0.5835  0.2164 -0.3674
 3996ntf    fn421059   6.105   0.541   1.975  0.4385 -0.0082  0.0939
 3996ntf    fn421060   6.207   0.661   2.116  0.7029 -0.0766 -0.5236
 3997ntf    cn121061   4.336   4.492   2.784  0.6076  0.2980 -0.0499
 3997ntf    sn221062   4.234   4.388   2.675  0.6506  0.2400 -0.0350
 3997ntf    nn321063   4.292   4.250   2.722 -0.2131 -0.2459 -0.3697
 3997ntf    sn221064   4.226   4.141   2.813  0.0305  0.1568  0.2986
 3997ntf    cn121065   4.189   4.012   2.690  0.3298  0.5446 -0.1984
 3997ntf    fn421066   4.462   4.458   2.761  0.4205 -0.0440 -0.5900
 3997ntf    fn421067   4.329   4.620   2.754  0.4754  0.4019  0.4103
 3997ntf    fn421068   4.315   4.470   2.913  0.6652  0.0771 -0.0775
 3997ntf    on521069   4.099   4.431   2.700  0.4508 -0.3236 -0.1444
 3997ntf    on521070   4.283   4.412   2.541  0.4147 -0.1885 -0.1994
 3997ntf    on521071   4.101   4.184   2.871 -0.1263  0.0148  0.0687
 3997ntf    on521072   4.328   4.075   2.890 -0.5098 -0.2537  0.6775
 3997ntf    fn421073   4.282   3.920   2.674  0.3195  0.4587  0.2207
 3997ntf    fn421074   4.085   3.937   2.722  0.4035  0.2556 -0.6221
 3997ntf    fn421075   4.162   4.068   2.573 -0.4305  0.2005 -0.1952
 3998ntf    cn121076   5.138   3.967   6.440 -0.4635 -0.0163 -0.0609
 3998ntf    sn221077   5.193   3.808   6.371  0.1701 -0.0086  0.4179
 3998ntf    nn321078   5.195   3.725   6.504  0.5209 -0.1880  0.3008
 3998ntf    sn221079   5.127   3.590   6.546  0.2594 -0.0713  0.2543
 3998ntf    cn121080   5.274   3.486   6.571  0.1452 -0.3385 -0.1629
 3998ntf    fn421081   5.010   3.957   6.474 -0.3049 -0.4570  0.4161
 3998ntf    fn421082   5.201   4.011   6.547  0.1592 -0.2742 -0.3187
 3998ntf    fn421083   5.154   4.059   6.346  0.4997  0.1971  0.3018
 3998ntf    on521084   5.090   3.770   6.278 -0.0127  0.2801  0.5004
 3998ntf    on521085   5.323   3.838   6.317  0.0332 -0.2355 -0.0444
 3998ntf    on521086   5.053   3.531   6.437 -0.5746  0.4129  0.5525
 3998ntf    on521087   5.061   3.601   6.674 -0.1745 -0.2849  0.0523
 3998ntf    fn421088   5.358   3.499   6.470 -0.0203  0.0550 -0.2505
 3998ntf    fn421089   5.332   3.516   6.686  0.3166 -0.3854 -0.2370
 3998ntf    fn421090   5.237   3.359   6.580  0.0700 -0.3240 -0.2669
 3999ntf    cn121091   7.018   5.896   3.399 -0.1102 -0.1197  0.0557
 3999ntf    sn221092   7.168   5.821   3.467  0.1716  0.2381 -0.1683
 3999ntf    nn321093   7.256   5.940   3.520  0.3932  0.0228 -0.0479
 3999ntf    sn221094   7.256   6.006   3.662 -0.0615 -0.0206 -0.0262
 3999ntf    cn121095   7.392   5.924   3.751 -0.0937 -0.0932 -0.0433
 3999ntf    fn421096   6.944   5.807   3.334 -0.2331  0.0134  0.0105
 3999ntf    fn421097   6.943   5.956   3.490 -0.1011  0.2410 -0.1708
 3999ntf    fn421098   7.051   5.988   3.309  0.2345 -0.3621 -0.0656
 3999ntf    on521099   7.118   5.728   3.565  0.2441  0.3418 -0.0323
 3999ntf    on521100   7.224   5.767   3.346 -0.0792  0.5556 -0.4283
 3999ntf    on521101   7.141   5.983   3.746  0.0510  0.0067  0.1373
 3999ntf    on521102   7.297   6.143   3.650 -0.2140  0.0059 -0.2294
 3999ntf    fn421103   7.513   5.975   3.733 -0.0928 -0.0918 -0.0321
 3999ntf    fn421104   7.376   5.932   3.882  0.0692 -0.2577 -0.0117
 3999ntf    fn421105   7.395   5.797   3.712  0.3414  0.0293 -0.4258
 4000ntf    cn121106   2.156   2.047   6.999 -0.0046 -0.1329 -0.1217
 4000ntf    sn221107   2.232   2.145   7.132 -0.0296  0.0968 -0.2755
 4000ntf    nn321108   2.362   2.197   7.060  0.1555  0.0936  0.0584
 4000ntf    sn221109   2.445   2.326   7.092  0.2642 -0.0327  0.2947
 4000ntf    cn121110   2.605   2.260   7.147  0.2294  0.0627  0.5120
 4000ntf    fn421111   2.240   1.956   6.953 -0.5290 -0.6936  0.0270
 4000ntf    fn421112   2.044   1.984   7.032  0.0582 -0.0745  0.2002
 4000ntf    fn421113   2.129   2.119   6.891 -0.1238  0.6273  0.4065
 4000ntf    on521114   2.138   2.252   7.156  0.2854  0.4168 -0.4619
 4000ntf    on521115   2.258   2.043   7.230 -0.3672  0.5603  0.3039
 4000ntf    on521116   2.401   2.401   7.207  0.3982  0.2429  0.1690
 4000ntf    on521117   2.470   2.399   6.969 -0.5155 -0.2375  0.0119
 4000ntf    fn421118   2.672   2.191   7.055 -0.7882 -0.1973 -0.0498
 4000ntf    fn421119   2.701   2.346   7.178 -0.1435  0.6392  0.0746
 4000ntf    fn421120   2.604   2.186   7.257  0.1486 -0.5885  0.0815
 4001ntf    cn121121   5.766   3.254   1.310 -0.0384  0.1365 -0.0096
 4001ntf    sn221122   5.644   3.119   1.311  0.0639  0.0436  0.1885
 4001ntf    nn321123   5.714   3.006   1.228 -0.1134  0.1622 -0.1289
 4001ntf    sn221124   5.813   2.896   1.281  0.2079  0.3799 -0.2769
 4001ntf    cn121125   5.892   2.850   1.124 -0.2592 -0.2345 -0.3345
 4001ntf    fn421126   5.878   3.231   1.376 -0.0357 -0.3931 -0.1964
 4001ntf    fn421127   5.799   3.280   1.185  0.4508  0.5461  0.2015
 4001ntf    fn421128   5.727   3.370   1.359 -0.2769 -0.0094  0.1479
 4001ntf    on521129   5.633   3.096   1.453  0.1279  0.7423  0.3128
 4001ntf    on521130   5.532   3.177   1.240 -0.1104 -0.2925  0.1862
 4001ntf    on521131   5.754   2.772   1.325 -0.2020  0.3404 -0.9313
 4001ntf    on521132   5.928   2.931   1.361 -0.0760 -0.0017  0.3070
 4001ntf    fn421133   5.811   2.815   1.025 -0.5746 -0.1882 -0.0962
 4001ntf    fn421134   5.967   2.951   1.083  0.0593 -0.3060  0.0645
 4001ntf    fn421135   5.978   2.751   1.139  0.6272  0.5533 -0.1222
 4002ntf    cn121136   3.063   5.496   6.691 -0.2378 -0.2896 -0.2849
 4002ntf    sn221137   3.120   5.406   6.838  0.2236 -0.1111 -0.3541
 4002ntf    nn321138   3.243   5.338   6.767  0.3397  0.0174 -0.2777
 4002ntf    sn221139   3.310   5.200   6.801  0.3677  0.1088  0.0430
 4002ntf    cn121140   3.482   5.259   6.805  0.2438  0.4591  0.2695
 4002ntf    fn421141   2.981   5.415   6.625 -0.3798 -0.1115 -0.3279
 4002ntf    fn421142   3.003   5.610   6.721  0.2168 -0.1931  0.2843
 4002ntf    fn421143   3.169   5.524   6.617 -0.2568  0.3344 -0.0811
 4002ntf    on521144   3.145   5.515   6.929 -0.3249 -0.3851  0.1293
 4002ntf    on521145   2.998   5.337   6.872 -0.1593  0.7846  0.1017
 4002ntf    on521146   3.314   5.095   6.702  0.6039 -0.4683  0.6638
 4002ntf    on521147   3.282   5.164   6.937  0.3613 -0.4591 -0.1054
 4002ntf    fn421148   3.520   5.316   6.692 -0.6364  0.3646 -0.0790
 4002ntf    fn421149   3.497   5.347   6.902  0.0751  0.9118 -0.1123
 4002ntf    fn421150   3.575   5.172   6.840 -0.2036 -0.0173  0.2793
 4003ntf    cn121151   1.231   3.660   1.293 -0.2510  0.2327  0.4388
 4003ntf    sn221152   1.336   3.786   1.371  0.2925  0.1421 -0.1318
 4003ntf    nn321153   1.367   3.703   1.501  0.0309 -0.2834 -0.3400
 4003ntf    sn221154   1.492   3.624   1.554 -0.0393 -0.0566  0.1744
 4003ntf    cn121155   1.513   3.697   1.719 -0.2031 -0.0460  0.1909
 4003ntf    fn421156   1.219   3.690   1.165 -0.0515  0.2022  0.4120
 4003ntf    fn421157   1.286   3.540   1.302 -0.0322  0.2507 -0.5029
 4003ntf    fn421158   1.107   3.651   1.338 -0.3901 -0.1144 -0.0055
 4003ntf    on521159   1.440   3.822   1.279  0.0907  0.0502 -0.3954
 4003ntf    on521160   1.230   3.878   1.405  0.0960 -0.0160 -0.3181
 4003ntf    on521161   1.619   3.661   1.497  0.0742 -0.7929 -0.0532
 4003ntf    on521162   1.460   3.485   1.573 -0.2675 -0.0375 -0.0690
 4003ntf    fn421163   1.612   3.650   1.793  0.3490  0.5834 -0.1359
 4003ntf    fn421164   1.528   3.828   1.706 -0.2134 -0.0279  0.3636
 4003ntf    fn421165   1.406   3.682   1.795 -0.0261  0.0567  0.4647
 4004ntf    cn121166   1.621   5.265   4.884 -0.0948 -0.0863 -0.3909
 4004ntf    sn221167   1.695   5.335   5.034 -0.0944 -0.4304 -0.2304
 4004ntf    nn321168   1.838   5.270   5.028  0.2082  0.1374  0.5732
 4004ntf    sn221169   1.974   5.310   4.960 -0.1119  0.1427 -0.0731
 4004ntf    cn121170   2.057   5.383   5.104 -0.1466  0.3022 -0.1349
 4004ntf    fn421171   1.661   5.140   4.868  0.9672  0.1385  0.4121
 4004ntf    fn421172   1.489   5.273   4.881 -0.0673  0.4528 -0.1126
 4004ntf    fn421173   1.662   5.336   4.780  0.6556 -0.3497 -0.2861
 4004ntf    on521174   1.691   5.477   5.012 -0.0610 -0.3616  0.1945
 4004ntf    on521175   1.611   5.292   5.144  0.3121 -0.4525  0.0751
 4004ntf    on521176   1.971   5.417   4.864  0.1939  0.2216  0.0059
 4004ntf    on521177   2.054   5.196   4.924 -0.0345  0.0385  0.4215
 4004ntf    fn421178   2.064   5.295   5.202 -0.2075  0.4729  0.0237
 4004ntf    fn421179   2.183   5.419   5.083 -0.2692  0.6984 -0.2128
 4004ntf    fn421180   2.004   5.495   5.151  0.1246  0.2393  0.3231
 4005ntf    cn121181   4.782   0.325   2.458 -0.5450  0.0648 -0.1978
 4005ntf    sn221182   4.831   0.153   2.431  0.2120  0.2041  0.2515
 4005ntf    nn321183   4.761   0.070   2.544 -0.3367  0.3320  0.0076
 4005ntf    sn221184   4.804   0.091   2.694  0.4366  0.1283 -0.1828
 4005ntf    cn121185   4.880  -0.074   2.695 -0.2980 -0.2174 -0.2318
 4005ntf    fn421186   4.806   0.362   2.583  0.0133 -0.5808 -0.1075
 4005ntf    fn421187   4.841   0.424   2.394 -0.0604 -0.0492  0.0705
 4005ntf    fn421188   4.651   0.342   2.451 -0.5854 -0.0551  0.2066
 4005ntf    on521189   4.785   0.120   2.298  0.5117  0.6480  0.0357
 4005ntf    on521190   4.975   0.148   2.436  0.2131 -0.6917 -0.3495
 4005ntf    on521191   4.696   0.085   2.790  1.1851  0.0704  0.6669
 4005ntf    on521192   4.906   0.185   2.731  0.0716  0.4468  0.0229
 4005ntf    fn421193   4.791  -0.164   2.657 -0.6282  0.0661 -0.1301
 4005ntf    fn421194   4.981  -0.065   2.610 -0.3247  0.0419 -0.2363
 4005ntf    fn421195   4.922  -0.103   2.817  0.0525 -0.0899 -0.3218
 4006ntf    cn121196   6.501   3.064   3.627 -0.0570 -0.0030 -0.0483
 4006ntf    sn221197   6.395   2.963   3.734  0.1966 -0.4045 -0.1726
 4006ntf    nn321198   6.389   3.057   3.860 -0.2162 -0.6830  0.0168
 4006ntf    sn221199   6.462   3.034   3.996  0.2750 -0.1407 -0.1526
 4006ntf    cn121200   6.354   3.132   4.104  0.1829 -0.0711 -0.3082
 4006ntf    fn421201   6.461   3.053   3.501  0.0436  0.2411 -0.1031
 4006ntf    fn421202   6.494   3.195   3.646  0.7535  0.0238  0.0917
 4006ntf    fn421203   6.628   3.025   3.632 -0.2586 -0.7308 -0.4582
 4006ntf    on521204   6.274   2.966   3.654  0.1477 -0.1232 -0.0889
 4006ntf    on521205   6.468   2.839   3.738  0.8013 -0.0519 -0.1956
 4006ntf    on521206   6.583   3.111   3.990  0.1922 -0.0330 -0.4239
 4006ntf    on521207   6.462   2.902   4.054 -0.2453 -0.1095 -0.0790
 4006ntf    fn421208   6.359   3.260   4.073 -0.5265 -0.0380 -0.3089
 4006ntf    fn421209   6.230   3.087   4.093  0.0224  0.4269 -0.5612
 4006ntf    fn421210   6.384   3.124   4.233  0.1179  0.6150 -0.2477
 4007ntf    cn121211   3.599   2.572   1.638 -0.0518  0.0081 -0.1921
 4007ntf    sn221212   3.714   2.514   1.510  0.1509  0.0729 -0.0389
 4007ntf    nn321213   3.780   2.648   1.461  0.2844  0.1937  0.4626
 4007ntf    sn221214   3.705   2.772   1.401  0.0292 -0.0426  0.2893
 4007ntf    cn121215   3.853   2.848   1.327 -0.3337  0.1643 -0.2343
 4007ntf    fn421216   3.503   2.650   1.590 -0.1940  0.0315  0.1277
 4007ntf    fn421217   3.529   2.478   1.700  0.4960  0.1558  0.6738
 4007ntf    fn421218   3.659   2.640   1.734  0.1823 -0.2996 -0.1201
 4007ntf    on521219   3.809   2.433   1.583  0.3016  0.2379 -0.0509
 4007ntf    on521220   3.639   2.445   1.408 -0.1461  0.0650  0.1843
 4007ntf    on521221   3.661   2.863   1.503  0.1106 -0.1774  0.4458
 4007ntf    on521222   3.626   2.744   1.284 -0.0259  0.3137  0.2397
 4007ntf    fn421223   3.832   2.968   1.276  0.6633  0.3313 -0.2767
 4007ntf    fn421224   3.953   2.866   1.412 -0.2110 -0.1026 -0.3222
 4007ntf    fn421225   3.907   2.767   1.238  0.2365  0.0418  0.2174
 4008ntf    cn121226   5.352   5.929   0.273  0.1010  0.1958 -0.0534
 4008ntf    sn221227   5.351   5.751   0.233  0.2220  0.1539  0.1294
 4008ntf    nn321228   5.253   5.695   0.343  0.2331 -0.1762 -0.0287
 4008ntf    sn221229   5.187   5.553   0.346  0.1265 -0.1262 -0.0223
 4008ntf    cn121230   5.065   5.579   0.479 -0.3262  0.1431 -0.4869
 4008ntf    fn421231   5.265   6.000   0.203  0.0813  0.1025 -0.1235
 4008ntf    fn421232   5.320   5.935   0.401 -0.5323  0.1584 -0.2075
 4008ntf    fn421233   5.469   5.988   0.256  0.0654  0.2607 -0.0773
 4008ntf    on521234   5.303   5.754   0.097  0.0702 -0.2743  0.1714
 4008ntf    on521235   5.487   5.711   0.256  0.1400 -0.0712  0.2250
 4008ntf    on521236   5.272   5.445   0.389 -0.3332 -0.4901 -0.0219
 4008ntf    on521237   5.098   5.534   0.234 -0.1027  0.2514  0.0937
 4008ntf    fn421238   4.982   5.675   0.440 -0.4777  0.2057 -0.0185
 4008ntf    fn421239   4.986   5.477   0.506 -0.5097  0.2768 -0.5124
 4008ntf    fn421240   5.128   5.611   0.591 -0.0100 -0.4201 -0.5012
 4009ntf    cn121241   0.578   6.347   6.320 -0.2468  0.5806 -0.3951
 4009ntf    sn221242   0.493   6.217   6.414  0.1801  0.5291 -0.0796
 4009ntf    nn321243   0.375   6.182   6.317  0.1234 -0.3496  0.2946
 4009ntf    sn221244   0.296   6.046   6.315 -0.3678 -0.0613 -0.0564
 4009ntf    cn121245   0.147   6.114   6.395 -0.3208  0.0006 -0.0206
 4009ntf    fn421246   0.640   6.286   6.220 -0.3213 -0.0511 -0.0601
 4009ntf    fn421247   0.496   6.439   6.271 -0.4499  0.6341  0.0376
 4009ntf    fn421248   0.673   6.409   6.388 -0.2811  0.0173  0.1794
 4009ntf    on521249   0.600   6.120   6.428  0.0055  0.3045 -0.2946
 4009ntf    on521250   0.438   6.267   6.538  0.2186 -0.6805  0.4462
 4009ntf    on521251   0.353   5.944   6.400 -0.2563  0.1883  0.1713
 4009ntf    on521252   0.261   6.006   6.181 -0.0813 -0.7860  0.0811
 4009ntf    fn421253   0.166   6.158   6.518 -0.2240  0.2294 -0.1176
 4009ntf    fn421254   0.083   6.206   6.325 -0.3617  0.2714  0.3713
 4009ntf    fn421255   0.054   6.021   6.409  0.0464 -0.3973 -0.1988
 4010ntf    cn121256   2.364   0.221   4.992  0.0921 -0.0277 -0.2158
 4010ntf    sn221257   2.468   0.201   5.140  0.0531 -0.0363 -0.1894
 4010ntf    nn321258   2.609   0.214   5.073  0.2702  0.0598  0.2833
 4010ntf    sn221259   2.708   0.102   5.025 -0.1873 -0.2168 -0.0206
 4010ntf    cn121260   2.827   0.110   5.163 -0.0592 -0.1618 -0.1332
 4010ntf    fn421261   2.236   0.201   5.017 -0.0100  0.3123 -0.4704
 4010ntf    fn421262   2.368   0.341   4.937  0.7677  0.0729  0.0425
 4010ntf    fn421263   2.403   0.142   4.893  0.2786 -0.4748  0.2089
 4010ntf    on521264   2.437   0.314   5.224  0.4027 -0.2622  0.2466
 4010ntf    on521265   2.428   0.074   5.196 -0.0119 -0.0963 -0.3707
 4010ntf    on521266   2.778   0.153   4.909 -0.5328  1.0926  0.3283
 4010ntf    on521267   2.653  -0.031   5.021 -0.4905 -0.0905 -0.0518
 4010ntf    fn421268   2.775   0.062   5.275 -0.0251  0.3978  0.1236
 4010ntf    fn421269   2.943   0.047   5.152  0.3858  0.5228  0.5707
 4010ntf    fn421270   2.856   0.237   5.183 -0.0144 -0.1154 -0.4745
 4011ntf    cn121271   1.287   3.203   0.714  0.4604 -0.0389  0.0387
 4011ntf    sn221272   1.457   3.187   0.652  0.3778  0.2185 -0.2578
 4011ntf    nn321273   1.435   3.220   0.500 -0.2980  0.1192 -0.1847
 4011ntf    sn221274   1.487   3.346   0.422  0.1312  0.0945  0.0610
 4011ntf    cn121275   1.499   3.275   0.255  0.1246  0.0446  0.0816
 4011ntf    fn421276   1.207   3.110   0.666  0.0462  0.6421 -0.6047
 4011ntf    fn421277   1.287   3.197   0.846 -0.2228 -0.2946  0.0327
 4011ntf    fn421278   1.222   3.313   0.681 -0.2946 -0.4069  0.2802
 4011ntf    on521279   1.513   3.295   0.729 -0.4571 -0.4116  1.2887
 4011ntf    on521280   1.496   3.054   0.692 -0.2564  0.2343  0.4304
 4011ntf    on521281   1.623   3.383   0.452  0.0357  0.3010  0.2402
 4011ntf    on521282   1.393   3.454   0.410 -0.0279 -0.0598 -0.0802
 4011ntf    fn421283   1.556   3.350   0.162  0.5977 -0.3845  0.0194
 4011ntf    fn421284   1.578   3.168   0.253  0.1067  0.0372 -0.2319
 4011ntf    fn421285   1.384   3.232   0.208  0.0788 -0.1729  0.3847
 4012ntf    cn121286   6.503   2.359   2.438 -0.0175  0.4012  0.0676
 4012ntf    sn221287   6.594   2.283   2.299 -0.2930  0.0014  0.1052
 4012ntf    nn321288   6.480   2.256   2.195 -0.3177  0.1814  0.0850
 4012ntf    sn221289   6.408   2.353   2.094 -0.0020  0.2894 -0.0403
 4012ntf    cn121290   6.479   2.299   1.936 -0.0237  0.1656 -0.0083
 4012ntf    fn421291   6.431   2.269   2.501  0.6488  0.2188  0.5796
 4012ntf    fn421292   6.590   2.409   2.524 -0.1159  0.1595  0.3067
 4012ntf    fn421293   6.436   2.468   2.403 -0.0313  0.3105 -0.1896
 4012ntf    on521294   6.700   2.377   2.274 -0.3595 -0.0935 -0.5396
 4012ntf    on521295   6.638   2.166   2.370 -0.4274 -0.1809 -0.1143
 4012ntf    on521296   6.430   2.495   2.104  0.5592  0.2140 -0.1963
 4012ntf    on521297   6.268   2.319   2.090  0.1528 -0.3715 -0.0145
 4012ntf    fn421298   6.452   2.172   1.910 -0.1451  0.1780  0.0539
 4012ntf    fn421299   6.438   2.362   1.826 -0.1825 -0.1044 -0.1057
 4012ntf    fn421300   6.611   2.308   1.930 -0.0382  0.5033  0.1523
 4013ntf    cn121301   4.271   4.856   5.038  0.2830 -0.0171  0.1111
 4013ntf    sn221302   4.383   4.784   5.162  0.2354 -0.1724  0.0636
 4013ntf    nn321303   4.496   4.892   5.147 -0.3150  0.4295  0.1535
 4013ntf    sn221304   4.512   5.032   5.215 -0.1713  0.4432  0.0939
 4013ntf    cn121305   4.596   4.985   5.369 -0.1667 -0.0039 -0.0445
 4013ntf    fn421306   4.331   4.887   4.925 -0.2871 -0.1855 -0.2441
 4013ntf    fn421307   4.180   4.767   5.001  0.0708  0.2058  0.0905
 4013ntf    fn421308   4.208   4.961   5.089 -0.1458 -0.3689  0.3179
 4013ntf    on521309   4.306   4.771   5.284 -0.2689 -0.0604 -0.2388
 4013ntf    on521310   4.424   4.660   5.102 -0.2123 -0.2425 -0.1051
 4013ntf    on521311   4.396   5.106   5.259 -0.3760  0.1207  0.1027
 4013ntf    on521312   4.613   5.105   5.143 -0.0535  0.1963  0.0080
 4013ntf    fn421313   4.725   4.968   5.343 -0.1307  0.3502 -0.0941
 4013ntf    fn421314   4.590   5.087   5.453 -0.1425  0.0785 -0.1437
 4013ntf    fn421315   4.555   4.877   5.433 -0.2639 -0.2118 -0.4543
 4014ntf    cn121316   1.024   0.441   0.224 -0.3597 -0.0475  0.2221
 4014ntf    sn221317   0.923   0.291   0.210 -0.3876 -0.0149  0.0780
 4014ntf    nn321318   1.032   0.179   0.218  0.2288  0.5461 -0.3511
 4014ntf    sn221319   1.110   0.102   0.106  0.5399 -0.0585  0.2708
 4014ntf    cn121320   0.998  -0.033   0.057  0.1878  0.2841  0.1170
 4014ntf    fn421321   1.150   0.427   0.187 -0.3440 -0.0446  0.2735
 4014ntf    fn421322   0.977   0.533   0.141 -0.5843 -0.3092  0.0569
 4014ntf    fn421323   1.028   0.494   0.345 -0.2913 -0.7836  0.5469
 4014ntf    on521324   0.844   0.286   0.331 -0.5206 -0.6869 -0.0336
 4014ntf    on521325   0.850   0.300   0.086  0.2328  0.0795 -0.2850
 4014ntf    on521326   1.230   0.040   0.155  0.2908 -0.1883  0.7237
 4014ntf    on521327   1.124   0.169  -0.021  0.4308 -0.0275  0.2746
 4014ntf    fn421328   1.022  -0.077  -0.066 -0.1054  0.2812  0.0604
 4014ntf    fn421329   1.011  -0.146   0.124 -0.2659  0.1501 -0.0184
 4014ntf    fn421330   0.871   0.003   0.057 -0.0180 -0.4085 -0.0952
 4015ntf    cn121331   4.310   0.164   6.093 -0.0285 -0.7370  0.6053
 4015ntf    sn221332   4.322   0.271   6.239 -0.1352  0.1592 -0.0346
 4015ntf    nn321333   4.341   0.164   6.353 -0.4023 -0.4013 -0.5100
 4015ntf    sn221334   4.452   0.055   6.372  0.1173  0.2458  0.2722
 4015ntf    cn121335   4.498   0.080   6.546  0.0656 -0.1510  0.3460
 4015ntf    fn421336   4.237   0.059   6.126 -0.6513 -0.5664 -0.2009
 4015ntf    fn421337   4.242   0.219   5.994  0.3262 -0.0095  0.7616
 4015ntf    fn421338   4.424   0.117   6.045  0.0206 -0.0158  0.0000
 4015ntf    on521339   4.436   0.358   6.231  0.1216 -0.1695  0.0490
 4015ntf    on521340   4.193   0.335   6.256 -0.1201  0.1434  0.1438
 4015ntf    on521341   4.571   0.067   6.292  0.2960  0.3646  0.5593
 4015ntf    on521342   4.387  -0.074   6.384 -0.4351  0.5089  0.1489
 4015ntf    fn421343   4.547   0.203   6.550 -0.4982  0.0838  0.1359
 4015ntf    fn421344   4.397   0.077   6.630 -0.2755  0.2068 -0.0451
 4015ntf    fn421345   4.589  -0.005   6.591 -0.0328 -0.0815  0.6756
 4016ntf    cn121346   7.000   2.400   6.476  0.1288  0.0132  0.3082
 4016ntf    sn221347   6.854   2.482   6.548 -0.2942 -0.3430 -0.1376
 4016ntf    nn321348   6.745   2.378   6.506  0.1654 -1.0328  0.3583
 4016ntf    sn221349   6.607   2.352   6.577 -0.3215  0.1953 -0.1126
 4016ntf    cn121350   6.499   2.306   6.439 -0.2805 -0.4892  0.0796
 4016ntf    fn421351   6.997   2.385   6.345  0.0342  0.1161  0.2976
 4016ntf    fn421352   7.113   2.463   6.504  0.0518  0.3711 -0.1757
 4016ntf    fn421353   7.009   2.273   6.511 -0.5210 -0.0849  0.1209
 4016ntf    on521354   6.877   2.491   6.690 -0.4614  0.0241 -0.1317
 4016ntf    on521355   6.860   2.607   6.477  0.1880  0.0533  0.5849
 4016ntf    on521356   6.546   2.474   6.624 -0.7290  0.0316 -0.2164
 4016ntf    on521357   6.618   2.239   6.666 -0.0838  0.2990 -0.0079
 4016ntf    fn421358   6.375   2.280   6.478 -0.4793  0.2775 -0.0337
 4016ntf    fn421359   6.491   2.401   6.348 -0.6858 -0.6813 -0.0895
 4016ntf    fn421360   6.541   2.195   6.379  0.4749  0.0522 -0.4083
 4017ntf    cn121361   1.458   4.898   6.696  0.3702 -0.4844  0.2236
 4017ntf    sn221362   1.369   4.890   6.854 -0.0870  0.0740 -0.0001
 4017ntf    nn321363   1.438   5.008   6.931  0.2891 -0.0145 -0.2012
 4017ntf    sn221364   1.563   4.989   7.025  0.0546 -0.0970  0.0943
 4017ntf    cn121365   1.654   5.139   6.978 -0.4378  0.1964  0.0653
 4017ntf    fn421366   1.416   4.991   6.612 -0.0862 -0.8637  0.0214
 4017ntf    fn421367   1.590   4.908   6.702  0.2896  0.6285  0.2682
 4017ntf    fn421368   1.432   4.784   6.634  0.3989 -0.0829 -0.5426
 4017ntf    on521369   1.232   4.911   6.816 -0.0887 -0.5405 -0.3410
 4017ntf    on521370   1.393   4.757   6.906 -0.4665 -0.0338 -0.0971
 4017ntf    on521371   1.659   4.889   6.985  0.5484  0.4924 -0.2059
 4017ntf    on521372   1.536   5.009   7.165  0.8629  0.5249  0.1711
 4017ntf    fn421373   1.760   5.168   7.052 -0.1026 -0.0970 -0.2985
 4017ntf    fn421374   1.709   5.132   6.858 -0.3654 -0.6141  0.1435
 4017ntf    fn421375   1.573   5.242   6.994 -0.0861  0.5048 -0.1145
 4018ntf    cn121376   4.104   6.815   2.561  0.4901 -0.1653  0.1100
 4018ntf    sn221377   4.046   6.681   2.670  0.3590 -0.2853 -0.1059
 4018ntf    nn321378   4.174   6.644   2.752  0.6926 -0.0279 -0.5030
 4018ntf    sn221379   4.216   6.502   2.806  0.0059 -0.1279 -0.2293
 4018ntf    cn121380   4.164   6.538   2.977  0.2563  0.4167 -0.2650
 4018ntf    fn421381   4.151   6.920   2.625 -0.0282  0.0870  0.0787
 4018ntf    fn421382   4.218   6.775   2.505  0.3345 -0.1910 -0.1891
 4018ntf    fn421383   4.027   6.853   2.460  0.4682  0.1048  0.2294
 4018ntf    on521384   3.959   6.750   2.763  0.3652 -0.2452 -0.1302
 4018ntf    on521385   3.993   6.585   2.576 -0.3422 -0.0395  0.0317
 4018ntf    on521386   4.358   6.487   2.820  0.0244  0.2949  0.0547
 4018ntf    on521387   4.137   6.386   2.774  0.1227 -0.3285  0.2056
 4018ntf    fn421388   4.197   6.439   3.059  0.5119  0.3706 -0.4188
 4018ntf    fn421389   4.217   6.652   3.018  0.0480  0.2897  0.3628
 4018ntf    fn421390   4.033   6.550   2.988  0.2376  0.2410 -0.2816
 4019ntf    cn121391   5.795   6.915   0.521 -0.0836  0.3011  0.1647
 4019ntf    sn221392   5.616   6.938   0.501 -0.0946  0.0380 -0.0468
 4019ntf    nn321393   5.572   6.932   0.652 -0.4520  0.0567 -0.1497
 4019ntf    sn221394   5.509   7.040   0.747 -0.1619 -0.0983  0.2210
 4019ntf    cn121395   5.594   6.996   0.901  0.3451  0.1672  0.0179
 4019ntf    fn421396   5.823   6.819   0.608 -0.3059  0.4254  0.3768
 4019ntf    fn421397   5.854   6.892   0.405 -0.6270  0.2422 -0.1022
 4019ntf    fn421398   5.859   7.020   0.571 -0.0429  0.1301  0.4750
 4019ntf    on521399   5.599   7.066   0.437  0.3501  0.1433  0.0405
 4019ntf    on521400   5.576   6.818   0.432  0.2362 -0.0637 -0.0642
 4019ntf    on521401   5.370   7.012   0.773 -0.3654 -0.2939 -0.9991
 4019ntf    on521402   5.543   7.179   0.736  0.0450 -0.1192  0.5845
 4019ntf    fn421403   5.581   7.079   1.003 -0.4152 -0.0473  0.0975
 4019ntf    fn421404   5.553   6.881   0.953  0.0107  0.0963 -0.4000
 4019ntf    fn421405   5.724   6.978   0.883  0.2890  0.0345 -0.2554
 4020ntf    cn121406   5.658   2.017   1.934  0.2291  0.5193 -0.0275
 4020ntf    sn221407   5.496   2.050   2.010 -0.0456 -0.3312 -0.2253
 4020ntf    nn321408   5.451   2.161   1.907  0.5583 -0.1048 -0.2500
 4020ntf    sn221409   5.354   2.136   1.786 -0.0254  0.0268  0.1838
 4020ntf    cn121410   5.203   2.210   1.855  0.0321  0.3114  0.0038
 4020ntf    fn421411   5.734   1.938   2.008 -0.2471 -0.0602 -0.1439
 4020ntf    fn421412   5.642   1.971   1.811  0.1169 -0.0524  0.1947
 4020ntf    fn421413   5.728   2.127   1.917  0.2385  0.4984 -0.1250
 4020ntf    on521414   5.421   1.927   2.012 -0.1603 -0.2635 -0.2988
 4020ntf    on521415   5.531   2.105   2.138  0.0453 -0.0294 -0.3762
 4020ntf    on521416   5.312   2.004   1.747  0.5611 -0.0520 -0.1895
 4020ntf    on521417   5.399   2.223   1.681  0.4408  0.2112  0.5325
 4020ntf    fn421418   5.217   2.337   1.890  0.0167  0.2089  0.3784
 4020ntf    fn421419   5.103   2.212   1.767  0.2356  0.0659 -0.2368
 4020ntf    fn421420   5.160   2.138   1.957 -0.1702  0.1870 -0.1673
 4021ntf    cn121421   1.554   6.291   2.528 -0.0918  0.1244 -0.1246
 4021ntf    sn221422   1.422   6.350   2.640  0.1138  0.3083  0.0221
 4021ntf    nn321423   1.496   6.361   2.778  0.3660  0.1833 -0.1010
 4021ntf    sn221424   1.464   6.430   2.915  0.2411 -0.1624  0.0465
 4021ntf    cn121425   1.617   6.523   2.945 -0.0579  0.1718  0.5623
 4021ntf    fn421426   1.515   6.285   2.402  0.1498 -0.0985 -0.1886
 4021ntf    fn421427   1.658   6.373   2.532  0.0587 -0.0914  0.4361
 4021ntf    fn421428   1.598   6.170   2.559 -0.1918  0.1269  0.0301
 4021ntf    on521429   1.389   6.478   2.583  0.5070  0.2687 -0.3017
 4021ntf    on521430   1.324   6.245   2.631  0.3785  0.0631 -0.0344
 4021ntf    on521431   1.449   6.332   3.019  0.3719 -0.3127 -0.0756
 4021ntf    on521432   1.361   6.532   2.907  0.4143  0.0547  0.5261
 4021ntf    fn421433   1.621   6.633   2.872  0.3876 -0.2101  0.0012
 4021ntf    fn421434   1.637   6.561   3.070  0.1122  0.2084  0.5241
 4021ntf    fn421435   1.726   6.453   2.915 -0.0636  0.4912 -0.2147
 4022ntf    cn121436   0.280   1.668   4.206 -0.2098 -0.0447 -0.4889
 4022ntf    sn221437   0.215   1.817   4.288 -0.0174 -0.0231 -0.3738
 4022ntf    nn321438   0.205   1.921   4.172 -0.2097  0.0344 -0.3067
 4022ntf    sn221439   0.110   2.046   4.173 -0.2258  0.0165  0.5764
 4022ntf    cn121440  -0.030   1.998   4.069  0.5000 -0.2804 -0.2761
 4022ntf    fn421441   0.412   1.660   4.206 -0.2381 -0.5303  0.0603
 4022ntf    fn421442   0.235   1.557   4.261  0.3669  0.0161  0.1229
 4022ntf    fn421443   0.253   1.649   4.078  0.3898 -0.5105 -0.5498
 4022ntf    on521444   0.084   1.776   4.333  0.1546 -0.2606 -0.0798
 4022ntf    on521445   0.314   1.832   4.391  0.1625 -1.4483 -0.3102
 4022ntf    on521446   0.167   2.164   4.112 -0.4930  0.1233  0.5328
 4022ntf    on521447   0.042   2.066   4.299 -0.2886  0.4735  0.4742
 4022ntf    fn421448  -0.103   1.898   4.118 -0.1647  0.2977 -0.0623
 4022ntf    fn421449  -0.113   2.100   4.053  0.1165 -0.5994 -0.3534
 4022ntf    fn421450  -0.002   1.960   3.946 -0.1222 -0.4849 -0.3625
 4023ntf    cn121451   6.012   6.493   0.398 -0.2196 -0.4624  0.0785
 4023ntf    sn221452   6.184   6.435   0.398 -0.1670 -0.3031 -0.3411
 4023ntf    nn321453   6.160   6.293   0.459  0.1066 -0.4435 -0.5561
 4023ntf    sn221454   6.142   6.151   0.395 -0.2023 -0.5256 -0.2893
 4023ntf    cn121455   6.303   6.074   0.426  0.0111 -0.0404 -0.1835
 4023ntf    fn421456   5.952   6.464   0.512  0.3117 -0.4039  0.3780
 4023ntf    fn421457   5.998   6.624   0.382 -0.0289 -0.5023 -0.4182
 4023ntf    fn421458   5.944   6.441   0.298 -0.5115  0.2809 -0.1167
 4023ntf    on521459   6.234   6.448   0.263 -0.2551  0.7310 -0.2826
 4023ntf    on521460   6.252   6.516   0.496  0.9087 -1.0264 -0.4695
 4023ntf    on521461   6.125   6.141   0.252  0.9539  0.5931 -0.5232
 4023ntf    on521462   6.056   6.067   0.475 -0.3855  0.0991  0.1744
 4023ntf    fn421463   6.399   6.119   0.346  0.4288 -0.5566  0.0233
 4023ntf    fn421464   6.344   6.097   0.550 -0.3359 -0.2619 -0.0279
 4023ntf    fn421465   6.304   5.942   0.414  0.0039 -0.0516 -0.0652
 4024ntf    cn121466   3.378   3.646   2.001 -0.2876  0.1450 -0.1129
 4024ntf    sn221467   3.439   3.763   1.875  0.1904 -0.2793 -0.2809
 4024ntf    nn321468   3.432   3.666   1.752 -0.0816 -0.6428  0.0154
 4024ntf    sn221469   3.540   3.614   1.651  0.1377  0.1619 -0.1788
 4024ntf    cn121470   3.496   3.712   1.505  0.1431  0.3315 -0.0669
 4024ntf    fn421471   3.252   3.611   1.989 -0.1697 -0.2746 -0.1419
 4024ntf    fn421472   3.448   3.535   1.985  0.1321  0.3986 -0.0565
 4024ntf    fn421473   3.400   3.685   2.126  0.0152 -0.0094 -0.1148
 4024ntf    on521474   3.338   3.866   1.874 -0.4765 -0.9213 -0.0711
 4024ntf    on521475   3.573   3.791   1.919  0.0112 -0.2174  0.2398
 4024ntf    on521476   3.508   3.475   1.625 -0.9829  0.5231 -0.7988
 4024ntf    on521477   3.680   3.646   1.666  0.0198  0.4727  0.2759
 4024ntf    fn421478   3.506   3.842   1.527 -0.4077  0.2793  0.4899
 4024ntf    fn421479   3.563   3.687   1.393  0.1778  0.2525 -0.0279
 4024ntf    fn421480   3.365   3.702   1.485  0.1208  0.1114  0.1888
 4025ntf    cn121481   1.184   7.075   1.841  0.2596  0.0123 -0.2823
 4025ntf    sn221482   1.077   7.140   1.709  0.0737  0.3701  0.0415
 4025ntf    nn321483   0.941   7.070   1.745  0.1900  0.4009  0.5606
 4025ntf    sn221484   0.867   6.948   1.678  0.3430  0.5648  0.0893
 4025ntf    cn121485   0.744   7.025   1.568  0.1517  0.0524 -0.0609
 4025ntf    fn421486   1.306   7.127   1.848  0.1485  0.2653 -0.2091
 4025ntf    fn421487   1.135   7.098   1.962  0.3346  0.1609 -0.2792
 4025ntf    fn421488   1.195   6.945   1.819  0.5525  0.0043 -0.1009
 4025ntf    on521489   1.076   7.281   1.735  0.0686  0.3994 -0.1203
 4025ntf    on521490   1.142   7.099   1.587  0.0244 -0.0108  0.1407
 4025ntf    on521491   0.790   6.868   1.770  0.2860  0.2502 -0.2284
 4025ntf    on521492   0.954   6.873   1.591  0.1940  0.0812  0.3551
 4025ntf    fn421493   0.795   7.134   1.513  0.1079  0.0043 -0.1947
 4025ntf    fn421494   0.699   6.948   1.471 -0.6862  0.3192  0.1066
 4025ntf    fn421495   0.629   7.063   1.620 -0.0091  0.1256 -0.4695
 4026ntf    cn121496   3.960   3.970   0.199  0.4162 -0.0925  0.4839
 4026ntf    sn221497   3.913   4.070   0.344 -0.4358 -0.0150  0.1633
 4026ntf    nn321498   3.949   3.982   0.469  0.6661  0.3755  0.1282
 4026ntf    sn221499   3.877   3.953   0.605  0.3557 -0.1924 -0.1572
 4026ntf    cn121500   3.816   3.783   0.586  0.3368 -0.1332 -0.6282
 4026ntf    fn421501   4.031   3.861   0.222  0.4854 -0.1676 -0.0637
 4026ntf    fn421502   3.864   3.937   0.114  0.6245  0.2433  0.1171
 4026ntf    fn421503   4.044   4.039   0.124  0.0666 -0.3292 -0.1318
 4026ntf    on521504   3.993   4.190   0.340  0.0227 -0.3237 -0.0064
 4026ntf    on521505   3.772   4.095   0.328 -0.4111  0.1992  0.2817
 4026ntf    on521506   3.756   4.028   0.628  0.1738 -0.3421 -0.6186
 4026ntf    on521507   3.963   3.937   0.720  0.2222 -0.1212 -0.0464
 4026ntf    fn421508   3.906   3.687   0.565  0.0045 -0.3955 -0.8722
 4026ntf    fn421509   3.740   3.748   0.688  0.0427  0.3908 -0.6660
 4026ntf    fn421510   3.736   3.780   0.480 -0.1729  0.2161 -0.2573
 4027ntf    cn121511   0.956   1.995   2.326 -0.3248 -0.0697 -0.0131
 4027ntf    sn221512   0.816   2.078   2.245 -0.2720  0.0470  0.0149
 4027ntf    nn321513   0.712   2.084   2.363  0.2866  0.1491  0.5063
 4027ntf    sn221514   0.556   2.067   2.366  0.2712  0.2488  0.3071
 4027ntf    cn121515   0.517   2.242   2.395 -0.2319  0.1876 -0.0030
 4027ntf    fn421516   0.929   1.875   2.376  0.2596 -0.0797  0.2864
 4027ntf    fn421517   1.062   1.977   2.249 -0.0774  0.3649  0.2196
 4027ntf    fn421518   1.004   2.073   2.422 -0.5975 -0.0445  0.1066
 4027ntf    on521519   0.866   2.207   2.203 -0.2788  0.0290 -0.0470
 4027ntf    on521520   0.784   1.986   2.139  0.5542 -0.2739  0.0379
 4027ntf    on521521   0.504   1.997   2.481  0.3698 -0.9477 -0.3660
 4027ntf    on521522   0.490   2.046   2.240  0.1338  0.1615  0.3936
 4027ntf    fn421523   0.387   2.262   2.412 -0.3299 -0.5652  0.1647
 4027ntf    fn421524   0.572   2.283   2.508 -0.0133 -0.6410  0.1940
 4027ntf    fn421525   0.557   2.320   2.295 -0.3298  0.2820  0.0305
 4028ntf    cn121526   1.886   4.861   6.543  0.2651 -0.2491 -0.1594
 4028ntf    sn221527   1.938   4.688   6.526  0.0972 -0.2981 -0.1798
 4028ntf    nn321528   2.088   4.707   6.567  0.0271 -0.1008 -0.0104
 4028ntf    sn221529   2.223   4.669   6.495 -0.0409 -0.2131 -0.0798
 4028ntf    cn121530   2.253   4.816   6.392  0.0619  0.0112  0.2663
 4028ntf    fn421531   1.957   4.945   6.470 -0.2337  0.0738 -0.2845
 4028ntf    fn421532   1.757   4.884   6.521  0.5170  0.8362 -0.5772
 4028ntf    fn421533   1.909   4.911   6.663  0.9862  0.0597 -0.4211
 4028ntf    on521534   1.861   4.612   6.623  0.2780 -0.2220  0.0237
 4028ntf    on521535   1.912   4.671   6.386 -0.0681  0.2603 -0.2201
 4028ntf    on521536   2.214   4.557   6.405  0.7235 -0.3515  0.0132
 4028ntf    on521537   2.337   4.665   6.584  0.1243  0.0570 -0.2773
 4028ntf    fn421538   2.160   4.831   6.299 -0.2340 -0.8944  0.4019
 4028ntf    fn421539   2.262   4.932   6.454  0.0927  0.3169 -0.3044
 4028ntf    fn421540   2.365   4.799   6.324 -0.0816 -0.0193  0.0374
 4029ntf    cn121541   3.857   5.443   3.987  0.0387 -0.2292 -0.0285
 4029ntf    sn221542   3.817   5.496   3.817 -0.2267 -0.2232  0.0347
 4029ntf    nn321543   3.747   5.634   3.845  0.1348  0.0785 -0.5373
 4029ntf    sn221544   3.617   5.697   3.785 -0.0250  0.1414 -0.1278
 4029ntf    cn121545   3.684   5.844   3.702 -0.2796  0.4944  0.2897
 4029ntf    fn421546   3.742   5.427   4.051 -0.2004  0.3768 -0.3041
 4029ntf    fn421547   3.907   5.320   3.980 -0.1675 -0.3183  0.0446
 4029ntf    fn421548   3.938   5.529   4.045 -0.1516  0.1090 -0.2631
 4029ntf    on521549   3.952   5.513   3.767 -0.0094  0.6760  0.8904
 4029ntf    on521550   3.738   5.389   3.762 -0.2267 -0.2865  0.1571
 4029ntf    on521551   3.524   5.751   3.881  0.6534  0.4053  0.3891
 4029ntf    on521552   3.562   5.620   3.676 -0.0791  0.4857 -0.3460
 4029ntf    fn421553   3.760   5.818   3.597 -0.2690 -0.1728  0.4631
 4029ntf    fn421554   3.587   5.918   3.651 -0.1445 -0.1161 -0.8737
 4029ntf    fn421555   3.756   5.921   3.783  0.3682  0.0674  0.1259
 4030ntf    cn121556   5.570   0.366   5.054 -0.0436 -0.1293  0.1198
 4030ntf    sn221557   5.484   0.441   5.196 -0.1474  0.0346 -0.0287
 4030ntf    nn321558   5.595   0.465   5.305  0.1131 -0.5790 -0.1557
 4030ntf    sn221559   5.604   0.420   5.455 -0.1101 -0.1152 -0.0016
 4030ntf    cn121560   5.506   0.553   5.531 -0.0172 -0.2524  0.3598
 4030ntf    fn421561   5.659   0.280   5.098  0.2126  0.1651  0.1815
 4030ntf    fn421562   5.488   0.294   4.980  0.0358  0.1989 -0.2915
 4030ntf    fn421563   5.634   0.448   4.973 -0.1412 -0.1142  0.0579
 4030ntf    on521564   5.413   0.557   5.150  0.1627  0.1587 -0.1908
 4030ntf    on521565   5.395   0.332   5.229 -0.2856  0.0061 -0.4937
 4030ntf    on521566   5.731   0.443   5.518 -0.3587  0.1367  0.4110
 4030ntf    on521567   5.533   0.299   5.492 -0.0084  0.0226  0.6448
 4030ntf    fn421568   5.472   0.532   5.657  0.1726 -0.3316  0.3991
 4030ntf    fn421569   5.579   0.663   5.532  0.0219 -0.2773  0.2564
 4030ntf    fn421570   5.395   0.577   5.463  0.3823  0.0155 -0.2123
 4031ntf    cn121571   6.071   5.682   4.450  0.0081  0.1143 -0.2824
 4031ntf    sn221572   5.912   5.679   4.538  0.1718  0.0959  0.0128
 4031ntf    nn321573   5.937   5.779   4.657  0.7444 -0.0301  0.0025
 4031ntf    sn221574   5.902   5.932   4.657 -0.1390 -0.2268 -0.0011
 4031ntf    cn121575   5.785   5.936   4.796 -0.2767 -0.0306 -0.1210
 4031ntf    fn421576   6.171   5.653   4.531 -0.0447  0.3416 -0.1350
 4031ntf    fn421577   6.083   5.602   4.346 -0.0406 -0.0059 -0.1956
 4031ntf    fn421578   6.096   5.803   4.403 -0.3499  0.1363 -0.4138
 4031ntf    on521579   5.813   5.706   4.437  0.0456  0.5183  0.2480
 4031ntf    on521580   5.909   5.541   4.582 -0.0161  0.1931  0.3063
 4031ntf    on521581   5.834   5.988   4.543 -0.0920  0.1935  0.1762
 4031ntf    on521582   6.014   6.006   4.709 -0.5975  0.3315  0.1932
 4031ntf    fn421583   5.697   5.838   4.805  0.1287 -0.3461  0.4963
 4031ntf    fn421584   5.849   5.938   4.912 -0.1506  0.0163 -0.1915
 4031ntf    fn421585   5.710   6.044   4.796 -0.0870  0.1013 -0.0780
 4032ntf    cn121586   1.018   4.789   2.555 -0.0330 -0.0418  0.5486
 4032ntf    sn221587   0.837   4.777   2.557 -0.0280 -0.1813  0.2174
 4032ntf    nn321588   0.802   4.735   2.704  0.4978  0.0532  0.4109
 4032ntf    sn221589   0.831   4.819   2.833  0.1968  0.2043  0.3807
 4032ntf    cn121590   0.963   4.719   2.908  0.0279  0.0268  0.4420
 4032ntf    fn421591   1.066   4.875   2.644 -0.2333  0.2169  0.4090
 4032ntf    fn421592   1.071   4.670   2.576  0.0422 -0.1393 -0.1500
 4032ntf    fn421593   1.070   4.831   2.440  0.0949 -0.2374  0.5352
 4032ntf    on521594   0.781   4.905   2.519 -0.0480 -0.1871  0.2283
 4032ntf    on521595   0.802   4.665   2.474  0.2709 -0.0494 -0.0912
 4032ntf    on521596   0.729   4.815   2.936  0.2406  0.6037  0.4425
 4032ntf    on521597   0.896   4.948   2.820 -0.0443  0.2385 -0.4995
 4032ntf    fn421598   1.071   4.721   2.832 -0.1758  0.0252  0.1516
 4032ntf    fn421599   1.005   4.778   3.019  0.1147 -0.0426  0.4467
 4032ntf    fn421600   0.933   4.593   2.935 -0.2463  0.0330  0.1703
 4033ntf    cn121601   5.497   5.466   0.959 -0.0235 -0.2329 -0.2136
 4033ntf    sn221602   5.647   5.471   1.062 -0.2456  0.0118  0.0992
 4033ntf    nn321603   5.756   5.416   0.963  0.2301  0.0521  0.5952
 4033ntf    sn221604   5.796   5.267   0.935  0.0523  0.1058  0.0413
 4033ntf    cn121605   5.977   5.272   0.937  0.0615 -0.1083 -0.2427
 4033ntf    fn421606   5.483   5.350   0.898  0.3876 -0.2125 -0.3491
 4033ntf    fn421607   5.387   5.474   1.033 -0.3342 -0.7926 -0.6116
 4033ntf    fn421608   5.484   5.568   0.876  0.1382 -0.1610 -0.1517
 4033ntf    on521609   5.650   5.612   1.089  0.0119 -0.0490  0.3897
 4033ntf    on521610   5.611   5.381   1.169  0.4556 -0.0515  0.2847
 4033ntf    on521611   5.778   5.231   0.797 -0.4377 -0.5862  0.2778
 4033ntf    on521612   5.759   5.165   1.031 -0.1472  0.0578 -0.0851
 4033ntf    fn421613   6.036   5.156   0.910  0.0888 -0.0158 -0.5834
 4033ntf    fn421614   6.026   5.363   0.855 -0.0479  0.2252  0.0603
 4033ntf    fn421615   6.018   5.304   1.059 -0.4870 -0.2335 -0.0221
 4034ntf    cn121616   4.856   2.355   3.532 -0.3896 -0.2044  0.2745
 4034ntf    sn221617   4.827   2.220   3.412  0.1558  0.1141 -0.2202
 4034ntf    nn321618   4.690   2.166   3.465  0.0911  0.4807 -0.0091
 4034ntf    sn221619   4.544   2.190   3.412 -0.0950  0.2557  0.3870
 4034ntf    cn121620   4.446   2.204   3.564 -0.0170 -0.2238  0.4825
 4034ntf    fn421621   4.973   2.414   3.523 -0.4561 -0.1199 -0.0522
 4034ntf    fn421622   4.768   2.453   3.522 -0.0034  0.1550  0.3904
 4034ntf    fn421623   4.840   2.322   3.659  0.2971 -0.3189  0.3362
 4034ntf    on521624   4.815   2.285   3.284  0.2069  0.2176 -0.1730
 4034ntf    on521625   4.941   2.141   3.451  0.2714  0.1876 -0.4104
 4034ntf    on521626   4.506   2.067   3.347  0.3069 -0.1070  0.8318
 4034ntf    on521627   4.513   2.309   3.336 -0.3164 -0.1489 -0.1627
 4034ntf    fn421628   4.503   2.274   3.661  0.0879 -0.0184  0.2732
 4034ntf    fn421629   4.331   2.264   3.540  0.6426  0.8828  0.0097
 4034ntf    fn421630   4.414   2.086   3.615  0.1088 -0.2277  0.5546
 4035ntf    cn121631   5.939   4.564   3.037 -0.1463 -0.1858  0.1733
 4035ntf    sn221632   5.875   4.733   3.020 -0.0396 -0.1674 -0.0538
 4035ntf    nn321633   5.979   4.808   2.930  0.7813 -1.0253  0.1643
 4035ntf    sn221634   6.100   4.900   2.972  0.2471 -0.2047 -0.0717
 4035ntf    cn121635   6.028   5.066   2.981  0.1994 -0.2271 -0.0290
 4035ntf    fn421636   6.057   4.556   3.096 -0.2092  0.0630  0.3336
 4035ntf    fn421637   5.854   4.484   3.100  0.3715 -0.8223  0.0782
 4035ntf    fn421638   5.967   4.505   2.921 -0.2157  0.2497 -0.0658
 4035ntf    on521639   5.750   4.719   2.950  0.0107 -0.2114 -0.1369
 4035ntf    on521640   5.867   4.773   3.158 -0.2248  0.4124 -0.2323
 4035ntf    on521641   6.198   4.899   2.866  0.1575 -0.1283 -0.1560
 4035ntf    on521642   6.153   4.873   3.103  0.2502 -0.7505 -0.1800
 4035ntf    fn421643   5.926   5.072   3.065 -0.0099 -0.3253 -0.2726
 4035ntf    fn421644   6.112   5.165   3.008 -0.1248  0.0701 -0.1082
 4035ntf    fn421645   5.972   5.101   2.866 -0.3147  0.2439  0.3580
 4036ntf    cn121646   0.673   4.222   5.205 -0.0795  0.2987 -0.6719
 4036ntf    sn221647   0.514   4.164   5.138 -0.2308  0.3178 -0.3305
 4036ntf    nn321648   0.491   4.048   5.241 -0.0148  0.2757 -0.3294
 4036ntf    sn221649   0.456   3.900   5.202  0.2666  0.0503  0.2609
 4036ntf    cn121650   0.620   3.823   5.192  0.1594 -0.1142 -0.2320
 4036ntf    fn421651   0.760   4.127   5.236 -0.4104  0.1561 -0.1680
 4036ntf    fn421652   0.737   4.311   5.132  0.6250  0.5412  0.2205
 4036ntf    fn421653   0.646   4.294   5.313  0.1078 -0.3985 -0.1511
 4036ntf    on521654   0.429   4.277   5.165 -0.7627 -0.1823  0.1159
 4036ntf    on521655   0.568   4.122   5.011 -0.5055 -0.0398 -0.3293
 4036ntf    on521656   0.395   3.879   5.073 -0.9514  0.0937  0.8123
 4036ntf    on521657   0.401   3.820   5.310  0.1841 -0.0177  0.1680
 4036ntf    fn421658   0.620   3.693   5.213  0.5363 -0.0563  0.1354
 4036ntf    fn421659   0.668   3.853   5.072  0.2549  0.2087 -0.1152
 4036ntf    fn421660   0.705   3.876   5.279 -0.1181 -0.0211 -0.0169
 4037ntf    cn121661   6.626   0.405   5.938  0.0182  0.0607  0.2434
 4037ntf    sn221662   6.533   0.441   5.786  0.4853  0.0635 -0.0419
 4037ntf    nn321663   6.647   0.499   5.695  0.5236 -0.3236 -0.2478
 4037ntf    sn221664   6.633   0.565   5.553  0.0858 -0.0561 -0.0813
 4037ntf    cn121665   6.720   0.723   5.573 -0.1849  0.1043 -0.1592
 4037ntf    fn421666   6.675   0.516   5.991  0.3269 -0.0239  0.1375
 4037ntf    fn421667   6.551   0.343   6.028 -0.6412  0.0150 -0.3260
 4037ntf    fn421668   6.726   0.321   5.918 -0.2632 -0.4015  0.7563
 4037ntf    on521669   6.487   0.307   5.760 -0.3213  0.3108  0.1106
 4037ntf    on521670   6.438   0.541   5.826  0.3826 -0.1303  0.2003
 4037ntf    on521671   6.501   0.609   5.514  0.0231 -0.3380 -0.1875
 4037ntf    on521672   6.708   0.496   5.452  0.6409  0.6375 -0.1478
 4037ntf    fn421673   6.673   0.796   5.672  0.2785  0.2152 -0.0181
 4037ntf    fn421674   6.848   0.705   5.604 -0.2795  0.0018  0.1765
 4037ntf    fn421675   6.710   0.801   5.466 -0.6570  0.7191  0.3273
 4038ntf    cn121676   3.285   3.467   3.028 -0.2310  0.1092  0.0056
 4038ntf    sn221677   3.110   3.437   2.989 -0.1405 -0.0530 -0.2794
 4038ntf    nn321678   3.114   3.281   2.976  0.1424 -0.1005  0.3561
 4038ntf    sn221679   3.083   3.173   3.087  0.2357 -0.4143  0.0773
 4038ntf    cn121680   2.904   3.144   3.086  0.1070  0.3471  0.1357
 4038ntf    fn421681   3.363   3.440   2.924  0.1052  0.3265  0.1966
 4038ntf    fn421682   3.309   3.593   3.062 -0.1201  0.2120 -0.4450
 4038ntf    fn421683   3.331   3.385   3.121 -0.4000  0.2140  0.1810
 4038ntf    on521684   3.042   3.496   3.102  0.3960  0.3119 -0.1411
 4038ntf    on521685   3.097   3.503   2.861 -0.4316  0.6820  0.1261
 4038ntf    on521686   3.118   3.205   3.223 -0.2309 -0.0366  0.1111
 4038ntf    on521687   3.131   3.046   3.039 -0.5225 -0.1926 -1.3223
 4038ntf    fn421688   2.860   3.057   3.176  0.4341  0.3186  0.2696
 4038ntf    fn421689   2.835   3.256   3.103 -0.2815  0.1841 -0.3609
 4038ntf    fn421690   2.856   3.092   2.975 -0.2124  0.4231  0.2370
 4039ntf    cn121691   0.645   3.601   3.431 -0.1330 -0.2296  0.2764
 4039ntf    sn221692   0.796   3.630   3.527 -0.1560 -0.1023  0.2742
 4039ntf    nn321693   0.769   3.540   3.652 -0.4461  0.2679  0.4792
 4039ntf    sn221694   0.812   3.392   3.681 -0.1892  0.2809  0.1612
 4039ntf    cn121695   0.956   3.417   3.788 -0.1028  0.3026  0.0404
 4039ntf    fn421696   0.540   3.627   3.507 -0.1520 -0.0818  0.1993
 4039ntf    fn421697   0.641   3.691   3.335 -0.3962 -0.1422  0.3681
 4039ntf    fn421698   0.628   3.479   3.382  0.1816 -0.2442  0.2024
 4039ntf    on521699   0.895   3.583   3.433 -0.2948  0.0334  0.0598
 4039ntf    on521700   0.783   3.770   3.560  0.0900  0.1062 -0.4887
 4039ntf    on521701   0.859   3.327   3.561  0.4289  0.6899  0.1793
 4039ntf    on521702   0.724   3.316   3.767  0.3107  0.4545  0.8268
 4039ntf    fn421703   1.038   3.509   3.740 -0.0143  0.0942 -0.2109
 4039ntf    fn421704   0.919   3.467   3.905  0.3561  0.3048  0.1864
 4039ntf    fn421705   1.022   3.304   3.812  0.5477  0.5953 -0.3422
 4040ntf    cn121706   6.409   5.394   5.346 -0.2479 -0.3242 -0.3735
 4040ntf    sn221707   6.335   5.344   5.187 -0.1893 -0.2751 -0.4150
 4040ntf    nn321708   6.462   5.322   5.096 -0.0590 -0.5291 -0.1724
 4040ntf    sn221709   6.543   5.433   5.021  0.0685 -0.1875  0.4619
 4040ntf    cn121710   6.492   5.410   4.848  0.4103  0.5915  0.2503
 4040ntf    fn421711   6.321   5.423   5.440  0.3208  0.5826 -0.1069
 4040ntf    fn421712   6.472   5.289   5.394  0.4665  0.0271 -0.5349
 4040ntf    fn421713   6.489   5.499   5.339 -0.5021 -0.1221 -0.2407
 4040ntf    on521714   6.277   5.216   5.217 -0.0393 -0.2982 -0.2240
 4040ntf    on521715   6.244   5.451   5.154 -0.3158 -0.1114  0.4444
 4040ntf    on521716   6.684   5.408   5.006  0.0933  0.1098  0.1669
 4040ntf    on521717   6.501   5.571   5.036  0.4975 -0.0424  0.3560
 4040ntf    fn421718   6.509   5.285   4.807 -0.0299  0.5076  0.3197
 4040ntf    fn421719   6.362   5.428   4.836  0.2442 -0.6131  0.0468
 4040ntf    fn421720   6.540   5.488   4.752  0.0206  0.4598 -0.0544
 4041ntf    cn121721   1.922   1.280   3.074 -0.0759  0.0591 -0.1186
 4041ntf    sn221722   1.840   1.213   2.927 -0.0044  0.0712 -0.1641
 4041ntf    nn321723   1.796   1.348   2.862 -0.3012  0.2644  0.4334
 4041ntf    sn221724   1.865   1.432   2.747 -0.1954 -0.3063  0.0773
 4041ntf    cn121725   1.720   1.524   2.689  0.0420 -0.0970 -0.1806
 4041ntf    fn421726   1.960   1.186   3.158 -0.2118 -0.2110 -0.3597
 4041ntf    fn421727   2.028   1.353   3.040  0.2025 -0.3524 -0.1383
 4041ntf    fn421728   1.838   1.363   3.134 -0.3022 -0.2298 -0.0365
 4041ntf    on521729   1.950   1.140   2.868  0.5738  0.8886 -0.1170
 4041ntf    on521730   1.730   1.131   2.971 -0.3551  0.3844 -0.4478
 4041ntf    on521731   1.902   1.356   2.630 -0.6475  0.0076 -0.2724
 4041ntf    on521732   1.957   1.532   2.793 -0.3329 -0.0629 -0.1772
 4041ntf    fn421733   1.601   1.469   2.710 -0.1981  0.1098 -0.9583
 4041ntf    fn421734   1.718   1.647   2.738  0.1857 -0.2841  0.2945
 4041ntf    fn421735   1.717   1.539   2.557 -0.0021  0.0288 -0.1658
 4042ntf    cn121736   3.154   7.022   5.410  0.0946  0.2508  0.1679
 4042ntf    sn221737   3.029   6.890   5.412  0.1812  0.1695  0.2262
 4042ntf    nn321738   3.041   6.843   5.263 -0.0248  0.2094  0.1959
 4042ntf    sn221739   2.922   6.841   5.161  0.1453  0.0945 -0.0017
 4042ntf    cn121740   2.983   6.710   5.050 -0.3507  0.2105 -0.4176
 4042ntf    fn421741   3.277   6.978   5.391  0.0288 -0.0959  0.5152
 4042ntf    fn421742   3.134   7.107   5.311 -0.5018 -0.2988 -0.1905
 4042ntf    fn421743   3.153   7.099   5.518  0.1107 -0.2772  0.5540
 4042ntf    on521744   3.069   6.786   5.505 -0.6991 -0.4014 -0.0253
 4042ntf    on521745   2.907   6.961   5.440 -0.0987 -0.1765 -0.0901
 4042ntf    on521746   2.920   6.952   5.070 -0.4835  0.0836 -0.0093
 4042ntf    on521747   2.794   6.796   5.210  0.0191 -0.1854 -0.5737
 4042ntf    fn421748   3.105   6.740   5.008 -0.3836 -0.2694 -0.8723
 4042ntf    fn421749   2.988   6.596   5.116  0.6079  0.4563 -0.0384
 4042ntf    fn421750   2.905   6.704   4.943 -0.7644  0.0196 -0.1066
 4043ntf    cn121751   6.498   3.381   4.889 -0.4531  0.2390  0.0364
 4043ntf    sn221752   6.665   3.336   4.833 -0.5182 -0.1549  0.1538
 4043ntf    nn321753   6.661   3.387   4.684 -0.2462  0.3055  0.3006
 4043ntf    sn221754   6.662   3.534   4.631  0.6423  0.2232  0.0726
 4043ntf    cn121755   6.710   3.515   4.457 -0.1044  0.1456 -0.1280
 4043ntf    fn421756   6.404   3.321   4.818  0.2289 -0.7961 -0.0114
 4043ntf    fn421757   6.482   3.327   5.009  0.1928 -0.0662 -0.0112
 4043ntf    fn421758   6.475   3.511   4.896 -0.0670  0.2857  0.4748
 4043ntf    on521759   6.749   3.410   4.924  0.3440 -0.5692 -0.3004
 4043ntf    on521760   6.665   3.192   4.838 -0.5106 -0.1651 -0.1375
 4043ntf    on521761   6.765   3.626   4.673  0.7021  0.2134 -0.0506
 4043ntf    on521762   6.527   3.585   4.628  0.4530 -0.2762  0.1320
 4043ntf    fn421763   6.688   3.625   4.386 -0.5225  0.2281  0.1258
 4043ntf    fn421764   6.837   3.484   4.437 -0.0707  0.1830  0.0308
 4043ntf    fn421765   6.645   3.419   4.393  0.0864  0.0775 -0.2222
 4044ntf    cn121766   5.486   0.110   0.113 -0.0515  0.2442 -0.0275
 4044ntf    sn221767   5.438   0.251   0.008 -0.1337  0.3078  0.0951
 4044ntf    nn321768   5.323   0.179  -0.071  0.0387  0.2338 -0.0882
 4044ntf    sn221769   5.173   0.218  -0.095 -0.0161 -0.0690 -0.2470
 4044ntf    cn121770   5.105   0.069  -0.015  0.4687 -0.3099 -0.2810
 4044ntf    fn421771   5.599   0.125   0.180 -0.1054 -0.3352  0.2018
 4044ntf    fn421772   5.394   0.067   0.198  0.2378  0.0610  0.1933
 4044ntf    fn421773   5.509   0.005   0.036  0.0807  0.1447  0.1473
 4044ntf    on521774   5.394   0.353   0.099  0.3193  0.5104  0.0894
 4044ntf    on521775   5.548   0.270  -0.083 -0.3638  0.4684 -0.1518
 4044ntf    on521776   5.138   0.209  -0.234 -0.4758  0.4430 -0.1673
 4044ntf    on521777   5.116   0.318  -0.008  0.5463 -0.1484  0.2197
 4044ntf    fn421778   5.185   0.011   0.072  0.5882  0.1809 -0.0617
 4044ntf    fn421779   4.982   0.066   0.033  0.3822  0.4156 -0.4441
 4044ntf    fn421780   5.094  -0.020  -0.113 -0.4663 -0.4780 -0.0340
 4045ntf    cn121781   4.705   4.512   3.411 -0.2889  0.1426 -0.2111
 4045ntf    sn221782   4.758   4.571   3.574 -0.2128 -0.0859 -0.1530
 4045ntf    nn321783   4.812   4.435   3.632  0.0419  0.3612  0.6749
 4045ntf    sn221784   4.956   4.372   3.648 -0.0299 -0.1259 -0.4966
 4045ntf    cn121785   4.982   4.419   3.821 -0.2902  0.2146 -0.5477
 4045ntf    fn421786   4.799   4.517   3.318  0.0938 -0.3442  0.1436
 4045ntf    fn421787   4.671   4.384   3.418 -0.0188  0.0693 -0.2188
 4045ntf    fn421788   4.596   4.577   3.373 -0.3771  0.0402 -0.1327
 4045ntf    on521789   4.860   4.671   3.555 -0.8096  0.5865  0.1594
 4045ntf    on521790   4.642   4.623   3.642  0.2074  0.2042  0.3494
 4045ntf    on521791   5.070   4.426   3.578  0.1554 -0.2844 -0.3176
 4045ntf    on521792   4.944   4.229   3.659  0.0572 -0.1218 -0.3418
 4045ntf    fn421793   5.067   4.333   3.874 -0.1347  0.1291 -0.9364
 4045ntf    fn421794   5.032   4.541   3.835 -0.5199  0.1911  0.5867
 4045ntf    fn421795   4.875   4.408   3.898  0.4511  0.0308  0.4782
 4046ntf    cn121796   3.993   6.901   0.219  0.0662  0.2536 -0.1678
 4046ntf    sn221797   3.850   6.985   0.146  0.0916  0.2083 -0.2690
 4046ntf    nn321798   3.738   6.928   0.240  0.3170  0.4163  0.1262
 4046ntf    sn221799   3.662   6.997   0.359  0.1917  0.2904  0.1207
 4046ntf    cn121800   3.661   6.861   0.479  0.3739  0.0727 -0.1234
 4046ntf    fn421801   4.111   6.916   0.160 -0.0474 -0.0019 -0.4619
 4046ntf    fn421802   4.007   6.952   0.340 -0.1507  0.4863 -0.2400
 4046ntf    fn421803   3.976   6.772   0.244  0.1168  0.1860 -0.4799
 4046ntf    on521804   3.882   7.125   0.149  0.4371  0.1293 -0.1429
 4046ntf    on521805   3.843   6.927   0.014  0.1967 -0.3462 -0.0331
 4046ntf    on521806   3.524   7.022   0.325  0.0314 -0.0229  0.5346
 4046ntf    on521807   3.733   7.103   0.427  0.4746  0.6465 -0.7202
 4046ntf    fn421808   3.629   6.749   0.416  0.3744  0.0751 -0.1280
 4046ntf    fn421809   3.781   6.847   0.534 -0.0347 -0.0930  0.7497
 4046ntf    fn421810   3.571   6.877   0.575  0.0330 -0.2206 -0.3900
 4047ntf    cn121811   6.800   6.683   6.974  0.2684  0.5319 -0.0236
 4047ntf    sn221812   6.712   6.703   6.817  0.0775 -0.2654 -0.0241
 4047ntf    nn321813   6.693   6.550   6.786  0.2177 -0.2935  0.0335
 4047ntf    sn221814   6.785   6.455   6.701  0.2124 -0.1877 -0.0931
 4047ntf    cn121815   6.717   6.475   6.534  0.3552 -0.0423 -0.1341
 4047ntf    fn421816   6.729   6.623   7.069  0.0363  0.5018 -0.2144
 4047ntf    fn421817   6.916   6.622   6.958 -0.0715 -0.1146 -0.0721
 4047ntf    fn421818   6.836   6.801   7.021  0.1907  0.5159  0.0770
 4047ntf    on521819   6.587   6.763   6.856  0.1143 -0.1098 -0.1434
 4047ntf    on521820   6.807   6.776   6.736  0.1432 -0.0941  0.2082
 4047ntf    on521821   6.763   6.316   6.732  0.1222 -0.0827  0.3282
 4047ntf    on521822   6.921   6.499   6.680  0.2201 -0.1717 -0.0097
 4047ntf    fn421823   6.734   6.598   6.488 -0.2688  0.0265 -0.2003
 4047ntf    fn421824   6.764   6.394   6.441  0.3492  0.0586 -0.2257
 4047ntf    fn421825   6.585   6.464   6.538  0.2950  0.5896 -0.1886
 4048ntf    cn121826   0.002   6.562   0.455 -0.0233  0.2656  0.4959
 4048ntf    sn221827  -0.103   6.504   0.318  0.4610 -0.0016  0.2327
 4048ntf    nn321828  -0.114   6.646   0.252 -0.0623  0.1382  0.6094
 4048ntf    sn221829  -0.225   6.710   0.162  0.2352 -0.0157  0.1306
 4048ntf    cn121830  -0.120   6.736   0.016  0.3268 -0.1051  0.1816
 4048ntf    fn421831  -0.046   6.673   0.509 -0.0841  0.6429 -0.3121
 4048ntf    fn421832   0.013   6.466   0.544 -0.4448 -0.2536 -0.0039
 4048ntf    fn421833   0.120   6.603   0.411  0.0257 -0.1427  0.2375
 4048ntf    on521834  -0.024   6.408   0.245  0.2864  0.2241 -0.2581
 4048ntf    on521835  -0.225   6.464   0.384  0.5321 -0.4059  0.1177
 4048ntf    on521836  -0.273   6.839   0.204  0.4917  0.1604 -0.1144
 4048ntf    on521837  -0.330   6.627   0.107 -0.3653  0.9356 -0.2015
 4048ntf    fn421838  -0.040   6.636  -0.019  0.1373 -0.0100 -0.5464
 4048ntf    fn421839  -0.191   6.765  -0.091  0.5064 -0.2884  0.0098
 4048ntf    fn421840  -0.033   6.835   0.022 -0.1236  0.3166 -0.1781
 4049ntf    cn121841   4.242   2.482   1.574  0.1746  0.1402 -0.2789
 4049ntf    sn221842   4.249   2.408   1.740 -0.0348  0.3643 -0.1688
 4049ntf    nn321843   4.359   2.506   1.794 -0.0651  0.1837  0.2216
 4049ntf    sn221844   4.511   2.481   1.821 -0.0801  0.0896  0.2193
 4049ntf    cn121845   4.580   2.642   1.871 -0.1217  0.2168 -0.1248
 4049ntf    fn421846   4.344   2.445   1.498  0.5075 -0.0317  0.2453
 4049ntf    fn421847   4.126   2.446   1.521  0.0993  0.3642 -0.2697
 4049ntf    fn421848   4.245   2.614   1.580  0.4857  0.1080  0.4199
 4049ntf    on521849   4.122   2.450   1.793  0.0398  0.5258 -0.1192
 4049ntf    on521850   4.272   2.267   1.718  0.3635  0.4570 -0.3603
 4049ntf    on521851   4.601   2.446   1.713  0.4831 -0.1664  0.7680
 4049ntf    on521852   4.524   2.410   1.945 -0.8583  0.3761  0.4679
 4049ntf    fn421853   4.514   2.680   1.979 -0.3352  0.0588 -0.1986
 4049ntf    fn421854   4.710   2.651   1.895 -0.2095  0.4656  0.2687
 4049ntf    fn421855   4.557   2.735   1.781  0.3769  0.0061 -0.4709
 4050ntf    cn121856   5.972   0.340   0.728  0.1392  0.2122  0.0505
 4050ntf    sn221857   6.095   0.337   0.595 -0.1052  0.0762 -0.1727
 4050ntf    nn321858   6.162   0.197   0.619  0.1302  0.1147 -0.5863
 4050ntf    sn221859   6.257   0.165   0.739 -0.0738  0.2446 -0.3891
 4050ntf    cn121860   6.422   0.165   0.663 -0.0314  0.4475 -0.3003
 4050ntf    fn421861   5.877   0.248   0.713  0.5652 -0.1140 -0.6704
 4050ntf    fn421862   6.019   0.304   0.847  0.0953 -0.4344 -0.1210
 4050ntf    fn421863   5.911   0.456   0.742  0.0058  0.1452  0.0302
 4050ntf    on521864   6.023   0.341   0.470  0.5213 -0.1850 -0.5424
 4050ntf    on521865   6.183   0.450   0.612 -0.0579  0.0505 -0.2460
 4050ntf    on521866   6.244   0.027   0.777  0.6083  0.2357 -0.1715
 4050ntf    on521867   6.263   0.262   0.846 -0.3822 -0.4723  0.2855
 4050ntf    fn421868   6.453   0.279   0.604  0.0080  0.5120 -0.1547
 4050ntf    fn421869   6.518   0.138   0.750 -0.0102  0.1464 -0.4166
 4050ntf    fn421870   6.437   0.073   0.569 -0.1022 -0.3596  0.4628
 4051ntf    cn121871   2.268   1.060   0.719 -0.2438 -0.0420 -0.2698
 4051ntf    sn221872   2.294   1.226   0.789 -0.1217 -0.1586 -0.0412
 4051ntf    nn321873   2.149   1.261   0.838 -0.1300  0.0860 -0.2413
 4051ntf    sn221874   2.064   1.388   0.802 -0.1820  0.1746  0.1831
 4051ntf    cn121875   2.156   1.531   0.866  0.0132  0.1059  0.0579
 4051ntf    fn421876   2.158   1.064   0.645 -0.6030  0.5704  0.2845
 4051ntf    fn421877   2.369   1.019   0.644  0.5110  0.7518  0.2849
 4051ntf    fn421878   2.249   0.966   0.810  0.7077  0.1047  0.0943
 4051ntf    on521879   2.371   1.217   0.911 -0.3956 -0.6015  0.1009
 4051ntf    on521880   2.357   1.293   0.678  0.0296 -0.7869 -0.3430
 4051ntf    on521881   1.938   1.402   0.871 -0.1159 -0.0870  0.3572
 4051ntf    on521882   2.052   1.407   0.659 -0.0104 -0.0487  0.1385
 4051ntf    fn421883   2.285   1.525   0.838 -0.1629 -0.3110 -0.7032
 4051ntf    fn421884   2.100   1.644   0.824 -0.2460 -0.1921 -0.4076
 4051ntf    fn421885   2.135   1.530   0.996 -0.2270  0.1063  0.0201
 4052ntf    cn121886   2.910   4.142   0.019 -0.1116  0.2318  0.1967
 4052ntf    sn221887   3.018   4.215   0.146  0.2521  0.0082  0.0149
 4052ntf    nn321888   3.059   4.350   0.077 -0.1646  0.1096 -0.0382
 4052ntf    sn221889   3.097   4.489   0.138  0.3488 -0.0968  0.1216
 4052ntf    cn121890   3.182   4.447   0.293 -0.1090 -0.3456  0.3060
 4052ntf    fn421891   2.982   4.132  -0.091  0.1081 -0.1445  0.3754
 4052ntf    fn421892   2.855   4.030   0.062  0.1385 -0.0488 -0.2195
 4052ntf    fn421893   2.814   4.232   0.002 -0.0660  0.2095 -0.1843
 4052ntf    on521894   2.939   4.223   0.266 -0.1536  0.2670 -0.2686
 4052ntf    on521895   3.133   4.128   0.149 -0.2135 -0.6071  0.3361
 4052ntf    on521896   2.977   4.553   0.186  0.1719 -0.2761 -0.0817
 4052ntf    on521897   3.189   4.568   0.059  0.3537  0.1776  0.3990
 4052ntf    fn421898   3.098   4.400   0.383 -0.4292 -0.5890 -0.1164
 4052ntf    fn421899   3.278   4.358   0.271 -0.0959 -0.2431 -0.0596
 4052ntf    fn421900   3.230   4.555   0.351  0.1284 -0.2566 -0.0526
 4053ntf    cn121901   6.188   5.530   5.723  0.0750 -0.0773 -0.0595
 4053ntf    sn221902   6.165   5.357   5.775 -0.1194 -0.0023  0.1048
 4053ntf    nn321903   6.035   5.363   5.863 -0.2008 -0.4336  0.0161
 4053ntf    sn221904   5.887   5.392   5.819 -0.0819  0.1677 -0.0015
 4053ntf    cn121905   5.807   5.246   5.892 -0.3385  0.1671 -0.2859
 4053ntf    fn421906   6.303   5.542   5.658 -0.1458  0.2029 -0.4017
 4053ntf    fn421907   6.087   5.565   5.645 -0.2242 -0.0559  0.3328
 4053ntf    fn421908   6.191   5.613   5.826 -0.0534  0.2089 -0.2871
 4053ntf    on521909   6.147   5.279   5.656 -0.8658  0.0363  0.1916
 4053ntf    on521910   6.287   5.337   5.849  0.1117 -0.0522 -0.2862
 4053ntf    on521911   5.846   5.393   5.681  0.4406 -0.2494 -0.1639
 4053ntf    on521912   5.830   5.487   5.912 -0.5935 -0.7514  0.6438
 4053ntf    fn421913   5.675   5.249   5.883 -0.3494 -0.3687 -0.3365
 4053ntf    fn421914   5.847   5.130   5.842 -0.4893 -0.3649  0.7911
 4053ntf    fn421915   5.847   5.235   6.017  0.2784  0.0382 -0.4906
 4054ntf    cn121916   5.889   0.938   2.409  0.3183 -0.2520  0.2161
 4054ntf    sn221917   6.046   0.958   2.499  0.4343 -0.2756  0.0196
 4054ntf    nn321918   6.121   1.071   2.420 -0.2089  0.3875  0.3448
 4054ntf    sn221919   6.276   1.091   2.405 -0.2278  0.0549 -0.3297
 4054ntf    cn121920   6.325   0.995   2.258  0.3547  0.0601 -0.1429
 4054ntf    fn421921   5.824   0.829   2.443  0.4265 -0.5293 -0.4493
 4054ntf    fn421922   5.811   1.044   2.418 -0.0307 -0.4877 -0.0398
 4054ntf    fn421923   5.910   0.918   2.280  0.4494 -0.4591  0.2686
 4054ntf    on521924   5.997   1.001   2.627 -0.2181 -0.8178 -0.0409
 4054ntf    on521925   6.117   0.833   2.504  0.6047 -0.1830 -0.0710
 4054ntf    on521926   6.361   1.037   2.508  0.5115  0.4520 -0.7240
 4054ntf    on521927   6.298   1.226   2.359  0.5289 -0.0318 -0.2317
 4054ntf    fn421928   6.456   1.002   2.245  0.2825  0.4400 -0.6898
 4054ntf    fn421929   6.299   0.867   2.276 -0.1436  0.1472 -0.2031
 4054ntf    fn421930   6.274   1.035   2.142  0.2456  0.1654 -0.0592
 4055ntf    cn121931   2.280   3.980   1.444  0.4270 -0.2711  0.1648
 4055ntf    sn221932   2.432   4.072   1.484  0.4204 -0.1838 -0.0103
 4055ntf    nn321933   2.404   4.118   1.631 -0.4615  0.0774 -0.2525
 4055ntf    sn221934   2.493   4.198   1.732 -0.2573 -0.0383 -0.3397
 4055ntf    cn121935   2.371   4.300   1.820  0.0640 -0.0287  0.0992
 4055ntf    fn421936   2.284   3.927   1.323 -0.6017 -0.1878  0.0896
 4055ntf    fn421937   2.261   3.879   1.528  0.2165 -0.4971 -0.1534
 4055ntf    fn421938   2.174   4.058   1.446  0.6492  0.0269  0.5077
 4055ntf    on521939   2.534   3.970   1.479  0.1478 -0.4365 -0.5167
 4055ntf    on521940   2.439   4.180   1.388 -0.6218  0.3866  0.5398
 4055ntf    on521941   2.589   4.291   1.679 -0.1088  0.0411  0.0590
 4055ntf    on521942   2.549   4.116   1.837 -0.2442  0.3507 -0.0399
 4055ntf    fn421943   2.424   4.370   1.919 -0.4429  0.1318  0.2638
 4055ntf    fn421944   2.303   4.380   1.740  0.0016 -0.1441  0.0363
 4055ntf    fn421945   2.278   4.223   1.875 -0.2247  0.2954  0.0693
 4056ntf    cn121946   3.229   4.156   6.194 -0.1410 -0.1493  0.4197
 4056ntf    sn221947   3.165   4.327   6.193  0.3268  0.0233  0.0408
 4056ntf    nn321948   3.087   4.330   6.057 -0.2218 -0.4174  0.3412
 4056ntf    sn221949   2.934   4.319   6.024 -0.1980  0.1437  0.0270
 4056ntf    cn121950   2.942   4.218   5.873 -0.3418 -0.1336  0.2041
 4056ntf    fn421951   3.266   4.115   6.314 -0.3430 -0.1132  0.4953
 4056ntf    fn421952   3.141   4.067   6.151  0.1825  0.1219 -0.8516
 4056ntf    fn421953   3.331   4.137   6.113 -0.3386 -0.1253  0.1638
 4056ntf    on521954   3.086   4.340   6.312  0.2094  0.3365 -0.0722
 4056ntf    on521955   3.281   4.412   6.181  0.0529  0.3496 -0.3411
 4056ntf    on521956   2.879   4.449   5.993 -0.2487  0.1288  0.0534
 4056ntf    on521957   2.860   4.243   6.122 -0.1755  0.2764  0.1471
 4056ntf    fn421958   2.825   4.176   5.828 -0.2175 -0.2867  0.0219
 4056ntf    fn421959   3.003   4.279   5.773  0.0521 -0.4556  0.2425
 4056ntf    fn421960   3.012   4.106   5.890  0.1185  0.1757  0.3692
 4057ntf    cn121961   4.837   5.415   2.646 -0.1720 -0.1988  0.4045
 4057ntf    sn221962   4.980   5.525   2.675 -0.0144 -0.2625 -0.1183
 4057ntf    nn321963   5.054   5.497   2.540 -0.1660 -0.4190 -0.1707
 4057ntf    sn221964   5.030   5.566   2.402 -0.1351  0.1066  0.0844
 4057ntf    cn121965   5.172   5.679   2.390 -0.0411  0.0213  0.4065
 4057ntf    fn421966   4.742   5.414   2.738 -0.6960 -0.5344 -0.1386
 4057ntf    fn421967   4.774   5.432   2.531 -0.1126 -0.1332  0.3818
 4057ntf    fn421968   4.870   5.288   2.632 -0.2963 -0.1565 -0.3144
 4057ntf    on521969   4.931   5.659   2.696  0.0532 -0.3361  0.5382
 4057ntf    on521970   5.041   5.460   2.789 -0.8531  0.4344  0.7557
 4057ntf    on521971   4.913   5.649   2.391 -0.0203  0.3130  0.4030
 4057ntf    on521972   5.057   5.463   2.304  0.4046 -0.2566  0.6112
 4057ntf    fn421973   5.180   5.734   2.270 -0.1604 -0.6783  0.0740
 4057ntf    fn421974   5.186   5.784   2.469  0.0661  0.2425  0.0948
 4057ntf    fn421975   5.281   5.607   2.404  0.1720  0.3222  0.3198
 4058ntf    cn121976   0.777   7.170   3.815  0.0254 -0.0612 -0.0540
 4058ntf    sn221977   0.628   7.067   3.828 -0.1275  0.1880  0.1721
 4058ntf    nn321978   0.623   7.002   3.686 -0.2551 -0.0021  0.2625
 4058ntf    sn221979   0.561   7.050   3.549 -0.3177  0.1305  0.3369
 4058ntf    cn121980   0.697   7.016   3.434 -0.6240 -0.0338  0.0202
 4058ntf    fn421981   0.873   7.093   3.767  0.0035  0.3621 -0.7835
 4058ntf    fn421982   0.755   7.273   3.735  0.2887  0.0040 -0.0439
 4058ntf    fn421983   0.806   7.226   3.931  0.1549 -0.0456 -0.0941
 4058ntf    on521984   0.659   6.970   3.930  0.0292 -0.1076 -0.1546
 4058ntf    on521985   0.522   7.161   3.855 -0.5136 -0.2055  0.0416
 4058ntf    on521986   0.530   7.190   3.535 -0.2692  0.1564  0.4779
 4058ntf    on521987   0.462   6.959   3.496 -0.0350  0.1470 -0.2174
 4058ntf    fn421988   0.786   7.113   3.451 -0.4139 -0.2085 -0.0810
 4058ntf    fn421989   0.757   6.901   3.458 -0.5915  0.0358  0.2717
 4058ntf    fn421990   0.664   7.009   3.306 -0.3420 -0.3555 -0.0355
 4059ntf    cn121991   1.897   5.829   3.559  0.3510  0.1779  0.0378
 4059ntf    sn221992   1.761   5.861   3.675  0.2601 -0.0289 -0.0105
 4059ntf    nn321993   1.660   5.939   3.583 -0.5156 -0.3376  0.5727
 4059ntf    sn221994   1.554   5.878   3.485 -0.1893  0.1738 -0.0980
 4059ntf    cn121995   1.404   5.888   3.587 -0.0020  0.2527  0.1709
 4059ntf    fn421996   1.920   5.934   3.481 -0.3441  0.5214  0.2877
 4059ntf    fn421997   2.009   5.786   3.613  0.3357  0.4906  0.3229
 4059ntf    fn421998   1.876   5.728   3.476 -0.1446  0.1662  0.1717
 4059ntf    on521999   1.716   5.735   3.728 -0.3264  0.2810  0.2375
 4059ntf    on522000   1.827   5.948   3.770 -0.2083 -0.0084  0.3012
 4059ntf    on522001   1.571   5.739   3.452 -0.4050  0.0563  0.2867
 4059ntf    on522002   1.520   5.967   3.376  0.3560  0.3318 -0.1437
 4059ntf    fn422003   1.367   6.009   3.625  0.3761  0.4109  0.0444
 4059ntf    fn422004   1.304   5.837   3.516  0.2552 -0.2046  0.1374
 4059ntf    fn422005   1.405   5.819   3.699 -0.1868 -0.4427 -0.2526
 4060ntf    cn122006   5.577   5.611   5.238 -0.1916 -0.6795 -0.4296
 4060ntf    sn222007   5.425   5.511   5.230 -0.6724  0.0004  0.0934
 4060ntf    nn322008   5.350   5.566   5.356  0.1483  0.6487  0.3113
 4060ntf    sn222009   5.346   5.495   5.496  0.1354  0.4369  0.2032
 4060ntf    cn122010   5.195   5.398   5.466  0.2193  0.3267  0.1340
 4060ntf    fn422011   5.544   5.713   5.315  0.3496 -0.5704 -0.3369
 4060ntf    fn422012   5.679   5.544   5.290 -0.1842 -0.1143  0.2997
 4060ntf    fn422013   5.617   5.653   5.119 -0.2369  0.5110 -0.0347
 4060ntf    on522014   5.370   5.564   5.108 -0.1748  0.2405 -0.0287
 4060ntf    on522015   5.469   5.374   5.232 -0.4228  0.0639 -0.8346
 4060ntf    on522016   5.315   5.592   5.598 -0.1001  0.3706  0.1958
 4060ntf    on522017   5.447   5.400   5.535 -0.1223 -0.0469 -0.2964
 4060ntf    fn422018   5.105   5.477   5.409 -0.1457  0.0439  0.3178
 4060ntf    fn422019   5.217   5.281   5.409  0.5065  0.1248  0.6576
 4060ntf    fn422020   5.138   5.365   5.580  0.2850  0.3687  0.1793
 4061ntf    cn122021   4.910   5.175   5.978 -0.2699  0.0804 -0.3910
 4061ntf    sn222022   4.815   5.043   6.060 -0.2303  0.2364 -0.0901
 4061ntf    nn322023   4.749   4.971   5.937 -0.3608  0.2029  0.0004
 4061ntf    sn222024   4.630   4.868   5.927 -0.2176  0.0475 -0.1174
 4061ntf    cn122025   4.527   4.971   5.817 -0.1595  0.1317 -0.0939
 4061ntf    fn422026   4.938   5.280   6.054  0.3741 -0.3705  0.0030
 4061ntf    fn422027   5.018   5.117   5.930 -0.3337 -0.0675 -0.3584
 4061ntf    fn422028   4.843   5.226   5.876 -0.3627  0.2929 -0.2247
 4061ntf    on522029   4.915   4.972   6.136 -0.2935  0.4137  0.1577
 4061ntf    on522030   4.720   5.115   6.141 -0.1365  0.8103 -0.4836
 4061ntf    on522031   4.547   4.836   6.040 -0.3006 -0.6524 -0.3759
 4061ntf    on522032   4.670   4.759   5.842  0.1343  0.0494  0.0446
 4061ntf    fn422033   4.489   5.088   5.864 -0.1408  0.3215 -0.5504
 4061ntf    fn422034   4.594   5.003   5.707  0.4666  0.0251  0.2509
 4061ntf    fn422035   4.419   4.907   5.776 -0.4284  0.0685  0.6993
 4062ntf    cn122036   1.097   6.117   6.931 -0.2355  0.3391  0.1579
 4062ntf    sn222037   1.256   6.191   6.882 -0.1187  0.0446  0.0930
 4062ntf    nn322038   1.212   6.339   6.854 -0.0364  0.0014 -0.2756
 4062ntf    sn222039   1.145   6.385   6.720 -0.1728  0.2792 -0.1133
 4062ntf    cn122040   1.297   6.445   6.640  0.1633 -0.2594  0.1152
 4062ntf    fn422041   1.000   6.196   6.976 -0.4512  0.4612 -0.5134
 4062ntf    fn422042   1.046   6.063   6.822  0.1231  0.0164  0.1511
 4062ntf    fn422043   1.114   6.020   7.019  0.6506  0.0545 -0.3151
 4062ntf    on522044   1.346   6.179   6.994  0.2893 -0.0093 -0.2364
 4062ntf    on522045   1.304   6.118   6.767  0.0530  0.0171  0.1820
 4062ntf    on522046   1.067   6.505   6.740  0.1144  0.4374  0.0559
 4062ntf    on522047   1.094   6.287   6.627 -0.1397  0.1570 -0.0029
 4062ntf    fn422048   1.352   6.549   6.701  0.1287 -0.4804  0.5210
 4062ntf    fn422049   1.389   6.351   6.628  0.1382 -0.3198  0.3929
 4062ntf    fn422050   1.277   6.480   6.514 -0.4859 -0.1547  0.2444
 4063ntf    cn122051   2.437   1.526   3.894 -0.0188 -0.0006  0.4482
 4063ntf    sn222052   2.288   1.435   3.944 -0.0706 -0.0317  0.2388
 4063ntf    nn322053   2.178   1.483   3.843  0.0571 -0.0022  0.1121
 4063ntf    sn222054   2.061   1.586   3.867 -0.1210 -0.1827  0.0169
 4063ntf    cn122055   2.013   1.616   3.694  0.2056 -0.1664 -0.0725
 4063ntf    fn422056   2.452   1.532   3.763 -0.4923  0.5356  0.4134
 4063ntf    fn422057   2.433   1.651   3.939  0.8138  0.0240  0.4706
 4063ntf    fn422058   2.544   1.468   3.946  0.3387  0.2219 -0.0350
 4063ntf    on522059   2.324   1.298   3.914 -0.1511 -0.0643  0.2918
 4063ntf    on522060   2.267   1.466   4.083 -0.0953  0.5433  0.1099
 4063ntf    on522061   2.111   1.716   3.905 -0.3285 -0.1178  0.0697
 4063ntf    on522062   1.948   1.532   3.937  0.0303  0.4353  0.7528
 4063ntf    fn422063   1.943   1.518   3.638 -0.0702 -0.0292  0.0293
 4063ntf    fn422064   1.941   1.725   3.674 -0.2419 -0.4655 -0.1073
 4063ntf    fn422065   2.109   1.637   3.606 -0.2611 -0.0926 -0.5730
 4064ntf    cn122066   1.112   1.167   4.508  0.1737  0.3800  0.0760
 4064ntf    sn222067   1.138   1.347   4.497 -0.0555  0.4004 -0.1232
 4064ntf    nn322068   1.060   1.387   4.627  0.0702  0.2365  0.0036
 4064ntf    sn222069   1.121   1.476   4.741  0.0088 -0.0609  0.2691
 4064ntf    cn122070   1.183   1.349   4.855  0.0179 -0.2003  0.1097
 4064ntf    fn422071   0.992   1.121   4.479 -0.0818  1.2509 -0.2763
 4064ntf    fn422072   1.198   1.104   4.429  0.1358 -0.1109  0.4236
 4064ntf    fn422073   1.144   1.115   4.626 -0.2028 -0.3133 -0.1245
 4064ntf    on522074   1.282   1.349   4.498 -0.0514 -0.0116  0.2040
 4064ntf    on522075   1.075   1.373   4.370 -0.2086 -0.0850 -0.1524
 4064ntf    on522076   1.019   1.535   4.825 -0.3649 -0.2936 -0.0195
 4064ntf    on522077   1.238   1.551   4.704  0.1752 -0.1710  0.5706
 4064ntf    fn422078   1.083   1.285   4.914 -0.4629 -0.0387 -0.5173
 4064ntf    fn422079   1.257   1.260   4.792 -0.5031 -0.4399 -0.1696
 4064ntf    fn422080   1.266   1.403   4.943  0.0141 -0.1288  0.0690
 4065ntf    cn122081   1.245   2.712   3.741 -0.1020  0.1699  0.5242
 4065ntf    sn222082   1.068   2.682   3.765 -0.1715  0.3339  0.2223
 4065ntf    nn322083   1.048   2.563   3.665  0.0189  0.3108  0.2115
 4065ntf    sn222084   0.987   2.561   3.520  0.2900 -0.2734  0.1029
 4065ntf    cn122085   0.998   2.383   3.484  0.1475 -0.2488 -0.0640
 4065ntf    fn422086   1.317   2.621   3.805  0.5605  0.6942  0.5446
 4065ntf    fn422087   1.282   2.712   3.614 -0.3617  0.3432  0.4483
 4065ntf    fn422088   1.291   2.828   3.785  0.0855  0.3170 -0.0483
 4065ntf    on522089   1.058   2.648   3.905 -0.1747  0.3034  0.2148
 4065ntf    on522090   1.001   2.803   3.725  0.1758  0.5878  0.4032
 4065ntf    on522091   1.064   2.611   3.409 -0.1514 -0.2101 -0.1764
 4065ntf    on522092   0.845   2.582   3.531  0.4122  0.0144  1.3149
 4065ntf    fn422093   0.969   2.355   3.358 -0.1882  0.0761 -0.0577
 4065ntf    fn422094   1.122   2.337   3.496  0.1884  0.0175  0.5757
 4065ntf    fn422095   0.931   2.301   3.563 -0.0313 -0.2673 -0.2348
 4066ntf    cn122096   1.461   0.864   3.983 -0.1382  0.0600  0.0447
 4066ntf    sn222097   1.322   0.748   3.991 -0.1083  0.0363  0.2260
 4066ntf    nn322098   1.339   0.722   4.145 -0.0314  0.0839  0.2251
 4066ntf    sn222099   1.251   0.780   4.260  0.1005  0.0429  0.3469
 4066ntf    cn122100   1.389   0.804   4.376  0.6913 -0.1438 -0.3117
 4066ntf    fn422101   1.572   0.816   4.036  0.0925  0.6701  0.1236
 4066ntf    fn422102   1.489   0.896   3.857  0.1437  0.1118  0.1191
 4066ntf    fn422103   1.435   0.980   4.041  0.6787  0.3666 -0.1873
 4066ntf    on522104   1.202   0.815   3.948 -0.1888  0.0023  0.4000
 4066ntf    on522105   1.370   0.641   3.907 -0.6270  0.1598 -0.2317
 4066ntf    on522106   1.170   0.678   4.322  0.1867  0.0273  0.4335
 4066ntf    on522107   1.187   0.908   4.239 -0.0410 -0.1298 -0.2734
 4066ntf    fn422108   1.484   0.880   4.324  0.2190  0.5164 -0.2191
 4066ntf    fn422109   1.349   0.862   4.488 -0.0424 -0.0610 -0.6120
 4066ntf    fn422110   1.445   0.693   4.422  0.2158 -0.3751 -0.2770
 4067ntf    cn122111   7.124   4.991   3.255  0.0085 -0.3768  0.2560
 4067ntf    sn222112   7.013   5.134   3.273 -0.0324 -0.3284 -0.3474
 4067ntf    nn322113   6.918   5.123   3.149 -0.4020  0.1785 -0.1141
 4067ntf    sn222114   6.890   5.225   3.033 -0.1541  0.0681 -0.2725
 4067ntf    cn122115   6.711   5.242   3.060 -0.1211  0.0728 -0.0582
 4067ntf    fn422116   7.225   4.988   3.339  0.0891  0.2929  0.1910
 4067ntf    fn422117   7.062   4.874   3.258  0.3649 -0.5769 -0.0955
 4067ntf    fn422118   7.173   5.000   3.132 -0.1630 -0.1011  0.2050
 4067ntf    on522119   6.940   5.096   3.391 -0.2219 -0.4089 -0.4903
 4067ntf    on522120   7.094   5.252   3.294 -0.5125  0.0394 -0.5248
 4067ntf    on522121   6.900   5.169   2.900  0.3633 -0.5956  0.0475
 4067ntf    on522122   6.939   5.359   3.052  0.3546 -0.2141  0.4399
 4067ntf    fn422123   6.659   5.341   2.989 -0.8622 -0.4953 -0.3295
 4067ntf    fn422124   6.642   5.135   3.023 -0.1342  0.2464 -0.5527
 4067ntf    fn422125   6.685   5.272   3.186  0.3793 -0.0271  0.0698
 4068ntf    cn122126   2.467   0.719   5.768  0.1333  0.0185 -0.6260
 4068ntf    sn222127   2.424   0.557   5.698  0.0615 -0.1802 -0.1248
 4068ntf    nn322128   2.306   0.529   5.797  0.1215  0.6068  0.1714
 4068ntf    sn222129   2.298   0.444   5.929  0.4574  0.2491 -0.0368
 4068ntf    cn122130   2.160   0.526   6.014  0.0141  0.0554 -0.5617
 4068ntf    fn422131   2.548   0.709   5.872 -0.3559 -0.2794 -0.2711
 4068ntf    fn422132   2.519   0.796   5.673  0.6328  0.4260 -0.0269
 4068ntf    fn422133   2.363   0.793   5.802  0.2471 -0.1621  0.1183
 4068ntf    on522134   2.391   0.595   5.563  0.1075  0.4857  0.0469
 4068ntf    on522135   2.542   0.479   5.727  0.1806  0.0712  0.0736
 4068ntf    on522136   2.404   0.466   6.024  0.3357 -0.2598  0.2198
 4068ntf    on522137   2.241   0.314   5.905  0.2852  0.3713 -0.2983
 4068ntf    fn422138   2.203   0.625   6.090  0.1300 -0.3821 -0.0486
 4068ntf    fn422139   2.073   0.589   5.937 -0.2604  0.0829 -0.2326
 4068ntf    fn422140   2.093   0.449   6.099  0.1815 -0.0778 -0.5510
 4069ntf    cn122141   2.980   2.265   2.497  0.3728 -0.0250 -0.0095
 4069ntf    sn222142   2.955   2.408   2.387 -0.1962 -0.2183 -0.1338
 4069ntf    nn322143   3.083   2.387   2.299 -0.1340 -0.1278 -0.0651
 4069ntf    sn222144   3.218   2.467   2.310  0.0743 -0.4910  0.0457
 4069ntf    cn122145   3.334   2.336   2.262  0.1004 -0.3030 -0.4095
 4069ntf    fn422146   2.989   2.156   2.423 -0.3776 -0.3228  0.3275
 4069ntf    fn422147   3.081   2.279   2.582 -0.0710  0.1255  0.5010
 4069ntf    fn422148   2.878   2.261   2.580  0.3270 -0.3440 -0.0836
 4069ntf    on522149   2.827   2.370   2.334 -0.1615 -0.2316 -0.2077
 4069ntf    on522150   2.956   2.524   2.473  0.2467 -0.0571 -0.3559
 4069ntf    on522151   3.256   2.488   2.448 -0.3189 -0.0147  0.0856
 4069ntf    on522152   3.230   2.571   2.211 -0.7539 -0.1882  0.2496
 4069ntf    fn422153   3.326   2.231   2.341  0.1108 -0.1927 -0.2601
 4069ntf    fn422154   3.307   2.286   2.143 -0.6777 -0.4284 -0.1863
 4069ntf    fn422155   3.462   2.370   2.261  0.1562 -0.5105 -0.3014
 4070ntf    cn122156   0.403   4.656   4.458 -0.4288  0.0877 -0.5245
 4070ntf    sn222157   0.359   4.603   4.626  0.5136  0.0392 -0.2835
 4070ntf    nn322158   0.499   4.600   4.696  0.2950 -0.0776  0.1571
 4070ntf    sn222159   0.559   4.713   4.787 -0.1114  0.1752  0.1105
 4070ntf    cn122160   0.724   4.715   4.711 -0.2098  0.0448 -0.1068
 4070ntf    fn422161   0.475   4.561   4.400  0.7908  0.3248  0.5627
 4070ntf    fn422162   0.295   4.665   4.382 -0.1537  0.4091 -0.8837
 4070ntf    fn422163   0.469   4.771   4.450 -0.4961  0.1999  0.4074
 4070ntf    on522164   0.269   4.708   4.670 -0.3552 -0.5951 -0.5101
 4070ntf    on522165   0.308   4.470   4.605  0.6490 -0.1695  0.6835
 4070ntf    on522166   0.586   4.672   4.922 -0.1443  0.5117  0.2211
 4070ntf    on522167   0.504   4.847   4.785 -0.0716  0.1980  0.4281
 4070ntf    fn422168   0.815   4.781   4.780  0.0323 -0.2562 -0.1374
 4070ntf    fn422169   0.769   4.593   4.690 -0.1090  0.1126 -0.2814
 4070ntf    fn422170   0.713   4.772   4.592  0.2715 -0.1564 -0.2472
 4071ntf    cn122171   2.520   2.045   2.781 -0.1692  0.0081  0.0590
 4071ntf    sn222172   2.352   1.984   2.748 -0.0316 -0.4129  0.1361
 4071ntf    nn322173   2.364   1.998   2.592  0.6818 -1.1459  0.1173
 4071ntf    sn222174   2.346   1.890   2.480 -0.0321 -0.4318 -0.4695
 4071ntf    cn122175   2.486   1.944   2.376  0.2860 -0.1359  0.1103
 4071ntf    fn422176   2.558   2.034   2.908  0.0234 -0.2363 -0.0209
 4071ntf    fn422177   2.613   1.977   2.717 -0.2270 -0.0116 -0.0034
 4071ntf    fn422178   2.543   2.170   2.744  0.1451 -0.1481 -0.2763
 4071ntf    on522179   2.342   1.849   2.800 -0.5629 -0.3707  0.1523
 4071ntf    on522180   2.269   2.085   2.809 -0.4744 -0.2781 -0.6848
 4071ntf    on522181   2.230   1.913   2.398 -0.1493  0.1983 -0.1296
 4071ntf    on522182   2.374   1.752   2.512 -0.2839 -0.2315  0.6417
 4071ntf    fn422183   2.464   2.065   2.327 -0.1773 -0.2818 -0.0439
 4071ntf    fn422184   2.595   1.959   2.450  0.4344 -0.8735  0.0413
 4071ntf    fn422185   2.507   1.867   2.271 -0.4068 -0.2758  0.0710
 4072ntf    cn122186   1.368   5.629   1.437  0.3998  0.0065  0.1072
 4072ntf    sn222187   1.208   5.676   1.509  0.2273 -0.0579 -0.2354
 4072ntf    nn322188   1.237   5.665   1.663 -0.0087  0.2364 -0.1686
 4072ntf    sn222189   1.146   5.707   1.784  0.1919 -0.1680  0.1240
 4072ntf    cn122190   1.245   5.855   1.820  0.0171 -0.0151 -0.0205
 4072ntf    fn422191   1.473   5.686   1.494  0.2118 -0.0447  0.5122
 4072ntf    fn422192   1.395   5.500   1.446 -0.1283 -0.1019  0.1337
 4072ntf    fn422193   1.378   5.661   1.309 -0.0277  0.1295  0.1016
 4072ntf    on522194   1.185   5.811   1.465 -0.5122 -0.0170  0.2440
 4072ntf    on522195   1.119   5.572   1.463  0.0321 -0.0679  0.1593
 4072ntf    on522196   1.149   5.625   1.903 -0.0437 -0.2225  0.0927
 4072ntf    on522197   1.013   5.749   1.747  0.2545 -0.2892 -0.2484
 4072ntf    fn422198   1.225   5.962   1.746  0.4610  0.1656  0.1175
 4072ntf    fn422199   1.221   5.893   1.945  0.1474 -0.5429  0.1695
 4072ntf    fn422200   1.375   5.830   1.813  0.0206  0.0907 -0.3354
 4073ntf    cn122201   0.155   3.275   6.053 -0.0740  0.1596  0.2832
 4073ntf    sn222202   0.279   3.161   5.984  0.0094  0.2390  0.3007
 4073ntf    nn322203   0.258   3.030   6.069 -0.0171  0.2015  0.2369
 4073ntf    sn222204   0.149   2.918   6.058  0.2027  0.0234 -0.1697
 4073ntf    cn122205   0.177   2.861   6.228 -0.3193  0.3002  0.0128
 4073ntf    fn422206   0.030   3.233   6.041 -0.1514  0.3708  0.3435
 4073ntf    fn422207   0.162   3.289   6.185 -0.1420  0.3820  0.2640
 4073ntf    fn422208   0.161   3.398   6.006  0.6864 -0.0838 -0.2779
 4073ntf    on522209   0.240   3.149   5.846  0.8490 -0.2892  0.1085
 4073ntf    on522210   0.408   3.218   6.011 -0.0991  0.4087  0.4628
 4073ntf    on522211   0.180   2.803   5.977 -0.0720  0.4106 -0.8363
 4073ntf    on522212   0.017   2.978   6.054  0.1985  0.0634  0.4909
 4073ntf    fn422213   0.087   2.769   6.258 -0.3342  0.0667 -0.7164
 4073ntf    fn422214   0.295   2.806   6.248 -0.3321  0.2193 -0.1340
 4073ntf    fn422215   0.174   2.956   6.319 -0.4799 -0.0088  0.3328
 4074ntf    cn122216   0.300   2.202   1.522  0.6965  0.3852  0.0864
 4074ntf    sn222217   0.463   2.136   1.567  0.5789  0.0604  0.0361
 4074ntf    nn322218   0.517   2.081   1.430 -0.4127  0.1724 -0.4074
 4074ntf    sn222219   0.525   1.927   1.400  0.1488  0.0785  0.2094
 4074ntf    cn122220   0.666   1.878   1.504  0.1762  0.0701  0.1684
 4074ntf    fn422221   0.308   2.277   1.413  0.0974  0.2682 -0.0387
 4074ntf    fn422222   0.203   2.113   1.515  0.8230  0.2357  0.2302
 4074ntf    fn422223   0.248   2.282   1.613  0.0389  0.1883 -0.1129
 4074ntf    on522224   0.522   2.262   1.605 -0.1388  0.5125 -0.3239
 4074ntf    on522225   0.431   2.042   1.671 -0.5112 -0.0610 -0.3956
 4074ntf    on522226   0.577   1.900   1.268  0.1364  0.5220  0.1115
 4074ntf    on522227   0.412   1.848   1.442  0.2119  0.0067  0.2446
 4074ntf    fn422228   0.688   1.943   1.618  0.3637  0.1496  0.0873
 4074ntf    fn422229   0.650   1.753   1.545 -0.1099  0.1213  0.2177
 4074ntf    fn422230   0.784   1.875   1.445  0.3610  0.0543  0.5323
 4075ntf    cn122231   5.589   0.956   3.242  0.0667  0.2509 -0.6450
 4075ntf    sn222232   5.559   1.074   3.377  0.0858 -0.0362 -0.3880
 4075ntf    nn322233   5.546   0.982   3.503 -0.2483  0.0090 -0.3894
 4075ntf    sn222234   5.468   0.847   3.524 -0.2218  0.0835  0.2261
 4075ntf    cn122235   5.409   0.860   3.695  0.0345 -0.3079  0.3458
 4075ntf    fn422236   5.616   1.014   3.126 -0.7071  0.5382 -0.6862
 4075ntf    fn422237   5.689   0.875   3.275 -0.2448  0.1925  0.1758
 4075ntf    fn422238   5.489   0.870   3.228 -0.3678  0.5104  0.7020
 4075ntf    on522239   5.675   1.159   3.377  0.7189 -0.8814  0.3956
 4075ntf    on522240   5.439   1.144   3.339 -0.3485 -0.5513  0.0219
 4075ntf    on522241   5.561   0.737   3.526  0.0184  0.2676 -0.5118
 4075ntf    on522242   5.354   0.837   3.436  0.0563  0.0200 -0.1326
 4075ntf    fn422243   5.491   0.826   3.793  0.4342  0.3190  0.2314
 4075ntf    fn422244   5.372   0.984   3.724 -0.6206 -0.4483  0.1371
 4075ntf    fn422245   5.308   0.777   3.717 -0.4895  0.1239 -0.3712
 4076ntf    cn122246   2.271   6.303   1.660  0.0642  0.1630 -0.0766
 4076ntf    sn222247   2.224   6.274   1.487 -0.2349 -0.0847  0.0452
 4076ntf    nn322248   2.366   6.245   1.428 -0.1031 -0.4066  0.5185
 4076ntf    sn222249   2.422   6.133   1.333 -0.4784 -0.0994 -0.0659
 4076ntf    cn122250   2.491   6.027   1.463 -0.1504  0.4960  0.2461
 4076ntf    fn422251   2.160   6.314   1.732  0.1583  0.4674  0.0224
 4076ntf    fn422252   2.346   6.209   1.716 -0.0412  0.2802  0.2663
 4076ntf    fn422253   2.343   6.412   1.680 -0.3546  0.5119 -0.4636
 4076ntf    on522254   2.130   6.167   1.509  0.1754 -0.5781 -0.5895
 4076ntf    on522255   2.169   6.404   1.456 -0.2170 -0.3188 -0.9782
 4076ntf    on522256   2.539   6.164   1.255 -0.4816 -0.2287 -0.1223
 4076ntf    on522257   2.319   6.052   1.272 -0.5851  0.1442 -0.2121
 4076ntf    fn422258   2.527   5.906   1.424 -0.2013  0.4637  0.2990
 4076ntf    fn422259   2.594   6.080   1.528  0.1069  0.0198  0.2318
 4076ntf    fn422260   2.399   6.009   1.557 -0.3111  0.3036  0.0508
 4077ntf    cn122261   4.286   3.777   5.629 -0.0411 -0.1994  0.1828
 4077ntf    sn222262   4.370   3.904   5.728 -0.0847 -0.0577  0.0390
 4077ntf    nn322263   4.522   3.873   5.703 -0.1827 -0.2779 -0.2816
 4077ntf    sn222264   4.626   3.814   5.805 -0.1664  0.1324 -0.0590
 4077ntf    cn122265   4.671   3.971   5.885  0.4754 -0.0479 -0.0657
 4077ntf    fn422266   4.155   3.789   5.637 -0.0716  0.0941 -0.6466
 4077ntf    fn422267   4.311   3.793   5.500  0.8907 -0.2012  0.3537
 4077ntf    fn422268   4.332   3.655   5.655  0.2726 -0.0980  0.1189
 4077ntf    on522269   4.327   4.032   5.679 -0.4081 -0.0452  0.3500
 4077ntf    on522270   4.325   3.875   5.862 -0.1725 -0.6293 -0.1116
 4077ntf    on522271   4.751   3.780   5.742 -0.2438 -0.6231  0.1734
 4077ntf    on522272   4.590   3.717   5.906  0.1471 -0.1849 -0.2505
 4077ntf    fn422273   4.555   4.025   5.918  0.2534 -0.2024 -0.5760
 4077ntf    fn422274   4.741   3.959   5.996  0.1568  0.2274  0.1657
 4077ntf    fn422275   4.730   4.066   5.813 -0.0731  0.1302 -0.2831
 4078ntf    cn122276   0.884   6.112   1.918 -0.1060 -0.5363 -0.2111
 4078ntf    sn222277   0.753   6.039   2.020  0.1253  0.0478  0.5104
 4078ntf    nn322278   0.688   5.934   1.922  0.3027  0.4292 -0.0209
 4078ntf    sn222279   0.575   5.950   1.814  0.2229  0.0990  0.0124
 4078ntf    cn122280   0.440   5.875   1.909  0.2616 -0.1497 -0.1305
 4078ntf    fn422281   0.965   6.185   1.993 -0.1402 -0.3570 -0.3467
 4078ntf    fn422282   0.966   6.028   1.855 -0.1870 -0.3581 -0.5578
 4078ntf    fn422283   0.840   6.196   1.825 -0.1329  0.0036  0.2841
 4078ntf    on522284   0.819   5.967   2.125  0.2988 -0.7651 -0.1445
 4078ntf    on522285   0.666   6.149   2.054 -0.0357  0.0206  0.1921
 4078ntf    on522286   0.593   5.858   1.705 -0.5313 -0.1742  0.1142
 4078ntf    on522287   0.532   6.085   1.787  0.0108  0.1221  0.4637
 4078ntf    fn422288   0.340   5.859   1.824  0.0377  0.2038  0.0687
 4078ntf    fn422289   0.474   5.755   1.955  0.5081  0.0480  0.2061
 4078ntf    fn422290   0.402   5.944   2.015  0.7295 -0.4398  0.2288
 4079ntf    cn122291   2.374   3.438   1.514 -0.3218 -0.0342  0.2366
 4079ntf    sn222292   2.397   3.362   1.351  0.3347  0.1287  0.2507
 4079ntf    nn322293   2.402   3.211   1.392 -0.0429 -0.0473 -0.3289
 4079ntf    sn222294   2.291   3.100   1.401 -0.0034 -0.0546  0.1130
 4079ntf    cn122295   2.278   3.043   1.229  0.0366  0.1883  0.0276
 4079ntf    fn422296   2.401   3.357   1.615  0.1685 -0.3430 -0.1343
 4079ntf    fn422297   2.442   3.551   1.529 -0.0224 -0.1723 -0.0493
 4079ntf    fn422298   2.246   3.464   1.535 -0.3739 -0.0931 -0.0094
 4079ntf    on522299   2.281   3.396   1.272  0.4147  0.0343  0.0910
 4079ntf    on522300   2.525   3.404   1.298  0.2731 -0.0898 -0.0764
 4079ntf    on522301   2.158   3.148   1.429  0.0403 -0.0677  0.3401
 4079ntf    on522302   2.348   2.991   1.475  0.5201  0.1977  0.0884
 4079ntf    fn422303   2.174   2.961   1.221 -0.1094  0.3770 -0.0037
 4079ntf    fn422304   2.249   3.141   1.145 -0.1382  0.0617 -0.0617
 4079ntf    fn422305   2.385   2.979   1.183 -0.2294  0.0865 -0.4588
 4080ntf    cn122306   6.853   6.608   2.802 -0.1173  0.0557  0.1772
 4080ntf    sn222307   6.839   6.492   2.663  0.1430  0.1966  0.0323
 4080ntf    nn322308   6.947   6.558   2.570  0.3083  0.5125  0.4500
 4080ntf    sn222309   7.093   6.505   2.548  0.1125  0.1725 -0.0379
 4080ntf    cn122310   7.072   6.393   2.406  0.0305 -0.0494  0.1493
 4080ntf    fn422311   6.758   6.593   2.892  0.0888  0.3107  0.4394
 4080ntf    fn422312   6.963   6.582   2.871  0.1951 -0.0697 -0.3559
 4080ntf    fn422313   6.868   6.733   2.761  0.0490 -0.1138 -0.2877
 4080ntf    on522314   6.877   6.360   2.708  0.1102  0.2971  0.3515
 4080ntf    on522315   6.704   6.522   2.620 -0.0009 -0.4225  0.0322
 4080ntf    on522316   7.158   6.431   2.653  0.0077  0.4655  0.2367
 4080ntf    on522317   7.169   6.615   2.492  0.4362 -0.0445 -0.0243
 4080ntf    fn422318   6.975   6.303   2.413 -0.0990  0.0335 -0.5760
 4080ntf    fn422319   7.045   6.463   2.297  0.1217 -0.7796 -0.3437
 4080ntf    fn422320   7.181   6.322   2.382 -0.0984  0.0176 -0.6454
 4081ntf    cn122321   4.998   1.935   5.984 -0.0679 -0.2151 -0.0388
 4081ntf    sn222322   5.012   1.790   6.092  0.2348 -0.1200  0.0497
 4081ntf    nn322323   4.877   1.796   6.170  0.0049 -0.1939 -0.3403
 4081ntf    sn222324   4.863   1.736   6.315  0.0706  0.0675 -0.2262
 4081ntf    cn122325   4.881   1.890   6.410  0.1726 -0.0609 -0.0358
 4081ntf    fn422326   4.881   1.941   5.922 -0.2023  0.0018  0.2343
 4081ntf    fn422327   5.020   2.051   6.043 -0.1319 -0.0932 -0.2535
 4081ntf    fn422328   5.083   1.935   5.882 -0.3570  0.0947 -0.2824
 4081ntf    on522329   5.027   1.677   6.002  0.5061  0.3319 -0.4802
 4081ntf    on522330   5.124   1.837   6.170  0.0835  0.9288 -0.3547
 4081ntf    on522331   4.971   1.650   6.357 -0.0655  0.0878  0.1701
 4081ntf    on522332   4.730   1.690   6.346  0.1142  0.0312 -0.0931
 4081ntf    fn422333   4.793   1.986   6.385  0.2584  0.0499  0.0858
 4081ntf    fn422334   4.884   1.870   6.540  0.6815  0.0922 -0.0192
 4081ntf    fn422335   4.991   1.959   6.379 -0.2682  0.7126  0.0933
 4082ntf    cn122336   6.761   3.462   5.705 -0.4494  0.4237 -0.2677
 4082ntf    sn222337   6.912   3.379   5.647 -0.5095  0.1953 -0.0960
 4082ntf    nn322338   6.992   3.499   5.587  0.3016 -0.1675  0.2470
 4082ntf    sn222339   7.002   3.563   5.444 -0.0129  0.3067  0.4334
 4082ntf    cn122340   7.026   3.729   5.514 -0.3619  0.4989  0.1010
 4082ntf    fn422341   6.670   3.382   5.760 -0.3099  0.2549 -0.2785
 4082ntf    fn422342   6.793   3.549   5.799 -0.3843  0.1213 -0.0042
 4082ntf    fn422343   6.700   3.537   5.615 -0.3929  0.1289 -0.5550
 4082ntf    on522344   6.973   3.333   5.770 -0.1775  0.3403 -0.2081
 4082ntf    on522345   6.869   3.282   5.549 -0.4736  0.3824 -0.2969
 4082ntf    on522346   6.883   3.570   5.363  0.1245 -0.4072  0.1662
 4082ntf    on522347   7.132   3.534   5.389 -0.1266  0.4804  0.0677
 4082ntf    fn422348   6.915   3.776   5.571 -0.3898  0.2997  0.2149
 4082ntf    fn422349   7.116   3.731   5.611 -0.2051 -0.0114 -0.0292
 4082ntf    fn422350   7.069   3.811   5.421  0.4429 -0.4187 -0.3483
 4083ntf    cn122351   2.292   0.449   0.394 -0.5813  0.1183  0.1120
 4083ntf    sn222352   2.449   0.440   0.303 -0.6840 -0.3758 -0.0177
 4083ntf    nn322353   2.399   0.386   0.164  0.7885  0.3146 -0.8432
 4083ntf    sn222354   2.420   0.242   0.105 -0.1284 -0.2364  0.1433
 4083ntf    cn122355   2.588   0.262   0.040 -0.2950 -0.3365 -0.3174
 4083ntf    fn422356   2.189   0.443   0.312  0.2109 -0.2260 -0.8789
 4083ntf    fn422357   2.271   0.359   0.489 -0.4460  0.3390  0.3532
 4083ntf    fn422358   2.287   0.569   0.450 -0.3543  0.2768 -0.2032
 4083ntf    on522359   2.493   0.577   0.294 -0.2501 -0.5110  0.0053
 4083ntf    on522360   2.537   0.351   0.374  0.1917  0.2081 -0.3575
 4083ntf    on522361   2.335   0.224  -0.010  0.6008  0.1781 -0.4652
 4083ntf    on522362   2.423   0.126   0.192 -0.3524 -0.2478  0.1355
 4083ntf    fn422363   2.677   0.286   0.135 -0.4932 -0.4072 -0.1127
 4083ntf    fn422364   2.620   0.151  -0.026 -0.1670 -0.5796  0.1509
 4083ntf    fn422365   2.584   0.364  -0.044  0.0989  0.2055  0.3147
 4084ntf    cn122366   1.498   2.090   0.013 -0.1793 -0.0307 -0.2276
 4084ntf    sn222367   1.655   2.024  -0.051 -0.1486 -0.2492  0.0698
 4084ntf    nn322368   1.683   2.149  -0.142  0.3019 -0.4380 -0.0534
 4084ntf    sn222369   1.660   2.168  -0.296  0.3341  0.0382 -0.0023
 4084ntf    cn122370   1.823   2.129  -0.368  0.2172 -0.1647 -0.1613
 4084ntf    fn422371   1.424   2.139  -0.085 -0.3238  0.2299  0.0114
 4084ntf    fn422372   1.416   2.000   0.064  0.1492  0.1269  0.5842
 4084ntf    fn422373   1.518   2.183   0.104 -0.2457  0.2047 -0.4533
 4084ntf    on522374   1.745   2.029   0.062  0.0615  0.0468 -0.1070
 4084ntf    on522375   1.631   1.901  -0.122  0.1023 -0.2621  0.0044
 4084ntf    on522376   1.648   2.307  -0.330  0.2675  0.3021  1.0802
 4084ntf    on522377   1.574   2.077  -0.368  0.4490  0.0889 -0.2053
 4084ntf    fn422378   1.855   2.008  -0.327 -0.6244 -0.3446 -0.0002
 4084ntf    fn422379   1.821   2.131  -0.500  0.2447 -0.1139 -0.1613
 4084ntf    fn422380   1.915   2.211  -0.318  0.2238 -0.1554 -0.1892
 4085ntf    cn122381   7.099   6.735   1.624 -0.1103 -0.1185  0.1045
 4085ntf    sn222382   7.249   6.703   1.527 -0.2115 -0.1856 -0.0308
 4085ntf    nn322383   7.243   6.548   1.503  0.2738 -0.1489 -0.3995
 4085ntf    sn222384   7.312   6.419   1.559  0.1819  0.0639  0.2135
 4085ntf    cn122385   7.162   6.361   1.644  0.2032 -0.0418  0.1803
 4085ntf    fn422386   7.105   6.698   1.751 -0.5718 -0.6685 -0.0256
 4085ntf    fn422387   7.070   6.864   1.632  0.3837 -0.0254  0.4263
 4085ntf    fn422388   6.986   6.681   1.580  0.1863 -0.4692 -0.2329
 4085ntf    on522389   7.231   6.783   1.408 -0.2380 -0.3031 -0.1063
 4085ntf    on522390   7.351   6.748   1.618  0.1094 -0.2312 -0.3628
 4085ntf    on522391   7.406   6.433   1.667  0.2108  0.2550  0.1626
 4085ntf    on522392   7.348   6.325   1.455  0.1288  0.3063 -0.0245
 4085ntf    fn422393   7.080   6.291   1.568  0.1097  0.4157 -0.1473
 4085ntf    fn422394   7.193   6.278   1.742 -0.1482 -0.5874 -0.1671
 4085ntf    fn422395   7.089   6.463   1.688  0.4950  0.4009 -0.3488
 4086ntf    cn122396   3.643   2.739   4.778 -0.2409  0.2961 -0.0901
 4086ntf    sn222397   3.743   2.879   4.718  0.1257  0.3571  0.6460
 4086ntf    nn322398   3.851   2.799   4.638 -0.2688  0.1256  0.3389
 4086ntf    sn222399   3.921   2.833   4.501 -0.2259  0.2343  0.3880
 4086ntf    cn122400   3.912   2.664   4.435  0.0121  0.2389  0.3418
 4086ntf    fn422401   3.520   2.763   4.819 -0.3582  0.2622 -0.4186
 4086ntf    fn422402   3.625   2.648   4.683 -0.4447 -0.0933  0.3195
 4086ntf    fn422403   3.708   2.678   4.876 -0.6172 -0.0876 -0.0786
 4086ntf    on522404   3.639   2.941   4.639  0.2778 -0.6848 -0.4062
 4086ntf    on522405   3.796   2.937   4.839  0.1566  0.0342  0.7902
 4086ntf    on522406   4.063   2.859   4.499 -0.1105 -0.3876  0.1788
 4086ntf    on522407   3.839   2.898   4.403 -0.2338  0.2159  0.3822
 4086ntf    fn422408   3.972   2.660   4.317  0.0360 -0.3617  0.3700
 4086ntf    fn422409   3.972   2.577   4.515  0.0924 -0.1496 -0.1337
 4086ntf    fn422410   3.787   2.625   4.413  0.1148 -0.2365  0.5724
 4087ntf    cn122411   3.383   5.103   4.826  0.6176 -0.0826 -0.5612
 4087ntf    sn222412   3.296   5.124   4.668 -0.2616 -0.0919 -0.0842
 4087ntf    nn322413   3.285   4.971   4.637  0.2587 -0.1892  0.1944
 4087ntf    sn222414   3.177   4.896   4.551  0.2109  0.0441  0.0511
 4087ntf    cn122415   3.077   4.831   4.688  0.6095 -0.3161  0.1767
 4087ntf    fn422416   3.312   5.026   4.907  0.1919  0.5731 -0.2947
 4087ntf    fn422417   3.500   5.041   4.818  0.6540 -0.0985 -0.0081
 4087ntf    fn422418   3.412   5.217   4.888  0.0425 -0.3004  0.1204
 4087ntf    on522419   3.181   5.198   4.714 -0.1273 -0.2416  0.5066
 4087ntf    on522420   3.390   5.189   4.580  0.5637 -1.4885 -0.2757
 4087ntf    on522421   3.243   4.778   4.498  0.6382  0.3333 -0.0665
 4087ntf    on522422   3.102   4.980   4.462 -0.5632 -0.7364 -0.0442
 4087ntf    fn422423   2.983   4.748   4.646  0.1471  0.3774 -0.1937
 4087ntf    fn422424   3.157   4.769   4.773 -0.0178 -0.8786  0.3659
 4087ntf    fn422425   3.021   4.927   4.760  0.1233 -0.2398 -0.2945
 4088ntf    cn122426   6.489   0.522   3.787  0.2108  0.1130 -0.6645
 4088ntf    sn222427   6.411   0.524   3.951  0.2672  0.0862 -0.6373
 4088ntf    nn322428   6.540   0.493   4.035 -0.1706  0.2866  0.1188
 4088ntf    sn222429   6.581   0.351   4.091 -0.2323  0.1600 -0.1568
 4088ntf    cn122430   6.749   0.405   4.134 -0.3765  0.2062  0.3467
 4088ntf    fn422431   6.412   0.562   3.687 -0.3153  0.1970 -0.2319
 4088ntf    fn422432   6.593   0.603   3.778  0.2711  0.0883 -0.2057
 4088ntf    fn422433   6.531   0.402   3.753 -0.0181 -0.4254  0.8781
 4088ntf    on522434   6.358   0.657   3.960  0.6504  0.1871  0.1618
 4088ntf    on522435   6.315   0.416   3.943 -0.2888  0.5033  0.1908
 4088ntf    on522436   6.596   0.251   3.988 -0.6058  0.3455 -0.3971
 4088ntf    on522437   6.520   0.315   4.216  0.0344  0.0929 -0.0482
 4088ntf    fn422438   6.749   0.492   4.234 -0.0197  0.6967 -0.0784
 4088ntf    fn422439   6.821   0.301   4.174 -0.0648  0.3749  0.2216
 4088ntf    fn422440   6.818   0.467   4.040 -0.1756 -0.2687  0.1767
 4089ntf    cn122441   4.975   2.797   5.390  0.4413  0.0996  0.0061
 4089ntf    sn222442   4.938   2.717   5.548  0.1309 -0.1258 -0.1814
 4089ntf    nn322443   5.034   2.593   5.546  0.3229  0.0175  0.0880
 4089ntf    sn222444   5.013   2.459   5.626  0.0759 -0.0814 -0.1419
 4089ntf    cn122445   5.170   2.446   5.716  0.0982  0.3359 -0.1156
 4089ntf    fn422446   4.953   2.729   5.278  0.8347 -0.4840  0.2808
 4089ntf    fn422447   4.899   2.905   5.382  0.0240 -0.1352  0.7363
 4089ntf    fn422448   5.104   2.826   5.380  0.4635  0.0322  0.1039
 4089ntf    on522449   4.983   2.817   5.641 -0.2391 -0.0037 -0.1305
 4089ntf    on522450   4.796   2.697   5.530  0.0399  0.2990  0.0448
 4089ntf    on522451   5.007   2.343   5.540 -0.2219 -0.0639 -0.1473
 4089ntf    on522452   4.910   2.467   5.727  0.3229  0.0047  0.1010
 4089ntf    fn422453   5.168   2.336   5.791 -0.1647 -0.0717 -0.7133
 4089ntf    fn422454   5.275   2.432   5.637  0.0290  0.4183 -0.2217
 4089ntf    fn422455   5.187   2.551   5.794  0.5307  0.1024  0.1111
 4090ntf    cn122456   0.969   3.831   5.904  0.0321 -0.1080 -0.2800
 4090ntf    sn222457   0.906   3.762   6.060 -0.0325 -0.2758 -0.3812
 4090ntf    nn322458   0.906   3.887   6.154 -0.3293 -0.2551 -0.4081
 4090ntf    sn222459   0.799   4.002   6.157 -0.0423  0.0045  0.0342
 4090ntf    cn122460   0.810   4.053   6.331  0.0739 -0.3038  0.1168
 4090ntf    fn422461   1.082   3.900   5.914  0.0649 -0.1709 -0.2122
 4090ntf    fn422462   0.996   3.734   5.819  0.3369 -0.2025 -0.0796
 4090ntf    fn422463   0.878   3.908   5.847 -0.0210  0.0526  0.0181
 4090ntf    on522464   0.773   3.719   6.026 -0.3103  0.1586  0.1398
 4090ntf    on522465   1.003   3.658   6.088  0.5492  0.2130 -0.5634
 4090ntf    on522466   0.660   3.969   6.136 -0.1075  0.0344  0.4190
 4090ntf    on522467   0.850   4.119   6.089 -0.4425  0.0553 -0.1801
 4090ntf    fn422468   0.927   4.104   6.368  0.1835 -0.5026  0.0493
 4090ntf    fn422469   0.718   4.143   6.362 -0.0288 -0.1881 -0.5080
 4090ntf    fn422470   0.788   3.949   6.410 -0.3520 -0.4641 -0.2069
 4091ntf    cn122471   6.591   6.302   2.969 -0.0555 -0.1505 -0.1104
 4091ntf    sn222472   6.644   6.256   3.137 -0.1399  0.2898  0.0385
 4091ntf    nn322473   6.606   6.104   3.134 -0.3897  0.3377  0.5763
 4091ntf    sn222474   6.465   6.043   3.168 -0.2969  0.0142  0.3910
 4091ntf    cn122475   6.465   5.884   3.082 -0.5750  0.3241 -0.1815
 4091ntf    fn422476   6.644   6.234   2.869  0.3708  0.1875 -0.1190
 4091ntf    fn422477   6.460   6.289   2.952 -0.1775  0.4672  0.3134
 4091ntf    fn422478   6.603   6.431   2.942  0.4700 -0.2047 -0.1457
 4091ntf    on522479   6.786   6.277   3.138 -0.1572  0.4460 -0.5251
 4091ntf    on522480   6.562   6.333   3.228  0.2312  0.6707  0.0539
 4091ntf    on522481   6.352   6.116   3.117  0.5677  0.2885 -1.2045
 4091ntf    on522482   6.468   6.004   3.307  0.8415 -0.2142  0.3125
 4091ntf    fn422483   6.346   5.825   3.078 -0.4255  0.0065  0.0392
 4091ntf    fn422484   6.501   5.899   2.955 -0.1624  0.1520 -0.0860
 4091ntf    fn422485   6.547   5.794   3.134 -0.3884  0.6384  0.0632
 4092ntf    cn122486   3.203   1.143   5.607 -0.2436  0.0370 -0.0400
 4092ntf    sn222487   3.360   1.052   5.601 -0.2219  0.0723 -0.0035
 4092ntf    nn322488   3.447   1.132   5.705 -0.0121  0.0726 -0.1786
 4092ntf    sn222489   3.577   1.215   5.676  0.0962 -0.0506 -0.0486
 4092ntf    cn122490   3.610   1.289   5.838 -0.5024 -0.2466  0.1669
 4092ntf    fn422491   3.115   1.108   5.514  0.0157  0.0318 -0.2835
 4092ntf    fn422492   3.142   1.147   5.724 -0.2697 -0.1508 -0.0468
 4092ntf    fn422493   3.231   1.270   5.582 -0.2971  0.0253 -0.1645
 4092ntf    on522494   3.337   0.922   5.658 -0.2340 -0.0136 -0.2053
 4092ntf    on522495   3.401   1.058   5.463 -0.2169  0.4322  0.0116
 4092ntf    on522496   3.559   1.329   5.589  0.7796  0.0783 -0.0265
 4092ntf    on522497   3.699   1.143   5.650  0.0960 -0.0033 -0.1853
 4092ntf    fn422498   3.501   1.345   5.887 -0.2069  0.6262 -0.1653
 4092ntf    fn422499   3.647   1.198   5.927 -0.0363 -0.3334 -0.1151
 4092ntf    fn422500   3.703   1.383   5.836 -0.2581 -0.4869  0.1697
 4093ntf    cn122501   7.128   2.398   0.687 -0.1017  0.1169 -0.0438
 4093ntf    sn222502   7.255   2.479   0.586  0.1187  0.1820  0.2864
 4093ntf    nn322503   7.167   2.579   0.503  0.0677  0.0956  0.2367
 4093ntf    sn222504   7.104   2.568   0.359  0.1743  0.0225  0.1952
 4093ntf    cn122505   6.931   2.534   0.404  0.0676  0.2655 -0.0340
 4093ntf    fn422506   7.169   2.341   0.799  0.4897  0.6907  0.0364
 4093ntf    fn422507   7.045   2.498   0.710 -0.0496  0.2456 -0.4144
 4093ntf    fn422508   7.061   2.307   0.617  0.0381  0.0316 -0.0670
 4093ntf    on522509   7.335   2.550   0.683 -0.1024 -0.0174  0.6166
 4093ntf    on522510   7.320   2.377   0.508  0.0009  0.0629  0.3448
 4093ntf    on522511   7.144   2.453   0.282 -0.0748 -0.1222  0.2816
 4093ntf    on522512   7.100   2.696   0.293  0.4285 -0.1166 -0.0928
 4093ntf    fn422513   6.901   2.604   0.512  1.1732  0.0031  0.4629
 4093ntf    fn422514   6.851   2.572   0.305 -0.0650 -0.0979 -0.0681
 4093ntf    fn422515   6.905   2.407   0.429 -0.9171  0.4360 -0.1557
 4094ntf    cn122516   3.704   0.628   0.867  0.0023  0.4316 -0.0733
 4094ntf    sn222517   3.546   0.651   0.780 -0.0543 -0.2982 -0.1691
 4094ntf    nn322518   3.470   0.734   0.890  0.2721 -0.0661 -0.1180
 4094ntf    sn222519   3.429   0.885   0.890 -0.0339 -0.1490 -0.2236
 4094ntf    cn122520   3.492   0.955   1.045 -0.5770 -0.6271  0.2179
 4094ntf    fn422521   3.750   0.734   0.932 -0.2424  0.4646  0.0490
 4094ntf    fn422522   3.702   0.531   0.957  0.0202  0.3017 -0.2128
 4094ntf    fn422523   3.809   0.598   0.792  0.1566 -0.5378  0.5079
 4094ntf    on522524   3.570   0.723   0.657  0.7156  0.2865  0.3148
 4094ntf    on522525   3.489   0.519   0.765  0.3220 -0.4226 -0.5195
 4094ntf    on522526   3.286   0.906   0.900  0.0191  0.0424  0.1632
 4094ntf    on522527   3.499   0.964   0.792 -0.4272  0.8010  0.2461
 4094ntf    fn422528   3.624   0.949   1.039 -0.5827 -0.3998 -0.1122
 4094ntf    fn422529   3.465   1.084   1.050  0.1286 -0.4584 -0.2057
 4094ntf    fn422530   3.461   0.889   1.156 -0.3158 -0.0163  0.6613
 4095ntf    cn122531   6.423   1.762   1.329  0.2853  0.2385  0.0801
 4095ntf    sn222532   6.380   1.839   1.488  0.0727 -0.0932  0.1851
 4095ntf    nn322533   6.226   1.811   1.490  0.2048 -0.8235  0.2289
 4095ntf    sn222534   6.138   1.727   1.590 -0.0923 -0.4628  0.2729
 4095ntf    cn122535   6.026   1.862   1.637  0.0945 -0.2613  0.1420
 4095ntf    fn422536   6.375   1.640   1.309  0.2039  0.2407  0.2644
 4095ntf    fn422537   6.376   1.833   1.227 -0.0908  0.5575  0.4740
 4095ntf    fn422538   6.554   1.747   1.316  0.2489 -0.3547  0.3980
 4095ntf    on522539   6.463   1.762   1.577  0.1654  0.1361  0.2996
 4095ntf    on522540   6.415   1.978   1.467  0.5194 -0.2710 -0.2576
 4095ntf    on522541   6.201   1.690   1.714  0.0769 -0.0669  0.3079
 4095ntf    on522542   6.066   1.626   1.517 -0.2482  0.2334 -0.5499
 4095ntf    fn422543   5.958   1.912   1.534  0.1804 -0.2463  0.0924
 4095ntf    fn422544   5.939   1.828   1.731  0.0341  0.1877  0.2499
 4095ntf    fn422545   6.106   1.957   1.682  0.0639 -0.0407 -0.2623
 4096ntf    cn122546   5.192   6.077   6.430  0.0923 -0.1206  0.1796
 4096ntf    sn222547   5.021   6.023   6.459 -0.0227  0.1327 -0.0297
 4096ntf    nn322548   5.030   5.867   6.446 -0.1205  0.1448 -0.2594
 4096ntf    sn222549   4.919   5.772   6.389  0.3311 -0.3073 -0.3892
 4096ntf    cn122550   4.981   5.755   6.219  0.1293 -0.2508 -0.4697
 4096ntf    fn422551   5.266   6.024   6.527 -0.7179 -0.8297  0.4232
 4096ntf    fn422552   5.246   6.030   6.319 -0.3898 -0.1350 -0.0498
 4096ntf    fn422553   5.209   6.208   6.436  0.2311 -0.0998 -0.5683
 4096ntf    on522554   4.986   6.053   6.595  0.3694 -0.1964  0.1427
 4096ntf    on522555   4.949   6.103   6.362 -0.0431 -0.0053 -0.1290
 4096ntf    on522556   4.789   5.833   6.375  0.5059  0.2835  0.5301
 4096ntf    on522557   4.936   5.641   6.448  0.5391 -0.0140  0.2141
 4096ntf    fn422558   5.108   5.716   6.219  0.0955 -0.3710  0.3541
 4096ntf    fn422559   4.917   5.660   6.153 -0.3216 -0.5266  0.3485
 4096ntf    fn422560   4.972   5.864   6.145 -0.6061 -0.0283 -0.0611
 4097ntf    cn122561   1.487   0.135   0.965  0.1314 -0.0861  0.0381
 4097ntf    sn222562   1.341   0.046   1.027  0.2013 -0.2494 -0.0301
 4097ntf    nn322563   1.238   0.165   1.029  0.4727 -0.0129 -0.0468
 4097ntf    sn222564   1.217   0.264   1.149  0.0510 -0.1829  0.0199
 4097ntf    cn122565   1.055   0.227   1.224  0.1069 -0.4513  0.0106
 4097ntf    fn422566   1.466   0.189   0.846  0.3771  0.4610  0.2414
 4097ntf    fn422567   1.511   0.238   1.044 -0.2410  0.0632 -0.0377
 4097ntf    fn422568   1.595   0.059   0.966  0.1246 -0.0979 -0.1017
 4097ntf    on522569   1.301  -0.046   0.924  0.1461 -0.2782  0.0165
 4097ntf    on522570   1.377  -0.008   1.156  0.0048 -0.3777 -0.0293
 4097ntf    on522571   1.200   0.402   1.112 -0.0406 -0.3662 -0.6337
 4097ntf    on522572   1.295   0.236   1.267 -0.4047  0.0310  0.3771
 4097ntf    fn422573   1.019   0.314   1.318 -0.3696 -0.2231 -0.3825
 4097ntf    fn422574   0.959   0.235   1.134  0.1776 -0.2858 -0.0508
 4097ntf    fn422575   1.042   0.112   1.288 -0.1418 -0.4851 -0.1010
 4098ntf    cn122576   4.173   1.639   0.723  0.0630 -0.4419  0.3193
 4098ntf    sn222577   4.021   1.545   0.757 -0.3334  0.0350 -0.1063
 4098ntf    nn322578   3.975   1.518   0.609  0.2322  0.0307 -0.2819
 4098ntf    sn222579   3.918   1.621   0.506 -0.0257  0.0200 -0.1492
 4098ntf    cn122580   3.742   1.577   0.495 -0.0888  0.2485 -0.0713
 4098ntf    fn422581   4.251   1.652   0.828  0.1462 -0.1118  0.2187
 4098ntf    fn422582   4.251   1.577   0.636 -0.1144 -0.4595  0.1715
 4098ntf    fn422583   4.151   1.760   0.674 -0.1873 -0.6148 -0.0031
 4098ntf    on522584   4.062   1.420   0.816 -0.2829  0.0435 -0.1232
 4098ntf    on522585   3.933   1.626   0.837 -0.0260 -0.2960  0.5774
 4098ntf    on522586   3.964   1.598   0.371 -0.1960 -0.5301 -0.1162
 4098ntf    on522587   3.917   1.758   0.550  0.4489  0.1546 -0.5507
 4098ntf    fn422588   3.731   1.448   0.464  0.2034  0.3143 -0.4606
 4098ntf    fn422589   3.684   1.585   0.614  0.2237 -0.5046  0.1431
 4098ntf    fn422590   3.663   1.639   0.410  0.0412  0.5304  0.0122
 4099ntf    cn122591   6.351   5.002   4.002  0.0701  0.0121  0.0617
 4099ntf    sn222592   6.482   5.085   4.097  0.0466  0.1420 -0.0179
 4099ntf    nn322593   6.400   5.148   4.215 -0.4700 -0.0139 -0.2910
 4099ntf    sn222594   6.361   5.299   4.230 -0.0761  0.0325  0.2793
 4099ntf    cn122595   6.489   5.352   4.349  0.0027  0.2845  0.0833
 4099ntf    fn422596   6.286   5.090   3.928 -0.2743 -0.2726  0.0282
 4099ntf    fn422597   6.397   4.902   3.930  0.1960  0.2566 -0.2008
 4099ntf    fn422598   6.265   4.952   4.089  0.1489 -0.0317  0.1151
 4099ntf    on522599   6.566   4.980   4.149  0.0472  0.1264 -0.0503
 4099ntf    on522600   6.542   5.178   4.005 -0.1878 -0.0236 -0.3392
 4099ntf    on522601   6.239   5.310   4.305  0.1685 -0.1871  0.7171
 4099ntf    on522602   6.379   5.383   4.114  0.0294 -0.2057  0.1216
 4099ntf    fn422603   6.476   5.288   4.464  0.4949  1.3056  0.7229
 4099ntf    fn422604   6.615   5.345   4.309  0.1816  0.0901  0.6762
 4099ntf    fn422605   6.470   5.481   4.371 -0.1547  0.3039 -0.1639
 4100ntf    cn122606   0.425   0.243   1.249  0.3214 -0.2189  0.1784
 4100ntf    sn222607   0.299   0.128   1.312 -0.1525  0.0506 -0.2691
 4100ntf    nn322608   0.248   0.057   1.181  0.6345  0.7715 -0.9730
 4100ntf    sn222609   0.111   0.081   1.108  0.1075 -0.1976 -0.3170
 4100ntf    cn122610   0.146   0.006   0.946  0.1672  0.0681 -0.4284
 4100ntf    fn422611   0.538   0.188   1.208  0.1424 -0.3318 -0.1637
 4100ntf    fn422612   0.378   0.302   1.140  0.0578 -0.4306  0.1757
 4100ntf    fn422613   0.466   0.328   1.342  0.2561  0.2185 -0.1918
 4100ntf    on522614   0.377   0.039   1.394  0.0087  0.0988 -0.3698
 4100ntf    on522615   0.199   0.210   1.375  0.0117  0.2174 -0.2239
 4100ntf    on522616   0.080   0.217   1.072 -0.7141 -0.1123  0.6832
 4100ntf    on522617  -0.001   0.003   1.155  0.4118 -0.4300  0.0301
 4100ntf    fn422618   0.216  -0.107   0.959 -0.4659 -0.2333  0.4374
 4100ntf    fn422619   0.046  -0.013   0.862 -0.1748 -0.0724  0.0064
 4100ntf    fn422620   0.230   0.091   0.889  0.2053  0.3124 -0.0115
 4101ntf    cn122621   2.690   2.873   5.054 -0.0785  0.2062  0.0608
 4101ntf    sn222622   2.726   2.934   4.887 -0.0606  0.1160  0.0323
 4101ntf    nn322623   2.691   3.085   4.906  0.1808  0.1746  0.0149
 4101ntf    sn222624   2.788   3.203   4.944 -0.1494  0.3602  0.2911
 4101ntf    cn122625   2.823   3.254   4.773 -0.2006  0.5017  0.3225
 4101ntf    fn422626   2.574   2.919   5.098  0.2376 -0.0824  1.2255
 4101ntf    fn422627   2.673   2.742   5.054 -0.2378  0.2267  0.0831
 4101ntf    fn422628   2.790   2.900   5.136  0.0238  0.4230 -0.1327
 4101ntf    on522629   2.864   2.901   4.859 -0.0454 -0.0377  0.2922
 4101ntf    on522630   2.626   2.868   4.806  0.1292 -0.3026  0.1332
 4101ntf    on522631   2.916   3.177   5.006 -0.2532  0.1529  0.4239
 4101ntf    on522632   2.712   3.313   4.998  0.2581  0.7166  0.1443
 4101ntf    fn422633   2.917   3.345   4.765  0.4106 -0.1586 -0.0811
 4101ntf    fn422634   2.854   3.154   4.692  0.0645  0.3529  0.6049
 4101ntf    fn422635   2.711   3.301   4.721  0.1004  0.2053 -0.6088
 4102ntf    cn122636   4.342   3.875   4.922 -0.0654 -0.0057 -0.6055
 4102ntf    sn222637   4.471   4.002   4.906  0.0980 -0.0996 -0.0566
 4102ntf    nn322638   4.525   3.989   5.053 -0.2351  0.1677  0.0916
 4102ntf    sn222639   4.663   3.932   5.101 -0.2586 -0.1084 -0.1649
 4102ntf    cn122640   4.611   3.779   5.185  0.1397 -0.1909 -0.0670
 4102ntf    fn422641   4.395   3.754   4.926  0.0165  0.0374 -0.3633
 4102ntf    fn422642   4.277   3.894   5.036  0.3579 -0.8341 -0.2164
 4102ntf    fn422643   4.256   3.870   4.821 -0.3694 -0.0262 -0.3483
 4102ntf    on522644   4.544   3.949   4.793  0.4041  0.7404 -0.2571
 4102ntf    on522645   4.385   4.117   4.894 -0.0683 -0.2127  0.0232
 4102ntf    on522646   4.722   4.014   5.203  0.0313  0.3323 -0.6850
 4102ntf    on522647   4.757   3.888   5.001  0.0203  0.2944 -0.0816
 4102ntf    fn422648   4.492   3.793   5.240  0.1031 -0.0804 -0.1729
 4102ntf    fn422649   4.590   3.683   5.097  0.2743 -0.1392 -0.1566
 4102ntf    fn422650   4.696   3.735   5.276  0.1563 -0.3139 -0.1422
 4103ntf    cn122651   6.168   2.489   4.613  0.3630 -0.0860  0.1664
 4103ntf    sn222652   6.231   2.436   4.451 -0.1663 -0.0807 -0.0410
 4103ntf    nn322653   6.336   2.324   4.481  0.4131  0.2438 -0.8236
 4103ntf    sn222654   6.334   2.167   4.468  0.0119  0.1325  0.4401
 4103ntf    cn122655   6.320   2.113   4.641  0.2273 -0.1350  0.3745
 4103ntf    fn422656   6.266   2.539   4.687  0.3277 -0.3536  0.3932
 4103ntf    fn422657   6.078   2.584   4.593  0.6547  0.0895 -0.3353
 4103ntf    fn422658   6.110   2.391   4.680 -0.2130  0.1008 -0.0546
 4103ntf    on522659   6.117   2.395   4.371 -0.1079 -0.2103 -0.0575
 4103ntf    on522660   6.297   2.559   4.414 -0.1292 -0.1345 -0.1526
 4103ntf    on522661   6.463   2.120   4.426 -0.2649 -0.5795  0.3697
 4103ntf    on522662   6.216   2.110   4.407  0.2722 -0.0856  0.1410
 4103ntf    fn422663   6.420   2.170   4.707  0.1940  0.6589 -0.2355
 4103ntf    fn422664   6.208   2.153   4.700 -0.2068 -0.2474 -0.3539
 4103ntf    fn422665   6.325   1.984   4.666 -0.4137 -0.2600 -0.1027
 4104ntf    cn122666   0.933   4.486   4.196 -0.0938  0.1317  0.3057
 4104ntf    sn222667   0.908   4.323   4.273 -0.0022 -0.0285 -0.0066
 4104ntf    nn322668   0.754   4.312   4.241 -0.0089  0.3704 -0.1154
 4104ntf    sn222669   0.673   4.205   4.160  0.3827  0.0398 -0.0697
 4104ntf    cn122670   0.698   4.263   3.990 -0.1277 -0.4150 -0.3037
 4104ntf    fn422671   0.890   4.483   4.071  0.3697 -0.3539  0.1558
 4104ntf    fn422672   0.866   4.582   4.259 -0.3940  0.0993  0.0384
 4104ntf    fn422673   1.057   4.531   4.186  0.0279 -0.2718  0.0100
 4104ntf    on522674   0.998   4.233   4.205 -0.0731  0.0068 -0.1479
 4104ntf    on522675   0.933   4.339   4.414 -0.4731  0.2850  0.0475
 4104ntf    on522676   0.530   4.220   4.167  0.3180 -0.4066 -0.3862
 4104ntf    on522677   0.727   4.071   4.153  0.5215  0.1055 -0.2579
 4104ntf    fn422678   0.650   4.180   3.900 -0.2901 -0.0518 -0.5536
 4104ntf    fn422679   0.642   4.380   3.966  0.3714 -0.0262  0.3702
 4104ntf    fn422680   0.829   4.275   3.974 -0.0250 -0.7293  0.2662
 4105ntf    cn122681   5.955   5.416   2.242  0.4434 -0.2906  0.2387
 4105ntf    sn222682   5.843   5.551   2.291  0.3536 -0.2204 -0.1642
 4105ntf    nn322683   5.750   5.568   2.165  0.0386 -0.0137  0.0964
 4105ntf    sn222684   5.596   5.593   2.152 -0.0028 -0.1879  0.2379
 4105ntf    cn122685   5.581   5.685   1.995  0.1386 -0.3655  0.1203
 4105ntf    fn422686   5.903   5.295   2.238  0.2988 -0.2270  0.1678
 4105ntf    fn422687   6.002   5.440   2.121 -0.3484 -0.0962 -0.0384
 4105ntf    fn422688   6.060   5.406   2.322  0.2632  0.2180  0.5498
 4105ntf    on522689   5.782   5.518   2.417  0.8846 -0.2713  0.0839
 4105ntf    on522690   5.930   5.667   2.286  0.2407 -0.1305 -0.0264
 4105ntf    on522691   5.536   5.681   2.249 -0.3538 -0.1610  0.0011
 4105ntf    on522692   5.526   5.470   2.123  0.4716 -0.4042  0.0045
 4105ntf    fn422693   5.612   5.610   1.891 -0.1420 -0.1161 -0.1424
 4105ntf    fn422694   5.454   5.716   1.979  0.0701 -0.7567 -0.1048
 4105ntf    fn422695   5.649   5.798   1.978 -0.3582 -0.0608  0.1496
 4106ntf    cn122696   5.032   3.354   4.136 -0.0894 -0.2080 -0.0685
 4106ntf    sn222697   4.903   3.289   4.026 -0.1984 -0.2333  0.0737
 4106ntf    nn322698   4.991   3.189   3.943  0.1991  0.3620 -0.2282
 4106ntf    sn222699   4.975   3.038   3.901 -0.3677  0.2921  0.2251
 4106ntf    cn122700   5.027   3.054   3.727 -0.1447  0.2708  0.2899
 4106ntf    fn422701   4.977   3.438   4.223 -0.2328 -0.1048 -0.2592
 4106ntf    fn422702   5.078   3.254   4.209 -0.0675 -0.1052  0.0592
 4106ntf    fn422703   5.131   3.412   4.071 -0.1012 -0.2483 -0.1216
 4106ntf    on522704   4.804   3.230   4.113 -0.6693  0.7416  0.2095
 4106ntf    on522705   4.853   3.398   3.947  0.0426  0.0470  0.3098
 4106ntf    on522706   4.842   2.987   3.881  0.0268 -0.1020 -1.5613
 4106ntf    on522707   5.073   2.951   3.960 -0.3101  0.2456  0.0621
 4106ntf    fn422708   5.020   2.936   3.667 -0.2919  0.2325  0.3801
 4106ntf    fn422709   4.953   3.135   3.653  0.1825  0.1103 -0.2126
 4106ntf    fn422710   5.152   3.096   3.728 -0.1947  0.4202  0.2327
 4107ntf    cn122711   5.232   6.977   5.981 -0.1632 -0.1299 -0.1180
 4107ntf    sn222712   5.380   7.032   6.070 -0.1454 -0.0696 -0.1844
 4107ntf    nn322713   5.329   7.139   6.174 -0.4020  0.0485 -0.4333
 4107ntf    sn222714   5.389   7.279   6.210 -0.3164 -0.1687  0.2689
 4107ntf    cn122715   5.450   7.236   6.376  0.2817 -0.5070 -0.0354
 4107ntf    fn422716   5.243   6.866   5.910  0.1078 -0.2567  0.1185
 4107ntf    fn422717   5.135   6.959   6.069  0.1392  0.0286  0.2496
 4107ntf    fn422718   5.178   7.065   5.898 -0.1506 -0.3044 -0.3132
 4107ntf    on522719   5.411   6.908   6.136  0.3553  0.2812  0.2531
 4107ntf    on522720   5.470   7.067   5.963 -0.2971  0.1154 -0.2514
 4107ntf    on522721   5.279   7.370   6.234  0.1123  0.4890 -0.2282
 4107ntf    on522722   5.505   7.323   6.138  0.0297 -0.4351  0.6590
 4107ntf    fn422723   5.547   7.318   6.412  0.0876 -0.1304 -0.3616
 4107ntf    fn422724   5.353   7.247   6.465 -0.2089 -0.1163 -0.6071
 4107ntf    fn422725   5.498   7.113   6.377  0.5533 -0.4078 -0.4937
 4108ntf    cn122726   4.124   4.264   6.545  0.0422 -0.3730 -0.0670
 4108ntf    sn222727   4.299   4.235   6.505  0.1766  0.2214  0.0805
 4108ntf    nn322728   4.301   4.262   6.350 -0.0699  0.2596  0.0832
 4108ntf    sn222729   4.273   4.154   6.239 -0.0677  0.3884 -0.0417
 4108ntf    cn122730   4.241   4.261   6.096  0.0943 -0.1565 -0.4868
 4108ntf    fn422731   4.070   4.367   6.481 -0.2252 -0.1312  0.5363
 4108ntf    fn422732   4.047   4.162   6.509  0.4784 -0.4743 -0.7202
 4108ntf    fn422733   4.103   4.281   6.675  0.0620  0.4083 -0.1628
 4108ntf    on522734   4.372   4.334   6.580  0.5281 -0.0704  0.1267
 4108ntf    on522735   4.316   4.097   6.544 -0.4580  0.0534 -0.2206
 4108ntf    on522736   4.148   4.083   6.252  0.2156 -0.1530 -0.2393
 4108ntf    on522737   4.389   4.075   6.203 -0.1847  0.4726 -0.6035
 4108ntf    fn422738   4.120   4.314   6.088  0.1637  0.0656 -0.1108
 4108ntf    fn422739   4.335   4.354   6.086 -0.3699  0.4264  0.4667
 4108ntf    fn422740   4.248   4.190   5.984 -0.5588 -0.2367 -0.4776
 4109ntf    cn122741   5.290   4.915   1.431  0.0951 -0.2726 -0.1262
 4109ntf    sn222742   5.270   4.978   1.600 -0.2240 -0.1583 -0.2049
 4109ntf    nn322743   5.237   4.844   1.674  0.2114 -0.3123 -0.2829
 4109ntf    sn222744   5.108   4.815   1.760 -0.0039  0.0705 -0.4768
 4109ntf    cn122745   5.057   4.650   1.704  0.0362  0.0158 -0.3538
 4109ntf    fn422746   5.286   5.004   1.333 -0.1059  0.3999  0.4843
 4109ntf    fn422747   5.397   4.840   1.414  0.3309 -0.1203  0.6408
 4109ntf    fn422748   5.191   4.833   1.397  0.0738 -0.2947 -0.0122
 4109ntf    on522749   5.405   5.023   1.624 -0.2918 -0.2098  0.2797
 4109ntf    on522750   5.165   5.076   1.586  0.0163  0.0573 -0.5001
 4109ntf    on522751   4.990   4.894   1.736  0.0632  0.5401  0.6501
 4109ntf    on522752   5.148   4.794   1.897 -0.3647 -0.7479 -0.4971
 4109ntf    fn422753   5.148   4.556   1.723 -0.6765 -0.6249 -0.0794
 4109ntf    fn422754   4.943   4.612   1.758  0.0339  0.0657 -0.3243
 4109ntf    fn422755   5.017   4.644   1.578 -0.1348  0.1319 -0.3056
 4110ntf    cn122756   2.992   1.194   3.165  0.1466  0.3516 -0.1321
 4110ntf    sn222757   3.173   1.202   3.154  0.1658 -0.0042 -0.0884
 4110ntf    nn322758   3.212   1.066   3.221  0.1677 -0.0111 -0.1036
 4110ntf    sn222759   3.307   0.953   3.167  0.0135 -0.3365  0.2953
 4110ntf    cn122760   3.418   0.942   3.310  0.2585 -0.0533  0.1289
 4110ntf    fn422761   2.934   1.281   3.083  0.4620  0.3146 -0.3963
 4110ntf    fn422762   2.943   1.072   3.150 -0.7122  0.5901  0.6401
 4110ntf    fn422763   2.951   1.222   3.287  0.1994 -0.5596  0.1008
 4110ntf    on522764   3.216   1.223   3.018  0.1463  0.6860  0.0073
 4110ntf    on522765   3.204   1.311   3.243  0.0654  0.1353 -0.2226
 4110ntf    on522766   3.392   0.989   3.056 -0.5981  0.0164 -0.0658
 4110ntf    on522767   3.241   0.826   3.154 -0.0546 -0.3200  0.4881
 4110ntf    fn422768   3.353   0.900   3.417 -0.1617 -0.4946 -0.3018
 4110ntf    fn422769   3.513   0.854   3.283  0.2935 -0.0392  0.2069
 4110ntf    fn422770   3.484   1.053   3.339 -0.3680  0.2798  0.2884
 4111ntf    cn122771   0.981   2.987   2.475 -0.6076 -0.1055  0.0508
 4111ntf    sn222772   0.921   2.954   2.643 -0.0359 -0.1651  0.2444
 4111ntf    nn322773   0.768   2.978   2.619  0.0398  0.0407 -0.0331
 4111ntf    sn222774   0.646   2.891   2.664  0.0375  0.1010  0.0766
 4111ntf    cn122775   0.610   2.787   2.520 -0.1974  0.2577  0.0207
 4111ntf    fn422776   0.921   2.903   2.392 -0.5991 -0.0924  0.0315
 4111ntf    fn422777   0.949   3.107   2.429 -0.0602  0.0571  0.0803
 4111ntf    fn422778   1.111   2.969   2.459 -0.5187  0.2149  0.4244
 4111ntf    on522779   0.967   2.821   2.674  0.1469 -0.1550  0.0182
 4111ntf    on522780   0.971   3.057   2.731 -0.3915  0.5485 -0.3839
 4111ntf    on522781   0.527   2.966   2.695  0.3200  0.2467  0.8526
 4111ntf    on522782   0.677   2.785   2.757 -0.0101  0.2971  0.3167
 4111ntf    fn422783   0.714   2.712   2.486 -0.5493 -0.0016 -0.5061
 4111ntf    fn422784   0.496   2.720   2.527 -0.0855 -0.0333 -0.7386
 4111ntf    fn422785   0.598   2.870   2.417 -0.3317  0.5316  0.2569
 4112ntf    cn122786   2.549   5.658   0.575 -0.0753 -0.5507  0.0021
 4112ntf    sn222787   2.644   5.539   0.476 -0.0520 -0.0081 -0.6303
 4112ntf    nn322788   2.572   5.403   0.507  0.2841 -0.0717 -0.1335
 4112ntf    sn222789   2.534   5.279   0.419 -0.0887 -0.1219  0.0964
 4112ntf    cn122790   2.689   5.188   0.440  0.0978  0.2065  0.1485
 4112ntf    fn422791   2.576   5.637   0.703 -0.1824  0.1141  0.1379
 4112ntf    fn422792   2.579   5.784   0.552 -0.2416 -0.3791  0.7080
 4112ntf    fn422793   2.418   5.644   0.570 -0.1221 -0.1603  0.1363
 4112ntf    on522794   2.638   5.586   0.340 -0.0642  0.3372 -0.5098
 4112ntf    on522795   2.771   5.560   0.541 -0.1496  0.1257 -0.4841
 4112ntf    on522796   2.523   5.300   0.277  0.1649 -0.2655  0.0563
 4112ntf    on522797   2.439   5.191   0.484 -0.0433 -0.1004  0.1917
 4112ntf    fn422798   2.722   5.166   0.567 -0.3741 -0.4505  0.1602
 4112ntf    fn422799   2.692   5.071   0.377  0.6329 -0.0891  0.7011
 4112ntf    fn422800   2.789   5.264   0.398  0.2080 -0.1260 -0.1924
 4113ntf    cn122801   6.683   2.917   0.574  0.3826  0.2940 -0.0557
 4113ntf    sn222802   6.568   2.893   0.713  0.0895  0.1694 -0.3183
 4113ntf    nn322803   6.520   2.752   0.665  0.4912 -0.0349 -0.1345
 4113ntf    sn222804   6.375   2.702   0.632  0.4042  0.1700 -0.0656
 4113ntf    cn122805   6.377   2.690   0.451  0.0625 -0.2161 -0.0460
 4113ntf    fn422806   6.728   3.042   0.569  0.1245  0.3750 -0.3496
 4113ntf    fn422807   6.792   2.842   0.577 -0.1464 -0.4867 -0.2655
 4113ntf    fn422808   6.623   2.894   0.459  0.5856 -0.1281 -0.0797
 4113ntf    on522809   6.648   2.885   0.834 -0.7381 -0.5506  0.1906
 4113ntf    on522810   6.478   3.004   0.693 -0.1119  0.0134 -0.2725
 4113ntf    on522811   6.266   2.794   0.653  0.5201  0.1719  0.5403
 4113ntf    on522812   6.357   2.565   0.673 -0.3973  0.3933  0.3552
 4113ntf    fn422813   6.268   2.642   0.393  0.1607 -0.1544 -0.2823
 4113ntf    fn422814   6.404   2.811   0.405  0.2540 -0.2932 -0.1386
 4113ntf    fn422815   6.478   2.615   0.408  0.3306  0.1452 -0.0492
 4114ntf    cn122816   3.098   2.303   0.085 -0.1055  0.3575  0.1754
 4114ntf    sn222817   3.147   2.249   0.252  0.2344 -0.0170 -0.0424
 4114ntf    nn322818   3.199   2.107   0.212  0.3333  0.0883 -0.2912
 4114ntf    sn222819   3.138   1.965   0.244  0.2253  0.1220 -0.3471
 4114ntf    cn122820   3.280   1.852   0.229  0.0855 -0.1218  0.1634
 4114ntf    fn422821   3.031   2.417   0.091 -0.3873  0.2098 -0.1333
 4114ntf    fn422822   3.205   2.315   0.008 -0.0953  0.1000  0.1469
 4114ntf    fn422823   3.021   2.209   0.033  0.2926 -0.0625  0.3330
 4114ntf    on522824   3.254   2.342   0.281 -0.1576  0.3301  0.3132
 4114ntf    on522825   3.023   2.255   0.326  0.1425 -0.4162 -0.1605
 4114ntf    on522826   3.045   1.924   0.142  0.3885  0.5382 -0.6651
 4114ntf    on522827   3.095   1.943   0.380  0.0759  0.0852 -0.4002
 4114ntf    fn422828   3.383   1.896   0.301 -0.1214  0.2607  0.2340
 4114ntf    fn422829   3.254   1.728   0.267 -0.0547 -0.1019  0.1325
 4114ntf    fn422830   3.335   1.844   0.109 -0.1982 -0.0183  0.0254
 4115ntf    cn122831   5.975   5.292   7.180 -0.3197 -0.0168 -0.2758
 4115ntf    sn222832   6.153   5.326   7.167 -0.2972 -0.0677 -0.1021
 4115ntf    nn322833   6.163   5.417   7.040 -0.0983  0.1647  0.0801
 4115ntf    sn222834   6.164   5.574   7.048 -0.1673  0.1792 -0.1792
 4115ntf    cn122835   6.017   5.616   6.950 -0.1696 -0.0020 -0.2532
 4115ntf    fn422836   5.904   5.398   7.217 -0.0312  0.1838 -0.2931
 4115ntf    fn422837   5.918   5.256   7.067 -0.2346  0.3556 -0.4380
 4115ntf    fn422838   5.951   5.197   7.270  0.8572 -0.1185 -0.0512
 4115ntf    on522839   6.176   5.376   7.301  0.3640  0.8140 -0.5371
 4115ntf    on522840   6.198   5.192   7.141 -0.1253 -0.0423  0.0660
 4115ntf    on522841   6.270   5.621   6.962 -0.0142 -0.9027 -0.5952
 4115ntf    on522842   6.145   5.635   7.177 -0.4250 -0.3275  0.0220
 4115ntf    fn422843   5.974   5.741   6.953 -0.4205 -0.1030  0.5640
 4115ntf    fn422844   6.037   5.587   6.822 -0.1705 -0.0418 -0.2442
 4115ntf    fn422845   5.914   5.541   6.985  0.1130 -0.4336 -0.3310
 4116ntf    cn122846   0.838   3.672   0.967 -0.2071 -0.1856  0.5758
 4116ntf    sn222847   0.900   3.531   0.871 -0.0867  0.2199  0.0507
 4116ntf    nn322848   0.876   3.416   0.975  0.1219  0.0171 -0.1244
 4116ntf    sn222849   0.945   3.277   1.002  0.3767  0.0937 -0.3765
 4116ntf    cn122850   1.095   3.310   1.099  0.0203  0.2039  0.1392
 4116ntf    fn422851   0.923   3.720   1.056  0.2019 -0.0576  0.1208
 4116ntf    fn422852   0.809   3.777   0.891  0.0843 -0.3137  0.2848
 4116ntf    fn422853   0.725   3.643   1.029 -0.3039  0.1878  0.5780
 4116ntf    on522854   0.811   3.524   0.758 -0.3315 -0.0032  0.2540
 4116ntf    on522855   1.034   3.579   0.847 -0.1031  0.2675  0.0539
 4116ntf    on522856   0.999   3.209   0.887  0.7016  0.3310 -0.3645
 4116ntf    on522857   0.858   3.197   1.085 -0.0576  0.4673 -0.4661
 4116ntf    fn422858   1.056   3.387   1.200  0.1790  0.1559  0.2372
 4116ntf    fn422859   1.145   3.199   1.152  0.0723  0.3658  0.4314
 4116ntf    fn422860   1.194   3.369   1.034  0.0959 -0.4014 -0.3060
 4117ntf    cn122861   6.443   3.975   2.043  0.1698  0.0312 -0.3610
 4117ntf    sn222862   6.326   3.883   2.147  0.2750  0.0097 -0.2626
 4117ntf    nn322863   6.396   3.742   2.155 -0.8372 -0.5476 -0.1059
 4117ntf    sn222864   6.496   3.688   2.263  0.1122  0.0832 -0.6470
 4117ntf    cn122865   6.641   3.636   2.166  0.2497 -0.1736 -0.3045
 4117ntf    fn422866   6.403   4.098   2.016  0.0807  0.1396  0.2435
 4117ntf    fn422867   6.555   3.995   2.110  0.0972  0.2171 -0.2949
 4117ntf    fn422868   6.470   3.914   1.929  0.1576 -0.1031 -0.2920
 4117ntf    on522869   6.314   3.959   2.269 -0.2107 -0.4692 -0.0059
 4117ntf    on522870   6.206   3.867   2.069  0.1217 -0.3869  0.0463
 4117ntf    on522871   6.444   3.564   2.317  0.3458  0.3776  0.2770
 4117ntf    on522872   6.553   3.789   2.349  0.0992 -0.2878 -0.1985
 4117ntf    fn422873   6.622   3.539   2.078 -0.0558  0.2339 -0.6913
 4117ntf    fn422874   6.687   3.738   2.096 -0.0066  0.4294  0.3953
 4117ntf    fn422875   6.740   3.593   2.243 -0.0794 -0.2922  0.0626
 4118ntf    cn122876   2.750   7.030   1.109  0.1850 -0.0591 -0.4344
 4118ntf    sn222877   2.588   6.986   1.041 -0.0694  0.3291 -0.0850
 4118ntf    nn322878   2.637   6.924   0.905  0.5527  0.1622  0.2105
 4118ntf    sn222879   2.624   6.997   0.767 -0.1865 -0.0146  0.1828
 4118ntf    cn122880   2.473   6.929   0.691  0.1245 -0.2435 -0.2316
 4118ntf    fn422881   2.831   6.928   1.133  0.1760 -0.1929 -0.9752
 4118ntf    fn422882   2.823   7.102   1.025  0.3550  0.2935  0.0100
 4118ntf    fn422883   2.730   7.098   1.220  0.5027  0.1003 -0.4721
 4118ntf    on522884   2.552   6.878   1.130  0.4172 -0.1672 -0.4807
 4118ntf    on522885   2.521   7.113   1.043 -0.0000  0.3693 -0.2910
 4118ntf    on522886   2.728   6.957   0.676 -0.1936 -0.4451  0.3638
 4118ntf    on522887   2.604   7.140   0.766 -0.1995 -0.0175 -0.2778
 4118ntf    fn422888   2.442   7.002   0.585 -0.4661  0.1071  0.1769
 4118ntf    fn422889   2.483   6.802   0.657  0.0736 -0.2174 -0.3449
 4118ntf    fn422890   2.372   6.943   0.775  0.2319 -0.4883 -0.0621
 4119ntf    cn122891   1.580   5.081   1.964  0.2545  0.2547 -0.4928
 4119ntf    sn222892   1.526   5.255   1.964  0.0595  0.1983  0.0943
 4119ntf    nn322893   1.645   5.327   1.891  0.0408  0.0894 -0.0445
 4119ntf    sn222894   1.651   5.440   1.782 -0.1156  0.2986  0.1613
 4119ntf    cn122895   1.557   5.568   1.869 -0.3564  0.1487  0.1241
 4119ntf    fn422896   1.594   5.026   1.845  0.0309 -0.4704 -0.1922
 4119ntf    fn422897   1.700   5.052   2.010 -0.0581 -0.5167 -0.1424
 4119ntf    fn422898   1.496   5.005   2.033  0.1496  0.3776 -0.4819
 4119ntf    on522899   1.398   5.254   1.896 -0.1818  0.5893  0.5378
 4119ntf    on522900   1.521   5.282   2.105 -0.3161 -0.0960  0.1408
 4119ntf    on522901   1.570   5.416   1.665 -0.1298  0.1280  0.2051
 4119ntf    on522902   1.790   5.475   1.767 -0.0922  0.4481  0.7047
 4119ntf    fn422903   1.591   5.592   1.995  0.2772  0.2183 -0.0574
 4119ntf    fn422904   1.580   5.686   1.812 -0.5288  0.1592  0.0775
 4119ntf    fn422905   1.428   5.541   1.860 -0.2472 -0.1377 -0.5849
 4120ntf    cn122906   2.159   4.316   5.783  0.0275  0.0221 -0.3935
 4120ntf    sn222907   2.329   4.259   5.815  0.0414  0.1250 -0.2834
 4120ntf    nn322908   2.373   4.204   5.675 -0.0748  0.1985 -0.3499
 4120ntf    sn222909   2.398   4.060   5.618  0.2181  0.1101 -0.0036
 4120ntf    cn122910   2.576   4.048   5.650  0.1272  0.0779  0.4954
 4120ntf    fn422911   2.102   4.361   5.894  0.2811 -0.1750 -0.1817
 4120ntf    fn422912   2.142   4.412   5.694 -0.6518  0.1563 -0.1255
 4120ntf    fn422913   2.085   4.215   5.740 -0.1253  0.0057 -0.0958
 4120ntf    on522914   2.394   4.382   5.852  0.4682 -0.2616  0.2672
 4120ntf    on522915   2.318   4.159   5.919 -0.1739 -0.2408 -0.6547
 4120ntf    on522916   2.386   4.059   5.474 -0.6335 -0.1960  0.0646
 4120ntf    on522917   2.334   3.952   5.688 -0.3473  0.1827 -0.3938
 4120ntf    fn422918   2.656   4.136   5.592 -0.0791 -0.1297 -0.1101
 4120ntf    fn422919   2.604   4.063   5.778  0.2232  0.1946  0.4619
 4120ntf    fn422920   2.632   3.937   5.604  0.0255  0.2987 -0.1718
 4121ntf    cn122921   4.279   3.326   6.595  0.2920  0.2808  0.2077
 4121ntf    sn222922   4.157   3.406   6.702 -0.0558 -0.0939  0.0957
 4121ntf    nn322923   4.160   3.297   6.815  0.2302 -0.1749  0.0093
 4121ntf    sn222924   4.249   3.300   6.945 -0.0480  0.2766  0.1922
 4121ntf    cn122925   4.138   3.403   7.046 -0.1283  0.3097  0.0713
 4121ntf    fn422926   4.393   3.303   6.658  0.4229  0.6133  0.0949
 4121ntf    fn422927   4.245   3.202   6.562 -0.0314  0.4112  0.0383
 4121ntf    fn422928   4.305   3.390   6.482  0.0021  0.3378  0.1717
 4121ntf    on522929   4.211   3.537   6.730  0.0287 -0.0600 -0.2222
 4121ntf    on522930   4.035   3.400   6.626  0.0274 -0.3721 -0.0176
 4121ntf    on522931   4.372   3.375   6.942  0.5001 -0.5838  0.7429
 4121ntf    on522932   4.245   3.175   7.017  0.4699  0.0814 -0.1133
 4121ntf    fn422933   4.015   3.355   7.047 -0.0657  0.0926 -0.8901
 4121ntf    fn422934   4.176   3.417   7.172 -0.5694 -0.5376  0.3099
 4121ntf    fn422935   4.118   3.528   7.007 -0.1128  0.2451 -0.1491
 4122ntf    cn122936   5.115   3.346   2.935  0.0942 -0.0957  0.1678
 4122ntf    sn222937   5.033   3.186   2.909 -0.0125  0.0099 -0.1495
 4122ntf    nn322938   5.033   3.124   3.053  0.5914 -0.1160 -0.1978
 4122ntf    sn222939   5.141   3.032   3.119  0.2213 -0.5788 -0.2290
 4122ntf    cn122940   5.143   3.110   3.283  0.0005 -0.2513 -0.3808
 4122ntf    fn422941   5.037   3.425   3.008 -0.0050  0.3203 -0.3834
 4122ntf    fn422942   5.235   3.342   2.989  0.1027  0.3055  0.1789
 4122ntf    fn422943   5.127   3.408   2.819  0.4870 -0.3367  0.0765
 4122ntf    on522944   4.897   3.217   2.874  0.1490  0.6910 -0.1741
 4122ntf    on522945   5.118   3.117   2.814  0.1420  0.1651 -0.1244
 4122ntf    on522946   5.277   3.047   3.073  0.1523  0.2966 -0.1539
 4122ntf    on522947   5.092   2.898   3.141 -0.3753 -0.3039  0.1152
 4122ntf    fn422948   5.152   3.240   3.262  0.0542 -0.1913  0.0064
 4122ntf    fn422949   5.030   3.088   3.347 -0.0153  0.1526 -0.2689
 4122ntf    fn422950   5.248   3.077   3.357  0.1245  0.4768 -0.2222
 4123ntf    cn122951   3.390   6.408   2.168  0.1583 -0.4991 -0.3404
 4123ntf    sn222952   3.565   6.410   2.216  0.0492  0.0814  0.0545
 4123ntf    nn322953   3.613   6.527   2.123 -0.5336  0.3091  0.0390
 4123ntf    sn222954   3.647   6.528   1.970 -0.1967 -0.2779  0.1088
 4123ntf    cn122955   3.782   6.650   1.966 -0.3722 -0.0974 -0.4484
 4123ntf    fn422956   3.322   6.504   2.228  0.5509 -0.1826 -0.3969
 4123ntf    fn422957   3.380   6.430   2.038 -0.2770  0.0281 -0.2212
 4123ntf    fn422958   3.332   6.291   2.188 -0.2096 -0.2692 -0.0402
 4123ntf    on522959   3.561   6.452   2.353 -0.4837  0.2934 -0.0253
 4123ntf    on522960   3.601   6.273   2.189 -0.0965  0.0875 -0.1726
 4123ntf    on522961   3.540   6.589   1.896  0.5223  0.3282 -0.4412
 4123ntf    on522962   3.711   6.412   1.913  0.3040 -0.0008  0.1002
 4123ntf    fn422963   3.842   6.667   1.850  0.0376  0.2439 -0.1912
 4123ntf    fn422964   3.729   6.763   2.010 -0.8281 -0.4454 -0.0835
 4123ntf    fn422965   3.879   6.605   2.044 -0.6979 -0.1076 -0.0451
 4124ntf    cn122966   6.181   0.219   2.635 -0.4514 -0.1570  0.5034
 4124ntf    sn222967   6.163   0.129   2.792 -0.1671 -0.4926  0.3462
 4124ntf    nn322968   6.151  -0.016   2.733  0.1651 -0.2031 -0.4425
 4124ntf    sn222969   6.169  -0.148   2.816 -0.2096  0.0969  0.1195
 4124ntf    cn122970   6.343  -0.185   2.778 -0.3166  0.0928 -0.3778
 4124ntf    fn422971   6.307   0.221   2.594 -0.5873 -0.2187  0.0786
 4124ntf    fn422972   6.116   0.153   2.540  0.0625  0.3894 -0.2424
 4124ntf    fn422973   6.141   0.345   2.639  0.1834  0.0486  0.4563
 4124ntf    on522974   6.286   0.154   2.863 -0.0683 -0.0605  0.0267
 4124ntf    on522975   6.037   0.182   2.839  0.2202  0.9268 -0.1728
 4124ntf    on522976   6.100  -0.264   2.767 -0.1497  0.1467 -0.0811
 4124ntf    on522977   6.167  -0.136   2.960 -0.5584  0.0333  0.1206
 4124ntf    fn422978   6.425  -0.083   2.798 -0.0302 -0.1396 -0.3641
 4124ntf    fn422979   6.393  -0.296   2.831 -0.3711  0.1047 -0.3006
 4124ntf    fn422980   6.341  -0.212   2.649 -0.5375  0.2945 -0.4160
 4125ntf    cn122981   0.288   0.180   6.799 -0.0210  0.0527 -0.2186
 4125ntf    sn222982   0.255   0.333   6.892 -0.2417 -0.2899  0.2679
 4125ntf    nn322983   0.242   0.281   7.040  0.0288  0.4300  0.5476
 4125ntf    sn222984   0.361   0.244   7.135  0.0915 -0.2224  0.2230
 4125ntf    cn122985   0.393   0.396   7.231  0.1112 -0.1013  0.0259
 4125ntf    fn422986   0.275   0.195   6.668  0.2397  0.0167 -0.2494
 4125ntf    fn422987   0.409   0.132   6.822 -0.1493 -0.2409 -0.1557
 4125ntf    fn422988   0.210   0.077   6.824  0.0142  0.1923  0.5030
 4125ntf    on522989   0.362   0.421   6.854 -0.2490 -0.2020  0.4471
 4125ntf    on522990   0.123   0.376   6.851 -0.1272  0.0161  0.2200
 4125ntf    on522991   0.481   0.220   7.058 -0.1719  0.1482 -0.3089
 4125ntf    on522992   0.314   0.150   7.233 -0.1855 -0.5593 -0.2289
 4125ntf    fn422993   0.462   0.374   7.342  0.0041 -0.3070  0.0521
 4125ntf    fn422994   0.470   0.477   7.160 -0.4543  0.1377 -0.3238
 4125ntf    fn422995   0.279   0.461   7.247  0.0706 -0.2715  0.4392
 4126ntf    cn122996   0.252   2.324   3.289 -0.0158  0.2400 -0.4049
 4126ntf    sn222997   0.207   2.498   3.265 -0.0313  0.2865 -0.0464
 4126ntf    nn322998   0.302   2.552   3.153 -0.2507  0.0891 -0.3296
 4126ntf    sn222999   0.418   2.659   3.154 -0.0657 -0.1118 -0.0968
 4126ntf    cn123000   0.380   2.748   3.000 -0.1465 -0.1794 -0.1160
 4126ntf    fn423001   0.182   2.267   3.386 -0.2412  0.2394 -0.5692
 4126ntf    fn423002   0.243   2.247   3.182  0.1072 -0.1454 -0.1440
 4126ntf    fn423003   0.378   2.311   3.329 -0.0366  0.1032 -0.3833
 4126ntf    on523004   0.070   2.485   3.224 -0.1136  0.5993  0.1278
 4126ntf    on523005   0.233   2.555   3.395 -0.1829  0.1773  0.0313
 4126ntf    on523006   0.551   2.612   3.127  0.0351  0.3292 -0.3824
 4126ntf    on523007   0.414   2.761   3.256  0.8171 -0.2450  0.0772
 4126ntf    fn423008   0.254   2.788   3.004 -0.2265 -0.3592 -0.6796
 4126ntf    fn423009   0.456   2.854   2.981  0.1778 -0.2237  0.9081
 4126ntf    fn423010   0.394   2.667   2.896  0.1058 -0.1053 -0.1399
 4127ntf    cn123011   0.806   6.422   2.848  0.6221  0.1237 -0.0401
 4127ntf    sn223012   0.755   6.369   3.014 -0.2819 -0.5292 -0.5138
 4127ntf    nn323013   0.771   6.509   3.084  0.3732 -0.7323 -0.2434
 4127ntf    sn223014   0.903   6.571   3.140 -0.0462  0.1949 -0.2726
 4127ntf    cn123015   0.842   6.695   3.259 -0.0747 -0.2863  0.2174
 4127ntf    fn423016   0.706   6.493   2.798  0.6210 -0.1678 -0.4631
 4127ntf    fn423017   0.911   6.503   2.849 -0.0918  1.0652 -0.0669
 4127ntf    fn423018   0.828   6.326   2.760 -0.2454 -0.3662  0.2615
 4127ntf    on523019   0.615   6.338   3.000 -0.4669  0.4310 -0.8292
 4127ntf    on523020   0.853   6.269   3.052  0.1406  0.2539  0.5090
 4127ntf    on523021   0.972   6.658   3.048 -0.1359 -0.1464 -0.6614
 4127ntf    on523022   0.980   6.490   3.231 -0.7105  0.0785  0.1926
 4127ntf    fn423023   0.788   6.799   3.199  0.3493 -0.3371 -0.2583
 4127ntf    fn423024   0.741   6.638   3.322 -0.8260  0.8223  0.0288
 4127ntf    fn423025   0.929   6.738   3.349 -0.3783  0.0282  0.3629
 4128ntf    cn123026   4.400   5.422   5.650 -0.0210 -0.2607  0.1293
 4128ntf    sn223027   4.222   5.459   5.645  0.1221  0.4042 -0.1761
 4128ntf    nn323028   4.220   5.605   5.586  0.2293  0.4344 -0.1051
 4128ntf    sn223029   4.223   5.646   5.435  0.0836 -0.1013 -0.2574
 4128ntf    cn123030   4.058   5.597   5.377 -0.0229  0.1122 -0.1371
 4128ntf    fn423031   4.466   5.517   5.715 -0.3540 -0.0820  0.2056
 4128ntf    fn423032   4.434   5.308   5.707 -0.1304 -0.5762 -0.4332
 4128ntf    fn423033   4.464   5.432   5.534 -0.3667  0.4609 -0.0064
 4128ntf    on523034   4.176   5.358   5.553  0.0853 -0.0690  0.3575
 4128ntf    on523035   4.176   5.458   5.781 -0.5273  0.3532 -0.3959
 4128ntf    on523036   4.312   5.574   5.347 -0.0902 -0.3620 -0.2200
 4128ntf    on523037   4.220   5.789   5.418 -0.8829 -0.0676  0.0932
 4128ntf    fn423038   4.050   5.468   5.347 -0.1735  0.1256 -0.1598
 4128ntf    fn423039   3.960   5.602   5.466  0.0088 -0.0432 -0.0918
 4128ntf    fn423040   4.020   5.660   5.267  0.1725  0.4810  0.0058
 4129ntf    cn123041   7.004   3.041   0.358 -0.2629 -0.0430  0.4479
 4129ntf    sn223042   7.073   3.201   0.411 -0.1640  0.0090  0.1602
 4129ntf    nn323043   7.166   3.149   0.526 -0.5388 -0.7988  0.1032
 4129ntf    sn223044   7.186   3.210   0.669 -0.4048 -0.3653 -0.1003
 4129ntf    cn123045   7.026   3.192   0.753 -0.0984  0.2721  0.6340
 4129ntf    fn423046   7.100   2.959   0.318 -0.3912 -0.2180  0.4975
 4129ntf    fn423047   6.939   2.980   0.456  0.1691 -0.3551  0.5463
 4129ntf    fn423048   6.918   3.059   0.260 -0.5179  0.3535  0.7435
 4129ntf    on523049   7.144   3.246   0.294  0.2246 -0.0982  0.3547
 4129ntf    on523050   6.956   3.275   0.450 -0.1143 -0.0336  0.3867
 4129ntf    on523051   7.213   3.352   0.672  0.1652 -0.4775  0.2901
 4129ntf    on523052   7.282   3.135   0.746 -0.0770  0.6735  0.5215
 4129ntf    fn423053   7.053   3.184   0.883 -0.1000  0.7019  0.6593
 4129ntf    fn423054   6.935   3.285   0.732  0.1851  0.3517 -0.2793
 4129ntf    fn423055   6.976   3.073   0.722  0.3973  0.1447  0.3011
 4130ntf    cn123056   4.109   5.667   2.638 -0.5459  0.2059  0.5783
 4130ntf    sn223057   4.266   5.758   2.628 -0.3474 -0.2134 -0.2710
 4130ntf    nn323058   4.298   5.730   2.477  0.0255  0.0510 -0.2410
 4130ntf    sn223059   4.409   5.632   2.426 -0.0555 -0.2297  0.1167
 4130ntf    cn123060   4.419   5.694   2.255 -0.4511  0.1442  0.2297
 4130ntf    fn423061   4.133   5.538   2.617  1.0264  0.6075 -0.2182
 4130ntf    fn423062   4.060   5.661   2.760  0.1777 -0.2613  0.8528
 4130ntf    fn423063   4.018   5.707   2.550 -0.3729  0.1328  0.3637
 4130ntf    on523064   4.244   5.899   2.650  0.1847 -0.2102  0.2535
 4130ntf    on523065   4.349   5.692   2.726 -0.3104 -0.0753 -0.2087
 4130ntf    on523066   4.373   5.494   2.404 -0.1131 -0.2141  0.1139
 4130ntf    on523067   4.545   5.661   2.465 -0.0234  0.2052 -0.3020
 4130ntf    fn423068   4.308   5.665   2.188 -0.3019 -0.0888  0.0824
 4130ntf    fn423069   4.429   5.826   2.250  0.4690  0.0784  0.2372
 4130ntf    fn423070   4.531   5.657   2.195 -0.4595 -0.1912  0.4162
 4131ntf    cn123071   4.261   6.541   5.859  0.0794  0.3781  0.1729
 4131ntf    sn223072   4.154   6.629   5.741  0.0607  0.1582  0.0270
 4131ntf    nn323073   4.193   6.778   5.773  0.1895 -0.0545  0.8939
 4131ntf    sn223074   4.296   6.864   5.692 -0.0695 -0.1859  0.4207
 4131ntf    cn123075   4.337   6.987   5.819  0.3013  0.1196  0.0091
 4131ntf    fn423076   4.226   6.577   5.982  0.1193 -0.3344  0.3991
 4131ntf    fn423077   4.264   6.409   5.848  0.5590  0.3628  0.4417
 4131ntf    fn423078   4.389   6.569   5.841  0.2431 -0.6997 -0.3597
 4131ntf    on523079   4.194   6.574   5.614  0.5233 -0.0977  0.2776
 4131ntf    on523080   4.023   6.601   5.793  0.0986 -0.1826 -0.0594
 4131ntf    on523081   4.245   6.941   5.581  0.1395  0.0420  0.4816
 4131ntf    on523082   4.423   6.798   5.669 -0.2416 -0.3071 -0.2126
 4131ntf    fn423083   4.236   7.041   5.885  0.5887  0.3267  0.2818
 4131ntf    fn423084   4.424   6.945   5.910  0.4284 -0.0729 -0.2003
 4131ntf    fn423085   4.397   7.091   5.765 -0.3513  0.4394 -0.1092
 4132ntf    cn123086   0.535   3.930   2.850  0.1735 -0.3564 -0.0076
 4132ntf    sn223087   0.599   4.070   2.753 -0.5126  0.1852  0.3061
 4132ntf    nn323088   0.613   4.184   2.859 -0.2259  0.7034 -0.2825
 4132ntf    sn223089   0.747   4.231   2.927 -0.2135  0.0798  0.1297
 4132ntf    cn123090   0.692   4.299   3.086 -0.0556  0.1504  0.1540
 4132ntf    fn423091   0.623   3.867   2.925  0.4804 -0.0883 -0.1401
 4132ntf    fn423092   0.454   3.990   2.936  0.1041 -0.6742  0.1504
 4132ntf    fn423093   0.478   3.835   2.778 -0.5138  0.1167 -0.1071
 4132ntf    on523094   0.722   4.021   2.695 -0.4741  0.0992  0.4610
 4132ntf    on523095   0.504   4.102   2.650 -0.0893 -0.6090 -0.3419
 4132ntf    on523096   0.795   4.348   2.857 -0.2394  0.1019  0.1496
 4132ntf    on523097   0.843   4.127   2.957 -0.4614 -0.1554  0.1165
 4132ntf    fn423098   0.798   4.341   3.154  0.3525 -0.7196  0.0739
 4132ntf    fn423099   0.599   4.393   3.086 -0.0202  0.1875  0.3375
 4132ntf    fn423100   0.647   4.208   3.170  0.1795  0.1665  0.3009
 4133ntf    cn123101   2.393   5.296   4.851 -0.0810 -0.0568 -0.5014
 4133ntf    sn223102   2.564   5.358   4.856 -0.0761 -0.0935 -0.1778
 4133ntf    nn323103   2.542   5.496   4.927  0.1032 -0.2028  0.0915
 4133ntf    sn223104   2.625   5.564   5.042 -0.1485  0.2657 -0.0009
 4133ntf    cn123105   2.563   5.487   5.195 -0.0314  0.4861  0.1577
 4133ntf    fn423106   2.392   5.164   4.863  0.3296 -0.0807 -0.6798
 4133ntf    fn423107   2.321   5.342   4.951  0.7549 -0.2146  0.1925
 4133ntf    fn423108   2.330   5.327   4.739 -0.1027  0.3079 -0.3892
 4133ntf    on523109   2.628   5.259   4.939 -0.0602 -0.1750 -0.2866
 4133ntf    on523110   2.608   5.367   4.719  0.0607  0.1180 -0.1201
 4133ntf    on523111   2.599   5.705   5.048 -0.1417  0.2530  0.3238
 4133ntf    on523112   2.766   5.536   5.044 -0.2155 -0.0815  0.0188
 4133ntf    fn423113   2.603   5.555   5.301  0.3684 -0.0663  0.3660
 4133ntf    fn423114   2.431   5.486   5.195 -0.0302  0.2104 -0.0371
 4133ntf    fn423115   2.586   5.357   5.205 -0.6255  0.4018  0.4138
 4134ntf    cn123116   2.613   1.955   6.230 -0.2676 -0.0101  0.1336
 4134ntf    sn223117   2.446   1.997   6.290 -0.2040  0.0925  0.2400
 4134ntf    nn323118   2.411   1.862   6.360 -0.3132  0.2178  0.4270
 4134ntf    sn223119   2.424   1.831   6.514 -0.7230 -0.3748  0.3479
 4134ntf    cn123120   2.260   1.886   6.569 -0.7572  0.2444 -0.3508
 4134ntf    fn423121   2.631   1.849   6.153 -0.2808  0.3141 -0.3226
 4134ntf    fn423122   2.666   2.050   6.155  0.1183 -0.6344 -0.3919
 4134ntf    fn423123   2.690   1.931   6.335  0.1324  0.4243 -0.0561
 4134ntf    on523124   2.467   2.116   6.368  0.7230 -0.0343  0.1941
 4134ntf    on523125   2.376   2.011   6.164 -0.0840 -0.4476  0.1116
 4134ntf    on523126   2.517   1.914   6.586  0.3518 -0.6409 -0.6966
 4134ntf    on523127   2.432   1.690   6.542  0.2487 -0.4808 -0.3807
 4134ntf    fn423128   2.235   2.006   6.520 -0.1369  0.4175 -0.2521
 4134ntf    fn423129   2.168   1.799   6.532 -0.3861 -0.1481 -0.3705
 4134ntf    fn423130   2.258   1.901   6.701 -0.3093  0.1872 -0.3337
 4135ntf    cn123131   2.186   2.737   3.138 -0.0391  0.2135 -0.0520
 4135ntf    sn223132   2.293   2.622   3.046 -0.2407 -0.0094 -0.0097
 4135ntf    nn323133   2.423   2.710   3.040  0.0302 -0.3962  0.1576
 4135ntf    sn223134   2.471   2.788   2.913 -0.3778 -0.4293 -0.0183
 4135ntf    cn123135   2.557   2.936   2.975 -0.4604 -0.2439 -0.3405
 4135ntf    fn423136   2.167   2.851   3.073 -0.3980  0.2406  0.0944
 4135ntf    fn423137   2.064   2.688   3.156 -0.1486  0.4789 -0.0647
 4135ntf    fn423138   2.239   2.771   3.254 -0.2126  0.2841  0.0070
 4135ntf    on523139   2.298   2.512   3.138 -0.1137 -0.4396 -0.5241
 4135ntf    on523140   2.221   2.599   2.923  0.0858 -0.2209 -0.1626
 4135ntf    on523141   2.363   2.851   2.841  0.0914  0.2026 -0.1778
 4135ntf    on523142   2.565   2.713   2.833 -0.4791 -0.4046 -0.1620
 4135ntf    fn423143   2.586   3.014   2.873 -0.3336  0.4942  0.2493
 4135ntf    fn423144   2.480   3.014   3.050 -0.1643 -0.0485 -0.2398
 4135ntf    fn423145   2.667   2.914   3.046 -0.3574 -0.0043 -0.4252
 4136ntf    cn123146   3.343   5.099   0.415 -0.1492 -0.2829  0.3529
 4136ntf    sn223147   3.209   5.086   0.537 -0.3414  0.0787  0.1840
 4136ntf    nn323148   3.299   5.132   0.658 -0.2782 -0.0707  0.1943
 4136ntf    sn223149   3.322   5.275   0.719  0.1363 -0.0052 -0.1164
 4136ntf    cn123150   3.213   5.272   0.864  0.1111 -0.0788 -0.1370
 4136ntf    fn423151   3.300   5.070   0.293 -0.0977 -0.0306  0.2736
 4136ntf    fn423152   3.390   5.223   0.408  0.4074 -0.5246 -0.3072
 4136ntf    fn423153   3.451   5.026   0.431  0.3511  0.3132 -0.2378
 4136ntf    on523154   3.099   5.166   0.490  0.0923  0.1291 -0.7574
 4136ntf    on523155   3.184   4.944   0.544 -0.3717  0.0750  0.0073
 4136ntf    on523156   3.272   5.389   0.647  0.1546  0.0146 -0.0977
 4136ntf    on523157   3.454   5.291   0.775 -0.0157  0.3986  0.1339
 4136ntf    fn423158   3.228   5.163   0.936 -0.2547 -0.3402 -0.4492
 4136ntf    fn423159   3.242   5.371   0.947 -0.0719  0.0783 -0.2583
 4136ntf    fn423160   3.083   5.284   0.840  0.0977 -0.3188 -0.1871
 4137ntf    cn123161   2.337   6.092   3.946 -0.2188 -0.4973 -0.1730
 4137ntf    sn223162   2.268   6.253   3.994  0.2906 -0.3290 -0.0061
 4137ntf    nn323163   2.342   6.269   4.132 -0.0090  0.0584  0.1113
 4137ntf    sn223164   2.388   6.404   4.197  0.1958  0.1504 -0.2195
 4137ntf    cn123165   2.568   6.400   4.175  0.2053 -0.1375 -0.1006
 4137ntf    fn423166   2.463   6.082   3.985 -0.1136 -0.0587 -0.3894
 4137ntf    fn423167   2.273   5.988   3.997 -0.1025 -0.3610  0.2611
 4137ntf    fn423168   2.336   6.082   3.814  0.5273  0.5156 -0.2653
 4137ntf    on523169   2.303   6.343   3.886  0.2736  0.1682  0.3981
 4137ntf    on523170   2.130   6.214   4.000  0.0969  0.2422 -0.6147
 4137ntf    on523171   2.384   6.389   4.341  0.0368 -0.0451 -0.2434
 4137ntf    on523172   2.347   6.525   4.131  0.1176  0.1592 -0.1544
 4137ntf    fn423173   2.626   6.296   4.233 -0.1886 -0.1503  0.2769
 4137ntf    fn423174   2.605   6.402   4.048 -0.3478 -0.6047 -0.2735
 4137ntf    fn423175   2.630   6.504   4.230 -0.2704 -0.0265  0.2264
 4138ntf    cn123176   3.402   6.695   1.526  0.2793 -0.3463  0.1897
 4138ntf    sn223177   3.302   6.754   1.386  0.1060 -0.1054  0.4120
 4138ntf    nn323178   3.157   6.721   1.434 -0.0546 -0.0805 -0.0525
 4138ntf    sn223179   3.056   6.807   1.519  0.1939  0.3497 -0.1913
 4138ntf    cn123180   2.951   6.869   1.384  0.3466  0.5488 -0.2190
 4138ntf    fn423181   3.422   6.565   1.537  0.2623 -0.4497 -0.9444
 4138ntf    fn423182   3.520   6.755   1.521  0.0174  0.1436 -0.2562
 4138ntf    fn423183   3.341   6.726   1.640  0.4650  0.0364  0.1886
 4138ntf    on523184   3.327   6.895   1.373  0.0602 -0.1361 -0.0538
 4138ntf    on523185   3.351   6.670   1.279  0.2425  0.1739  0.2541
 4138ntf    on523186   3.101   6.928   1.583 -0.0609  0.2713  0.1361
 4138ntf    on523187   2.971   6.720   1.596  0.1186  0.2363 -0.4004
 4138ntf    fn423188   2.863   6.955   1.434 -0.0478 -0.1552  0.3132
 4138ntf    fn423189   3.021   6.944   1.300  0.5215  0.6462  0.0114
 4138ntf    fn423190   2.880   6.779   1.319  0.5331  0.2149  0.0386
 4139ntf    cn123191   0.308   4.804   4.084 -0.3136  0.2070  0.4066
 4139ntf    sn223192   0.208   4.761   3.938  0.0321  0.2182  0.1652
 4139ntf    nn323193   0.316   4.769   3.824 -0.1998  0.2237 -0.0543
 4139ntf    sn223194   0.414   4.658   3.772 -0.1916  0.0539  0.3136
 4139ntf    cn123195   0.315   4.592   3.635  0.2650  0.4131 -0.1958
 4139ntf    fn423196   0.375   4.701   4.132 -0.4075  0.0535  0.2118
 4139ntf    fn423197   0.404   4.891   4.060 -0.1269 -0.0959  0.0410
 4139ntf    fn423198   0.235   4.855   4.181 -0.5401  0.5586  0.0576
 4139ntf    on523199   0.155   4.630   3.969 -0.3495  0.3865  0.2305
 4139ntf    on523200   0.121   4.875   3.939 -0.2307  0.0169  0.5019
 4139ntf    on523201   0.437   4.548   3.861 -0.0190  0.1538  0.3942
 4139ntf    on523202   0.527   4.709   3.697 -0.1990  0.3076  0.4747
 4139ntf    fn423203   0.189   4.578   3.673  0.3777  0.3214  0.1409
 4139ntf    fn423204   0.317   4.670   3.528  0.2033  0.3601 -0.2356
 4139ntf    fn423205   0.363   4.474   3.599 -0.2380 -0.0256  0.5648
 4140ntf    cn123206   4.519   4.699   1.767 -0.6418 -0.0078 -0.4411
 4140ntf    sn223207   4.491   4.800   1.915  0.3508 -0.0917 -0.1855
 4140ntf    nn323208   4.477   4.695   2.031  0.0372  0.4586  0.2837
 4140ntf    sn223209   4.345   4.616   2.061  0.1985 -0.0241 -0.2615
 4140ntf    cn123210   4.287   4.724   2.195  0.5472 -0.0758 -0.0673
 4140ntf    fn423211   4.648   4.671   1.759 -0.5564  0.1886  0.2320
 4140ntf    fn423212   4.457   4.582   1.767  0.1276 -0.4208 -0.4633
 4140ntf    fn423213   4.488   4.754   1.651 -0.2955  0.7745 -0.1657
 4140ntf    on523214   4.609   4.882   1.922 -0.1541  0.6695 -0.3812
 4140ntf    on523215   4.369   4.869   1.882  0.4936  0.2181 -0.0718
 4140ntf    on523216   4.375   4.492   2.129 -0.2080 -0.0935 -0.1998
 4140ntf    on523217   4.237   4.623   1.965 -0.0927 -0.0478  0.0598
 4140ntf    fn423218   4.281   4.850   2.155 -0.3720 -0.0603  0.0915
 4140ntf    fn423219   4.164   4.695   2.237  0.6553  0.2196  0.4608
 4140ntf    fn423220   4.369   4.722   2.298  0.3882 -0.0250  0.0606
 4141ntf    cn123221   2.066   2.984   1.935 -0.2004  0.2971  0.1138
 4141ntf    sn223222   1.904   2.944   2.008 -0.2365  0.0676 -0.0911
 4141ntf    nn323223   1.830   3.082   2.016 -0.1829  0.0790  0.1857
 4141ntf    sn223224   1.771   3.173   1.902  0.1564  0.0571 -0.0089
 4141ntf    cn123225   1.595   3.146   1.937  0.1699 -0.1024 -0.0613
 4141ntf    fn423226   2.119   3.077   2.012  0.4178  0.1993 -0.1922
 4141ntf    fn423227   2.146   2.879   1.926 -0.3228  0.1907  0.2490
 4141ntf    fn423228   2.048   3.042   1.817 -0.0878 -0.4031 -0.2573
 4141ntf    on523229   1.852   2.853   1.909  0.2268 -0.1284 -0.1595
 4141ntf    on523230   1.947   2.890   2.134  0.1210  0.7934  0.0999
 4141ntf    on523231   1.779   3.125   1.767  0.2983  0.1368 -0.0294
 4141ntf    on523232   1.788   3.314   1.924  0.3451 -0.0315  0.4273
 4141ntf    fn423233   1.552   3.225   2.035  0.5308  0.2134 -0.1555
 4141ntf    fn423234   1.514   3.171   1.836 -0.0424  0.4346  0.2324
 4141ntf    fn423235   1.575   3.019   1.969 -0.5980 -0.0096 -0.1661
 4142ntf    cn123236   0.750   1.429   5.274 -0.2733 -0.0777  0.1209
 4142ntf    sn223237   0.578   1.452   5.221 -0.3129 -0.1643  0.2128
 4142ntf    nn323238   0.530   1.525   5.351  0.3425 -0.3014  0.5362
 4142ntf    sn223239   0.527   1.678   5.388  0.2400 -0.1595 -0.0437
 4142ntf    cn123240   0.373   1.747   5.322  0.2100 -0.4776 -0.3109
 4142ntf    fn423241   0.828   1.519   5.216 -0.2644 -0.5841 -0.6649
 4142ntf    fn423242   0.767   1.441   5.405  0.3877  0.4056 -0.0015
 4142ntf    fn423243   0.801   1.315   5.231  0.2873  0.1135  0.2722
 4142ntf    on523244   0.587   1.523   5.096 -0.1977 -0.6640 -0.0673
 4142ntf    on523245   0.528   1.317   5.206 -1.2219  0.2095 -0.1978
 4142ntf    on523246   0.636   1.742   5.318 -0.1710  0.4488 -0.1332
 4142ntf    on523247   0.524   1.701   5.531  0.1226 -0.4318 -0.0020
 4142ntf    fn423248   0.268   1.683   5.371 -0.0185  0.0901 -0.0426
 4142ntf    fn423249   0.370   1.876   5.353  0.2736 -0.5941  0.1828
 4142ntf    fn423250   0.358   1.744   5.191 -0.5025  0.1308 -0.2493
 4143ntf    cn123251   7.181   3.897   2.875 -0.4009  0.0907  0.3636
 4143ntf    sn223252   7.343   3.839   2.816 -0.4874  0.1506  0.0674
 4143ntf    nn323253   7.344   3.682   2.815  0.1000  0.1464  0.4877
 4143ntf    sn223254   7.327   3.589   2.690 -0.1654  0.2150  0.4715
 4143ntf    cn123255   7.276   3.430   2.762  0.0212  0.1005  0.3537
 4143ntf    fn423256   7.185   4.028   2.888  0.6845  0.0664  0.3847
 4143ntf    fn423257   7.081   3.868   2.794  0.0451 -0.2661 -0.0696
 4143ntf    fn423258   7.147   3.853   2.995  0.0541 -0.4154  0.3139
 4143ntf    on523259   7.371   3.899   2.688  0.0214 -0.3540 -0.0627
 4143ntf    on523260   7.434   3.888   2.917  0.3227  0.6683 -0.9024
 4143ntf    on523261   7.447   3.557   2.617 -0.1739  0.7576  0.2184
 4143ntf    on523262   7.215   3.616   2.603 -0.0685  0.1606  0.3284
 4143ntf    fn423263   7.352   3.395   2.865  0.1909 -0.4289  0.0526
 4143ntf    fn423264   7.152   3.436   2.809 -0.2139 -0.8015 -0.1293
 4143ntf    fn423265   7.285   3.324   2.684 -0.0613  0.2571  0.1293
 4144ntf    cn123266   4.055   3.040   3.319  0.1519 -0.2233 -0.0068
 4144ntf    sn223267   3.925   3.166   3.298 -0.0432 -0.4278 -0.0311
 4144ntf    nn323268   4.017   3.281   3.352 -0.8819  0.2555 -0.0504
 4144ntf    sn223269   4.012   3.347   3.494  0.0498 -0.0335  0.1234
 4144ntf    cn123270   3.903   3.489   3.464  0.2588  0.0742 -0.1252
 4144ntf    fn423271   4.068   2.998   3.444 -0.6524  0.1679  0.2141
 4144ntf    fn423272   4.035   2.930   3.248 -0.0595 -0.3803  0.2946
 4144ntf    fn423273   4.171   3.094   3.287  0.0305  0.2456  0.3394
 4144ntf    on523274   3.896   3.172   3.157  0.1337  0.0747 -0.0459
 4144ntf    on523275   3.819   3.125   3.386 -0.3702 -0.5097 -0.4583
 4144ntf    on523276   4.141   3.403   3.523 -0.3467  0.8022  0.3116
 4144ntf    on523277   3.952   3.270   3.600  0.7719 -0.2799  0.3529
 4144ntf    fn423278   3.788   3.451   3.410 -0.0193  0.2675  0.3276
 4144ntf    fn423279   3.875   3.558   3.573 -0.2132 -0.1428 -0.1055
 4144ntf    fn423280   3.944   3.581   3.377  0.9972 -0.1398 -0.0091
 4145ntf    cn123281   2.080   0.053   1.976 -0.2766 -0.0618  0.4091
 4145ntf    sn223282   2.158  -0.024   2.120 -0.2648 -0.3369  0.2564
 4145ntf    nn323283   2.030  -0.059   2.206 -0.6505  0.1326 -0.1228
 4145ntf    sn223284   1.974  -0.192   2.266 -0.1800 -0.0922 -0.1797
 4145ntf    cn123285   1.912  -0.129   2.425 -0.1166  0.4356 -0.3633
 4145ntf    fn423286   2.161   0.077   1.874 -0.0707 -0.1208  0.5586
 4145ntf    fn423287   1.984  -0.020   1.920 -0.3305  0.5442 -0.3067
 4145ntf    fn423288   2.034   0.173   2.006  0.3204  0.2825 -0.0359
 4145ntf    on523289   2.229  -0.137   2.065  0.4787  0.3457 -0.1953
 4145ntf    on523290   2.234   0.077   2.189 -0.0003 -0.3266 -0.0503
 4145ntf    on523291   2.073  -0.288   2.311  0.1846  0.5784  0.4717
 4145ntf    on523292   1.857  -0.241   2.198  0.2183 -0.1783 -0.8123
 4145ntf    fn423293   1.832  -0.219   2.481  0.6586 -0.2196 -0.2963
 4145ntf    fn423294   2.004  -0.106   2.516 -0.2046  0.5732 -0.3094
 4145ntf    fn423295   1.833  -0.024   2.410 -0.7626  0.0566  0.3228
 4146ntf    cn123296   7.034   1.768   1.578 -0.4788  0.3702 -0.0124
 4146ntf    sn223297   7.013   1.627   1.691 -0.0461  0.3349  0.0247
 4146ntf    nn323298   7.054   1.701   1.824  0.1014  0.8847 -0.3238
 4146ntf    sn223299   7.187   1.679   1.903  0.0727  0.2082 -0.4576
 4146ntf    cn123300   7.103   1.643   2.060 -0.0338  0.0981 -0.5397
 4146ntf    fn423301   7.111   1.738   1.474  0.0861 -0.8366  0.7304
 4146ntf    fn423302   6.922   1.824   1.535 -0.5019  0.4668  0.1742
 4146ntf    fn423303   7.101   1.862   1.643 -0.3977  0.3727 -0.0994
 4146ntf    on523304   6.873   1.593   1.689 -0.0275  0.2587 -0.0278
 4146ntf    on523305   7.102   1.525   1.642 -0.1866  0.1428  0.1689
 4146ntf    on523306   7.258   1.801   1.935 -0.1964  0.2413  0.0125
 4146ntf    on523307   7.269   1.561   1.890  0.1105  0.1132  0.6000
 4146ntf    fn423308   7.186   1.614   2.159 -0.7001  0.3329  0.0948
 4146ntf    fn423309   7.017   1.735   2.101 -0.1108 -0.3123  0.2269
 4146ntf    fn423310   7.039   1.528   2.044 -0.1253  0.1157 -0.3026
 4147ntf    cn123311   6.099   4.451   1.218  0.1105 -0.4239 -0.2053
 4147ntf    sn223312   5.924   4.410   1.248  0.0772  0.0471  0.2531
 4147ntf    nn323313   5.885   4.514   1.359  0.2340  0.3545  0.0218
 4147ntf    sn223314   5.914   4.512   1.513 -0.1452 -0.1286  0.0878
 4147ntf    cn123315   5.743   4.467   1.555 -0.2533 -0.1558 -0.3788
 4147ntf    fn423316   6.107   4.544   1.125 -0.1167 -0.1604  0.0373
 4147ntf    fn423317   6.157   4.505   1.324 -0.2493 -0.2467 -0.0962
 4147ntf    fn423318   6.171   4.353   1.166  0.2683 -0.1230 -0.5599
 4147ntf    on523319   5.865   4.443   1.121  0.6937 -0.1129 -0.0778
 4147ntf    on523320   5.918   4.273   1.291  0.3049 -0.0440  0.0001
 4147ntf    on523321   5.938   4.645   1.563  0.0500 -0.2861  0.4221
 4147ntf    on523322   5.997   4.401   1.555  0.3236  0.5078  0.8870
 4147ntf    fn423323   5.658   4.548   1.494  0.4618  0.6863 -0.2770
 4147ntf    fn423324   5.717   4.345   1.512  0.2683 -0.3094 -0.2674
 4147ntf    fn423325   5.723   4.481   1.685 -0.1674  0.0594 -0.3885
 4148ntf    cn123326   5.793   1.827   2.334  0.4372  0.0348  0.0284
 4148ntf    sn223327   5.844   1.776   2.501  0.0713 -0.3132  0.0343
 4148ntf    nn323328   5.879   1.918   2.557  0.0887 -0.2397 -0.1606
 4148ntf    sn223329   5.778   2.019   2.622  0.4064  0.0298 -0.0850
 4148ntf    cn123330   5.798   1.971   2.797  0.0238  0.0987 -0.0215
 4148ntf    fn423331   5.684   1.901   2.340  0.5031  0.1183  0.2008
 4148ntf    fn423332   5.881   1.899   2.266  0.0292  0.6759  0.1775
 4148ntf    fn423333   5.768   1.721   2.258 -0.7780 -0.1755  0.6963
 4148ntf    on523334   5.720   1.712   2.539 -0.2898  0.5062  0.2484
 4148ntf    on523335   5.964   1.696   2.496  0.3224  0.0837 -0.2638
 4148ntf    on523336   5.638   1.998   2.598  0.3044  0.2776  0.2797
 4148ntf    on523337   5.820   2.157   2.622 -0.3145  0.2688  1.3463
 4148ntf    fn423338   5.713   2.041   2.869  0.3165  0.0927  0.3291
 4148ntf    fn423339   5.781   1.842   2.821  0.1034  0.0853 -0.0345
 4148ntf    fn423340   5.913   1.999   2.855  0.1035 -0.1653 -0.0503
 4149ntf    cn123341   2.058   6.242   3.331 -0.5728  0.4713 -0.1966
 4149ntf    sn223342   2.202   6.320   3.251 -0.1676 -0.1516 -0.0791
 4149ntf    nn323343   2.143   6.379   3.118  0.0398 -0.5374 -0.3452
 4149ntf    sn223344   2.177   6.501   3.025  0.2442 -0.3866 -0.0747
 4149ntf    cn123345   2.065   6.630   3.089  0.2549 -0.2964 -0.2381
 4149ntf    fn423346   1.970   6.332   3.372 -0.7420  0.3296 -0.2487
 4149ntf    fn423347   2.001   6.151   3.253 -0.3052  0.3849 -0.2936
 4149ntf    fn423348   2.095   6.168   3.434 -0.1777  0.0479 -0.6362
 4149ntf    on523349   2.243   6.419   3.348  0.5125  0.1466 -0.6652
 4149ntf    on523350   2.296   6.212   3.230  0.2577  0.0570  0.7137
 4149ntf    on523351   2.134   6.482   2.889 -0.5945 -0.2750  0.1660
 4149ntf    on523352   2.308   6.558   3.038 -0.0532  0.3301 -0.1760
 4149ntf    fn423353   1.935   6.605   3.081  0.2163 -0.1822  0.0145
 4149ntf    fn423354   2.097   6.649   3.216  0.3535 -0.8650 -0.1739
 4149ntf    fn423355   2.101   6.736   3.018 -0.2737  0.0561  0.0124
 4150ntf    cn123356   3.897   5.258   4.304  0.2894  0.4027 -0.1256
 4150ntf    sn223357   3.857   5.161   4.452  0.6389  0.1690 -0.1824
 4150ntf    nn323358   3.981   5.065   4.457  0.1452 -0.4646  0.1190
 4150ntf    sn223359   4.111   5.096   4.540 -0.0818 -0.1718  0.3702
 4150ntf    cn123360   4.050   5.051   4.705 -0.1896 -0.3077  0.2933
 4150ntf    fn423361   3.898   5.188   4.192  0.7336 -0.2271  0.2597
 4150ntf    fn423362   3.804   5.351   4.296 -0.3107 -0.1493  0.3303
 4150ntf    fn423363   4.013   5.321   4.318  0.2616  0.3292  0.4797
 4150ntf    on523364   3.850   5.264   4.552 -0.3466 -0.4051  0.3536
 4150ntf    on523365   3.735   5.089   4.426  0.0335  0.8935  0.5830
 4150ntf    on523366   4.148   5.234   4.558 -0.5932  0.0405 -0.1797
 4150ntf    on523367   4.215   4.998   4.517  0.2220  0.0937  0.5960
 4150ntf    fn423368   4.136   5.091   4.797 -0.1416 -0.0192  0.1219
 4150ntf    fn423369   3.935   5.106   4.739 -0.0957  0.0297  0.0675
 4150ntf    fn423370   4.046   4.920   4.722 -0.0172 -0.2515  0.7808
 4151ntf    cn123371   6.959   4.346   6.456  0.4441 -0.0061 -0.1663
 4151ntf    sn223372   6.886   4.188   6.507 -0.1406  0.3105 -0.0204
 4151ntf    nn323373   6.736   4.234   6.510 -0.0460  0.6525 -0.5015
 4151ntf    sn223374   6.626   4.223   6.622  0.2697 -0.2267 -0.2751
 4151ntf    cn123375   6.515   4.102   6.542  0.0687 -0.1546 -0.1067
 4151ntf    fn423376   7.091   4.338   6.463  0.4778  0.9786  0.6221
 4151ntf    fn423377   6.918   4.389   6.338  0.1071  0.1167 -0.0029
 4151ntf    fn423378   6.924   4.436   6.547  0.7086 -0.0096 -0.0571
 4151ntf    on523379   6.911   4.095   6.400 -0.1621  0.0326  0.2156
 4151ntf    on523380   6.953   4.152   6.629 -0.8341 -0.1262  0.2413
 4151ntf    on523381   6.548   4.342   6.644  0.5126 -0.1010 -0.0962
 4151ntf    on523382   6.659   4.158   6.746  0.5438  0.5854  0.0829
 4151ntf    fn423383   6.464   4.133   6.424  0.6049 -0.3982 -0.4069
 4151ntf    fn423384   6.584   3.992   6.517  0.0646 -0.1353 -0.2050
 4151ntf    fn423385   6.413   4.064   6.616  0.3048 -0.4224  0.0852
 4152ntf    cn123386   5.435   3.356   1.813  0.0270 -0.0853  0.1405
 4152ntf    sn223387   5.483   3.268   1.964  0.3668  0.2354  0.2197
 4152ntf    nn323388   5.628   3.323   1.989  0.3216  0.6797 -0.4551
 4152ntf    sn223389   5.671   3.456   2.061  0.1520  0.3326  0.3056
 4152ntf    cn123390   5.770   3.543   1.936  0.0317 -0.1558 -0.1350
 4152ntf    fn423391   5.526   3.350   1.717 -0.2996 -0.0940 -0.1744
 4152ntf    fn423392   5.322   3.319   1.754 -0.0597 -0.2187  0.3915
 4152ntf    fn423393   5.419   3.485   1.839 -0.0193 -0.1955  0.6609
 4152ntf    on523394   5.383   3.298   2.064  0.4419  0.8388  0.1152
 4152ntf    on523395   5.496   3.129   1.927 -0.5511  0.1434  0.2060
 4152ntf    on523396   5.778   3.430   2.153  0.2587  0.1777  0.1378
 4152ntf    on523397   5.566   3.546   2.102 -0.0692  0.0144  0.4454
 4152ntf    fn423398   5.809   3.662   1.978  0.1133 -0.2814  0.1464
 4152ntf    fn423399   5.878   3.471   1.908 -0.1427 -0.4176 -0.1379
 4152ntf    fn423400   5.708   3.563   1.821 -0.4087  0.4630  0.2110
 4153ntf    cn123401   6.712   3.216   2.866 -0.0873  0.2508  0.5629
 4153ntf    sn223402   6.856   3.321   2.830 -0.1733  0.2616  0.2464
 4153ntf    nn323403   6.797   3.410   2.715  0.1464 -0.0399 -0.1556
 4153ntf    sn223404   6.736   3.555   2.727  0.0384 -0.1031  0.0777
 4153ntf    cn123405   6.876   3.658   2.673 -0.0068 -0.0456  0.0720
 4153ntf    fn423406   6.687   3.144   2.758  0.1049  0.6186  0.2708
 4153ntf    fn423407   6.739   3.126   2.959 -0.0664  0.0534  0.3679
 4153ntf    fn423408   6.601   3.278   2.903 -0.2322  0.3360 -0.0050
 4153ntf    on523409   6.882   3.386   2.956  0.4091 -0.1513  0.3434
 4153ntf    on523410   6.953   3.230   2.774 -0.1941  0.2201  0.2772
 4153ntf    on523411   6.705   3.613   2.855  0.0388 -0.7043  0.3539
 4153ntf    on523412   6.639   3.583   2.624 -0.0026 -0.1286  0.1099
 4153ntf    fn423413   6.908   3.624   2.549 -0.3401  0.2757 -0.1028
 4153ntf    fn423414   6.839   3.785   2.667  0.3096  0.0377 -0.1283
 4153ntf    fn423415   6.984   3.658   2.750  0.1349  0.0788 -0.1236
 4154ntf    cn123416   0.018   1.097   2.971 -0.3299 -0.0532  0.0162
 4154ntf    sn223417  -0.143   1.034   3.029 -0.1934 -0.2805  0.1488
 4154ntf    nn323418  -0.084   0.929   3.130  0.0905 -0.3010 -0.0359
 4154ntf    sn223419  -0.156   0.806   3.195 -0.1517 -0.1068  0.0679
 4154ntf    cn123420  -0.169   0.847   3.372 -0.1615 -0.1626  0.0802
 4154ntf    fn423421  -0.009   1.185   2.876  0.2309 -0.1742 -0.2600
 4154ntf    fn423422   0.085   1.157   3.069 -0.2035 -0.3850  0.1328
 4154ntf    fn423423   0.101   1.004   2.929  0.0443  0.4026 -0.2676
 4154ntf    on523424  -0.199   1.148   3.098  0.1817 -0.3491  0.5744
 4154ntf    on523425  -0.209   0.980   2.913 -0.0140 -0.0293 -0.0729
 4154ntf    on523426  -0.075   0.687   3.193 -0.2094 -0.1459  0.0557
 4154ntf    on523427  -0.290   0.777   3.151 -0.2413  0.5431 -0.0927
 4154ntf    fn423428  -0.195   0.736   3.439 -0.4669 -0.5201 -0.6130
 4154ntf    fn423429  -0.055   0.894   3.418  0.0167 -0.6558  0.1459
 4154ntf    fn423430  -0.265   0.933   3.403  0.2607  0.3759 -0.0889
 4155ntf    cn123431   6.588   2.899   2.325  0.0923 -0.1733  0.1739
 4155ntf    sn223432   6.606   3.053   2.229  0.0219 -0.3105 -0.0609
 4155ntf    nn323433   6.665   2.983   2.102 -0.2791  0.3044 -0.5428
 4155ntf    sn223434   6.817   2.991   2.062 -0.0694 -0.3886  0.0926
 4155ntf    cn123435   6.829   3.166   2.015  0.2846 -0.5230 -0.3265
 4155ntf    fn423436   6.563   2.917   2.453  0.0805 -0.5874  0.2303
 4155ntf    fn423437   6.498   2.814   2.278 -0.4209  0.4985 -0.0807
 4155ntf    fn423438   6.704   2.836   2.312  0.2760  0.1783  0.0879
 4155ntf    on523439   6.467   3.085   2.207  0.0961 -0.3982 -0.6628
 4155ntf    on523440   6.691   3.135   2.312  0.1049 -0.2215 -0.2350
 4155ntf    on523441   6.841   2.925   1.936 -1.0167 -0.5782  0.0003
 4155ntf    on523442   6.918   2.970   2.163  0.1078  0.0039 -0.0026
 4155ntf    fn423443   6.945   3.177   1.953  0.0423  0.4371 -0.6325
 4155ntf    fn423444   6.738   3.198   1.924  0.0084  0.1851  0.1933
 4155ntf    fn423445   6.814   3.254   2.112  0.0010  0.0333 -0.8651
 4156ntf    cn123446   1.783   3.719   7.051  0.2053  0.1186  0.3914
 4156ntf    sn223447   1.750   3.885   6.986  0.0262 -0.0295  0.0994
 4156ntf    nn323448   1.896   3.938   7.005  0.0567 -0.0412 -0.0978
 4156ntf    sn223449   1.991   4.020   6.911  0.0875 -0.1233 -0.1379
 4156ntf    cn123450   2.122   4.082   7.021 -0.4552  0.2214  0.3143
 4156ntf    fn423451   1.843   3.731   7.168  0.7904  0.2171  0.0806
 4156ntf    fn423452   1.676   3.641   7.057  0.1333  0.2112  0.3203
 4156ntf    fn423453   1.868   3.656   6.972 -0.3226 -0.1470  0.0227
 4156ntf    on523454   1.717   3.856   6.849 -0.0285  0.8078 -0.0709
 4156ntf    on523455   1.654   3.944   7.076 -0.4319 -0.0649 -0.3633
 4156ntf    on523456   1.936   4.136   6.846  0.0859  0.0232  0.1246
 4156ntf    on523457   2.071   3.935   6.825 -0.1484 -0.7928  0.2919
 4156ntf    fn423458   2.082   4.176   7.105  0.1908  0.5181  0.2915
 4156ntf    fn423459   2.189   3.991   7.089  0.3606  0.5386 -0.0583
 4156ntf    fn423460   2.220   4.135   6.950 -0.1167 -0.1097  0.5346
 4157ntf    cn123461   0.212   3.094   6.857 -0.1473 -0.5109  0.1591
 4157ntf    sn223462   0.042   3.149   6.823  0.1034  0.0893 -0.1294
 4157ntf    nn323463   0.053   3.304   6.845 -0.0166  0.1316 -0.3610
 4157ntf    sn223464   0.106   3.424   6.759  0.2273  0.2573 -0.0348
 4157ntf    cn123465   0.257   3.465   6.853 -0.0079  0.3337  0.3134
 4157ntf    fn423466   0.212   2.962   6.867 -0.3270 -0.5444 -0.2596
 4157ntf    fn423467   0.285   3.133   6.754  0.0704 -0.4317  0.3435
 4157ntf    fn423468   0.271   3.145   6.964 -0.0656 -0.0944 -0.0802
 4157ntf    on523469   0.008   3.110   6.688  0.1500 -0.1899 -0.0608
 4157ntf    on523470  -0.030   3.084   6.929 -1.0374  0.2193 -0.8079
 4157ntf    on523471   0.021   3.541   6.766 -0.1491  0.0027 -0.3608
 4157ntf    on523472   0.138   3.372   6.629  0.4791 -0.2955  0.2468
 4157ntf    fn423473   0.358   3.384   6.826 -0.3300  0.1278 -0.3070
 4157ntf    fn423474   0.310   3.578   6.809  0.0481  0.1505 -0.0993
 4157ntf    fn423475   0.237   3.466   6.983 -0.5028 -0.1815  0.2481
 4158ntf    cn123476   0.017   3.786   5.953  0.2501  0.3372  0.0738
 4158ntf    sn223477   0.112   3.932   6.004  0.2063  0.3503  0.1178
 4158ntf    nn323478   0.046   3.948   6.145  0.5306 -0.5543  0.3794
 4158ntf    sn223479   0.106   4.020   6.272  0.2611 -0.3654  0.4010
 4158ntf    cn123480   0.049   4.186   6.224  0.3329 -0.4135  0.1464
 4158ntf    fn423481   0.052   3.745   5.831 -0.0202  0.3604 -0.0125
 4158ntf    fn423482   0.026   3.686   6.040 -0.0664  0.1287 -0.1302
 4158ntf    fn423483  -0.114   3.807   5.946  0.1876  0.1767  0.6874
 4158ntf    on523484   0.250   3.892   5.997  0.2055  0.3898 -0.1256
 4158ntf    on523485   0.075   4.031   5.905 -0.1322  0.8996  0.7874
 4158ntf    on523486   0.248   4.036   6.288  0.3311 -0.0573 -0.4404
 4158ntf    on523487   0.033   3.991   6.392  0.4458 -0.0350  0.5950
 4158ntf    fn423488   0.126   4.239   6.130 -0.1168 -0.2618 -0.1394
 4158ntf    fn423489  -0.072   4.183   6.171  0.3550 -0.6132  0.1053
 4158ntf    fn423490   0.049   4.271   6.325  0.2426 -0.4714  0.1959
 4159ntf    cn123491   5.722   1.270   4.421 -0.1703 -0.0287 -0.1318
 4159ntf    sn223492   5.695   1.450   4.422  0.2632  0.0376 -0.1311
 4159ntf    nn323493   5.793   1.481   4.541  0.2829 -0.3941 -0.0319
 4159ntf    sn223494   5.915   1.579   4.556 -0.0499 -0.0081  0.1982
 4159ntf    cn123495   6.049   1.486   4.476  0.1027  0.3420  0.0472
 4159ntf    fn423496   5.845   1.227   4.398 -0.0767  0.3268 -0.3072
 4159ntf    fn423497   5.685   1.215   4.535 -0.2426 -0.2733 -0.2726
 4159ntf    fn423498   5.649   1.210   4.328  0.3032 -0.1874 -0.4084
 4159ntf    on523499   5.737   1.497   4.292  0.7578  0.6164  0.2308
 4159ntf    on523500   5.556   1.467   4.457  0.1892 -0.0946 -0.3584
 4159ntf    on523501   5.949   1.591   4.695  0.0090 -0.1970  0.2008
 4159ntf    on523502   5.907   1.696   4.472  0.0441  0.4072  0.7597
 4159ntf    fn423503   6.043   1.356   4.495 -0.1497  0.3932  0.3166
 4159ntf    fn423504   6.060   1.501   4.345 -0.8539 -0.1545 -0.0979
 4159ntf    fn423505   6.161   1.527   4.534  0.1538  0.2943 -0.0179
 4160ntf    cn123506   2.125   5.138   0.548  0.2972  0.1941  0.0054
 4160ntf    sn223507   1.966   5.061   0.591  0.2747  0.1181 -0.2107
 4160ntf    nn323508   1.869   5.097   0.473  0.4419  0.0569 -0.3673
 4160ntf    sn223509   1.735   5.024   0.433  0.3642  0.0247 -0.0547
 4160ntf    cn123510   1.785   4.906   0.305 -0.1655 -0.2475 -0.0121
 4160ntf    fn423511   2.146   5.111   0.420 -0.5707 -0.1083 -0.0774
 4160ntf    fn423512   2.122   5.268   0.572  0.0239  0.3296 -0.7318
 4160ntf    fn423513   2.225   5.088   0.618  0.4815  0.3017 -0.1803
 4160ntf    on523514   1.999   4.921   0.587  0.1714  0.0821  0.1460
 4160ntf    on523515   1.940   5.128   0.717 -0.6294 -0.6176 -0.0006
 4160ntf    on523516   1.638   5.117   0.379 -0.1034 -0.4700 -0.0709
 4160ntf    on523517   1.692   4.930   0.533  0.2294 -0.0291 -0.1640
 4160ntf    fn423518   1.685   4.872   0.226 -0.1850  0.3855 -0.2684
 4160ntf    fn423519   1.873   4.960   0.222  0.3262  0.1547  0.7676
 4160ntf    fn423520   1.845   4.795   0.343  0.1343 -0.1103 -0.0800
 4161ntf    cn123521   0.101   0.123   5.061 -0.2462 -0.2104  0.2874
 4161ntf    sn223522   0.218   0.202   5.175 -0.1081  0.1681 -0.1141
 4161ntf    nn323523   0.126   0.295   5.261 -0.7080 -0.4025 -0.1333
 4161ntf    sn223524   0.063   0.435   5.230  0.0939  0.0653  0.3034
 4161ntf    cn123525   0.166   0.558   5.315  0.0520  0.4067 -0.1376
 4161ntf    fn423526   0.045   0.202   4.971  0.2571  0.3894  0.4980
 4161ntf    fn423527   0.166   0.027   4.996 -0.2123  0.4975 -0.7468
 4161ntf    fn423528   0.003   0.058   5.122 -0.4403 -0.3903 -0.2051
 4161ntf    on523529   0.262   0.091   5.257 -0.3995  0.5630  0.5821
 4161ntf    on523530   0.314   0.264   5.086  0.2351 -0.1369  0.0380
 4161ntf    on523531  -0.065   0.444   5.296  0.0941  0.9525  0.1991
 4161ntf    on523532   0.063   0.479   5.092 -0.6830  0.1003  0.3082
 4161ntf    fn423533   0.296   0.541   5.299  0.1126 -0.1004  0.8522
 4161ntf    fn423534   0.134   0.683   5.285  0.1211  0.3859 -0.2977
 4161ntf    fn423535   0.143   0.539   5.444 -0.2486  0.7432 -0.1394
 4162ntf    cn123536   6.771   4.521   0.595  0.2038 -0.0707  0.2500
 4162ntf    sn223537   6.805   4.343   0.614 -0.3334 -0.1994  0.0143
 4162ntf    nn323538   6.827   4.323   0.768 -0.4499 -0.2006  0.0309
 4162ntf    sn223539   6.889   4.204   0.850  0.2482  0.0297 -0.1524
 4162ntf    cn123540   6.853   4.262   1.018 -0.1118 -0.0555 -0.1973
 4162ntf    fn423541   6.716   4.569   0.705  0.1330  0.0347  0.1682
 4162ntf    fn423542   6.881   4.592   0.576  0.4374 -0.3248  0.6253
 4162ntf    fn423543   6.689   4.559   0.499  0.1087  0.0443  0.3762
 4162ntf    on523544   6.692   4.278   0.552 -0.1311 -0.1430 -0.4169
 4162ntf    on523545   6.928   4.335   0.539 -0.6608 -0.5388 -0.4906
 4162ntf    on523546   7.031   4.218   0.836  0.2477 -0.0320 -0.2234
 4162ntf    on523547   6.819   4.078   0.836  0.4095 -0.0346 -0.3799
 4162ntf    fn423548   6.923   4.196   1.109 -0.4137  0.0731  0.1305
 4162ntf    fn423549   6.885   4.389   1.043 -0.1146 -0.1204  0.1431
 4162ntf    fn423550   6.728   4.255   1.060 -0.1260 -0.2941 -0.2789
 4163ntf    cn123551   1.448   1.993   0.794  0.2290  0.0135 -0.2364
 4163ntf    sn223552   1.584   1.883   0.844  0.1241  0.1701  0.4064
 4163ntf    nn323553   1.588   1.792   0.716  0.2823  0.4277  0.2279
 4163ntf    sn223554   1.717   1.737   0.645 -0.0771 -0.1744  0.0307
 4163ntf    cn123555   1.739   1.850   0.504 -0.2954 -0.4678 -0.2426
 4163ntf    fn423556   1.404   2.072   0.891 -0.1763 -0.5350  0.0379
 4163ntf    fn423557   1.486   2.078   0.701  0.4823  0.5373  0.3400
 4163ntf    fn423558   1.341   1.930   0.748  0.5114 -0.3512 -0.4002
 4163ntf    on523559   1.692   1.977   0.859 -0.0054  0.4326 -0.2751
 4163ntf    on523560   1.530   1.809   0.955 -0.1720  0.1919  0.2798
 4163ntf    on523561   1.685   1.616   0.573 -0.7972 -0.1063  0.2191
 4163ntf    on523562   1.842   1.752   0.715 -0.1493 -0.3380  0.1946
 4163ntf    fn423563   1.630   1.851   0.429 -0.4257 -0.4867 -0.0549
 4163ntf    fn423564   1.756   1.975   0.545 -0.3915 -0.5012 -0.0982
 4163ntf    fn423565   1.842   1.810   0.432 -0.3035 -0.5772 -0.1926
 4164ntf    cn123566   4.681   5.981   3.681  0.2973  0.1861  0.0750
 4164ntf    sn223567   4.702   6.039   3.510  0.2407 -0.0914 -0.0249
 4164ntf    nn323568   4.843   5.985   3.465  0.3247  0.3098 -0.2428
 4164ntf    sn223569   4.875   5.847   3.399 -0.3458  0.0855 -0.1121
 4164ntf    cn123570   4.922   5.916   3.238 -0.1137 -0.4137 -0.2622
 4164ntf    fn423571   4.774   5.893   3.712 -0.2136 -0.3689  0.0550
 4164ntf    fn423572   4.681   6.079   3.770  0.3579 -0.1555  0.4545
 4164ntf    fn423573   4.565   5.918   3.692  0.1104  0.6136  0.6059
 4164ntf    on523574   4.592   5.980   3.437 -0.2277  0.1352  0.4850
 4164ntf    on523575   4.693   6.182   3.514  0.2583 -0.0869 -0.1401
 4164ntf    on523576   4.769   5.754   3.371 -0.0419 -0.3976  0.3007
 4164ntf    on523577   4.998   5.790   3.450 -0.2337  0.6972  0.3125
 4164ntf    fn423578   4.826   5.990   3.185 -0.0228 -0.0916  0.0189
 4164ntf    fn423579   5.029   5.993   3.246 -0.2366 -0.2673  0.0166
 4164ntf    fn423580   4.951   5.817   3.155 -0.2104 -0.5036 -0.1897
 4165ntf    cn123581   7.172   1.079   1.014 -0.0032  0.5506 -0.1958
 4165ntf    sn223582   7.202   1.053   1.191 -0.1580  0.0298 -0.2437
 4165ntf    nn323583   7.063   0.991   1.232  0.0636 -0.2238  0.1349
 4165ntf    sn223584   7.009   0.972   1.377  0.1913  0.0720  0.2220
 4165ntf    cn123585   6.975   1.144   1.426  0.2543  0.1353  0.0407
 4165ntf    fn423586   7.066   1.155   0.990 -0.4604  0.0075  0.0727
 4165ntf    fn423587   7.283   1.118   0.953  0.0304  0.7081 -0.0323
 4165ntf    fn423588   7.152   0.959   0.961 -0.2718  0.4891  0.0436
 4165ntf    on523589   7.311   0.959   1.182 -0.1705  0.0511 -0.6004
 4165ntf    on523590   7.227   1.187   1.238 -0.3660  0.1103 -0.3638
 4165ntf    on523591   7.112   0.934   1.471  0.1377 -0.0441  0.2343
 4165ntf    on523592   6.880   0.906   1.385  0.1261  0.1286 -0.3597
 4165ntf    fn423593   7.086   1.212   1.449  0.3065  0.0830 -0.0546
 4165ntf    fn423594   6.902   1.212   1.340 -0.0334  0.1010  0.2573
 4165ntf    fn423595   6.900   1.140   1.535 -0.1262 -0.3872 -0.2318
 4166ntf    cn123596   4.865   1.756   6.814 -0.4159  0.0909 -0.2192
 4166ntf    sn223597   4.824   1.742   6.990  0.1070  0.0389 -0.1026
 4166ntf    nn323598   4.749   1.880   6.994 -0.0296 -0.0376 -0.0400
 4166ntf    sn223599   4.594   1.903   7.003 -0.0488 -0.1342 -0.1182
 4166ntf    cn123600   4.593   2.048   6.894  0.6415 -0.2024 -0.2153
 4166ntf    fn423601   4.929   1.648   6.771  0.0072 -0.1650  1.0168
 4166ntf    fn423602   4.761   1.774   6.734  0.1109  0.1072 -0.9068
 4166ntf    fn423603   4.950   1.855   6.797 -0.1598 -0.0975 -0.0363
 4166ntf    on523604   4.752   1.617   6.988  0.2108 -0.0239  0.0540
 4166ntf    on523605   4.954   1.742   7.054  0.1761  0.0231 -0.2440
 4166ntf    on523606   4.545   1.954   7.129  0.2228 -0.6425  0.1943
 4166ntf    on523607   4.510   1.812   6.929  0.6048 -0.4332 -0.4910
 4166ntf    fn423608   4.475   2.103   6.874  0.4681 -0.4419  0.1449
 4166ntf    fn423609   4.664   2.148   6.946 -0.0075 -0.0626  0.4177
 4166ntf    fn423610   4.645   2.030   6.774  0.3082 -0.0724 -0.3792
 4167ntf    cn123611   4.294   5.251   6.933  0.1628 -0.4529 -0.1345
 4167ntf    sn223612   4.218   5.285   6.771 -0.0661  0.0272  0.0701
 4167ntf    nn323613   4.078   5.343   6.814  0.1365  0.0703  0.6774
 4167ntf    sn223614   3.995   5.460   6.750  0.2084 -0.1960  0.0935
 4167ntf    cn123615   3.861   5.364   6.672 -0.0362  0.2216 -0.0022
 4167ntf    fn423616   4.244   5.141   6.986  0.3382 -0.3217  0.3054
 4167ntf    fn423617   4.422   5.222   6.918  0.3035 -0.0576  0.2788
 4167ntf    fn423618   4.280   5.346   7.024  0.0657 -0.0553 -0.5582
 4167ntf    on523619   4.306   5.382   6.712 -0.6968  0.4681 -0.1637
 4167ntf    on523620   4.211   5.153   6.713 -0.1493 -0.1767  0.5356
 4167ntf    on523621   4.062   5.533   6.645 -0.0851  0.5958  0.4478
 4167ntf    on523622   3.929   5.544   6.847 -0.0981 -0.6104  0.2452
 4167ntf    fn423623   3.774   5.317   6.759 -0.0200 -0.4399 -0.3391
 4167ntf    fn423624   3.791   5.445   6.594 -0.1750  0.1184  0.0168
 4167ntf    fn423625   3.886   5.260   6.595 -0.6440  0.5274 -0.6270
 4168ntf    cn123626   7.199   3.434   1.165  0.2319  0.5199 -0.2860
 4168ntf    sn223627   7.349   3.477   1.258  0.1529  0.0687  0.0497
 4168ntf    nn323628   7.387   3.604   1.175 -0.0850  0.0010 -0.1637
 4168ntf    sn223629   7.373   3.755   1.216 -0.2031 -0.1079  0.2005
 4168ntf    cn123630   7.549   3.784   1.250 -0.1858 -0.2551  0.2380
 4168ntf    fn423631   7.214   3.400   1.038  0.0759 -0.4732 -0.0405
 4168ntf    fn423632   7.122   3.338   1.213  0.4141  0.2836 -0.4660
 4168ntf    fn423633   7.125   3.544   1.167 -0.0550  0.3302 -0.4734
 4168ntf    on523634   7.302   3.496   1.393  0.1887 -0.3150  0.1188
 4168ntf    on523635   7.439   3.365   1.240  0.1693  0.0182  0.4289
 4168ntf    on523636   7.314   3.787   1.343 -0.1163 -0.4186  0.3184
 4168ntf    on523637   7.343   3.843   1.106  0.3705 -0.3012 -0.1168
 4168ntf    fn423638   7.624   3.755   1.145 -0.1445 -0.0331  0.2043
 4168ntf    fn423639   7.587   3.899   1.305  0.1743 -0.4008  0.3028
 4168ntf    fn423640   7.588   3.700   1.345  0.0309  0.1806  0.5404
 4169ntf    cn123641   2.955   2.517   6.892 -0.2503  0.0748 -0.0997
 4169ntf    sn223642   3.043   2.661   6.825  0.2189 -0.2385 -0.1562
 4169ntf    nn323643   3.171   2.594   6.763  0.1390  0.3086 -0.9360
 4169ntf    sn223644   3.178   2.507   6.633 -0.1952 -0.0690 -0.7048
 4169ntf    cn123645   3.291   2.618   6.544  0.2002 -0.2512 -0.4327
 4169ntf    fn423646   3.020   2.459   6.992 -0.1597  0.0032 -0.2000
 4169ntf    fn423647   2.834   2.554   6.932 -0.4942 -0.1819 -0.5883
 4169ntf    fn423648   2.934   2.427   6.798  0.1483  0.0584 -0.1760
 4169ntf    on523649   2.946   2.716   6.734  0.2255  0.1673  0.0778
 4169ntf    on523650   3.073   2.736   6.944  0.0508  0.2517 -0.4197
 4169ntf    on523651   3.063   2.483   6.549 -0.1324  0.2291 -0.8777
 4169ntf    on523652   3.265   2.394   6.653 -0.3729 -0.0577  0.1822
 4169ntf    fn423653   3.404   2.631   6.611  0.1433 -0.0826 -0.3688
 4169ntf    fn423654   3.322   2.578   6.422  0.6372 -0.2622 -0.3169
 4169ntf    fn423655   3.241   2.740   6.534 -0.0420 -0.3070  0.0767
 4170ntf    cn123656   4.998   6.432   0.443 -0.1898  0.0654  0.0840
 4170ntf    sn223657   4.901   6.439   0.289  0.0378  0.0528 -0.0601
 4170ntf    nn323658   5.020   6.439   0.187  0.0732 -0.6094 -0.0274
 4170ntf    sn223659   5.117   6.555   0.142 -0.4154 -0.1742  0.0267
 4170ntf    cn123660   4.997   6.658   0.053 -0.2378  0.2363  0.2600
 4170ntf    fn423661   4.930   6.424   0.557  0.0795 -0.9526  0.1808
 4170ntf    fn423662   5.074   6.324   0.442  0.1311  0.2905  0.0471
 4170ntf    fn423663   5.080   6.535   0.460 -0.7281  0.5295 -0.0829
 4170ntf    on523664   4.835   6.310   0.288 -0.1639  0.1579 -0.9526
 4170ntf    on523665   4.811   6.551   0.288  0.3192  0.2742 -0.7549
 4170ntf    on523666   5.217   6.521   0.045 -0.4679  0.1307 -0.1328
 4170ntf    on523667   5.162   6.644   0.246 -0.3757 -0.0539 -0.0948
 4170ntf    fn423668   4.930   6.730   0.142 -0.1081  0.0691  0.4948
 4170ntf    fn423669   5.044   6.748  -0.031 -0.6886  0.3912  0.1688
 4170ntf    fn423670   4.910   6.580  -0.009  0.2046 -0.6240  0.7105
 4171ntf    cn123671   5.664   0.074   4.708 -0.0386 -0.5515 -0.0637
 4171ntf    sn223672   5.551   0.002   4.586 -0.1805 -0.2466 -0.1140
 4171ntf    nn323673   5.468  -0.101   4.670 -0.2535 -0.0540  0.0491
 4171ntf    sn223674   5.488  -0.256   4.688 -0.2090 -0.0605 -0.0598
 4171ntf    cn123675   5.380  -0.310   4.552 -0.5125  0.1265  0.1055
 4171ntf    fn423676   5.750   0.153   4.646 -0.5924  0.2171  0.1393
 4171ntf    fn423677   5.605   0.131   4.812  0.1033 -0.8825  0.2018
 4171ntf    fn423678   5.743  -0.019   4.760  0.4064 -0.3853 -0.4361
 4171ntf    on523679   5.467   0.114   4.555  0.2165  0.2115  0.4349
 4171ntf    on523680   5.632  -0.060   4.483 -0.2838 -0.0154 -0.3359
 4171ntf    on523681   5.410  -0.308   4.798  0.1569  0.0082  0.2326
 4171ntf    on523682   5.615  -0.313   4.653 -0.3591  0.0678 -0.8362
 4171ntf    fn423683   5.404  -0.252   4.436  0.5343 -0.1573  0.1701
 4171ntf    fn423684   5.384  -0.442   4.535  0.3321  0.1913 -0.2546
 4171ntf    fn423685   5.252  -0.283   4.570 -0.4987  0.2373  0.0389
 4172ntf    cn123686   0.565   1.208   0.489  0.5761  0.5254  0.1841
 4172ntf    sn223687   0.461   1.339   0.561  0.0539  0.2531 -0.0694
 4172ntf    nn323688   0.317   1.281   0.540  0.0785  0.1179  0.1275
 4172ntf    sn223689   0.240   1.200   0.651 -0.0690  0.1599  0.0566
 4172ntf    cn123690   0.067   1.236   0.610 -0.1638  0.0332  0.3475
 4172ntf    fn423691   0.677   1.264   0.446  0.3200  0.5813 -0.4318
 4172ntf    fn423692   0.594   1.113   0.576  0.0556 -0.2050 -0.4275
 4172ntf    fn423693   0.522   1.146   0.380  0.5903 -0.1891  0.5799
 4172ntf    on523694   0.510   1.355   0.696 -0.2626 -0.0987  0.0886
 4172ntf    on523695   0.474   1.452   0.473 -0.1250  0.9502  0.7879
 4172ntf    on523696   0.244   1.256   0.784  0.5063  0.1800  0.0340
 4172ntf    on523697   0.255   1.057   0.642 -0.2974  0.1234  0.2454
 4172ntf    fn423698   0.055   1.363   0.577  0.1711  0.0076  0.1266
 4172ntf    fn423699   0.034   1.176   0.496  0.2633 -0.3577  0.4260
 4172ntf    fn423700  -0.020   1.199   0.703 -0.7128 -0.1038 -0.2152
 4173ntf    cn123701   4.990   2.257   6.682 -0.4724 -0.1032  0.3639
 4173ntf    sn223702   5.016   2.402   6.575  0.1219 -0.3638  0.1508
 4173ntf    nn323703   5.134   2.341   6.491 -0.0494 -0.0353 -0.3280
 4173ntf    sn223704   5.202   2.405   6.364 -0.0698 -0.0834 -0.3631
 4173ntf    cn123705   5.125   2.299   6.238 -0.0835 -0.4468 -0.0497
 4173ntf    fn423706   5.043   2.273   6.802  0.2115 -0.2715  0.0889
 4173ntf    fn423707   4.864   2.220   6.696 -0.5652  0.0876  0.0509
 4173ntf    fn423708   5.050   2.155   6.623 -0.0557 -0.1064  0.7906
 4173ntf    on523709   4.896   2.429   6.500  0.2473  0.2863  0.1750
 4173ntf    on523710   5.069   2.504   6.662 -0.0969  0.3013 -0.4816
 4173ntf    on523711   5.343   2.377   6.363  0.0419  0.4326  0.2650
 4173ntf    on523712   5.161   2.539   6.328  0.1540 -0.0145 -0.3631
 4173ntf    fn423713   5.170   2.175   6.252 -0.3609 -0.5540 -0.0942
 4173ntf    fn423714   4.993   2.289   6.252 -0.1359 -0.0255 -0.2486
 4173ntf    fn423715   5.144   2.347   6.117  0.5225 -0.0871  0.1871
 4174ntf    cn123716   3.658   1.644   6.252  0.4462 -0.1712  0.2074
 4174ntf    sn223717   3.538   1.774   6.210  0.6304 -0.0647  0.0071
 4174ntf    nn323718   3.625   1.899   6.247 -0.0677  0.4491 -0.0557
 4174ntf    sn223719   3.698   2.010   6.163  0.2409  0.0922 -0.2657
 4174ntf    cn123720   3.627   2.162   6.232 -0.0208 -0.1918  0.0947
 4174ntf    fn423721   3.635   1.529   6.191 -0.0563  0.1803 -0.2712
 4174ntf    fn423722   3.784   1.680   6.230  0.2494  0.3604 -0.0831
 4174ntf    fn423723   3.653   1.626   6.383  0.0264 -0.3787  0.1638
 4174ntf    on523724   3.512   1.742   6.072  0.2440 -0.0695  0.0799
 4174ntf    on523725   3.432   1.758   6.307  0.4424 -0.4081 -0.2494
 4174ntf    on523726   3.676   2.021   6.021 -0.3525  0.1121 -0.1752
 4174ntf    on523727   3.836   2.021   6.203  0.1031  0.1174  0.2142
 4174ntf    fn423728   3.671   2.268   6.166 -0.4357 -0.0693  0.0154
 4174ntf    fn423729   3.495   2.164   6.227 -0.0275  0.4949  0.3307
 4174ntf    fn423730   3.654   2.187   6.360 -0.0003  0.1857  0.0187
 4175ntf    cn123731   2.562   2.614   0.387 -0.2781  0.1633  0.1459
 4175ntf    sn223732   2.513   2.463   0.476  0.1904 -0.2706 -0.3185
 4175ntf    nn323733   2.545   2.505   0.624 -0.3212 -0.2231 -0.2197
 4175ntf    sn223734   2.444   2.592   0.706 -0.0725 -0.0374 -0.1066
 4175ntf    cn123735   2.366   2.472   0.819  0.5154 -0.2472  0.0785
 4175ntf    fn423736   2.692   2.641   0.381 -0.1709 -0.3244  0.2114
 4175ntf    fn423737   2.520   2.610   0.261 -0.4933  0.1631  0.2188
 4175ntf    fn423738   2.501   2.720   0.436 -0.2339  0.2870 -0.0620
 4175ntf    on523739   2.377   2.438   0.439  0.0269  0.4385 -0.2252
 4175ntf    on523740   2.604   2.363   0.426  0.7404  0.2938 -0.4680
 4175ntf    on523741   2.328   2.648   0.641 -0.1663 -0.0404  0.0565
 4175ntf    on523742   2.520   2.680   0.792 -0.1853  0.6179 -0.6676
 4175ntf    fn423743   2.283   2.532   0.903 -0.2961 -0.4478 -0.5640
 4175ntf    fn423744   2.296   2.381   0.754  0.3506 -0.0857  0.0291
 4175ntf    fn423745   2.461   2.419   0.894  0.2161 -0.2192  0.4783
 4176ntf    cn123746   0.699   0.250   5.947  0.1010 -0.2162  0.5598
 4176ntf    sn223747   0.542   0.256   6.038 -0.1999  0.0323  0.0296
 4176ntf    nn323748   0.594   0.225   6.183  0.4874  0.1951 -0.1762
 4176ntf    sn223749   0.602   0.086   6.255 -0.4617  0.2787  0.1176
 4176ntf    cn123750   0.434   0.077   6.323 -0.4825  0.0468  0.0398
 4176ntf    fn423751   0.751   0.129   5.946 -0.3109 -0.3921  0.0480
 4176ntf    fn423752   0.681   0.288   5.821 -0.0149 -0.9111  0.3663
 4176ntf    fn423753   0.789   0.330   6.003 -0.1089  0.0974  0.4549
 4176ntf    on523754   0.512   0.397   6.032  0.0643  0.0877 -0.0031
 4176ntf    on523755   0.450   0.157   5.987  0.0021 -0.0779 -0.1221
 4176ntf    on523756   0.692   0.088   6.367 -0.4122  0.4532  0.0736
 4176ntf    on523757   0.610  -0.033   6.173 -0.4437  0.1544  0.2999
 4176ntf    fn423758   0.338   0.053   6.235 -0.6812  0.6305  0.0886
 4176ntf    fn423759   0.423  -0.010   6.422  0.2441 -0.2096 -0.0987
 4176ntf    fn423760   0.413   0.197   6.375  0.1198  0.2132 -0.0906
 4177ntf    cn123761   0.347   4.838   1.752 -0.0803  0.6731 -0.0493
 4177ntf    sn223762   0.356   4.964   1.883  0.0837 -0.0533  0.6442
 4177ntf    nn323763   0.290   5.081   1.801  0.0619 -0.5272 -0.0212
 4177ntf    sn223764   0.348   5.187   1.701 -0.2180 -0.1489  0.2174
 4177ntf    cn123765   0.203   5.277   1.637 -0.4053 -0.5003  0.1411
 4177ntf    fn423766   0.428   4.861   1.649 -0.2551  0.7955 -0.1600
 4177ntf    fn423767   0.382   4.718   1.795 -0.0822  0.5242 -0.4535
 4177ntf    fn423768   0.224   4.833   1.704  0.0909 -0.3570 -0.3987
 4177ntf    on523769   0.260   4.914   1.977 -0.1048 -1.1474 -0.1018
 4177ntf    on523770   0.498   4.969   1.911  0.2614  0.2931 -0.2694
 4177ntf    on523771   0.399   5.122   1.583 -0.2451 -1.0749  0.7118
 4177ntf    on523772   0.432   5.287   1.761 -0.1364 -0.1176  0.0522
 4177ntf    fn423773   0.111   5.189   1.601 -0.5473 -0.2813 -0.0361
 4177ntf    fn423774   0.155   5.356   1.732 -0.3937 -0.2457 -0.0638
 4177ntf    fn423775   0.222   5.351   1.529 -0.2396 -0.4906  0.1768
 4178ntf    cn123776   5.026   1.339   4.482  0.0595 -0.0568 -0.0677
 4178ntf    sn223777   5.112   1.359   4.641  0.2476  0.2989 -0.2123
 4178ntf    nn323778   5.170   1.214   4.643 -0.3410  0.0683  0.3901
 4178ntf    sn223779   5.185   1.112   4.762 -0.2559  0.0191  0.3373
 4178ntf    cn123780   5.347   1.046   4.711 -0.4132 -0.0481 -0.0794
 4178ntf    fn423781   4.955   1.450   4.462 -0.6950 -0.4806  0.2233
 4178ntf    fn423782   5.105   1.326   4.376 -0.1158 -0.1657 -0.1867
 4178ntf    fn423783   4.949   1.232   4.473 -0.0707  0.0267  0.0552
 4178ntf    on523784   5.215   1.457   4.616  0.2861  0.4184  0.4127
 4178ntf    on523785   5.010   1.396   4.736  0.5860  0.3319  0.1365
 4178ntf    on523786   5.095   0.999   4.765 -0.1343 -0.0960 -0.1452
 4178ntf    on523787   5.212   1.183   4.884  0.8989  0.3546 -0.1013
 4178ntf    fn423788   5.382   0.944   4.787 -0.0038  0.5447  0.5451
 4178ntf    fn423789   5.343   1.005   4.585 -0.0869  0.2921 -0.2023
 4178ntf    fn423790   5.445   1.135   4.720  0.4515 -0.9705 -0.1602
 4179ntf    cn123791   3.785   5.640   5.854 -0.3180 -0.1898 -0.0124
 4179ntf    sn223792   3.788   5.692   6.028  0.3498 -0.3460  0.0286
 4179ntf    nn323793   3.841   5.838   6.005 -0.1564 -0.0088  0.9250
 4179ntf    sn223794   3.774   5.980   6.006  0.1520  0.1480  0.0015
 4179ntf    cn123795   3.873   6.038   6.147 -0.1367 -0.4860  0.4690
 4179ntf    fn423796   3.904   5.643   5.795  0.0221 -0.0549  0.6647
 4179ntf    fn423797   3.754   5.512   5.853 -1.1026 -0.0076  0.2247
 4179ntf    fn423798   3.699   5.704   5.776 -0.1257  0.2988  0.1697
 4179ntf    on523799   3.648   5.682   6.064  0.3968 -0.2862  0.2320
 4179ntf    on523800   3.887   5.615   6.098  0.5128 -0.2918 -0.1433
 4179ntf    on523801   3.638   5.992   6.052 -0.0671 -0.4018 -0.4834
 4179ntf    on523802   3.820   6.060   5.895  0.0051 -0.1261 -0.2573
 4179ntf    fn423803   3.860   5.960   6.253  0.1585 -0.4116  0.5594
 4179ntf    fn423804   4.002   6.047   6.121 -0.1168 -0.4506  0.5779
 4179ntf    fn423805   3.834   6.157   6.190  0.0486 -0.1860 -0.1744
 4180ntf    cn123806   2.984   0.654   2.328 -0.0128 -0.1949 -0.2302
 4180ntf    sn223807   3.115   0.737   2.233 -0.0732  0.2388  0.0685
 4180ntf    nn323808   3.159   0.615   2.146  0.0811  0.1050  0.3324
 4180ntf    sn223809   3.199   0.610   1.994 -0.2012 -0.4732  0.2752
 4180ntf    cn123810   3.375   0.651   2.013 -0.2694 -0.1083  0.1310
 4180ntf    fn423811   3.036   0.559   2.404  0.3918 -0.1518 -0.4520
 4180ntf    fn423812   2.919   0.746   2.397  0.3162 -0.1098 -0.0315
 4180ntf    fn423813   2.889   0.596   2.255 -0.1932  0.0270 -0.1713
 4180ntf    on523814   3.055   0.849   2.165 -0.1605 -0.1631 -0.5181
 4180ntf    on523815   3.219   0.770   2.328 -0.1033  0.4376  0.0337
 4180ntf    on523816   3.148   0.717   1.911  0.2181 -0.5108 -0.0328
 4180ntf    on523817   3.189   0.475   1.946 -0.3457 -0.4053  0.1122
 4180ntf    fn423818   3.444   0.592   2.109 -0.0144  0.1921  0.1334
 4180ntf    fn423819   3.446   0.633   1.903 -0.4447 -0.3194  0.0520
 4180ntf    fn423820   3.395   0.777   2.047  0.2191 -0.1503 -0.0014
 4181ntf    cn123821   1.942   6.618   2.415 -0.0927  0.1492  0.1208
 4181ntf    sn223822   2.028   6.556   2.268 -0.2091  0.0644  0.0881
 4181ntf    nn323823   2.023   6.401   2.294  0.4687  0.0568  0.2068
 4181ntf    sn223824   1.998   6.292   2.183  0.2532  0.2199  0.0951
 4181ntf    cn123825   1.830   6.249   2.238  0.1991  0.0380 -0.2132
 4181ntf    fn423826   2.012   6.589   2.523  0.3527  0.0216 -0.2012
 4181ntf    fn423827   1.926   6.749   2.409  0.5594  0.2253 -0.0313
 4181ntf    fn423828   1.821   6.564   2.426  0.0529 -0.0281  0.9468
 4181ntf    on523829   1.941   6.606   2.165  0.0350  0.3302  0.0107
 4181ntf    on523830   2.164   6.605   2.277 -0.1566 -0.0415 -0.1167
 4181ntf    on523831   2.069   6.170   2.211  0.0994  0.1936  0.3754
 4181ntf    on523832   1.984   6.333   2.046 -0.7281  0.1192  0.1626
 4181ntf    fn423833   1.755   6.358   2.239  0.2437  0.0651  0.2639
 4181ntf    fn423834   1.763   6.165   2.161  0.0892  0.2203 -0.3178
 4181ntf    fn423835   1.833   6.202   2.361 -0.2976  0.0090 -0.2120
 4182ntf    cn123836   1.690   6.893   6.710 -0.4757 -0.1416 -0.1909
 4182ntf    sn223837   1.577   6.924   6.849 -0.3471 -0.0259 -0.1117
 4182ntf    nn323838   1.580   7.081   6.854 -0.1750 -0.0358  0.1329
 4182ntf    sn223839   1.661   7.179   6.946  0.0529 -0.0545 -0.0504
 4182ntf    cn123840   1.550   7.190   7.089  0.0386  0.2703 -0.0843
 4182ntf    fn423841   1.816   6.904   6.751 -0.4434  0.1068 -0.3545
 4182ntf    fn423842   1.679   6.774   6.654 -0.9461 -0.1141 -0.1607
 4182ntf    fn423843   1.672   6.977   6.610  0.4050  0.0195 -0.2222
 4182ntf    on523844   1.448   6.887   6.798 -0.4921  0.3195  0.0016
 4182ntf    on523845   1.631   6.844   6.955 -0.1626 -0.4384 -0.5141
 4182ntf    on523846   1.662   7.314   6.893 -0.0195 -0.4218 -1.0182
 4182ntf    on523847   1.788   7.135   6.998 -0.3188 -0.1707  0.7595
 4182ntf    fn423848   1.426   7.214   7.049  0.1388  0.1262 -0.4859
 4182ntf    fn423849   1.542   7.071   7.146  0.2054  0.1820 -0.2445
 4182ntf    fn423850   1.579   7.278   7.183 -0.0843 -0.3079  0.5070
 4183ntf    cn123851   6.646   7.135   3.322 -0.2914  0.1492 -0.2371
 4183ntf    sn223852   6.499   7.107   3.425 -0.0046  0.3169  0.2181
 4183ntf    nn323853   6.554   6.995   3.520  0.0755 -0.0608 -0.2715
 4183ntf    sn223854   6.552   6.983   3.677 -0.0082  0.2807 -0.2462
 4183ntf    cn123855   6.444   6.838   3.694  0.0010  0.3362  0.2943
 4183ntf    fn423856   6.664   7.029   3.245 -0.6717 -0.5732  0.6538
 4183ntf    fn423857   6.630   7.240   3.243 -0.1001  0.3771  0.0277
 4183ntf    fn423858   6.755   7.150   3.395 -0.3189 -0.0046 -0.1650
 4183ntf    on523859   6.463   7.236   3.479  0.6293  0.4019  0.4448
 4183ntf    on523860   6.396   7.059   3.336  0.1936  0.1799  0.0631
 4183ntf    on523861   6.484   7.085   3.753 -0.2155 -0.1249  0.1149
 4183ntf    on523862   6.676   6.933   3.732  0.3394  0.3442 -0.9547
 4183ntf    fn423863   6.493   6.728   3.638 -0.0209  0.3989  0.1518
 4183ntf    fn423864   6.420   6.806   3.820  0.5435 -0.2381  0.2567
 4183ntf    fn423865   6.331   6.863   3.630  0.1259 -0.4259 -0.2479
 4184ntf    cn123866   2.827   5.966   3.726  0.0337  0.1631 -0.1559
 4184ntf    sn223867   2.788   5.857   3.586 -0.0717  0.0309 -0.0240
 4184ntf    nn323868   2.920   5.849   3.500 -0.0462  0.3774 -0.0170
 4184ntf    sn223869   3.048   5.764   3.533 -0.0211  0.4323  0.0285
 4184ntf    cn123870   3.160   5.813   3.398  0.0784  0.1915  0.0228
 4184ntf    fn423871   2.721   6.002   3.796  0.0664 -0.5097  0.2535
 4184ntf    fn423872   2.912   5.907   3.809 -0.6410 -0.2091  0.2764
 4184ntf    fn423873   2.895   6.075   3.695  0.1335  0.0706 -0.2648
 4184ntf    on523874   2.747   5.735   3.651  0.5210  0.1559  0.5996
 4184ntf    on523875   2.699   5.934   3.503  0.3471  0.0323 -0.4769
 4184ntf    on523876   3.027   5.623   3.508  0.3186  0.2029  1.0151
 4184ntf    on523877   3.107   5.796   3.660 -0.8795 -0.1504  0.5869
 4184ntf    fn423878   3.192   5.940   3.414  0.1413  0.1554  0.1887
 4184ntf    fn423879   3.267   5.739   3.376 -0.2546 -0.2979  0.0408
 4184ntf    fn423880   3.091   5.811   3.285  0.4121 -0.0996 -0.1769
 4185ntf    cn123881   1.295   5.242   5.934 -0.1524  0.3907 -0.2372
 4185ntf    sn223882   1.256   5.065   5.935  0.2031  0.3112 -0.1212
 4185ntf    nn323883   1.285   5.031   6.086 -0.0662  0.6554  0.0080
 4185ntf    sn223884   1.424   5.046   6.156 -0.0848 -0.3611  0.2716
 4185ntf    cn123885   1.430   4.887   6.244 -0.0439 -0.4491  0.1084
 4185ntf    fn423886   1.426   5.261   5.937 -0.0674 -0.0754 -0.9190
 4185ntf    fn423887   1.243   5.310   5.833  0.2990  0.8953 -0.1362
 4185ntf    fn423888   1.258   5.294   6.050 -0.5506  0.1065 -0.2367
 4185ntf    on523889   1.114   5.047   5.914  0.3265 -0.4199 -0.3470
 4185ntf    on523890   1.345   5.008   5.837  0.4475 -0.4332  0.5188
 4185ntf    on523891   1.415   5.148   6.258  0.3838 -0.1722  0.1268
 4185ntf    on523892   1.544   5.056   6.077 -0.3341  0.6745  0.0110
 4185ntf    fn423893   1.357   4.894   6.354 -0.2495  0.3486 -0.0715
 4185ntf    fn423894   1.370   4.791   6.174 -0.2492  0.0213 -0.3716
 4185ntf    fn423895   1.553   4.855   6.280 -0.0627 -0.0986  0.4806
 4186ntf    cn123896   6.963   4.025   1.516  0.0963  0.1076 -0.6087
 4186ntf    sn223897   6.961   4.142   1.655 -0.2485 -0.4342 -0.1515
 4186ntf    nn323898   7.056   4.253   1.594 -0.0832 -0.4117  0.1451
 4186ntf    sn223899   7.201   4.288   1.643 -0.1688 -0.1904  0.2399
 4186ntf    cn123900   7.297   4.237   1.497 -0.1542  0.6108 -0.0348
 4186ntf    fn423901   6.933   3.902   1.553 -0.2338  0.5229  0.5605
 4186ntf    fn423902   6.876   4.049   1.420 -0.0251  0.0879 -0.5033
 4186ntf    fn423903   7.084   4.025   1.461  0.3099  0.5422 -0.1432
 4186ntf    on523904   6.824   4.184   1.662 -0.0457  0.2449 -0.1558
 4186ntf    on523905   7.014   4.070   1.767 -0.2030 -0.0365  0.0865
 4186ntf    on523906   7.252   4.226   1.762  1.1582  0.3217 -0.0441
 4186ntf    on523907   7.221   4.431   1.644 -0.6053 -0.1254  0.0690
 4186ntf    fn423908   7.228   4.275   1.391 -0.4695  0.0525 -0.0333
 4186ntf    fn423909   7.422   4.279   1.490  0.0374  0.1608  0.5704
 4186ntf    fn423910   7.301   4.106   1.486 -0.2583  0.5907  0.1511
 4187ntf    cn123911   3.548   4.968   5.155 -0.0734  0.3104 -0.2625
 4187ntf    sn223912   3.438   5.034   5.283  0.2029  0.2194  0.0232
 4187ntf    nn323913   3.424   4.912   5.381  0.6984 -0.0812 -0.2756
 4187ntf    sn223914   3.513   4.868   5.502 -0.1158  0.0067  0.3641
 4187ntf    cn123915   3.406   4.917   5.641 -0.3204 -0.4697  0.3754
 4187ntf    fn423916   3.585   5.071   5.080 -0.3946  0.3695 -0.3415
 4187ntf    fn423917   3.652   4.907   5.211 -0.2279  0.0678 -0.2392
 4187ntf    fn423918   3.502   4.881   5.066  0.2798  0.4122 -0.5486
 4187ntf    on523919   3.499   5.153   5.336 -0.2479  0.4773 -0.0303
 4187ntf    on523920   3.318   5.054   5.205  0.4267  0.2026 -0.3238
 4187ntf    on523921   3.641   4.934   5.508 -0.0217 -0.1586  0.1684
 4187ntf    on523922   3.516   4.724   5.509 -0.6723 -0.0426 -0.3331
 4187ntf    fn423923   3.318   4.820   5.663 -0.2186 -0.6403  0.0441
 4187ntf    fn423924   3.470   4.941   5.754  0.0810  0.4701 -0.0451
 4187ntf    fn423925   3.340   5.028   5.612  0.1675 -0.3890 -0.4665
 4188ntf    cn123926   2.094   6.034   0.558  0.0723 -0.0946 -0.3031
 4188ntf    sn223927   1.943   6.120   0.612  0.1584 -0.0508 -0.1303
 4188ntf    nn323928   1.896   6.185   0.477 -0.3435 -0.2833 -0.0701
 4188ntf    sn223929   1.770   6.275   0.450  0.0017  0.1819 -0.1555
 4188ntf    cn123930   1.834   6.435   0.506  0.1839 -0.0194  0.2178
 4188ntf    fn423931   2.075   5.930   0.477 -0.3559 -0.2886  0.0355
 4188ntf    fn423932   2.171   6.118   0.491 -0.3187  0.2489 -0.3251
 4188ntf    fn423933   2.162   5.982   0.659 -0.1195  0.1148 -0.0651
 4188ntf    on523934   1.852   6.014   0.649  0.2389  0.0015  0.2139
 4188ntf    on523935   1.994   6.202   0.718  0.0740 -0.0185 -0.1147
 4188ntf    on523936   1.655   6.254   0.535  0.4518  0.0751  0.4284
 4188ntf    on523937   1.741   6.299   0.311 -0.4121 -0.0601 -0.1126
 4188ntf    fn423938   1.768   6.538   0.456  0.0053 -0.1709  0.1417
 4188ntf    fn423939   1.838   6.451   0.637 -0.0375  0.4213  0.1753
 4188ntf    fn423940   1.957   6.455   0.463  0.1778  0.3555  0.3694
 4189ntf    cn123941   5.178   0.514   3.751  0.0855 -0.0792 -0.2917
 4189ntf    sn223942   5.079   0.386   3.832  0.0165  0.2716  0.1816
 4189ntf    nn323943   4.994   0.336   3.710  0.2752  0.3143 -0.0174
 4189ntf    sn223944   4.867   0.243   3.711  0.2336  0.3726  0.2810
 4189ntf    cn123945   4.730   0.359   3.741 -0.1588 -0.0496  0.1384
 4189ntf    fn423946   5.262   0.465   3.661  0.4026 -0.0866  0.0084
 4189ntf    fn423947   5.101   0.606   3.694 -0.2092 -0.2668 -0.1959
 4189ntf    fn423948   5.252   0.580   3.839  0.0419 -0.0535 -0.2748
 4189ntf    on523949   5.175   0.284   3.866  0.4987  0.7102  0.1471
 4189ntf    on523950   5.008   0.455   3.937  0.2882  0.0924  0.4843
 4189ntf    on523951   4.853   0.149   3.820 -0.3156  0.3301  0.1794
 4189ntf    on523952   4.837   0.193   3.579  0.1212  0.7893  0.1484
 4189ntf    fn423953   4.612   0.310   3.708 -0.1690  0.0984 -0.0462
 4189ntf    fn423954   4.721   0.387   3.870 -0.1721  0.0450  0.1169
 4189ntf    fn423955   4.748   0.477   3.684 -0.1802 -0.1496 -0.0772
 4190ntf    cn123956   6.615   5.202   1.240  0.3271  0.3027  0.1352
 4190ntf    sn223957   6.534   5.178   1.402  0.1642  0.1114  0.0251
 4190ntf    nn323958   6.395   5.125   1.353  0.0837  0.3573 -0.0103
 4190ntf    sn223959   6.256   5.156   1.419 -0.0514 -0.0015 -0.1281
 4190ntf    cn123960   6.282   5.109   1.593  0.0802  0.4205 -0.0342
 4190ntf    fn423961   6.548   5.291   1.169  0.5329  0.0682 -0.3525
 4190ntf    fn423962   6.739   5.247   1.250  0.2927  0.3583  0.3290
 4190ntf    fn423963   6.618   5.088   1.174 -0.2025  0.3719 -0.0142
 4190ntf    on523964   6.621   5.077   1.459 -0.2106 -0.3552 -0.2230
 4190ntf    on523965   6.528   5.309   1.461  0.3552  0.2867 -0.3366
 4190ntf    on523966   6.156   5.062   1.371  0.0586 -0.1475 -0.0715
 4190ntf    on523967   6.221   5.295   1.417  0.4804  0.1382  0.1513
 4190ntf    fn423968   6.350   5.201   1.659 -0.3540  0.0055  1.0025
 4190ntf    fn423969   6.165   5.097   1.652 -0.0318  0.3261 -0.2743
 4190ntf    fn423970   6.343   4.992   1.603 -0.2965  0.2421  0.1587
 4191ntf    cn123971   0.826   3.002   5.513  0.3017  0.3352  0.6497
 4191ntf    sn223972   0.694   3.025   5.635 -0.0928 -0.3114  0.3521
 4191ntf    nn323973   0.672   2.879   5.690 -0.4583 -0.3015  0.2308
 4191ntf    sn223974   0.726   2.809   5.820 -0.6187  0.3815  0.6762
 4191ntf    cn123975   0.579   2.831   5.925 -0.6792  0.4397  0.5791
 4191ntf    fn423976   0.796   2.912   5.421 -0.0905  0.8714  0.2481
 4191ntf    fn423977   0.858   3.111   5.444 -0.9708  0.3193  0.0118
 4191ntf    fn423978   0.939   2.960   5.568  0.5695  0.4610  0.2086
 4191ntf    on523979   0.755   3.122   5.724  0.4695 -0.1062 -0.2515
 4191ntf    on523980   0.578   3.064   5.560  0.1728  0.2961  0.2573
 4191ntf    on523981   0.829   2.876   5.895 -0.2232  0.4641  0.0649
 4191ntf    on523982   0.728   2.665   5.804 -0.3551  0.4132  0.4092
 4191ntf    fn423983   0.590   2.787   6.049  0.8573 -0.5386  0.1294
 4191ntf    fn423984   0.554   2.961   5.935  0.1482  0.6567 -0.0465
 4191ntf    fn423985   0.477   2.766   5.872  0.0075  0.1143 -0.3662
 4192ntf    cn123986   1.985   2.137   2.083  0.0716 -0.3140 -0.2549
 4192ntf    sn223987   1.817   2.205   2.091  0.1879 -0.0539 -0.0248
 4192ntf    nn323988   1.743   2.070   2.060  0.0924  0.0307 -0.1680
 4192ntf    sn223989   1.663   2.037   1.929 -0.1046  0.0636 -0.0549
 4192ntf    cn123990   1.796   1.962   1.830 -0.1530  0.0398 -0.1026
 4192ntf    fn423991   2.010   2.077   1.967  0.0983 -0.3452 -0.2334
 4192ntf    fn423992   2.082   2.224   2.103 -0.5403  0.2494  0.3246
 4192ntf    fn423993   1.995   2.041   2.174 -0.5490  0.0432  0.1945
 4192ntf    on523994   1.802   2.247   2.228 -0.4702 -0.2771 -0.0224
 4192ntf    on523995   1.810   2.315   1.998 -0.3066 -0.0105  0.0587
 4192ntf    on523996   1.623   2.150   1.849 -0.2164 -0.1458 -0.2959
 4192ntf    on523997   1.569   1.928   1.947  0.5183 -0.4650  0.0124
 4192ntf    fn423998   1.746   1.885   1.735 -0.7989  0.1023  0.1757
 4192ntf    fn423999   1.877   2.054   1.781 -0.0424  0.0832  0.1591
 4192ntf    fn424000   1.874   1.878   1.897 -0.3285 -0.1398 -0.1208
 4193ntf    cn124001   5.423   6.558   3.370  0.3814  0.4880 -0.5322
 4193ntf    sn224002   5.454   6.703   3.476 -0.3653  0.2513  0.0255
 4193ntf    nn324003   5.366   6.804   3.394 -0.3844  0.4485  0.2891
 4193ntf    sn224004   5.422   6.943   3.347  0.0106  0.3036  0.3248
 4193ntf    cn124005   5.546   6.903   3.221  0.2679  0.0089  0.6691
 4193ntf    fn424006   5.474   6.444   3.413 -0.5260  0.3382  0.1917
 4193ntf    fn424007   5.294   6.532   3.353  0.2638  0.4309  0.3857
 4193ntf    fn424008   5.471   6.574   3.248  0.4437  0.9317 -0.4508
 4193ntf    on524009   5.393   6.652   3.596  0.6505 -0.3829  0.2829
 4193ntf    on524010   5.596   6.725   3.488 -0.3821 -0.0865  0.9089
 4193ntf    on524011   5.484   7.018   3.454 -0.0375 -0.0209  0.5812
 4193ntf    on524012   5.317   7.008   3.273  0.5201  0.6742 -0.0778
 4193ntf    fn424013   5.590   7.014   3.164 -0.3112 -0.2611 -0.3326
 4193ntf    fn424014   5.655   6.842   3.264  0.5672 -0.0537 -0.1665
 4193ntf    fn424015   5.495   6.828   3.124  0.0778  0.3994  0.4637
 4194ntf    cn124016   5.960   4.594   4.049 -0.3261  0.1660  0.0719
 4194ntf    sn224017   5.883   4.668   3.902 -0.3039  0.2568  0.1064
 4194ntf    nn324018   5.791   4.559   3.838 -0.1057  0.0832  0.1131
 4194ntf    sn224019   5.748   4.559   3.687 -0.2294 -0.1660  0.1482
 4194ntf    cn124020   5.860   4.431   3.623  0.0258  0.1992 -0.1352
 4194ntf    fn424021   6.086   4.630   4.068 -0.3900  0.1000  0.6538
 4194ntf    fn424022   5.886   4.621   4.155 -0.9952 -0.6912 -0.1631
 4194ntf    fn424023   5.979   4.463   4.042 -0.1139  0.2132 -0.2107
 4194ntf    on524024   5.813   4.785   3.950  0.3122  0.6352  0.1006
 4194ntf    on524025   5.998   4.702   3.821  0.0111 -0.3965  0.2724
 4194ntf    on524026   5.779   4.677   3.611  0.2439 -0.3649  0.0299
 4194ntf    on524027   5.619   4.500   3.661 -0.1871 -0.0732 -0.2739
 4194ntf    fn424028   5.845   4.403   3.495 -0.2144 -0.2079 -0.0198
 4194ntf    fn424029   5.988   4.462   3.638  0.0151  0.1496  0.0525
 4194ntf    fn424030   5.841   4.310   3.673 -0.7055  0.0564 -0.7498
 4195ntf    cn124031   0.011   5.686   7.116 -0.4478 -0.0631 -0.0676
 4195ntf    sn224032   0.029   5.812   7.245  0.2516  0.0957 -0.3162
 4195ntf    nn324033   0.174   5.868   7.219  0.5811 -0.4731  0.2460
 4195ntf    sn224034   0.227   5.942   7.091 -0.3095 -0.2264  0.0124
 4195ntf    cn124035   0.248   6.110   7.156 -0.2130 -0.3204  0.2217
 4195ntf    fn424036  -0.039   5.742   7.007  0.1737 -0.3499 -0.5114
 4195ntf    fn424037   0.120   5.626   7.071 -0.1111  0.1957  0.3987
 4195ntf    fn424038  -0.073   5.591   7.152  0.0318 -0.3348  0.3478
 4195ntf    on524039  -0.075   5.908   7.216  0.2896  0.0835 -0.4911
 4195ntf    on524040   0.021   5.744   7.372 -0.2044  0.4958 -0.1273
 4195ntf    on524041   0.142   5.953   6.975  0.3498  0.3357 -0.4212
 4195ntf    on524042   0.364   5.910   7.058 -0.1274  1.0250 -0.4960
 4195ntf    fn424043   0.138   6.140   7.222 -0.4609 -0.6334 -0.0472
 4195ntf    fn424044   0.347   6.119   7.245 -0.0382 -0.2041  0.0156
 4195ntf    fn424045   0.269   6.204   7.065 -0.7206 -0.1537  0.2728
 4196ntf    cn124046   5.354   3.159   4.406 -0.3714  0.1477 -0.0103
 4196ntf    sn224047   5.353   2.988   4.469 -0.1734  0.0101 -0.3801
 4196ntf    nn324048   5.436   2.915   4.357  0.4752  0.0199  0.0928
 4196ntf    sn224049   5.492   2.768   4.353  0.0472 -0.1463  0.1198
 4196ntf    cn124050   5.665   2.823   4.362  0.0813 -0.2506  0.0935
 4196ntf    fn424051   5.276   3.246   4.468  0.0752  0.0808  0.6655
 4196ntf    fn424052   5.473   3.215   4.418 -0.3130  0.0411 -0.0836
 4196ntf    fn424053   5.325   3.172   4.278 -0.4183 -0.4761 -0.0655
 4196ntf    on524054   5.417   3.004   4.597 -0.6717  0.0811 -0.1347
 4196ntf    on524055   5.214   2.953   4.485 -0.0277 -0.1536  0.5750
 4196ntf    on524056   5.475   2.704   4.226  0.5848  0.1866 -0.1235
 4196ntf    on524057   5.479   2.685   4.470  0.3597  0.0013  0.2611
 4196ntf    fn424058   5.690   2.893   4.472  0.0528  0.7318 -0.5181
 4196ntf    fn424059   5.745   2.718   4.360  0.4580  0.0205  0.5745
 4196ntf    fn424060   5.704   2.902   4.263 -0.1071 -0.2174  0.0469
 4197ntf    cn124061   0.720   0.235   3.191  0.5021  0.1831 -0.3696
 4197ntf    sn224062   0.707   0.297   3.021  0.0822  0.4552 -0.2384
 4197ntf    nn324063   0.598   0.203   2.958  0.0850  0.0590  0.3435
 4197ntf    sn224064   0.587   0.107   2.835  0.2820  0.0456  0.3359
 4197ntf    cn124065   0.467   0.206   2.741 -0.1155 -0.4771  0.2861
 4197ntf    fn424066   0.818   0.294   3.257  0.5821 -0.1581 -0.1798
 4197ntf    fn424067   0.612   0.252   3.265  0.7262  0.0872 -0.0188
 4197ntf    fn424068   0.749   0.106   3.186  0.2620  0.1084  0.1314
 4197ntf    on524069   0.655   0.430   3.046  0.3552  0.4524  0.3569
 4197ntf    on524070   0.840   0.282   2.967 -0.1011 -0.1264 -0.5317
 4197ntf    on524071   0.522  -0.014   2.880 -0.3220  0.1397 -0.2619
 4197ntf    on524072   0.700   0.092   2.747  0.2233  0.4566  0.1863
 4197ntf    fn424073   0.442   0.146   2.626 -0.1923 -0.0991  0.1029
 4197ntf    fn424074   0.346   0.216   2.793  0.0794  0.5593  0.5694
 4197ntf    fn424075   0.515   0.325   2.709 -0.7338 -0.0959  0.7504
 4198ntf    cn124076   1.222   0.384   5.675 -0.0560 -0.1871 -0.1186
 4198ntf    sn224077   1.351   0.263   5.714  0.1039 -0.0204 -0.1249
 4198ntf    nn324078   1.480   0.352   5.704  0.2962 -0.2565  0.2153
 4198ntf    sn224079   1.538   0.406   5.568  0.0649  0.3630  0.3611
 4198ntf    cn124080   1.628   0.262   5.502 -0.3595  0.3682 -0.2391
 4198ntf    fn424081   1.122   0.379   5.761 -0.0781 -0.1905 -0.1445
 4198ntf    fn424082   1.266   0.509   5.670  0.2592 -0.2851  0.1344
 4198ntf    fn424083   1.154   0.359   5.564 -0.2412 -0.0608 -0.0336
 4198ntf    on524084   1.332   0.236   5.855  0.5029 -0.0533 -0.0748
 4198ntf    on524085   1.337   0.155   5.619  0.1628  0.2013 -0.3876
 4198ntf    on524086   1.640   0.502   5.603  0.3035  0.2106  0.0884
 4198ntf    on524087   1.438   0.436   5.469  0.1041 -0.2091  0.1413
 4198ntf    fn424088   1.695   0.205   5.602 -0.4836  0.1789 -0.2649
 4198ntf    fn424089   1.553   0.162   5.460 -0.0044  0.1365 -0.3270
 4198ntf    fn424090   1.719   0.288   5.410  0.1551 -0.1547  0.1106
 4199ntf    cn124091   3.698   6.444   3.579  0.3651  0.0224  0.0045
 4199ntf    sn224092   3.732   6.274   3.525  0.3683  0.0090  0.0481
 4199ntf    nn324093   3.777   6.302   3.377 -0.3427  0.4771 -0.0838
 4199ntf    sn224094   3.730   6.213   3.256 -0.0063 -0.1300  0.2291
 4199ntf    cn124095   3.868   6.240   3.142 -0.1324  0.0248  0.1135
 4199ntf    fn424096   3.599   6.499   3.510  0.5635  0.5674  0.1460
 4199ntf    fn424097   3.664   6.461   3.706 -0.2449 -0.4599 -0.0900
 4199ntf    fn424098   3.798   6.529   3.566 -0.0384  0.4208 -0.5405
 4199ntf    on524099   3.843   6.237   3.610  0.5188  0.2828 -0.0259
 4199ntf    on524100   3.608   6.204   3.547  0.5093 -0.3001 -0.1289
 4199ntf    on524101   3.621   6.256   3.172  0.0119 -0.1580  0.1914
 4199ntf    on524102   3.740   6.071   3.282  0.2832 -0.2565 -0.5503
 4199ntf    fn424103   3.905   6.367   3.129 -0.1299 -0.0084 -0.2172
 4199ntf    fn424104   3.981   6.182   3.177  0.1169  0.1553 -0.4555
 4199ntf    fn424105   3.838   6.215   3.015 -0.1478 -0.5611  0.2343
 4200ntf    cn124106   2.571   2.719   5.429  0.1446 -0.2895  0.0114
 4200ntf    sn224107   2.556   2.610   5.574  0.0696 -0.6019 -0.2297
 4200ntf    nn324108   2.484   2.482   5.519 -0.1759 -0.4241 -0.3241
 4200ntf    sn224109   2.398   2.383   5.605  0.0550 -0.2860  0.0721
 4200ntf    cn124110   2.506   2.237   5.600  0.1352 -0.2135 -0.3493
 4200ntf    fn424111   2.635   2.829   5.465 -0.1360 -0.2978  0.5631
 4200ntf    fn424112   2.630   2.668   5.323  0.4508 -0.3570  0.2140
 4200ntf    fn424113   2.458   2.763   5.375  0.4207 -0.1787 -0.4784
 4200ntf    on524114   2.693   2.584   5.612  0.0923 -0.2118 -0.0383
 4200ntf    on524115   2.482   2.691   5.668  0.2896 -0.5608 -0.0882
 4200ntf    on524116   2.278   2.342   5.536 -0.5902  0.9700  0.4149
 4200ntf    on524117   2.382   2.412   5.745 -0.6330 -0.1737 -0.0258
 4200ntf    fn424118   2.545   2.206   5.477  0.2267 -0.1540 -0.3350
 4200ntf    fn424119   2.617   2.254   5.670 -0.3530 -0.0495  0.3888
 4200ntf    fn424120   2.446   2.134   5.658 -0.1604  0.2320  0.1447
 4201ntf    cn124121   1.024   3.261   6.949  0.2059  0.0599  0.1093
 4201ntf    sn224122   1.091   3.361   6.813 -0.1664  0.0080 -0.1134
 4201ntf    nn324123   0.980   3.384   6.704  0.1409  0.1600 -0.3975
 4201ntf    sn224124   0.867   3.492   6.698  0.2551  0.3000 -0.0589
 4201ntf    cn124125   0.727   3.397   6.764  0.4289  0.0180 -0.0961
 4201ntf    fn424126   1.099   3.264   7.059  0.1550 -0.1939  0.1510
 4201ntf    fn424127   0.905   3.299   6.991  0.0474 -0.1441 -0.1575
 4201ntf    fn424128   1.007   3.138   6.905 -0.3751  0.3041 -0.3574
 4201ntf    on524129   1.134   3.482   6.879 -0.3444 -0.0041  0.0273
 4201ntf    on524130   1.195   3.274   6.762 -0.0468 -0.1723  0.4323
 4201ntf    on524131   0.834   3.518   6.560  0.1646 -0.3084 -0.1525
 4201ntf    on524132   0.876   3.606   6.786 -0.0984 -0.0131  0.3831
 4201ntf    fn424133   0.617   3.443   6.706  0.4660  0.0352 -0.1537
 4201ntf    fn424134   0.731   3.277   6.706 -0.2268 -0.0304 -0.0454
 4201ntf    fn424135   0.706   3.377   6.893 -0.1704  0.2752 -0.1512
 4202ntf    cn124136   6.287   0.015   6.908 -0.1852 -0.1216  0.1793
 4202ntf    sn224137   6.202   0.002   7.068  0.0726  0.1483  0.3399
 4202ntf    nn324138   6.122  -0.133   7.054  0.0420  0.1920  0.0960
 4202ntf    sn224139   6.118  -0.261   7.144 -0.1985  0.0481 -0.1170
 4202ntf    cn124140   6.069  -0.194   7.306  0.1118  0.1022 -0.0436
 4202ntf    fn424141   6.361   0.125   6.905 -0.5020  0.0933  0.1810
 4202ntf    fn424142   6.364  -0.087   6.874 -0.3018 -0.0834 -0.1987
 4202ntf    fn424143   6.200   0.024   6.809  0.2361 -0.6823 -0.2488
 4202ntf    on524144   6.300   0.007   7.173  0.6787  0.5541 -0.2426
 4202ntf    on524145   6.104   0.108   7.058 -0.0147 -0.0028 -0.4517
 4202ntf    on524146   6.245  -0.329   7.159 -0.3246 -0.0407  0.5903
 4202ntf    on524147   6.005  -0.340   7.103 -0.0193 -0.3406  0.1274
 4202ntf    fn424148   6.141  -0.089   7.343 -0.2404  0.4733 -0.3990
 4202ntf    fn424149   5.941  -0.158   7.300  0.0968  0.0825  0.1419
 4202ntf    fn424150   6.074  -0.289   7.398  0.1280 -0.1680 -0.3232
 4203ntf    cn124151   7.019   1.670   2.442  0.4103 -0.1444 -0.1908
 4203ntf    sn224152   6.901   1.710   2.574  0.0227 -0.1384 -0.5386
 4203ntf    nn324153   6.973   1.659   2.704  0.4867 -0.2861 -0.8523
 4203ntf    sn224154   7.128   1.671   2.725  0.3238 -0.1301  0.3357
 4203ntf    cn124155   7.122   1.638   2.904 -0.2749  0.0837  0.3577
 4203ntf    fn424156   6.972   1.713   2.326  0.3106  0.1242 -0.0511
 4203ntf    fn424157   7.132   1.738   2.455  0.0557  0.4464 -0.1704
 4203ntf    fn424158   7.051   1.542   2.436  0.2610 -0.2032  0.2686
 4203ntf    on524159   6.876   1.851   2.566  0.1526 -0.0623  0.2947
 4203ntf    on524160   6.787   1.626   2.547 -0.4292  0.2146  0.2257
 4203ntf    on524161   7.185   1.804   2.720 -0.0606  0.0135 -0.2636
 4203ntf    on524162   7.204   1.564   2.665  0.5134  0.1929 -0.0049
 4203ntf    fn424163   7.093   1.751   2.967  0.2210  0.2606  0.2826
 4203ntf    fn424164   7.025   1.553   2.932 -0.4189 -0.0336 -0.4635
 4203ntf    fn424165   7.237   1.596   2.953 -0.0765 -0.2772 -0.3987
 4204ntf    cn124166   2.922   3.688   2.013  0.0123 -0.0359  0.0626
 4204ntf    sn224167   2.794   3.562   1.986 -0.0473 -0.0064  0.2072
 4204ntf    nn324168   2.824   3.464   2.105  0.0921  0.0891  0.2507
 4204ntf    sn224169   2.715   3.385   2.185 -0.2276  0.0365 -0.2304
 4204ntf    cn124170   2.700   3.511   2.315  0.1327 -0.5237  0.3628
 4204ntf    fn424171   2.907   3.802   1.948  0.0962  0.2503  0.5396
 4204ntf    fn424172   2.932   3.722   2.141 -0.3326 -0.1131  0.1111
 4204ntf    fn424173   3.040   3.644   1.973 -0.1040 -0.3054  0.0150
 4204ntf    on524174   2.679   3.646   2.007 -0.0883 -0.0006 -0.0345
 4204ntf    on524175   2.818   3.510   1.854 -0.8051  0.3699 -0.0846
 4204ntf    on524176   2.771   3.267   2.247 -1.0445 -0.0341  0.3820
 4204ntf    on524177   2.587   3.370   2.122 -0.1694 -0.2093 -0.2920
 4204ntf    fn424178   2.609   3.467   2.401 -0.1061 -0.5870  0.0785
 4204ntf    fn424179   2.801   3.525   2.399  0.0743 -0.1633  0.3734
 4204ntf    fn424180   2.677   3.638   2.286  0.0784 -0.6631 -0.2199
 4205ntf    cn124181   6.213   4.545   6.375 -0.0587 -0.2080  0.0354
 4205ntf    sn224182   6.051   4.627   6.369  0.0314 -0.0420 -0.1261
 4205ntf    nn324183   6.093   4.765   6.306 -0.6192  0.2558  0.0841
 4205ntf    sn224184   6.097   4.810   6.155  0.3297 -0.2078 -0.0395
 4205ntf    cn124185   6.162   4.977   6.182  0.0692 -0.1206  0.0594
 4205ntf    fn424186   6.261   4.507   6.258 -0.1530  0.1664 -0.1265
 4205ntf    fn424187   6.309   4.614   6.433  0.0584 -0.4914  0.1801
 4205ntf    fn424188   6.200   4.431   6.440 -0.2674  0.0109  0.3801
 4205ntf    on524189   5.961   4.550   6.288 -0.5498  0.2602  0.2290
 4205ntf    on524190   6.014   4.648   6.507 -0.2291  0.3086 -0.2469
 4205ntf    on524191   5.968   4.824   6.092  0.1782 -0.6132  0.1761
 4205ntf    on524192   6.208   4.746   6.090  0.6336 -0.0839  0.3521
 4205ntf    fn424193   6.273   4.980   6.254 -0.2528 -0.0271  0.5555
 4205ntf    fn424194   6.187   5.032   6.065 -0.1340 -0.2223 -0.0309
 4205ntf    fn424195   6.079   5.065   6.236  0.0423  0.2368 -0.5519
 4206ntf    cn124196   3.867   3.833   3.085 -0.2990 -0.4085 -0.1643
 4206ntf    sn224197   3.703   3.912   3.080 -0.2500 -0.2993 -0.0562
 4206ntf    nn324198   3.756   4.059   3.087  0.1534 -0.4492  0.0660
 4206ntf    sn224199   3.682   4.193   3.053  0.4408 -0.2978  0.0332
 4206ntf    cn124200   3.613   4.233   3.217  0.2702  0.5394 -0.2391
 4206ntf    fn424201   3.933   3.870   3.194 -0.1422  0.3054 -0.4963
 4206ntf    fn424202   3.866   3.701   3.079  0.5278 -0.4436  0.2901
 4206ntf    fn424203   3.944   3.880   2.989  0.4305 -0.7396  0.2523
 4206ntf    on524204   3.650   3.859   2.957 -0.5362  0.4810 -0.2713
 4206ntf    on524205   3.648   3.870   3.207 -0.1980 -0.6152 -0.1366
 4206ntf    on524206   3.569   4.185   2.964  0.2373  0.4734  0.2071
 4206ntf    on524207   3.772   4.300   3.019  0.3621 -0.3071 -0.2040
 4206ntf    fn424208   3.526   4.150   3.272 -0.1571  0.9528 -0.2824
 4206ntf    fn424209   3.713   4.252   3.301  0.5022 -0.4001 -0.2911
 4206ntf    fn424210   3.549   4.349   3.210 -0.0872  0.3162 -0.7863
 4207ntf    cn124211   0.387   1.063   7.159 -0.0726 -0.5255  0.2495
 4207ntf    sn224212   0.243   0.978   7.088 -0.1963 -0.0750 -0.0456
 4207ntf    nn324213   0.147   0.976   7.213 -0.1335  0.0936  0.0049
 4207ntf    sn224214   0.052   1.089   7.267 -0.1976  0.0627 -0.0444
 4207ntf    cn124215   0.103   1.109   7.440  0.3767  0.0362 -0.2091
 4207ntf    fn424216   0.419   0.997   7.269  0.3013 -0.3461  0.2491
 4207ntf    fn424217   0.496   1.057   7.084 -0.1176 -0.6909  0.1964
 4207ntf    fn424218   0.372   1.190   7.191  1.0581 -0.4014  0.3404
 4207ntf    on524219   0.199   1.053   6.974 -0.6300 -0.2163  0.0252
 4207ntf    on524220   0.287   0.844   7.058 -0.0589 -0.1732  0.5692
 4207ntf    on524221  -0.086   1.045   7.271 -0.1598 -0.0232  0.3180
 4207ntf    on524222   0.076   1.225   7.225 -0.4602 -0.0702 -0.6440
 4207ntf    fn424223   0.034   1.203   7.502  0.5296  0.4345 -0.6353
 4207ntf    fn424224   0.076   0.998   7.507  0.0568 -0.0086 -0.4111
 4207ntf    fn424225   0.231   1.140   7.452  0.4589 -0.4375  0.1755
 4208ntf    cn124226   6.769   7.207   2.854  0.2065  0.2174  0.1880
 4208ntf    sn224227   6.881   7.253   2.989  0.2928  0.0941  0.1579
 4208ntf    nn324228   6.811   7.385   3.036  0.1570  0.1554 -0.2167
 4208ntf    sn224229   6.853   7.500   3.134 -0.2246  0.2373 -0.1490
 4208ntf    cn124230   6.714   7.518   3.250 -0.0310  0.1629  0.0948
 4208ntf    fn424231   6.792   7.087   2.804  0.2792  0.0618  0.5924
 4208ntf    fn424232   6.641   7.197   2.888  0.1544 -0.5906 -0.2179
 4208ntf    fn424233   6.774   7.302   2.762  0.1369  0.2706  0.2384
 4208ntf    on524234   6.872   7.144   3.084 -0.2994  0.3886  0.4441
 4208ntf    on524235   7.008   7.279   2.925  0.0820  0.2059 -0.2193
 4208ntf    on524236   6.867   7.623   3.059 -0.0619 -0.1405 -0.7433
 4208ntf    on524237   6.968   7.468   3.213 -0.2303 -0.7829 -0.5449
 4208ntf    fn424238   6.734   7.620   3.333 -0.0990  0.1237  0.1597
 4208ntf    fn424239   6.595   7.532   3.193  0.1613  0.4159 -0.2458
 4208ntf    fn424240   6.697   7.412   3.328 -0.4668 -0.0783 -0.3242
 4209ntf    cn124241   3.226   4.376   4.515  0.3587  0.0074  0.1365
 4209ntf    sn224242   3.353   4.273   4.595  0.1028 -0.3185  0.1259
 4209ntf    nn324243   3.265   4.205   4.706 -0.1275  0.2378  0.2889
 4209ntf    sn224244   3.196   4.064   4.706 -0.1888  0.2677  0.2121
 4209ntf    cn124245   3.338   3.965   4.761  0.0533  0.3253 -0.3001
 4209ntf    fn424246   3.138   4.428   4.599  0.3980 -0.2278  0.3246
 4209ntf    fn424247   3.259   4.477   4.436  0.1742 -0.4414 -0.5311
 4209ntf    fn424248   3.151   4.293   4.444  0.4298  0.3284 -0.3211
 4209ntf    on524249   3.399   4.184   4.491 -0.0408  0.4845 -0.6373
 4209ntf    on524250   3.443   4.377   4.637 -0.8698  0.6835 -0.2229
 4209ntf    on524251   3.161   4.012   4.576  0.4513 -0.2450  0.2375
 4209ntf    on524252   3.104   4.063   4.816 -0.2345  0.0973  0.1732
 4209ntf    fn424253   3.359   3.996   4.887 -0.1493 -0.3861 -0.0840
 4209ntf    fn424254   3.326   3.833   4.763  0.2781  0.3111  0.2920
 4209ntf    fn424255   3.442   3.985   4.682  0.5796 -0.4835  0.1714
 4210ntf    cn124256   6.881   0.270   2.122 -0.0155 -0.0748 -0.0329
 4210ntf    sn224257   6.978   0.124   2.169  0.0055 -0.0782 -0.0867
 4210ntf    nn324258   7.049   0.179   2.298 -0.8065  1.2573 -0.1959
 4210ntf    sn224259   6.998   0.174   2.446 -0.2925  0.0082 -0.0422
 4210ntf    cn124260   7.037   0.002   2.487  0.0529  0.0561 -0.1732
 4210ntf    fn424261   6.798   0.309   2.217 -0.2552 -0.0123 -0.2681
 4210ntf    fn424262   6.954   0.377   2.093 -0.0958 -0.0106  0.0014
 4210ntf    fn424263   6.798   0.243   2.022 -0.4061  0.2099  0.2148
 4210ntf    on524264   6.885   0.015   2.178 -0.0780 -0.0099 -0.1271
 4210ntf    on524265   7.076   0.123   2.062  0.3785 -0.0078  0.2518
 4210ntf    on524266   6.857   0.205   2.453 -0.1455  0.8177 -0.4641
 4210ntf    on524267   7.084   0.247   2.536  0.0607 -0.3369 -0.1035
 4210ntf    fn424268   7.010  -0.087   2.392 -0.1638 -0.3855  0.2994
 4210ntf    fn424269   7.163  -0.030   2.512  0.0416  0.5235  0.5068
 4210ntf    fn424270   6.971  -0.032   2.596  0.1830  0.4098  0.0170
 4211ntf    cn124271   6.698   4.765   2.457 -0.0715 -0.2408 -0.0691
 4211ntf    sn224272   6.804   4.666   2.566 -0.1813 -0.2602  0.0195
 4211ntf    nn324273   6.780   4.742   2.701 -0.1024  0.1360 -0.1895
 4211ntf    sn224274   6.653   4.735   2.793  0.0733 -0.1549  0.0350
 4211ntf    cn124275   6.709   4.622   2.924 -0.1147  0.1432  0.3753
 4211ntf    fn424276   6.699   4.894   2.488  0.0646 -0.1541 -0.4235
 4211ntf    fn424277   6.739   4.764   2.331  0.3078  0.4883  0.0429
 4211ntf    fn424278   6.574   4.719   2.461  0.0335 -0.5062  0.1572
 4211ntf    on524279   6.747   4.533   2.557 -1.2078  0.1727  0.0030
 4211ntf    on524280   6.935   4.695   2.514 -0.3335  0.5697  0.0857
 4211ntf    on524281   6.540   4.660   2.745  0.1162 -0.0681 -0.2035
 4211ntf    on524282   6.617   4.858   2.861 -0.0454 -0.2182  0.0848
 4211ntf    fn424283   6.752   4.509   2.872 -0.1577  0.2993 -0.0078
 4211ntf    fn424284   6.805   4.677   2.997  0.6080 -0.5957 -0.0027
 4211ntf    fn424285   6.621   4.588   3.016 -0.0634 -0.1981  0.2978
 4212ntf    cn124286   3.597   6.007   1.433 -0.0256 -0.1593  0.1287
 4212ntf    sn224287   3.462   6.078   1.533  0.0954 -0.1413  0.2795
 4212ntf    nn324288   3.330   6.069   1.448  0.2132 -0.3442  0.1149
 4212ntf    sn224289   3.253   5.933   1.435 -0.0549 -0.1874  0.0602
 4212ntf    cn124290   3.110   5.993   1.341  0.1229  0.3460  0.1252
 4212ntf    fn424291   3.605   6.058   1.311  0.2872 -0.2571  0.1077
 4212ntf    fn424292   3.716   6.035   1.484  0.1338  0.0421 -0.3472
 4212ntf    fn424293   3.592   5.876   1.419  0.3405 -0.1977  0.3582
 4212ntf    on524294   3.463   5.994   1.650  0.2927  0.1600  0.4949
 4212ntf    on524295   3.512   6.211   1.556 -0.5789  0.1776 -0.0685
 4212ntf    on524296   3.190   5.879   1.553 -0.1282  0.3659  0.2786
 4212ntf    on524297   3.322   5.845   1.344  0.4152  0.0092  0.2225
 4212ntf    fn424298   3.137   6.021   1.214 -0.0683 -0.0329 -0.0041
 4212ntf    fn424299   3.023   5.893   1.335  0.0319  0.4236  0.1459
 4212ntf    fn424300   3.046   6.095   1.396 -0.1402 -0.0617  0.5848
 4213ntf    cn124301   2.011   0.504   1.076  0.1242 -0.3646 -0.0525
 4213ntf    sn224302   2.051   0.531   0.901 -0.1888 -0.0158 -0.0724
 4213ntf    nn324303   1.912   0.563   0.834  0.2350 -0.1026 -1.0146
 4213ntf    sn224304   1.802   0.457   0.798 -0.2382  0.0173  0.0483
 4213ntf    cn124305   1.833   0.445   0.619 -0.1085  0.0672  0.0673
 4213ntf    fn424306   1.952   0.615   1.119  0.2266 -0.1595 -0.4397
 4213ntf    fn424307   1.933   0.404   1.114  0.1565 -0.2689  0.2675
 4213ntf    fn424308   2.125   0.492   1.142  0.3566 -0.3639 -0.4539
 4213ntf    on524309   2.137   0.644   0.920  0.4489 -0.3956 -0.6271
 4213ntf    on524310   2.111   0.403   0.868  0.1186  0.0751  0.1292
 4213ntf    on524311   1.669   0.514   0.801 -0.2150  0.1361 -0.9542
 4213ntf    on524312   1.818   0.319   0.835  0.1249  0.2081  0.6068
 4213ntf    fn424313   1.952   0.390   0.602  0.0646  0.3525  0.3317
 4213ntf    fn424314   1.745   0.366   0.560  0.3284 -0.5613  0.2548
 4213ntf    fn424315   1.828   0.564   0.561 -0.1152  0.0115 -0.0465
 4214ntf    cn124316   4.680   1.695   2.647 -0.3598  0.0215  0.0556
 4214ntf    sn224317   4.634   1.761   2.484  0.2177 -0.1236 -0.1701
 4214ntf    nn324318   4.774   1.823   2.448  0.0566  0.0060 -0.5842
 4214ntf    sn224319   4.826   1.969   2.467  0.2091 -0.1538  0.2509
 4214ntf    cn124320   4.934   1.972   2.321  0.0573  0.3683  0.1453
 4214ntf    fn424321   4.767   1.596   2.633  0.0208  0.3362  0.1747
 4214ntf    fn424322   4.746   1.794   2.706 -0.4191  0.2191 -0.2070
 4214ntf    fn424323   4.581   1.651   2.722 -0.0639 -0.7151  0.0202
 4214ntf    on524324   4.604   1.643   2.408  0.0132  0.0656 -0.3868
 4214ntf    on524325   4.530   1.855   2.521  0.2025 -0.2791  0.1802
 4214ntf    on524326   4.918   1.975   2.578  0.6798 -0.0958 -0.1372
 4214ntf    on524327   4.739   2.082   2.444  0.5155 -0.1265 -0.8013
 4214ntf    fn424328   5.013   2.076   2.310  0.2289  0.2345  0.1110
 4214ntf    fn424329   5.014   1.867   2.308 -0.2110  0.1187  0.4891
 4214ntf    fn424330   4.869   1.984   2.206  0.0305 -0.0249  0.1174
 4215ntf    cn124331   1.106   6.433   5.580  0.3478 -0.2059 -0.2792
 4215ntf    sn224332   0.925   6.453   5.579  0.3412 -0.2332  0.0733
 4215ntf    nn324333   0.891   6.493   5.727  0.4312  0.1724 -0.0130
 4215ntf    sn224334   0.880   6.396   5.850  0.0574  0.0978 -0.1038
 4215ntf    cn124335   0.709   6.335   5.852  0.1734 -0.2153  0.3133
 4215ntf    fn424336   1.145   6.322   5.641 -0.0638 -0.0189  0.3383
 4215ntf    fn424337   1.162   6.441   5.461 -0.0339 -0.0001 -0.4461
 4215ntf    fn424338   1.154   6.534   5.651  0.4774 -0.0952 -0.5242
 4215ntf    on524339   0.908   6.571   5.497  0.3786  0.0166  0.4209
 4215ntf    on524340   0.876   6.326   5.531  0.0084 -0.1795  0.2734
 4215ntf    on524341   0.889   6.467   5.975  0.1011  0.1006 -0.1093
 4215ntf    on524342   0.952   6.271   5.841  0.2055  0.2115 -0.5036
 4215ntf    fn424343   0.681   6.265   5.961  0.8040 -0.3225  0.4129
 4215ntf    fn424344   0.614   6.427   5.846  0.3365 -0.0902 -0.3615
 4215ntf    fn424345   0.686   6.243   5.760  0.2727 -0.1354  0.2099
 4216ntf    cn124346   5.246   7.013   1.178  0.0636  0.0943  0.3957
 4216ntf    sn224347   5.111   6.902   1.128  0.0499  0.1985  0.1990
 4216ntf    nn324348   4.987   6.975   1.190  0.0129  0.0832  0.2602
 4216ntf    sn224349   4.884   6.923   1.297 -0.1680  0.1770  0.1323
 4216ntf    cn124350   4.745   6.873   1.192 -0.3428  0.3039  0.3026
 4216ntf    fn424351   5.226   7.137   1.134 -0.4205 -0.0793  0.1169
 4216ntf    fn424352   5.262   7.014   1.309  0.5539 -0.3473  0.3440
 4216ntf    fn424353   5.365   6.979   1.132  0.0749  0.9549 -0.2491
 4216ntf    on524354   5.107   6.912   0.984 -0.5844  0.2679  0.2205
 4216ntf    on524355   5.144   6.771   1.179 -0.2240 -0.0054 -0.1458
 4216ntf    on524356   4.839   7.029   1.384  0.3520  0.0077  0.6149
 4216ntf    on524357   4.918   6.795   1.354  0.4579  0.1129 -0.3813
 4216ntf    fn424358   4.772   6.759   1.130  0.0215  0.1504  0.7456
 4216ntf    fn424359   4.634   6.862   1.263 -0.5534  0.6313  0.0319
 4216ntf    fn424360   4.721   6.960   1.095 -0.1111 -0.1445 -0.1627
 4217ntf    cn124361   6.903   5.227   2.311 -0.0595  0.0015 -0.0662
 4217ntf    sn224362   6.872   5.397   2.253  0.0173  0.0154 -0.0651
 4217ntf    nn324363   6.931   5.386   2.108  0.1381 -0.0049 -0.0148
 4217ntf    sn224364   7.074   5.435   2.066 -0.0273  0.4249 -0.0826
 4217ntf    cn124365   7.025   5.600   2.009 -0.0741  0.3245 -0.3325
 4217ntf    fn424366   6.857   5.203   2.433 -0.2266 -0.2133 -0.1706
 4217ntf    fn424367   6.843   5.137   2.234 -0.2414 -0.1069  0.2013
 4217ntf    fn424368   7.030   5.191   2.309  0.0095  0.2514 -0.3552
 4217ntf    on524369   6.729   5.408   2.262  0.0198  0.4488 -0.5508
 4217ntf    on524370   6.941   5.488   2.341  0.2399  0.0358 -0.2582
 4217ntf    on524371   7.117   5.365   1.948 -0.0730  0.0544  0.1176
 4217ntf    on524372   7.170   5.455   2.172 -0.0788 -0.3243  0.1106
 4217ntf    fn424373   6.950   5.600   1.900 -0.2220  0.3558 -0.2307
 4217ntf    fn424374   6.959   5.669   2.101 -0.4488 -0.5308  0.0585
 4217ntf    fn424375   7.137   5.662   1.975  0.0512  0.5696  0.5006
 4218ntf    cn124376   4.483   0.428   5.183 -0.1461  0.3933 -0.2884
 4218ntf    sn224377   4.555   0.438   5.350  0.0905 -0.2042 -0.3527
 4218ntf    nn324378   4.435   0.506   5.425  0.2001 -0.2418 -0.1431
 4218ntf    sn224379   4.302   0.440   5.476  0.1740 -0.2442 -0.2151
 4218ntf    cn124380   4.335   0.424   5.654 -0.2420  0.4772 -0.0700
 4218ntf    fn424381   4.411   0.536   5.157 -0.5917 -0.0543 -0.9261
 4218ntf    fn424382   4.577   0.421   5.090  0.1165 -0.4416  0.0327
 4218ntf    fn424383   4.410   0.319   5.170  0.0401  0.2910 -0.4794
 4218ntf    on524384   4.585   0.301   5.384  0.2401 -0.2332 -0.5948
 4218ntf    on524385   4.666   0.526   5.324  0.1182 -0.0299  0.3388
 4218ntf    on524386   4.284   0.303   5.433  0.4584 -0.1812 -0.5332
 4218ntf    on524387   4.186   0.526   5.468  0.1234 -0.2778  0.1224
 4218ntf    fn424388   4.421   0.329   5.685 -0.1053  0.3897 -0.7027
 4218ntf    fn424389   4.376   0.538   5.707 -0.0674  0.5117 -0.2766
 4218ntf    fn424390   4.226   0.381   5.716 -0.0547 -0.1949 -0.1983
 4219ntf    cn124391   0.784   0.626   5.420  0.2124 -0.0645  0.0597
 4219ntf    sn224392   0.736   0.786   5.492  0.5491  0.0525  0.0238
 4219ntf    nn324393   0.620   0.730   5.582  0.1675  0.0538 -0.4650
 4219ntf    sn224394   0.466   0.759   5.574  0.1380  0.0774  0.1455
 4219ntf    cn124395   0.450   0.928   5.639  0.6456  0.2117 -0.0704
 4219ntf    fn424396   0.833   0.543   5.511 -0.0560 -0.1424  0.1337
 4219ntf    fn424397   0.680   0.559   5.373 -0.4710  0.7478  0.4030
 4219ntf    fn424398   0.878   0.642   5.328 -0.1626 -0.3017 -0.3699
 4219ntf    on524399   0.854   0.814   5.570  0.0713 -0.0296  0.7830
 4219ntf    on524400   0.697   0.865   5.378  0.4283  0.3760  0.2903
 4219ntf    on524401   0.398   0.674   5.668 -0.0167 -0.0145 -0.0481
 4219ntf    on524402   0.415   0.764   5.439  0.3661 -0.6035  0.0277
 4219ntf    fn424403   0.325   0.969   5.653  0.4600 -0.2835 -0.2224
 4219ntf    fn424404   0.507   0.930   5.758 -0.1808  0.7009  0.3244
 4219ntf    fn424405   0.506   1.025   5.569  0.4464  0.2137 -0.2309
 4220ntf    cn124406   3.094   1.517   2.631  0.2925 -0.0862  0.0771
 4220ntf    sn224407   3.241   1.613   2.679  0.2051  0.2359 -0.2979
 4220ntf    nn324408   3.235   1.727   2.571 -0.0722  0.2182 -0.3013
 4220ntf    sn224409   3.349   1.763   2.469  0.2508 -0.1096 -0.0575
 4220ntf    cn124410   3.314   1.941   2.458 -0.0026 -0.1232  0.5029
 4220ntf    fn424411   3.066   1.414   2.710 -0.4096 -0.0933 -0.1715
 4220ntf    fn424412   2.985   1.591   2.634  0.3458 -0.0084  0.0952
 4220ntf    fn424413   3.101   1.468   2.508 -0.2737  0.1314 -0.0425
 4220ntf    on524414   3.224   1.668   2.811  0.4173 -0.2525 -0.0632
 4220ntf    on524415   3.352   1.521   2.667  0.4407  0.4763  0.0288
 4220ntf    on524416   3.327   1.727   2.331 -0.2022  0.3592 -0.1089
 4220ntf    on524417   3.483   1.767   2.521  0.2771  0.2443 -0.1473
 4220ntf    fn424418   3.358   2.006   2.352 -0.1587 -0.2653  0.3495
 4220ntf    fn424419   3.184   1.968   2.460  0.1707  0.7756  0.1858
 4220ntf    fn424420   3.366   2.015   2.555  0.3870  0.2320  0.0239
 4221ntf    cn124421   4.318   6.481   4.270  0.1144 -0.0924 -0.2799
 4221ntf    sn224422   4.222   6.618   4.200 -0.1655 -0.3528 -0.4048
 4221ntf    nn324423   4.171   6.550   4.068 -0.4333  0.2262 -0.5998
 4221ntf    sn224424   4.041   6.463   4.056 -0.4252  0.1707 -0.2835
 4221ntf    cn124425   3.918   6.593   4.025 -0.3386  0.2617 -0.2492
 4221ntf    fn424426   4.381   6.506   4.384 -0.1848 -0.2847 -0.0720
 4221ntf    fn424427   4.249   6.372   4.299 -0.2063  0.0645 -0.4518
 4221ntf    fn424428   4.416   6.443   4.189  0.3614  0.1341 -0.0918
 4221ntf    on524429   4.120   6.662   4.292 -0.0170  0.2055 -0.5059
 4221ntf    on524430   4.320   6.719   4.169 -0.0787 -0.2289  0.2522
 4221ntf    on524431   3.998   6.395   4.176 -0.3436 -0.1142 -0.4125
 4221ntf    on524432   4.048   6.396   3.928 -0.0594  0.4242 -0.3975
 4221ntf    fn424433   3.811   6.542   3.967 -0.5301 -0.0504  0.3690
 4221ntf    fn424434   3.869   6.647   4.135 -0.5067 -0.3319 -0.0286
 4221ntf    fn424435   3.956   6.697   3.952 -0.6078  0.3303 -0.2904
 4222ntf    cn124436   1.582   5.091   4.106  0.2312  0.0000  0.2188
 4222ntf    sn224437   1.403   5.119   4.125  0.1868 -0.0906 -0.0475
 4222ntf    nn324438   1.403   5.132   4.282 -0.3602  0.4125 -0.0873
 4222ntf    sn224439   1.285   5.104   4.382  0.0631 -0.2869  0.2317
 4222ntf    cn124440   1.307   4.930   4.427 -0.1657 -0.3425  0.1323
 4222ntf    fn424441   1.626   5.103   3.981  0.2867 -0.1174  0.2274
 4222ntf    fn424442   1.646   5.182   4.178 -0.0568 -0.0022  0.4783
 4222ntf    fn424443   1.622   4.975   4.155 -0.2045 -0.2487 -0.0090
 4222ntf    on524444   1.384   5.247   4.061  0.1222 -0.1707 -0.1893
 4222ntf    on524445   1.339   5.002   4.071  0.1235 -0.2096  0.2787
 4222ntf    on524446   1.156   5.121   4.319  0.3186 -0.9283 -0.4778
 4222ntf    on524447   1.302   5.187   4.498  0.3793 -0.2062  0.1278
 4222ntf    fn424448   1.415   4.913   4.502 -0.0227  0.0159  0.0107
 4222ntf    fn424449   1.206   4.878   4.495 -0.0416 -0.0949  0.5059
 4222ntf    fn424450   1.318   4.848   4.323 -0.1075 -0.5608  0.3083
 4223ntf    cn124451   2.634   4.790   6.864 -0.0966  0.0055 -0.2167
 4223ntf    sn224452   2.706   4.678   6.741  0.3218 -0.0974  0.1176
 4223ntf    nn324453   2.662   4.536   6.792  0.0199  0.0984  0.4067
 4223ntf    sn224454   2.749   4.422   6.856  0.0103 -0.0425  0.1719
 4223ntf    cn124455   2.630   4.330   6.958  0.1392 -0.3884  0.0108
 4223ntf    fn424456   2.646   4.917   6.829 -0.4769  0.0950 -0.0365
 4223ntf    fn424457   2.503   4.770   6.870 -0.1261  0.0457 -0.7084
 4223ntf    fn424458   2.689   4.771   6.983 -0.0167 -0.0320 -0.2599
 4223ntf    on524459   2.635   4.718   6.621 -0.0535 -0.5191  0.1956
 4223ntf    on524460   2.848   4.703   6.743  0.2455  0.3878 -0.3027
 4223ntf    on524461   2.841   4.461   6.960 -0.0167  0.1743  0.1173
 4223ntf    on524462   2.789   4.322   6.761  0.4446 -0.6035  0.9375
 4223ntf    fn424463   2.596   4.416   7.053 -0.1677 -0.4251 -0.0644
 4223ntf    fn424464   2.519   4.282   6.904  0.1006 -0.2767 -0.0096
 4223ntf    fn424465   2.687   4.226   7.015  0.3535 -0.3844 -0.1932
 4224ntf    cn124466   2.744   2.939   3.444  0.4413  0.0629  0.3172
 4224ntf    sn224467   2.684   3.088   3.530 -0.1970  0.0461 -0.0910
 4224ntf    nn324468   2.561   3.027   3.605 -0.4484  0.2313 -0.3500
 4224ntf    sn224469   2.533   3.034   3.759  0.1110  0.1942 -0.2428
 4224ntf    cn124470   2.608   2.877   3.811 -0.3549  0.0247 -0.0797
 4224ntf    fn424471   2.848   2.963   3.367  0.0347 -0.1135 -0.2924
 4224ntf    fn424472   2.769   2.846   3.535  0.1153 -0.2382  0.1008
 4224ntf    fn424473   2.657   2.881   3.363 -0.0696  0.6907  0.4086
 4224ntf    on524474   2.804   3.126   3.601 -0.2120  0.0604 -0.0732
 4224ntf    on524475   2.641   3.180   3.427 -0.5317  0.4985  0.4497
 4224ntf    on524476   2.391   3.027   3.781  0.2367  0.9972  0.8952
 4224ntf    on524477   2.604   3.132   3.838  0.0528  0.2905 -0.3090
 4224ntf    fn424478   2.609   2.867   3.943  0.7885 -0.2601 -0.1030
 4224ntf    fn424479   2.567   2.758   3.769 -0.2443 -0.0213 -0.0588
 4224ntf    fn424480   2.734   2.883   3.771 -0.2973  0.2136  0.1256
 4225ntf    cn124481   3.920   3.226   1.724 -0.1684  0.8451  0.1331
 4225ntf    sn224482   3.859   3.194   1.892 -0.0393  0.0178  0.0305
 4225ntf    nn324483   3.885   3.332   1.964  0.0608 -0.0187  0.0656
 4225ntf    sn224484   4.014   3.382   2.038  0.0539 -0.1468  0.1646
 4225ntf    cn124485   3.973   3.342   2.211 -0.0925 -0.2664  0.1032
 4225ntf    fn424486   3.885   3.137   1.633  0.3815  0.5238  0.2270
 4225ntf    fn424487   3.866   3.334   1.672 -0.8311  0.3117 -0.2951
 4225ntf    fn424488   4.051   3.249   1.727  0.0916 -0.4114 -0.6770
 4225ntf    on524489   3.720   3.164   1.873  0.0548 -0.0579 -0.5541
 4225ntf    on524490   3.945   3.088   1.938 -0.0394  0.2448  0.5631
 4225ntf    on524491   4.024   3.526   2.043  0.4307 -0.1826  0.5369
 4225ntf    on524492   4.137   3.314   2.008  0.2587  0.6356 -0.8139
 4225ntf    fn424493   3.915   3.224   2.222 -0.2602 -0.1424  0.5475
 4225ntf    fn424494   4.086   3.344   2.281 -0.0409  0.0114  0.0125
 4225ntf    fn424495   3.894   3.436   2.260 -0.1787 -0.0744 -0.3972
 4226ntf    cn124496   5.476   1.809   1.083  0.3455  0.2259 -0.3004
 4226ntf    sn224497   5.315   1.809   1.000  0.0717 -0.0127  0.2255
 4226ntf    nn324498   5.227   1.871   1.114  0.1617  0.3523  0.0984
 4226ntf    sn224499   5.178   1.802   1.246 -0.2558 -0.0404 -0.2599
 4226ntf    cn124500   5.033   1.705   1.194 -0.4346  0.0895 -0.0077
 4226ntf    fn424501   5.498   1.694   1.145  0.1084  0.0640 -0.5153
 4226ntf    fn424502   5.576   1.827   0.997  0.2183  0.1923 -0.4550
 4226ntf    fn424503   5.487   1.905   1.173 -0.9573 -0.2482  0.3929
 4226ntf    on524504   5.336   1.899   0.889 -0.4436  0.1392  0.2481
 4226ntf    on524505   5.286   1.674   0.958 -0.0590  0.1267 -0.1417
 4226ntf    on524506   5.131   1.903   1.337  0.1084 -0.0090 -0.1034
 4226ntf    on524507   5.266   1.706   1.310  0.3747  0.6590 -0.0678
 4226ntf    fn424508   4.981   1.648   1.301 -0.4676  0.3770  0.1295
 4226ntf    fn424509   4.940   1.787   1.147  0.0284  0.4798 -0.2586
 4226ntf    fn424510   5.056   1.608   1.107 -0.5281  0.2667 -0.2321
 4227ntf    cn124511   2.907   0.824   4.913  0.3261 -0.2171 -0.0283
 4227ntf    sn224512   2.804   0.888   4.778  0.1544 -0.0160  0.1982
 4227ntf    nn324513   2.910   0.884   4.663  0.0852 -0.5263  0.1525
 4227ntf    sn224514   2.895   0.830   4.517 -0.2496 -0.0764  0.0218
 4227ntf    cn124515   3.049   0.888   4.440 -0.1280  0.1551  0.4401
 4227ntf    fn424516   2.965   0.711   4.876  0.0757 -0.2525 -0.3233
 4227ntf    fn424517   3.004   0.908   4.943  0.0700 -0.0612  0.3741
 4227ntf    fn424518   2.845   0.804   5.028  0.4395  0.1601  0.1007
 4227ntf    on524519   2.701   0.787   4.775  0.3064 -0.1729  0.2648
 4227ntf    on524520   2.764   1.020   4.821 -0.4926 -0.1285 -0.0429
 4227ntf    on524521   2.787   0.889   4.442 -0.4984 -0.2018  0.2807
 4227ntf    on524522   2.907   0.687   4.504 -0.6297 -0.1145  0.0622
 4227ntf    fn424523   3.162   0.828   4.475 -0.0604 -0.0065 -0.0557
 4227ntf    fn424524   3.037   0.881   4.309  0.1047  0.1230  0.4193
 4227ntf    fn424525   3.061   1.015   4.475 -0.9143  0.5579 -0.6833
 4228ntf    cn124526   6.095   6.713   3.994 -0.4091  0.1300  0.2140
 4228ntf    sn224527   5.998   6.834   4.090 -0.0199  0.4884  0.1578
 4228ntf    nn324528   6.019   6.766   4.230 -0.0669  0.0557 -0.0434
 4228ntf    sn224529   5.910   6.701   4.322  0.1647 -0.0140  0.1811
 4228ntf    cn124530   5.897   6.536   4.248  0.1057 -0.0295  0.2259
 4228ntf    fn424531   6.029   6.607   3.952  0.0347  0.0004 -0.1622
 4228ntf    fn424532   6.151   6.773   3.890  0.0099 -0.4923  0.0750
 4228ntf    fn424533   6.194   6.668   4.070 -0.0134 -0.1899 -0.4853
 4228ntf    on524534   6.071   6.958   4.079  0.3219  0.2781  0.0069
 4228ntf    on524535   5.868   6.821   4.030  0.2713  0.1882 -0.4266
 4228ntf    on524536   5.782   6.767   4.316  0.0431 -0.3030 -0.4296
 4228ntf    on524537   5.961   6.669   4.453 -0.1425  0.0704  0.3219
 4228ntf    fn424538   6.006   6.461   4.257  0.0488 -0.1634 -0.1766
 4228ntf    fn424539   5.800   6.461   4.300 -0.4936  0.6824  0.1505
 4228ntf    fn424540   5.866   6.538   4.119 -0.3862 -0.0121  0.3413
 4229ntf    cn124541   7.103   4.617   7.054  0.0019 -0.1728  0.1816
 4229ntf    sn224542   7.279   4.613   7.100  0.0881 -0.2093 -0.1512
 4229ntf    nn324543   7.341   4.693   6.979 -0.1967  0.3632  0.0778
 4229ntf    sn224544   7.384   4.843   6.965  0.0384  0.2360 -0.5681
 4229ntf    cn124545   7.560   4.816   6.999 -0.0026  0.1132 -0.4520
 4229ntf    fn424546   7.021   4.559   7.141 -0.1854 -0.3550 -0.1154
 4229ntf    fn424547   7.060   4.742   7.039  0.0046 -0.2247 -0.2636
 4229ntf    fn424548   7.085   4.567   6.933  0.1938 -0.0182  0.0890
 4229ntf    on524549   7.272   4.669   7.232 -0.0622 -0.4951 -0.0370
 4229ntf    on524550   7.319   4.475   7.094  0.2466 -0.1609 -0.2026
 4229ntf    on524551   7.342   4.936   7.067  0.2418  0.0834 -0.3448
 4229ntf    on524552   7.360   4.872   6.826 -0.3131  0.3935 -0.4752
 4229ntf    fn424553   7.636   4.924   7.006 -0.0806  0.1410 -0.0054
 4229ntf    fn424554   7.582   4.762   7.118  0.1065 -0.2465 -0.6338
 4229ntf    fn424555   7.623   4.737   6.913 -0.9631 -0.4276 -0.6669
 4230ntf    cn124556   1.168   3.826   1.875 -0.3008 -0.1545  0.0502
 4230ntf    sn224557   1.020   3.909   1.941 -0.1749  0.0007  0.1392
 4230ntf    nn324558   0.910   3.801   1.910 -0.5484  0.3642  0.1974
 4230ntf    sn224559   0.821   3.773   1.784 -0.0922 -0.0518 -0.0356
 4230ntf    cn124560   0.658   3.822   1.848 -0.1570 -0.2396 -0.0583
 4230ntf    fn424561   1.269   3.911   1.861 -0.3252 -0.1433 -0.0608
 4230ntf    fn424562   1.199   3.732   1.962  0.1199  0.0775  0.1567
 4230ntf    fn424563   1.143   3.771   1.757  0.6050  0.2038 -0.3180
 4230ntf    on524564   1.042   3.921   2.083 -0.0119 -0.5335  0.1646
 4230ntf    on524565   1.019   4.030   1.863  0.1182 -0.0203  0.1008
 4230ntf    on524566   0.810   3.635   1.746  0.2353 -0.1058  0.0588
 4230ntf    on524567   0.838   3.869   1.677  0.0916 -0.1574 -0.1010
 4230ntf    fn424568   0.658   3.953   1.864 -0.0053 -0.2827  0.2855
 4230ntf    fn424569   0.569   3.789   1.756 -0.4069  0.2059  0.0207
 4230ntf    fn424570   0.628   3.781   1.970  0.0661 -0.1619  0.0222
 4231ntf    cn124571   3.193   5.854   4.531  0.2039 -0.2098  0.0143
 4231ntf    sn224572   3.178   6.030   4.571 -0.1059 -0.2875  0.2404
 4231ntf    nn324573   3.061   6.035   4.676 -0.0761  0.2972  0.2542
 4231ntf    sn224574   2.912   6.054   4.630  0.0197 -0.0596 -0.2201
 4231ntf    cn124575   2.899   6.233   4.605 -0.2208 -0.0435  0.0064
 4231ntf    fn424576   3.290   5.835   4.443 -0.2202  0.4500 -0.6101
 4231ntf    fn424577   3.227   5.785   4.639 -0.7589  0.0040  0.4616
 4231ntf    fn424578   3.081   5.794   4.496  0.0295 -0.1281  0.4302
 4231ntf    on524579   3.305   6.054   4.635  0.0648 -0.0695 -0.1735
 4231ntf    on524580   3.152   6.085   4.441 -0.0517 -0.3077  0.2219
 4231ntf    on524581   2.831   6.045   4.749  0.1969  0.3959 -0.0616
 4231ntf    on524582   2.865   5.979   4.516  0.1444  0.4250 -0.5950
 4231ntf    fn424583   2.980   6.291   4.693  0.2526 -0.6513 -0.0258
 4231ntf    fn424584   2.948   6.279   4.491 -0.7281  0.0225 -0.1884
 4231ntf    fn424585   2.773   6.272   4.613  0.0242  0.7038  0.3043
 4232ntf    cn124586   6.791   5.557   0.908 -0.3702  0.1774 -0.2816
 4232ntf    sn224587   6.882   5.713   0.885 -0.0411  0.0781  0.3170
 4232ntf    nn324588   6.918   5.719   0.732  0.9752 -0.4507  0.5323
 4232ntf    sn224589   7.010   5.820   0.655 -0.1118  0.0452 -0.1234
 4232ntf    cn124590   6.925   5.832   0.495  0.0040 -0.1344 -0.1993
 4232ntf    fn424591   6.864   5.449   0.889 -0.4916  0.0643 -0.1140
 4232ntf    fn424592   6.736   5.543   1.028 -0.4335  0.2412 -0.3029
 4232ntf    fn424593   6.695   5.548   0.817  0.0130  0.0480 -0.6712
 4232ntf    on524594   6.769   5.797   0.917 -0.4014 -0.4087  0.3434
 4232ntf    on524595   6.991   5.701   0.978  0.0759  0.0917  0.1820
 4232ntf    on524596   7.136   5.755   0.630  0.2365  0.6270  0.1032
 4232ntf    on524597   7.013   5.955   0.707 -0.0599 -0.0830  0.2106
 4232ntf    fn424598   6.913   5.708   0.450  0.2327 -0.2917  0.1728
 4232ntf    fn424599   6.804   5.887   0.494 -0.1534 -0.4771 -0.2432
 4232ntf    fn424600   7.001   5.903   0.413  0.5648  0.2544  0.6391
 4233ntf    cn124601   3.402   6.792   4.172  0.0319  0.3716 -0.4285
 4233ntf    sn224602   3.235   6.743   4.226  0.3237 -0.0232  0.1210
 4233ntf    nn324603   3.244   6.768   4.381 -0.0138  0.2500  0.0976
 4233ntf    sn224604   3.267   6.653   4.486 -0.0428  0.1603  0.0072
 4233ntf    cn124605   3.098   6.593   4.514  0.0714 -0.2656 -0.2173
 4233ntf    fn424606   3.428   6.915   4.210  0.2186  0.0777  0.4065
 4233ntf    fn424607   3.496   6.708   4.212 -0.0968  0.4707  0.0848
 4233ntf    fn424608   3.412   6.801   4.040 -0.0906 -0.4632 -0.5002
 4233ntf    on524609   3.149   6.841   4.165  0.2247  0.2196  0.6424
 4233ntf    on524610   3.228   6.604   4.190 -0.3902  0.1306 -0.3512
 4233ntf    on524611   3.304   6.710   4.613  0.0067 -0.4655  0.2773
 4233ntf    on524612   3.345   6.536   4.456 -0.2623 -0.0389  0.2109
 4233ntf    fn424613   3.022   6.672   4.588  0.3448  0.0644 -0.2869
 4233ntf    fn424614   3.030   6.576   4.402 -0.6259  0.0552  0.1554
 4233ntf    fn424615   3.101   6.475   4.575  0.1536  0.0569  0.4055
 4234ntf    cn124616   3.244   7.025   3.197  0.0106 -0.1228 -0.1243
 4234ntf    sn224617   3.311   6.919   3.329 -0.3197  0.0334  0.1674
 4234ntf    nn324618   3.203   6.936   3.442 -0.6566  0.2456 -0.1810
 4234ntf    sn224619   3.156   6.838   3.555 -0.3095  0.1128 -0.1474
 4234ntf    cn124620   3.130   6.962   3.686  0.0354  0.3060 -0.2608
 4234ntf    fn424621   3.328   7.037   3.095 -0.1323 -0.4451 -0.2830
 4234ntf    fn424622   3.137   6.973   3.139 -0.2141  0.4337 -0.2083
 4234ntf    fn424623   3.213   7.145   3.242  0.5142 -0.2256  0.5090
 4234ntf    on524624   3.318   6.789   3.268 -0.0043  0.1959 -0.1460
 4234ntf    on524625   3.432   6.992   3.358 -0.3377  0.1786 -0.1209
 4234ntf    on524626   3.258   6.752   3.607 -0.0610  0.2051 -0.4813
 4234ntf    on524627   3.027   6.778   3.531 -0.1330 -0.5341  0.4798
 4234ntf    fn424628   3.238   7.036   3.704 -0.2699  0.6534  0.1693
 4234ntf    fn424629   3.036   7.048   3.649  0.1265  0.4356 -0.1891
 4234ntf    fn424630   3.087   6.904   3.797 -0.0217  0.5890 -0.1359
 4235ntf    cn124631   2.458   1.186   1.942  0.0044  0.1237 -0.0234
 4235ntf    sn224632   2.330   1.312   1.911  0.1473  0.2320 -0.1775
 4235ntf    nn324633   2.415   1.444   1.916  0.4506  0.0387 -0.2071
 4235ntf    sn224634   2.443   1.534   2.041 -0.0872  0.0515 -0.0923
 4235ntf    cn124635   2.311   1.657   2.019 -0.0143  0.1427 -0.0189
 4235ntf    fn424636   2.440   1.069   1.884  0.0701 -0.0185  0.2417
 4235ntf    fn424637   2.578   1.234   1.916  0.0940  0.2579  0.6206
 4235ntf    fn424638   2.466   1.147   2.068 -0.0248 -0.3739 -0.1747
 4235ntf    on524639   2.286   1.285   1.777  0.1047 -0.4697 -0.0277
 4235ntf    on524640   2.231   1.300   2.016  0.4905  0.4150  0.1670
 4235ntf    on524641   2.568   1.604   2.027  0.0545 -0.0114  0.7754
 4235ntf    on524642   2.420   1.461   2.163  0.1098  0.2875  0.0887
 4235ntf    fn424643   2.318   1.775   2.078  0.1683  0.0032  0.2404
 4235ntf    fn424644   2.287   1.666   1.889 -0.2186  0.1652  0.0214
 4235ntf    fn424645   2.203   1.609   2.078 -0.0064  0.0637 -0.0691
 4236ntf    cn124646   3.878   4.925   6.079  0.5889  0.0621 -0.3257
 4236ntf    sn224647   4.017   4.809   6.066  0.2021 -0.4265 -0.1516
 4236ntf    nn324648   3.977   4.706   6.178 -0.7859  0.5343  0.3890
 4236ntf    sn224649   4.031   4.718   6.325  0.0999 -0.1191  0.1225
 4236ntf    cn124650   4.187   4.629   6.297 -0.2341 -0.5993 -0.2386
 4236ntf    fn424651   3.761   4.870   6.053  0.6782 -0.0856 -0.4188
 4236ntf    fn424652   3.877   4.964   6.205 -0.0034 -0.2641 -0.2238
 4236ntf    fn424653   3.890   5.034   6.006  0.4282  0.0237 -0.4098
 4236ntf    on524654   4.000   4.756   5.933 -0.5695  0.0332 -0.2415
 4236ntf    on524655   4.134   4.887   6.100 -0.4221  0.3992  0.1145
 4236ntf    on524656   3.946   4.637   6.409  0.2794 -0.4967 -0.0574
 4236ntf    on524657   4.067   4.849   6.375 -0.5543 -0.1149  0.5932
 4236ntf    fn424658   4.275   4.682   6.213 -0.4706  0.2913  0.0597
 4236ntf    fn424659   4.251   4.618   6.412 -0.0988  0.2443 -0.2242
 4236ntf    fn424660   4.163   4.507   6.253  0.0277 -0.7144 -0.0651
 4237ntf    cn124661   4.445   0.450   7.110 -0.4588 -0.3161  0.4446
 4237ntf    sn224662   4.409   0.555   6.966  0.5431 -0.2507  0.2333
 4237ntf    nn324663   4.536   0.522   6.880  0.2210 -0.1817 -0.2729
 4237ntf    sn224664   4.625   0.635   6.817  0.0134  0.0163 -0.2126
 4237ntf    cn124665   4.644   0.548   6.658 -0.1495 -0.4475  0.0222
 4237ntf    fn424666   4.560   0.488   7.163 -0.2305 -0.1533 -0.1609
 4237ntf    fn424667   4.351   0.458   7.203 -0.8530 -0.6233  0.0783
 4237ntf    fn424668   4.461   0.328   7.063 -0.2744 -0.0704 -0.1337
 4237ntf    on524669   4.298   0.480   6.912  0.5874 -0.4797  0.4577
 4237ntf    on524670   4.396   0.692   7.007 -0.0830 -0.2811  0.1440
 4237ntf    on524671   4.757   0.655   6.871  0.0021  0.2132 -0.2546
 4237ntf    on524672   4.560   0.753   6.766  0.2156  0.0391 -0.4205
 4237ntf    fn424673   4.708   0.432   6.662  0.4465 -0.1368 -0.4101
 4237ntf    fn424674   4.524   0.523   6.610 -0.2198  0.2164 -0.1556
 4237ntf    fn424675   4.709   0.615   6.565 -0.5861  0.0891  0.1014
 4238ntf    cn124676   6.477   2.268   5.256 -0.1665  0.1024 -0.1325
 4238ntf    sn224677   6.426   2.261   5.430  0.1093  0.2467 -0.0448
 4238ntf    nn324678   6.542   2.338   5.503  0.4077 -0.0111 -0.2428
 4238ntf    sn224679   6.662   2.271   5.579  0.2242 -0.0346  0.0312
 4238ntf    cn124680   6.746   2.194   5.437 -0.0287 -0.3360  0.0452
 4238ntf    fn424681   6.382   2.243   5.167 -0.7241  0.1893  0.4334
 4238ntf    fn424682   6.538   2.378   5.214 -0.2755  0.3897  0.4468
 4238ntf    fn424683   6.568   2.173   5.238  0.1646  0.3526  0.2107
 4238ntf    on524684   6.306   2.339   5.415 -0.1066 -0.0347  0.2004
 4238ntf    on524685   6.413   2.121   5.464  0.1572  0.4004  0.6300
 4238ntf    on524686   6.635   2.161   5.668  0.2376  0.2277  0.3613
 4238ntf    on524687   6.768   2.357   5.625  0.2028 -0.0076  0.0301
 4238ntf    fn424688   6.702   2.075   5.398 -0.4004  0.0004 -0.5741
 4238ntf    fn424689   6.752   2.276   5.333  0.0302 -0.4538 -0.0447
 4238ntf    fn424690   6.872   2.172   5.469  0.0319 -0.5028 -0.3106
 4239ntf    cn124691   3.918   5.100   3.372 -0.1962 -0.0885  0.3881
 4239ntf    sn224692   4.057   4.992   3.420  0.0590  0.1677  0.2307
 4239ntf    nn324693   3.992   4.859   3.369  0.3510  0.1269 -0.0340
 4239ntf    sn224694   4.073   4.728   3.339 -0.0907 -0.1496 -0.0363
 4239ntf    cn124695   4.087   4.755   3.159  0.0848 -0.1234 -0.0193
 4239ntf    fn424696   3.918   5.111   3.240 -0.2617 -0.2285  0.3765
 4239ntf    fn424697   3.797   5.064   3.410 -0.3238  0.0388  0.1015
 4239ntf    fn424698   3.937   5.220   3.424 -0.1649 -0.1017  0.4077
 4239ntf    on524699   4.171   5.048   3.352  0.2348 -0.6192 -0.1282
 4239ntf    on524700   4.049   4.990   3.564 -0.2332 -0.2334  0.2112
 4239ntf    on524701   3.983   4.615   3.349 -0.4589  0.1812  0.3850
 4239ntf    on524702   4.208   4.715   3.387  0.1562 -0.3766 -0.7651
 4239ntf    fn424703   4.133   4.873   3.120 -0.0155 -0.0994 -0.0656
 4239ntf    fn424704   4.161   4.663   3.099  0.6231 -0.1496  0.6686
 4239ntf    fn424705   3.965   4.747   3.108  0.0721  0.2388 -0.0479
 4240ntf    cn124706   0.913   2.795   4.963  0.1118  0.0625  0.4958
 4240ntf    sn224707   0.866   2.624   5.003 -0.0278 -0.0224 -0.0236
 4240ntf    nn324708   1.003   2.560   4.960  0.2080  0.4197  0.0698
 4240ntf    sn224709   1.130   2.540   5.051 -0.0068  0.1808  0.3198
 4240ntf    cn124710   1.236   2.454   4.931 -0.3666 -0.0486  0.1658
 4240ntf    fn424711   0.954   2.813   4.838 -0.3659  0.4249  0.3889
 4240ntf    fn424712   0.822   2.889   4.984  0.1147  0.0096  0.7537
 4240ntf    fn424713   1.018   2.840   5.029  0.2470  0.7004 -0.1349
 4240ntf    on524714   0.840   2.625   5.145  0.4995 -0.3553  0.0810
 4240ntf    on524715   0.761   2.592   4.909  0.0675 -0.4881  0.0281
 4240ntf    on524716   1.114   2.439   5.153  0.2339  0.1487  0.3268
 4240ntf    on524717   1.200   2.660   5.090 -0.3435  0.5114 -0.0845
 4240ntf    fn424718   1.323   2.539   4.879 -0.2660 -0.6623 -0.7022
 4240ntf    fn424719   1.305   2.353   4.979 -0.6272 -0.2602  0.0998
 4240ntf    fn424720   1.170   2.404   4.827 -0.0539  0.1580 -0.1354
 4241ntf    cn124721   5.941   3.745   6.830  0.1243 -0.1609 -0.1523
 4241ntf    sn224722   5.945   3.598   6.937  0.0804  0.0477  0.1374
 4241ntf    nn324723   5.910   3.485   6.833  0.4326  0.1982 -0.1435
 4241ntf    sn224724   6.012   3.419   6.734  0.1706 -0.0102 -0.2757
 4241ntf    cn124725   5.891   3.328   6.634 -0.0789 -0.2882  0.2741
 4241ntf    fn424726   6.032   3.747   6.733  0.4803  0.2475  0.1827
 4241ntf    fn424727   5.820   3.755   6.778  0.1466 -0.1444 -0.2025
 4241ntf    fn424728   5.967   3.856   6.897 -0.0371 -0.3728  0.2684
 4241ntf    on524729   6.080   3.601   6.987  0.0347  0.4204  0.2412
 4241ntf    on524730   5.839   3.633   7.028  0.0569 -0.5116  0.3322
 4241ntf    on524731   6.096   3.312   6.782  0.1801  0.1486  0.0602
 4241ntf    on524732   6.070   3.513   6.641  0.1673  0.1788 -0.0883
 4241ntf    fn424733   5.801   3.261   6.704  0.0875 -0.3384  0.4425
 4241ntf    fn424734   5.826   3.413   6.557  0.3470  0.0675  0.3011
 4241ntf    fn424735   5.943   3.234   6.555  0.1284  0.0028  0.0635
 4242ntf    cn124736   5.777   6.273   1.963 -0.2477 -0.0666  0.0754
 4242ntf    sn224737   5.921   6.383   1.944 -0.4557  0.1609 -0.2161
 4242ntf    nn324738   5.857   6.526   1.952 -0.5194  0.1310 -0.1890
 4242ntf    sn224739   5.905   6.663   1.892 -0.1920  0.0220 -0.1770
 4242ntf    cn124740   5.742   6.729   1.845 -0.2118  0.3060  0.2945
 4242ntf    fn424741   5.724   6.288   2.083  0.4137 -0.0399  0.3694
 4242ntf    fn424742   5.689   6.297   1.867  0.5469 -0.1336 -0.6874
 4242ntf    fn424743   5.804   6.144   1.955 -0.6942 -0.1372 -0.3177
 4242ntf    on524744   5.996   6.357   2.065 -0.5096 -0.2234 -0.2624
 4242ntf    on524745   5.985   6.353   1.819  0.5650  0.1913  0.2858
 4242ntf    on524746   5.970   6.650   1.763  0.2856 -0.1857  0.0835
 4242ntf    on524747   5.969   6.751   1.986 -0.2372 -0.7643  0.5965
 4242ntf    fn424748   5.688   6.777   1.956 -0.2331 -0.2908  0.5433
 4242ntf    fn424749   5.740   6.823   1.752 -0.0538  0.0526  0.0336
 4242ntf    fn424750   5.674   6.626   1.800 -0.1270  0.3570  0.0511
 4243ntf    cn124751   3.979   6.232   6.759 -0.1169 -0.0130  0.1523
 4243ntf    sn224752   4.148   6.276   6.710 -0.0656 -0.4627 -0.0802
 4243ntf    nn324753   4.130   6.328   6.563 -0.0250  0.5447  0.2572
 4243ntf    sn224754   4.236   6.389   6.464  0.1799 -0.0264  0.1163
 4243ntf    cn124755   4.301   6.239   6.385 -0.2164 -0.2825  0.2737
 4243ntf    fn424756   3.909   6.344   6.770 -0.1970 -0.0709  0.2374
 4243ntf    fn424757   3.929   6.147   6.672  0.1255  0.2931 -0.2871
 4243ntf    fn424758   3.965   6.178   6.879  0.2746 -0.2187  0.1044
 4243ntf    on524759   4.170   6.380   6.808 -0.2119 -0.5315  0.0257
 4243ntf    on524760   4.218   6.151   6.726  0.2491 -0.2323  0.3808
 4243ntf    on524761   4.346   6.457   6.527 -0.1410  0.0998  0.5462
 4243ntf    on524762   4.167   6.455   6.356  0.1109 -0.7328 -0.2774
 4243ntf    fn424763   4.383   6.181   6.470  0.2057 -0.1718 -0.0555
 4243ntf    fn424764   4.204   6.154   6.356 -0.4194  0.1153 -0.2205
 4243ntf    fn424765   4.362   6.270   6.272 -0.1457  0.0429  0.4020
 4244ntf    cn124766   5.444   0.544   4.094  0.1917 -0.0117  0.1210
 4244ntf    sn224767   5.578   0.484   4.201  0.2667 -0.1370 -0.0424
 4244ntf    nn324768   5.530   0.521   4.346 -0.0034 -0.1886 -0.1195
 4244ntf    sn224769   5.504   0.667   4.397  0.0250 -0.2192 -0.0173
 4244ntf    cn124770   5.589   0.668   4.557 -0.1844 -0.3008  0.0955
 4244ntf    fn424771   5.326   0.526   4.149  0.4306  0.2244  0.7210
 4244ntf    fn424772   5.452   0.670   4.055 -0.1094  0.1185  0.4837
 4244ntf    fn424773   5.440   0.467   3.986 -0.7977  0.4001 -0.1493
 4244ntf    on524774   5.579   0.342   4.180 -0.3362 -0.1344 -0.0803
 4244ntf    on524775   5.701   0.549   4.161  0.0309 -0.0040 -0.5623
 4244ntf    on524776   5.366   0.684   4.438  0.1182 -0.1390  0.2647
 4244ntf    on524777   5.566   0.774   4.323 -0.2359 -0.2714 -0.3164
 4244ntf    fn424778   5.565   0.554   4.619  0.1074 -0.5077 -0.1686
 4244ntf    fn424779   5.721   0.675   4.555 -0.1924 -0.3660 -0.6354
 4244ntf    fn424780   5.546   0.770   4.630  0.2482  0.0502 -0.1371
 4245ntf    cn124781   4.814   5.305   3.956 -0.2730  0.6249 -0.2770
 4245ntf    sn224782   4.870   5.266   3.787 -0.0082  0.1274 -0.0792
 4245ntf    nn324783   4.957   5.137   3.805  0.5072  0.5359  0.4138
 4245ntf    sn224784   5.097   5.104   3.743  0.1690  0.1460 -0.1537
 4245ntf    cn124785   5.115   4.932   3.800  0.0349  0.1317 -0.1548
 4245ntf    fn424786   4.905   5.303   4.052 -0.4844 -0.4845 -0.0873
 4245ntf    fn424787   4.773   5.430   3.966  0.0030  0.6921  0.0358
 4245ntf    fn424788   4.710   5.234   3.997  0.3342  0.0416  0.2893
 4245ntf    on524789   4.744   5.237   3.724 -0.3031  0.0785  0.5203
 4245ntf    on524790   4.944   5.384   3.752  0.7564 -0.3776 -0.1784
 4245ntf    on524791   5.209   5.169   3.805  0.0059  0.1705  0.1132
 4245ntf    on524792   5.104   5.101   3.599  0.0917 -0.5109 -0.1486
 4245ntf    fn424793   5.132   4.935   3.931  0.0638 -0.4845 -0.1431
 4245ntf    fn424794   5.015   4.849   3.781  0.1315  0.0040 -0.1068
 4245ntf    fn424795   5.222   4.873   3.750 -0.1147  0.1633 -0.5177
 4246ntf    cn124796   0.871   1.103   1.971 -0.2703  0.1660 -0.3161
 4246ntf    sn224797   0.848   1.092   1.791 -0.4661 -0.0845 -0.2756
 4246ntf    nn324798   0.795   0.944   1.782 -0.2536 -0.2120  0.5202
 4246ntf    sn224799   0.653   0.881   1.762 -0.1910 -0.1650 -0.0858
 4246ntf    cn124800   0.648   0.903   1.582 -0.2010 -0.0020 -0.0661
 4246ntf    fn424801   0.916   1.224   1.999  0.5452 -0.1589 -0.1691
 4246ntf    fn424802   0.757   1.093   2.036 -0.2241  0.1299 -0.2400
 4246ntf    fn424803   0.959   1.019   2.024 -0.5713  0.0341 -0.0234
 4246ntf    on524804   0.754   1.197   1.761  0.3342  0.7037 -0.0792
 4246ntf    on524805   0.987   1.101   1.755 -0.4643  0.2327 -0.1878
 4246ntf    on524806   0.539   0.959   1.803 -0.0233  0.0011  0.0665
 4246ntf    on524807   0.652   0.740   1.791  0.3748 -0.0807  0.3727
 4246ntf    fn424808   0.633   1.028   1.540 -0.0117  0.0109 -0.0974
 4246ntf    fn424809   0.761   0.858   1.529 -0.2145  0.4611 -0.4957
 4246ntf    fn424810   0.555   0.829   1.525  0.0266 -0.3178 -0.0342
 4247ntf    cn124811   4.911   2.941   2.083 -0.5001 -0.2842 -0.0501
 4247ntf    sn224812   4.991   2.876   2.233 -0.1368  0.0103 -0.1154
 4247ntf    nn324813   4.890   2.762   2.272 -0.0684  0.1606  0.5164
 4247ntf    sn224814   4.919   2.627   2.345  0.4330  0.0099  0.0511
 4247ntf    cn124815   4.913   2.527   2.193 -0.0517 -0.1005  0.1381
 4247ntf    fn424816   5.000   3.024   2.031  0.1008 -0.7827  0.1558
 4247ntf    fn424817   4.880   2.850   1.992  0.0714 -0.2432 -0.2902
 4247ntf    fn424818   4.795   3.001   2.102 -0.2065  0.2608  0.0151
 4247ntf    on524819   5.115   2.826   2.178  0.4353  0.7194  0.5038
 4247ntf    on524820   4.992   2.987   2.326 -0.1678 -0.2745  0.2267
 4247ntf    on524821   4.802   2.577   2.415  0.1577  0.3555 -0.1595
 4247ntf    on524822   5.050   2.609   2.401  0.4745  0.2171  0.0177
 4247ntf    fn424823   4.911   2.400   2.230  0.6028 -0.2141 -0.1917
 4247ntf    fn424824   4.810   2.543   2.112 -0.1743 -0.2600  0.2604
 4247ntf    fn424825   5.020   2.534   2.116 -0.4536  0.6683 -0.3650
 4248ntf    cn124826   3.812   2.582   5.773  0.1070  0.2486  0.3631
 4248ntf    sn224827   3.785   2.643   5.604  0.1699 -0.2338  0.1765
 4248ntf    nn324828   3.739   2.789   5.638  0.2173 -0.0820 -0.4039
 4248ntf    sn224829   3.597   2.855   5.621  0.0903 -0.2244  0.0924
 4248ntf    cn124830   3.504   2.765   5.749  0.5225 -0.2839  0.3674
 4248ntf    fn424831   3.919   2.642   5.821  0.4426 -0.1412  0.1057
 4248ntf    fn424832   3.711   2.612   5.853  0.4118  0.4123  0.6882
 4248ntf    fn424833   3.825   2.450   5.782 -0.6014  0.1634  0.2199
 4248ntf    on524834   3.914   2.636   5.540  0.0950  0.5823 -0.0802
 4248ntf    on524835   3.696   2.555   5.533  0.6587 -0.1052 -0.6060
 4248ntf    on524836   3.530   2.828   5.497  0.0231 -0.2985  0.1437
 4248ntf    on524837   3.589   2.991   5.668  0.2513 -0.0339 -0.4321
 4248ntf    fn424838   3.575   2.761   5.861  0.5715 -0.0319  0.3455
 4248ntf    fn424839   3.381   2.810   5.767  0.5083 -0.2149  0.0926
 4248ntf    fn424840   3.476   2.642   5.711 -0.1239 -0.0839  0.1825
 4249ntf    cn124841   5.961   3.318   0.866  0.0992 -0.2805 -0.3779
 4249ntf    sn224842   5.847   3.458   0.843 -0.0757 -0.3225  0.2371
 4249ntf    nn324843   5.907   3.568   0.937  0.0258 -0.0474 -0.1500
 4249ntf    sn224844   5.838   3.679   1.024  0.3268  0.1177 -0.1213
 4249ntf    cn124845   5.872   3.816   0.909  0.3578 -0.0877 -0.3563
 4249ntf    fn424846   5.911   3.202   0.828  0.1268 -0.3936 -0.0663
 4249ntf    fn424847   6.072   3.331   0.796  0.4399  0.0218  0.2138
 4249ntf    fn424848   5.992   3.298   0.993 -0.2970  0.5803 -0.1410
 4249ntf    on524849   5.857   3.486   0.702 -0.3164 -0.6704  0.1485
 4249ntf    on524850   5.719   3.408   0.888 -0.2851 -0.4360 -0.4813
 4249ntf    on524851   5.913   3.730   1.136  0.1673  0.1742 -0.0389
 4249ntf    on524852   5.694   3.676   1.024  0.3248  0.1940 -0.0087
 4249ntf    fn424853   5.813   3.930   0.941 -0.1217 -0.3183 -0.4061
 4249ntf    fn424854   6.001   3.843   0.915  0.3436 -0.0216 -0.3628
 4249ntf    fn424855   5.839   3.784   0.785 -0.0672 -0.3099 -0.1897
 4250ntf    cn124856   5.498   1.371   0.443  0.2338 -0.1385  0.3005
 4250ntf    sn224857   5.542   1.196   0.424  0.0458 -0.1238 -0.2961
 4250ntf    nn324858   5.524   1.170   0.270  0.2709 -0.3777 -0.2819
 4250ntf    sn224859   5.397   1.130   0.187 -0.1023  0.2768 -0.0387
 4250ntf    cn124860   5.441   0.960   0.139 -0.2813  0.2747 -0.1978
 4250ntf    fn424861   5.595   1.447   0.394  0.3023 -0.6040 -0.2927
 4250ntf    fn424862   5.389   1.404   0.376  0.3803  0.2772  0.2643
 4250ntf    fn424863   5.476   1.404   0.569 -0.1389 -0.4487  0.3174
 4250ntf    on524864   5.682   1.186   0.456  0.0113 -0.3745 -0.2191
 4250ntf    on524865   5.460   1.117   0.514  0.1336  0.5828  0.4146
 4250ntf    on524866   5.382   1.194   0.059  0.0889 -0.6100 -0.5188
 4250ntf    on524867   5.276   1.107   0.263 -0.1538 -0.0550 -0.2172
 4250ntf    fn424868   5.552   0.959   0.067  0.3303 -0.3000  0.7183
 4250ntf    fn424869   5.467   0.879   0.241 -0.4867  0.3985 -0.0456
 4250ntf    fn424870   5.347   0.907   0.062 -0.0151 -0.2709 -0.1557
 4251ntf    cn124871   1.866   0.742   6.378 -0.2050 -0.1147 -0.2234
 4251ntf    sn224872   1.831   0.607   6.261  0.2343 -0.1641 -0.2992
 4251ntf    nn324873   1.678   0.587   6.287  0.1724  0.1451 -0.4211
 4251ntf    sn224874   1.552   0.619   6.197 -0.1024 -0.0248 -0.0981
 4251ntf    cn124875   1.484   0.758   6.292  0.3382  0.1931 -0.0989
 4251ntf    fn424876   1.995   0.765   6.396 -0.3362  0.6829 -0.2537
 4251ntf    fn424877   1.807   0.852   6.333  0.2282  0.0994 -0.2749
 4251ntf    fn424878   1.804   0.722   6.493  0.1095  0.3117  0.0235
 4251ntf    on524879   1.872   0.667   6.137  0.3671  0.7666  0.1810
 4251ntf    on524880   1.914   0.502   6.315  0.1387 -0.3598 -0.5355
 4251ntf    on524881   1.453   0.516   6.215 -0.2222  0.0719 -0.2084
 4251ntf    on524882   1.571   0.675   6.066  0.1904 -0.5876 -0.3009
 4251ntf    fn424883   1.371   0.810   6.247 -0.1769 -0.4047  0.4728
 4251ntf    fn424884   1.461   0.727   6.419  0.8571  0.7648  0.1431
 4251ntf    fn424885   1.574   0.855   6.290  0.1798  0.3400 -0.1301
 4252ntf    cn124886   2.215   3.130   6.457  0.5984 -0.0723  0.1153
 4252ntf    sn224887   2.313   2.985   6.509  0.2423 -0.3265  0.0791
 4252ntf    nn324888   2.385   2.952   6.374  0.0247  0.3095 -0.1972
 4252ntf    sn224889   2.517   3.016   6.318 -0.1117  0.6889 -0.0906
 4252ntf    cn124890   2.638   2.891   6.373 -0.5377  0.1620 -0.3378
 4252ntf    fn424891   2.298   3.218   6.403 -0.0136  0.1661 -0.4513
 4252ntf    fn424892   2.130   3.098   6.360 -0.0185  0.6594  0.4055
 4252ntf    fn424893   2.147   3.192   6.551 -0.0496 -0.1983 -0.2659
 4252ntf    on524894   2.395   3.025   6.620 -0.8738  0.4351  0.6522
 4252ntf    on524895   2.212   2.887   6.541 -0.0155 -0.0759  0.0463
 4252ntf    on524896   2.553   3.139   6.384  0.0748  0.4396  0.2766
 4252ntf    on524897   2.525   3.014   6.174  0.2015  0.1653 -0.0687
 4252ntf    fn424898   2.629   2.860   6.501 -0.1511 -0.1512 -0.3848
 4252ntf    fn424899   2.617   2.774   6.315 -0.0468 -0.0860 -0.0222
 4252ntf    fn424900   2.762   2.935   6.356 -0.3133 -0.5281 -0.4993
 4253ntf    cn124901   6.964   4.770   0.189  0.2377  0.2116  0.3864
 4253ntf    sn224902   6.827   4.888   0.204  0.0233  0.0223 -0.0553
 4253ntf    nn324903   6.887   5.004   0.292 -0.1913 -0.1860  0.3703
 4253ntf    sn224904   6.824   5.148   0.287  0.1012 -0.0711 -0.1471
 4253ntf    cn124905   6.935   5.229   0.169  0.0553  0.2416  0.0237
 4253ntf    fn424906   6.930   4.659   0.126  0.6388  0.2411  0.1165
 4253ntf    fn424907   7.060   4.820   0.113  0.1723 -0.4162 -0.1167
 4253ntf    fn424908   7.026   4.735   0.301  0.8738 -0.1731 -0.0790
 4253ntf    on524909   6.784   4.908   0.068  0.7808  0.0838 -0.2859
 4253ntf    on524910   6.731   4.815   0.283 -0.1368  0.0485 -0.2239
 4253ntf    on524911   6.846   5.222   0.409  0.1297  0.3587 -0.4151
 4253ntf    on524912   6.693   5.161   0.230  0.1761  0.1658 -0.2639
 4253ntf    fn424913   6.903   5.355   0.143 -0.0347  0.3392  0.5989
 4253ntf    fn424914   7.065   5.216   0.193  0.0272 -0.1377 -0.0268
 4253ntf    fn424915   6.919   5.164   0.055  0.2047  0.3079 -0.0364
 4254ntf    cn124916   6.547   4.327   4.549  0.0607 -0.2261 -0.0085
 4254ntf    sn224917   6.397   4.226   4.567 -0.0277 -0.1660 -0.3877
 4254ntf    nn324918   6.386   4.211   4.723 -0.0172  0.1091 -0.3609
 4254ntf    sn224919   6.406   4.077   4.802  0.2327  0.4154  0.1015
 4254ntf    cn124920   6.437   4.135   4.971  0.0575  0.1173  0.2362
 4254ntf    fn424921   6.646   4.275   4.619  0.1123  0.0640  0.1376
 4254ntf    fn424922   6.599   4.338   4.428  0.0842  0.4167  0.0555
 4254ntf    fn424923   6.528   4.451   4.592  0.4692 -0.1494 -0.0467
 4254ntf    on524924   6.289   4.303   4.512 -0.3722 -0.3697 -0.0036
 4254ntf    on524925   6.428   4.100   4.505 -0.3776 -0.3944 -0.1052
 4254ntf    on524926   6.527   4.004   4.774  0.0998  0.1486  0.2237
 4254ntf    on524927   6.284   4.002   4.817  0.0796  0.7791  0.6924
 4254ntf    fn424928   6.340   4.200   5.032  0.2101  0.0822  0.5200
 4254ntf    fn424929   6.453   4.019   5.033 -0.1987 -0.1865 -0.2573
 4254ntf    fn424930   6.542   4.214   4.985  0.3281 -0.1628 -0.2095
 4255ntf    cn124931   6.130   5.526   3.657 -0.3727  0.0589 -0.0445
 4255ntf    sn224932   6.156   5.359   3.590 -0.1192  0.0516  0.0701
 4255ntf    nn324933   6.172   5.391   3.437 -0.1917  0.2141  0.0961
 4255ntf    sn224934   6.269   5.329   3.330 -0.4055  0.0272  0.0118
 4255ntf    cn124935   6.220   5.412   3.176 -0.0725  0.1084 -0.0516
 4255ntf    fn424936   6.124   5.522   3.789 -0.7406  0.5628 -0.0416
 4255ntf    fn424937   6.223   5.617   3.629 -0.5634  0.2798  0.0336
 4255ntf    fn424938   6.012   5.570   3.615 -0.4623  0.0108  0.1572
 4255ntf    on524939   6.273   5.316   3.662 -0.0176  0.4476  0.1453
 4255ntf    on524940   6.037   5.282   3.619 -0.2159  0.2099  0.0957
 4255ntf    on524941   6.237   5.190   3.305 -0.7691  0.0263  0.4495
 4255ntf    on524942   6.407   5.366   3.351 -0.3009 -0.1701 -0.3278
 4255ntf    fn424943   6.227   5.542   3.197 -0.1148  0.0745  0.1834
 4255ntf    fn424944   6.292   5.379   3.070  0.1733 -0.2034  0.2104
 4255ntf    fn424945   6.096   5.377   3.146 -0.1835 -0.0572  0.5804
 4256ntf    cn124946   2.104   0.490   4.109  0.0842 -0.4717  0.1100
 4256ntf    sn224947   2.125   0.593   4.257 -0.1801 -0.0394 -0.1483
 4256ntf    nn324948   1.980   0.583   4.316  0.0292  0.3740  0.4469
 4256ntf    sn224949   1.840   0.641   4.276  0.0641 -0.0154 -0.2635
 4256ntf    cn124950   1.835   0.784   4.389 -0.0522 -0.2641  0.0452
 4256ntf    fn424951   2.224   0.474   4.056  0.1176  0.3571 -0.0726
 4256ntf    fn424952   2.057   0.370   4.140 -0.1736 -0.3498  0.1985
 4256ntf    fn424953   2.023   0.544   4.019  0.4583 -0.5496 -0.2743
 4256ntf    on524954   2.217   0.519   4.340 -0.0860 -0.3495 -0.5228
 4256ntf    on524955   2.166   0.722   4.207  0.0330 -0.3460 -0.7837
 4256ntf    on524956   1.737   0.557   4.331  0.7090 -0.1798  0.7246
 4256ntf    on524957   1.819   0.696   4.144 -0.1577  0.2431 -0.1221
 4256ntf    fn424958   1.838   0.751   4.517 -0.4165  0.5326  0.2625
 4256ntf    fn424959   1.930   0.871   4.359 -0.7757  0.5464  0.0674
 4256ntf    fn424960   1.716   0.842   4.383  0.2214  0.3463  0.4711
 4257ntf    cn124961   0.923   1.899   0.093  0.5049 -0.1252  0.1992
 4257ntf    sn224962   0.832   1.890   0.250 -0.3387  0.1689 -0.2677
 4257ntf    nn324963   0.939   1.951   0.348  0.2769  0.1555 -0.9295
 4257ntf    sn224964   0.957   2.102   0.388 -0.2771 -0.0495  0.1130
 4257ntf    cn124965   1.095   2.092   0.506 -0.1984  0.0180  0.0258
 4257ntf    fn424966   1.031   1.824   0.110  0.3211 -0.4887 -0.2259
 4257ntf    fn424967   0.856   1.847  -0.008 -0.0510  0.7326  0.1162
 4257ntf    fn424968   0.967   2.017   0.053 -0.3448  0.1235 -0.0335
 4257ntf    on524969   0.712   1.966   0.224 -0.5328 -0.1132 -0.2019
 4257ntf    on524970   0.822   1.747   0.267  0.5545  0.0829 -0.4536
 4257ntf    on524971   0.848   2.146   0.471 -0.2878  0.2782 -0.0758
 4257ntf    on524972   1.001   2.184   0.278 -0.5936  0.1002  0.0953
 4257ntf    fn424973   1.166   2.204   0.510  0.1371 -0.1748 -0.3858
 4257ntf    fn424974   1.058   2.051   0.626 -0.1658 -0.4162 -0.1098
 4257ntf    fn424975   1.188   2.010   0.458  0.0911  0.0114  0.5911
 4258ntf    cn124976   2.486   5.364   1.583 -0.1821  0.0263 -0.1975
 4258ntf    sn224977   2.310   5.405   1.570 -0.1149  0.2827 -0.3052
 4258ntf    nn324978   2.290   5.423   1.416 -0.7805 -0.2448 -0.2880
 4258ntf    sn224979   2.268   5.555   1.334 -0.2201 -0.1572 -0.2998
 4258ntf    cn124980   2.156   5.651   1.439  0.1683  0.1243 -0.1400
 4258ntf    fn424981   2.574   5.447   1.530  0.1844 -0.3428 -0.1810
 4258ntf    fn424982   2.510   5.362   1.714  0.0256  0.0314 -0.2339
 4258ntf    fn424983   2.513   5.244   1.534 -0.1864 -0.0309 -0.0617
 4258ntf    on524984   2.253   5.283   1.624 -0.0084  0.4741  0.2467
 4258ntf    on524985   2.295   5.521   1.654  0.1913  0.0694  0.0500
 4258ntf    on524986   2.194   5.528   1.213  0.0815  0.6485 -0.6736
 4258ntf    on524987   2.384   5.639   1.315 -0.5812  0.3185 -0.4287
 4258ntf    fn424988   2.211   5.735   1.526 -0.6076  0.3686  0.1228
 4258ntf    fn424989   2.077   5.730   1.368 -0.0772  0.0830  0.0861
 4258ntf    fn424990   2.077   5.566   1.501 -0.0212 -0.1833 -0.7934
 4259ntf    cn124991   2.956   1.213   1.416 -0.3558  0.0182  0.1382
 4259ntf    sn224992   2.935   1.033   1.412 -0.2433  0.0128 -0.2673
 4259ntf    nn324993   2.789   1.015   1.468 -0.0131 -0.7797  0.0935
 4259ntf    sn224994   2.652   1.021   1.391  0.0874 -0.1004 -0.0408
 4259ntf    cn124995   2.629   0.844   1.353  0.0584 -0.0128 -0.4328
 4259ntf    fn424996   3.065   1.249   1.351 -0.3672 -0.4184 -0.1226
 4259ntf    fn424997   2.858   1.280   1.357 -0.3847 -0.2782 -0.1519
 4259ntf    fn424998   2.970   1.262   1.538  0.2736  0.1477  0.0207
 4259ntf    on524999   2.960   0.996   1.275  0.4867 -0.3191 -0.0502
 4259ntf    on525000   3.029   0.980   1.508  0.1521  0.1751 -0.5632
 4259ntf    on525001   2.657   1.081   1.260 -0.2882 -0.0987 -0.0545
 4259ntf    on525002   2.544   1.057   1.479 -0.1240  0.2998 -0.4612
 4259ntf    fn425003   2.650   0.775   1.464 -0.6045  0.1268 -0.2178
 4259ntf    fn425004   2.508   0.822   1.306 -0.0771  0.4736 -0.3181
 4259ntf    fn425005   2.714   0.802   1.260  0.0510 -0.1225 -0.3886
 4260ntf    cn125006   2.280   4.377   2.277  0.2118  0.0622 -0.2997
 4260ntf    sn225007   2.408   4.422   2.398  0.0592  0.1330 -0.1652
 4260ntf    nn325008   2.372   4.572   2.428  0.1768  0.0962  0.1595
 4260ntf    sn225009   2.424   4.701   2.357  0.1270  0.1429  0.2064
 4260ntf    cn125010   2.333   4.705   2.200 -0.1968 -0.2303  0.3858
 4260ntf    fn425011   2.228   4.257   2.294 -0.0865  0.1973 -0.2363
 4260ntf    fn425012   2.180   4.463   2.285 -0.0066 -0.2133 -0.0369
 4260ntf    fn425013   2.327   4.380   2.153  0.2547  0.0756 -0.2831
 4260ntf    on525014   2.379   4.337   2.511 -0.0895 -0.1449 -0.4129
 4260ntf    on525015   2.531   4.404   2.326 -0.0663 -0.3037 -0.2734
 4260ntf    on525016   2.563   4.701   2.317  0.1292  0.4573  0.2113
 4260ntf    on525017   2.376   4.818   2.425 -0.2166  0.4463 -0.5443
 4260ntf    fn425018   2.363   4.605   2.118  0.1075  0.3311 -0.1964
 4260ntf    fn425019   2.202   4.700   2.223 -0.1994 -0.5629  0.3157
 4260ntf    fn425020   2.355   4.814   2.129  0.4165 -0.3199  0.4319
 4261ntf    cn125021   5.708   0.634   1.028  0.2281 -0.0281  0.0161
 4261ntf    sn225022   5.710   0.463   1.089  0.0833  0.0398  0.2134
 4261ntf    nn325023   5.650   0.474   1.233  0.1969 -0.1112  0.2727
 4261ntf    sn225024   5.498   0.452   1.268  0.0729 -0.1594 -0.2829
 4261ntf    cn125025   5.473   0.589   1.385 -0.0241 -0.3710 -0.0540
 4261ntf    fn425026   5.581   0.670   1.028  0.0859 -0.5149 -0.5176
 4261ntf    fn425027   5.784   0.715   1.100 -0.0016  0.4422 -0.2711
 4261ntf    fn425028   5.745   0.647   0.902  0.0783  0.0666 -0.0174
 4261ntf    on525029   5.643   0.379   0.992  0.3109  0.4592 -0.3103
 4261ntf    on525030   5.849   0.432   1.111  0.0594 -1.1031 -1.0458
 4261ntf    on525031   5.470   0.338   1.352  0.5083 -0.0136  0.0674
 4261ntf    on525032   5.404   0.476   1.162 -0.4751  0.6044  0.3621
 4261ntf    fn425033   5.350   0.588   1.435  0.1092  1.0817  0.3486
 4261ntf    fn425034   5.558   0.595   1.485  0.0545 -0.0169 -0.1396
 4261ntf    fn425035   5.489   0.708   1.328 -0.4640 -0.1648  0.2366
 4262ntf    cn125036   6.268   5.201   1.951 -0.1277 -0.1703 -0.3701
 4262ntf    sn225037   6.207   5.043   2.017  0.0154 -0.1581 -0.2076
 4262ntf    nn325038   6.336   4.975   2.074  0.0723  0.1415  0.0254
 4262ntf    sn225039   6.398   4.994   2.217 -0.0861 -0.0523  0.1207
 4262ntf    cn125040   6.578   4.978   2.194 -0.0859  0.0809  0.0284
 4262ntf    fn425041   6.189   5.250   1.856  0.1107  0.2244 -0.3683
 4262ntf    fn425042   6.277   5.285   2.053 -0.2951 -0.5526 -0.0404
 4262ntf    fn425043   6.386   5.199   1.890  0.2068  0.3217  0.2476
 4262ntf    on525044   6.106   5.082   2.112  0.2841  0.0288  0.0015
 4262ntf    on525045   6.165   4.980   1.895 -0.0464 -0.1244 -0.2038
 4262ntf    on525046   6.362   4.894   2.315 -0.3132  0.2094  0.3037
 4262ntf    on525047   6.401   5.131   2.262 -0.3192  0.1820 -0.5754
 4262ntf    fn425048   6.653   5.012   2.297  0.1785 -0.4783  0.0256
 4262ntf    fn425049   6.608   4.850   2.179  0.5660  0.2788 -0.4196
 4262ntf    fn425050   6.626   5.036   2.085 -0.0849  0.2170  0.1015
 4263ntf    cn125051   3.271   4.051   1.050  0.2377  0.2037  0.1626
 4263ntf    sn225052   3.379   4.193   1.085  0.1101  0.3006  0.1663
 4263ntf    nn325053   3.269   4.301   1.115 -0.1722  0.0126  0.1748
 4263ntf    sn225054   3.206   4.409   1.020  0.0431  0.0982  0.1282
 4263ntf    cn125055   3.287   4.565   1.066  0.1754  0.0990 -0.1038
 4263ntf    fn425056   3.327   3.959   0.974 -0.0429 -0.2086  0.4528
 4263ntf    fn425057   3.230   3.985   1.157  0.8278 -0.4130  0.0151
 4263ntf    fn425058   3.157   4.095   0.998  0.2913 -0.0977 -0.2161
 4263ntf    on525059   3.458   4.160   1.201 -0.3391 -0.1039  0.3607
 4263ntf    on525060   3.452   4.201   0.961  0.3353 -0.0271  0.2757
 4263ntf    on525061   3.069   4.434   1.057  0.1406 -0.2648  0.7471
 4263ntf    on525062   3.233   4.402   0.879  0.1415 -0.4042  0.1709
 4263ntf    fn425063   3.246   4.622   1.178 -0.2258  0.1562 -0.2780
 4263ntf    fn425064   3.417   4.548   1.083  0.0796 -0.3472  0.1906
 4263ntf    fn425065   3.266   4.653   0.969 -0.7386 -0.5126 -0.4826
 4264ntf    cn125066   4.472   5.409   1.576 -0.0627 -0.4739  0.0668
 4264ntf    sn225067   4.433   5.233   1.599 -0.0022 -0.4845  0.0881
 4264ntf    nn325068   4.407   5.177   1.454  0.4599 -0.7348  0.0990
 4264ntf    sn225069   4.268   5.186   1.382  0.3284 -0.2160  0.4117
 4264ntf    cn125070   4.329   5.239   1.219 -0.4249 -0.1182  0.1575
 4264ntf    fn425071   4.524   5.468   1.682 -0.5547  0.1590 -0.0456
 4264ntf    fn425072   4.552   5.435   1.473 -0.2507 -0.3090 -0.0379
 4264ntf    fn425073   4.366   5.481   1.545  0.1229  0.1308  0.8113
 4264ntf    on525074   4.562   5.187   1.644  0.3914  0.9103  0.4073
 4264ntf    on525075   4.320   5.231   1.688 -0.5216 -0.5033 -0.5641
 4264ntf    on525076   4.183   5.298   1.414  0.3288  0.0540 -0.4977
 4264ntf    on525077   4.210   5.056   1.360  0.6211 -0.3179  0.2415
 4264ntf    fn425078   4.418   5.150   1.178 -0.1484  0.0541  0.3781
 4264ntf    fn425079   4.250   5.272   1.118 -0.3562  0.0414  0.1547
 4264ntf    fn425080   4.395   5.353   1.237 -0.2375 -0.2803  0.5153
 4265ntf    cn125081   7.071   6.525   4.360  0.0022  0.0984  0.0849
 4265ntf    sn225082   7.174   6.671   4.393  0.0534  0.0984 -0.0761
 4265ntf    nn325083   7.311   6.610   4.441  0.3187  0.6109 -0.1636
 4265ntf    sn225084   7.352   6.569   4.587  0.0893 -0.0349 -0.2721
 4265ntf    cn125085   7.379   6.390   4.575  0.0194 -0.0515 -0.1804
 4265ntf    fn425086   7.108   6.458   4.252 -0.6991 -0.4321  0.1681
 4265ntf    fn425087   7.076   6.444   4.464  0.5450  0.3608  0.2713
 4265ntf    fn425088   6.946   6.565   4.347  0.1981  0.6484 -0.1525
 4265ntf    on525089   7.184   6.731   4.262 -0.2987  0.4749  0.0689
 4265ntf    on525090   7.108   6.750   4.493  0.0083 -0.3708  0.2642
 4265ntf    on525091   7.245   6.580   4.682 -0.2203  0.5205 -0.6734
 4265ntf    on525092   7.480   6.620   4.631 -0.2468  0.1501  0.4929
 4265ntf    fn425093   7.408   6.330   4.690  0.0100  0.5497  0.1388
 4265ntf    fn425094   7.276   6.330   4.517 -0.1143 -0.1573  0.1587
 4265ntf    fn425095   7.484   6.378   4.496  0.3430  0.1281  0.2167
 4266ntf    cn125096   2.002   7.210   6.138 -0.0435 -0.0635 -0.0138
 4266ntf    sn225097   1.988   7.044   6.065  0.0682 -0.0737 -0.0119
 4266ntf    nn325098   2.117   6.986   6.134  0.0508  0.5027  0.5156
 4266ntf    sn225099   2.264   7.005   6.082  0.0260  0.2033  0.3332
 4266ntf    cn125100   2.273   6.858   5.976 -0.1200  0.2373  0.2734
 4266ntf    fn425101   2.009   7.193   6.269 -0.0990  0.5843  0.0733
 4266ntf    fn425102   2.102   7.287   6.099  0.4792 -0.5483  0.3535
 4266ntf    fn425103   1.892   7.281   6.120 -0.1474 -0.1808  0.1453
 4266ntf    on525104   1.866   6.987   6.116  0.1476 -0.1433  0.0983
 4266ntf    on525105   1.989   7.077   5.925  0.0340  0.4343  0.1061
 4266ntf    on525106   2.368   6.982   6.179  0.3110  0.1143  0.0096
 4266ntf    on525107   2.294   7.110   5.988  0.0074  0.0047  0.1027
 4266ntf    fn425108   2.230   6.753   6.044 -0.0024 -0.0314 -0.0587
 4266ntf    fn425109   2.192   6.874   5.873 -0.1230 -0.1413  0.2139
 4266ntf    fn425110   2.397   6.835   5.935 -0.2427  0.3359 -0.1540
 4267ntf    cn125111   5.711   5.090   4.872  0.0783  0.3599 -0.5517
 4267ntf    sn225112   5.823   4.951   4.904 -0.0071  0.4009 -0.0774
 4267ntf    nn325113   5.731   4.848   4.980  0.5494  0.2919  0.4613
 4267ntf    sn225114   5.779   4.716   5.050  0.2142 -0.1474 -0.1220
 4267ntf    cn125115   5.653   4.591   5.009  0.0593  0.0461 -0.2373
 4267ntf    fn425116   5.633   5.065   4.767 -0.7100  0.3388  0.0293
 4267ntf    fn425117   5.626   5.123   4.968  0.2158 -0.1609 -0.2482
 4267ntf    fn425118   5.794   5.185   4.833 -0.0478  0.6871 -0.0296
 4267ntf    on525119   5.863   4.898   4.776 -0.6470  0.0916 -0.1548
 4267ntf    on525120   5.925   5.007   4.989 -0.2756  0.6154  0.1057
 4267ntf    on525121   5.771   4.722   5.194  0.1412 -0.0463 -0.1300
 4267ntf    on525122   5.893   4.647   4.996 -0.3845 -0.6930 -0.7103
 4267ntf    fn425123   5.647   4.569   4.879  0.6239 -0.6118 -0.1550
 4267ntf    fn425124   5.674   4.473   5.065  0.2410  0.2583  0.1504
 4267ntf    fn425125   5.532   4.631   5.047  0.1380 -0.1362  0.2152
 4268ntf    cn125126   7.082   1.815   6.965  0.1107 -0.3817  0.2099
 4268ntf    sn225127   6.956   1.699   6.904 -0.3370  0.1654  0.0828
 4268ntf    nn325128   6.901   1.777   6.780 -0.3643 -0.1557 -0.1063
 4268ntf    sn225129   6.951   1.781   6.631 -0.1259 -0.0928 -0.0250
 4268ntf    cn125130   6.945   1.960   6.595  0.0278 -0.1461 -0.3182
 4268ntf    fn425131   7.138   1.791   7.083 -0.1175 -0.2103  0.3546
 4268ntf    fn425132   7.186   1.824   6.884 -0.0869 -0.0011 -0.0001
 4268ntf    fn425133   7.032   1.937   6.975  0.4372 -0.2433  0.1718
 4268ntf    on525134   7.049   1.592   6.878 -0.4687  0.0498  0.0863
 4268ntf    on525135   6.870   1.681   7.018 -0.8156  0.6193 -0.2055
 4268ntf    on525136   6.850   1.723   6.545 -0.0591 -0.1580 -0.0589
 4268ntf    on525137   7.088   1.747   6.602  0.0646  0.4330  0.2364
 4268ntf    fn425138   6.825   2.014   6.601  0.2408  0.2933 -0.0402
 4268ntf    fn425139   7.021   2.031   6.677 -0.2780 -0.1984  0.0122
 4268ntf    fn425140   6.986   1.985   6.472 -0.4413 -0.0028 -0.4465
 4269ntf    cn125141   2.937   2.666   3.968 -0.3296 -0.1831  0.3386
 4269ntf    sn225142   3.092   2.570   3.971 -0.2414 -0.0480  0.1179
 4269ntf    nn325143   3.186   2.640   3.866 -0.4608 -0.6398 -0.4772
 4269ntf    sn225144   3.199   2.610   3.713 -0.0774  0.0399 -0.5794
 4269ntf    cn125145   3.306   2.463   3.700  0.0422  0.0589  0.1577
 4269ntf    fn425146   2.875   2.655   3.852 -0.4012  0.1903  0.3410
 4269ntf    fn425147   2.854   2.641   4.068 -0.4574 -0.1443  0.2408
 4269ntf    fn425148   2.978   2.792   3.977 -0.7757  0.0265 -0.5197
 4269ntf    on525149   3.125   2.585   4.111 -0.4063  0.0400  0.1483
 4269ntf    on525150   3.054   2.438   3.927  0.5092 -0.0841 -0.4496
 4269ntf    on525151   3.276   2.711   3.644 -0.4515  0.2010 -0.7628
 4269ntf    on525152   3.079   2.570   3.645 -0.3906 -0.3836  0.2138
 4269ntf    fn425153   3.309   2.414   3.577 -0.0530  0.4814 -0.0187
 4269ntf    fn425154   3.433   2.492   3.723 -0.1052  0.4527  0.5086
 4269ntf    fn425155   3.282   2.363   3.782  0.4261  0.2492  0.5053
 4270ntf    cn125156   3.287   2.761   1.287 -0.2450 -0.0435  0.1725
 4270ntf    sn225157   3.178   2.804   1.148  0.0309 -0.1855 -0.0906
 4270ntf    nn325158   3.108   2.930   1.210  0.0312 -0.2616  0.0670
 4270ntf    sn225159   3.149   3.082   1.201 -0.2248 -0.2141 -0.3012
 4270ntf    cn125160   2.988   3.154   1.155 -0.3094 -0.2923 -0.1272
 4270ntf    fn425161   3.362   2.658   1.251 -0.1093  0.0013  0.3246
 4270ntf    fn425162   3.362   2.862   1.328 -0.1739  0.1116 -0.3352
 4270ntf    fn425163   3.216   2.708   1.385 -0.3437 -0.3741 -0.0775
 4270ntf    on525164   3.268   2.823   1.038  0.1875 -0.2489  0.0259
 4270ntf    on525165   3.085   2.695   1.129 -0.4703  0.0859  0.7524
 4270ntf    on525166   3.242   3.131   1.102  0.1945 -0.4240 -0.0111
 4270ntf    on525167   3.166   3.137   1.333  0.3698  0.1778 -0.5382
 4270ntf    fn425168   2.888   3.091   1.215  0.0391 -0.5001  0.2380
 4270ntf    fn425169   2.968   3.281   1.182 -0.1858 -0.3463  0.2302
 4270ntf    fn425170   2.966   3.142   1.025 -0.8281 -0.0881 -0.0605
 4271ntf    cn125171   2.356   3.388   0.171  0.0409 -0.0776  0.0309
 4271ntf    sn225172   2.218   3.279   0.218 -0.0100  0.0220  0.1116
 4271ntf    nn325173   2.111   3.345   0.124 -0.2547 -0.0282  0.3510
 4271ntf    sn225174   1.993   3.285   0.039 -0.1339  0.1139  0.0793
 4271ntf    cn125175   1.868   3.409   0.086  0.1081  0.1641  0.6045
 4271ntf    fn425176   2.471   3.358   0.230 -0.0708  0.0631  0.3213
 4271ntf    fn425177   2.392   3.394   0.044 -0.0954  0.0208 -0.0033
 4271ntf    fn425178   2.336   3.514   0.206 -0.1788 -0.1910  0.3199
 4271ntf    on525179   2.267   3.147   0.191 -0.6866 -0.2507  0.2034
 4271ntf    on525180   2.203   3.317   0.357  0.3211 -0.2224  0.2149
 4271ntf    on525181   1.941   3.157   0.080  0.0797 -0.0439 -0.1364
 4271ntf    on525182   2.006   3.307  -0.103  0.1248 -0.0854  0.0718
 4271ntf    fn425183   1.845   3.418   0.216  0.2982  0.4471  0.6204
 4271ntf    fn425184   1.910   3.530   0.053 -0.2778  0.1129 -0.0953
 4271ntf    fn425185   1.758   3.382   0.018  0.5840  0.1126 -0.1702
 4272ntf    cn125186   7.030   1.885   5.088 -0.1809  0.1322 -0.0726
 4272ntf    sn225187   7.064   1.877   4.910  0.1653 -0.4050  0.0168
 4272ntf    nn325188   7.095   1.723   4.899 -0.2880 -0.5063  0.1204
 4272ntf    sn225189   7.225   1.653   4.846 -0.0840 -0.0528  0.0095
 4272ntf    cn125190   7.318   1.616   4.997  0.1397 -0.2079 -0.1639
 4272ntf    fn425191   7.141   1.861   5.155  0.0755  0.1039 -0.5054
 4272ntf    fn425192   6.988   2.005   5.128 -0.1373  0.2431 -0.3624
 4272ntf    fn425193   6.937   1.798   5.123 -0.1360  0.0702 -0.1092
 4272ntf    on525194   6.939   1.923   4.855  0.3393  0.2475  0.1691
 4272ntf    on525195   7.173   1.970   4.894 -0.1862  0.1050  0.5360
 4272ntf    on525196   7.311   1.732   4.761  0.4433 -0.6505 -0.0201
 4272ntf    on525197   7.190   1.520   4.801 -0.0150 -0.1297  0.1806
 4272ntf    fn425198   7.308   1.719   5.081 -0.4559 -0.1998 -0.2430
 4272ntf    fn425199   7.280   1.508   5.063 -0.1511  0.0442  0.0861
 4272ntf    fn425200   7.449   1.600   4.981  0.2251  0.0214  0.2569
 4273ntf    cn125201   4.528   5.269   4.364 -0.3175  0.4132 -0.1315
 4273ntf    sn225202   4.581   5.441   4.335  0.4036  0.1808 -0.2092
 4273ntf    nn325203   4.451   5.518   4.376  0.2696 -0.0900 -0.1231
 4273ntf    sn225204   4.335   5.572   4.285  0.0349 -0.1452  0.1378
 4273ntf    cn125205   4.386   5.746   4.269 -0.4535  0.0220  0.3898
 4273ntf    fn425206   4.619   5.181   4.325 -0.6437 -0.2119  0.4937
 4273ntf    fn425207   4.507   5.231   4.489  0.5011  0.0439 -0.1029
 4273ntf    fn425208   4.416   5.245   4.298 -0.2984  0.6486 -0.2488
 4273ntf    on525209   4.681   5.465   4.437 -0.4474  0.5010  0.5619
 4273ntf    on525210   4.617   5.454   4.196 -0.1988 -0.3110 -0.4166
 4273ntf    on525211   4.214   5.572   4.362 -0.0754 -0.1564 -0.0355
 4273ntf    on525212   4.330   5.514   4.153  0.0336 -0.6307  0.3520
 4273ntf    fn425213   4.406   5.807   4.385 -0.1530  0.2581  0.2164
 4273ntf    fn425214   4.498   5.764   4.202 -0.3203 -0.2002  0.5508
 4273ntf    fn425215   4.295   5.816   4.203 -0.1728 -0.2278 -0.2719
 4274ntf    cn125216   0.219   3.211   4.616 -0.1134 -0.8111  0.1506
 4274ntf    sn225217   0.353   3.227   4.738 -0.1044 -0.0471  0.0476
 4274ntf    nn325218   0.330   3.380   4.763  0.4303 -0.0124  0.3308
 4274ntf    sn225219   0.411   3.501   4.704  0.4272  0.1048  0.5674
 4274ntf    cn125220   0.539   3.518   4.833  0.3589 -0.0246  0.6529
 4274ntf    fn425221   0.105   3.265   4.657  0.0118 -0.0081 -0.5348
 4274ntf    fn425222   0.244   3.271   4.501  0.2242 -0.0834  0.5927
 4274ntf    fn425223   0.191   3.088   4.576 -0.3077 -0.7671  0.1500
 4274ntf    on525224   0.306   3.152   4.852  0.1315 -0.3433 -0.0504
 4274ntf    on525225   0.469   3.176   4.668 -0.2852  0.0410 -0.3206
 4274ntf    on525226   0.334   3.623   4.711  0.0403 -0.0823 -0.3459
 4274ntf    on525227   0.478   3.475   4.580 -0.5613  0.1224  0.0179
 4274ntf    fn425228   0.620   3.619   4.808  0.2999 -0.1576 -0.1188
 4274ntf    fn425229   0.473   3.535   4.947 -0.1892 -0.4528  0.4076
 4274ntf    fn425230   0.611   3.408   4.848  0.0307 -0.3050  0.2231
 4275ntf    cn125231   3.233   6.246   0.293  0.2284 -0.2083 -0.1494
 4275ntf    sn225232   3.149   6.227   0.133  0.0186 -0.0968 -0.0521
 4275ntf    nn325233   3.194   6.360   0.062  0.0289  0.0604  0.2481
 4275ntf    sn225234   3.136   6.506   0.058  0.1922  0.1119 -0.2568
 4275ntf    cn125235   3.068   6.499  -0.111  0.0720 -0.1784 -0.1964
 4275ntf    fn425236   3.201   6.146   0.374 -0.3365  0.3056  0.2647
 4275ntf    fn425237   3.365   6.259   0.290  0.2039  0.1064  0.0701
 4275ntf    fn425238   3.190   6.356   0.352  0.6661 -0.1099 -0.0084
 4275ntf    on525239   3.223   6.118   0.075  0.1136 -0.1623  0.1919
 4275ntf    on525240   3.009   6.204   0.160  0.0253 -0.2132 -0.1145
 4275ntf    on525241   3.236   6.610   0.059  0.0707  0.2266 -0.1117
 4275ntf    on525242   3.013   6.521   0.131  0.5187 -0.1781  0.3672
 4275ntf    fn425243   3.164   6.493  -0.202  0.2336 -0.4316 -0.0121
 4275ntf    fn425244   2.980   6.402  -0.133 -0.1132 -0.0926  0.1538
 4275ntf    fn425245   3.000   6.609  -0.138 -0.0318 -0.1100  0.3284
 4276ntf    cn125246   2.204   7.107   4.949  0.1801  0.1982  0.1222
 4276ntf    sn225247   2.123   6.986   4.841  0.0985  0.2868  0.0838
 4276ntf    nn325248   2.006   6.944   4.936  0.0309  0.2309 -0.0237
 4276ntf    sn225249   1.850   6.947   4.922  0.0023  0.1181  0.2535
 4276ntf    cn125250   1.825   6.829   4.785  0.1821  0.3659  0.0052
 4276ntf    fn425251   2.110   7.160   5.026 -0.2155  0.0200 -0.2326
 4276ntf    fn425252   2.280   7.043   5.036  0.5067  0.0405 -0.2787
 4276ntf    fn425253   2.270   7.200   4.882  0.6479  0.1729  0.5350
 4276ntf    on525254   2.085   7.062   4.724  0.1746 -0.4040 -0.3988
 4276ntf    on525255   2.223   6.883   4.823  0.5139  0.6864  0.0957
 4276ntf    on525256   1.793   7.072   4.876 -0.3016 -0.0842  0.0756
 4276ntf    on525257   1.793   6.887   5.040  0.0270  0.0499  0.2309
 4276ntf    fn425258   1.902   6.722   4.797 -0.2197  0.0825  0.0764
 4276ntf    fn425259   1.698   6.791   4.785  0.0947  0.6558 -0.6681
 4276ntf    fn425260   1.840   6.871   4.661  0.3835 -0.0519 -0.1100
 4277ntf    cn125261   2.559   7.230   1.584 -0.2150  0.0960  0.2024
 4277ntf    sn225262   2.556   7.405   1.533  0.0337  0.0923  0.1767
 4277ntf    nn325263   2.457   7.478   1.631  0.1781 -0.2368  0.5707
 4277ntf    sn225264   2.478   7.618   1.698  0.0444 -0.0345  0.1918
 4277ntf    cn125265   2.533   7.721   1.558 -0.1793  0.1344  0.2266
 4277ntf    fn425266   2.588   7.214   1.712 -0.7708 -0.2668  0.2842
 4277ntf    fn425267   2.445   7.164   1.575  0.0610 -0.3484 -0.0335
 4277ntf    fn425268   2.647   7.155   1.521  0.3951  0.3479  0.7505
 4277ntf    on525269   2.694   7.442   1.556  0.1074  0.0243 -0.1518
 4277ntf    on525270   2.506   7.396   1.398  0.0999 -0.0424  0.1604
 4277ntf    on525271   2.585   7.624   1.794  0.0187  0.2887  0.2038
 4277ntf    on525272   2.357   7.685   1.739 -0.2233 -0.5346  0.2172
 4277ntf    fn425273   2.664   7.723   1.538 -0.2426  0.3756 -0.1747
 4277ntf    fn425274   2.467   7.697   1.446  0.0686  0.1161  0.0834
 4277ntf    fn425275   2.504   7.848   1.578 -0.2754  0.2001 -0.3063
 4278ntf    cn125276   0.195   3.993   0.030  0.1456  0.2357 -0.3094
 4278ntf    sn225277   0.270   3.832   0.067 -0.3271 -0.0049 -0.3927
 4278ntf    nn325278   0.142   3.781   0.142 -0.4458 -0.0354 -0.6173
 4278ntf    sn225279   0.130   3.635   0.200  0.2961  0.2954  0.3900
 4278ntf    cn125280   0.050   3.558   0.056  0.0140 -0.1085  0.7598
 4278ntf    fn425281   0.072   3.966  -0.011  0.1732 -0.3435 -0.0201
 4278ntf    fn425282   0.187   4.072   0.135 -0.7795 -0.4326  0.1322
 4278ntf    fn425283   0.256   4.057  -0.069  0.4947  0.0236 -0.2345
 4278ntf    on525284   0.288   3.773  -0.063  0.5723  0.3523 -0.4372
 4278ntf    on525285   0.387   3.867   0.145 -0.2107 -0.2403 -0.4598
 4278ntf    on525286   0.031   3.628   0.305 -0.0700  0.0170  0.0261
 4278ntf    on525287   0.253   3.563   0.224  0.2200  0.0893  0.1605
 4278ntf    fn425288   0.109   3.592  -0.058 -0.0366 -0.1730  0.7143
 4278ntf    fn425289   0.044   3.426   0.054 -0.1673 -0.0906 -0.4277
 4278ntf    fn425290  -0.072   3.603   0.036  0.0577 -0.2406  0.1805
 4279ntf    cn125291   6.598   1.254   6.420 -0.1962  0.2466 -0.1522
 4279ntf    sn225292   6.691   1.180   6.283 -0.1960 -0.2125  0.0904
 4279ntf    nn325293   6.579   1.117   6.193  0.2252 -0.6850 -0.1046
 4279ntf    sn225294   6.574   1.094   6.038 -0.0824  0.1525 -0.2202
 4279ntf    cn125295   6.463   1.228   5.985 -0.0118  0.2213 -0.1964
 4279ntf    fn425296   6.512   1.165   6.468  0.3912 -0.2467  0.0001
 4279ntf    fn425297   6.670   1.292   6.524  0.1952  0.2620 -0.4277
 4279ntf    fn425298   6.519   1.357   6.391 -0.5092  0.1209  0.2346
 4279ntf    on525299   6.754   1.297   6.225  0.0344 -0.5974 -0.4433
 4279ntf    on525300   6.777   1.083   6.345 -0.0256 -0.0197  0.1590
 4279ntf    on525301   6.487   0.983   6.010 -0.4147  0.3701 -0.0597
 4279ntf    on525302   6.695   1.114   5.961  0.0124 -0.1693 -0.1544
 4279ntf    fn425303   6.341   1.208   6.032  0.1401  0.1274  0.1617
 4279ntf    fn425304   6.492   1.347   6.036  0.0088 -0.0797  0.5020
 4279ntf    fn425305   6.455   1.239   5.854  0.2012  0.4855 -0.1873
 4280ntf    cn125306   2.816   4.081   2.600  0.1632 -0.1594 -0.1728
 4280ntf    sn225307   2.827   4.238   2.691 -0.0369 -0.3320  0.1549
 4280ntf    nn325308   2.973   4.238   2.750  0.1742  0.3015 -0.3486
 4280ntf    sn225309   3.106   4.212   2.671  0.4310 -0.0920  0.2055
 4280ntf    cn125310   3.208   4.338   2.754  0.5094 -0.0875  0.1021
 4280ntf    fn425311   2.820   3.972   2.675  0.2431 -0.3030 -0.3862
 4280ntf    fn425312   2.699   4.073   2.539 -0.0452  0.1208  0.1828
 4280ntf    fn425313   2.905   4.066   2.504  0.4842  0.8713 -0.0440
 4280ntf    on525314   2.808   4.341   2.592 -0.0893 -0.2420  0.2586
 4280ntf    on525315   2.729   4.223   2.796  0.3116 -0.3884  0.4759
 4280ntf    on525316   3.118   4.250   2.532 -0.5606 -0.1925  0.0898
 4280ntf    on525317   3.166   4.087   2.709  0.1905 -0.0444  0.7447
 4280ntf    fn425318   3.199   4.344   2.885  0.5118 -0.2065  0.1075
 4280ntf    fn425319   3.337   4.320   2.730  0.4963  0.3359 -0.3046
 4280ntf    fn425320   3.184   4.461   2.710 -0.0896 -0.3301 -0.2598
 4281ntf    cn125321   0.679   5.259   3.052  0.3715 -0.2949 -0.3454
 4281ntf    sn225322   0.612   5.319   3.210  0.3162 -0.1817 -0.4116
 4281ntf    nn325323   0.731   5.274   3.301  0.1192 -0.0305 -0.0767
 4281ntf    sn225324   0.783   5.310   3.444 -0.1847 -0.0551  0.0405
 4281ntf    cn125325   0.920   5.425   3.407 -0.1049 -0.1047  0.1786
 4281ntf    fn425326   0.599   5.290   2.951 -0.0659 -0.1722  0.0359
 4281ntf    fn425327   0.796   5.308   3.013  0.3554  0.1245  0.1243
 4281ntf    fn425328   0.700   5.128   3.050  0.2886 -0.3149  0.0195
 4281ntf    on525329   0.612   5.460   3.178 -0.6801 -0.0220  0.2380
 4281ntf    on525330   0.488   5.250   3.234  0.2263  0.0977 -0.0638
 4281ntf    on525331   0.836   5.194   3.511  0.4671  0.0952 -0.2066
 4281ntf    on525332   0.694   5.395   3.520  0.4558  0.5973  0.0740
 4281ntf    fn425333   1.022   5.361   3.353  0.0959  0.2212  0.1708
 4281ntf    fn425334   0.891   5.525   3.326  0.0747 -0.3747 -0.2232
 4281ntf    fn425335   0.971   5.477   3.517  0.3297 -0.2034  0.0228
 4282ntf    cn125336   6.415   3.214   3.231  0.0526 -0.4943 -0.1934
 4282ntf    sn225337   6.323   3.260   3.081 -0.4207 -0.4812  0.1011
 4282ntf    nn325338   6.343   3.136   2.987  0.4355  0.2179 -0.6603
 4282ntf    sn225339   6.246   3.013   2.971  0.0693  0.4568 -0.3190
 4282ntf    cn125340   6.367   2.877   2.964 -0.6279 -0.2076  0.3683
 4282ntf    fn425341   6.345   3.136   3.312  0.4491 -0.5363  0.1114
 4282ntf    fn425342   6.531   3.154   3.211  0.3686 -0.1325  0.5163
 4282ntf    fn425343   6.438   3.322   3.304  0.2061  0.1645 -1.1986
 4282ntf    on525344   6.188   3.286   3.127  0.0182  0.9057  0.6583
 4282ntf    on525345   6.387   3.378   3.029 -0.5247 -0.6779 -0.4876
 4282ntf    on525346   6.179   3.005   2.843  0.4213  0.2172 -0.4930
 4282ntf    on525347   6.174   2.982   3.092  0.7273 -0.0816 -0.0588
 4282ntf    fn425348   6.429   2.863   2.848  0.3024  0.6410  0.7438
 4282ntf    fn425349   6.463   2.906   3.050 -0.5661 -0.0979  0.2623
 4282ntf    fn425350   6.315   2.761   3.000 -0.2766 -0.6038 -0.3893
 4283ntf    cn125351   0.896   4.439   6.529 -0.1455  0.1664 -0.5200
 4283ntf    sn225352   0.751   4.422   6.638  0.2267  0.4855  0.0292
 4283ntf    nn325353   0.788   4.528   6.748  0.2870  0.4096  0.0813
 4283ntf    sn225354   0.851   4.505   6.890  0.1346  0.2647  0.1258
 4283ntf    cn125355   0.700   4.490   6.990 -0.0034 -0.0535 -0.1257
 4283ntf    fn425356   1.004   4.410   6.600 -0.3798 -0.8660 -0.5717
 4283ntf    fn425357   0.903   4.362   6.422  0.3818  0.1505 -0.4750
 4283ntf    fn425358   0.909   4.565   6.492  0.0302  0.1243 -0.5988
 4283ntf    on525359   0.638   4.464   6.558 -0.0110 -0.2113 -0.0040
 4283ntf    on525360   0.740   4.288   6.688 -0.1123  0.5152  0.0357
 4283ntf    on525361   0.913   4.620   6.950  0.2858  0.5574 -0.5889
 4283ntf    on525362   0.916   4.377   6.908  0.1257  0.1961 -0.3128
 4283ntf    fn425363   0.616   4.588   6.960  0.0988  0.1762  0.3217
 4283ntf    fn425364   0.636   4.376   6.972 -0.1398 -0.0566  0.3734
 4283ntf    fn425365   0.728   4.497   7.119  0.2129 -0.1186 -0.1683
 4284ntf    cn125366   7.124   1.612   5.579  0.1063 -0.1193  0.0966
 4284ntf    sn225367   7.027   1.503   5.689 -0.3353 -0.0987 -0.2701
 4284ntf    nn325368   6.948   1.414   5.586 -0.4766 -0.4473  0.1367
 4284ntf    sn225369   6.982   1.276   5.520 -0.1998 -0.1976 -0.2476
 4284ntf    cn125370   6.899   1.163   5.635 -0.2734  0.1218  0.0155
 4284ntf    fn425371   7.189   1.536   5.492  0.1685  0.0858 -0.0360
 4284ntf    fn425372   7.042   1.687   5.508  0.1976  0.1659  0.2901
 4284ntf    fn425373   7.219   1.687   5.631  0.2346 -0.4309  0.3181
 4284ntf    on525374   7.123   1.439   5.776 -0.2284  0.2638 -0.1163
 4284ntf    on525375   6.941   1.595   5.759  0.1761 -0.2838  0.6216
 4284ntf    on525376   7.120   1.236   5.532 -0.2789 -0.4552 -0.1996
 4284ntf    on525377   6.918   1.246   5.395 -0.1283  0.0268 -0.3387
 4284ntf    fn425378   6.953   1.172   5.756  0.1781  0.1132 -0.1851
 4284ntf    fn425379   6.773   1.191   5.663 -0.3932 -0.7379  0.3758
 4284ntf    fn425380   6.906   1.034   5.607  0.1997  0.0043  0.6473
 4285ntf    cn125381   2.137   5.981   5.527 -0.1385 -0.5203  0.2135
 4285ntf    sn225382   2.224   5.978   5.687 -0.3552  0.3171  0.3521
 4285ntf    nn325383   2.343   6.079   5.668 -0.0057 -0.1800 -0.1761
 4285ntf    sn225384   2.410   6.174   5.773  0.1728 -0.1959 -0.2763
 4285ntf    cn125385   2.327   6.328   5.724 -0.0612 -0.3112 -0.2438
 4285ntf    fn425386   2.216   5.952   5.424  0.0386 -0.0571  0.2166
 4285ntf    fn425387   2.044   5.888   5.516 -0.3497 -0.3094  0.2319
 4285ntf    fn425388   2.074   6.095   5.504  0.2601 -0.2142  0.6206
 4285ntf    on525389   2.116   6.022   5.772 -0.1772  0.4423  0.5141
 4285ntf    on525390   2.266   5.841   5.702 -0.9300  0.1453  0.4114
 4285ntf    on525391   2.548   6.198   5.740  0.4133  0.2247  0.9712
 4285ntf    on525392   2.374   6.148   5.910  0.7306  0.2943 -0.0279
 4285ntf    fn425393   2.309   6.346   5.594 -0.3684 -0.4322 -0.2192
 4285ntf    fn425394   2.211   6.340   5.786  0.3189 -0.1160  0.4481
 4285ntf    fn425395   2.392   6.437   5.763  0.2471 -0.3167 -0.7345
 4286ntf    cn125396   0.787   5.535   6.209 -0.0244  0.4267 -0.4710
 4286ntf    sn225397   0.952   5.610   6.191  0.1518  0.2259  0.2775
 4286ntf    nn325398   0.963   5.622   6.035  0.7174  0.3407  0.3247
 4286ntf    sn225399   1.029   5.733   5.946  0.3089  0.0740 -0.3223
 4286ntf    cn125400   1.096   5.632   5.810  0.0776 -0.0044 -0.3779
 4286ntf    fn425401   0.761   5.488   6.329  0.0311  1.1479 -0.1698
 4286ntf    fn425402   0.686   5.616   6.181 -0.5454 -0.0026  0.1423
 4286ntf    fn425403   0.775   5.433   6.126  0.5158 -0.4053  0.4590
 4286ntf    on525404   0.928   5.732   6.265  0.7299  0.4328  0.1279
 4286ntf    on525405   1.036   5.517   6.261  0.7910  0.1518 -0.5744
 4286ntf    on525406   1.146   5.793   6.006 -0.3099  0.4453  0.5272
 4286ntf    on525407   0.929   5.815   5.882  0.5146  0.4066 -0.2204
 4286ntf    fn425408   1.171   5.538   5.865  0.0766  0.1024 -0.1909
 4286ntf    fn425409   1.006   5.579   5.729  0.2010 -0.6258 -0.1118
 4286ntf    fn425410   1.177   5.705   5.735  0.2571  0.0765 -0.1066
 4287ntf    cn125411   1.070   4.840   0.924 -0.0483 -0.3023 -0.2426
 4287ntf    sn225412   1.251   4.832   0.900  0.0286  0.2966  0.1211
 4287ntf    nn325413   1.286   4.983   0.928  0.8105  0.0871  0.2735
 4287ntf    sn225414   1.332   5.086   0.820 -0.2157 -0.0166 -0.2751
 4287ntf    cn125415   1.245   5.233   0.883 -0.0115 -0.0484  0.0798
 4287ntf    fn425416   1.014   4.723   0.899 -0.3736 -0.3071  0.4878
 4287ntf    fn425417   1.044   4.864   1.051 -0.1250 -0.2191 -0.2738
 4287ntf    fn425418   1.014   4.936   0.852 -0.2232 -0.1086  0.1498
 4287ntf    on525419   1.301   4.739   0.998 -0.1888 -0.2093 -0.2471
 4287ntf    on525420   1.271   4.785   0.766 -0.2360 -0.5281  0.3690
 4287ntf    on525421   1.275   5.084   0.688 -0.8027 -0.1765 -0.0206
 4287ntf    on525422   1.469   5.130   0.833 -0.2983 -0.1022  0.9411
 4287ntf    fn425423   1.244   5.244   1.015 -0.8617 -0.1725  0.0868
 4287ntf    fn425424   1.288   5.348   0.835 -0.6390  0.1164 -0.0905
 4287ntf    fn425425   1.119   5.222   0.847 -0.1279 -0.3303  0.5606
 4288ntf    cn125426   4.978   6.161   4.966 -0.0464 -0.4953 -0.1147
 4288ntf    sn225427   5.120   6.047   4.957  0.0879 -0.3678  0.3391
 4288ntf    nn325428   5.240   6.149   4.952 -0.1911 -0.0118  0.8491
 4288ntf    sn225429   5.385   6.123   5.006  0.1990  0.1662 -0.1001
 4288ntf    cn125430   5.431   5.978   4.907  0.4127  0.2840 -0.1743
 4288ntf    fn425431   4.956   6.222   4.852  0.1966 -0.0561  0.0703
 4288ntf    fn425432   4.865   6.104   5.002  0.0360 -0.1205  0.7675
 4288ntf    fn425433   4.993   6.260   5.053  0.2337 -0.0828 -0.6323
 4288ntf    on525434   5.116   5.978   5.083 -0.1029  0.1613  0.6236
 4288ntf    on525435   5.089   5.978   4.834  0.1670 -0.2791  0.2686
 4288ntf    on525436   5.400   6.080   5.143 -0.1511 -1.0389 -0.4309
 4288ntf    on525437   5.479   6.220   4.956 -0.0779  0.4797 -0.0157
 4288ntf    fn425438   5.369   5.866   4.940  0.1901  0.4826  0.0942
 4288ntf    fn425439   5.416   6.003   4.778 -0.1398 -0.3504 -0.2355
 4288ntf    fn425440   5.558   5.954   4.935  0.5540  0.1220 -0.9353
 4289ntf    cn125441   4.802   1.389   2.887 -0.3266 -0.0965 -0.4130
 4289ntf    sn225442   4.891   1.247   2.958 -0.0588  0.2634 -0.0202
 4289ntf    nn325443   5.041   1.278   2.923 -0.0607  0.2694 -0.0238
 4289ntf    sn225444   5.166   1.222   3.000 -0.1398  0.0500 -0.0552
 4289ntf    cn125445   5.210   1.094   2.878 -0.0158  0.0863 -0.0480
 4289ntf    fn425446   4.824   1.385   2.757 -0.0257  0.8259 -0.3978
 4289ntf    fn425447   4.674   1.389   2.921 -0.1777 -0.6987  0.1726
 4289ntf    fn425448   4.854   1.500   2.937 -0.5597  0.2402 -0.9194
 4289ntf    on525449   4.850   1.255   3.095 -0.8088 -0.4644 -0.1989
 4289ntf    on525450   4.844   1.136   2.879  0.3447  0.1476 -0.0983
 4289ntf    on525451   5.143   1.147   3.121 -0.6449 -0.1743 -0.2842
 4289ntf    on525452   5.280   1.309   2.990 -0.2043  0.0861 -0.4806
 4289ntf    fn425453   5.212   1.148   2.758  0.0972  0.3310  0.0628
 4289ntf    fn425454   5.328   1.035   2.889 -0.0950 -0.1472 -0.4439
 4289ntf    fn425455   5.123   0.995   2.868  0.1136 -0.0948  0.5413
 4290ntf    cn125456   1.804   5.881   0.079 -0.3449  0.0180 -0.0257
 4290ntf    sn225457   1.903   5.937  -0.063  0.2191  0.2837  0.4707
 4290ntf    nn325458   1.996   5.811  -0.074 -0.2743 -0.0261 -0.2363
 4290ntf    sn225459   1.992   5.683  -0.165 -0.4358 -0.1673 -0.0330
 4290ntf    cn125460   1.964   5.561  -0.033 -0.4205  0.0671  0.1889
 4290ntf    fn425461   1.718   5.785   0.045  0.2275 -0.6895  0.4908
 4290ntf    fn425462   1.876   5.825   0.174  0.0787  0.4638 -0.0805
 4290ntf    fn425463   1.731   5.970   0.143 -0.6554 -0.0894 -0.2257
 4290ntf    on525464   1.803   5.946  -0.167  0.7007  0.1590 -0.0050
 4290ntf    on525465   1.977   6.054  -0.023  0.4884  0.3163 -0.1238
 4290ntf    on525466   2.121   5.642  -0.215 -0.3555 -0.2075  0.2055
 4290ntf    on525467   1.880   5.665  -0.254 -0.2528  0.2566 -0.3507
 4290ntf    fn425468   1.856   5.595   0.036 -0.6419  0.0417 -0.1400
 4290ntf    fn425469   1.946   5.436  -0.076  0.3725  0.0211 -0.0136
 4290ntf    fn425470   2.064   5.563   0.053 -0.0244 -0.5963 -0.2438
 4291ntf    cn125471   0.666   4.598   0.519 -0.5401 -0.0350 -0.1118
 4291ntf    sn225472   0.744   4.646   0.676 -0.2494 -0.3431 -0.1610
 4291ntf    nn325473   0.657   4.772   0.711 -0.1062 -0.4017  0.4222
 4291ntf    sn225474   0.532   4.781   0.805 -0.4925  0.2291 -0.1417
 4291ntf    cn125475   0.609   4.800   0.969 -0.1607  0.5577 -0.3338
 4291ntf    fn425476   0.536   4.584   0.535 -0.5422  0.2591  0.1417
 4291ntf    fn425477   0.680   4.698   0.433  0.8395 -0.0752  0.0450
 4291ntf    fn425478   0.719   4.491   0.462  0.2687  0.2145  0.1626
 4291ntf    on525479   0.719   4.534   0.763  0.1457 -0.1617  0.1899
 4291ntf    on525480   0.878   4.675   0.634 -0.2890 -0.5367 -0.4225
 4291ntf    on525481   0.443   4.668   0.813 -0.3779  0.1484  0.0073
 4291ntf    on525482   0.465   4.908   0.792 -0.1152  0.4066 -0.3641
 4291ntf    fn425483   0.692   4.903   0.965  0.4898  0.0670  0.3896
 4291ntf    fn425484   0.528   4.817   1.072  0.3090 -0.4251  0.2126
 4291ntf    fn425485   0.683   4.696   1.004  0.0114  0.5595 -0.6825
 4292ntf    cn125486   2.582   1.340   5.385 -0.2030  0.1216  0.5623
 4292ntf    sn225487   2.524   1.169   5.401  0.0245 -0.0519 -0.3901
 4292ntf    nn325488   2.635   1.117   5.500 -0.2627  0.0126 -0.0293
 4292ntf    sn225489   2.776   1.051   5.480 -0.0217  0.4516  0.2055
 4292ntf    cn125490   2.849   1.080   5.645 -0.2071 -0.0349  0.3759
 4292ntf    fn425491   2.521   1.397   5.282  0.9598 -0.0785 -0.2588
 4292ntf    fn425492   2.559   1.412   5.494  0.2909  0.4941  0.4242
 4292ntf    fn425493   2.713   1.351   5.369 -0.2045 -0.4677  0.1031
 4292ntf    on525494   2.398   1.180   5.471  0.3723  0.0965  0.2186
 4292ntf    on525495   2.522   1.110   5.270 -0.6185 -0.0171 -0.3974
 4292ntf    on525496   2.861   1.119   5.386  0.3933 -0.0670  0.2017
 4292ntf    on525497   2.766   0.908   5.470  0.5172  0.4232  0.0430
 4292ntf    fn425498   2.764   1.047   5.741 -0.7312  0.1529 -0.0137
 4292ntf    fn425499   2.961   1.012   5.664 -0.2523 -0.2741 -0.1856
 4292ntf    fn425500   2.869   1.207   5.676 -0.5909  0.2068 -0.3374
 4293ntf    cn125501   3.286   3.695   5.645 -0.0187  0.2780 -0.4772
 4293ntf    sn225502   3.443   3.663   5.560 -0.0685 -0.2109 -0.3844
 4293ntf    nn325503   3.476   3.813   5.528 -0.3890 -0.1272 -0.3318
 4293ntf    sn225504   3.434   3.903   5.407 -0.3474 -0.1148 -0.3372
 4293ntf    cn125505   3.580   3.869   5.303 -0.1917  0.5871 -0.3487
 4293ntf    fn425506   3.295   3.806   5.718  0.2481  0.0988 -0.2375
 4293ntf    fn425507   3.199   3.718   5.548 -0.6435 -0.0083  0.0061
 4293ntf    fn425508   3.246   3.597   5.725  0.2179  0.4647 -0.1256
 4293ntf    on525509   3.527   3.598   5.657 -0.3488  0.3192  0.2211
 4293ntf    on525510   3.408   3.582   5.446 -0.2975 -0.0760 -0.4097
 4293ntf    on525511   3.444   4.041   5.446 -0.4274 -0.1820 -0.0770
 4293ntf    on525512   3.319   3.862   5.329 -0.2552 -0.5433 -0.2511
 4293ntf    fn425513   3.587   3.953   5.200 -0.0387  0.1244 -0.7175
 4293ntf    fn425514   3.700   3.863   5.359 -0.3597 -0.0773 -0.0510
 4293ntf    fn425515   3.568   3.751   5.246  0.4717  0.4863 -0.2840
 4294ntf    cn125516   3.433   1.446   0.352  0.1799 -0.3553  0.0232
 4294ntf    sn225517   3.365   1.277   0.348 -0.0826 -0.2554  0.2400
 4294ntf    nn325518   3.225   1.305   0.412 -0.1391 -0.5804  0.2577
 4294ntf    sn225519   3.081   1.294   0.349 -0.0178 -0.1874 -0.0966
 4294ntf    cn125520   3.001   1.194   0.479 -0.1620  0.1020  0.0388
 4294ntf    fn425521   3.431   1.503   0.472 -0.2164 -0.0722 -0.1169
 4294ntf    fn425522   3.559   1.459   0.312  0.1638 -0.0258  0.0739
 4294ntf    fn425523   3.361   1.528   0.278  0.0070 -0.3067  0.2454
 4294ntf    on525524   3.371   1.252   0.206 -0.1859  0.4204  0.1113
 4294ntf    on525525   3.441   1.202   0.445 -0.3325  0.0146  0.6496
 4294ntf    on525526   3.067   1.213   0.230 -0.6791  0.0994 -0.2140
 4294ntf    on525527   3.014   1.421   0.350  0.3951  0.0334 -0.5456
 4294ntf    fn425528   2.871   1.181   0.457 -0.1768  0.4072 -0.0616
 4294ntf    fn425529   3.053   1.072   0.473 -0.5829 -0.0806  0.1335
 4294ntf    fn425530   3.031   1.242   0.598  0.0562  0.3587 -0.1166
 4295ntf    cn125531   7.169   0.187   0.504 -0.2149 -0.5663  0.1590
 4295ntf    sn225532   7.084   0.263   0.363 -0.0544 -0.2083  0.2525
 4295ntf    nn325533   6.947   0.194   0.396 -0.0230 -0.3095  0.1735
 4295ntf    sn225534   6.880   0.064   0.339  0.0320 -0.1443 -0.2744
 4295ntf    cn125535   6.734   0.048   0.446  0.1284 -0.1743 -0.1473
 4295ntf    fn425536   7.103   0.195   0.618  0.2929 -0.0905  0.4249
 4295ntf    fn425537   7.185   0.059   0.476 -0.3104 -0.7079  0.7277
 4295ntf    fn425538   7.291   0.238   0.517 -0.4270  0.0992 -0.4518
 4295ntf    on525539   7.082   0.404   0.389  0.3396 -0.1147 -0.2104
 4295ntf    on525540   7.158   0.216   0.248  0.0261  0.4444  0.0324
 4295ntf    on525541   6.962  -0.051   0.370 -0.0316 -0.2009 -0.3158
 4295ntf    on525542   6.828   0.085   0.207  0.8917 -0.0321 -0.6004
 4295ntf    fn425543   6.642  -0.027   0.387  0.6529 -0.2926 -0.8260
 4295ntf    fn425544   6.761   0.007   0.569 -0.3446  0.3935  0.1528
 4295ntf    fn425545   6.669   0.161   0.466  0.0087 -0.2730  0.0335
 4296ntf    cn125546   4.473   1.881   5.469 -0.0868  0.2707  0.2203
 4296ntf    sn225547   4.614   1.869   5.584  0.0499 -0.0171  0.0238
 4296ntf    nn325548   4.700   1.764   5.506  0.5325  0.1683  0.3056
 4296ntf    sn225549   4.814   1.795   5.403  0.2163 -0.0912 -0.1243
 4296ntf    cn125550   4.962   1.815   5.507  0.0141  0.5890  0.0363
 4296ntf    fn425551   4.502   1.923   5.347 -0.1513  0.6319  0.3273
 4296ntf    fn425552   4.415   1.764   5.450 -0.1687  0.3478 -0.0036
 4296ntf    fn425553   4.371   1.955   5.509  0.0454  0.4225  0.2790
 4296ntf    on525554   4.660   2.006   5.587 -0.0567  0.0195  0.0162
 4296ntf    on525555   4.553   1.815   5.703  0.2553  0.4721  0.3529
 4296ntf    on525556   4.810   1.918   5.328  0.5418 -0.1002 -0.1577
 4296ntf    on525557   4.852   1.678   5.327  0.3505 -0.1414  0.0201
 4296ntf    fn425558   4.968   1.722   5.601 -0.6583  0.1200 -0.3734
 4296ntf    fn425559   5.076   1.792   5.445  0.1475  0.5980  0.2758
 4296ntf    fn425560   4.969   1.935   5.563  0.6880  0.5131  0.1281
 4297ntf    cn125561   4.583   6.819   3.415  0.4306  0.0994  0.1027
 4297ntf    sn225562   4.451   6.852   3.536  0.2165 -0.0853 -0.0798
 4297ntf    nn325563   4.540   6.925   3.642  0.3937 -0.1252 -0.2003
 4297ntf    sn225564   4.564   7.080   3.655  0.1380 -0.0872 -0.1762
 4297ntf    cn125565   4.445   7.121   3.786  0.2756  0.2668 -0.1620
 4297ntf    fn425566   4.682   6.753   3.472  0.0979 -0.1449  0.4022
 4297ntf    fn425567   4.540   6.745   3.314 -0.4531  0.3270  0.3040
 4297ntf    fn425568   4.630   6.928   3.356  0.4414 -0.0964 -0.2571
 4297ntf    on525569   4.358   6.930   3.459  0.2715 -0.1523 -0.2161
 4297ntf    on525570   4.395   6.728   3.584  0.5543 -0.0680  0.3654
 4297ntf    on525571   4.526   7.166   3.545  0.3466  0.1437 -0.0690
 4297ntf    on525572   4.693   7.101   3.716 -0.1686 -0.0359  0.4575
 4297ntf    fn425573   4.323   7.087   3.750  0.1902  0.0606  0.3146
 4297ntf    fn425574   4.457   7.049   3.896 -0.5720  0.4866  0.0822
 4297ntf    fn425575   4.448   7.249   3.821  0.5311  0.1969  0.0779
 4298ntf    cn125576   3.562   0.579   6.032 -0.0047 -0.3121  0.0954
 4298ntf    sn225577   3.737   0.575   5.982  0.0408  0.1230  0.2106
 4298ntf    nn325578   3.746   0.440   5.902 -0.0760  0.2066  0.0550
 4298ntf    sn225579   3.740   0.428   5.746  0.4243  0.3226  0.0241
 4298ntf    cn125580   3.917   0.434   5.708  0.4428 -0.0422  0.0459
 4298ntf    fn425581   3.474   0.603   5.936 -0.0084 -0.3374  0.0926
 4298ntf    fn425582   3.534   0.459   6.080 -0.2662 -0.1481  0.3593
 4298ntf    fn425583   3.537   0.662   6.132  0.3668 -0.0326 -0.0421
 4298ntf    on525584   3.768   0.694   5.908  0.7276 -0.1569  0.0397
 4298ntf    on525585   3.804   0.559   6.108 -0.2422  0.1469  0.3650
 4298ntf    on525586   3.680   0.539   5.676  0.0516 -0.0794 -0.3051
 4298ntf    on525587   3.704   0.298   5.695  0.5329  0.1361  0.4188
 4298ntf    fn425588   3.978   0.336   5.773  0.0645 -0.1905  0.1791
 4298ntf    fn425589   3.934   0.417   5.578  0.3696 -0.0430  0.0361
 4298ntf    fn425590   3.981   0.547   5.736  0.5830 -0.1315  0.0893
 4299ntf    cn125591   0.529   6.992   6.771  0.4311  0.3735  0.2295
 4299ntf    sn225592   0.655   6.862   6.783  0.0398 -0.0365 -0.0410
 4299ntf    nn325593   0.561   6.742   6.748  0.1194 -0.0124 -0.3352
 4299ntf    sn225594   0.517   6.618   6.834  0.2706 -0.1098 -0.3967
 4299ntf    cn125595   0.652   6.506   6.786  0.2632 -0.3855  0.2146
 4299ntf    fn425596   0.580   7.113   6.753  0.6079  0.2822  0.1152
 4299ntf    fn425597   0.444   6.983   6.670  0.4526  0.2164  0.2262
 4299ntf    fn425598   0.451   6.986   6.878 -0.2777 -0.5299 -0.3190
 4299ntf    on525599   0.750   6.895   6.680  0.2454 -0.2856  0.0680
 4299ntf    on525600   0.701   6.879   6.919 -0.5577  0.0161  0.1585
 4299ntf    on525601   0.404   6.553   6.773  0.1684  0.1394 -0.4739
 4299ntf    on525602   0.528   6.626   6.978 -0.1533 -0.4141 -0.3464
 4299ntf    fn425603   0.647   6.391   6.852 -0.2375 -0.6481 -0.2682
 4299ntf    fn425604   0.650   6.478   6.656 -0.4343  0.0405  0.1283
 4299ntf    fn425605   0.772   6.552   6.818  0.2657 -0.1667 -0.1032
 4300ntf    cn125606   3.462   6.254   4.864  0.2688  0.1367  0.2585
 4300ntf    sn225607   3.627   6.269   4.938  0.2526  0.0026  0.3219
 4300ntf    nn325608   3.685   6.129   4.898  0.4800  0.1401  0.1690
 4300ntf    sn225609   3.685   6.003   4.991 -0.3355 -0.1015 -0.1415
 4300ntf    cn125610   3.798   6.064   5.120 -0.1849 -0.0753 -0.2857
 4300ntf    fn425611   3.474   6.247   4.732  0.0107  0.2630  0.2273
 4300ntf    fn425612   3.392   6.155   4.916  0.3594  0.2821  0.6590
 4300ntf    fn425613   3.391   6.362   4.893 -0.5351 -0.2698 -0.1597
 4300ntf    on525614   3.692   6.373   4.863  0.3213 -0.1942  0.1101
 4300ntf    on525615   3.613   6.292   5.080 -0.2255 -0.1238  0.2971
 4300ntf    on525616   3.760   5.895   4.931 -0.1372  0.1919 -0.4208
 4300ntf    on525617   3.565   5.977   5.066 -0.1935 -0.1263  0.0810
 4300ntf    fn425618   3.871   5.971   5.180 -0.4070 -0.0798 -0.0233
 4300ntf    fn425619   3.884   6.153   5.072 -0.0374 -0.3192 -0.4759
 4300ntf    fn425620   3.738   6.128   5.219 -0.2300  0.1187 -0.4386
 4301ntf    cn125621   5.836   4.934   0.089 -0.1133 -0.2889  0.0373
 4301ntf    sn225622   5.795   4.856  -0.070 -0.0287 -0.4136  0.0760
 4301ntf    nn325623   5.887   4.730  -0.053  0.0712 -0.3000  0.3822
 4301ntf    sn225624   6.031   4.694  -0.104 -0.1211 -0.1366 -0.2841
 4301ntf    cn125625   5.988   4.566  -0.225 -0.1095  0.0374 -0.4742
 4301ntf    fn425626   5.963   4.970   0.083 -0.3218  0.4363 -0.1434
 4301ntf    fn425627   5.762   5.042   0.107  0.3095 -0.0306  0.2435
 4301ntf    fn425628   5.821   4.862   0.199  0.1039  0.2094  0.3983
 4301ntf    on525629   5.657   4.820  -0.057 -0.2340  0.2170 -0.2836
 4301ntf    on525630   5.813   4.952  -0.177  0.2806 -0.0824  0.4239
 4301ntf    on525631   6.108   4.622  -0.007  0.1747  0.1704 -0.2886
 4301ntf    on525632   6.100   4.795  -0.181  0.4017 -0.0129  0.3379
 4301ntf    fn425633   6.092   4.530  -0.300  0.0887  0.0039 -0.1860
 4301ntf    fn425634   5.937   4.458  -0.169 -0.5715  0.2537 -0.4793
 4301ntf    fn425635   5.899   4.597  -0.318 -0.1852  0.0477 -0.3983
 4302ntf    cn125636   2.261   1.256   3.366 -0.2603  0.4173  0.2874
 4302ntf    sn225637   2.318   1.133   3.245  0.0250  0.4360  0.4016
 4302ntf    nn325638   2.440   1.060   3.311 -0.1299 -0.6078 -0.4401
 4302ntf    sn225639   2.430   0.934   3.405 -0.0244 -0.4551 -0.2224
 4302ntf    cn125640   2.490   0.808   3.288 -0.2635 -0.3481 -0.4615
 4302ntf    fn425641   2.155   1.321   3.319 -0.8359 -0.2526  0.6392
 4302ntf    fn425642   2.221   1.198   3.478  0.2954 -0.0845  0.2285
 4302ntf    fn425643   2.348   1.351   3.397 -0.0721  0.4284 -0.2702
 4302ntf    on525644   2.199   1.058   3.212  0.2495  0.2998 -0.1164
 4302ntf    on525645   2.365   1.209   3.131  0.1075 -0.1303  0.0529
 4302ntf    on525646   2.305   0.873   3.443 -0.4324  0.2278 -0.4527
 4302ntf    on525647   2.531   0.936   3.507 -0.4612  0.5398  0.2009
 4302ntf    fn425648   2.615   0.838   3.259 -0.1473 -0.2572  0.1131
 4302ntf    fn425649   2.494   0.689   3.347  0.1752  0.0929  0.4114
 4302ntf    fn425650   2.423   0.795   3.174  0.0861  0.2400 -0.7317
 4303ntf    cn125651   1.276   2.924   0.314 -0.2489  0.0765 -0.2154
 4303ntf    sn225652   1.205   2.764   0.264  0.4079 -0.1825 -0.3334
 4303ntf    nn325653   1.085   2.758   0.365  0.7163  0.0684  0.0502
 4303ntf    sn225654   1.074   2.663   0.489  0.5763 -0.0870 -0.0810
 4303ntf    cn125655   0.996   2.518   0.412 -0.6726  0.2325  0.5409
 4303ntf    fn425656   1.365   2.962   0.225 -0.2763  0.1331 -0.2188
 4303ntf    fn425657   1.196   3.028   0.326 -0.3116  0.0267 -0.2019
 4303ntf    fn425658   1.334   2.915   0.433 -0.0089 -0.0384 -0.3400
 4303ntf    on525659   1.155   2.780   0.129 -0.7272 -0.1273  0.0860
 4303ntf    on525660   1.306   2.663   0.277  0.7150  0.1820  0.1301
 4303ntf    on525661   0.982   2.716   0.587  0.1756 -0.3552 -0.3083
 4303ntf    on525662   1.197   2.607   0.541  0.2796 -0.5621  0.1224
 4303ntf    fn425663   0.877   2.538   0.358 -0.0516 -0.3538 -1.1369
 4303ntf    fn425664   1.073   2.472   0.314 -0.5555  0.3157  0.5933
 4303ntf    fn425665   0.979   2.421   0.500 -0.7141  0.0697  0.3549
 4304ntf    cn125666   0.847   5.128   0.548 -0.0063  0.3277 -0.4374
 4304ntf    sn225667   0.707   5.190   0.450 -0.4415 -0.1233 -0.1045
 4304ntf    nn325668   0.762   5.318   0.378 -0.1998 -0.0071  0.2820
 4304ntf    sn225669   0.816   5.323   0.230  0.2744 -0.3482  0.4392
 4304ntf    cn125670   0.667   5.397   0.156  0.4849  0.0608  0.4218
 4304ntf    fn425671   0.942   5.064   0.482  0.2734  0.2670  0.0198
 4304ntf    fn425672   0.909   5.227   0.609 -0.2341  0.3234 -0.1977
 4304ntf    fn425673   0.810   5.050   0.648 -0.4046  0.4573 -0.4827
 4304ntf    on525674   0.669   5.081   0.364  0.7038 -0.8975  0.3419
 4304ntf    on525675   0.605   5.234   0.542 -0.2884 -0.2059  0.1050
 4304ntf    on525676   0.835   5.198   0.161  0.1171 -0.0510 -0.1512
 4304ntf    on525677   0.906   5.432   0.202  0.2262 -0.2866  0.5216
 4304ntf    fn425678   0.690   5.426   0.029  0.4918 -0.2457  0.3535
 4304ntf    fn425679   0.561   5.317   0.162  0.4238  0.0520 -0.6184
 4304ntf    fn425680   0.642   5.515   0.211  0.2554  0.3272 -0.2444
 4305ntf    cn125681   3.911   0.502   0.182 -0.1842 -0.3190  0.0939
 4305ntf    sn225682   3.770   0.616   0.162 -0.0679 -0.1746  0.0933
 4305ntf    nn325683   3.707   0.546   0.037 -0.6237 -0.3319  0.4559
 4305ntf    sn225684   3.657   0.609  -0.098 -0.0920 -0.2461  0.2991
 4305ntf    cn125685   3.809   0.670  -0.179 -0.3763 -0.2672 -0.2550
 4305ntf    fn425686   3.952   0.469   0.061  0.2663  0.0155  0.1538
 4305ntf    fn425687   4.011   0.557   0.248 -0.1362  0.2220 -0.4261
 4305ntf    fn425688   3.870   0.395   0.249  0.6129 -0.1851  0.8035
 4305ntf    on525689   3.693   0.596   0.283 -0.1914 -0.0282  0.0392
 4305ntf    on525690   3.832   0.744   0.140 -0.1410 -0.2466 -0.5510
 4305ntf    on525691   3.588   0.734  -0.081  0.4230 -0.0389  0.9035
 4305ntf    on525692   3.596   0.504  -0.176  0.1356 -0.1816  0.0302
 4305ntf    fn425693   3.842   0.786  -0.126 -0.7191 -0.2847 -0.0021
 4305ntf    fn425694   3.910   0.587  -0.164 -0.5074 -0.4491 -0.3688
 4305ntf    fn425695   3.788   0.695  -0.307  0.5374  0.0480 -0.3457
 4306ntf    cn125696   0.235   2.906   1.933  0.1052  0.0660  0.0794
 4306ntf    sn225697   0.358   2.862   1.806 -0.0153 -0.0841  0.0150
 4306ntf    nn325698   0.426   2.741   1.880 -0.2342 -0.0325  0.3026
 4306ntf    sn225699   0.573   2.726   1.933 -0.0063 -0.0756 -0.3439
 4306ntf    cn125700   0.573   2.781   2.106  0.2975 -0.2171 -0.2977
 4306ntf    fn425701   0.153   2.997   1.883 -0.0546  0.0278  0.2732
 4306ntf    fn425702   0.163   2.799   1.962 -0.2656  0.2798 -0.0578
 4306ntf    fn425703   0.290   2.949   2.046 -0.5503  0.2057  0.3459
 4306ntf    on525704   0.286   2.817   1.689 -0.0334 -0.0890  0.0280
 4306ntf    on525705   0.434   2.984   1.802 -0.0631 -0.0437  0.3115
 4306ntf    on525706   0.670   2.814   1.872 -0.3249  0.5510  0.0504
 4306ntf    on525707   0.602   2.585   1.944  0.3887  0.0095 -0.2633
 4306ntf    fn425708   0.562   2.911   2.124  0.1988 -0.1832 -0.6031
 4306ntf    fn425709   0.475   2.726   2.177  0.6399 -0.4382  0.0066
 4306ntf    fn425710   0.688   2.739   2.155 -0.2858 -0.6375  0.7386
 4307ntf    cn125711   5.779   1.183   6.402 -0.2880  0.2009 -0.3749
 4307ntf    sn225712   5.834   1.322   6.506 -0.2701  0.1395 -0.3036
 4307ntf    nn325713   5.881   1.416   6.390 -0.0148 -0.2002 -0.4774
 4307ntf    sn225714   6.032   1.436   6.352  0.0071  0.3001 -0.1357
 4307ntf    cn125715   6.074   1.570   6.468 -0.1950 -0.4772  0.8488
 4307ntf    fn425716   5.881   1.128   6.338  0.1765  0.5648  0.0488
 4307ntf    fn425717   5.709   1.092   6.467 -0.5378  0.4012 -0.3583
 4307ntf    fn425718   5.701   1.231   6.306 -0.1290  0.1502 -0.5302
 4307ntf    on525719   5.709   1.371   6.560 -0.2680 -0.2856  0.0985
 4307ntf    on525720   5.929   1.263   6.597 -0.8689  0.3953  0.5096
 4307ntf    on525721   6.032   1.498   6.222 -1.2958  0.3308 -0.1312
 4307ntf    on525722   6.121   1.326   6.378  0.7400  0.9596  0.2102
 4307ntf    fn425723   6.131   1.520   6.576  1.0924  0.3210  0.5536
 4307ntf    fn425724   6.155   1.656   6.408 -0.7648 -0.2452  0.4024
 4307ntf    fn425725   5.969   1.640   6.510 -0.1686  0.1312 -0.0795
 4308ntf    cn125726   0.317   1.840   3.360  0.0968 -0.1177 -0.0965
 4308ntf    sn225727   0.494   1.799   3.360  0.0536 -0.3131  0.3184
 4308ntf    nn325728   0.484   1.646   3.393  0.1326 -0.2523  0.6285
 4308ntf    sn225729   0.451   1.532   3.290  0.0300  0.2578  0.0883
 4308ntf    cn125730   0.620   1.482   3.245  0.0672  0.0778  0.4244
 4308ntf    fn425731   0.272   1.852   3.484 -0.2916  0.0995 -0.2572
 4308ntf    fn425732   0.292   1.953   3.296  0.2265 -0.2953 -0.4628
 4308ntf    fn425733   0.242   1.747   3.305  0.2921 -0.2638 -0.1184
 4308ntf    on525734   0.555   1.838   3.235 -0.6174 -0.3216 -0.0126
 4308ntf    on525735   0.540   1.864   3.480  0.3272 -0.1074  0.1054
 4308ntf    on525736   0.390   1.580   3.169 -0.7328  0.2788  0.4713
 4308ntf    on525737   0.395   1.412   3.347 -0.3172  0.2476 -0.2696
 4308ntf    fn425738   0.620   1.373   3.170 -0.3165  0.2382  0.1897
 4308ntf    fn425739   0.670   1.582   3.175 -0.5130  0.1044  0.0469
 4308ntf    fn425740   0.701   1.460   3.347 -0.0347  0.0158  0.4924
 4309ntf    cn125741   0.653   1.838   4.192  0.0274 -0.0167  0.3949
 4309ntf    sn225742   0.792   1.950   4.228  0.1070  0.0400 -0.0779
 4309ntf    nn325743   0.893   1.839   4.276 -0.0682  0.0999  0.4457
 4309ntf    sn225744   1.030   1.879   4.341 -0.0072 -0.1641  0.4769
 4309ntf    cn125745   1.016   1.783   4.495  0.0416 -0.5126  0.2667
 4309ntf    fn425746   0.679   1.732   4.118 -0.0862  0.0440  0.2669
 4309ntf    fn425747   0.607   1.784   4.303 -0.1985  0.2844  0.4509
 4309ntf    fn425748   0.557   1.907   4.132 -0.4374 -0.1825  0.9401
 4309ntf    on525749   0.829   1.998   4.098  0.3911 -0.0563 -0.0335
 4309ntf    on525750   0.736   2.042   4.324 -0.0374  0.0558 -0.1773
 4309ntf    on525751   1.054   2.016   4.377 -0.6880 -0.0946  0.6651
 4309ntf    on525752   1.140   1.808   4.280  0.0329  0.4767 -0.2105
 4309ntf    fn425753   1.060   1.659   4.477  0.0388 -0.4339 -0.2865
 4309ntf    fn425754   1.092   1.829   4.594  0.4810 -0.2613 -0.1801
 4309ntf    fn425755   0.890   1.780   4.535  0.0934 -0.2013  0.4563
 4310ntf    cn125756   0.010   6.101   4.310  0.0988  0.1301  0.2923
 4310ntf    sn225757   0.074   5.984   4.433  0.1362 -0.2449 -0.0828
 4310ntf    nn325758  -0.012   6.034   4.554 -0.0044 -0.0936 -0.2452
 4310ntf    sn225759  -0.135   5.974   4.631  0.1531 -0.1885 -0.0655
 4310ntf    cn125760  -0.266   6.097   4.603  0.2793 -0.0815 -0.1831
 4310ntf    fn425761   0.045   6.077   4.184 -0.3473  0.0718  0.1782
 4310ntf    fn425762  -0.122   6.111   4.308  0.1172  0.3068 -0.2045
 4310ntf    fn425763   0.051   6.223   4.339  0.2179  0.1883 -0.1162
 4310ntf    on525764   0.035   5.856   4.378  0.5385 -0.1074 -0.7018
 4310ntf    on525765   0.214   6.016   4.446 -0.0097  0.2582  0.2630
 4310ntf    on525766  -0.116   5.974   4.774  0.0443 -0.2489 -0.0508
 4310ntf    on525767  -0.185   5.853   4.570 -0.0926 -0.1520  0.0606
 4310ntf    fn425768  -0.328   6.079   4.488  0.0052  0.0437 -0.0546
 4310ntf    fn425769  -0.364   6.097   4.691  0.2203 -0.4207 -0.2502
 4310ntf    fn425770  -0.217   6.220   4.602  0.2799 -0.0837 -0.4167
 4311ntf    cn125771   4.392   3.840   0.826 -0.0878  0.0971 -0.2662
 4311ntf    sn225772   4.564   3.833   0.770 -0.0179 -0.0033 -0.0378
 4311ntf    nn325773   4.569   3.696   0.694 -0.7869  0.0066 -0.1064
 4311ntf    sn225774   4.587   3.684   0.538  0.2471 -0.2862  0.0315
 4311ntf    cn125775   4.537   3.512   0.508  0.1172 -0.1716 -0.4235
 4311ntf    fn425776   4.358   3.733   0.895  0.4316  0.1108  0.0135
 4311ntf    fn425777   4.370   3.940   0.910  0.1539 -0.3126  0.2899
 4311ntf    fn425778   4.302   3.859   0.730 -0.5772 -0.3250  0.1048
 4311ntf    on525779   4.583   3.954   0.694  0.8948 -0.0509  0.1025
 4311ntf    on525780   4.636   3.826   0.895 -0.2700  0.2960  0.1221
 4311ntf    on525781   4.725   3.694   0.498  0.1454 -0.3292 -0.3310
 4311ntf    on525782   4.483   3.751   0.464  0.6832  0.3269 -0.0316
 4311ntf    fn425783   4.407   3.489   0.511  0.1037 -0.0617 -0.1336
 4311ntf    fn425784   4.591   3.463   0.398  0.2649 -0.2056 -0.3363
 4311ntf    fn425785   4.591   3.430   0.597  0.0524 -0.3644 -0.5620
 4312ntf    cn125786   4.865   4.196   4.148  0.3096  0.2659 -0.1494
 4312ntf    sn225787   4.875   4.268   4.314 -0.2417 -0.0043  0.0021
 4312ntf    nn325788   4.941   4.140   4.376  0.0902  0.2817  0.2429
 4312ntf    sn225789   5.023   4.161   4.509  0.0889 -0.0882  0.3018
 4312ntf    cn125790   4.916   4.257   4.618 -0.7625 -0.0847 -0.5240
 4312ntf    fn425791   4.787   4.089   4.139  0.4545  0.1471 -0.0057
 4312ntf    fn425792   4.822   4.282   4.057  0.4841  0.5768  0.0588
 4312ntf    fn425793   4.978   4.147   4.100  0.2617 -0.1854  0.1937
 4312ntf    on525794   4.957   4.384   4.286  0.1920 -0.3690 -0.2498
 4312ntf    on525795   4.740   4.291   4.361 -0.1905  0.0575  0.1220
 4312ntf    on525796   5.138   4.246   4.488  0.1443 -0.1997  0.1486
 4312ntf    on525797   5.047   4.040   4.585 -0.0952 -0.4904 -0.2705
 4312ntf    fn425798   4.899   4.382   4.578  0.0059  0.0401 -0.4749
 4312ntf    fn425799   4.793   4.211   4.640 -0.5588 -0.3382  0.1077
 4312ntf    fn425800   4.974   4.258   4.737 -0.3462 -0.1167 -0.7255
 4313ntf    cn125801   1.859   4.201   2.902  0.3304 -0.2007  0.2332
 4313ntf    sn225802   1.957   4.052   2.866  0.2126 -0.2307  0.0401
 4313ntf    nn325803   2.025   4.024   3.004  0.0512  0.0579  0.1782
 4313ntf    sn225804   1.969   3.928   3.115  0.2932 -0.0547  0.2029
 4313ntf    cn125805   2.066   3.992   3.255  0.1675 -0.1599  0.3380
 4313ntf    fn425806   1.784   4.185   3.010 -0.2230  0.3733 -0.0645
 4313ntf    fn425807   1.931   4.310   2.923 -0.3180  0.2769 -0.0184
 4313ntf    fn425808   1.784   4.226   2.797  0.2956  0.1466  0.3400
 4313ntf    on525809   1.862   3.958   2.812  0.7959 -1.0117  0.3499
 4313ntf    on525810   2.059   4.100   2.776 -0.3366  0.4320 -0.2384
 4313ntf    on525811   2.002   3.788   3.105 -0.6821 -0.2662 -0.1432
 4313ntf    on525812   1.837   3.966   3.160  0.1900  0.1548 -0.2741
 4313ntf    fn425813   2.031   3.933   3.369 -0.6596  0.0281  0.1923
 4313ntf    fn425814   2.197   3.974   3.248  0.1624 -0.0058 -0.1616
 4313ntf    fn425815   2.052   4.122   3.273  0.4699 -0.0117 -0.4609
 4314ntf    cn125816   4.239   0.627   4.015 -0.3523 -0.0642  0.1187
 4314ntf    sn225817   4.101   0.736   4.063  0.0437  0.4616  0.0757
 4314ntf    nn325818   4.172   0.816   4.178 -0.1111 -0.4240  0.8011
 4314ntf    sn225819   4.203   0.969   4.193  0.0507 -0.3466 -0.2893
 4314ntf    cn125820   4.370   0.935   4.258  0.3436 -0.0895 -0.8975
 4314ntf    fn425821   4.341   0.696   3.966 -0.0241 -0.2737  0.4998
 4314ntf    fn425822   4.287   0.561   4.119 -0.5615 -0.1569  0.1560
 4314ntf    fn425823   4.200   0.535   3.928  0.0743 -0.2782  0.1509
 4314ntf    on525824   4.066   0.805   3.942 -0.7505 -0.1351 -0.0426
 4314ntf    on525825   4.005   0.643   4.117  0.0936  0.0502 -0.5416
 4314ntf    on525826   4.141   1.035   4.305 -0.0104  0.0462 -0.5509
 4314ntf    on525827   4.216   1.036   4.066 -0.2435  0.0436 -0.1126
 4314ntf    fn425828   4.410   1.032   4.338 -0.4922 -0.4115 -0.0759
 4314ntf    fn425829   4.361   0.822   4.327  0.1592  0.4957  0.0413
 4314ntf    fn425830   4.455   0.929   4.157  0.7847  0.1037 -0.5372
 4315ntf    cn125831   0.663   0.021   2.039  0.3979 -0.2295  0.1783
 4315ntf    sn225832   0.588   0.063   2.199  0.2746 -0.2027  0.1140
 4315ntf    nn325833   0.566   0.215   2.170  0.2191 -0.2036  0.1510
 4315ntf    sn225834   0.664   0.338   2.184 -0.0966  0.0307  0.3092
 4315ntf    cn125835   0.556   0.432   2.296 -0.2644  0.0144  0.1616
 4315ntf    fn425836   0.588   0.046   1.932 -0.0793 -0.5773  0.4296
 4315ntf    fn425837   0.778   0.085   2.023  0.3249 -0.1536 -0.0523
 4315ntf    fn425838   0.691  -0.108   2.041  0.7847 -0.1546 -0.1691
 4315ntf    on525839   0.467  -0.015   2.213  0.1511 -0.1141 -0.4508
 4315ntf    on525840   0.688   0.035   2.299  0.2049  0.0057  0.2413
 4315ntf    on525841   0.667   0.413   2.061  0.3255 -0.4568  0.0194
 4315ntf    on525842   0.790   0.328   2.254  0.5726  0.2202 -0.8527
 4315ntf    fn425843   0.509   0.355   2.393 -0.2845 -0.1387  0.0306
 4315ntf    fn425844   0.617   0.530   2.360  0.2899 -0.1728 -0.0799
 4315ntf    fn425845   0.448   0.474   2.233 -0.2639  0.1721  0.2664
 4316ntf    cn125846   6.136   2.194   6.380  0.0436  0.4395  0.2456
 4316ntf    sn225847   5.979   2.105   6.361  0.3177 -0.0491  0.2699
 4316ntf    nn325848   5.982   2.079   6.206 -0.3527  0.2491  0.2039
 4316ntf    sn225849   5.878   1.997   6.121 -0.2948  0.2200  0.1602
 4316ntf    cn125850   5.976   1.850   6.078  0.4041  0.6829  0.1443
 4316ntf    fn425851   6.160   2.213   6.509  1.0000  0.2109  0.1073
 4316ntf    fn425852   6.240   2.131   6.328  0.0679  0.4644  0.2637
 4316ntf    fn425853   6.133   2.310   6.315 -0.5133  0.2807 -0.0183
 4316ntf    on525854   5.993   1.981   6.433 -0.2788 -0.0767  0.3441
 4316ntf    on525855   5.877   2.195   6.405  0.0830 -0.3085  0.2602
 4316ntf    on525856   5.845   2.064   5.997  0.7560  0.5069  0.0251
 4316ntf    on525857   5.765   1.946   6.194 -0.4935  0.3022 -0.0862
 4316ntf    fn425858   5.940   1.787   5.967  0.3890  0.3981  0.3104
 4316ntf    fn425859   6.104   1.876   6.058  0.3755  0.2119 -0.6734
 4316ntf    fn425860   5.967   1.750   6.164  0.1910  0.2506 -0.3746
 4317ntf    cn125861   3.465   0.543   4.934  0.4607  0.0124  0.4473
 4317ntf    sn225862   3.287   0.512   4.951  0.4860 -0.5137 -0.1858
 4317ntf    nn325863   3.264   0.526   5.106 -0.3271 -0.1676 -0.3346
 4317ntf    sn225864   3.124   0.527   5.177 -0.1569  0.4339  0.0009
 4317ntf    cn125865   3.147   0.695   5.244 -0.1090  0.2857  0.3622
 4317ntf    fn425866   3.528   0.452   5.006  0.4816  0.0714  0.5039
 4317ntf    fn425867   3.499   0.526   4.807 -0.8627 -0.2150  0.1117
 4317ntf    fn425868   3.510   0.661   4.974  0.2183 -0.0992  1.0580
 4317ntf    on525869   3.231   0.619   4.872  0.9564 -0.0485  0.1031
 4317ntf    on525870   3.277   0.378   4.899  0.4985 -0.5726 -0.0374
 4317ntf    on525871   3.127   0.444   5.296  0.0928 -0.2069 -0.4483
 4317ntf    on525872   3.004   0.521   5.098 -0.0127  0.0231 -0.1930
 4317ntf    fn425873   3.129   0.783   5.147 -0.3205  0.0275  0.1622
 4317ntf    fn425874   3.060   0.729   5.337 -0.6010  0.0294  0.0041
 4317ntf    fn425875   3.264   0.717   5.300  0.0326  0.1506  0.1265
 4318ntf    cn125876   6.901   6.265   1.973 -0.1981 -0.1314 -0.1254
 4318ntf    sn225877   6.771   6.267   1.845 -0.3324  0.0951  0.0134
 4318ntf    nn325878   6.853   6.200   1.729 -0.3284 -0.1978  0.1846
 4318ntf    sn225879   6.831   6.074   1.639 -0.0134  0.1576 -0.3955
 4318ntf    cn125880   6.908   5.943   1.738 -0.1298  0.3970  0.0136
 4318ntf    fn425881   7.010   6.331   1.937 -0.4240  0.4249  0.1848
 4318ntf    fn425882   6.863   6.308   2.092 -0.2085 -0.1729 -0.1136
 4318ntf    fn425883   6.944   6.142   1.994  0.0360 -0.0974 -0.4009
 4318ntf    on525884   6.672   6.178   1.899  0.0613 -0.5776 -0.3706
 4318ntf    on525885   6.739   6.407   1.831  0.2979  0.2421  0.0111
 4318ntf    on525886   6.914   6.081   1.521  0.5576  0.2078  0.0065
 4318ntf    on525887   6.694   6.030   1.622  0.0267 -0.1035 -0.0294
 4318ntf    fn425888   6.837   5.917   1.846  0.0901  0.2414  0.1217
 4318ntf    fn425889   6.919   5.827   1.674  0.5323  0.4073  0.1003
 4318ntf    fn425890   7.030   5.978   1.776  0.1571 -0.7545  0.1985
 4319ntf    cn125891   1.812   0.735   2.782  0.1413 -0.0972  0.1135
 4319ntf    sn225892   1.784   0.565   2.841 -0.2292 -0.1250 -0.1441
 4319ntf    nn325893   1.771   0.493   2.702 -0.1901  0.1520 -0.2933
 4319ntf    sn225894   1.888   0.426   2.621 -0.0397  0.1437 -0.0698
 4319ntf    cn125895   1.800   0.285   2.548  0.3639 -0.1283 -0.0332
 4319ntf    fn425896   1.725   0.780   2.693  0.5359  0.7267  0.1349
 4319ntf    fn425897   1.805   0.818   2.884  0.2808  0.0493  0.0052
 4319ntf    fn425898   1.934   0.755   2.733 -0.0087  0.5181 -0.0109
 4319ntf    on525899   1.897   0.534   2.924 -0.1627 -0.3549 -0.3202
 4319ntf    on525900   1.655   0.585   2.902 -0.4595  0.4025 -0.7894
 4319ntf    on525901   1.999   0.364   2.688 -0.1497  0.1200  0.0914
 4319ntf    on525902   1.930   0.508   2.511 -0.0210  0.2022 -0.0193
 4319ntf    fn425903   1.686   0.329   2.497  0.3731 -0.4918 -0.3777
 4319ntf    fn425904   1.870   0.229   2.451  0.0081 -0.0622 -0.3349
 4319ntf    fn425905   1.746   0.196   2.630 -0.6518  0.3749 -0.1293
 4320ntf    cn125906   1.258   1.334   2.822  0.1120  0.0518  0.1053
 4320ntf    sn225907   1.216   1.312   2.997 -0.1478  0.0725  0.0456
 4320ntf    nn325908   1.063   1.286   2.975 -0.0791  0.1102 -0.4739
 4320ntf    sn225909   0.984   1.153   2.947  0.1495 -0.1053 -0.0982
 4320ntf    cn125910   0.913   1.111   3.109  0.0367 -0.3286 -0.2051
 4320ntf    fn425911   1.187   1.427   2.761 -0.2049  0.0625  0.4869
 4320ntf    fn425912   1.387   1.358   2.805  0.1987 -0.5597 -0.1269
 4320ntf    fn425913   1.237   1.217   2.763  0.4718  0.1253 -0.1759
 4320ntf    on525914   1.295   1.195   3.027  0.1396  0.0817 -0.6685
 4320ntf    on525915   1.253   1.439   3.056 -0.0207  0.0929 -0.0780
 4320ntf    on525916   1.056   1.036   2.904  0.2712 -0.1927  0.3397
 4320ntf    on525917   0.863   1.178   2.872 -0.0084 -0.1840  0.1306
 4320ntf    fn425918   0.821   1.195   3.154  0.7602  0.4271 -0.1132
 4320ntf    fn425919   0.864   0.989   3.102 -0.3964 -0.1734  0.1073
 4320ntf    fn425920   1.008   1.102   3.200  0.1764 -0.2534 -0.3435
   7.23213   7.23213   7.23213
