Converted from moscito
21600
    1SOL     ow    1   2.696   1.114   1.479  0.1462  0.3720 -0.2285
    1SOL     hw    2   2.759   1.043   1.470  0.2716  0.3752  0.6044
    1SOL     hw    3   2.632   1.097   1.409  0.6220 -0.0837 -0.5641
    1SOL     vw    4   2.696   1.102   1.468  0.2255  0.3123 -0.1628
    2SOL     ow    5   7.032   1.196   2.298 -0.7832  0.5481  0.2121
    2SOL     hw    6   7.005   1.269   2.354  1.2247  0.7012  1.0756
    2SOL     hw    7   7.127   1.205   2.290 -0.4253 -2.0521  0.5053
    2SOL     vw    8   7.041   1.207   2.305 -0.4711  0.2252  0.3649
    3SOL     ow    9   0.154   3.375   5.078 -0.5334 -0.5507  0.8919
    3SOL     hw   10   0.172   3.338   4.991  0.3356  1.7196  0.0404
    3SOL     hw   11   0.190   3.464   5.074 -4.2924  1.2018  2.0910
    3SOL     vw   12   0.161   3.382   5.066 -0.9147 -0.0198  0.9379
    4SOL     ow   13   2.525   4.816   3.219 -0.2029  0.7423 -0.0432
    4SOL     hw   14   2.571   4.860   3.290 -1.3701  1.5648  0.2369
    4SOL     hw   15   2.590   4.806   3.150  0.4606  1.6230  0.4412
    4SOL     vw   16   2.540   4.821   3.219 -0.2694  0.9675  0.0576
    5SOL     ow   17   0.327   7.067   1.563  0.0119 -0.1955 -0.7939
    5SOL     hw   18   0.329   7.009   1.639  1.0077  2.2279  1.1788
    5SOL     hw   19   0.405   7.044   1.513  0.7884 -0.0839  0.3419
    5SOL     vw   20   0.337   7.056   1.567  0.2458  0.1389 -0.3839
    6SOL     ow   21   0.032   5.931   0.216  0.1183  0.3515 -0.2204
    6SOL     hw   22   0.074   5.903   0.134 -1.5849 -1.5657 -0.5161
    6SOL     hw   23   0.060   5.865   0.280 -0.5124  0.4458  0.1560
    6SOL     vw   24   0.042   5.919   0.214 -0.1897  0.1109 -0.2098
    7SOL     ow   25   0.872   0.357   1.327  0.1989  0.3309  0.2278
    7SOL     hw   26   0.932   0.292   1.290  0.6576  1.8534 -1.9061
    7SOL     hw   27   0.809   0.375   1.257  0.3144  2.4221  0.5850
    7SOL     vw   28   0.872   0.351   1.313  0.2747  0.8077 -0.0067
    8SOL     ow   29   5.957   1.120   4.511  0.7385  0.0149 -0.9727
    8SOL     hw   30   5.887   1.150   4.568  1.5260 -0.0730  0.0725
    8SOL     hw   31   5.949   1.025   4.511  2.0670 -0.1580  0.8276
    8SOL     vw   32   5.947   1.112   4.518  1.0178 -0.0195 -0.5975
    9SOL     ow   33   1.738   4.427   0.277  0.0780  0.4099  0.1565
    9SOL     hw   34   1.822   4.464   0.306  1.5753 -0.8521 -2.2083
    9SOL     hw   35   1.704   4.491   0.215 -0.9152  1.0679  1.3472
    9SOL     vw   36   1.745   4.440   0.273  0.1445  0.3300  0.0015
   10SOL     ow   37   4.248   4.784   4.235 -0.4342  0.0744  0.0241
   10SOL     hw   38   4.214   4.858   4.285 -1.7559 -0.3384 -0.2255
   10SOL     hw   39   4.218   4.707   4.282  0.6094 -0.3236  0.0724
   10SOL     vw   40   4.240   4.784   4.248 -0.4709 -0.0327 -0.0024
   11SOL     ow   41   2.458   3.838   5.734  0.5112 -0.4343 -0.9872
   11SOL     hw   42   2.503   3.755   5.725  0.2334 -0.8917  1.1844
   11SOL     hw   43   2.489   3.873   5.817  0.1116  1.3201 -1.5308
   11SOL     vw   44   2.468   3.832   5.744  0.4219 -0.2631 -0.7725
   12SOL     ow   45   6.458   5.952   3.455  0.0927 -0.2481  0.3450
   12SOL     hw   46   6.415   5.941   3.370  1.6843 -4.6785 -0.1425
   12SOL     hw   47   6.542   5.992   3.433  0.2029 -0.7069 -0.0972
   12SOL     vw   48   6.463   5.956   3.441  0.3173 -0.8934  0.2223
   13SOL     ow   49   1.578   4.405   4.527 -0.4792 -0.5742  0.0483
   13SOL     hw   50   1.544   4.413   4.616  0.9250  0.5086  0.5242
   13SOL     hw   51   1.559   4.314   4.503 -1.3509 -0.7397  1.2377
   13SOL     vw   52   1.571   4.394   4.535 -0.4089 -0.4530  0.2682
   14SOL     ow   53   6.770   4.251   2.181  0.4632  0.4285 -0.3534
   14SOL     hw   54   6.757   4.213   2.268 -0.7409  0.5548 -0.4516
   14SOL     hw   55   6.820   4.184   2.133 -2.0994 -1.4274 -0.7067
   14SOL     vw   56   6.775   4.237   2.186 -0.0339  0.2003 -0.4131
   15SOL     ow   57   2.133   6.818   2.235  0.1445 -0.2286 -0.2290
   15SOL     hw   58   2.153   6.862   2.152  0.4870  0.7021  0.3203
   15SOL     hw   59   2.217   6.814   2.280 -0.3766  1.1514  0.9268
   15SOL     vw   60   2.147   6.824   2.230  0.1209  0.0763 -0.0041
   16SOL     ow   61   2.081   0.452   0.491  0.7175 -0.2782 -0.5314
   16SOL     hw   62   2.118   0.364   0.495  1.4854  0.0426 -0.5204
   16SOL     hw   63   1.988   0.438   0.471  1.1722 -1.0391 -2.3592
   16SOL     vw   64   2.073   0.439   0.489  0.8787 -0.3362 -0.7711
   17SOL     ow   65   4.818   3.197   4.314  0.1954  0.5514  0.2331
   17SOL     hw   66   4.774   3.274   4.278  1.5482  1.8540  1.2201
   17SOL     hw   67   4.794   3.197   4.407 -0.6385 -0.8656  0.0419
   17SOL     vw   68   4.809   3.207   4.322  0.2642  0.5363  0.3383
   18SOL     ow   69   3.594   4.151   6.636  0.1410 -0.7898  0.6083
   18SOL     hw   70   3.682   4.117   6.653  0.4980 -0.7177 -0.9536
   18SOL     hw   71   3.554   4.156   6.723  1.7331 -0.6358  1.3835
   18SOL     vw   72   3.600   4.147   6.650  0.3982 -0.7601  0.5047
   19SOL     ow   73   3.255   1.696   1.756 -0.2978 -0.3976 -0.4582
   19SOL     hw   74   3.200   1.668   1.829  0.4325  0.1534  0.3242
   19SOL     hw   75   3.287   1.614   1.718 -2.4926 -0.7907 -1.6421
   19SOL     vw   76   3.252   1.682   1.761 -0.4910 -0.3768 -0.5112
   20SOL     ow   77   4.771   4.939   1.594 -0.3848 -0.6327 -0.6153
   20SOL     hw   78   4.805   4.858   1.557 -1.6994 -1.7981  0.6226
   20SOL     hw   79   4.839   4.967   1.656 -0.6587 -1.7339  0.2080
   20SOL     vw   80   4.785   4.932   1.598 -0.5946 -0.9320 -0.3433
   21SOL     ow   81   2.493   6.275   6.884 -0.1387  0.2108  0.7362
   21SOL     hw   82   2.583   6.242   6.880 -1.2121 -3.2660  1.4804
   21SOL     hw   83   2.499   6.364   6.850  3.3190 -0.4158 -0.8173
   21SOL     vw   84   2.506   6.282   6.879  0.1760 -0.3307  0.6297
   22SOL     ow   85   3.515   5.880   6.585  0.0687 -0.2031 -0.0311
   22SOL     hw   86   3.463   5.957   6.564 -0.1034 -1.2001 -3.8867
   22SOL     hw   87   3.583   5.912   6.644 -0.8525  2.5265 -0.3282
   22SOL     vw   88   3.517   5.894   6.590 -0.0757  0.0257 -0.5791
   23SOL     ow   89   2.822   5.793   1.054 -0.2096  0.6340 -0.2967
   23SOL     hw   90   2.813   5.740   1.134 -2.9954  1.1144 -0.2194
   23SOL     hw   91   2.797   5.734   0.983  0.3011  0.8018 -0.6213
   23SOL     vw   92   2.818   5.778   1.055 -0.5096  0.7195 -0.3293
   24SOL     ow   93   4.884   5.232   1.701 -0.5643  0.0526  0.4985
   24SOL     hw   94   4.912   5.222   1.610  1.1303  3.4716  0.4636
   24SOL     hw   95   4.825   5.308   1.699 -0.7448 -0.0166  2.1840
   24SOL     vw   96   4.880   5.241   1.688 -0.3645  0.4945  0.7162
   25SOL     ow   97   0.950   0.462   1.630 -0.5239 -0.0685  0.5302
   25SOL     hw   98   0.903   0.499   1.705 -0.6185 -0.3637  0.6186
   25SOL     hw   99   1.022   0.412   1.668 -0.5124 -0.1359  0.4234
   25SOL     vw  100   0.953   0.460   1.645 -0.5348 -0.1163  0.5278
   26SOL     ow  101   0.529   5.517   3.436  0.7974 -0.1619  0.6687
   26SOL     hw  102   0.434   5.520   3.450  0.7510 -0.2412  0.3705
   26SOL     hw  103   0.549   5.601   3.395  0.8709 -0.1043  0.8232
   26SOL     vw  104   0.519   5.528   3.432  0.8010 -0.1647  0.6497
   27SOL     ow  105   3.623   3.997   0.836 -0.1036  0.7201  0.0151
   27SOL     hw  106   3.686   4.049   0.885  0.0171  1.0726 -0.5025
   27SOL     hw  107   3.609   4.046   0.755 -1.1936  0.7469  0.2076
   27SOL     vw  108   3.629   4.010   0.832 -0.2315  0.7701 -0.0278
   28SOL     ow  109   0.224   4.989   0.975 -0.3259  0.3948  0.0225
   28SOL     hw  110   0.150   5.041   0.944 -1.0954 -2.2535 -3.0949
   28SOL     hw  111   0.286   4.990   0.902  1.2251 -0.1938  1.2747
   28SOL     vw  112   0.222   4.996   0.961 -0.2228 -0.0324 -0.2236
   29SOL     ow  113   6.085   1.964   1.719 -0.3166 -0.1056  0.0516
   29SOL     hw  114   6.100   2.058   1.707 -0.0775 -0.3372 -1.6543
   29SOL     hw  115   6.091   1.927   1.631  1.1199 -1.9454  0.8370
   29SOL     vw  116   6.088   1.972   1.706 -0.0954 -0.3789 -0.0699
   30SOL     ow  117   5.647   0.231   0.304  0.3426 -0.5902  0.4579
   30SOL     hw  118   5.708   0.175   0.255 -0.9043 -0.5227 -1.2796
   30SOL     hw  119   5.619   0.297   0.240  0.4125  0.9600  1.9651
   30SOL     vw  120   5.652   0.232   0.289  0.1872 -0.3768  0.4276
   31SOL     ow  121   5.582   6.688   6.480  0.0298 -0.5265 -0.2112
   31SOL     hw  122   5.628   6.702   6.563 -1.1189 -0.2362  0.4004
   31SOL     hw  123   5.568   6.776   6.446 -0.3289 -0.5942 -0.2399
   31SOL     vw  124   5.586   6.701   6.487 -0.1688 -0.4971 -0.1345
   32SOL     ow  125   0.988   2.992   6.952 -0.1056  0.4608  0.9325
   32SOL     hw  126   0.981   3.087   6.947  0.1869  0.4866  1.0223
   32SOL     hw  127   0.977   2.971   7.044  0.7178  0.4798  1.0380
   32SOL     vw  128   0.986   3.002   6.963  0.0416  0.4666  0.9580
   33SOL     ow  129   1.706   6.427   4.431  0.1078  0.2966 -0.3201
   33SOL     hw  130   1.747   6.358   4.379  1.7574  1.3986 -0.5350
   33SOL     hw  131   1.712   6.505   4.377 -0.7290  0.8679  0.3857
   33SOL     vw  132   1.712   6.428   4.417  0.2151  0.5174 -0.2553
   34SOL     ow  133   0.352   4.431   3.556  0.4784  0.0516  0.5077
   34SOL     hw  134   0.388   4.365   3.615  0.5753  0.5796  1.0426
   34SOL     hw  135   0.266   4.397   3.531  0.1923  0.0950  1.3988
   34SOL     vw  136   0.346   4.418   3.560  0.4534  0.1268  0.6958
   35SOL     ow  137   2.847   6.189   4.681 -0.6378 -0.2932  0.3067
   35SOL     hw  138   2.799   6.125   4.734 -2.2016  0.6381  0.0535
   35SOL     hw  139   2.799   6.193   4.599  0.7377 -0.4063 -0.5312
   35SOL     vw  140   2.834   6.181   4.677 -0.6627 -0.1853  0.1628
   36SOL     ow  141   0.251   5.552   3.431 -0.7108 -0.4836  0.4962
   36SOL     hw  142   0.201   5.567   3.511 -0.7323  1.3918  0.1674
   36SOL     hw  143   0.186   5.516   3.369 -0.9539 -0.8385  0.9503
   36SOL     vw  144   0.236   5.549   3.433 -0.7457 -0.2828  0.5127
   37SOL     ow  145   1.198   0.251   3.546  0.3590 -0.5883  0.3136
   37SOL     hw  146   1.169   0.192   3.476  1.7240 -0.4065 -0.4248
   37SOL     hw  147   1.161   0.336   3.522  1.8359 -0.2446 -0.9041
   37SOL     vw  148   1.189   0.254   3.533  0.7340 -0.5189  0.0556
   38SOL     ow  149   1.006   0.082   3.886 -0.0749 -0.9371 -0.4646
   38SOL     hw  150   1.076   0.032   3.926  0.4223  0.4695  0.5102
   38SOL     hw  151   1.048   0.163   3.856 -1.5357  0.8521  1.9300
   38SOL     vw  152   1.021   0.086   3.887 -0.2021 -0.5155 -0.0201
   39SOL     ow  153   0.683   2.308   3.730 -0.8549 -0.7839 -0.3598
   39SOL     hw  154   0.595   2.287   3.701  0.3111 -1.7871 -3.6276
   39SOL     hw  155   0.700   2.396   3.696 -0.1601 -1.1630 -1.0490
   39SOL     vw  156   0.674   2.317   3.722 -0.6094 -0.9663 -0.8818
   40SOL     ow  157   5.957   6.873   4.498 -0.3814  0.1576 -0.4784
   40SOL     hw  158   6.028   6.936   4.500 -1.0941  0.9796 -0.6876
   40SOL     hw  159   5.925   6.874   4.408 -1.7067  1.0112 -0.0317
   40SOL     vw  160   5.962   6.881   4.486 -0.6499  0.3784 -0.4470
   41SOL     ow  161   2.504   3.203   1.667 -0.9892  0.0720 -0.5886
   41SOL     hw  162   2.579   3.257   1.690 -0.1035 -1.5530  0.5161
   41SOL     hw  163   2.520   3.178   1.576  1.0378 -1.9985  0.2166
   41SOL     vw  164   2.516   3.207   1.658 -0.6050 -0.4157 -0.3366
   42SOL     ow  165   1.935   5.740   5.096 -0.7781  0.0995 -0.4839
   42SOL     hw  166   2.022   5.699   5.092 -1.5422 -1.5703 -1.3967
   42SOL     hw  167   1.950   5.825   5.136  1.4502  0.3272 -1.6497
   42SOL     vw  168   1.949   5.746   5.101 -0.5850 -0.0906 -0.7582
   43SOL     ow  169   1.789   1.804   6.181  0.2192 -0.1117  0.1001
   43SOL     hw  170   1.851   1.741   6.217  0.7793 -0.4673 -1.4138
   43SOL     hw  171   1.814   1.888   6.220  1.9590 -0.1643 -0.8075
   43SOL     vw  172   1.800   1.807   6.191  0.5226 -0.1655 -0.2196
   44SOL     ow  173   5.533   0.889   3.652  0.0809  0.0494  0.0162
   44SOL     hw  174   5.517   0.900   3.746  0.2012  1.4818 -0.1139
   44SOL     hw  175   5.521   0.977   3.615 -3.1873 -0.9757 -1.7948
   44SOL     vw  176   5.529   0.902   3.659 -0.3343  0.1031 -0.2400
   45SOL     ow  177   2.786   1.482   6.982 -0.0115  0.2245  0.0116
   45SOL     hw  178   2.838   1.412   7.022  0.4200  0.7188  0.3164
   45SOL     hw  179   2.841   1.560   6.987 -0.7447  0.7424  0.2785
   45SOL     vw  180   2.800   1.483   6.988 -0.0514  0.3580  0.0871
   46SOL     ow  181   5.094   3.101   4.165  0.6669 -0.1967 -0.1856
   46SOL     hw  182   5.186   3.111   4.143  1.0646  0.2330  1.5071
   46SOL     hw  183   5.047   3.120   4.084  1.9483  2.5915 -0.3787
   46SOL     vw  184   5.100   3.105   4.151  0.8886  0.2278  0.0122
   47SOL     ow  185   5.770   2.376   3.619  0.8614  0.1256 -0.6731
   47SOL     hw  186   5.758   2.438   3.548  0.9854  1.1266  0.1563
   47SOL     hw  187   5.683   2.366   3.658  0.7717 -0.5019 -1.0230
   47SOL     vw  188   5.757   2.383   3.615  0.8662  0.1749 -0.6099
   48SOL     ow  189   6.030   5.727   4.931 -0.0091 -0.6498  0.3444
   48SOL     hw  190   5.989   5.641   4.929 -0.6584 -0.3273 -0.8766
   48SOL     hw  191   6.099   5.724   4.865  0.3716 -0.4140  0.7186
   48SOL     vw  192   6.034   5.716   4.922 -0.0446 -0.5760  0.2327
   49SOL     ow  193   4.423   2.173   3.178  0.2616 -0.5736 -0.0337
   49SOL     hw  194   4.454   2.232   3.109  0.3833  0.8007  1.1660
   49SOL     hw  195   4.503   2.134   3.214  0.2952 -0.2921  0.1992
   49SOL     vw  196   4.438   2.175   3.174  0.2820 -0.3551  0.1552
   50SOL     ow  197   5.803   5.329   6.295 -0.1101 -0.4846 -0.3742
   50SOL     hw  198   5.852   5.411   6.303 -1.2638  0.1931 -0.0366
   50SOL     hw  199   5.762   5.334   6.209 -1.8548  0.2785  0.4532
   50SOL     vw  200   5.804   5.340   6.285 -0.4928 -0.2949 -0.2205
   51SOL     ow  201   6.620   3.764   5.757  0.1947 -0.3402  0.8221
   51SOL     hw  202   6.690   3.738   5.697 -0.2019 -0.6519  0.4828
   51SOL     hw  203   6.664   3.783   5.839  0.8569  1.0525  0.1667
   51SOL     vw  204   6.635   3.763   5.760  0.2296 -0.1976  0.6907
   52SOL     ow  205   1.945   3.690   1.037  0.3433  0.0391 -0.9569
   52SOL     hw  206   2.011   3.624   1.018  0.8017  0.8997 -2.4825
   52SOL     hw  207   1.863   3.651   1.005  0.4180 -0.2601 -0.7878
   52SOL     vw  208   1.943   3.676   1.030  0.4137  0.1131 -1.1358
   53SOL     ow  209   0.479   0.700   5.410 -0.3643 -0.0728  0.0918
   53SOL     hw  210   0.490   0.756   5.333 -0.5850  0.1892  0.2528
   53SOL     hw  211   0.535   0.739   5.476 -0.6655  0.0694  0.2644
   53SOL     vw  212   0.488   0.712   5.408 -0.4331 -0.0195  0.1361
   54SOL     ow  213   0.195   1.037   6.427 -0.5208 -0.0695 -0.8130
   54SOL     hw  214   0.227   1.126   6.439  0.0663 -0.4969  1.1266
   54SOL     hw  215   0.260   0.997   6.368  0.9293 -0.0582  0.7085
   54SOL     vw  216   0.208   1.043   6.421 -0.2520 -0.1244 -0.3562
   55SOL     ow  217   4.226   1.568   4.750 -0.4131  0.2470  0.4844
   55SOL     hw  218   4.256   1.553   4.840 -0.7210  0.6865  0.6676
   55SOL     hw  219   4.192   1.658   4.751 -1.2821 -0.0630  0.1705
   55SOL     vw  220   4.225   1.578   4.762 -0.5686  0.2641  0.4671
   56SOL     ow  221   4.626   4.848   0.422 -0.1391  0.5163 -0.3524
   56SOL     hw  222   4.601   4.841   0.329  2.7848 -0.3596 -1.1624
   56SOL     hw  223   4.639   4.942   0.436 -1.1685  0.7138 -0.6423
   56SOL     vw  224   4.624   4.860   0.412  0.1106  0.4268 -0.4975
   57SOL     ow  225   1.901   4.908   0.854 -0.0361  0.4682 -0.1682
   57SOL     hw  226   1.904   4.997   0.820  0.8628  0.3784 -0.3578
   57SOL     hw  227   1.977   4.902   0.912 -0.2030 -0.1118  0.0057
   57SOL     vw  228   1.912   4.919   0.857  0.0604  0.3796 -0.1703
   58SOL     ow  229   3.681   5.997   4.371 -0.0330 -0.2217 -0.3110
   58SOL     hw  230   3.663   6.015   4.463 -0.9577  1.0867 -0.7128
   58SOL     hw  231   3.757   6.051   4.350 -0.4132  0.2324 -0.5439
   58SOL     vw  232   3.689   6.006   4.380 -0.2050  0.0107 -0.3946
   59SOL     ow  233   3.277   6.879   0.879 -0.0971  0.3346 -0.2065
   59SOL     hw  234   3.210   6.872   0.947  0.5079  0.5935  0.4233
   59SOL     hw  235   3.289   6.789   0.848 -0.6682  0.2729 -0.2639
   59SOL     vw  236   3.269   6.866   0.884 -0.0926  0.3607 -0.1309
   60SOL     ow  237   1.636   3.055   3.963  0.2691  0.1105  0.0733
   60SOL     hw  238   1.731   3.044   3.963  0.0313 -2.4052  0.4199
   60SOL     hw  239   1.620   3.128   3.903  2.2124 -1.5005 -2.5604
   60SOL     vw  240   1.646   3.063   3.955  0.4941 -0.4340 -0.2286
   61SOL     ow  241   6.014   0.075   1.819  0.3663  0.4038 -0.2859
   61SOL     hw  242   6.078   0.017   1.861 -2.9353 -2.2158  1.6768
   61SOL     hw  243   6.031   0.161   1.858  1.5361 -0.5877  1.5483
   61SOL     vw  244   6.025   0.079   1.830  0.0849 -0.0726  0.2151
   62SOL     ow  245   0.769   5.105   4.497 -0.1117  0.1584 -0.0671
   62SOL     hw  246   0.823   5.137   4.425 -0.5565 -1.3125 -1.0865
   62SOL     hw  247   0.689   5.073   4.456 -2.1926  2.9044  1.4467
   62SOL     vw  248   0.765   5.105   4.482 -0.4449  0.3266 -0.0019
   63SOL     ow  249   1.937   2.722   4.983  0.3256 -0.1898  0.0816
   63SOL     hw  250   1.913   2.644   5.032 -0.3039 -0.5087 -0.7106
   63SOL     hw  251   1.987   2.775   5.045  0.1074 -0.8705  0.8571
   63SOL     vw  252   1.941   2.719   4.997  0.2137 -0.3217  0.0792
   64SOL     ow  253   2.503   4.537   2.169 -0.0828  0.3334  0.1498
   64SOL     hw  254   2.582   4.486   2.150  0.0570  0.4625  0.3696
   64SOL     hw  255   2.457   4.543   2.085  2.2317  3.8455 -1.0894
   64SOL     vw  256   2.507   4.531   2.155  0.2410  0.8140  0.0153
   65SOL     ow  257   0.301   6.710   4.682 -0.4634 -0.4232  0.1992
   65SOL     hw  258   0.243   6.720   4.757 -0.1968 -2.0028  0.6663
   65SOL     hw  259   0.386   6.689   4.720  0.1414  0.6673 -0.5044
   65SOL     vw  260   0.305   6.708   4.697 -0.3484 -0.4880  0.1678
   66SOL     ow  261   5.347   6.170   6.626  0.2497 -0.3542  0.3544
   66SOL     hw  262   5.424   6.113   6.630  0.5702  0.1473  1.9293
   66SOL     hw  263   5.307   6.149   6.542  0.9408 -2.1389  0.4216
   66SOL     vw  264   5.352   6.160   6.616  0.3829 -0.5236  0.5713
   67SOL     ow  265   1.085   3.112   5.822  0.4481  0.0904  0.0718
   67SOL     hw  266   1.154   3.178   5.822  1.6164 -1.0760  0.0406
   67SOL     hw  267   1.120   3.040   5.875 -0.2627 -0.9924 -0.8616
   67SOL     vw  268   1.098   3.111   5.829  0.5085 -0.2064 -0.0556
   68SOL     ow  269   1.286   4.812   3.112  0.3339 -0.4871 -0.1348
   68SOL     hw  270   1.278   4.787   3.205  0.9601 -2.1380 -0.4772
   68SOL     hw  271   1.199   4.841   3.088 -0.4023 -2.0277  0.4792
   68SOL     vw  272   1.274   4.812   3.121  0.3193 -0.9084 -0.0989
   69SOL     ow  273   2.106   2.871   6.780  0.4184 -0.3223 -0.4467
   69SOL     hw  274   2.106   2.876   6.876  0.3103  0.7442 -0.4888
   69SOL     hw  275   2.102   2.777   6.761  0.2093 -0.5407  0.5939
   69SOL     vw  276   2.105   2.859   6.790  0.3766 -0.2104 -0.3147
   70SOL     ow  277   5.864   5.120   6.543 -0.3441  0.0813  0.0370
   70SOL     hw  278   5.818   5.194   6.584  1.2215  1.5017 -0.6271
   70SOL     hw  279   5.951   5.121   6.583 -0.4781 -1.8327  0.4610
   70SOL     vw  280   5.870   5.130   6.553 -0.1552  0.0162  0.0057
   71SOL     ow  281   1.908   1.064   3.482 -0.0117 -0.3691  0.6615
   71SOL     hw  282   1.977   1.126   3.460  0.6312 -1.2304  0.1490
   71SOL     hw  283   1.942   0.979   3.454 -1.4080 -0.7837  0.0893
   71SOL     vw  284   1.921   1.061   3.475 -0.1112 -0.5375  0.5184
   72SOL     ow  285   0.317   6.725   2.653  0.7534 -0.1383 -0.0597
   72SOL     hw  286   0.341   6.686   2.737  0.4641 -0.7529 -0.2561
   72SOL     hw  287   0.394   6.774   2.626  0.2675  1.5358  1.3943
   72SOL     vw  288   0.330   6.726   2.661  0.6511  0.0012  0.1062
   73SOL     ow  289   6.784   5.733   0.742  0.5444 -0.1493  0.0349
   73SOL     hw  290   6.733   5.726   0.662  1.5602  1.6609 -0.8333
   73SOL     hw  291   6.874   5.717   0.714  0.8784  0.2050  0.8727
   73SOL     vw  292   6.789   5.730   0.728  0.7226  0.1364  0.0309
   74SOL     ow  293   1.538   1.256   3.116 -0.0141 -0.2651 -0.2788
   74SOL     hw  294   1.455   1.212   3.097 -0.6019  1.6622 -2.7392
   74SOL     hw  295   1.583   1.261   3.031  2.5663 -1.0339  0.9288
   74SOL     vw  296   1.533   1.251   3.102  0.2488 -0.1122 -0.4442
   75SOL     ow  297   1.849   2.221   2.080  0.2272  0.8131  0.3177
   75SOL     hw  298   1.892   2.252   2.160 -0.3662  0.5709  0.7334
   75SOL     hw  299   1.779   2.284   2.064 -0.7368 -0.0770  0.9479
   75SOL     vw  300   1.845   2.234   2.088  0.0217  0.6638  0.4557
   76SOL     ow  301   5.408   3.912   2.124 -0.2527 -0.0745  0.2677
   76SOL     hw  302   5.353   3.835   2.141  1.5413 -1.8647 -1.4460
   76SOL     hw  303   5.350   3.987   2.137 -1.6600 -1.5668  3.7588
   76SOL     vw  304   5.393   3.911   2.128 -0.2017 -0.5077  0.5022
   77SOL     ow  305   6.973   3.225   2.368  0.1606  0.3596 -1.0230
   77SOL     hw  306   6.956   3.249   2.277 -0.6383  2.9179 -0.2733
   77SOL     hw  307   7.066   3.242   2.381  0.4738 -0.8407 -1.5497
   77SOL     vw  308   6.983   3.230   2.358  0.0966  0.5387 -0.9936
   78SOL     ow  309   6.640   6.123   3.417 -0.7570 -0.3315  0.3426
   78SOL     hw  310   6.692   6.202   3.431 -2.2611  0.7655 -0.1139
   78SOL     hw  311   6.680   6.082   3.340 -0.9176  0.7982 -0.3578
   78SOL     vw  312   6.652   6.128   3.409 -0.9766 -0.0377  0.1900
   79SOL     ow  313   0.136   0.077   0.452 -0.2618 -0.6304  0.0729
   79SOL     hw  314   0.174   0.111   0.371  1.4109  1.6424  1.6865
   79SOL     hw  315   0.160  -0.015   0.453  2.1166 -0.0838 -0.7406
   79SOL     vw  316   0.144   0.070   0.441  0.2727 -0.2585  0.1784
   80SOL     ow  317   4.643   0.407   2.608 -0.0946 -0.0228 -0.0304
   80SOL     hw  318   4.685   0.463   2.674  0.4673  1.3588 -1.5050
   80SOL     hw  319   4.714   0.381   2.550 -0.8905  0.4605 -1.2511
   80SOL     vw  320   4.658   0.411   2.609 -0.1254  0.2232 -0.3861
   81SOL     ow  321   6.951   1.040   1.264 -0.7283 -0.3149 -0.4155
   81SOL     hw  322   6.966   1.030   1.170 -2.8185  2.5991 -1.1821
   81SOL     hw  323   6.973   1.131   1.282 -0.8836 -0.6714  1.8590
   81SOL     vw  324   6.956   1.050   1.254 -1.0245  0.0225 -0.2166
   82SOL     ow  325   2.378   1.280   4.102 -0.3779 -0.1030 -0.0566
   82SOL     hw  326   2.325   1.244   4.031 -0.8414 -0.7329  0.6032
   82SOL     hw  327   2.333   1.360   4.128 -0.5111 -0.1607 -0.1094
   82SOL     vw  328   2.365   1.286   4.096 -0.4566 -0.1937  0.0234
   83SOL     ow  329   5.429   1.133   3.568 -0.1808  0.3104 -0.0916
   83SOL     hw  330   5.371   1.092   3.632  1.6929 -0.3421  1.2965
   83SOL     hw  331   5.453   1.216   3.607  1.0964 -0.1561  0.1593
   83SOL     vw  332   5.425   1.138   3.581  0.2348  0.1627  0.1248
   84SOL     ow  333   2.553   4.973   3.435  0.7880  0.3476  0.7773
   84SOL     hw  334   2.475   4.934   3.475  0.4230  0.8849  0.6000
   84SOL     hw  335   2.518   5.040   3.376  1.4146  1.1762  1.3377
   84SOL     vw  336   2.538   4.976   3.433  0.8225  0.5276  0.8279
   85SOL     ow  337   4.919   6.025   2.938 -0.6784 -0.0908 -0.5739
   85SOL     hw  338   4.869   5.946   2.919 -0.6058 -0.0312 -1.0200
   85SOL     hw  339   4.897   6.046   3.029 -2.4759  0.6649 -1.1383
   85SOL     vw  340   4.910   6.017   2.948 -0.9058  0.0169 -0.7073
   86SOL     ow  341   2.320   6.914   6.393  0.2915  0.0913  0.6961
   86SOL     hw  342   2.293   6.870   6.312  0.7148  2.2682 -0.7295
   86SOL     hw  343   2.239   6.949   6.430  0.4335  2.0495 -0.7080
   86SOL     vw  344   2.306   6.913   6.387  0.3661  0.6371  0.3228
   87SOL     ow  345   6.345   3.274   0.541  0.0523 -0.2563 -0.1264
   87SOL     hw  346   6.299   3.205   0.492 -1.3031  0.7003 -0.2769
   87SOL     hw  347   6.390   3.325   0.474 -0.2543 -0.0688 -0.1947
   87SOL     vw  348   6.345   3.272   0.526 -0.1671 -0.1053 -0.1553
   88SOL     ow  349   3.395   5.381   0.253 -0.0697  0.7490  0.5130
   88SOL     hw  350   3.464   5.315   0.262 -1.0376 -0.5023 -0.8121
   88SOL     hw  351   3.442   5.462   0.236  1.1504  0.4253  2.0911
   88SOL     vw  352   3.410   5.383   0.252 -0.0365  0.5412  0.5464
   89SOL     ow  353   2.204   4.586   2.233  0.4427  0.0808 -0.4161
   89SOL     hw  354   2.143   4.614   2.165 -1.6361 -1.1309  0.8334
   89SOL     hw  355   2.182   4.493   2.248 -0.6834  0.7546  3.2556
   89SOL     vw  356   2.193   4.577   2.226  0.0199  0.0098  0.2331
   90SOL     ow  357   1.072   6.290   5.612 -0.1022 -0.7357 -0.4782
   90SOL     hw  358   1.058   6.217   5.672  0.8105  0.3713  1.1849
   90SOL     hw  359   1.144   6.262   5.555  0.9466 -0.7863  0.8288
   90SOL     vw  360   1.080   6.277   5.612  0.1566 -0.5965 -0.0861
   91SOL     ow  361   4.107   3.470   0.835 -0.0127 -0.5619  0.0906
   91SOL     hw  362   4.133   3.446   0.746  0.5198 -1.7019  0.5379
   91SOL     hw  363   4.029   3.417   0.852 -1.7355  1.6037 -0.6273
   91SOL     vw  364   4.101   3.460   0.825 -0.1700 -0.4265  0.0548
   92SOL     ow  365   0.828   5.773   4.838 -0.3053  0.2494  0.0362
   92SOL     hw  366   0.866   5.686   4.854 -1.4323 -0.0954  1.0337
   92SOL     hw  367   0.762   5.758   4.770 -2.3824 -0.2650  2.0552
   92SOL     vw  368   0.824   5.759   4.831 -0.7280  0.1361  0.4339
   93SOL     ow  369   2.100   4.992   4.944 -0.3311  0.1315 -0.3792
   93SOL     hw  370   2.159   5.050   4.991 -0.5364  2.2481 -2.5488
   93SOL     hw  371   2.131   4.995   4.853 -1.8756 -1.2144 -0.9988
   93SOL     vw  372   2.112   5.000   4.938 -0.5618  0.2334 -0.7472
   94SOL     ow  373   3.519   6.721   6.680 -0.2631 -0.0401  0.5547
   94SOL     hw  374   3.613   6.734   6.669 -0.0551 -1.1464  0.9565
   94SOL     hw  375   3.486   6.702   6.592 -0.2816  1.2812  0.2548
   94SOL     vw  376   3.527   6.720   6.667 -0.2379 -0.0119  0.5679
   95SOL     ow  377   6.472   4.170   6.096 -0.3237  0.2151 -0.1481
   95SOL     hw  378   6.536   4.118   6.145  0.2416  0.5891 -0.4858
   95SOL     hw  379   6.403   4.107   6.073 -0.2042 -0.1376  0.4257
   95SOL     vw  380   6.471   4.155   6.100 -0.2332  0.2182 -0.1168
   96SOL     ow  381   3.205   5.440   5.799 -0.1557  0.5630 -0.0807
   96SOL     hw  382   3.144   5.380   5.842  1.3258  0.1292  1.5811
   96SOL     hw  383   3.186   5.526   5.838 -0.9050  0.7913 -0.9291
   96SOL     vw  384   3.195   5.443   5.810 -0.0592  0.5360  0.0269
   97SOL     ow  385   3.370   4.534   6.851 -0.2009 -0.5137 -0.7400
   97SOL     hw  386   3.284   4.493   6.860 -0.4819 -0.5813 -3.0943
   97SOL     hw  387   3.393   4.522   6.759  0.5853  2.8241 -1.1334
   97SOL     vw  388   3.362   4.527   6.841 -0.1342 -0.0820 -1.1024
   98SOL     ow  389   2.087   4.431   5.028  0.2021  0.7040  0.4660
   98SOL     hw  390   2.115   4.369   4.960 -3.7829  0.8521 -1.5924
   98SOL     hw  391   2.145   4.413   5.102  2.0098 -2.4733 -1.4982
   98SOL     vw  392   2.098   4.420   5.029 -0.0852  0.3045 -0.0648
   99SOL     ow  393   5.783   3.036   6.087 -0.5846 -0.2599 -0.7180
   99SOL     hw  394   5.705   3.022   6.034 -1.0018 -3.3341  0.5427
   99SOL     hw  395   5.751   3.073   6.169 -0.5883 -0.5788 -0.5762
   99SOL     vw  396   5.769   3.039   6.091 -0.6402 -0.7076 -0.5329
  100SOL     ow  397   3.020   2.016   0.537  0.8915 -0.1337  0.1908
  100SOL     hw  398   3.024   1.962   0.458  1.8268 -0.9914  0.8016
  100SOL     hw  399   3.111   2.022   0.567  0.7662  1.5250  0.3283
  100SOL     vw  400   3.033   2.010   0.530  0.9984 -0.0280  0.2895
  101SOL     ow  401   2.102   0.086   4.422 -0.0671 -0.2438  0.2386
  101SOL     hw  402   2.117   0.059   4.331 -0.8625 -0.4100  0.1561
  101SOL     hw  403   2.020   0.134   4.420 -1.1425 -1.9437  1.1904
  101SOL     vw  404   2.093   0.089   4.410 -0.3139 -0.4900  0.3533
  102SOL     ow  405   6.449   6.144   0.494 -0.0422  0.2353  0.1813
  102SOL     hw  406   6.402   6.101   0.566 -1.4304  1.1731 -0.1207
  102SOL     hw  407   6.464   6.233   0.525  0.5662  0.2545 -0.1617
  102SOL     vw  408   6.445   6.150   0.508 -0.1447  0.3619  0.0962
  103SOL     ow  409   5.852   1.066   2.540  0.3566 -0.5694  0.2632
  103SOL     hw  410   5.792   1.067   2.615 -0.3665  0.9006 -0.3085
  103SOL     hw  411   5.924   1.009   2.568  0.4671  0.5144  2.3630
  103SOL     vw  412   5.854   1.058   2.553  0.2759 -0.2325  0.4648
  104SOL     ow  413   4.646   0.795   2.388 -0.9474 -0.3227  0.2909
  104SOL     hw  414   4.604   0.722   2.342 -1.4896 -1.7580  2.8598
  104SOL     hw  415   4.709   0.753   2.447  2.1587  1.6178 -1.3955
  104SOL     vw  416   4.648   0.780   2.390 -0.6092 -0.2560  0.4073
  105SOL     ow  417   0.770   0.723   5.117 -0.4896 -0.2998 -0.2146
  105SOL     hw  418   0.702   0.784   5.087  0.0370  0.0198 -0.7808
  105SOL     hw  419   0.844   0.778   5.140 -0.2336 -0.6839 -0.1061
  105SOL     vw  420   0.771   0.738   5.116 -0.3863 -0.3084 -0.2751
  106SOL     ow  421   2.843   2.026   1.481 -0.5848 -0.4412  0.0430
  106SOL     hw  422   2.931   1.988   1.485  0.3145  1.3856 -0.8016
  106SOL     hw  423   2.825   2.054   1.571  1.0159  1.7732 -0.2239
  106SOL     vw  424   2.852   2.025   1.493 -0.2550  0.0919 -0.1037
  107SOL     ow  425   6.335   3.743   5.722  0.2588  0.2845  0.2993
  107SOL     hw  426   6.326   3.652   5.751 -1.4030  0.8713  1.8071
  107SOL     hw  427   6.430   3.756   5.715  0.5191 -1.6499 -0.2967
  107SOL     vw  428   6.346   3.733   5.725  0.0737  0.1067  0.4194
  108SOL     ow  429   4.447   5.663   4.883 -0.3175  0.6940  0.0658
  108SOL     hw  430   4.376   5.706   4.835 -0.1883 -0.2807 -1.0463
  108SOL     hw  431   4.456   5.578   4.840  1.4598  0.7656  0.2513
  108SOL     vw  432   4.439   5.658   4.871 -0.0660  0.5751 -0.0565
  109SOL     ow  433   3.424   1.127   1.739  0.4873 -0.7233 -0.6551
  109SOL     hw  434   3.383   1.055   1.692  0.4930 -0.1165 -1.6219
  109SOL     hw  435   3.412   1.106   1.831  1.1406 -2.3367 -0.9042
  109SOL     vw  436   3.417   1.115   1.745  0.5742 -0.8561 -0.8156
  110SOL     ow  437   0.597   0.145   2.209  0.3312 -0.8381 -0.0232
  110SOL     hw  438   0.638   0.231   2.196  1.6708 -1.1301  1.8342
  110SOL     hw  439   0.648   0.086   2.153  2.1175 -1.0722  1.7350
  110SOL     vw  440   0.609   0.149   2.200  0.7436 -0.9075  0.4538
  111SOL     ow  441   4.473   0.707   0.621 -0.0460  0.2721  0.0963
  111SOL     hw  442   4.410   0.637   0.636 -1.5659  1.2405 -1.3615
  111SOL     hw  443   4.549   0.684   0.675 -1.0014 -1.7810  0.6454
  111SOL     vw  444   4.475   0.695   0.630 -0.3729  0.1290 -0.0236
  112SOL     ow  445   2.523   2.792   4.570  0.7889  0.6593  0.1104
  112SOL     hw  446   2.607   2.827   4.599  0.9309  0.9867 -0.6742
  112SOL     hw  447   2.539   2.762   4.481  0.0700  0.7252 -0.0448
  112SOL     vw  448   2.536   2.793   4.562  0.7128  0.7112 -0.0134
  113SOL     ow  449   6.267   0.362   2.975  0.0964 -0.3036  0.3932
  113SOL     hw  450   6.238   0.342   2.886  1.1982 -1.3400  0.2468
  113SOL     hw  451   6.194   0.333   3.030  0.3912 -1.9362 -0.0314
  113SOL     vw  452   6.253   0.356   2.971  0.2806 -0.6558  0.3179
  114SOL     ow  453   6.021   2.121   3.298 -0.2007  0.4796 -0.1596
  114SOL     hw  454   6.115   2.122   3.280 -0.1983 -0.4376 -0.2212
  114SOL     hw  455   5.991   2.036   3.266 -1.1862  1.0474 -0.8125
  114SOL     vw  456   6.029   2.110   3.291 -0.3304  0.4334 -0.2538
  115SOL     ow  457   3.390   3.688   5.385  0.3961  0.0299  0.4592
  115SOL     hw  458   3.417   3.674   5.294 -0.3252  0.5923  0.1514
  115SOL     hw  459   3.315   3.747   5.379  1.0213  0.9666  1.4927
  115SOL     vw  460   3.383   3.694   5.372  0.3834  0.2276  0.5550
  116SOL     ow  461   0.583   5.356   2.310 -0.2271 -1.0633  0.7973
  116SOL     hw  462   0.627   5.304   2.242 -0.1371 -1.7419  1.3677
  116SOL     hw  463   0.610   5.446   2.292  0.2539 -1.3037  0.2773
  116SOL     vw  464   0.593   5.361   2.299 -0.1518 -1.1845  0.8038
  117SOL     ow  465   0.087   1.452   6.925 -0.2346  0.4500 -0.3472
  117SOL     hw  466   0.162   1.507   6.907  1.5731 -1.7038  0.1571
  117SOL     hw  467   0.014   1.494   6.878  0.6401  3.9639  1.1780
  117SOL     vw  468   0.087   1.465   6.916  0.1193  0.6294 -0.0794
  118SOL     ow  469   5.583   2.890   2.428 -0.1778 -0.6362 -0.0600
  118SOL     hw  470   5.556   2.813   2.479 -0.1099 -2.1134 -2.1020
  118SOL     hw  471   5.637   2.941   2.488  1.0098 -2.9443  0.9950
  118SOL     vw  472   5.587   2.886   2.442 -0.0124 -1.1356 -0.1903
  119SOL     ow  473   2.933   1.660   4.933  0.4019 -0.0373 -0.2499
  119SOL     hw  474   2.852   1.610   4.924  0.8935 -0.6564 -1.5206
  119SOL     hw  475   2.994   1.599   4.975  0.7259 -0.2122 -0.9516
  119SOL     vw  476   2.931   1.645   4.937  0.5094 -0.1420 -0.5100
  120SOL     ow  477   0.836   6.783   6.487 -0.1764  0.2420 -0.3604
  120SOL     hw  478   0.857   6.823   6.403  0.0815 -0.0887 -0.4567
  120SOL     hw  479   0.784   6.706   6.464 -1.7278  1.1671 -0.1160
  120SOL     vw  480   0.832   6.778   6.473 -0.3471  0.3207 -0.3409
  121SOL     ow  481   4.402   5.209   2.943  0.6955 -0.4241 -0.1242
  121SOL     hw  482   4.314   5.176   2.929 -0.2910  1.4853  1.1407
  121SOL     hw  483   4.453   5.132   2.970 -0.4025 -1.6543 -1.4094
  121SOL     vw  484   4.397   5.194   2.945  0.4206 -0.3345 -0.1267
  122SOL     ow  485   4.025   5.666   2.195 -0.2832 -0.2769  0.2022
  122SOL     hw  486   4.067   5.673   2.281 -1.1881  1.7775  0.5192
  122SOL     hw  487   3.931   5.663   2.214 -0.5122  0.5935 -0.7054
  122SOL     vw  488   4.018   5.666   2.209 -0.4325  0.1090  0.1243
  123SOL     ow  489   3.703   1.572   2.761  0.0314 -0.0569 -0.0310
  123SOL     hw  490   3.729   1.533   2.845  1.9065  2.0535  0.4749
  123SOL     hw  491   3.709   1.499   2.699 -1.3925 -1.6755  1.6089
  123SOL     vw  492   3.708   1.557   2.764  0.0908  0.0080  0.2521
  124SOL     ow  493   3.902   5.970   3.372 -0.1876  0.2270  0.5008
  124SOL     hw  494   3.920   5.917   3.295  0.6904  0.6794  0.3818
  124SOL     hw  495   3.808   5.987   3.369 -0.3001 -0.4835  0.0047
  124SOL     vw  496   3.892   5.966   3.362 -0.0865  0.1934  0.4197
  125SOL     ow  497   1.548   6.487   3.496 -0.0291 -0.1576  0.1985
  125SOL     hw  498   1.627   6.476   3.443 -0.5940  0.0196 -0.7010
  125SOL     hw  499   1.580   6.513   3.582  0.8386  1.7887 -0.6453
  125SOL     vw  500   1.563   6.489   3.500  0.0108  0.1225 -0.0316
  126SOL     ow  501   3.458   0.014   0.992  0.0364 -0.1913  0.7090
  126SOL     hw  502   3.520   0.040   1.059  0.0345  0.2301  0.5487
  126SOL     hw  503   3.381   0.070   1.007 -0.2435 -0.5937  0.8055
  126SOL     vw  504   3.456   0.025   1.003 -0.0007 -0.1888  0.7005
  127SOL     ow  505   0.707   0.379   1.129  0.4593  0.0466 -0.0500
  127SOL     hw  506   0.751   0.330   1.059  0.3126 -0.6536  0.3424
  127SOL     hw  507   0.614   0.369   1.111  0.4277  0.2168  0.0134
  127SOL     vw  508   0.701   0.372   1.117  0.4357 -0.0233  0.0101
  128SOL     ow  509   5.392   1.658   3.428  0.4647  0.1009  0.0530
  128SOL     hw  510   5.443   1.719   3.375  3.1413 -2.0342 -0.0256
  128SOL     hw  511   5.304   1.695   3.429  1.7764  3.5658 -0.5064
  128SOL     vw  512   5.387   1.671   3.421  0.9911  0.2764 -0.0311
  129SOL     ow  513   2.136   0.861   0.345  0.6846  0.2274 -0.2034
  129SOL     hw  514   2.063   0.915   0.374  0.9062  0.8556 -0.8123
  129SOL     hw  515   2.096   0.777   0.321  0.0693  0.7981 -1.1992
  129SOL     vw  516   2.121   0.857   0.346  0.6326  0.3856 -0.4151
  130SOL     ow  517   3.793   5.337   3.509  0.0133 -0.0009  0.6271
  130SOL     hw  518   3.804   5.425   3.547 -0.2669  0.5218 -0.4702
  130SOL     hw  519   3.883   5.309   3.488 -0.0265  0.9869 -1.0817
  130SOL     vw  520   3.807   5.345   3.511 -0.0290  0.1984  0.2569
  131SOL     ow  521   6.053   5.895   1.190  0.0454 -0.1247  0.0982
  131SOL     hw  522   6.093   5.860   1.111  1.2483  0.0951  0.5829
  131SOL     hw  523   5.996   5.966   1.160 -0.2527 -0.6644 -0.6397
  131SOL     vw  524   6.051   5.899   1.176  0.1647 -0.1667  0.0648
  132SOL     ow  525   5.434   2.354   3.997 -0.8445  1.0062 -0.5725
  132SOL     hw  526   5.486   2.322   3.922  1.0200  0.0293  1.0455
  132SOL     hw  527   5.424   2.448   3.981  0.6349  1.0478 -1.4301
  132SOL     vw  528   5.440   2.362   3.985 -0.4036  0.8829 -0.4722
  133SOL     ow  529   2.360   3.167   1.948  0.1071  0.4518  0.1308
  133SOL     hw  530   2.333   3.216   2.026 -0.3765  0.6146 -0.1280
  133SOL     hw  531   2.440   3.123   1.973  0.0693  0.6737  0.6547
  133SOL     vw  532   2.367   3.168   1.962  0.0381  0.5026  0.1659
  134SOL     ow  533   6.037   3.709   6.721 -0.0335 -0.4462  0.3251
  134SOL     hw  534   6.035   3.614   6.706 -0.1852 -0.3303 -0.4119
  134SOL     hw  535   6.005   3.719   6.811 -0.0767 -1.0856  0.3920
  134SOL     vw  536   6.033   3.698   6.731 -0.0594 -0.5152  0.2367
  135SOL     ow  537   4.652   3.985   0.104  0.3308 -0.1941  0.3416
  135SOL     hw  538   4.734   4.034   0.110  0.2809  0.1604 -1.3497
  135SOL     hw  539   4.604   4.010   0.183  1.5228  0.1792  0.9833
  135SOL     vw  540   4.657   3.995   0.115  0.4816 -0.0981  0.2032
  136SOL     ow  541   5.917   6.386   0.207 -0.4164  0.3752 -0.2164
  136SOL     hw  542   6.007   6.409   0.227 -0.5439  0.4362  0.3020
  136SOL     hw  543   5.873   6.471   0.196 -0.6372  0.3656  0.5670
  136SOL     vw  544   5.923   6.400   0.208 -0.4625  0.3819 -0.0446
  137SOL     ow  545   1.602   2.774   5.024 -0.3586 -0.7227 -0.2619
  137SOL     hw  546   1.532   2.835   5.047 -0.8401 -1.0198 -0.8976
  137SOL     hw  547   1.599   2.707   5.092  0.4312  0.1524  0.6640
  137SOL     vw  548   1.592   2.773   5.036 -0.3179 -0.6464 -0.2239
  138SOL     ow  549   2.525   0.870   2.090 -0.2707  0.5107  0.1899
  138SOL     hw  550   2.561   0.959   2.085 -0.1102  0.6397  2.6232
  138SOL     hw  551   2.448   0.879   2.147 -2.9137 -0.1855 -2.9628
  138SOL     vw  552   2.519   0.883   2.097 -0.5982  0.4359  0.0950
  139SOL     ow  553   4.962   4.958   5.099 -0.3453  0.2674 -0.9184
  139SOL     hw  554   4.982   5.040   5.144  0.5070 -1.2905  1.7365
  139SOL     hw  555   4.886   4.923   5.145  0.0892 -1.0333 -1.1399
  139SOL     vw  556   4.955   4.964   5.111 -0.1757 -0.1099 -0.5972
  140SOL     ow  557   3.535   4.953   4.469  0.1511 -0.2387 -0.5522
  140SOL     hw  558   3.507   4.862   4.474  0.3843 -0.4824 -2.7613
  140SOL     hw  559   3.618   4.955   4.517  0.4455 -1.3305 -0.9798
  140SOL     vw  560   3.542   4.941   4.476  0.2208 -0.4148 -0.9003
  141SOL     ow  561   0.289   6.101   1.826 -0.0668  0.2261 -0.5142
  141SOL     hw  562   0.297   6.195   1.839 -0.7001  0.3369 -0.9078
  141SOL     hw  563   0.237   6.071   1.900  2.3253 -0.2447  1.1091
  141SOL     vw  564   0.284   6.109   1.837  0.1653  0.1783 -0.3520
  142SOL     ow  565   1.187   2.552   1.058 -0.1483 -0.3200 -0.1957
  142SOL     hw  566   1.109   2.560   1.112 -0.4987  2.7596 -1.0095
  142SOL     hw  567   1.155   2.553   0.968  0.4113 -5.4153 -0.7858
  142SOL     vw  568   1.173   2.553   1.053 -0.1208 -0.5859 -0.3810
  143SOL     ow  569   0.871   4.460   5.484  0.1699  0.0825  0.6835
  143SOL     hw  570   0.812   4.535   5.478 -0.1584  0.2339  4.1503
  143SOL     hw  571   0.834   4.397   5.421 -1.3650  1.6184 -0.0602
  143SOL     vw  572   0.858   4.462   5.475 -0.0759  0.3052  1.0426
  144SOL     ow  573   3.205   2.648   2.788 -0.3834  0.0949 -1.0265
  144SOL     hw  574   3.196   2.612   2.876  0.1195  0.8729 -0.6503
  144SOL     hw  575   3.249   2.732   2.800 -2.2558  1.2425 -1.8021
  144SOL     vw  576   3.210   2.654   2.801 -0.5642  0.3489 -1.0792
  145SOL     ow  577   5.385   3.439   2.147 -0.2988  0.1223  0.5069
  145SOL     hw  578   5.343   3.392   2.075 -0.1097  0.7186 -0.0097
  145SOL     hw  579   5.334   3.520   2.157 -0.0205  0.2793  0.6975
  145SOL     vw  580   5.373   3.444   2.139 -0.2372  0.2216  0.4638
  146SOL     ow  581   6.363   3.089   3.619 -0.2000  0.0711 -0.9024
  146SOL     hw  582   6.273   3.088   3.589 -0.2060  2.3422 -1.1484
  146SOL     hw  583   6.409   3.145   3.556  0.7293  1.2793  0.7485
  146SOL     vw  584   6.357   3.097   3.607 -0.0784  0.5301 -0.7170
  147SOL     ow  585   4.454   4.333   6.378  0.4582 -0.7765 -0.4478
  147SOL     hw  586   4.533   4.277   6.376  0.1552 -1.1984 -0.8766
  147SOL     hw  587   4.387   4.277   6.417  0.1522 -0.7177 -0.8838
  147SOL     vw  588   4.456   4.318   6.383  0.3779 -0.8242 -0.5622
  148SOL     ow  589   3.936   2.006   6.236 -0.1917 -0.3314  0.9829
  148SOL     hw  590   3.948   1.931   6.178  0.3813  1.7750 -1.8229
  148SOL     hw  591   3.933   2.082   6.178  1.2241  2.0681  3.7557
  148SOL     vw  592   3.937   2.006   6.221  0.0707  0.2631  0.9782
  149SOL     ow  593   0.281   6.600   5.797 -0.3253  1.0354  0.7814
  149SOL     hw  594   0.322   6.516   5.820 -1.2676  0.4227  0.3238
  149SOL     hw  595   0.212   6.612   5.862 -2.2150 -0.1165 -0.8947
  149SOL     vw  596   0.277   6.590   5.808 -0.6990  0.8025  0.5000
  150SOL     ow  597   4.080   3.086   3.162 -0.3938 -0.9885  0.0696
  150SOL     hw  598   4.148   3.129   3.111  1.8967 -1.0435  2.8518
  150SOL     hw  599   4.012   3.153   3.172  0.3361 -0.0920 -0.7385
  150SOL     vw  600   4.080   3.101   3.156  0.0048 -0.8775  0.3300
  151SOL     ow  601   1.678   2.335   5.703 -0.3660 -0.0694 -0.5379
  151SOL     hw  602   1.629   2.252   5.710 -0.3264 -0.0149  0.6871
  151SOL     hw  603   1.649   2.373   5.620 -1.6665 -0.5177 -0.3241
  151SOL     vw  604   1.668   2.329   5.693 -0.5323 -0.1214 -0.3481
  152SOL     ow  605   4.987   4.088   3.333 -0.9224  0.6068 -0.6471
  152SOL     hw  606   5.053   4.023   3.355 -1.7357  1.0255  3.9391
  152SOL     hw  607   5.037   4.166   3.309  0.2606  0.3918  0.9739
  152SOL     vw  608   5.002   4.090   3.333 -0.8733  0.6337  0.1718
  153SOL     ow  609   1.145   3.837   3.051 -0.0628 -0.6592 -0.2424
  153SOL     hw  610   1.170   3.869   3.137  2.2353  0.5132 -1.2572
  153SOL     hw  611   1.089   3.905   3.015  0.7177 -0.1146 -0.4572
  153SOL     vw  612   1.141   3.850   3.057  0.3434 -0.4326 -0.4046
  154SOL     ow  613   1.941   6.632   2.213  0.8751 -0.5469  0.2603
  154SOL     hw  614   1.992   6.713   2.215  0.0576 -0.0015 -0.4229
  154SOL     hw  615   1.895   6.630   2.298  1.6790 -0.8241  0.6970
  154SOL     vw  616   1.941   6.642   2.224  0.8734 -0.5116  0.2277
  155SOL     ow  617   3.756   0.870   6.922 -0.2404 -0.1234 -0.0498
  155SOL     hw  618   3.666   0.864   6.890 -0.9707  0.2295  1.8168
  155SOL     hw  619   3.786   0.779   6.924 -0.6326 -0.2671 -0.4620
  155SOL     vw  620   3.748   0.857   6.918 -0.3884 -0.0959  0.1421
  156SOL     ow  621   1.983   0.224   5.821 -0.4728  0.1323  0.2113
  156SOL     hw  622   1.964   0.264   5.736 -0.9992  0.4965  0.4971
  156SOL     hw  623   2.078   0.213   5.821 -0.3376  1.1872  0.0400
  156SOL     vw  624   1.993   0.228   5.809 -0.5244  0.3195  0.2265
  157SOL     ow  625   1.698   4.884   4.462  0.3875  0.2485  0.1927
  157SOL     hw  626   1.679   4.865   4.371 -0.3506 -0.3544  0.4623
  157SOL     hw  627   1.793   4.890   4.466  0.8649 -3.9643  0.1189
  157SOL     vw  628   1.708   4.882   4.451  0.3531 -0.3870  0.2184
  158SOL     ow  629   5.905   5.690   1.326  0.2168  0.1758 -0.1320
  158SOL     hw  630   5.904   5.641   1.244 -0.2534  0.8165 -0.5206
  158SOL     hw  631   5.813   5.710   1.343  0.3947  0.8463  0.0571
  158SOL     vw  632   5.893   5.686   1.317  0.1783  0.3486 -0.1584
  159SOL     ow  633   0.811   3.654   2.375  0.0247 -0.2070  0.7830
  159SOL     hw  634   0.798   3.746   2.395  0.1824 -0.0778  0.2983
  159SOL     hw  635   0.759   3.607   2.441 -2.2740  0.2478 -0.6063
  159SOL     vw  636   0.803   3.660   2.386 -0.2578 -0.1301  0.5357
  160SOL     ow  637   2.286   5.861   0.240  0.6201 -0.1604  0.0889
  160SOL     hw  638   2.252   5.950   0.252 -0.3854 -0.7316  1.8107
  160SOL     hw  639   2.229   5.823   0.173 -0.0408 -0.0461  0.5763
  160SOL     vw  640   2.274   5.868   0.233  0.4001 -0.2205  0.3804
  161SOL     ow  641   3.467   4.336   0.045 -0.2913 -0.4957  0.0554
  161SOL     hw  642   3.440   4.244   0.049 -0.4630 -0.4137  1.4136
  161SOL     hw  643   3.515   4.350   0.126  0.6343  0.3548 -0.6186
  161SOL     vw  644   3.470   4.326   0.056 -0.1918 -0.3729  0.1456
  162SOL     ow  645   2.659   2.254   1.350 -0.3256 -0.5747  0.0255
  162SOL     hw  646   2.621   2.278   1.435  1.6978  2.1500  0.2943
  162SOL     hw  647   2.600   2.295   1.287  0.2051  0.6972  0.3137
  162SOL     vw  648   2.646   2.263   1.353  0.0116 -0.0474  0.0989
  163SOL     ow  649   1.038   1.668   2.174 -0.6239 -0.4808 -0.0301
  163SOL     hw  650   1.104   1.606   2.205 -0.2071  1.2720  2.9503
  163SOL     hw  651   1.041   1.740   2.237 -4.7104  0.1751 -0.3177
  163SOL     vw  652   1.047   1.670   2.186 -1.1081 -0.1630  0.3253
  164SOL     ow  653   2.689   0.930   3.689 -0.1114 -0.4616 -0.6128
  164SOL     hw  654   2.765   0.973   3.727  0.2200 -0.9693 -0.6861
  164SOL     hw  655   2.649   0.997   3.633 -0.7514  0.3695  0.7930
  164SOL     vw  656   2.694   0.944   3.686 -0.1521 -0.4190 -0.4369
  165SOL     ow  657   2.286   0.064   0.243 -0.7008 -0.2611  0.2353
  165SOL     hw  658   2.312   0.122   0.170  1.0448  0.5374  1.4135
  165SOL     hw  659   2.191   0.074   0.248 -1.2125 -1.8443 -3.1291
  165SOL     vw  660   2.277   0.073   0.234 -0.5381 -0.3647 -0.0531
  166SOL     ow  661   2.197   0.298   4.571 -0.1096  0.2036  0.3562
  166SOL     hw  662   2.161   0.267   4.488 -0.2197 -0.1205  0.5272
  166SOL     hw  663   2.291   0.309   4.554 -0.3666  1.6746 -0.2874
  166SOL     vw  664   2.205   0.296   4.558 -0.1581  0.3549  0.2937
  167SOL     ow  665   7.054   5.904   4.856 -0.5512 -0.8462  0.4014
  167SOL     hw  666   7.036   5.906   4.762 -2.5351 -3.6400  0.5950
  167SOL     hw  667   7.113   5.977   4.871  0.6105 -0.8726 -3.1740
  167SOL     vw  668   7.059   5.914   4.845 -0.6595 -1.2183 -0.0448
  168SOL     ow  669   5.802   0.009   2.025  0.7692  0.7082 -0.0986
  168SOL     hw  670   5.831  -0.016   2.113 -0.9569 -1.0490  0.0448
  168SOL     hw  671   5.724   0.062   2.040  0.5049  0.4572 -0.5442
  168SOL     vw  672   5.795   0.012   2.038  0.5066  0.4435 -0.1385
  169SOL     ow  673   3.985   3.309   2.069  1.0878  0.3029  0.0430
  169SOL     hw  674   3.963   3.378   2.007  2.3469  2.2467  1.6574
  169SOL     hw  675   3.900   3.271   2.093  0.5134  0.1383 -2.0942
  169SOL     vw  676   3.971   3.313   2.064  1.1781  0.5378 -0.0259
  170SOL     ow  677   4.112   6.999   5.603 -0.4341 -0.1523  0.4174
  170SOL     hw  678   4.035   7.046   5.569  0.6007  0.7737 -0.7284
  170SOL     hw  679   4.078   6.912   5.625 -1.2605 -0.8757 -3.0380
  170SOL     vw  680   4.097   6.994   5.601 -0.4067 -0.1254 -0.1895
  171SOL     ow  681   4.788   2.041   0.060  0.3391 -0.7828 -0.0864
  171SOL     hw  682   4.873   2.055   0.017 -0.0647  0.6960 -0.4464
  171SOL     hw  683   4.731   2.010  -0.010  0.1853 -0.2732 -0.1875
  171SOL     vw  684   4.792   2.039   0.045  0.2656 -0.5203 -0.1472
  172SOL     ow  685   3.325   3.245   4.404  0.5881 -0.5728  0.5522
  172SOL     hw  686   3.247   3.230   4.350 -1.6185 -2.1050  3.8103
  172SOL     hw  687   3.354   3.333   4.380 -1.1114 -0.5710 -1.9546
  172SOL     vw  688   3.318   3.254   4.393  0.0728 -0.7746  0.6514
  173SOL     ow  689   6.902   2.098   4.019  0.1877 -0.2953 -0.4228
  173SOL     hw  690   6.944   2.183   4.007  1.4638 -1.0349 -1.4163
  173SOL     hw  691   6.969   2.034   3.996  0.3168 -1.7390  3.1935
  173SOL     vw  692   6.916   2.101   4.015  0.3729 -0.5834 -0.0768
  174SOL     ow  693   1.309   3.240   7.065  0.1658  0.3805  0.0125
  174SOL     hw  694   1.297   3.171   7.130  0.2249 -1.0857 -1.4387
  174SOL     hw  695   1.223   3.252   7.026  0.4069  0.2206 -0.5831
  174SOL     vw  696   1.296   3.232   7.068  0.2054  0.1658 -0.2575
  175SOL     ow  697   3.054   1.477   5.073 -0.1508  0.1503  0.2522
  175SOL     hw  698   3.088   1.416   5.008 -2.2871 -1.4969  0.5685
  175SOL     hw  699   3.132   1.520   5.109  1.2898 -1.0721 -1.2708
  175SOL     vw  700   3.069   1.474   5.069 -0.2427 -0.2283  0.0932
  176SOL     ow  701   3.309   2.114   7.019 -0.3395  0.5902 -0.1296
  176SOL     hw  702   3.263   2.033   7.039 -0.1102  0.4365 -0.2299
  176SOL     hw  703   3.250   2.160   6.959  0.6741 -0.6863 -2.2064
  176SOL     vw  704   3.295   2.110   7.013 -0.1756  0.4016 -0.4168
  177SOL     ow  705   2.577   2.333   6.515 -0.3136 -0.5408 -0.4660
  177SOL     hw  706   2.650   2.297   6.566 -0.0321  1.0476  0.3025
  177SOL     hw  707   2.586   2.428   6.524 -2.4071 -0.3026 -0.4573
  177SOL     vw  708   2.588   2.341   6.523 -0.5527 -0.2998 -0.3633
  178SOL     ow  709   3.383   4.720   1.972  0.1442  0.4094 -0.1998
  178SOL     hw  710   3.440   4.655   1.931 -1.0878 -0.9403  0.1559
  178SOL     hw  711   3.336   4.760   1.898  0.0392  0.0453 -0.3323
  178SOL     vw  712   3.384   4.717   1.957 -0.0322  0.1836 -0.1704
  179SOL     ow  713   5.005   3.967   4.480 -0.0409  0.2965  0.1867
  179SOL     hw  714   5.012   3.922   4.396  1.5242 -0.3831  0.6553
  179SOL     hw  715   4.934   3.922   4.526  0.6169 -0.8590  0.1144
  179SOL     vw  716   4.996   3.955   4.475  0.2522  0.0542  0.2391
  180SOL     ow  717   6.110   3.863   5.681 -0.1157  0.0697 -0.4522
  180SOL     hw  718   6.120   3.958   5.692 -2.2746  0.2514  0.4653
  180SOL     hw  719   6.195   3.827   5.704  0.6666  1.7684 -0.5499
  180SOL     vw  720   6.122   3.871   5.686 -0.2973  0.3178 -0.3440
  181SOL     ow  721   0.024   1.471   0.117 -0.5170 -0.0449  0.2663
  181SOL     hw  722   0.066   1.455   0.032 -0.3321  0.7015  0.2100
  181SOL     hw  723   0.052   1.560   0.141 -2.3109  0.5963  0.0854
  181SOL     vw  724   0.033   1.481   0.109 -0.7292  0.1381  0.2350
  182SOL     ow  725   6.386   1.972   1.901 -0.8981 -0.4959  0.0618
  182SOL     hw  726   6.346   2.042   1.954  1.4669 -0.2997  1.7592
  182SOL     hw  727   6.475   2.004   1.883 -0.6303 -1.9617 -1.3911
  182SOL     vw  728   6.392   1.986   1.906 -0.5507 -0.6633  0.0941
  183SOL     ow  729   6.098   3.417   0.685  0.2719 -0.2940  0.6198
  183SOL     hw  730   6.055   3.445   0.604  0.1532 -1.4846  0.2457
  183SOL     hw  731   6.031   3.428   0.753 -0.1611 -0.7518  0.2796
  183SOL     vw  732   6.083   3.422   0.684  0.1991 -0.5115  0.5255
  184SOL     ow  733   0.632   6.096   3.616 -0.4605 -0.8543 -0.4962
  184SOL     hw  734   0.728   6.092   3.618 -0.2159  2.5399  0.1364
  184SOL     hw  735   0.608   6.049   3.536  1.7011 -1.8848 -0.6085
  184SOL     vw  736   0.641   6.089   3.606 -0.1430 -0.5424 -0.4276
  185SOL     ow  737   3.417   4.034   6.417 -0.2292 -0.3490  0.0260
  185SOL     hw  738   3.322   4.033   6.408 -0.2209  2.1152 -0.9036
  185SOL     hw  739   3.448   3.981   6.344 -0.8653 -1.6917  0.6945
  185SOL     vw  740   3.409   4.027   6.406 -0.3120 -0.2007 -0.0081
  186SOL     ow  741   3.761   1.178   5.358 -0.2069  0.4693 -0.3528
  186SOL     hw  742   3.759   1.159   5.264 -2.0907 -1.5651 -0.0069
  186SOL     hw  743   3.669   1.191   5.381 -0.1764 -1.9981  1.6464
  186SOL     vw  744   3.748   1.177   5.349 -0.4513 -0.1247 -0.0434
  187SOL     ow  745   0.688   3.963   3.544 -0.1800  0.6066 -0.2398
  187SOL     hw  746   0.655   4.050   3.568  2.3105  1.4886  0.3055
  187SOL     hw  747   0.702   3.968   3.450 -0.2697  0.7099 -0.2482
  187SOL     vw  748   0.686   3.975   3.535  0.1368  0.7367 -0.1689
  188SOL     ow  749   6.831   4.424   2.970  0.0125 -0.1763  0.5739
  188SOL     hw  750   6.825   4.343   2.919  1.2561  1.3891 -2.2711
  188SOL     hw  751   6.814   4.396   3.060 -3.9027 -2.9072 -0.7001
  188SOL     vw  752   6.828   4.409   2.975 -0.3397 -0.3297  0.0305
  189SOL     ow  753   1.626   6.617   0.523 -0.4652 -0.7066  0.3916
  189SOL     hw  754   1.712   6.626   0.564  0.0200  1.6091 -0.9534
  189SOL     hw  755   1.628   6.531   0.481  0.8829 -1.0216  1.0425
  189SOL     vw  756   1.637   6.607   0.523 -0.2233 -0.4427  0.3000
  190SOL     ow  757   4.336   3.854   3.168 -0.1009  0.6681 -0.6278
  190SOL     hw  758   4.295   3.860   3.082  1.6901  0.5923 -1.5128
  190SOL     hw  759   4.284   3.789   3.215 -0.9301  0.5181 -1.7202
  190SOL     vw  760   4.324   3.846   3.163  0.0262  0.6384 -0.8888
  191SOL     ow  761   0.931   4.703   3.472  0.3337 -0.1724 -0.2648
  191SOL     hw  762   0.934   4.789   3.515  1.0888 -0.4233  0.2074
  191SOL     hw  763   0.885   4.647   3.534  0.0583 -0.1713 -0.4663
  191SOL     vw  764   0.926   4.707   3.486  0.3970 -0.2053 -0.2291
  192SOL     ow  765   4.833   5.215   2.012  0.2560  0.6315  0.5648
  192SOL     hw  766   4.761   5.275   2.031 -0.7279  0.0432 -1.1152
  192SOL     hw  767   4.831   5.151   2.082 -0.0461  1.3292  1.2054
  192SOL     vw  768   4.823   5.215   2.024  0.0863  0.6459  0.4276
  193SOL     ow  769   0.981   3.154   5.545  0.0672 -0.3750  0.7196
  193SOL     hw  770   1.004   3.063   5.563  1.6226 -0.2754 -0.5650
  193SOL     hw  771   1.065   3.199   5.539 -0.6926  1.5118  2.8829
  193SOL     vw  772   0.995   3.148   5.547  0.1721 -0.1129  0.8354
  194SOL     ow  773   2.704   1.524   4.864  0.3515  0.2041 -0.1550
  194SOL     hw  774   2.637   1.562   4.807  0.1645  0.9552  0.5554
  194SOL     hw  775   2.761   1.475   4.804  1.9407  3.4159 -1.4846
  194SOL     vw  776   2.703   1.522   4.849  0.5366  0.7270 -0.2365
  195SOL     ow  777   0.677   0.285   2.733  0.2563  1.0338  0.2474
  195SOL     hw  778   0.758   0.337   2.734  0.8889  0.0838  1.9578
  195SOL     hw  779   0.673   0.245   2.819  0.2151 -2.4396 -1.2310
  195SOL     vw  780   0.687   0.287   2.744  0.3344  0.4502  0.2780
  196SOL     ow  781   5.647   4.253   1.056  0.7285  0.6264 -0.0238
  196SOL     hw  782   5.689   4.311   0.992 -1.5923  0.7559 -1.5270
  196SOL     hw  783   5.572   4.302   1.087  0.2744 -0.5268  0.7765
  196SOL     vw  784   5.643   4.267   1.051  0.3624  0.4914 -0.1165
  197SOL     ow  785   5.673   2.159   5.388 -0.1894  0.2445 -0.1481
  197SOL     hw  786   5.578   2.162   5.396 -0.2518  1.6506 -1.0155
  197SOL     hw  787   5.699   2.250   5.375  1.1612 -0.2326 -1.0597
  197SOL     vw  788   5.664   2.171   5.387 -0.0196  0.3670 -0.3829
  198SOL     ow  789   5.745   6.617   5.688  0.1062  0.2734 -0.8442
  198SOL     hw  790   5.719   6.643   5.600  1.1332 -1.4364 -1.6998
  198SOL     hw  791   5.840   6.620   5.687  0.1718 -1.0048 -0.1997
  198SOL     vw  792   5.754   6.621   5.677  0.2503 -0.1209 -0.8721
  199SOL     ow  793   0.261   5.894   2.897  0.3064  0.3750 -0.6332
  199SOL     hw  794   0.318   5.970   2.900  0.5102  0.3044 -2.0609
  199SOL     hw  795   0.174   5.930   2.881 -0.0052  0.4414  0.9886
  199SOL     vw  796   0.257   5.908   2.896  0.2922  0.3743 -0.6076
  200SOL     ow  797   1.932   3.446   5.568 -0.3927 -0.1827 -0.6671
  200SOL     hw  798   1.885   3.504   5.628 -0.6596 -0.2338 -0.8254
  200SOL     hw  799   2.002   3.408   5.621 -0.0273  0.5098 -0.6340
  200SOL     vw  800   1.935   3.449   5.583 -0.3797 -0.0982 -0.6840
  201SOL     ow  801   5.180   2.224   3.047 -0.7868  1.0578 -0.4153
  201SOL     hw  802   5.086   2.241   3.038 -0.8747  1.2517  0.6811
  201SOL     hw  803   5.189   2.130   3.030 -1.1983  1.0224 -0.4556
  201SOL     vw  804   5.169   2.214   3.044 -0.8528  1.0786 -0.2760
  202SOL     ow  805   3.820   5.742   4.265  0.4421 -0.3729  0.1914
  202SOL     hw  806   3.847   5.721   4.176 -0.3669  0.1518 -0.1899
  202SOL     hw  807   3.847   5.666   4.317  3.5420  0.5241  0.0703
  202SOL     vw  808   3.827   5.729   4.260  0.7445 -0.1855  0.1249
  203SOL     ow  809   0.455   3.290   0.738 -0.4068  0.1164 -0.2802
  203SOL     hw  810   0.521   3.340   0.787  1.3233  0.3093 -2.6275
  203SOL     hw  811   0.506   3.227   0.688 -2.3692 -2.3474  0.6552
  203SOL     vw  812   0.470   3.288   0.738 -0.4374 -0.1832 -0.4665
  204SOL     ow  813   2.494   5.684   6.902  0.0484 -0.2279  0.8290
  204SOL     hw  814   2.535   5.603   6.932 -0.8227 -0.8051  0.5087
  204SOL     hw  815   2.505   5.683   6.807  2.5498  1.4522  1.0295
  204SOL     vw  816   2.501   5.673   6.893  0.2636 -0.0827  0.8130
  205SOL     ow  817   6.960   1.157   3.702  0.5686  0.6412 -0.0904
  205SOL     hw  818   7.020   1.092   3.665 -0.3135 -0.0667 -0.2993
  205SOL     hw  819   6.983   1.238   3.657  1.4494  0.4150 -0.0757
  205SOL     vw  820   6.971   1.159   3.691  0.5686  0.5180 -0.1161
  206SOL     ow  821   0.740   1.786   3.343 -0.8292 -0.0117  0.6105
  206SOL     hw  822   0.785   1.855   3.295  0.3961 -0.3945  1.1801
  206SOL     hw  823   0.689   1.832   3.410  0.4824  0.3237  1.4019
  206SOL     vw  824   0.739   1.801   3.346 -0.4945 -0.0179  0.7901
  207SOL     ow  825   6.334   3.675   6.826  0.2144 -0.5838  0.7781
  207SOL     hw  826   6.318   3.702   6.917  0.3638 -0.1625  0.6812
  207SOL     hw  827   6.430   3.678   6.817  0.1131  1.7934 -0.1116
  207SOL     vw  828   6.345   3.679   6.837  0.2208 -0.2146  0.6478
  208SOL     ow  829   0.966   5.041   3.279  0.2808 -0.3024 -0.1296
  208SOL     hw  830   0.909   5.115   3.299 -1.7609 -1.4379 -1.4963
  208SOL     hw  831   0.978   5.045   3.184  3.0378  0.2274  0.1387
  208SOL     vw  832   0.960   5.052   3.269  0.3752 -0.3827 -0.2747
  209SOL     ow  833   0.550   4.684   4.493 -0.2949 -0.4128  0.4630
  209SOL     hw  834   0.492   4.759   4.481  0.4857 -0.0324 -1.4094
  209SOL     hw  835   0.493   4.608   4.490 -0.7555 -0.0459 -1.3133
  209SOL     vw  836   0.535   4.684   4.491 -0.2526 -0.3140 -0.0186
  210SOL     ow  837   1.987   2.983   3.999  0.2187  0.3271 -0.0488
  210SOL     hw  838   1.966   2.921   4.069 -0.2797  0.9169  0.3413
  210SOL     hw  839   2.039   2.933   3.937 -0.5151 -0.5917  0.0533
  210SOL     vw  840   1.991   2.968   4.000  0.0561  0.2837  0.0160
  211SOL     ow  841   6.135   1.758   1.930 -0.1656 -0.1768 -0.2561
  211SOL     hw  842   6.158   1.693   1.998 -0.1987  0.6392  0.5532
  211SOL     hw  843   6.059   1.803   1.965  0.7097  1.2733 -0.1278
  211SOL     vw  844   6.128   1.755   1.944 -0.0548  0.1222 -0.1323
  212SOL     ow  845   5.183   1.843   1.576  0.3196  0.0353  0.2075
  212SOL     hw  846   5.153   1.810   1.661  0.2498 -1.2309 -0.2730
  212SOL     hw  847   5.269   1.882   1.593  0.0150  0.3801  0.9635
  212SOL     vw  848   5.191   1.843   1.589  0.2704 -0.0863  0.2438
  213SOL     ow  849   1.975   0.819   6.889 -0.1740  0.4089  0.1470
  213SOL     hw  850   1.997   0.811   6.796  2.5823  0.5236  0.6909
  213SOL     hw  851   2.038   0.761   6.934 -2.0410 -0.3687  1.9069
  213SOL     vw  852   1.986   0.810   6.883 -0.0567  0.3214  0.4508
  214SOL     ow  853   6.669   5.229   2.391 -0.2784 -0.0268 -0.7326
  214SOL     hw  854   6.739   5.235   2.326  0.5709 -0.3944  0.1304
  214SOL     hw  855   6.605   5.170   2.352  1.4399 -2.4141 -0.2081
  214SOL     vw  856   6.670   5.222   2.377  0.0603 -0.3905 -0.5497
  215SOL     ow  857   4.822   1.544   2.954 -0.3501  0.0840  0.5746
  215SOL     hw  858   4.756   1.496   2.905 -0.8334  0.4500  0.8481
  215SOL     hw  859   4.777   1.624   2.982  0.4393  0.7043  0.1127
  215SOL     vw  860   4.807   1.548   2.952 -0.3099  0.2142  0.5498
  216SOL     ow  861   5.194   0.353   2.394  0.0858  0.1396 -0.4414
  216SOL     hw  862   5.134   0.321   2.460  0.7177  0.7099  0.4381
  216SOL     hw  863   5.209   0.278   2.335 -1.9489  0.1797 -1.0640
  216SOL     vw  864   5.188   0.339   2.395 -0.0992  0.2201 -0.4075
  217SOL     ow  865   3.855   0.146   6.157 -0.4507 -0.2184 -0.0364
  217SOL     hw  866   3.824   0.093   6.084 -1.9562  1.3762 -0.6321
  217SOL     hw  867   3.922   0.203   6.118  0.8053 -1.2765  0.4915
  217SOL     vw  868   3.860   0.147   6.142 -0.4835 -0.1476 -0.0455
  218SOL     ow  869   2.830   5.304   2.955 -0.3391 -0.2299  0.4192
  218SOL     hw  870   2.754   5.267   2.910  0.7680  1.3648 -3.1454
  218SOL     hw  871   2.795   5.343   3.034 -3.1067 -0.2181 -0.7050
  218SOL     vw  872   2.815   5.304   2.959 -0.5581 -0.0179 -0.1994
  219SOL     ow  873   3.782   6.162   0.720  0.0930 -0.1265 -0.2426
  219SOL     hw  874   3.742   6.113   0.648  0.5474 -3.9025  1.8224
  219SOL     hw  875   3.876   6.154   0.705  0.1759  0.4176 -0.0338
  219SOL     vw  876   3.789   6.154   0.708  0.1639 -0.5527  0.0574
  220SOL     ow  877   3.414   5.287   2.028 -0.3618  0.3367 -0.3971
  220SOL     hw  878   3.391   5.303   1.937 -0.4974  0.5720 -0.3229
  220SOL     hw  879   3.505   5.256   2.025 -0.1329  1.0061 -0.5556
  220SOL     vw  880   3.423   5.285   2.016 -0.3495  0.4561 -0.4082
  221SOL     ow  881   4.245   0.662   3.812 -0.5996  0.0193 -0.2388
  221SOL     hw  882   4.286   0.632   3.893 -1.2372 -0.4070 -0.0666
  221SOL     hw  883   4.316   0.704   3.763 -0.4933  1.6034  1.1723
  221SOL     vw  884   4.260   0.663   3.816 -0.6695  0.1721 -0.0299
  222SOL     ow  885   1.573   3.312   6.950 -0.4549  0.0734  0.1461
  222SOL     hw  886   1.639   3.248   6.923  0.9380  0.5650  2.1171
  222SOL     hw  887   1.619   3.395   6.953 -1.0051  0.3636  1.9736
  222SOL     vw  888   1.587   3.315   6.947 -0.3437  0.1765  0.6471
  223SOL     ow  889   6.754   5.141   3.414 -0.0691 -0.3870 -0.2011
  223SOL     hw  890   6.679   5.164   3.358 -1.2154  2.2452  2.1519
  223SOL     hw  891   6.824   5.201   3.386  0.7544 -1.8436 -1.4126
  223SOL     vw  892   6.753   5.152   3.403 -0.1118 -0.2320 -0.0505
  224SOL     ow  893   5.166   2.932   5.401 -0.2372  0.2325  0.7258
  224SOL     hw  894   5.075   2.960   5.408  0.2885  2.4899 -0.5468
  224SOL     hw  895   5.213   2.986   5.464  0.5815  1.0974 -0.5782
  224SOL     vw  896   5.160   2.942   5.410 -0.0596  0.6443  0.3858
  225SOL     ow  897   0.493   3.948   4.556 -0.1899  0.7935 -0.8889
  225SOL     hw  898   0.421   3.992   4.602  0.1120  0.1186  0.2705
  225SOL     hw  899   0.478   3.968   4.463 -2.3395  0.0013 -0.7668
  225SOL     vw  900   0.481   3.957   4.550 -0.4337  0.5999 -0.7198
  226SOL     ow  901   1.457   1.902   4.396  1.1361  0.3756 -0.2403
  226SOL     hw  902   1.493   1.973   4.449  0.1390  1.6871 -1.2453
  226SOL     hw  903   1.363   1.906   4.412  1.0707 -0.7806 -0.2665
  226SOL     vw  904   1.449   1.912   4.405  0.9959  0.3961 -0.3765
  227SOL     ow  905   0.541   4.230   6.097  0.6682  0.1361  0.4043
  227SOL     hw  906   0.608   4.290   6.129  2.5210 -1.6880  0.1298
  227SOL     hw  907   0.586   4.175   6.033 -1.5738  0.0311 -1.2012
  227SOL     vw  908   0.556   4.231   6.093  0.6169 -0.1185  0.1559
  228SOL     ow  909   2.639   1.702   2.510  0.4221  0.3131  0.5951
  228SOL     hw  910   2.605   1.792   2.502 -0.9442 -0.0229  2.0551
  228SOL     hw  911   2.733   1.713   2.521  0.5739  1.4269 -1.3192
  228SOL     vw  912   2.647   1.715   2.510  0.2619  0.4157  0.5352
  229SOL     ow  913   0.285   4.445   3.181 -0.6396  0.1114 -0.4101
  229SOL     hw  914   0.206   4.488   3.215  0.2794  0.8022  0.9888
  229SOL     hw  915   0.254   4.387   3.112 -2.2883  0.8441 -0.3272
  229SOL     vw  916   0.271   4.443   3.177 -0.7359  0.2992 -0.2147
  230SOL     ow  917   2.112   4.015   6.097  0.0292  0.3155  0.1277
  230SOL     hw  918   2.196   4.056   6.114 -0.6659  1.5099  0.8302
  230SOL     hw  919   2.063   4.079   6.045  0.1912 -1.1248 -1.9111
  230SOL     vw  920   2.116   4.029   6.092 -0.0411  0.2830 -0.0489
  231SOL     ow  921   2.333   2.520   4.280  0.1791 -0.4544  0.2804
  231SOL     hw  922   2.344   2.577   4.204 -0.0167 -0.4823  0.2313
  231SOL     hw  923   2.406   2.542   4.338 -0.6057  0.7461  0.8427
  231SOL     vw  924   2.345   2.530   4.278  0.0497 -0.2997  0.3481
  232SOL     ow  925   2.904   5.029   3.581 -0.1925 -0.6070  0.1942
  232SOL     hw  926   2.892   5.121   3.561 -1.8425 -0.9590 -0.5516
  232SOL     hw  927   2.996   5.022   3.608 -0.3461  1.4442  1.4495
  232SOL     vw  928   2.915   5.040   3.582 -0.4306 -0.3829  0.2614
  233SOL     ow  929   6.207   2.513   3.384  0.7827  0.1488 -0.2889
  233SOL     hw  930   6.290   2.552   3.412 -0.2965  1.6203  1.0023
  233SOL     hw  931   6.141   2.552   3.441 -0.8349 -0.9288 -1.3314
  233SOL     vw  932   6.209   2.523   3.395  0.4265  0.2009 -0.2561
  234SOL     ow  933   5.211   2.687   6.155 -0.2250 -0.1187  0.5690
  234SOL     hw  934   5.296   2.665   6.118 -0.5102 -0.6612  0.2361
  234SOL     hw  935   5.192   2.774   6.119  0.0129 -0.1553  0.3490
  234SOL     vw  936   5.220   2.696   6.145 -0.2313 -0.1953  0.4961
  235SOL     ow  937   3.647   3.671   5.553 -0.6776  0.5145  0.0799
  235SOL     hw  938   3.724   3.618   5.533 -0.3657  0.9109  0.1996
  235SOL     hw  939   3.653   3.685   5.648 -1.6729 -0.6401  0.3327
  235SOL     vw  940   3.658   3.666   5.563 -0.7677  0.4145  0.1290
  236SOL     ow  941   6.744   0.265   0.200  0.1300 -0.2204 -0.0866
  236SOL     hw  942   6.803   0.245   0.127  0.2152  0.5989 -0.2551
  236SOL     hw  943   6.798   0.318   0.260 -0.7243  1.4747 -0.7649
  236SOL     vw  944   6.759   0.269   0.198  0.0286  0.1113 -0.1983
  237SOL     ow  945   3.142   1.084   0.544  1.2950  0.2376 -0.2270
  237SOL     hw  946   3.179   1.138   0.615  0.0655 -0.2313  0.8006
  237SOL     hw  947   3.048   1.091   0.555  1.0221  0.8880 -2.4118
  237SOL     vw  948   3.135   1.092   0.555  1.0968  0.2615 -0.3797
  238SOL     ow  949   5.841   6.208   7.067 -0.6233  0.1105  0.3291
  238SOL     hw  950   5.873   6.271   7.132  0.8681 -0.5542  0.2917
  238SOL     hw  951   5.747   6.224   7.061 -0.3958  1.7967  0.8858
  238SOL     vw  952   5.833   6.218   7.075 -0.3963  0.2456  0.3976
  239SOL     ow  953   3.309   2.886   2.835 -0.6872  0.1060 -0.4380
  239SOL     hw  954   3.299   2.919   2.924  3.8585  0.9415  0.0089
  239SOL     hw  955   3.282   2.960   2.780  0.2192  1.0591  0.3556
  239SOL     vw  956   3.304   2.900   2.840  0.0322  0.3420 -0.2743
  240SOL     ow  957   6.135   3.080   5.994  0.2554 -0.4495  0.5095
  240SOL     hw  958   6.109   3.129   5.916 -2.1820  1.0540  2.1524
  240SOL     hw  959   6.217   3.121   6.021  0.3264  0.0289 -0.3819
  240SOL     vw  960   6.142   3.091   5.987 -0.0570 -0.1880  0.6089
  241SOL     ow  961   5.025   5.000   1.939 -0.1587  0.2085 -0.0079
  241SOL     hw  962   5.026   4.904   1.940 -0.6704  0.1978  0.3354
  241SOL     hw  963   5.066   5.024   2.022 -1.7490  0.2384  0.8149
  241SOL     vw  964   5.031   4.990   1.950 -0.4358  0.2110  0.1459
  242SOL     ow  965   4.256   1.050   4.558 -0.0935 -0.0155  0.3681
  242SOL     hw  966   4.316   1.077   4.489  1.8221  0.6803  2.1897
  242SOL     hw  967   4.230   0.961   4.535  0.1065  0.3736 -1.4530
  242SOL     vw  968   4.260   1.042   4.546  0.1853  0.1276  0.3681
  243SOL     ow  969   5.543   2.353   3.745 -0.6962  0.4224 -0.5434
  243SOL     hw  970   5.481   2.426   3.739 -0.8692  0.2098 -1.7538
  243SOL     hw  971   5.495   2.279   3.707 -0.3433 -0.1977  0.2172
  243SOL     vw  972   5.528   2.353   3.739 -0.6723  0.3126 -0.6027
  244SOL     ow  973   5.348   5.067   5.442 -0.1555 -0.7083  0.2700
  244SOL     hw  974   5.371   4.994   5.385  0.6214  0.3247 -0.7960
  244SOL     hw  975   5.275   5.110   5.397 -0.5904 -0.8027  0.8743
  244SOL     vw  976   5.341   5.063   5.428 -0.1101 -0.5844  0.2091
  245SOL     ow  977   0.281   4.739   0.090 -0.5074 -0.2019  0.5190
  245SOL     hw  978   0.363   4.713   0.132 -1.0940 -2.2460  0.4793
  245SOL     hw  979   0.277   4.688   0.009 -0.5149  1.9669 -0.9574
  245SOL     vw  980   0.291   4.729   0.085 -0.5858 -0.1853  0.3190
  246SOL     ow  981   6.596   4.524   2.735 -0.5916  0.5214  0.5818
  246SOL     hw  982   6.531   4.455   2.726  0.0958 -0.4961  2.7762
  246SOL     hw  983   6.554   4.602   2.698 -1.7243 -0.8260 -1.1087
  246SOL     vw  984   6.582   4.525   2.729 -0.6502  0.2093  0.6483
  247SOL     ow  985   5.646   4.371   3.628 -0.1337  0.1229  0.3478
  247SOL     hw  986   5.669   4.328   3.711  2.2037  0.1418 -0.2301
  247SOL     hw  987   5.673   4.309   3.561  0.3645  1.1814 -0.4456
  247SOL     vw  988   5.652   4.357   3.630  0.2408  0.2646  0.1670
  248SOL     ow  989   1.754   2.711   4.754 -0.3257  0.4458  0.1133
  248SOL     hw  990   1.787   2.627   4.723  0.1096  0.0786  1.4995
  248SOL     hw  991   1.759   2.769   4.678 -0.3539 -0.7013 -0.7738
  248SOL     vw  992   1.759   2.708   4.740 -0.2720  0.2460  0.1788
  249SOL     ow  993   4.507   4.707   4.043 -0.8285 -0.2446  0.8262
  249SOL     hw  994   4.588   4.656   4.039 -0.7742 -0.1474  0.6884
  249SOL     hw  995   4.476   4.711   3.953 -0.6806  0.2129  0.7956
  249SOL     vw  996   4.513   4.701   4.031 -0.8016 -0.1717  0.8042
  250SOL     ow  997   1.310   5.339   2.287 -0.1427  0.1545  0.3056
  250SOL     hw  998   1.243   5.342   2.355  0.2546 -0.2468  0.7263
  250SOL     hw  999   1.336   5.430   2.274 -2.2734  0.5798 -1.4029
  250SOL     vw 1000   1.305   5.351   2.294 -0.3714  0.1576  0.1357
  251SOL     ow 1001   5.633   0.028   0.523 -0.1016  0.5215  0.0442
  251SOL     hw 1002   5.601   0.026   0.613  0.3762 -1.8733  0.2348
  251SOL     hw 1003   5.659  -0.063   0.505  0.4228  1.0696 -2.2917
  251SOL     vw 1004   5.632   0.015   0.532  0.0305  0.2779 -0.2389
  252SOL     ow 1005   4.982   4.370   2.565 -0.3205 -0.0767 -0.0028
  252SOL     hw 1006   4.925   4.440   2.598  1.1397  1.0093  0.3310
  252SOL     hw 1007   4.939   4.342   2.484 -2.1363 -0.3983  0.9983
  252SOL     vw 1008   4.968   4.376   2.558 -0.3674  0.0243  0.1733
  253SOL     ow 1009   6.854   6.993   3.800 -0.1185 -0.7299  0.3105
  253SOL     hw 1010   6.875   7.061   3.736  3.1083 -0.1356  1.7506
  253SOL     hw 1011   6.921   6.926   3.786 -0.4075 -1.3885  1.9025
  253SOL     vw 1012   6.866   6.994   3.790  0.2692 -0.7384  0.7106
  254SOL     ow 1013   4.738   6.083   3.957  0.4655 -0.4266  0.6902
  254SOL     hw 1014   4.763   6.076   3.865  3.0676  2.8396  0.9770
  254SOL     hw 1015   4.661   6.140   3.957  0.7576 -0.0360  0.5854
  254SOL     vw 1016   4.731   6.089   3.945  0.8471  0.0558  0.7143
  255SOL     ow 1017   2.913   6.827   4.943  0.5061 -0.1314  0.1284
  255SOL     hw 1018   2.957   6.881   5.008 -0.3856  4.2545 -2.4334
  255SOL     hw 1019   2.820   6.849   4.952 -0.1140 -2.3860 -0.1938
  255SOL     vw 1020   2.906   6.837   4.952  0.3067  0.1497 -0.2520
  256SOL     ow 1021   3.162   6.898   2.126 -0.5769  0.0109  0.6865
  256SOL     hw 1022   3.125   6.871   2.210 -1.3694 -0.2976  0.2515
  256SOL     hw 1023   3.128   6.987   2.113  0.1500  0.3450  1.0344
  256SOL     vw 1024   3.152   6.906   2.135 -0.5856  0.0143  0.6750
  257SOL     ow 1025   6.125   0.968   0.736 -0.4474 -0.2220  0.2142
  257SOL     hw 1026   6.219   0.983   0.740 -0.0205 -2.6420  2.4366
  257SOL     hw 1027   6.109   0.934   0.648  0.6374  0.6912 -0.3550
  257SOL     vw 1028   6.135   0.965   0.725 -0.2480 -0.4208  0.4323
  258SOL     ow 1029   6.194   1.116   0.207 -0.0455 -0.0072  0.2506
  258SOL     hw 1030   6.196   1.113   0.112 -0.3286  0.0134  0.2412
  258SOL     hw 1031   6.104   1.142   0.228  0.1510  0.4622  0.5139
  258SOL     vw 1032   6.182   1.119   0.198 -0.0572  0.0574  0.2841
  259SOL     ow 1033   3.145   6.323   4.626 -0.6132 -0.1182  0.5421
  259SOL     hw 1034   3.190   6.361   4.702  1.3232 -2.6942  0.8099
  259SOL     hw 1035   3.215   6.302   4.565 -1.5717 -2.5818  0.1729
  259SOL     vw 1036   3.160   6.325   4.628 -0.4841 -0.7832  0.5288
  260SOL     ow 1037   6.509   3.063   3.848 -0.0645 -0.0625 -0.0254
  260SOL     hw 1038   6.581   3.052   3.785  0.6282  0.3340  0.6743
  260SOL     hw 1039   6.501   2.978   3.890 -2.1385 -1.0785 -2.2605
  260SOL     vw 1040   6.518   3.050   3.845 -0.2468 -0.1442 -0.2279
  261SOL     ow 1041   3.340   3.890   0.987 -0.8461  0.1031  0.0022
  261SOL     hw 1042   3.245   3.898   0.979 -1.0555  2.5526  2.9674
  261SOL     hw 1043   3.354   3.862   1.077  1.2520 -0.1418 -0.3507
  261SOL     vw 1044   3.329   3.888   0.998 -0.5969  0.3939  0.3469
  262SOL     ow 1045   0.156   2.050   3.252 -0.4042 -0.0885 -0.6505
  262SOL     hw 1046   0.099   1.977   3.278  1.2501 -1.4288 -0.6354
  262SOL     hw 1047   0.102   2.128   3.266 -1.3110 -1.0635  2.0432
  262SOL     vw 1048   0.141   2.051   3.257 -0.3056 -0.3941 -0.2933
  263SOL     ow 1049   4.397   4.289   2.226 -0.1861  0.1797 -0.5653
  263SOL     hw 1050   4.479   4.271   2.272  0.6232 -0.6487 -2.2252
  263SOL     hw 1051   4.337   4.319   2.294  0.6663 -1.8221  1.1780
  263SOL     vw 1052   4.400   4.290   2.241  0.0331 -0.1938 -0.5543
  264SOL     ow 1053   0.165   2.145   2.748  0.4553  0.0051  0.0711
  264SOL     hw 1054   0.199   2.076   2.692 -3.1775 -1.6380 -0.4150
  264SOL     hw 1055   0.178   2.226   2.699 -0.1123 -1.0540 -1.9058
  264SOL     vw 1056   0.171   2.147   2.734 -0.0989 -0.3514 -0.2539
  265SOL     ow 1057   1.140   3.926   1.209  0.6859 -0.1017  0.0366
  265SOL     hw 1058   1.109   3.865   1.276 -0.9711 -0.4778 -1.0328
  265SOL     hw 1059   1.061   3.958   1.166  1.6090  1.5471 -0.5512
  265SOL     vw 1060   1.126   3.922   1.212  0.5891  0.0662 -0.1820
  266SOL     ow 1061   2.240   5.673   3.695 -0.5154 -0.1140 -0.8815
  266SOL     hw 1062   2.184   5.644   3.622 -0.9468 -0.9061 -0.2506
  266SOL     hw 1063   2.188   5.655   3.773  0.8655 -1.4209 -0.2398
  266SOL     vw 1064   2.226   5.667   3.695 -0.3901 -0.3908 -0.7136
  267SOL     ow 1065   0.112   5.727   5.335 -0.6294  0.4940 -0.1844
  267SOL     hw 1066   0.052   5.774   5.277 -1.2227 -1.8576 -1.5825
  267SOL     hw 1067   0.162   5.670   5.278  0.0109 -0.6376  1.4325
  267SOL     vw 1068   0.111   5.726   5.320 -0.6232  0.0341 -0.1557
  268SOL     ow 1069   5.750   0.630   0.500  0.0404  0.1615  0.0347
  268SOL     hw 1070   5.764   0.549   0.549  1.9875  0.8293  0.7114
  268SOL     hw 1071   5.764   0.606   0.409  0.3841 -0.3278  0.2139
  268SOL     vw 1072   5.754   0.616   0.495  0.3426  0.1850  0.1476
  269SOL     ow 1073   2.348   6.064   6.297 -0.4663 -0.2958 -0.1833
  269SOL     hw 1074   2.412   6.059   6.368 -0.5457  0.3488 -0.0614
  269SOL     hw 1075   2.329   5.972   6.275  2.0545 -0.5580 -1.6476
  269SOL     vw 1076   2.354   6.051   6.303 -0.1442 -0.2453 -0.3603
  270SOL     ow 1077   3.498   1.678   0.060  0.4973  0.2372 -0.0809
  270SOL     hw 1078   3.547   1.717  -0.012  0.1984  0.1672 -0.3270
  270SOL     hw 1079   3.432   1.743   0.083 -0.2123 -0.2447 -0.7081
  270SOL     vw 1080   3.496   1.691   0.054  0.3642  0.1644 -0.1961
  271SOL     ow 1081   1.977   5.183   7.052 -0.0485 -0.0353 -0.3645
  271SOL     hw 1082   2.072   5.167   7.052 -0.4044 -2.7447  0.3405
  271SOL     hw 1083   1.955   5.196   6.961  0.8669 -0.6037 -0.6887
  271SOL     vw 1084   1.987   5.182   7.040  0.0253 -0.4680 -0.3140
  272SOL     ow 1085   3.024   0.953   3.092  0.0355 -0.1142 -0.0931
  272SOL     hw 1086   3.049   1.045   3.101  1.6414 -0.6247  1.1167
  272SOL     hw 1087   2.993   0.929   3.179 -1.4232 -0.4507 -0.6880
  272SOL     vw 1088   3.023   0.962   3.104  0.0548 -0.2259 -0.0122
  273SOL     ow 1089   5.085   5.377   3.696  0.7151 -0.0032 -0.2735
  273SOL     hw 1090   5.116   5.449   3.750 -0.4468 -0.3058  0.8501
  273SOL     hw 1091   5.164   5.329   3.671  1.5051  1.6720 -1.1050
  273SOL     vw 1092   5.099   5.380   3.700  0.6661  0.1779 -0.2350
  274SOL     ow 1093   4.943   6.641   0.695 -0.2814  0.2421 -0.7211
  274SOL     hw 1094   5.019   6.689   0.729  0.5568 -0.4055 -1.5985
  274SOL     hw 1095   4.874   6.706   0.689  1.0459  1.6081 -2.6485
  274SOL     vw 1096   4.944   6.656   0.698  0.0043  0.3366 -1.0912
  275SOL     ow 1097   0.234   5.410   0.271 -0.1275  0.8067  0.3184
  275SOL     hw 1098   0.294   5.460   0.327  1.0471  0.2868 -0.4294
  275SOL     hw 1099   0.198   5.343   0.329 -1.6341  2.3961  1.3014
  275SOL     vw 1100   0.237   5.407   0.286 -0.1713  0.9477  0.3494
  276SOL     ow 1101   4.350   2.231   4.424  0.1314 -0.6669 -0.7502
  276SOL     hw 1102   4.409   2.228   4.500  1.3906 -0.7019 -1.6984
  276SOL     hw 1103   4.324   2.323   4.419 -0.0623 -0.6851 -0.2106
  276SOL     vw 1104   4.354   2.243   4.434  0.2720 -0.6738 -0.8039
  277SOL     ow 1105   3.828   0.510   3.600  0.3274  0.0425  0.1414
  277SOL     hw 1106   3.838   0.451   3.525  0.6585  0.3583 -0.0664
  277SOL     hw 1107   3.737   0.541   3.593  0.1526 -0.4389  0.2527
  277SOL     vw 1108   3.817   0.506   3.589  0.3480  0.0206  0.1286
  278SOL     ow 1109   1.889   4.221   4.182  0.1072  0.2396 -0.4319
  278SOL     hw 1110   1.894   4.145   4.124  2.7208  0.2927 -0.3846
  278SOL     hw 1111   1.923   4.191   4.266 -0.9539  0.9185  0.2732
  278SOL     vw 1112   1.894   4.207   4.185  0.3120  0.3359 -0.3328
  279SOL     ow 1113   5.854   1.734   1.637  0.0008  0.6254  0.0508
  279SOL     hw 1114   5.944   1.715   1.610 -0.1778  1.3328 -1.1489
  279SOL     hw 1115   5.860   1.748   1.732  1.1329  0.5178  0.0143
  279SOL     vw 1116   5.867   1.734   1.646  0.1268  0.7046 -0.1123
  280SOL     ow 1117   6.802   1.491   0.229  0.0746 -0.3392 -0.1472
  280SOL     hw 1118   6.796   1.477   0.323  0.4862  1.1456  0.1208
  280SOL     hw 1119   6.830   1.582   0.220 -1.0447 -0.1129 -1.7272
  280SOL     vw 1120   6.805   1.501   0.240 -0.0186 -0.1134 -0.3203
  281SOL     ow 1121   3.522   2.962   5.569 -0.3414  0.3139  0.7856
  281SOL     hw 1122   3.559   2.929   5.651 -0.3673  0.2024  0.7526
  281SOL     hw 1123   3.598   2.989   5.518 -0.2614 -0.4517  0.4852
  281SOL     vw 1124   3.537   2.962   5.573 -0.3343  0.1980  0.7415
  282SOL     ow 1125   0.732   6.672   0.786  0.4786  0.3335  0.6286
  282SOL     hw 1126   0.723   6.578   0.799  0.1081  0.4976  1.6178
  282SOL     hw 1127   0.798   6.680   0.718 -2.3509 -0.7300 -2.4878
  282SOL     vw 1128   0.740   6.661   0.779  0.0564  0.2151  0.3480
  283SOL     ow 1129   2.388   0.052   0.671  0.3658  0.4542  0.0762
  283SOL     hw 1130   2.311   0.096   0.637  0.4403 -0.4379 -1.3137
  283SOL     hw 1131   2.399   0.087   0.759 -1.7946  0.3743  0.4183
  283SOL     vw 1132   2.379   0.062   0.678  0.0906  0.3260 -0.0620
  284SOL     ow 1133   0.227   1.127   5.631 -0.3216  0.1328  0.0668
  284SOL     hw 1134   0.206   1.194   5.695  2.3121 -0.5071  1.7452
  284SOL     hw 1135   0.288   1.169   5.571  0.2884 -0.3744  0.3279
  284SOL     vw 1136   0.232   1.141   5.631  0.1064 -0.0185  0.3228
  285SOL     ow 1137   3.870   6.022   1.584 -0.7474 -0.2032 -0.1340
  285SOL     hw 1138   3.802   6.011   1.649  2.8043 -0.7810  3.9460
  285SOL     hw 1139   3.913   6.105   1.607  1.0637 -0.7562 -1.2617
  285SOL     vw 1140   3.867   6.031   1.596 -0.0398 -0.3524  0.2555
  286SOL     ow 1141   4.436   1.650   6.078  0.4317 -0.5718  0.1643
  286SOL     hw 1142   4.452   1.563   6.042  1.6550 -0.2126 -0.2255
  286SOL     hw 1143   4.469   1.644   6.168  2.5884  0.0407 -0.5029
  286SOL     vw 1144   4.443   1.638   6.085  0.8776 -0.4436  0.0248
  287SOL     ow 1145   6.447   6.322   6.436 -0.2623 -0.3048  0.3962
  287SOL     hw 1146   6.403   6.378   6.500 -1.7622 -0.4621 -0.4494
  287SOL     hw 1147   6.502   6.381   6.385  0.6904 -0.1283  1.5937
  287SOL     vw 1148   6.449   6.337   6.438 -0.3345 -0.3023  0.4425
  288SOL     ow 1149   6.987   1.398   3.561 -0.6233 -0.0258 -0.4238
  288SOL     hw 1150   7.025   1.481   3.533 -0.5107 -0.5708 -1.9437
  288SOL     hw 1151   6.895   1.404   3.537 -0.8919  0.1045  0.5578
  288SOL     vw 1152   6.980   1.410   3.554 -0.6435 -0.0806 -0.4947
  289SOL     ow 1153   3.109   4.513   6.007  0.5628  0.7523 -0.3312
  289SOL     hw 1154   3.033   4.531   6.064 -1.0222  1.7002 -2.5783
  289SOL     hw 1155   3.170   4.584   6.027 -0.1965  1.3785 -0.1461
  289SOL     vw 1156   3.107   4.525   6.017  0.2536  0.9599 -0.6032
  290SOL     ow 1157   6.679   4.857   3.517  0.1629 -0.0926 -0.2697
  290SOL     hw 1158   6.643   4.796   3.451  0.2139  0.1454 -0.5201
  290SOL     hw 1159   6.625   4.843   3.594 -0.2234 -0.0123 -0.5223
  290SOL     vw 1160   6.667   4.847   3.518  0.1190 -0.0505 -0.3362
  291SOL     ow 1161   6.007   0.442   5.196  0.1223 -0.2206 -0.3880
  291SOL     hw 1162   6.032   0.370   5.138  0.6336  1.1098 -1.8950
  291SOL     hw 1163   6.083   0.455   5.253  0.9807  0.5622 -1.6434
  291SOL     vw 1164   6.021   0.435   5.195  0.3030  0.0582 -0.7522
  292SOL     ow 1165   3.852   1.048   2.180  0.5296  0.1715  0.0405
  292SOL     hw 1166   3.807   1.128   2.206  0.7811  0.0575  0.8427
  292SOL     hw 1167   3.783   0.982   2.175  0.3923  0.3288 -0.1709
  292SOL     vw 1168   3.837   1.050   2.182  0.5447  0.1773  0.1185
  293SOL     ow 1169   0.748   1.721   2.844 -0.0840  0.2151  0.2275
  293SOL     hw 1170   0.744   1.640   2.793  1.8387  0.0955  0.2026
  293SOL     hw 1171   0.839   1.750   2.836 -0.0561  0.9383  2.4393
  293SOL     vw 1172   0.760   1.714   2.836  0.1734  0.2947  0.5159
  294SOL     ow 1173   5.678   6.334   5.841  0.3511 -0.0775 -0.4190
  294SOL     hw 1174   5.594   6.293   5.819  0.3514 -0.6019  0.4836
  294SOL     hw 1175   5.726   6.265   5.887  0.4548  0.8506  0.9191
  294SOL     vw 1176   5.673   6.319   5.844  0.3648 -0.0243 -0.1230
  295SOL     ow 1177   3.268   2.971   4.498  0.0685 -0.4276  0.1267
  295SOL     hw 1178   3.191   2.932   4.456 -0.4108  0.2371  0.3753
  295SOL     hw 1179   3.269   2.933   4.586  0.7624 -1.4040 -0.2810
  295SOL     vw 1180   3.258   2.960   4.504  0.0968 -0.4687  0.1056
  296SOL     ow 1181   6.195   2.135   2.004  0.4324  0.5101 -0.1292
  296SOL     hw 1182   6.205   2.207   1.942 -0.1739 -1.0926 -2.1895
  296SOL     hw 1183   6.140   2.171   2.073  1.8420  2.6209  0.0067
  296SOL     vw 1184   6.189   2.149   2.005  0.5383  0.5772 -0.3831
  297SOL     ow 1185   2.758   0.714   6.072 -0.0124 -0.2636 -0.3710
  297SOL     hw 1186   2.832   0.746   6.019 -2.2615  0.0628 -3.6072
  297SOL     hw 1187   2.693   0.784   6.067 -1.2331 -1.2407  0.9226
  297SOL     vw 1188   2.759   0.728   6.064 -0.4700 -0.3494 -0.6270
  298SOL     ow 1189   4.171   0.964   6.751 -0.1361  0.2495  0.1298
  298SOL     hw 1190   4.262   0.955   6.723 -0.2846 -1.2624  0.0739
  298SOL     hw 1191   4.151   0.883   6.797 -1.2516  0.8629  0.7812
  298SOL     vw 1192   4.181   0.952   6.753 -0.3030  0.1310  0.2084
  299SOL     ow 1193   3.229   1.885   3.683 -0.2890 -0.2153  0.1123
  299SOL     hw 1194   3.152   1.941   3.691 -0.5395 -0.6904  1.2651
  299SOL     hw 1195   3.215   1.817   3.749  0.3443 -1.2272 -0.7792
  299SOL     vw 1196   3.217   1.883   3.693 -0.2385 -0.4115  0.1466
  300SOL     ow 1197   2.288   2.550   0.711  0.1047 -0.4388  0.2301
  300SOL     hw 1198   2.357   2.525   0.772 -0.6914 -0.3534  1.1804
  300SOL     hw 1199   2.231   2.474   0.706 -1.8413  0.7264  2.4534
  300SOL     vw 1200   2.289   2.537   0.718 -0.2571 -0.2739  0.6488
  301SOL     ow 1201   0.688   3.600   6.759 -0.2812  0.0503 -0.2786
  301SOL     hw 1202   0.702   3.536   6.689 -1.3909 -1.5997  0.9279
  301SOL     hw 1203   0.770   3.649   6.764 -0.3417  0.6096 -3.0444
  301SOL     vw 1204   0.700   3.598   6.750 -0.4356 -0.0937 -0.4845
  302SOL     ow 1205   1.501   3.301   3.806 -0.7784 -0.0255 -0.9530
  302SOL     hw 1206   1.492   3.321   3.713 -1.1849  0.6259 -0.7800
  302SOL     hw 1207   1.464   3.378   3.850  0.4563  0.1892 -0.2520
  302SOL     vw 1208   1.495   3.314   3.799 -0.6691  0.0889 -0.8377
  303SOL     ow 1209   3.700   2.590   6.825  0.5303  0.1873  0.2939
  303SOL     hw 1210   3.754   2.661   6.790 -0.9221  0.8163 -0.7671
  303SOL     hw 1211   3.625   2.585   6.766  0.2707 -1.8177  0.7292
  303SOL     vw 1212   3.697   2.599   6.813  0.3045  0.0058  0.2112
  304SOL     ow 1213   1.828   0.206   1.919  0.4482 -0.0061 -0.6775
  304SOL     hw 1214   1.874   0.166   1.992 -0.1486 -1.4337 -1.0507
  304SOL     hw 1215   1.894   0.261   1.876  1.4681 -1.0605 -0.4934
  304SOL     vw 1216   1.843   0.208   1.923  0.5040 -0.3336 -0.7024
  305SOL     ow 1217   0.562   2.994   6.597 -0.4198  0.5510 -0.3286
  305SOL     hw 1218   0.592   3.034   6.678 -0.0046 -0.1482 -0.1257
  305SOL     hw 1219   0.603   2.907   6.596 -3.3029 -0.9710  0.5251
  305SOL     vw 1220   0.571   2.988   6.607 -0.7454  0.2578 -0.1891
  306SOL     ow 1221   1.440   4.927   4.634  0.0112  0.5965  0.1352
  306SOL     hw 1222   1.393   4.949   4.554  1.5323  2.0454 -0.4382
  306SOL     hw 1223   1.372   4.901   4.696 -1.2358 -0.2134 -1.4944
  306SOL     vw 1224   1.425   4.927   4.632  0.0473  0.6809 -0.1554
  307SOL     ow 1225   0.220   2.265   3.638 -1.1933 -0.2205 -0.0913
  307SOL     hw 1226   0.302   2.224   3.609 -1.0673  0.6325 -0.9710
  307SOL     hw 1227   0.180   2.299   3.558 -2.5579 -0.8631  0.2863
  307SOL     vw 1228   0.225   2.264   3.624 -1.3567 -0.1926 -0.1576
  308SOL     ow 1229   3.056   6.073   4.488  0.1545 -0.2632  0.2340
  308SOL     hw 1230   3.043   5.990   4.443  0.3917  0.6124 -1.5031
  308SOL     hw 1231   3.111   6.125   4.430 -0.2080  1.2274  1.1523
  308SOL     vw 1232   3.062   6.069   4.475  0.1379  0.0486  0.1259
  309SOL     ow 1233   2.185   4.693   6.278 -0.3671  0.1934 -0.0191
  309SOL     hw 1234   2.095   4.706   6.250  0.0364 -0.3141 -1.6262
  309SOL     hw 1235   2.234   4.764   6.236  0.4326 -1.2461 -1.6138
  309SOL     vw 1236   2.180   4.704   6.269 -0.2083 -0.0634 -0.4413
  310SOL     ow 1237   6.014   5.740   4.496  0.2690 -0.4706  0.7472
  310SOL     hw 1238   6.061   5.813   4.455 -1.1004 -0.8167 -1.6305
  310SOL     hw 1239   6.084   5.682   4.527  1.4601 -0.1464 -1.1372
  310SOL     vw 1240   6.030   5.742   4.495  0.2456 -0.4737  0.1848
  311SOL     ow 1241   2.502   5.656   5.630 -0.3060 -0.5337 -0.1264
  311SOL     hw 1242   2.429   5.714   5.655  1.5632  2.2413 -0.5833
  311SOL     hw 1243   2.549   5.639   5.712 -0.4641 -0.8131 -0.0945
  311SOL     vw 1244   2.498   5.662   5.644 -0.0802 -0.2046 -0.1824
  312SOL     ow 1245   3.688   4.213   6.331 -0.4132  0.0834  0.2754
  312SOL     hw 1246   3.770   4.163   6.332 -1.1598 -1.2350 -0.9814
  312SOL     hw 1247   3.714   4.300   6.301  0.8469  0.3715  2.0705
  312SOL     vw 1248   3.702   4.218   6.327 -0.3455 -0.0527  0.3462
  313SOL     ow 1249   1.268   5.292   1.985  0.1846 -0.3252 -0.9906
  313SOL     hw 1250   1.300   5.300   1.895 -0.2113  1.3879 -1.0225
  313SOL     hw 1251   1.229   5.377   2.003  0.6988 -0.4716  0.9840
  313SOL     vw 1252   1.267   5.304   1.975  0.2002 -0.1185 -0.7343
  314SOL     ow 1253   5.011   4.399   3.882 -0.2619  0.3000  0.2127
  314SOL     hw 1254   5.069   4.375   3.810  0.9115  2.2110  0.4396
  314SOL     hw 1255   5.069   4.421   3.954 -1.2333  1.9731  0.5506
  314SOL     vw 1256   5.026   4.399   3.882 -0.2351  0.7727  0.2872
  315SOL     ow 1257   6.679   4.946   5.448 -0.1582 -0.2569  0.6491
  315SOL     hw 1258   6.734   4.870   5.470 -0.8174 -0.7702  0.5820
  315SOL     hw 1259   6.664   4.937   5.354 -0.6633 -0.3346  0.7356
  315SOL     vw 1260   6.684   4.934   5.438 -0.3119 -0.3350  0.6516
  316SOL     ow 1261   2.443   6.490   6.225 -0.1888  0.5778 -0.9849
  316SOL     hw 1262   2.533   6.457   6.219 -0.3111  0.3797 -1.7390
  316SOL     hw 1263   2.442   6.568   6.170 -0.3275  0.9302 -0.4947
  316SOL     vw 1264   2.455   6.496   6.217 -0.2233  0.5982 -1.0197
  317SOL     ow 1265   4.032   1.720   2.734  0.4183 -0.5075  0.1911
  317SOL     hw 1266   3.955   1.775   2.737  1.5883  1.1671  0.9188
  317SOL     hw 1267   4.021   1.659   2.807  0.5423  0.8249  1.3598
  317SOL     vw 1268   4.021   1.719   2.744  0.5891 -0.1108  0.4416
  318SOL     ow 1269   6.760   3.703   5.523  0.1594 -0.2259 -0.8067
  318SOL     hw 1270   6.732   3.636   5.460  3.3516  0.0643 -2.7729
  318SOL     hw 1271   6.834   3.663   5.569  1.4927  1.5144 -1.3249
  318SOL     vw 1272   6.766   3.689   5.521  0.7567  0.0420 -1.1344
  319SOL     ow 1273   4.686   2.256   4.026 -0.5795  0.4332 -0.3378
  319SOL     hw 1274   4.718   2.256   4.116 -0.4504 -0.2937 -0.3829
  319SOL     hw 1275   4.751   2.307   3.978 -0.6044  0.7505 -0.0385
  319SOL     vw 1276   4.699   2.263   4.032 -0.5655  0.3792 -0.3045
  320SOL     ow 1277   5.844   6.404   1.083 -0.4048 -0.2647 -0.1556
  320SOL     hw 1278   5.870   6.312   1.081 -4.3606 -1.5696 -0.1243
  320SOL     hw 1279   5.779   6.410   1.153 -2.3485  1.8631 -1.9615
  320SOL     vw 1280   5.838   6.393   1.092 -1.1830 -0.1559 -0.3898
  321SOL     ow 1281   1.985   2.287   2.295 -0.0239 -0.3226  0.3332
  321SOL     hw 1282   1.933   2.350   2.346  0.1094 -0.7208  0.9741
  321SOL     hw 1283   2.073   2.293   2.332 -0.7082 -3.4056  2.9279
  321SOL     vw 1284   1.990   2.296   2.307 -0.0966 -0.7819  0.7603
  322SOL     ow 1285   2.348   1.974   6.307  0.1254  0.3417  0.2081
  322SOL     hw 1286   2.285   1.906   6.335  0.2607  0.9753  2.2386
  322SOL     hw 1287   2.431   1.928   6.302  0.1136  0.2043  1.0221
  322SOL     vw 1288   2.350   1.959   6.310  0.1416  0.4072  0.5834
  323SOL     ow 1289   2.173   6.460   2.115  0.5198 -0.2039  0.3223
  323SOL     hw 1290   2.254   6.507   2.133  0.3571  0.0207  0.4829
  323SOL     hw 1291   2.198   6.392   2.053  1.1967 -1.2704  1.7095
  323SOL     vw 1292   2.187   6.457   2.109  0.5876 -0.3150  0.5264
  324SOL     ow 1293   5.130   4.289   2.945  0.0610 -0.2765 -0.3823
  324SOL     hw 1294   5.153   4.270   3.035  1.4151  0.3837 -0.5687
  324SOL     hw 1295   5.212   4.284   2.897 -0.0644  2.4018 -1.0337
  324SOL     vw 1296   5.144   4.286   2.950  0.2232  0.1643 -0.4929
  325SOL     ow 1297   3.740   0.435   5.108 -0.2315 -0.0528  0.1193
  325SOL     hw 1298   3.683   0.379   5.054  0.0414  0.7206 -1.0104
  325SOL     hw 1299   3.697   0.436   5.194 -0.9047 -0.9879 -0.1795
  325SOL     vw 1300   3.727   0.427   5.112 -0.2843 -0.0741 -0.0694
  326SOL     ow 1301   4.252   3.763   0.887  0.8551 -0.1429 -0.2147
  326SOL     hw 1302   4.336   3.725   0.860  0.7145  0.3974 -1.4645
  326SOL     hw 1303   4.239   3.838   0.829 -1.1199 -0.9787 -0.9399
  326SOL     vw 1304   4.261   3.768   0.876  0.5760 -0.1818 -0.4753
  327SOL     ow 1305   5.164   4.268   3.208 -0.5296 -0.9832 -0.2557
  327SOL     hw 1306   5.173   4.361   3.229 -2.3040 -0.3743 -1.9720
  327SOL     hw 1307   5.243   4.228   3.245 -0.8284  0.7799  2.6454
  327SOL     vw 1308   5.176   4.275   3.216 -0.8032 -0.6704 -0.0993
  328SOL     ow 1309   2.008   1.683   3.176 -0.3941  0.9213  0.3574
  328SOL     hw 1310   1.977   1.660   3.088 -0.3765  1.4243  0.2108
  328SOL     hw 1311   1.970   1.617   3.233 -0.3518  0.5488 -0.0381
  328SOL     vw 1312   1.999   1.672   3.172 -0.3861  0.9385  0.2859
  329SOL     ow 1313   5.682   0.014   1.742 -0.4665 -0.2996 -0.2759
  329SOL     hw 1314   5.684  -0.017   1.652 -3.2919  2.1805 -1.3358
  329SOL     hw 1315   5.592  -0.002   1.772  0.1198 -0.1328  1.7775
  329SOL     vw 1316   5.671   0.008   1.734 -0.7617  0.0496 -0.1448
  330SOL     ow 1317   5.233   5.074   0.777  0.2754 -0.4595  0.5316
  330SOL     hw 1318   5.205   5.053   0.866 -0.3717 -0.8535  0.2412
  330SOL     hw 1319   5.216   4.995   0.727 -1.0767  0.3124 -0.3214
  330SOL     vw 1320   5.227   5.061   0.782  0.0117 -0.4096  0.3807
  331SOL     ow 1321   1.848   5.291   5.679  0.1763 -0.6050  0.6329
  331SOL     hw 1322   1.771   5.239   5.655  1.9179 -2.0492 -2.3128
  331SOL     hw 1323   1.844   5.366   5.619  1.5675 -1.2345 -0.2762
  331SOL     vw 1324   1.837   5.294   5.668  0.5895 -0.8783  0.1245
  332SOL     ow 1325   0.940   0.665   1.317  0.2664  0.0479 -0.5322
  332SOL     hw 1326   0.924   0.570   1.321  0.3850  0.0569  0.3449
  332SOL     hw 1327   0.975   0.687   1.404  2.7224  0.4520 -1.5395
  332SOL     vw 1328   0.943   0.655   1.329  0.6061  0.1024 -0.5494
  333SOL     ow 1329   5.708   0.887   1.142 -0.0607 -0.0212  0.4264
  333SOL     hw 1330   5.672   0.802   1.166  0.0715 -0.5659 -1.1826
  333SOL     hw 1331   5.657   0.951   1.193  1.8917 -1.1137  4.1644
  333SOL     vw 1332   5.697   0.884   1.152  0.2141 -0.2372  0.7073
  334SOL     ow 1333   0.667   0.128   2.478  0.0043 -0.7058  0.4514
  334SOL     hw 1334   0.749   0.078   2.473  1.5387  1.6385  0.3240
  334SOL     hw 1335   0.631   0.125   2.389  1.6741  0.7787 -0.3580
  334SOL     vw 1336   0.673   0.121   2.465  0.4270 -0.2007  0.3278
  335SOL     ow 1337   3.799   4.972   1.374  0.6280  0.6986 -0.2364
  335SOL     hw 1338   3.783   5.044   1.313  1.6605  0.7856 -0.4330
  335SOL     hw 1339   3.822   5.015   1.456  0.8532  0.5890 -0.2423
  335SOL     vw 1340   3.800   4.987   1.377  0.7941  0.6955 -0.2631
  336SOL     ow 1341   2.753   2.238   6.701  0.0655  0.2473  0.6816
  336SOL     hw 1342   2.840   2.239   6.661  0.2120 -1.0429  0.9384
  336SOL     hw 1343   2.736   2.146   6.719 -1.7675  0.3762 -0.2232
  336SOL     vw 1344   2.762   2.226   6.698 -0.1570  0.0942  0.5958
  337SOL     ow 1345   0.076   2.732   0.116 -0.1801  0.0848 -0.1725
  337SOL     hw 1346   0.154   2.694   0.077 -1.3114 -1.1208 -1.3689
  337SOL     hw 1347   0.013   2.738   0.044 -1.4833  0.1801  0.9246
  337SOL     vw 1348   0.078   2.728   0.102 -0.5013 -0.0616 -0.1856
  338SOL     ow 1349   0.075   6.425   5.695 -0.4114 -0.7151  0.4813
  338SOL     hw 1350   0.015   6.389   5.630 -0.7947  1.4599 -0.4507
  338SOL     hw 1351   0.020   6.477   5.753  0.4898  1.3367 -0.3971
  338SOL     vw 1352   0.060   6.427   5.694 -0.3431 -0.1571  0.2425
  339SOL     ow 1353   2.351   3.052   6.687 -0.1744  0.2549  0.2846
  339SOL     hw 1354   2.389   3.081   6.769  1.0139 -0.6125  0.0766
  339SOL     hw 1355   2.417   2.993   6.650 -0.0846  1.6130 -1.9009
  339SOL     vw 1356   2.365   3.048   6.693 -0.0060  0.3197 -0.0315
  340SOL     ow 1357   5.080   4.664   3.072 -0.8220  0.4406 -0.2830
  340SOL     hw 1358   5.151   4.632   3.018  0.4648 -2.7675  2.9378
  340SOL     hw 1359   5.111   4.748   3.106  0.8620 -0.2386 -0.0655
  340SOL     vw 1360   5.093   4.671   3.070 -0.4299 -0.0722  0.1706
  341SOL     ow 1361   3.433   2.710   5.423 -0.1151 -0.2473  0.1585
  341SOL     hw 1362   3.492   2.665   5.483  2.2774  0.0649 -1.8040
  341SOL     hw 1363   3.393   2.641   5.372  0.3026 -0.3722 -0.0055
  341SOL     vw 1364   3.436   2.695   5.424  0.2556 -0.2226 -0.1221
  342SOL     ow 1365   6.231   3.122   3.899  0.0039  0.6952 -0.3088
  342SOL     hw 1366   6.152   3.175   3.895  0.6500  1.8830  1.3752
  342SOL     hw 1367   6.199   3.032   3.903 -1.1884  1.0509 -1.1679
  342SOL     vw 1368   6.216   3.117   3.899 -0.0679  0.8988 -0.1999
  343SOL     ow 1369   6.670   6.564   1.198  0.2233 -0.1712 -0.2957
  343SOL     hw 1370   6.731   6.515   1.252 -0.7692  1.6489  2.7031
  343SOL     hw 1371   6.595   6.505   1.186  0.9226 -0.9995 -0.7153
  343SOL     vw 1372   6.668   6.550   1.204  0.1845 -0.0403  0.0446
  344SOL     ow 1373   2.722   2.632   1.931  0.5640 -0.5681  0.1571
  344SOL     hw 1374   2.731   2.689   1.855  1.8361  0.7502  1.2318
  344SOL     hw 1375   2.762   2.549   1.904  1.4836  0.0564 -0.4399
  344SOL     vw 1376   2.728   2.628   1.917  0.8532 -0.3117  0.2201
  345SOL     ow 1377   6.901   4.515   7.044 -0.0710 -0.3855 -0.1529
  345SOL     hw 1378   6.939   4.516   6.956 -0.6664  0.1169 -0.4085
  345SOL     hw 1379   6.812   4.480   7.032 -0.9805  1.7833 -0.1042
  345SOL     vw 1380   6.894   4.510   7.031 -0.2694 -0.0334 -0.1802
  346SOL     ow 1381   3.206   2.894   5.584  0.0764  0.4954 -0.5366
  346SOL     hw 1382   3.169   2.974   5.624 -0.4523  1.6760 -3.2074
  346SOL     hw 1383   3.188   2.826   5.649 -1.4864  2.1213  0.8735
  346SOL     vw 1384   3.199   2.896   5.598 -0.1996  0.8658 -0.7029
  347SOL     ow 1385   4.393   5.491   3.063  0.2562  0.9233 -0.5869
  347SOL     hw 1386   4.300   5.506   3.045 -0.2023 -0.5810  0.2641
  347SOL     hw 1387   4.415   5.558   3.128 -0.6880  0.3277  0.3876
  347SOL     vw 1388   4.383   5.502   3.070  0.0713  0.6461 -0.3461
  348SOL     ow 1389   1.466   4.244   0.386 -0.4594 -0.2416  0.3029
  348SOL     hw 1390   1.444   4.173   0.446 -0.7380  0.3930  0.9758
  348SOL     hw 1391   1.408   4.316   0.412 -0.7256 -0.0118 -0.8570
  348SOL     vw 1392   1.455   4.244   0.397 -0.5313 -0.1273  0.2386
  349SOL     ow 1393   6.999   3.885   5.536  0.0569  0.1784 -0.4069
  349SOL     hw 1394   7.037   3.863   5.621 -1.9643 -0.2737  0.4171
  349SOL     hw 1395   7.072   3.925   5.488  1.5513 -0.5902  1.0992
  349SOL     vw 1396   7.014   3.888   5.541 -0.0126  0.0174 -0.0994
  350SOL     ow 1397   6.236   5.740   3.604 -0.2582 -0.1224 -0.2564
  350SOL     hw 1398   6.250   5.652   3.570 -1.2142  0.5819 -2.6697
  350SOL     hw 1399   6.158   5.733   3.658  0.7246 -1.0678  1.1212
  350SOL     vw 1400   6.228   5.728   3.607 -0.2549 -0.1540 -0.3930
  351SOL     ow 1401   1.473   0.354   6.355 -0.5620  0.3090 -0.9880
  351SOL     hw 1402   1.475   0.324   6.265  1.0207 -1.1739 -0.5194
  351SOL     hw 1403   1.548   0.311   6.396 -1.9996 -0.1146  1.3758
  351SOL     vw 1404   1.483   0.345   6.349 -0.5428  0.0574 -0.6144
  352SOL     ow 1405   1.446   5.103   3.485 -0.1835 -0.1078  0.0259
  352SOL     hw 1406   1.377   5.106   3.551  0.3436 -1.3776  0.6767
  352SOL     hw 1407   1.481   5.014   3.492  1.6971  0.5852 -0.1040
  352SOL     vw 1408   1.441   5.091   3.495  0.1341 -0.1836  0.0947
  353SOL     ow 1409   2.498   4.807   1.739 -0.2337 -0.3805  0.2653
  353SOL     hw 1410   2.423   4.824   1.683 -1.1501  0.7922  1.7615
  353SOL     hw 1411   2.534   4.894   1.758 -0.2575 -0.6809  1.8582
  353SOL     vw 1412   2.493   4.821   1.734 -0.3577 -0.2654  0.6729
  354SOL     ow 1413   3.041   6.304   7.027  0.4129 -0.6216  0.1025
  354SOL     hw 1414   3.076   6.219   7.052  0.2638 -0.3089  1.4588
  354SOL     hw 1415   2.946   6.291   7.022 -0.3499  0.4886  5.4628
  354SOL     vw 1416   3.033   6.291   7.029  0.2925 -0.4339  0.9885
  355SOL     ow 1417   0.166   5.515   5.596  0.1135  0.0112 -0.4768
  355SOL     hw 1418   0.120   5.439   5.632  0.8083  0.1477  0.7565
  355SOL     hw 1419   0.252   5.512   5.638 -0.3525  2.3442  0.7921
  355SOL     vw 1420   0.172   5.505   5.606  0.1437  0.3371 -0.1466
  356SOL     ow 1421   4.091   3.157   3.434  0.0963 -0.1464  0.1558
  356SOL     hw 1422   4.181   3.188   3.434 -0.1143  0.4723 -0.1066
  356SOL     hw 1423   4.051   3.201   3.509  0.1933 -0.9881  0.7265
  356SOL     vw 1424   4.098   3.167   3.444  0.0813 -0.1758  0.1965
  357SOL     ow 1425   3.088   3.557   1.838  0.2993  0.5076  0.8304
  357SOL     hw 1426   3.045   3.591   1.759  0.2965  1.1697  1.1116
  357SOL     hw 1427   3.049   3.470   1.851  1.2851 -0.2080 -0.6763
  357SOL     vw 1428   3.077   3.550   1.829  0.4290  0.5006  0.6687
  358SOL     ow 1429   3.679   4.288   4.195 -0.2177 -0.2504  0.1848
  358SOL     hw 1430   3.679   4.365   4.253 -0.5327 -0.2737  0.2188
  358SOL     hw 1431   3.744   4.308   4.128  0.3945 -0.3624  0.7374
  358SOL     vw 1432   3.687   4.301   4.194 -0.1786 -0.2682  0.2623
  359SOL     ow 1433   4.946   6.567   5.380  0.1460  0.3736  0.4453
  359SOL     hw 1434   5.035   6.598   5.363  0.8018 -1.1480  0.8661
  359SOL     hw 1435   4.940   6.485   5.331 -0.9880  0.3891  0.5366
  359SOL     vw 1436   4.957   6.560   5.371  0.0830  0.1750  0.5131
  360SOL     ow 1437   2.138   2.707   5.344 -0.0121  0.1438 -0.2599
  360SOL     hw 1438   2.097   2.773   5.400 -0.5754  0.4245 -0.9873
  360SOL     hw 1439   2.201   2.756   5.290  0.6962 -0.1589  0.2721
  360SOL     vw 1440   2.141   2.722   5.344  0.0072  0.1410 -0.2856
  361SOL     ow 1441   3.585   3.048   2.571  0.1877 -0.0150  0.4759
  361SOL     hw 1442   3.545   3.037   2.484  0.0435 -1.4065  0.6997
  361SOL     hw 1443   3.549   3.131   2.603 -1.5904 -0.6133  0.1606
  361SOL     vw 1444   3.575   3.058   2.563 -0.0659 -0.2775  0.4638
  362SOL     ow 1445   2.112   5.183   5.850 -0.4165 -0.2348  0.4872
  362SOL     hw 1446   2.108   5.276   5.827  0.5178 -1.2352 -5.0101
  362SOL     hw 1447   2.205   5.167   5.866 -0.1152 -0.6234 -1.4129
  362SOL     vw 1448   2.124   5.193   5.849 -0.2534 -0.4182 -0.4890
  363SOL     ow 1449   5.245   4.135   4.503  0.1257 -0.1830 -0.1024
  363SOL     hw 1450   5.251   4.156   4.409 -1.3239 -1.3465 -0.5037
  363SOL     hw 1451   5.324   4.085   4.521  0.6665  0.4784 -0.5713
  363SOL     vw 1452   5.256   4.131   4.493  0.0060 -0.2494 -0.2172
  364SOL     ow 1453   3.455   4.709   2.268  0.5279  0.1848  0.2432
  364SOL     hw 1454   3.511   4.746   2.336  1.7457  2.4645 -1.8517
  364SOL     hw 1455   3.500   4.629   2.241  0.5719 -0.1849  1.3610
  364SOL     vw 1456   3.468   4.703   2.274  0.6944  0.4370  0.1142
  365SOL     ow 1457   1.911   1.872   1.415 -0.3198 -0.1820  0.1018
  365SOL     hw 1458   1.953   1.793   1.450 -2.2553 -0.2019  2.6657
  365SOL     hw 1459   1.830   1.841   1.376 -0.5254  0.4306  0.0262
  365SOL     vw 1460   1.906   1.858   1.415 -0.6022 -0.1038  0.4302
  366SOL     ow 1461   3.356   1.755   5.844 -0.5239 -0.4235 -0.5252
  366SOL     hw 1462   3.349   1.780   5.936 -1.9466 -0.1637 -0.6794
  366SOL     hw 1463   3.356   1.837   5.796 -0.3734 -0.5753 -0.7909
  366SOL     vw 1464   3.355   1.769   5.850 -0.6917 -0.4092 -0.5805
  367SOL     ow 1465   5.704   4.064   5.824 -0.5541  0.1303  0.1027
  367SOL     hw 1466   5.778   4.114   5.792  0.1726 -0.8156  0.2580
  367SOL     hw 1467   5.736   4.020   5.903 -0.9649 -1.0388 -0.3479
  367SOL     vw 1468   5.718   4.065   5.830 -0.5124 -0.1488  0.0637
  368SOL     ow 1469   2.183   6.029   5.943  0.1147 -0.0525 -0.3157
  368SOL     hw 1470   2.139   5.984   5.871 -0.8705 -0.0183  0.2435
  368SOL     hw 1471   2.217   5.958   5.998  0.8042 -0.0784 -0.7590
  368SOL     vw 1472   2.182   6.013   5.941  0.0758 -0.0513 -0.3004
  369SOL     ow 1473   5.613   3.121   0.306 -0.2833 -0.2701 -0.8154
  369SOL     hw 1474   5.660   3.062   0.364 -2.9531 -2.1011 -0.2915
  369SOL     hw 1475   5.613   3.205   0.351  0.8699 -0.6932  0.0028
  369SOL     vw 1476   5.619   3.124   0.319 -0.4833 -0.5676 -0.6383
  370SOL     ow 1477   4.116   6.215   3.343  0.4378  0.1418 -0.1321
  370SOL     hw 1478   4.206   6.186   3.325 -0.5277 -2.0789 -1.8316
  370SOL     hw 1479   4.061   6.157   3.291 -1.9692  2.3620 -0.2659
  370SOL     vw 1480   4.121   6.203   3.334 -0.0072  0.1414 -0.3741
  371SOL     ow 1481   4.489   0.358   0.764  0.1203  0.2532  0.0470
  371SOL     hw 1482   4.430   0.421   0.723  0.9650  2.0648  1.4835
  371SOL     hw 1483   4.437   0.277   0.770 -1.7302  1.3901  0.0495
  371SOL     vw 1484   4.474   0.355   0.759 -0.0126  0.6422  0.2369
  372SOL     ow 1485   6.081   6.868   2.893 -0.5440  0.1560 -0.9116
  372SOL     hw 1486   6.006   6.922   2.868  0.1929  2.0838  0.7589
  372SOL     hw 1487   6.139   6.871   2.817 -0.0075  2.7569 -0.4862
  372SOL     vw 1488   6.079   6.875   2.880 -0.3762  0.7536 -0.6350
  373SOL     ow 1489   0.625   2.585   2.508  0.5855  0.1203  0.0133
  373SOL     hw 1490   0.687   2.649   2.543  0.5483  0.1279  0.0675
  373SOL     hw 1491   0.560   2.637   2.461  1.1783  0.0303 -0.9102
  373SOL     vw 1492   0.625   2.600   2.507  0.6588  0.1094 -0.1014
  374SOL     ow 1493   1.779   2.807   2.134 -0.3787  0.1754 -0.2217
  374SOL     hw 1494   1.735   2.766   2.060 -0.9692  1.1208 -0.4025
  374SOL     hw 1495   1.748   2.757   2.210 -0.5154 -0.1800 -0.5057
  374SOL     vw 1496   1.769   2.795   2.134 -0.4747  0.2533 -0.2831
  375SOL     ow 1497   2.896   1.133   0.587 -0.2615  0.7381 -0.1973
  375SOL     hw 1498   2.901   1.154   0.494  1.4197 -0.9046 -0.5196
  375SOL     hw 1499   2.843   1.204   0.624  0.0365  2.0855 -2.1868
  375SOL     vw 1500   2.889   1.145   0.580 -0.0004  0.6992 -0.5023
  376SOL     ow 1501   5.729   6.534   4.393 -0.1043 -0.4535  0.0531
  376SOL     hw 1502   5.766   6.494   4.315 -1.0927 -0.0062 -0.6630
  376SOL     hw 1503   5.652   6.479   4.414 -1.3574  0.8967 -0.8223
  376SOL     vw 1504   5.723   6.521   4.386 -0.3998 -0.2167 -0.1569
  377SOL     ow 1505   2.669   1.242   4.133  0.5556 -0.1841  0.4414
  377SOL     hw 1506   2.648   1.303   4.062  1.8204 -0.7165 -0.4412
  377SOL     hw 1507   2.758   1.265   4.159  0.5889 -0.8458  0.9443
  377SOL     vw 1508   2.678   1.253   4.127  0.7268 -0.3417  0.3912
  378SOL     ow 1509   6.896   5.541   0.976 -0.2359  0.1421  0.4793
  378SOL     hw 1510   6.822   5.487   1.003 -0.7169  0.6448  0.1660
  378SOL     hw 1511   6.968   5.478   0.965 -0.7680 -0.4313  0.1947
  378SOL     vw 1512   6.896   5.526   0.978 -0.3700  0.1330  0.4004
  379SOL     ow 1513   4.658   5.375   6.369 -0.0780 -0.5079  0.0026
  379SOL     hw 1514   4.739   5.325   6.357  0.1999 -0.0109 -0.2220
  379SOL     hw 1515   4.684   5.466   6.359 -0.3998 -0.2345  1.4252
  379SOL     vw 1516   4.672   5.380   6.366 -0.0837 -0.4063  0.1602
  380SOL     ow 1517   3.855   5.528   4.412  0.7946 -0.2594  0.6181
  380SOL     hw 1518   3.935   5.515   4.464  2.0899 -1.9482 -1.6334
  380SOL     hw 1519   3.849   5.451   4.357 -0.6133  1.3018 -1.5872
  380SOL     vw 1520   3.865   5.516   4.411  0.7797 -0.2759  0.0300
  381SOL     ow 1521   6.367   3.367   3.776 -0.0248  0.1579  0.3016
  381SOL     hw 1522   6.295   3.425   3.751 -0.6775 -0.1544  1.3881
  381SOL     hw 1523   6.441   3.426   3.792 -0.2333  0.5414 -0.1325
  381SOL     vw 1524   6.367   3.382   3.775 -0.1385  0.1674  0.3874
  382SOL     ow 1525   4.691   6.804   3.437  0.4256 -0.5136 -0.0781
  382SOL     hw 1526   4.754   6.872   3.413  1.5984 -1.2695  0.7656
  382SOL     hw 1527   4.606   6.848   3.432  1.0532  0.6889 -0.6867
  382SOL     vw 1528   4.688   6.819   3.434  0.6633 -0.4547 -0.0471
  383SOL     ow 1529   2.096   6.981   3.066 -0.2683  0.3257 -0.4003
  383SOL     hw 1530   2.060   7.067   3.043 -2.1038 -0.2387  0.2265
  383SOL     hw 1531   2.037   6.918   3.024 -0.1432 -0.6401  0.8358
  383SOL     vw 1532   2.084   6.984   3.057 -0.4941  0.1237 -0.1544
  384SOL     ow 1533   0.770   6.254   6.492 -0.5132  0.1811  0.3239
  384SOL     hw 1534   0.700   6.191   6.510 -0.4156  0.2416  0.9318
  384SOL     hw 1535   0.844   6.223   6.543  0.0871 -0.1956 -0.7567
  384SOL     vw 1536   0.770   6.242   6.501 -0.4211  0.1392  0.2613
  385SOL     ow 1537   0.528   3.685   7.017  0.1811  0.6957  0.4636
  385SOL     hw 1538   0.435   3.703   7.026  0.0011  0.4107 -0.6591
  385SOL     hw 1539   0.568   3.718   7.098 -0.9955  0.0529  1.3342
  385SOL     vw 1540   0.521   3.692   7.029  0.0021  0.5733  0.4303
  386SOL     ow 1541   3.533   1.531   6.337 -0.5734 -0.8034  0.1991
  386SOL     hw 1542   3.582   1.556   6.259  1.8328  1.4400  2.2252
  386SOL     hw 1543   3.478   1.607   6.357 -1.2012 -1.3653  0.6509
  386SOL     vw 1544   3.532   1.544   6.330 -0.3388 -0.5816  0.5260
  387SOL     ow 1545   2.931   1.844   4.675  0.9306 -0.0505  0.0782
  387SOL     hw 1546   2.848   1.862   4.719  1.5760  0.9835  0.9126
  387SOL     hw 1547   2.958   1.929   4.639  1.1281 -0.5853 -1.0849
  387SOL     vw 1548   2.924   1.858   4.676  1.0418  0.0153  0.0350
  388SOL     ow 1549   7.016   0.705   6.193  0.1289 -0.2748  0.2697
  388SOL     hw 1550   7.075   0.728   6.122 -1.7050  2.0144 -0.6710
  388SOL     hw 1551   7.047   0.756   6.268 -0.1403  0.2892  0.0053
  388SOL     vw 1552   7.028   0.715   6.194 -0.1485  0.1017  0.1106
  389SOL     ow 1553   5.561   6.702   3.966 -0.0140  0.7620 -0.3276
  389SOL     hw 1554   5.588   6.611   3.979 -0.8996  0.6576  0.9249
  389SOL     hw 1555   5.637   6.754   3.991 -0.1630  0.4112  0.8921
  389SOL     vw 1556   5.575   6.697   3.971 -0.1507  0.7021 -0.0014
  390SOL     ow 1557   2.283   5.067   3.124  0.1834  0.3460 -0.2839
  390SOL     hw 1558   2.244   5.082   3.037 -0.1322  0.6369 -0.0940
  390SOL     hw 1559   2.232   5.123   3.183  1.6004  1.6097 -0.2045
  390SOL     vw 1560   2.271   5.076   3.120  0.3287  0.5510 -0.2484
  391SOL     ow 1561   1.189   2.158   3.118  0.1330  0.4886  0.6307
  391SOL     hw 1562   1.146   2.151   3.203 -1.0030 -0.3058  0.0144
  391SOL     hw 1563   1.187   2.251   3.098  0.2930  0.6695  1.4097
  391SOL     vw 1564   1.183   2.169   3.127  0.0042  0.4077  0.6522
  392SOL     ow 1565   0.035   6.695   2.636 -0.8388  0.3502  0.1699
  392SOL     hw 1566   0.054   6.697   2.730 -2.4944 -0.8412  0.5700
  392SOL     hw 1567  -0.010   6.778   2.620 -2.0711 -0.1576  0.8240
  392SOL     vw 1568   0.031   6.706   2.646 -1.2195  0.1261  0.3090
  393SOL     ow 1569   0.718   3.416   7.039  0.7765  0.2187 -0.2096
  393SOL     hw 1570   0.710   3.339   7.095  1.3724 -1.8654 -2.7742
  393SOL     hw 1571   0.811   3.420   7.016  0.8559  2.0660  0.2886
  393SOL     vw 1572   0.729   3.407   7.043  0.8656  0.1874 -0.4822
  394SOL     ow 1573   3.319   2.764   0.893  0.1212  0.5908  0.5626
  394SOL     hw 1574   3.236   2.728   0.924  1.3673 -1.3643  1.8917
  394SOL     hw 1575   3.332   2.725   0.806  0.0128  0.2604  0.6941
  394SOL     vw 1576   3.310   2.754   0.885  0.2713  0.2892  0.7553
  395SOL     ow 1577   0.675   3.109   3.323 -0.4930  0.3743  0.2616
  395SOL     hw 1578   0.652   3.124   3.415 -1.4857 -0.2629  0.1341
  395SOL     hw 1579   0.762   3.070   3.327 -0.9551 -0.6488  1.0225
  395SOL     vw 1580   0.683   3.106   3.336 -0.6850  0.1552  0.3452
  396SOL     ow 1581   3.780   0.459   0.056  0.4005  0.5378  0.1504
  396SOL     hw 1582   3.874   0.475   0.048  0.1206  2.5647  0.4327
  396SOL     hw 1583   3.754   0.508   0.134 -0.3752 -2.5898  2.0335
  396SOL     vw 1584   3.789   0.467   0.066  0.2613  0.3926  0.4361
  397SOL     ow 1585   1.074   2.211   4.925 -0.2519  0.2985  0.2692
  397SOL     hw 1586   0.989   2.169   4.914 -0.6054  0.1412  2.8670
  397SOL     hw 1587   1.112   2.213   4.838 -2.2228 -1.1169 -0.6879
  397SOL     vw 1588   1.068   2.206   4.912 -0.5587  0.0908  0.4857
  398SOL     ow 1589   6.872   0.458   0.336  0.7198  0.0881  0.1484
  398SOL     hw 1590   6.828   0.484   0.417  0.4897  0.0042  0.0509
  398SOL     hw 1591   6.895   0.540   0.294 -3.0273  0.3537 -1.8463
  398SOL     vw 1592   6.869   0.472   0.341  0.1950  0.1120 -0.1276
  399SOL     ow 1593   4.348   2.132   1.733 -0.7487 -0.2400 -0.1649
  399SOL     hw 1594   4.381   2.144   1.644  0.0959 -0.3403  0.1220
  399SOL     hw 1595   4.256   2.112   1.722 -0.7405  0.1395 -0.9979
  399SOL     vw 1596   4.341   2.131   1.720 -0.6361 -0.2033 -0.2370
  400SOL     ow 1597   2.190   6.102   0.283 -0.2880  0.0358  0.7209
  400SOL     hw 1598   2.105   6.125   0.245 -0.6627 -3.1134 -0.6018
  400SOL     hw 1599   2.181   6.124   0.376 -1.5213  2.2543  0.1588
  400SOL     vw 1600   2.177   6.108   0.290 -0.5002 -0.0870  0.4722
  401SOL     ow 1601   1.496   3.761   1.642 -0.5440  0.0285 -0.6990
  401SOL     hw 1602   1.482   3.792   1.553 -1.5395  3.2595  0.4276
  401SOL     hw 1603   1.410   3.736   1.674 -0.5178  0.6169 -0.1223
  401SOL     vw 1604   1.483   3.762   1.635 -0.6719  0.5324 -0.4743
  402SOL     ow 1605   5.997   2.230   3.062 -0.2674  0.0921  0.5342
  402SOL     hw 1606   5.997   2.191   3.149  0.6285  1.3917  1.1311
  402SOL     hw 1607   5.975   2.157   3.004 -2.7459 -0.4247  1.9720
  402SOL     vw 1608   5.994   2.215   3.066 -0.4761  0.1954  0.8025
  403SOL     ow 1609   6.215   6.847   5.701 -0.3013 -0.3417  0.0921
  403SOL     hw 1610   6.261   6.804   5.773 -0.3279 -0.5393 -0.0078
  403SOL     hw 1611   6.144   6.787   5.679  0.1652 -0.6418 -0.6015
  403SOL     vw 1612   6.212   6.834   5.708 -0.2432 -0.4075 -0.0126
  404SOL     ow 1613   5.958   6.135   1.098  0.4558 -0.0186  0.3689
  404SOL     hw 1614   5.863   6.123   1.089  0.1341  1.5914  1.1441
  404SOL     hw 1615   5.991   6.128   1.009 -0.0107 -3.0644  0.3396
  404SOL     vw 1616   5.950   6.133   1.085  0.3519 -0.2079  0.4673
  405SOL     ow 1617   4.359   5.843   5.094  0.3510 -0.1676 -0.0050
  405SOL     hw 1618   4.329   5.859   5.184 -0.5397 -0.5753 -0.2087
  405SOL     hw 1619   4.309   5.905   5.041 -0.3126 -0.9868 -0.3759
  405SOL     vw 1620   4.348   5.853   5.099  0.1459 -0.3297 -0.0811
  406SOL     ow 1621   2.491   5.673   5.088 -0.0547 -0.1424  0.9086
  406SOL     hw 1622   2.486   5.583   5.055 -1.3228 -0.2829  1.4324
  406SOL     hw 1623   2.545   5.719   5.024 -0.2249 -1.0459  0.0936
  406SOL     vw 1624   2.498   5.667   5.075 -0.2444 -0.2799  0.8702
  407SOL     ow 1625   2.430   5.915   4.054  0.5615  0.1290 -0.3436
  407SOL     hw 1626   2.369   5.976   4.095  1.1700  0.8889 -0.5492
  407SOL     hw 1627   2.452   5.854   4.124 -0.6559 -0.3406 -0.3501
  407SOL     vw 1628   2.425   5.915   4.069  0.4812  0.1671 -0.3717
  408SOL     ow 1629   5.727   6.898   4.609 -1.3063  0.1440 -0.3933
  408SOL     hw 1630   5.670   6.859   4.543 -1.4522  0.0797 -0.2318
  408SOL     hw 1631   5.814   6.897   4.570 -0.9295 -2.1441  0.3393
  408SOL     vw 1632   5.731   6.893   4.595 -1.2760 -0.1664 -0.2754
  409SOL     ow 1633   1.381   2.739   1.073 -0.5012  0.7180 -0.5203
  409SOL     hw 1634   1.353   2.818   1.119 -0.4278  0.9631 -0.8899
  409SOL     hw 1635   1.305   2.681   1.077  0.1479 -0.0906  1.6696
  409SOL     vw 1636   1.367   2.742   1.080 -0.4058  0.6435 -0.2801
  410SOL     ow 1637   4.769   4.062   1.180  0.1392 -0.7632 -0.5045
  410SOL     hw 1638   4.749   4.155   1.171 -1.1547 -0.6431  2.3961
  410SOL     hw 1639   4.864   4.056   1.174  0.3168  0.9040  0.2644
  410SOL     vw 1640   4.779   4.073   1.178 -0.0079 -0.5274 -0.0204
  411SOL     ow 1641   2.438   3.525   0.107  0.4701 -0.6638 -0.3331
  411SOL     hw 1642   2.363   3.525   0.047  0.9166 -1.2487 -0.9005
  411SOL     hw 1643   2.444   3.615   0.137 -0.3955 -0.5821 -0.3681
  411SOL     vw 1644   2.429   3.537   0.103  0.4148 -0.7302 -0.4126
  412SOL     ow 1645   6.763   4.140   2.412  0.1905 -0.1673  0.4724
  412SOL     hw 1646   6.696   4.180   2.468 -2.7185 -1.1498 -2.0438
  412SOL     hw 1647   6.749   4.046   2.420  1.2437 -0.3948 -0.1604
  412SOL     vw 1648   6.752   4.133   2.421 -0.0544 -0.3271  0.0570
  413SOL     ow 1649   5.989   6.798   4.785 -0.2629 -0.0152 -0.3230
  413SOL     hw 1650   6.047   6.855   4.836 -1.1730  1.0904 -0.4708
  413SOL     hw 1651   5.932   6.757   4.850 -0.7480  0.5959 -0.3607
  413SOL     vw 1652   5.989   6.800   4.800 -0.4470  0.2112 -0.3474
  414SOL     ow 1653   0.747   4.111   4.563 -0.2257 -0.4712 -0.8715
  414SOL     hw 1654   0.832   4.089   4.527 -0.0662 -2.5667  0.6410
  414SOL     hw 1655   0.744   4.207   4.560  1.7055 -0.3960 -1.9312
  414SOL     vw 1656   0.758   4.121   4.558  0.0502 -0.7379 -0.8113
  415SOL     ow 1657   2.684   5.216   3.880  0.0179  0.3261  0.4569
  415SOL     hw 1658   2.709   5.128   3.908  1.2611  1.1381  2.0739
  415SOL     hw 1659   2.761   5.250   3.833  0.7985  1.6063  2.5115
  415SOL     vw 1660   2.697   5.209   3.878  0.2849  0.6020  0.9414
  416SOL     ow 1661   5.084   2.047   1.340 -0.0528 -0.1302 -0.6531
  416SOL     hw 1662   5.107   2.137   1.361 -0.3587 -0.0671 -0.5781
  416SOL     hw 1663   5.148   2.020   1.274  1.1224 -0.4296  0.5455
  416SOL     vw 1664   5.095   2.055   1.334  0.0618 -0.1614 -0.4851
  417SOL     ow 1665   2.022   0.092   4.691 -0.7480  0.5494  0.0075
  417SOL     hw 1666   2.061   0.062   4.608 -0.3176  0.5983  0.1865
  417SOL     hw 1667   1.960   0.024   4.715 -0.7827  0.4745 -0.2940
  417SOL     vw 1668   2.019   0.079   4.683 -0.6958  0.5457 -0.0086
  418SOL     ow 1669   4.575   3.232   4.810 -0.2108  0.0857 -0.4393
  418SOL     hw 1670   4.599   3.256   4.720  0.8449  0.0834 -0.1657
  418SOL     hw 1671   4.626   3.291   4.865 -0.2505 -0.4485  0.1775
  418SOL     vw 1672   4.585   3.243   4.805 -0.0768  0.0150 -0.3221
  419SOL     ow 1673   5.225   1.048   0.776 -0.2725  0.0199  0.5723
  419SOL     hw 1674   5.291   1.057   0.844  0.2869 -2.8465  0.5149
  419SOL     hw 1675   5.149   1.095   0.810  1.7828  3.9172  0.4105
  419SOL     vw 1676   5.223   1.056   0.789  0.0725  0.1559  0.5434
  420SOL     ow 1677   5.773   4.487   2.056  0.6920  0.0303 -0.1642
  420SOL     hw 1678   5.790   4.520   2.145  1.5994  2.3001 -1.1141
  420SOL     hw 1679   5.704   4.543   2.022 -0.0597 -1.1935 -0.7408
  420SOL     vw 1680   5.766   4.499   2.063  0.7126  0.1686 -0.3655
  421SOL     ow 1681   3.757   4.552   3.391 -0.0080 -0.4766 -0.4475
  421SOL     hw 1682   3.726   4.596   3.312 -0.6981  1.8471  1.0023
  421SOL     hw 1683   3.680   4.548   3.448  0.7482 -0.9964  0.5599
  421SOL     vw 1684   3.743   4.558   3.388  0.0007 -0.2389 -0.1231
  422SOL     ow 1685   3.976   4.405   3.332 -0.0855  0.2529 -0.1572
  422SOL     hw 1686   4.061   4.450   3.335 -0.9016  1.9660 -1.1748
  422SOL     hw 1687   3.924   4.456   3.269 -1.5071 -1.4121 -0.4066
  422SOL     vw 1688   3.980   4.418   3.324 -0.3808  0.2592 -0.3244
  423SOL     ow 1689   3.289   5.714   6.468  0.1179  0.2836  0.1639
  423SOL     hw 1690   3.253   5.628   6.489  2.2613 -0.7928 -0.2059
  423SOL     hw 1691   3.226   5.776   6.503 -1.9653 -1.4236 -0.3630
  423SOL     vw 1692   3.276   5.711   6.475  0.1259 -0.0834  0.0455
  424SOL     ow 1693   3.766   0.277   6.856 -0.5710  0.3250 -0.0631
  424SOL     hw 1694   3.698   0.324   6.806 -1.3875 -1.2783 -0.5335
  424SOL     hw 1695   3.848   0.317   6.827 -1.0707 -0.0194 -2.1685
  424SOL     vw 1696   3.768   0.288   6.845 -0.7447  0.0681 -0.4032
  425SOL     ow 1697   0.909   0.086   4.752 -0.0618 -0.3060  0.1591
  425SOL     hw 1698   0.976   0.038   4.801 -1.0609 -0.3861  1.5055
  425SOL     hw 1699   0.873   0.148   4.815 -1.1839 -0.1910 -0.5665
  425SOL     vw 1700   0.913   0.087   4.767 -0.3417 -0.3014  0.2408
  426SOL     ow 1701   2.637   5.004   4.803 -0.2702  0.1548 -0.1878
  426SOL     hw 1702   2.607   4.972   4.718  0.4816 -0.0161 -0.3956
  426SOL     hw 1703   2.586   5.084   4.818 -0.1395  0.3897 -0.9678
  426SOL     vw 1704   2.626   5.010   4.794 -0.1537  0.1633 -0.3181
  427SOL     ow 1705   2.069   3.187   6.708  1.0797 -0.1519 -0.5202
  427SOL     hw 1706   2.064   3.261   6.648 -1.9592 -0.2999 -0.6216
  427SOL     hw 1707   2.061   3.227   6.795  0.6004 -0.2412 -0.5167
  427SOL     vw 1708   2.067   3.202   6.712  0.6154 -0.1833 -0.5331
  428SOL     ow 1709   2.850   0.914   1.374  0.6512 -0.0237 -0.2616
  428SOL     hw 1710   2.833   0.964   1.295  0.1760  0.5502  0.1978
  428SOL     hw 1711   2.886   0.831   1.343 -0.7590 -0.3252 -1.1538
  428SOL     vw 1712   2.852   0.909   1.360  0.4025  0.0122 -0.3187
  429SOL     ow 1713   6.599   0.772   5.923  0.7305 -0.0501  0.3473
  429SOL     hw 1714   6.619   0.861   5.949  0.1937  0.4189 -0.7667
  429SOL     hw 1715   6.599   0.774   5.827  0.3309 -1.1492  0.3054
  429SOL     vw 1716   6.601   0.784   5.913  0.6073 -0.1332  0.1948
  430SOL     ow 1717   2.457   6.982   0.382 -0.1021  0.0551 -0.9022
  430SOL     hw 1718   2.396   7.033   0.329 -0.3556 -1.6053 -2.3071
  430SOL     hw 1719   2.495   6.918   0.321  1.2576 -0.5192  0.4549
  430SOL     vw 1720   2.454   6.980   0.367  0.0439 -0.2398 -0.9085
  431SOL     ow 1721   0.681   3.531   5.247  0.1269  0.2107 -0.0358
  431SOL     hw 1722   0.775   3.547   5.257 -0.0774  1.9714 -0.5641
  431SOL     hw 1723   0.675   3.483   5.164  0.7884 -3.2486  1.7454
  431SOL     vw 1724   0.693   3.527   5.237  0.1873 -0.0135  0.1292
  432SOL     ow 1725   1.215   5.876   4.353  0.4765  0.3069  0.8153
  432SOL     hw 1726   1.309   5.855   4.353  0.6018  0.8007  1.7885
  432SOL     hw 1727   1.182   5.837   4.434 -0.3994 -0.8316 -0.0710
  432SOL     vw 1728   1.223   5.868   4.364  0.3775  0.2217  0.8264
  433SOL     ow 1729   2.333   7.020   6.811  0.2435 -0.1099  0.1126
  433SOL     hw 1730   2.309   7.077   6.884 -0.8255 -2.0482  1.3714
  433SOL     hw 1731   2.319   6.931   6.844 -0.7896 -1.0905 -2.6034
  433SOL     vw 1732   2.328   7.016   6.825 -0.0339 -0.4950 -0.0796
  434SOL     ow 1733   2.559   6.490   5.554  0.1318  0.2051 -0.6196
  434SOL     hw 1734   2.572   6.584   5.566 -1.9400  0.2561  2.2631
  434SOL     hw 1735   2.466   6.480   5.533  0.6711 -1.1619 -2.7409
  434SOL     vw 1736   2.549   6.501   5.553 -0.0705  0.0315 -0.5193
  435SOL     ow 1737   4.695   3.281   4.570  0.8842 -0.5821 -0.1063
  435SOL     hw 1738   4.735   3.354   4.618  0.4192 -0.0945 -0.4379
  435SOL     hw 1739   4.648   3.324   4.498 -2.4377 -0.8696  1.7421
  435SOL     vw 1740   4.694   3.297   4.567  0.3843 -0.5558  0.0937
  436SOL     ow 1741   0.522   3.527   1.792  0.3081  0.6553 -0.4930
  436SOL     hw 1742   0.554   3.453   1.843 -0.8935 -0.4901 -1.3359
  436SOL     hw 1743   0.501   3.595   1.857 -1.4275 -0.8473  0.6043
  436SOL     vw 1744   0.524   3.527   1.807 -0.0794  0.3060 -0.4595
  437SOL     ow 1745   6.311   1.196   4.969 -0.0890  0.1971 -0.1350
  437SOL     hw 1746   6.387   1.195   5.027 -1.1341 -1.4793  1.3181
  437SOL     hw 1747   6.265   1.277   4.990  1.5625  1.5420 -1.4746
  437SOL     vw 1748   6.315   1.207   4.980 -0.0088  0.1534 -0.1199
  438SOL     ow 1749   2.954   5.292   1.575  0.3911 -0.9247  0.3764
  438SOL     hw 1750   2.896   5.236   1.628  0.7684 -2.1611 -0.4601
  438SOL     hw 1751   2.940   5.380   1.608 -2.2483 -1.1270 -0.0414
  438SOL     vw 1752   2.945   5.296   1.586  0.0927 -1.1146  0.2109
  439SOL     ow 1753   1.932   0.841   4.270  0.3430  0.1469 -0.1410
  439SOL     hw 1754   1.840   0.860   4.252  0.7093  0.6358 -1.7011
  439SOL     hw 1755   1.950   0.886   4.353 -0.6209  0.7295 -0.2274
  439SOL     vw 1756   1.922   0.850   4.279  0.2642  0.2882 -0.3581
  440SOL     ow 1757   4.857   5.485   3.520  0.4262  0.1348  0.0553
  440SOL     hw 1758   4.788   5.443   3.570  0.3138 -1.0659 -1.0558
  440SOL     hw 1759   4.840   5.579   3.530 -2.1306 -0.1073 -1.1763
  440SOL     vw 1760   4.846   5.492   3.528  0.0741 -0.0558 -0.2537
  441SOL     ow 1761   5.878   4.938   1.817 -0.0085  0.0092 -0.0885
  441SOL     hw 1762   5.921   4.970   1.738 -1.6799  0.2221 -0.9788
  441SOL     hw 1763   5.788   4.972   1.811 -1.0783 -2.4918  0.3302
  441SOL     vw 1764   5.872   4.947   1.806 -0.3700 -0.2925 -0.1507
  442SOL     ow 1765   2.564   5.769   5.321  0.2976  0.3089 -0.2950
  442SOL     hw 1766   2.559   5.740   5.230  0.8394 -0.3247 -0.1259
  442SOL     hw 1767   2.558   5.865   5.315 -0.1512  0.2468 -0.9562
  442SOL     vw 1768   2.562   5.778   5.308  0.3098  0.2172 -0.3600
  443SOL     ow 1769   7.059   7.020   1.569 -0.1114  0.7835 -0.3235
  443SOL     hw 1770   7.011   7.073   1.633 -1.1383 -2.5924  1.9986
  443SOL     hw 1771   7.032   6.930   1.587 -0.4358 -0.5044 -5.5971
  443SOL     vw 1772   7.049   7.015   1.580 -0.2897  0.1683 -0.7130
  444SOL     ow 1773   1.967   4.833   0.044  0.2044 -0.2171 -0.2485
  444SOL     hw 1774   2.028   4.794  -0.019 -0.5074 -2.5443  0.3702
  444SOL     hw 1775   1.890   4.776   0.039  0.2607 -0.7336  2.9570
  444SOL     vw 1776   1.965   4.820   0.035  0.1179 -0.5922  0.2561
  445SOL     ow 1777   5.322   0.200   6.654  0.4075  0.1549  0.2178
  445SOL     hw 1778   5.376   0.276   6.674 -1.1116  0.7124  2.6485
  445SOL     hw 1779   5.350   0.173   6.566  0.7868  3.7183 -0.9460
  445SOL     vw 1780   5.333   0.206   6.645  0.2573  0.6986  0.3848
  446SOL     ow 1781   2.345   5.949   3.806 -0.1950 -0.0450  1.1710
  446SOL     hw 1782   2.392   6.030   3.785  0.3909 -0.7437 -0.3154
  446SOL     hw 1783   2.379   5.923   3.891  3.9054 -1.7305 -0.7620
  446SOL     vw 1784   2.355   5.956   3.814  0.4232 -0.3593  0.7199
  447SOL     ow 1785   1.060   1.610   1.871  0.7198 -0.2496 -0.2643
  447SOL     hw 1786   1.034   1.522   1.898 -1.7329  0.9001  1.3520
  447SOL     hw 1787   1.044   1.611   1.776 -1.1940 -0.9293  0.0167
  447SOL     vw 1788   1.055   1.599   1.862  0.1437 -0.1876 -0.0139
  448SOL     ow 1789   6.770   2.914   1.394 -0.2318 -1.1829  0.0118
  448SOL     hw 1790   6.858   2.893   1.426 -0.5413 -0.6439  1.2455
  448SOL     hw 1791   6.719   2.835   1.414  0.2768 -2.1109 -2.0811
  448SOL     vw 1792   6.775   2.901   1.401 -0.2055 -1.2343 -0.1016
  449SOL     ow 1793   3.939   0.215   5.210 -0.4058 -0.5039  0.1397
  449SOL     hw 1794   3.916   0.174   5.293  0.4740 -0.9725  0.1646
  449SOL     hw 1795   4.034   0.207   5.205 -0.5561 -1.7745 -1.5862
  449SOL     vw 1796   3.948   0.209   5.221 -0.3095 -0.7334 -0.0849
  450SOL     ow 1797   1.661   5.829   3.173  0.2300  0.1015  0.2330
  450SOL     hw 1798   1.604   5.861   3.243 -0.6380 -0.4731 -0.1807
  450SOL     hw 1799   1.748   5.823   3.212 -0.0948  0.5348  1.0290
  450SOL     vw 1800   1.665   5.832   3.187  0.0727  0.0827  0.2834
  451SOL     ow 1801   3.743   3.068   5.442  0.1001 -0.1854 -0.0074
  451SOL     hw 1802   3.797   3.056   5.363  0.0511 -1.1222  0.0884
  451SOL     hw 1803   3.800   3.113   5.504  0.1129  0.6475 -0.5970
  451SOL     vw 1804   3.757   3.072   5.439  0.0954 -0.1992 -0.0725
  452SOL     ow 1805   6.045   6.195   6.867 -0.2876 -0.6327  0.1230
  452SOL     hw 1806   5.967   6.218   6.918  0.7738  0.3703  1.3735
  452SOL     hw 1807   6.056   6.267   6.805 -1.6572 -1.9183 -1.7239
  452SOL     vw 1808   6.036   6.208   6.866 -0.3283 -0.6700  0.0443
  453SOL     ow 1809   6.864   5.735   6.269  0.3370  0.0428  0.6162
  453SOL     hw 1810   6.840   5.811   6.323  0.5888  1.1345 -0.7520
  453SOL     hw 1811   6.790   5.676   6.277 -1.0845  1.6129 -0.3916
  453SOL     vw 1812   6.851   5.737   6.277  0.1824  0.3939  0.3028
  454SOL     ow 1813   4.814   0.185   3.506 -0.1430 -0.0139 -0.2617
  454SOL     hw 1814   4.791   0.121   3.574  0.4758 -0.2788 -0.2929
  454SOL     hw 1815   4.882   0.239   3.546  0.7502 -0.6321 -0.9023
  454SOL     vw 1816   4.820   0.183   3.520  0.0565 -0.1304 -0.3504
  455SOL     ow 1817   0.590   6.167   0.680  0.0865 -0.1687  0.0773
  455SOL     hw 1818   0.645   6.152   0.757  0.8444 -0.5785 -0.5216
  455SOL     hw 1819   0.595   6.085   0.631  1.2926  0.7470 -1.4353
  455SOL     vw 1820   0.598   6.154   0.684  0.3456 -0.1020 -0.2013
  456SOL     ow 1821   2.003   4.061   6.866 -0.2286 -0.1607  0.1111
  456SOL     hw 1822   2.032   4.088   6.779  1.1220 -2.0762 -0.0918
  456SOL     hw 1823   1.976   3.970   6.856  2.2810 -1.2447  2.0979
  456SOL     vw 1824   2.003   4.053   6.853  0.2806 -0.5565  0.3467
  457SOL     ow 1825   1.341   5.270   4.804 -0.4592  0.1022 -0.0146
  457SOL     hw 1826   1.320   5.353   4.846 -2.5075 -0.1428 -0.4729
  457SOL     hw 1827   1.365   5.295   4.714 -1.0543  0.2145 -0.1478
  457SOL     vw 1828   1.341   5.284   4.797 -0.8080  0.0849 -0.0925
  458SOL     ow 1829   4.833   6.159   1.826 -0.2191  0.3453 -0.2407
  458SOL     hw 1830   4.902   6.221   1.852 -1.3600  2.3007 -1.6068
  458SOL     hw 1831   4.814   6.109   1.905  1.0063  1.5050  0.8344
  458SOL     vw 1832   4.840   6.160   1.840 -0.2079  0.7563 -0.2791
  459SOL     ow 1833   2.252   4.738   3.812 -0.0773  0.2203 -0.1286
  459SOL     hw 1834   2.269   4.657   3.763 -0.3613  0.2961 -0.3583
  459SOL     hw 1835   2.322   4.743   3.877 -1.0825 -1.1920  1.1390
  459SOL     vw 1836   2.263   4.728   3.814 -0.2474  0.0441  0.0083
  460SOL     ow 1837   1.881   6.450   1.562  0.0934 -0.0181 -0.6200
  460SOL     hw 1838   1.946   6.504   1.608 -0.6705  0.3652  0.0384
  460SOL     hw 1839   1.856   6.502   1.485  1.3900 -0.6679 -1.5040
  460SOL     vw 1840   1.886   6.464   1.558  0.1636 -0.0529 -0.6498
  461SOL     ow 1841   3.821   1.086   5.082  0.3885  0.1261  0.0978
  461SOL     hw 1842   3.777   1.002   5.069  1.5826 -0.4800 -0.1745
  461SOL     hw 1843   3.817   1.128   4.997 -0.7096  0.6172  0.3720
  461SOL     vw 1844   3.814   1.080   5.069  0.4011  0.1109  0.0978
  462SOL     ow 1845   2.498   5.779   2.418  0.6672  0.2688  0.0335
  462SOL     hw 1846   2.589   5.793   2.391  0.8131  1.0082  0.8708
  462SOL     hw 1847   2.484   5.841   2.489 -0.6797  0.5537 -0.4497
  462SOL     vw 1848   2.508   5.789   2.424  0.5088  0.4039  0.0802
  463SOL     ow 1849   4.857   2.127   0.342  0.3669  0.1845 -0.4160
  463SOL     hw 1850   4.915   2.051   0.334 -0.3113 -0.3152 -0.6282
  463SOL     hw 1851   4.914   2.202   0.328  0.7390 -0.3406 -1.9291
  463SOL     vw 1852   4.872   2.126   0.339  0.3262  0.0492 -0.6436
  464SOL     ow 1853   3.403   0.905   0.609 -0.2931 -0.0714 -0.4280
  464SOL     hw 1854   3.401   0.839   0.679  0.7871  1.3768  1.0483
  464SOL     hw 1855   3.494   0.933   0.605 -0.5971  0.8198 -1.5387
  464SOL     vw 1856   3.414   0.900   0.618 -0.1909  0.2372 -0.3798
  465SOL     ow 1857   1.036   6.883   5.758  0.0922  0.1333 -0.0834
  465SOL     hw 1858   0.957   6.933   5.777 -0.2777 -0.7842  0.8978
  465SOL     hw 1859   1.104   6.922   5.813  0.2452  0.6972 -0.6647
  465SOL     vw 1860   1.035   6.894   5.768  0.0636  0.0865 -0.0305
  466SOL     ow 1861   4.747   0.151   4.218  0.5940 -0.6678 -0.0745
  466SOL     hw 1862   4.813   0.116   4.159 -0.4656 -3.4350  0.2572
  466SOL     hw 1863   4.789   0.154   4.304  1.0383  0.0035 -0.3094
  466SOL     vw 1864   4.761   0.147   4.222  0.5128 -0.9444 -0.0620
  467SOL     ow 1865   6.155   3.752   4.561 -0.6795 -0.1754  0.2073
  467SOL     hw 1866   6.214   3.818   4.526  1.6185 -0.4122  3.2231
  467SOL     hw 1867   6.209   3.673   4.567 -2.0061 -1.0678  0.9492
  467SOL     vw 1868   6.170   3.750   4.557 -0.5512 -0.3244  0.7031
  468SOL     ow 1869   4.431   2.130   5.117 -0.0707 -0.5267  0.7472
  468SOL     hw 1870   4.392   2.043   5.122  1.2504 -1.1214  1.3767
  468SOL     hw 1871   4.425   2.154   5.024 -3.2681  0.1140  1.0200
  468SOL     vw 1872   4.425   2.122   5.105 -0.3181 -0.5205  0.8664
  469SOL     ow 1873   2.807   2.305   6.966 -0.3567  0.2053 -0.2167
  469SOL     hw 1874   2.895   2.343   6.955  0.3299 -1.0422  0.6935
  469SOL     hw 1875   2.781   2.279   6.878 -0.5758  2.1536 -0.7646
  469SOL     vw 1876   2.815   2.307   6.953 -0.2952  0.2978 -0.1690
  470SOL     ow 1877   5.089   4.026   4.792  0.4095 -0.3312 -0.2176
  470SOL     hw 1878   5.126   4.090   4.853 -1.5912  3.7322 -2.8091
  470SOL     hw 1879   5.023   3.979   4.844  1.2169  0.3777  1.5555
  470SOL     vw 1880   5.086   4.028   4.807  0.2522  0.2987 -0.3257
  471SOL     ow 1881   6.506   4.372   2.014 -0.5561 -0.1801  0.0865
  471SOL     hw 1882   6.451   4.309   2.061  0.1645 -0.4051  0.6489
  471SOL     hw 1883   6.520   4.332   1.928 -0.2532 -0.7214  0.3755
  471SOL     vw 1884   6.501   4.358   2.009 -0.4208 -0.2813  0.1988
  472SOL     ow 1885   5.436   5.842   0.039  0.0813  0.2701  0.4014
  472SOL     hw 1886   5.398   5.819   0.124 -3.4828  4.4405  0.2806
  472SOL     hw 1887   5.420   5.766  -0.016 -1.0699 -1.0700  2.4700
  472SOL     vw 1888   5.429   5.829   0.043 -0.5410  0.6435  0.6584
  473SOL     ow 1889   2.714   3.403   0.201 -0.1357  0.5993 -0.0984
  473SOL     hw 1890   2.739   3.492   0.225  0.1594  0.8791 -1.3308
  473SOL     hw 1891   2.783   3.347   0.236  0.1757  0.9666 -0.1271
  473SOL     vw 1892   2.726   3.407   0.209 -0.0558  0.6846 -0.2648
  474SOL     ow 1893   6.917   5.524   5.278  0.2428 -0.3293 -0.5091
  474SOL     hw 1894   6.824   5.500   5.269  0.5311 -1.1541 -1.6679
  474SOL     hw 1895   6.962   5.461   5.221  1.4294  0.6027 -0.6198
  474SOL     vw 1896   6.911   5.512   5.269  0.4373 -0.3150 -0.6766
  475SOL     ow 1897   4.914   4.189   2.738 -0.2402  0.1851 -0.3014
  475SOL     hw 1898   4.944   4.237   2.661  1.1659 -0.1527  0.0080
  475SOL     hw 1899   4.822   4.213   2.746 -0.0402  1.4036 -1.2161
  475SOL     vw 1900   4.906   4.199   2.729 -0.0284  0.3014 -0.3812
  476SOL     ow 1901   2.786   2.795   3.408  0.2489 -0.0302 -0.3998
  476SOL     hw 1902   2.742   2.808   3.324  0.6116 -1.2690 -0.8107
  476SOL     hw 1903   2.763   2.705   3.433  0.0349  0.3670  0.9019
  476SOL     vw 1904   2.777   2.785   3.401  0.2686 -0.1413 -0.2824
  477SOL     ow 1905   0.745   5.296   6.264 -0.5574 -0.1619 -0.1840
  477SOL     hw 1906   0.722   5.337   6.181  0.8728  1.3992  0.1230
  477SOL     hw 1907   0.663   5.293   6.314 -1.3631 -0.8268 -1.4983
  477SOL     vw 1908   0.731   5.301   6.260 -0.4750 -0.0436 -0.3171
  478SOL     ow 1909   0.279   1.280   4.675 -0.8030  0.6370  0.0232
  478SOL     hw 1910   0.355   1.239   4.715 -3.1065 -1.6576  2.3670
  478SOL     hw 1911   0.270   1.236   4.590 -1.4742 -1.6256  1.2132
  478SOL     vw 1912   0.288   1.269   4.669 -1.1955  0.0357  0.4892
  479SOL     ow 1913   1.644   3.623   3.860  0.8331 -0.8216  0.0885
  479SOL     hw 1914   1.687   3.585   3.783 -0.1580  0.4452 -1.1413
  479SOL     hw 1915   1.689   3.707   3.873  1.1502 -1.1200  1.0755
  479SOL     vw 1916   1.656   3.629   3.852  0.7442 -0.6938  0.0564
  480SOL     ow 1917   6.783   1.083   5.549 -0.2862 -0.2102 -0.6397
  480SOL     hw 1918   6.720   1.048   5.612 -1.1764  0.4173 -1.1474
  480SOL     hw 1919   6.741   1.072   5.464  0.9525 -1.1544 -1.1522
  480SOL     vw 1920   6.769   1.077   5.546 -0.2403 -0.2519 -0.7744
  481SOL     ow 1921   2.426   4.548   0.213 -0.3258 -0.1927 -0.4731
  481SOL     hw 1922   2.379   4.590   0.142 -1.8123 -1.2409 -0.1579
  481SOL     hw 1923   2.385   4.581   0.293 -0.1200 -0.6573 -0.1698
  481SOL     vw 1924   2.415   4.558   0.215 -0.4948 -0.3922 -0.3915
  482SOL     ow 1925   3.392   1.059   2.009  0.1784 -0.3544 -0.3025
  482SOL     hw 1926   3.403   0.967   2.031  1.3521 -0.4854 -1.3232
  482SOL     hw 1927   3.424   1.107   2.085  0.8754 -0.7920 -0.3138
  482SOL     vw 1928   3.397   1.054   2.022  0.4251 -0.4295 -0.4386
  483SOL     ow 1929   0.760   2.376   5.982  0.8502 -0.1382  0.4323
  483SOL     hw 1930   0.664   2.382   5.989  0.8866  0.2450  0.6168
  483SOL     hw 1931   0.779   2.397   5.891  0.7621 -0.1890  0.4018
  483SOL     vw 1932   0.750   2.379   5.971  0.8434 -0.0944  0.4530
  484SOL     ow 1933   6.667   2.860   5.969 -1.0515 -0.4170  0.6808
  484SOL     hw 1934   6.609   2.915   5.917  1.9928  0.9162 -1.6460
  484SOL     hw 1935   6.681   2.782   5.915  1.0589  0.3550 -0.0059
  484SOL     vw 1936   6.661   2.857   5.955 -0.3715 -0.1392  0.2832
  485SOL     ow 1937   3.576   1.757   2.555 -0.4829 -0.1156  0.1107
  485SOL     hw 1938   3.568   1.678   2.502  1.1034  0.6959 -1.4453
  485SOL     hw 1939   3.614   1.822   2.496 -0.1368  1.3243  1.8178
  485SOL     vw 1940   3.580   1.756   2.540 -0.2279  0.1814  0.1307
  486SOL     ow 1941   4.663   4.071   1.792 -0.2746  0.2896  0.3799
  486SOL     hw 1942   4.722   4.035   1.858  1.1506  0.0620 -0.9739
  486SOL     hw 1943   4.605   3.999   1.769  0.9460 -0.4567 -0.4985
  486SOL     vw 1944   4.663   4.057   1.798  0.0744  0.1612  0.0854
  487SOL     ow 1945   1.808   4.564   5.156  0.5435  0.9349  0.1267
  487SOL     hw 1946   1.794   4.557   5.251 -0.5490  1.2919  0.0078
  487SOL     hw 1947   1.725   4.536   5.118  0.4975  2.1178 -0.6848
  487SOL     vw 1948   1.795   4.559   5.164  0.3933  1.1382  0.0041
  488SOL     ow 1949   4.075   3.907   2.215  0.1808  0.4332 -0.1748
  488SOL     hw 1950   4.120   3.971   2.160  1.7237 -0.3452  0.1591
  488SOL     hw 1951   4.016   3.862   2.155 -0.5078  1.7357 -0.5346
  488SOL     vw 1952   4.073   3.910   2.200  0.2935  0.5023 -0.1781
  489SOL     ow 1953   6.335   4.214   6.371  0.3143  0.0279  0.2469
  489SOL     hw 1954   6.250   4.189   6.408 -0.1281  1.2578  0.1369
  489SOL     hw 1955   6.387   4.239   6.448 -0.5059  2.2952  0.1567
  489SOL     vw 1956   6.331   4.214   6.386  0.1478  0.4895  0.2205
  490SOL     ow 1957   0.692   6.563   6.448 -0.3762  0.1775 -0.7906
  490SOL     hw 1958   0.661   6.542   6.536  1.4252  1.1713  0.1410
  490SOL     hw 1959   0.617   6.603   6.405 -1.4897 -0.9437  0.0423
  490SOL     vw 1960   0.678   6.566   6.454 -0.2854  0.1607 -0.5579
  491SOL     ow 1961   0.823   2.384   2.424  0.3794  0.2610  0.3103
  491SOL     hw 1962   0.872   2.422   2.351 -0.5437  0.1429 -0.3865
  491SOL     hw 1963   0.880   2.315   2.458  0.6451  0.0384 -0.5760
  491SOL     vw 1964   0.837   2.380   2.419  0.2926  0.2160  0.1013
  492SOL     ow 1965   2.022   4.628   5.469 -0.4722 -0.0211 -0.1148
  492SOL     hw 1966   2.077   4.649   5.544 -0.9108 -0.4765  0.3424
  492SOL     hw 1967   2.004   4.535   5.478  1.2073 -0.5743 -1.9452
  492SOL     vw 1968   2.027   4.619   5.480 -0.3084 -0.1543 -0.2961
  493SOL     ow 1969   0.434   3.441   6.861 -0.1041 -0.2048  0.1656
  493SOL     hw 1970   0.414   3.447   6.767 -0.0210  1.6620  0.2278
  493SOL     hw 1971   0.348   3.436   6.903 -0.1714 -3.9415 -0.0452
  493SOL     vw 1972   0.420   3.441   6.854 -0.1020 -0.4516  0.1459
  494SOL     ow 1973   3.259   1.598   5.610  0.2815  0.1707 -0.2328
  494SOL     hw 1974   3.295   1.510   5.597 -0.7463 -0.2755 -0.1512
  494SOL     hw 1975   3.297   1.650   5.539  3.1667  0.4042  1.3440
  494SOL     vw 1976   3.268   1.593   5.599  0.5265  0.1426 -0.0138
  495SOL     ow 1977   1.414   5.911   0.390  0.1700  0.3414  0.1391
  495SOL     hw 1978   1.460   5.967   0.453 -0.0186  0.3160  0.2976
  495SOL     hw 1979   1.426   5.822   0.423 -1.7685  0.4729  1.3463
  495SOL     vw 1980   1.422   5.907   0.402 -0.1106  0.3550  0.3193
  496SOL     ow 1981   0.797   2.964   1.067 -0.2536  1.0335  0.1363
  496SOL     hw 1982   0.821   2.946   1.158 -1.0016  1.3963  0.4162
  496SOL     hw 1983   0.707   2.933   1.060  0.1138  0.1140 -0.7600
  496SOL     vw 1984   0.788   2.958   1.078 -0.3038  0.9599  0.0550
  497SOL     ow 1985   0.973   5.390   6.950  0.6981  0.1306 -0.2125
  497SOL     hw 1986   1.064   5.418   6.938  1.0436 -1.6097 -2.4765
  497SOL     hw 1987   0.922   5.448   6.894  1.0364 -1.5652 -2.4237
  497SOL     vw 1988   0.979   5.401   6.941  0.7884 -0.3228 -0.8032
  498SOL     ow 1989   2.058   2.158   0.055 -0.5194  0.5701  0.1820
  498SOL     hw 1990   2.033   2.246   0.027 -1.1503  0.5900  0.7650
  498SOL     hw 1991   2.041   2.158   0.149 -0.2965 -0.1021  0.2227
  498SOL     vw 1992   2.052   2.170   0.064 -0.5734  0.4840  0.2643
  499SOL     ow 1993   0.281   3.623   1.724 -0.3652 -0.1251 -0.3479
  499SOL     hw 1994   0.264   3.676   1.802 -1.2718 -2.9878  1.5643
  499SOL     hw 1995   0.198   3.623   1.676 -0.8717 -1.0313  0.4915
  499SOL     vw 1996   0.268   3.630   1.728 -0.5516 -0.6224  0.0151
  500SOL     ow 1997   5.063   5.582   4.601 -0.4914 -0.0208  0.5750
  500SOL     hw 1998   5.146   5.552   4.564  0.1716 -0.6510  2.5014
  500SOL     hw 1999   5.035   5.511   4.659 -1.5198  0.8987  1.2394
  500SOL     vw 2000   5.070   5.569   4.603 -0.5395  0.0174  0.9170
  501SOL     ow 2001   5.653   1.873   5.285  0.1870  0.1304 -0.3501
  501SOL     hw 2002   5.679   1.964   5.303 -1.7189  0.5084  0.8623
  501SOL     hw 2003   5.735   1.824   5.287  1.1411  1.6559  0.1106
  501SOL     vw 2004   5.667   1.879   5.288  0.0615  0.3815 -0.1295
  502SOL     ow 2005   5.502   5.118   1.195 -0.0614  0.2765 -0.6366
  502SOL     hw 2006   5.409   5.135   1.181 -0.0414  1.0114  0.0156
  502SOL     hw 2007   5.505   5.035   1.243 -0.3602  0.0702 -0.9738
  502SOL     vw 2008   5.490   5.110   1.200 -0.0982  0.3464 -0.5950
  503SOL     ow 2009   2.551   6.918   4.231  0.1466 -0.2011 -0.4098
  503SOL     hw 2010   2.616   6.878   4.172  1.4536  1.4697 -0.1757
  503SOL     hw 2011   2.552   6.863   4.309  1.8648  0.1799 -0.1163
  503SOL     vw 2012   2.560   6.906   4.233  0.5459  0.0696 -0.3400
  504SOL     ow 2013   0.558   6.416   3.634  0.2021 -0.5018 -0.9259
  504SOL     hw 2014   0.605   6.451   3.559  1.8785  1.4345  0.8854
  504SOL     hw 2015   0.503   6.489   3.664  0.9609 -0.5615  0.7462
  504SOL     vw 2016   0.557   6.431   3.628  0.5234 -0.2539 -0.4663
  505SOL     ow 2017   1.398   6.736   0.613 -0.1820  0.6319 -0.6618
  505SOL     hw 2018   1.359   6.751   0.527  1.0692  0.4814 -1.2768
  505SOL     hw 2019   1.479   6.687   0.595 -0.2294  0.0208  0.6524
  505SOL     vw 2020   1.404   6.732   0.599 -0.0232  0.5314 -0.5696
  506SOL     ow 2021   2.393   4.013   2.096 -0.4953 -0.3233 -0.4594
  506SOL     hw 2022   2.331   4.002   2.024 -3.6575 -2.2594  2.2580
  506SOL     hw 2023   2.436   3.928   2.104 -0.2776 -0.1766  0.0004
  506SOL     vw 2024   2.390   4.000   2.088 -0.8838 -0.5593 -0.0403
  507SOL     ow 2025   2.446   5.376   4.058  0.1555 -0.1680 -0.1769
  507SOL     hw 2026   2.482   5.463   4.043 -0.7257 -0.1251 -2.3964
  507SOL     hw 2027   2.390   5.386   4.135  1.5633  0.7168  0.7855
  507SOL     vw 2028   2.444   5.389   4.066  0.2251 -0.0458 -0.3428
  508SOL     ow 2029   2.466   6.903   3.962  0.6855 -0.3734 -0.0645
  508SOL     hw 2030   2.507   6.818   3.945  2.8185  1.0548 -3.2073
  508SOL     hw 2031   2.377   6.894   3.927  0.7186 -1.4382  0.0863
  508SOL     vw 2032   2.460   6.890   3.955  0.9712 -0.3257 -0.4592
  509SOL     ow 2033   4.671   6.684   5.250 -0.4561 -0.7079 -0.0905
  509SOL     hw 2034   4.605   6.752   5.261  2.1596  1.7776  1.8464
  509SOL     hw 2035   4.699   6.693   5.159 -1.5317 -0.5852 -0.4219
  509SOL     vw 2036   4.666   6.694   5.239 -0.2527 -0.3636  0.1211
  510SOL     ow 2037   0.936   0.479   4.584 -0.6525 -0.0093  0.0997
  510SOL     hw 2038   0.931   0.392   4.623  0.2434 -0.9440 -1.7087
  510SOL     hw 2039   0.845   0.505   4.571 -0.9539  0.0029  1.9900
  510SOL     vw 2040   0.923   0.471   4.587 -0.5741 -0.1311  0.1104
  511SOL     ow 2041   2.140   6.742   1.071 -0.4151 -0.1003 -0.1639
  511SOL     hw 2042   2.078   6.693   1.018 -0.1754 -1.0050  0.3607
  511SOL     hw 2043   2.190   6.674   1.117  0.2731  0.6330  0.1901
  511SOL     vw 2044   2.139   6.727   1.070 -0.2927 -0.1230 -0.0480
  512SOL     ow 2045   1.839   1.536   3.351 -0.5049 -0.1123 -0.3113
  512SOL     hw 2046   1.880   1.553   3.436 -0.7656  1.6616 -0.4947
  512SOL     hw 2047   1.770   1.603   3.344 -1.4778 -1.1707 -1.2839
  512SOL     vw 2048   1.835   1.547   3.361 -0.6676 -0.0179 -0.4640
  513SOL     ow 2049   6.066   3.039   1.267 -0.3497 -0.3928 -0.1810
  513SOL     hw 2050   6.080   3.057   1.174  0.5764 -2.6980 -0.5483
  513SOL     hw 2051   6.146   2.995   1.296  0.1215  1.8172  2.2009
  513SOL     vw 2052   6.078   3.035   1.259 -0.1655 -0.4053  0.0848
  514SOL     ow 2053   5.471   4.589   6.505  0.3264 -0.3791  0.0441
  514SOL     hw 2054   5.559   4.561   6.480  0.8287 -0.2631  1.5769
  514SOL     hw 2055   5.456   4.548   6.590 -0.2704  1.2702  0.7692
  514SOL     vw 2056   5.481   4.580   6.513  0.3138 -0.1464  0.3417
  515SOL     ow 2057   6.114   4.837   6.948 -0.0574  0.1910 -0.4701
  515SOL     hw 2058   6.201   4.843   6.986  0.2133  2.1868 -1.2743
  515SOL     hw 2059   6.054   4.846   7.023  0.4428  0.3853 -0.0892
  515SOL     vw 2060   6.117   4.839   6.963  0.0443  0.4799 -0.5260
  516SOL     ow 2061   4.790   6.804   5.486  0.2528  0.0597 -0.6599
  516SOL     hw 2062   4.790   6.900   5.490  0.1920  0.0618 -0.7204
  516SOL     hw 2063   4.798   6.777   5.578 -0.7653  0.1182 -0.5361
  516SOL     vw 2064   4.791   6.813   5.499  0.1104  0.0677 -0.6516
  517SOL     ow 2065   4.590   4.996   6.554  0.4152 -0.1480 -0.3438
  517SOL     hw 2066   4.621   4.968   6.640  1.7254  1.7704 -0.1351
  517SOL     hw 2067   4.495   4.994   6.560  0.3657  2.7678  2.2195
  517SOL     vw 2068   4.582   4.992   6.566  0.5813  0.4900  0.0219
  518SOL     ow 2069   5.250   2.921   3.279 -0.2087  0.2391 -0.0333
  518SOL     hw 2070   5.260   2.868   3.200  0.5165 -0.6942  0.6603
  518SOL     hw 2071   5.340   2.948   3.301 -0.2322 -0.6200  1.2022
  518SOL     vw 2072   5.263   2.917   3.271 -0.1161  0.0025  0.2211
  519SOL     ow 2073   1.805   2.404   5.964 -0.3501 -0.6012 -0.3871
  519SOL     hw 2074   1.834   2.479   6.016 -1.0554 -0.0636 -0.7473
  519SOL     hw 2075   1.735   2.365   6.016 -0.0168 -0.9913 -0.2233
  519SOL     vw 2076   1.800   2.409   5.977 -0.3992 -0.5817 -0.4134
  520SOL     ow 2077   5.904   1.596   6.257  0.2994 -0.1841 -0.6366
  520SOL     hw 2078   5.944   1.671   6.301  1.0139 -0.1422 -1.3314
  520SOL     hw 2079   5.975   1.534   6.244 -0.1078 -0.6174 -0.8305
  520SOL     vw 2080   5.918   1.598   6.261  0.3400 -0.2357 -0.7539
  521SOL     ow 2081   3.483   0.840   1.780  0.6790  0.3313 -0.2877
  521SOL     hw 2082   3.423   0.851   1.707  0.8599 -2.3626 -0.9474
  521SOL     hw 2083   3.447   0.768   1.831  2.4779 -0.2946  0.2022
  521SOL     vw 2084   3.471   0.832   1.777  0.9402 -0.1067 -0.3101
  522SOL     ow 2085   6.542   2.505   5.254  0.7825 -0.6157 -0.1836
  522SOL     hw 2086   6.482   2.466   5.191  1.4311 -0.2121 -1.0670
  522SOL     hw 2087   6.620   2.528   5.203  0.3112  2.1418  0.1618
  522SOL     vw 2088   6.544   2.503   5.239  0.8059 -0.1986 -0.2546
  523SOL     ow 2089   6.234   1.392   2.726  0.4605 -0.1403  0.2879
  523SOL     hw 2090   6.277   1.414   2.643  1.3909 -2.0773  0.1798
  523SOL     hw 2091   6.143   1.417   2.714  0.9000  1.1130 -0.6945
  523SOL     vw 2092   6.228   1.398   2.714  0.6413 -0.2306  0.1441
  524SOL     ow 2093   6.259   0.973   6.239 -0.6379 -0.0146  0.9707
  524SOL     hw 2094   6.172   1.003   6.267 -0.6729 -0.0844  0.9376
  524SOL     hw 2095   6.310   0.968   6.320  0.1111  2.4865  0.7411
  524SOL     vw 2096   6.254   0.977   6.254 -0.5436  0.3062  0.9360
  525SOL     ow 2097   3.318   5.293   5.569 -0.0754  0.0985 -0.1338
  525SOL     hw 2098   3.309   5.239   5.490  3.2792 -0.3967 -0.3218
  525SOL     hw 2099   3.346   5.231   5.637 -0.0437  0.9859  0.6830
  525SOL     vw 2100   3.321   5.277   5.568  0.3713  0.1502 -0.0510
  526SOL     ow 2101   0.930   5.506   1.915  0.5750 -0.4672 -0.9690
  526SOL     hw 2102   0.925   5.529   2.008 -2.6318  3.0983 -1.7887
  526SOL     hw 2103   0.976   5.422   1.914  2.8511  0.4100  3.5661
  526SOL     vw 2104   0.935   5.498   1.927  0.4522  0.1190 -0.4788
  527SOL     ow 2105   2.721   5.896   6.970 -0.1957  0.2720 -0.2379
  527SOL     hw 2106   2.764   5.910   7.055 -1.0007  1.2284  0.0390
  527SOL     hw 2107   2.791   5.868   6.912  0.2505 -1.1500  0.9148
  527SOL     vw 2108   2.736   5.894   6.974 -0.2431  0.2103 -0.0494
  528SOL     ow 2109   1.274   3.730   3.357  0.2891 -0.0751 -0.5665
  528SOL     hw 2110   1.190   3.690   3.376  0.5611  0.1960  1.5402
  528SOL     hw 2111   1.336   3.657   3.353  0.6075 -0.1023  2.2260
  528SOL     vw 2112   1.271   3.715   3.359  0.3670 -0.0429  0.0799
  529SOL     ow 2113   1.082   2.029   0.676  0.4007 -0.2063  0.7047
  529SOL     hw 2114   1.036   2.111   0.695  1.0782 -0.2616  2.7907
  529SOL     hw 2115   1.167   2.038   0.719  1.5410 -0.9989 -1.2385
  529SOL     vw 2116   1.087   2.041   0.684  0.6406 -0.3181  0.7236
  530SOL     ow 2117   2.775   0.749   2.121 -0.2128 -0.5185 -0.2400
  530SOL     hw 2118   2.684   0.778   2.122 -0.3768 -0.6658 -3.0341
  530SOL     hw 2119   2.826   0.829   2.133 -0.7026 -0.0758 -1.0373
  530SOL     vw 2120   2.769   0.763   2.123 -0.2990 -0.4795 -0.7138
  531SOL     ow 2121   7.010   4.362   2.260  0.2712 -0.0750  0.0180
  531SOL     hw 2122   7.074   4.315   2.207  1.2522  1.7757 -0.5199
  531SOL     hw 2123   6.926   4.327   2.232  0.8495 -0.1593 -1.7196
  531SOL     vw 2124   7.008   4.351   2.249  0.4768  0.1581 -0.2822
  532SOL     ow 2125   3.684   5.610   5.167 -0.2438 -0.0820 -0.2386
  532SOL     hw 2126   3.726   5.643   5.247 -1.1470  1.2411 -0.2683
  532SOL     hw 2127   3.683   5.515   5.178  0.6272  0.0099  0.8246
  532SOL     vw 2128   3.689   5.602   5.179 -0.2481  0.1049 -0.1025
  533SOL     ow 2129   4.624   1.104   0.242 -0.1828  0.3223  0.2648
  533SOL     hw 2130   4.545   1.125   0.192 -1.1833  0.7273  1.9463
  533SOL     hw 2131   4.660   1.189   0.267 -0.4341  0.1314  1.3216
  533SOL     vw 2132   4.618   1.118   0.238 -0.3481  0.3505  0.6261
  534SOL     ow 2133   3.013   2.092   4.581  0.1903 -0.1238  0.1570
  534SOL     hw 2134   3.086   2.063   4.527  0.4591  0.8279  0.0067
  534SOL     hw 2135   2.983   2.173   4.540 -1.5893 -0.9972 -0.3703
  534SOL     vw 2136   3.018   2.099   4.568 -0.0092 -0.1135  0.0677
  535SOL     ow 2137   4.300   1.965   5.966 -0.2016  0.2483 -0.4920
  535SOL     hw 2138   4.293   2.060   5.956 -0.6672  0.4117  1.1193
  535SOL     hw 2139   4.263   1.930   5.885 -1.7835  1.4285 -0.3291
  535SOL     vw 2140   4.294   1.973   5.954 -0.4718  0.4256 -0.2577
  536SOL     ow 2141   5.497   1.137   4.357 -0.0008  0.2056 -0.5596
  536SOL     hw 2142   5.537   1.064   4.403  2.6855  1.3330 -0.9017
  536SOL     hw 2143   5.484   1.106   4.268  2.4090  0.4668 -1.0690
  536SOL     vw 2144   5.501   1.124   4.352  0.6719  0.3887 -0.6721
  537SOL     ow 2145   4.369   1.977   3.668  0.2839 -0.2802  0.1185
  537SOL     hw 2146   4.286   1.931   3.680  1.1267 -2.1750 -0.8288
  537SOL     hw 2147   4.434   1.920   3.709  1.1689  1.0234  0.5745
  537SOL     vw 2148   4.367   1.963   3.675  0.5119 -0.3582  0.0535
  538SOL     ow 2149   1.217   2.984   6.811  0.7546  0.4621  0.1734
  538SOL     hw 2150   1.140   2.965   6.864 -0.3877  0.6835 -1.3316
  538SOL     hw 2151   1.260   2.899   6.798 -1.9496 -0.6241 -2.9649
  538SOL     vw 2152   1.213   2.970   6.816  0.2471  0.3481 -0.4394
  539SOL     ow 2153   2.947   3.041   3.471 -0.1064  0.3636 -0.0100
  539SOL     hw 2154   3.040   3.064   3.471  0.6462 -2.1336 -2.2925
  539SOL     hw 2155   2.905   3.112   3.422  0.4923  1.6677  1.2961
  539SOL     vw 2156   2.954   3.053   3.465  0.0720  0.2062 -0.1388
  540SOL     ow 2157   4.278   1.831   2.696  0.1766 -0.1891 -0.0777
  540SOL     hw 2158   4.192   1.790   2.689  0.3274 -0.7619  1.2126
  540SOL     hw 2159   4.335   1.762   2.731  0.4744  1.0420  2.0231
  540SOL     vw 2160   4.274   1.817   2.699  0.2360 -0.1023  0.3697
  541SOL     ow 2161   4.766   0.483   0.712  0.0930 -0.7484 -0.3519
  541SOL     hw 2162   4.766   0.575   0.740 -0.8812 -0.9264  0.2678
  541SOL     hw 2163   4.858   0.465   0.691  0.2258  0.5061 -0.9705
  541SOL     vw 2164   4.778   0.493   0.713 -0.0179 -0.6064 -0.3517
  542SOL     ow 2165   3.306   3.502   2.059  0.0200 -0.0503  0.2750
  542SOL     hw 2166   3.278   3.410   2.064 -0.7474  0.2513  3.3063
  542SOL     hw 2167   3.375   3.509   2.124 -0.7115  1.7609  0.9126
  542SOL     vw 2168   3.311   3.491   2.068 -0.1776  0.2285  0.7591
  543SOL     ow 2169   2.754   6.145   6.874 -0.4031  0.3660  0.4898
  543SOL     hw 2170   2.738   6.058   6.909 -0.9336 -0.2052 -1.0730
  543SOL     hw 2171   2.817   6.132   6.803 -0.3815  1.2600  0.3272
  543SOL     vw 2172   2.760   6.132   6.869 -0.4703  0.4084  0.2620
  544SOL     ow 2173   4.583   0.276   4.035  0.3718 -0.7652 -0.0213
  544SOL     hw 2174   4.627   0.233   4.108  0.6207 -2.0887 -0.9194
  544SOL     hw 2175   4.590   0.214   3.963  1.5238  1.1223 -1.6405
  544SOL     vw 2176   4.590   0.263   4.035  0.5565 -0.6908 -0.3536
  545SOL     ow 2177   5.851   0.764   0.707 -0.6700  0.1211 -0.5188
  545SOL     hw 2178   5.823   0.740   0.618  0.5458  0.0350 -0.8933
  545SOL     hw 2179   5.876   0.681   0.747 -1.4020  0.1362 -0.0150
  545SOL     vw 2180   5.851   0.750   0.700 -0.6063  0.1117 -0.5017
  546SOL     ow 2181   1.314   1.115   2.218  0.3131 -0.0086 -0.5490
  546SOL     hw 2182   1.393   1.161   2.189  0.2490 -0.0554 -0.8007
  546SOL     hw 2183   1.289   1.061   2.143 -0.0422  0.1154 -0.5223
  546SOL     vw 2184   1.321   1.114   2.205  0.2577  0.0016 -0.5788
  547SOL     ow 2185   2.127   0.180   0.541 -0.2082  0.4270  0.1391
  547SOL     hw 2186   2.086   0.132   0.469 -3.3009  0.5821  1.6311
  547SOL     hw 2187   2.055   0.201   0.600  1.6483  3.2846  1.6373
  547SOL     vw 2188   2.112   0.177   0.539 -0.3712  0.8245  0.5336
  548SOL     ow 2189   4.032   1.362   5.334  0.3199 -0.1558 -0.5573
  548SOL     hw 2190   4.097   1.303   5.372  0.8155 -0.0579 -1.2280
  548SOL     hw 2191   4.054   1.364   5.240 -1.1460 -0.7452 -0.9311
  548SOL     vw 2192   4.044   1.355   5.326  0.1919 -0.2207 -0.6950
  549SOL     ow 2193   6.123   3.524   4.837  0.0459  0.1961  0.3210
  549SOL     hw 2194   6.181   3.520   4.761  1.9262  0.6535  1.6640
  549SOL     hw 2195   6.103   3.433   4.857  0.9931 -0.0180  0.3198
  549SOL     vw 2196   6.128   3.512   4.830  0.4187  0.2282  0.4981
  550SOL     ow 2197   6.073   0.550   4.166  0.4303  0.3158 -0.0585
  550SOL     hw 2198   6.145   0.487   4.173 -0.0274 -0.5521 -2.2245
  550SOL     hw 2199   6.100   0.609   4.096 -0.8239  0.1493 -0.7053
  550SOL     vw 2200   6.086   0.550   4.158  0.2043  0.1793 -0.4294
  551SOL     ow 2201   0.407   0.263   2.562  0.3642  0.3144 -0.5323
  551SOL     hw 2202   0.358   0.199   2.614 -1.0071  2.6276  1.2113
  551SOL     hw 2203   0.352   0.278   2.485  0.0370  0.3663 -0.2911
  551SOL     vw 2204   0.393   0.257   2.559  0.1401  0.6264 -0.2705
  552SOL     ow 2205   1.243   6.890   5.243  0.4880  0.1054  0.1053
  552SOL     hw 2206   1.228   6.797   5.227  2.4059 -0.2296  0.0237
  552SOL     hw 2207   1.335   6.904   5.221  0.0285  2.2223 -0.7171
  552SOL     vw 2208   1.253   6.880   5.238  0.6804  0.3405 -0.0138
  553SOL     ow 2209   6.992   4.460   0.275 -0.2488  0.4259 -0.2452
  553SOL     hw 2210   7.024   4.386   0.224  1.1363  2.0394 -1.8737
  553SOL     hw 2211   7.011   4.437   0.366  4.9037  0.7190 -0.9268
  553SOL     vw 2212   6.999   4.447   0.281  0.6139  0.6776 -0.5500
  554SOL     ow 2213   6.716   7.042   0.648  0.1725  0.5845 -0.2780
  554SOL     hw 2214   6.660   7.116   0.673 -0.7222  0.7786 -2.6074
  554SOL     hw 2215   6.766   7.022   0.728 -0.4824  2.8501  0.7991
  554SOL     vw 2216   6.715   7.049   0.662 -0.0317  0.9093 -0.4431
  555SOL     ow 2217   1.538   5.120   4.912  0.6865 -0.0225 -0.5215
  555SOL     hw 2218   1.466   5.173   4.878  0.3599 -1.3333 -1.9783
  555SOL     hw 2219   1.606   5.127   4.846  0.9710 -0.7105 -0.3044
  555SOL     vw 2220   1.537   5.128   4.899  0.6809 -0.2863 -0.6850
  556SOL     ow 2221   2.819   0.620   0.142  0.8435  0.2010  0.3418
  556SOL     hw 2222   2.854   0.704   0.173  1.8224 -0.3412  0.7902
  556SOL     hw 2223   2.749   0.599   0.204  0.2661  0.9112 -0.0627
  556SOL     vw 2224   2.815   0.629   0.155  0.8965  0.2232  0.3476
  557SOL     ow 2225   4.942   7.017   0.881  0.1285 -0.5326  0.0389
  557SOL     hw 2226   4.867   6.957   0.877 -0.2883 -0.1155  1.0429
  557SOL     hw 2227   5.003   6.984   0.817 -0.3448 -1.6982  0.1642
  557SOL     vw 2228   4.940   7.005   0.872  0.0112 -0.6313  0.1879
  558SOL     ow 2229   4.008   4.714   1.369  0.2073  0.3572 -0.7146
  558SOL     hw 2230   4.024   4.621   1.383  2.0199  0.7941  0.4440
  558SOL     hw 2231   4.028   4.728   1.276  0.2271 -0.3391 -0.8200
  558SOL     vw 2232   4.013   4.703   1.358  0.4489  0.3233 -0.5757
  559SOL     ow 2233   0.006   4.733   0.171  0.1770  0.5929  0.0430
  559SOL     hw 2234   0.100   4.747   0.157 -0.1408  0.6298 -2.4672
  559SOL     hw 2235  -0.018   4.799   0.237  1.8307  0.7554  0.5397
  559SOL     vw 2236   0.015   4.744   0.178  0.3532  0.6192 -0.2226
  560SOL     ow 2237   2.248   5.620   2.208  0.4421 -0.2601 -0.5582
  560SOL     hw 2238   2.176   5.682   2.219  2.2024  1.7203  0.4081
  560SOL     hw 2239   2.225   5.571   2.128 -1.6854  0.6591 -0.5681
  560SOL     vw 2240   2.235   5.622   2.199  0.3936  0.1228 -0.4320
  561SOL     ow 2241   2.605   4.031   3.571  0.7432  0.1402  0.2754
  561SOL     hw 2242   2.527   4.088   3.580 -0.2752 -1.2950  0.9337
  561SOL     hw 2243   2.617   4.023   3.476 -0.7551 -0.6770  0.1140
  561SOL     vw 2244   2.596   4.038   3.560  0.4113 -0.1566  0.3411
  562SOL     ow 2245   6.106   2.350   2.383 -0.5446  0.1774  0.4689
  562SOL     hw 2246   6.107   2.346   2.479  1.6202 -2.1026  0.4513
  562SOL     hw 2247   6.196   2.375   2.359 -1.0547  0.7115 -0.9801
  562SOL     vw 2248   6.118   2.353   2.393 -0.3264 -0.0530  0.2754
  563SOL     ow 2249   3.157   0.051   3.232 -0.1977 -0.0228  0.2551
  563SOL     hw 2250   3.233   0.083   3.280 -0.2313 -1.8977  1.6783
  563SOL     hw 2251   3.087   0.045   3.297 -0.9726 -0.2697 -0.5709
  563SOL     vw 2252   3.157   0.054   3.247 -0.3043 -0.3027  0.3338
  564SOL     ow 2253   1.191   3.910   3.735  0.1560  0.5071  0.2813
  564SOL     hw 2254   1.173   3.829   3.782  1.1301  0.5890  0.8369
  564SOL     hw 2255   1.114   3.925   3.681 -0.3247 -0.4225  0.6928
  564SOL     vw 2256   1.179   3.902   3.734  0.2211  0.3952  0.4089
  565SOL     ow 2257   4.983   1.051   0.070  0.1367 -0.1220 -0.5253
  565SOL     hw 2258   4.977   0.980   0.007  0.2688 -1.3999  0.8576
  565SOL     hw 2259   5.013   1.010   0.151 -2.4895  0.9621  1.1456
  565SOL     vw 2260   4.986   1.036   0.072 -0.1924 -0.1476 -0.1223
  566SOL     ow 2261   3.211   6.567   5.579 -0.5163  0.5003 -0.2347
  566SOL     hw 2262   3.224   6.484   5.533  0.8531 -0.3600  1.5939
  566SOL     hw 2263   3.173   6.625   5.512  1.8905 -0.4838 -2.6584
  566SOL     vw 2264   3.208   6.564   5.564 -0.0180  0.2570 -0.3133
  567SOL     ow 2265   0.349   2.272   2.978 -0.1377  0.2620  0.0357
  567SOL     hw 2266   0.413   2.264   3.049  0.1659  1.8624 -0.0170
  567SOL     hw 2267   0.390   2.333   2.916 -0.6083 -0.7158 -1.2780
  567SOL     vw 2268   0.363   2.279   2.979 -0.1598  0.3442 -0.1445
  568SOL     ow 2269   3.982   5.314   0.140 -0.2129  0.6794 -0.2947
  568SOL     hw 2270   3.907   5.364   0.107  0.1462  1.6103  0.2525
  568SOL     hw 2271   4.006   5.359   0.221 -0.0362 -0.5503  0.3585
  568SOL     vw 2272   3.975   5.327   0.147 -0.1422  0.6404 -0.1363
  569SOL     ow 2273   0.677   2.766   4.409  0.2219 -0.4892  0.5493
  569SOL     hw 2274   0.593   2.806   4.384  0.6087  0.4711  0.7145
  569SOL     hw 2275   0.705   2.719   4.331 -0.4120 -0.7150  0.4500
  569SOL     vw 2276   0.669   2.765   4.396  0.1893 -0.3923  0.5579
  570SOL     ow 2277   4.689   5.797   5.074 -0.3189  0.0883  0.0250
  570SOL     hw 2278   4.701   5.879   5.121  1.0564 -0.3058  0.4007
  570SOL     hw 2279   4.745   5.734   5.120  1.3801 -0.2349 -2.2764
  570SOL     vw 2280   4.698   5.800   5.086  0.0868 -0.0062 -0.2291
  571SOL     ow 2281   5.125   5.625   3.484  0.2225 -0.0343  0.4371
  571SOL     hw 2282   5.182   5.642   3.409 -1.6206  0.6406 -0.9050
  571SOL     hw 2283   5.093   5.711   3.510 -0.5216 -0.4161  0.8414
  571SOL     vw 2284   5.128   5.638   3.477 -0.1190  0.0045  0.3132
  572SOL     ow 2285   2.778   3.199   6.883 -0.2264  0.0780 -0.1294
  572SOL     hw 2286   2.783   3.144   6.804 -2.0875 -1.5224  0.7876
  572SOL     hw 2287   2.827   3.150   6.949  0.5747  0.9896 -0.0192
  572SOL     vw 2288   2.785   3.185   6.881 -0.3662 -0.0128  0.0060
  573SOL     ow 2289   3.522   4.542   0.565 -0.4130  0.2312  0.0321
  573SOL     hw 2290   3.533   4.479   0.635  2.1143 -0.1220 -0.5806
  573SOL     hw 2291   3.589   4.519   0.501 -1.8605  1.2515 -1.9783
  573SOL     vw 2292   3.532   4.531   0.566 -0.2704  0.3190 -0.3139
  574SOL     ow 2293   0.284   6.117   0.743 -0.7021 -0.7447  0.3242
  574SOL     hw 2294   0.195   6.133   0.774 -1.2071 -1.8197 -0.5099
  574SOL     hw 2295   0.278   6.035   0.694  0.8875 -1.1695  0.7901
  574SOL     vw 2296   0.271   6.109   0.740 -0.5590 -0.9427  0.2756
  575SOL     ow 2297   5.712   4.346   4.906 -0.3009 -0.1403  0.2970
  575SOL     hw 2298   5.631   4.392   4.885 -0.0280  0.7802  1.2090
  575SOL     hw 2299   5.689   4.253   4.901 -1.2257  0.1048 -0.1293
  575SOL     vw 2300   5.699   4.340   4.903 -0.3870  0.0136  0.3612
  576SOL     ow 2301   6.041   3.589   5.578 -0.1271 -0.1426 -0.4120
  576SOL     hw 2302   5.984   3.547   5.513 -0.6415 -0.0169 -0.0487
  576SOL     hw 2303   6.108   3.524   5.597  0.8642  0.3116 -2.0982
  576SOL     vw 2304   6.042   3.575   5.572 -0.0639 -0.0660 -0.5865
  577SOL     ow 2305   5.009   0.244   3.314  0.3962  0.4371  0.2101
  577SOL     hw 2306   5.071   0.215   3.381  1.3530  2.7359  0.4178
  577SOL     hw 2307   5.062   0.259   3.237 -0.3769 -0.1797 -0.4664
  577SOL     vw 2308   5.024   0.242   3.313  0.4206  0.6590  0.1481
  578SOL     ow 2309   0.946   6.725   6.732 -0.3292 -0.2869  0.2877
  578SOL     hw 2310   0.910   6.724   6.643 -0.4540 -0.6267  0.3387
  578SOL     hw 2311   0.900   6.655   6.777  3.2790 -3.7902 -0.8160
  578SOL     vw 2312   0.935   6.715   6.726  0.1304 -0.7939  0.1488
  579SOL     ow 2313   4.085   2.802   3.204 -0.0532  0.2833 -0.4495
  579SOL     hw 2314   4.137   2.728   3.174 -0.0338  0.0262  0.2017
  579SOL     hw 2315   3.994   2.773   3.195 -0.0451  0.1629 -0.1713
  579SOL     vw 2316   4.080   2.789   3.199 -0.0501  0.2334 -0.3269
  580SOL     ow 2317   2.489   6.239   0.082  0.5298  0.3540  0.2333
  580SOL     hw 2318   2.480   6.274  -0.007 -0.2868  0.7098  0.4476
  580SOL     hw 2319   2.453   6.150   0.076 -0.2473  0.6559  0.3804
  580SOL     vw 2320   2.483   6.232   0.069  0.3196  0.4406  0.2809
  581SOL     ow 2321   6.332   6.263   3.400  0.1196  0.2118 -0.1574
  581SOL     hw 2322   6.286   6.262   3.315 -0.7785  0.2252  0.3191
  581SOL     hw 2323   6.376   6.179   3.404 -0.7432 -0.2519 -0.1583
  581SOL     vw 2324   6.331   6.252   3.389 -0.1128  0.1523 -0.0948
  582SOL     ow 2325   0.791   6.365   2.490  0.1114 -0.3483 -0.4779
  582SOL     hw 2326   0.795   6.405   2.403 -0.7930  1.4748  0.2804
  582SOL     hw 2327   0.730   6.291   2.480 -3.1841  2.1580 -0.6300
  582SOL     vw 2328   0.783   6.360   2.477 -0.4427  0.2229 -0.3979
  583SOL     ow 2329   0.603   0.463   2.488 -0.3225 -0.1824 -0.1114
  583SOL     hw 2330   0.552   0.473   2.407  0.1218 -0.1539 -0.3883
  583SOL     hw 2331   0.638   0.550   2.506 -1.8206  0.2205  1.0635
  583SOL     vw 2332   0.601   0.476   2.479 -0.4616 -0.1255  0.0070
  584SOL     ow 2333   4.135   1.311   4.665  0.4157  0.2727  0.3452
  584SOL     hw 2334   4.166   1.400   4.682 -2.6948  1.5816 -0.1969
  584SOL     hw 2335   4.116   1.309   4.571  2.6706 -1.8446 -0.1973
  584SOL     vw 2336   4.137   1.322   4.655  0.3028  0.1661  0.2022
  585SOL     ow 2337   4.328   2.472   6.876  0.5514 -0.2851 -0.0395
  585SOL     hw 2338   4.349   2.563   6.896  0.9613  0.0934 -1.9850
  585SOL     hw 2339   4.234   2.473   6.857 -0.0067 -0.7835  2.3634
  585SOL     vw 2340   4.318   2.484   6.876  0.5319 -0.3009  0.0205
  586SOL     ow 2341   5.464   3.501   2.843  0.2226  0.2842 -0.7243
  586SOL     hw 2342   5.545   3.460   2.874  1.7292  0.4199 -4.1112
  586SOL     hw 2343   5.492   3.565   2.777 -2.6462  0.0374 -2.3533
  586SOL     vw 2344   5.478   3.504   2.839  0.0427  0.2694 -1.3860
  587SOL     ow 2345   6.937   5.225   0.052  0.1643 -0.0743  0.1766
  587SOL     hw 2346   6.848   5.202   0.024 -0.4938  0.1853  1.8863
  587SOL     hw 2347   6.955   5.164   0.124  1.5627 -0.4169 -0.4450
  587SOL     vw 2348   6.928   5.214   0.058  0.2620 -0.0851  0.3202
  588SOL     ow 2349   6.428   1.435   2.529  0.0104 -0.4280 -0.3406
  588SOL     hw 2350   6.405   1.442   2.436 -1.7446 -0.8314  0.0166
  588SOL     hw 2351   6.506   1.490   2.539 -0.3828  0.4730 -1.8456
  588SOL     vw 2352   6.435   1.443   2.518 -0.2732 -0.3623 -0.4921
  589SOL     ow 2353   0.479   4.760   1.491 -0.0750  0.4580 -0.3391
  589SOL     hw 2354   0.517   4.847   1.500  0.1056  0.1895  2.2916
  589SOL     hw 2355   0.385   4.774   1.501  0.0097  0.2994  0.7576
  589SOL     vw 2356   0.472   4.773   1.494 -0.0400  0.4017  0.1527
  590SOL     ow 2357   4.544   5.134   6.283 -1.0134 -0.7371  0.1872
  590SOL     hw 2358   4.597   5.082   6.342  0.5552  0.6378  0.0548
  590SOL     hw 2359   4.597   5.143   6.204 -1.7747  0.0255 -0.2580
  590SOL     vw 2360   4.558   5.129   6.280 -0.9069 -0.4549  0.1111
  591SOL     ow 2361   4.639   5.323   3.077  0.4807  0.5309  0.3059
  591SOL     hw 2362   4.723   5.367   3.090  0.3839  0.9519 -0.3998
  591SOL     hw 2363   4.632   5.262   3.150  0.0772  2.5092  2.0399
  591SOL     vw 2364   4.649   5.321   3.088  0.4148  0.8473  0.4416
  592SOL     ow 2365   2.393   2.207   5.314  0.2401 -0.4662 -0.3286
  592SOL     hw 2366   2.476   2.187   5.272  0.4108 -2.3288  0.7645
  592SOL     hw 2367   2.387   2.145   5.387 -0.7218  1.6221  1.4970
  592SOL     vw 2368   2.403   2.196   5.318  0.1358 -0.4363  0.0565
  593SOL     ow 2369   6.558   3.649   1.879 -0.2062  0.0160 -0.1280
  593SOL     hw 2370   6.583   3.556   1.883 -2.4987 -0.7210 -0.8638
  593SOL     hw 2371   6.536   3.663   1.787 -1.4749  0.7932  0.2690
  593SOL     vw 2372   6.558   3.638   1.867 -0.6764  0.0215 -0.1727
  594SOL     ow 2373   4.448   4.174   1.997  0.1433 -0.3986 -0.1732
  594SOL     hw 2374   4.357   4.181   1.969 -0.4433 -3.2048  0.7848
  594SOL     hw 2375   4.448   4.205   2.088 -0.6119 -3.3774  0.9502
  594SOL     vw 2376   4.436   4.179   2.005 -0.0334 -1.1618  0.1014
  595SOL     ow 2377   6.556   5.201   2.685 -0.1582  0.3099  0.6138
  595SOL     hw 2378   6.515   5.114   2.685  0.4438  0.0095 -0.2592
  595SOL     hw 2379   6.504   5.252   2.747 -1.0363 -0.4331  0.5166
  595SOL     vw 2380   6.543   5.196   2.693 -0.1945  0.1724  0.4857
  596SOL     ow 2381   3.652   1.012   1.641 -0.3675 -0.6396  0.0114
  596SOL     hw 2382   3.597   1.079   1.683  0.4198  1.3397 -1.9572
  596SOL     hw 2383   3.638   1.025   1.547 -1.3872 -4.3545 -0.5113
  596SOL     vw 2384   3.643   1.022   1.634 -0.3983 -0.8686 -0.3173
  597SOL     ow 2385   3.123   2.607   6.042 -0.5275 -0.1969 -0.0657
  597SOL     hw 2386   3.203   2.563   6.071 -0.0530 -0.1227 -1.2353
  597SOL     hw 2387   3.148   2.653   5.962 -1.6095  0.2684 -0.1540
  597SOL     vw 2388   3.137   2.607   6.036 -0.6077 -0.1258 -0.2315
  598SOL     ow 2389   3.434   4.146   2.921 -0.5825 -0.1295 -0.1473
  598SOL     hw 2390   3.484   4.077   2.878  0.1561 -0.6067  1.3987
  598SOL     hw 2391   3.345   4.111   2.928 -1.3024  0.7764 -3.0337
  598SOL     vw 2392   3.429   4.132   2.916 -0.5801 -0.0732 -0.3241
  599SOL     ow 2393   5.150   3.348   2.822  0.1073  0.1417  0.0124
  599SOL     hw 2394   5.132   3.395   2.903  2.2805  1.9068 -0.4353
  599SOL     hw 2395   5.088   3.386   2.759 -0.5403 -0.1363  0.4725
  599SOL     vw 2396   5.139   3.359   2.824  0.3083  0.3380  0.0141
  600SOL     ow 2397   3.712   6.390   0.942  0.1387 -0.1699  0.2167
  600SOL     hw 2398   3.651   6.434   1.001  2.1093  3.6723 -0.2437
  600SOL     hw 2399   3.798   6.409   0.979  1.2636 -0.8535 -1.9066
  600SOL     vw 2400   3.715   6.398   0.954  0.5471  0.2468 -0.1242
  601SOL     ow 2401   6.663   4.105   4.068 -0.3499 -0.1770 -0.0086
  601SOL     hw 2402   6.736   4.047   4.047 -1.9039 -2.4793  0.4954
  601SOL     hw 2403   6.642   4.148   3.986  0.5808 -0.6570 -0.5197
  601SOL     vw 2404   6.670   4.103   4.054 -0.4323 -0.5438 -0.0095
  602SOL     ow 2405   3.408   6.435   0.370  0.3959  0.7821  0.0547
  602SOL     hw 2406   3.421   6.451   0.463  1.4727 -1.0627  0.2629
  602SOL     hw 2407   3.485   6.474   0.328  0.9711 -0.2117  0.1632
  602SOL     vw 2408   3.420   6.442   0.377  0.6139  0.4077  0.0965
  603SOL     ow 2409   1.520   6.283   6.413  0.7172 -0.4616 -0.3955
  603SOL     hw 2410   1.452   6.285   6.481  0.4410 -3.0311 -0.4921
  603SOL     hw 2411   1.478   6.319   6.336  1.3781  3.6406  0.9158
  603SOL     vw 2412   1.506   6.288   6.412  0.7680 -0.2594 -0.2353
  604SOL     ow 2413   2.765   6.351   0.041  0.0072  0.1681  0.0920
  604SOL     hw 2414   2.759   6.412  -0.033 -1.2241  1.2324  1.0495
  604SOL     hw 2415   2.698   6.285   0.023 -0.4207  0.5310  0.3448
  604SOL     vw 2416   2.756   6.350   0.029 -0.2116  0.3564  0.2517
  605SOL     ow 2417   3.051   3.440   0.807 -0.0982  0.6953  0.0797
  605SOL     hw 2418   3.083   3.474   0.724  0.3497  2.0127  0.7573
  605SOL     hw 2419   3.100   3.489   0.873 -0.4187 -0.3432  1.1226
  605SOL     vw 2420   3.062   3.451   0.805 -0.0812  0.7322  0.3067
  606SOL     ow 2421   5.290   1.151   4.570  0.0148 -0.6219 -0.1204
  606SOL     hw 2422   5.313   1.082   4.633  1.4766 -0.6585 -0.6691
  606SOL     hw 2423   5.196   1.165   4.584 -0.3064 -2.6471  0.0824
  606SOL     vw 2424   5.281   1.143   4.580  0.1652 -0.8940 -0.1657
  607SOL     ow 2425   2.697   4.245   3.839 -0.0357  0.3318 -0.0292
  607SOL     hw 2426   2.626   4.236   3.775 -0.0742 -2.0909  0.2488
  607SOL     hw 2427   2.759   4.304   3.798 -1.6030  1.4925 -0.8402
  607SOL     vw 2428   2.696   4.251   3.825 -0.2474  0.1652 -0.0994
  608SOL     ow 2429   1.258   3.927   2.747  0.6479  0.2688 -0.2101
  608SOL     hw 2430   1.335   3.931   2.690  1.1999 -1.9944  0.3073
  608SOL     hw 2431   1.206   4.003   2.721  2.5627  1.3090 -1.2515
  608SOL     vw 2432   1.261   3.938   2.736  0.9734  0.1075 -0.2791
  609SOL     ow 2433   0.961   1.836   0.809 -0.4881 -0.3579  0.4895
  609SOL     hw 2434   0.899   1.794   0.750 -1.0624  0.7786  0.2483
  609SOL     hw 2435   1.003   1.903   0.756 -0.6471  0.3418  1.2209
  609SOL     vw 2436   0.958   1.839   0.794 -0.5849 -0.1157  0.5542
  610SOL     ow 2437   5.186   5.942   6.997 -0.1185 -0.1224 -0.2093
  610SOL     hw 2438   5.133   5.890   7.057  0.6076 -2.1245 -1.2157
  610SOL     hw 2439   5.276   5.931   7.027  0.1641 -0.4129 -1.1237
  610SOL     vw 2440   5.191   5.934   7.009  0.0143 -0.4251 -0.4628
  611SOL     ow 2441   5.889   1.528   6.864 -0.7652 -0.5019 -0.1414
  611SOL     hw 2442   5.891   1.490   6.952  2.0901  2.1305  1.1182
  611SOL     hw 2443   5.979   1.524   6.835 -1.1552  1.2753 -1.7468
  611SOL     vw 2444   5.901   1.522   6.872 -0.4399  0.0799 -0.1869
  612SOL     ow 2445   5.755   3.052   2.298 -0.8499 -0.1740  0.0147
  612SOL     hw 2446   5.842   3.053   2.339 -1.2252  0.7317  0.8190
  612SOL     hw 2447   5.710   2.980   2.341 -0.3565 -0.9569 -0.7432
  612SOL     vw 2448   5.761   3.043   2.309 -0.8345 -0.1577  0.0207
  613SOL     ow 2449   5.765   0.564   4.157 -0.2696 -0.1879 -0.1344
  613SOL     hw 2450   5.673   0.539   4.164  0.3061 -1.9658  2.3429
  613SOL     hw 2451   5.775   0.636   4.220 -0.4757  1.9780 -2.4311
  613SOL     vw 2452   5.754   0.570   4.167 -0.2210 -0.1367 -0.1106
  614SOL     ow 2453   1.350   3.005   6.528  0.2919  0.2952 -0.0048
  614SOL     hw 2454   1.335   2.980   6.437 -0.4207 -0.6707  0.3595
  614SOL     hw 2455   1.439   3.042   6.529  1.4580 -2.2667 -0.6051
  614SOL     vw 2456   1.360   3.007   6.516  0.3517 -0.1704 -0.0355
  615SOL     ow 2457   5.347   0.537   2.221 -0.1246  0.3671  0.3995
  615SOL     hw 2458   5.440   0.518   2.233  0.2170  1.0048 -1.0577
  615SOL     hw 2459   5.320   0.483   2.146 -0.6472  1.0346  0.0955
  615SOL     vw 2460   5.355   0.527   2.213 -0.1483  0.5392  0.1671
  616SOL     ow 2461   2.276   5.837   6.121 -0.1303  0.1110  0.0105
  616SOL     hw 2462   2.361   5.797   6.102 -1.5202 -2.2089 -1.7688
  616SOL     hw 2463   2.216   5.763   6.128 -1.9251  1.6413  2.0215
  616SOL     vw 2464   2.279   5.822   6.120 -0.5504  0.0064  0.0412
  617SOL     ow 2465   3.765   6.694   4.475  0.1574  0.0743 -0.0153
  617SOL     hw 2466   3.848   6.742   4.467  0.3182 -0.1874  0.0572
  617SOL     hw 2467   3.745   6.696   4.569 -0.1777  0.5653 -0.0933
  617SOL     vw 2468   3.773   6.701   4.486  0.1343  0.1044 -0.0160
  618SOL     ow 2469   1.454   5.909   0.066  0.0572  0.1485 -0.4673
  618SOL     hw 2470   1.435   5.953  -0.017 -0.2980 -0.3506 -0.6565
  618SOL     hw 2471   1.499   5.828   0.040  1.9866  1.0382 -0.0560
  618SOL     vw 2472   1.458   5.904   0.051  0.2649  0.2000 -0.4380
  619SOL     ow 2473   3.569   2.570   2.852 -0.5446  0.1302 -0.3427
  619SOL     hw 2474   3.496   2.510   2.838  0.2656 -0.7981 -0.6635
  619SOL     hw 2475   3.647   2.519   2.831  0.1786  1.2357 -0.4342
  619SOL     vw 2476   3.570   2.556   2.848 -0.3424  0.1537 -0.3971
  620SOL     ow 2477   0.869   1.671   5.595 -0.2336 -0.1087  0.6297
  620SOL     hw 2478   0.776   1.683   5.614  0.4279  1.3162  3.5239
  620SOL     hw 2479   0.894   1.750   5.547 -0.4204 -0.2245  0.3445
  620SOL     vw 2480   0.860   1.683   5.591 -0.1710  0.0641  0.9739
  621SOL     ow 2481   0.866   5.282   3.349  0.3987  0.6568 -0.0706
  621SOL     hw 2482   0.852   5.363   3.301 -2.1170 -1.0668 -2.5106
  621SOL     hw 2483   0.843   5.304   3.440 -0.4012  2.6057 -0.6976
  621SOL     vw 2484   0.861   5.295   3.355 -0.0388  0.6864 -0.4752
  622SOL     ow 2485   5.629   1.567   6.337  0.0407  0.7428 -0.0568
  622SOL     hw 2486   5.711   1.565   6.287  0.5552  0.4493  0.7577
  622SOL     hw 2487   5.631   1.486   6.388 -1.8725 -0.4028 -1.6876
  622SOL     vw 2488   5.640   1.556   6.337 -0.1440  0.5530 -0.1647
  623SOL     ow 2489   2.960   6.486   0.192  0.2198 -0.4859  0.1534
  623SOL     hw 2490   2.896   6.431   0.147  0.5549  0.0994 -1.0757
  623SOL     hw 2491   2.920   6.503   0.278 -2.2622  1.5062 -1.2547
  623SOL     vw 2492   2.946   6.481   0.198 -0.0634 -0.1459 -0.1945
  624SOL     ow 2493   2.979   2.635   2.564  0.2353  0.2767 -0.7897
  624SOL     hw 2494   2.902   2.583   2.587 -0.9865  3.0828  2.5210
  624SOL     hw 2495   2.947   2.698   2.499  0.1886  0.3687 -0.6780
  624SOL     vw 2496   2.964   2.637   2.559  0.0679  0.6589 -0.3381
  625SOL     ow 2497   1.023   4.400   3.417  0.0080 -0.0078 -0.5117
  625SOL     hw 2498   1.087   4.338   3.454 -0.1682  0.2435  0.2292
  625SOL     hw 2499   0.953   4.402   3.482  0.6047  1.9669  0.1425
  625SOL     vw 2500   1.023   4.392   3.431  0.0635  0.2861 -0.3277
  626SOL     ow 2501   5.356   6.367   2.053  0.5253  0.1532 -0.3393
  626SOL     hw 2502   5.291   6.418   2.101 -0.3648 -1.3516  0.1080
  626SOL     hw 2503   5.334   6.381   1.961  0.2238  0.4919 -0.2173
  626SOL     vw 2504   5.344   6.376   2.047  0.3684 -0.0005 -0.2642
  627SOL     ow 2505   2.787   3.790   4.400 -0.3510 -0.0064 -0.3548
  627SOL     hw 2506   2.865   3.766   4.351  0.5746 -0.2033  1.1286
  627SOL     hw 2507   2.737   3.709   4.407  2.0857 -1.4505  3.4344
  627SOL     vw 2508   2.791   3.776   4.395  0.0926 -0.2229  0.3409
  628SOL     ow 2509   4.196   1.863   4.765  0.1188 -0.1020 -0.0170
  628SOL     hw 2510   4.284   1.888   4.793  0.0473 -1.4235  1.5061
  628SOL     hw 2511   4.138   1.904   4.829 -0.4019  0.8794 -1.0968
  628SOL     vw 2512   4.200   1.872   4.777  0.0405 -0.1469  0.0412
  629SOL     ow 2513   2.269   0.228   4.864 -0.2242  0.2440 -0.2958
  629SOL     hw 2514   2.351   0.178   4.858  0.3638  1.1847 -0.3745
  629SOL     hw 2515   2.298   0.319   4.874 -1.2684  0.5986 -0.4220
  629SOL     vw 2516   2.284   0.234   4.865 -0.2844  0.4149 -0.3228
  630SOL     ow 2517   5.730   6.614   3.737  0.2964 -0.5314  0.5878
  630SOL     hw 2518   5.797   6.651   3.795 -0.5494  0.6696  0.8440
  630SOL     hw 2519   5.648   6.629   3.782 -0.4386  0.8792 -1.0985
  630SOL     vw 2520   5.728   6.621   3.750  0.0880 -0.1867  0.3991
  631SOL     ow 2521   1.736   0.985   6.832  0.3203 -0.3709 -0.0965
  631SOL     hw 2522   1.658   1.038   6.850  0.9547  0.7459 -0.4931
  631SOL     hw 2523   1.736   0.975   6.737  1.7651  1.5075 -0.3732
  631SOL     vw 2524   1.726   0.991   6.822  0.5946  0.0243 -0.1855
  632SOL     ow 2525   1.393   0.802   5.036  0.0315  0.5819 -0.0584
  632SOL     hw 2526   1.309   0.814   5.081 -0.7151 -1.6910 -0.7118
  632SOL     hw 2527   1.398   0.875   4.974  0.3417  2.8833  2.4765
  632SOL     vw 2528   1.383   0.813   5.034 -0.0260  0.5856  0.1898
  633SOL     ow 2529   5.141   4.818   0.075 -0.0870  0.5628 -0.1285
  633SOL     hw 2530   5.162   4.911   0.081  0.1484  0.4383  1.2223
  633SOL     hw 2531   5.191   4.787  -0.001  1.4707  1.1242  0.6214
  633SOL     vw 2532   5.151   4.826   0.066  0.1497  0.6206  0.1487
  634SOL     ow 2533   6.795   1.407   7.004  0.4010 -0.2718  0.6066
  634SOL     hw 2534   6.711   1.454   7.002  1.2749  1.3815  0.9691
  634SOL     hw 2535   6.813   1.386   6.913  0.1213  0.3670  0.4001
  634SOL     vw 2536   6.786   1.411   6.992  0.4792  0.0306  0.6273
  635SOL     ow 2537   6.267   6.887   3.193  0.0078 -0.2073 -0.1491
  635SOL     hw 2538   6.305   6.921   3.274 -0.0656 -0.1426 -0.1411
  635SOL     hw 2539   6.296   6.796   3.189 -1.5788 -0.8008  0.9414
  635SOL     vw 2540   6.276   6.879   3.203 -0.2115 -0.2770 -0.0043
  636SOL     ow 2541   4.422   3.043   0.506 -0.2151  0.6826 -0.6548
  636SOL     hw 2542   4.479   3.098   0.560 -0.3569  0.7501 -0.5712
  636SOL     hw 2543   4.437   3.073   0.417  1.4137 -0.6872 -0.8828
  636SOL     vw 2544   4.431   3.054   0.502 -0.0191  0.5108 -0.6739
  637SOL     ow 2545   6.425   3.503   0.753  0.4259 -0.4542 -0.1874
  637SOL     hw 2546   6.429   3.560   0.677 -0.0186 -1.1059 -0.7138
  637SOL     hw 2547   6.516   3.480   0.772  0.6713  0.9672  0.4656
  637SOL     vw 2548   6.438   3.507   0.746  0.3996 -0.3526 -0.1708
  638SOL     ow 2549   0.764   3.412   5.508 -0.0438  0.4284 -0.0611
  638SOL     hw 2550   0.707   3.468   5.561 -0.5487 -0.1234 -0.0074
  638SOL     hw 2551   0.733   3.424   5.418 -0.6458 -0.3181  0.0350
  638SOL     vw 2552   0.752   3.421   5.503 -0.1898  0.2571 -0.0412
  639SOL     ow 2553   5.289   1.630   5.044 -0.2166  0.3644  0.5856
  639SOL     hw 2554   5.341   1.649   4.966 -0.8684  2.3296  0.5816
  639SOL     hw 2555   5.205   1.599   5.011 -0.9183  2.3014  0.4004
  639SOL     vw 2556   5.285   1.628   5.030 -0.3948  0.8793  0.5608
  640SOL     ow 2557   4.937   0.331   2.606 -0.2306 -0.2981  0.1329
  640SOL     hw 2558   4.942   0.416   2.649 -1.2856  0.9674 -2.0560
  640SOL     hw 2559   4.990   0.273   2.660  1.1240  1.9121  1.2967
  640SOL     vw 2560   4.944   0.335   2.619 -0.1910  0.1605 -0.0023
  641SOL     ow 2561   4.275   6.889   1.368  0.7555 -0.3121  0.6353
  641SOL     hw 2562   4.333   6.819   1.398 -1.1981 -2.6887 -0.7668
  641SOL     hw 2563   4.324   6.934   1.300  0.4568 -3.5321 -1.9556
  641SOL     vw 2564   4.289   6.885   1.363  0.4582 -1.0505  0.1085
  642SOL     ow 2565   2.735   5.329   6.294 -0.2640  0.0176  0.3500
  642SOL     hw 2566   2.747   5.384   6.216  1.2916  1.0238  1.2711
  642SOL     hw 2567   2.640   5.326   6.306 -0.4873  0.5975 -1.0473
  642SOL     vw 2568   2.724   5.336   6.285 -0.0882  0.2270  0.2871
  643SOL     ow 2569   4.196   2.078   4.108 -0.4588  0.2699 -0.4521
  643SOL     hw 2570   4.289   2.060   4.097 -0.2667  0.8228  0.1670
  643SOL     hw 2571   4.175   2.142   4.039 -0.5484 -0.3745 -1.0294
  643SOL     vw 2572   4.205   2.084   4.098 -0.4454  0.2578 -0.4468
  644SOL     ow 2573   2.292   5.705   0.459  0.6333  0.5870  0.6799
  644SOL     hw 2574   2.377   5.662   0.448  0.7334  0.2945  2.3203
  644SOL     hw 2575   2.295   5.779   0.397  1.1985 -0.6414 -0.8233
  644SOL     vw 2576   2.304   5.709   0.450  0.7211  0.3862  0.6980
  645SOL     ow 2577   2.217   3.773   6.230  0.0147  0.1784 -0.0836
  645SOL     hw 2578   2.301   3.757   6.272 -0.4681 -0.1109  0.8195
  645SOL     hw 2579   2.204   3.699   6.172  0.3279  0.1572 -0.1264
  645SOL     vw 2580   2.226   3.761   6.228 -0.0077  0.1373  0.0298
  646SOL     ow 2581   4.750   3.991   3.424 -0.3241  0.0807 -0.2051
  646SOL     hw 2582   4.680   4.036   3.377 -0.9313 -1.8614 -1.2787
  646SOL     hw 2583   4.826   4.049   3.415 -1.2073  1.1663 -0.9679
  646SOL     vw 2584   4.751   4.005   3.416 -0.5207 -0.0324 -0.4475
  647SOL     ow 2585   6.966   5.863   6.028 -0.1013 -0.2216  0.0799
  647SOL     hw 2586   7.027   5.933   6.051 -1.4090  1.5032 -1.4146
  647SOL     hw 2587   6.882   5.907   6.018 -0.6773 -1.7141 -2.4989
  647SOL     vw 2588   6.963   5.878   6.030 -0.3498 -0.1907 -0.4575
  648SOL     ow 2589   2.725   3.060   3.647  0.2724  0.3460 -0.1432
  648SOL     hw 2590   2.708   3.051   3.740 -1.2089 -3.2136 -0.5601
  648SOL     hw 2591   2.657   3.119   3.615  0.0197  0.6128  0.8709
  648SOL     vw 2592   2.714   3.066   3.655  0.0435 -0.0885 -0.0643
  649SOL     ow 2593   6.734   3.056   4.062 -0.2251  0.7125 -0.2207
  649SOL     hw 2594   6.651   3.010   4.048 -0.6189  1.0553  0.9148
  649SOL     hw 2595   6.796   3.010   4.006 -0.3843 -1.8599  1.5661
  649SOL     vw 2596   6.731   3.044   4.053 -0.2980  0.4183  0.1647
  650SOL     ow 2597   6.085   1.121   4.778 -0.2165  0.2286  0.4394
  650SOL     hw 2598   6.050   1.118   4.689  1.4958 -1.6004 -0.2482
  650SOL     hw 2599   6.033   1.188   4.822 -1.6900  0.5724 -1.6763
  650SOL     vw 2600   6.074   1.129   4.772 -0.1848  0.0327  0.0696
  651SOL     ow 2601   6.847   5.707   4.858  0.1246  0.1378 -0.0036
  651SOL     hw 2602   6.849   5.661   4.774 -0.0613  1.6608 -0.8856
  651SOL     hw 2603   6.755   5.726   4.873  0.1964  0.2092  0.3678
  651SOL     vw 2604   6.835   5.703   4.849  0.1094  0.3481 -0.0708
  652SOL     ow 2605   4.259   3.743   2.493  0.3692  0.4862  0.1291
  652SOL     hw 2606   4.248   3.690   2.573 -0.6095 -0.4118 -0.5665
  652SOL     hw 2607   4.296   3.682   2.429  0.5331  1.0205 -0.2901
  652SOL     vw 2608   4.263   3.728   2.495  0.2613  0.4382 -0.0180
  653SOL     ow 2609   1.161   4.550   6.990 -0.7715  0.6624 -1.1110
  653SOL     hw 2610   1.230   4.601   7.032 -1.1627 -0.3523  0.9264
  653SOL     hw 2611   1.079   4.594   7.014 -1.0685 -0.4985  0.1326
  653SOL     vw 2612   1.159   4.562   6.999 -0.8624  0.3753 -0.6781
  654SOL     ow 2613   1.088   5.079   5.098 -0.1061  0.3693  0.0726
  654SOL     hw 2614   1.012   5.042   5.143 -0.1075 -0.9677 -0.9604
  654SOL     hw 2615   1.071   5.174   5.097 -2.4930  0.0286 -1.3762
  654SOL     vw 2616   1.075   5.087   5.104 -0.4212  0.1478 -0.2549
  655SOL     ow 2617   6.243   0.411   0.233 -0.1354  0.1775 -0.3781
  655SOL     hw 2618   6.231   0.445   0.144 -3.7037 -0.5066 -0.3344
  655SOL     hw 2619   6.212   0.483   0.289 -0.6159 -0.3998  0.1095
  655SOL     vw 2620   6.237   0.425   0.229 -0.6695  0.0111 -0.3080
  656SOL     ow 2621   5.493   5.215   1.490 -0.3964  0.3806  0.2969
  656SOL     hw 2622   5.442   5.286   1.531  1.5896 -0.1769  4.2774
  656SOL     hw 2623   5.459   5.135   1.530  0.4084 -0.4420 -0.6207
  656SOL     vw 2624   5.482   5.214   1.501 -0.0281  0.1984  0.7011
  657SOL     ow 2625   5.690   5.165   5.523  0.3423  0.4865  0.4550
  657SOL     hw 2626   5.737   5.112   5.459  0.8041 -0.5708  1.6210
  657SOL     hw 2627   5.742   5.158   5.603 -1.2920  0.0048  1.5463
  657SOL     vw 2628   5.703   5.157   5.525  0.1876  0.2832  0.7527
  658SOL     ow 2629   1.261   6.742   1.380  0.1981 -0.1335  0.6943
  658SOL     hw 2630   1.315   6.797   1.437  0.2343 -1.0575  1.5588
  658SOL     hw 2631   1.262   6.789   1.296  1.5479  0.3684  0.9550
  658SOL     vw 2632   1.268   6.756   1.376  0.3809 -0.1891  0.8428
  659SOL     ow 2633   6.258   6.878   2.688  0.3231 -0.3581 -0.3449
  659SOL     hw 2634   6.341   6.834   2.673 -0.2864 -1.4072 -0.7841
  659SOL     hw 2635   6.217   6.882   2.602  1.0863  2.7071 -0.6742
  659SOL     vw 2636   6.263   6.872   2.675  0.3436 -0.0920 -0.4462
  660SOL     ow 2637   0.099   2.289   3.944 -0.1568 -0.1311 -0.1174
  660SOL     hw 2638   0.187   2.290   3.982  0.5078 -1.4132 -1.5246
  660SOL     hw 2639   0.041   2.307   4.018  1.3302  1.9352  0.6260
  660SOL     vw 2640   0.103   2.291   3.959  0.1271 -0.0275 -0.2050
  661SOL     ow 2641   4.438   6.969   6.575 -0.9684  0.0927 -0.0861
  661SOL     hw 2642   4.426   7.029   6.650  0.2059  0.1495  0.0811
  661SOL     hw 2643   4.380   7.004   6.507 -2.7319 -0.4586  1.0470
  661SOL     vw 2644   4.429   6.982   6.576 -1.0462  0.0274  0.0856
  662SOL     ow 2645   3.285   5.175   2.278 -0.0856 -0.2661 -0.1374
  662SOL     hw 2646   3.203   5.132   2.254  0.0767  0.2005 -1.6283
  662SOL     hw 2647   3.308   5.138   2.364 -0.6314 -2.1488 -0.7590
  662SOL     vw 2648   3.277   5.164   2.286 -0.1361 -0.4530 -0.4162
  663SOL     ow 2649   0.034   1.488   4.610  0.1043  0.1913  0.0096
  663SOL     hw 2650  -0.032   1.431   4.571 -1.6101 -0.2513  3.2151
  663SOL     hw 2651  -0.014   1.539   4.676  3.1081 -1.1941  3.6120
  663SOL     vw 2652   0.019   1.487   4.614  0.2744 -0.0499  0.9081
  664SOL     ow 2653   3.616   2.715   0.961  0.1154  0.4443 -0.2568
  664SOL     hw 2654   3.688   2.652   0.956  0.0241  0.4057 -1.7151
  664SOL     hw 2655   3.652   2.795   0.922 -0.2180  0.8410  0.2435
  664SOL     vw 2656   3.630   2.717   0.955  0.0595  0.4915 -0.3832
  665SOL     ow 2657   0.780   6.985   6.682  0.5976  0.1866 -0.2173
  665SOL     hw 2658   0.819   6.941   6.606  0.3169 -2.5477  1.0990
  665SOL     hw 2659   0.696   7.017   6.650  0.3613 -1.1712 -1.0499
  665SOL     vw 2660   0.774   6.983   6.668  0.5294 -0.3533 -0.1533
  666SOL     ow 2661   0.175   4.215   1.091 -0.2642  0.3490 -0.0112
  666SOL     hw 2662   0.261   4.172   1.081  1.4115  3.1473  1.1438
  666SOL     hw 2663   0.175   4.285   1.026 -0.9696  1.3828  1.0679
  666SOL     vw 2664   0.187   4.218   1.081 -0.1362  0.8547  0.2836
  667SOL     ow 2665   1.701   6.344   1.915 -0.4349 -0.4008  0.6852
  667SOL     hw 2666   1.707   6.250   1.899  2.1511  0.0847 -2.1972
  667SOL     hw 2667   1.626   6.373   1.863  0.2510 -0.6025 -0.4589
  667SOL     vw 2668   1.692   6.336   1.906 -0.0032 -0.3631  0.1540
  668SOL     ow 2669   6.610   6.757   5.165  0.7971 -0.2809  0.1817
  668SOL     hw 2670   6.648   6.764   5.078  0.4744  3.1626  0.1728
  668SOL     hw 2671   6.654   6.825   5.216 -1.4808  0.2220  1.6360
  668SOL     vw 2672   6.621   6.767   5.160  0.4542  0.2401  0.3724
  669SOL     ow 2673   2.829   2.063   2.892 -0.9016  0.4862  0.3053
  669SOL     hw 2674   2.751   2.110   2.863 -0.9452  0.8788  1.0263
  669SOL     hw 2675   2.856   2.012   2.817 -2.5809 -0.6194  0.4128
  669SOL     vw 2676   2.822   2.063   2.879 -1.1289  0.3921  0.4146
  670SOL     ow 2677   5.289   5.881   6.011  0.0971 -0.3621  0.3802
  670SOL     hw 2678   5.376   5.917   5.998 -0.0553  0.5651  1.6285
  670SOL     hw 2679   5.240   5.953   6.052 -0.7035 -1.4811  1.4524
  670SOL     vw 2680   5.294   5.895   6.015 -0.0288 -0.3874  0.6864
  671SOL     ow 2681   1.754   0.194   0.338 -0.1754 -0.5870  0.7474
  671SOL     hw 2682   1.832   0.139   0.327  0.0287 -0.1898  0.1528
  671SOL     hw 2683   1.694   0.141   0.390  1.1437 -0.2571  2.6835
  671SOL     vw 2684   1.756   0.180   0.343  0.0256 -0.4911  0.9244
  672SOL     ow 2685   3.321   2.525   5.233  0.3591  0.1922  0.7157
  672SOL     hw 2686   3.253   2.581   5.196  1.4661  0.9495 -0.2399
  672SOL     hw 2687   3.276   2.472   5.298 -1.6849 -1.0767 -1.5807
  672SOL     vw 2688   3.306   2.525   5.237  0.2354  0.1247  0.2866
  673SOL     ow 2689   1.738   5.151   4.668  0.1510  0.1160  0.9540
  673SOL     hw 2690   1.791   5.079   4.634  1.4252  0.3868  2.2372
  673SOL     hw 2691   1.714   5.202   4.591 -0.5062 -1.4719  0.0574
  673SOL     vw 2692   1.742   5.148   4.653  0.2325 -0.0577  1.0049
  674SOL     ow 2693   6.588   6.738   6.460  0.3065 -0.4195 -0.3124
  674SOL     hw 2694   6.601   6.656   6.412 -0.2444 -0.1130 -0.9965
  674SOL     hw 2695   6.497   6.736   6.487  0.3967 -0.2057  0.0139
  674SOL     vw 2696   6.578   6.726   6.457  0.2458 -0.3510 -0.3598
  675SOL     ow 2697   6.993   0.876   2.323 -0.5262  0.1757 -0.2236
  675SOL     hw 2698   6.899   0.866   2.336 -0.2507 -0.2946  1.7314
  675SOL     hw 2699   7.021   0.793   2.284 -0.8937  0.2741 -0.7026
  675SOL     vw 2700   6.984   0.864   2.319 -0.5381  0.1267 -0.0288
  676SOL     ow 2701   6.809   6.433   3.541 -0.0056 -0.2837  0.1113
  676SOL     hw 2702   6.874   6.442   3.471 -2.1528 -1.1567 -2.1315
  676SOL     hw 2703   6.837   6.355   3.589  0.8116 -0.4138 -0.5440
  676SOL     vw 2704   6.822   6.424   3.538 -0.1812 -0.4160 -0.2710
  677SOL     ow 2705   2.906   3.856   4.944 -0.1180 -0.4158 -0.2698
  677SOL     hw 2706   2.902   3.952   4.945  0.7486 -0.3769 -0.3545
  677SOL     hw 2707   2.999   3.835   4.944 -0.1951 -1.2195 -3.4232
  677SOL     vw 2708   2.918   3.866   4.944 -0.0139 -0.5168 -0.6971
  678SOL     ow 2709   5.169   5.539   5.996 -0.2922  0.2633  0.3827
  678SOL     hw 2710   5.094   5.572   5.946  0.1174 -2.2324 -2.1341
  678SOL     hw 2711   5.135   5.462   6.041  0.9207 -1.5961 -1.7195
  678SOL     vw 2712   5.154   5.533   5.996 -0.0780 -0.3114 -0.2267
  679SOL     ow 2713   6.714   3.886   2.032 -0.0168 -0.1558  0.4272
  679SOL     hw 2714   6.666   3.967   2.019  2.1175  1.0843 -0.1781
  679SOL     hw 2715   6.774   3.881   1.959  1.7401 -0.9101  1.8367
  679SOL     vw 2716   6.715   3.896   2.021  0.4966 -0.0916  0.5333
  680SOL     ow 2717   1.187   1.719   0.737 -0.3645  0.0917  0.5703
  680SOL     hw 2718   1.097   1.746   0.756  0.3543  1.4591  2.3931
  680SOL     hw 2719   1.218   1.681   0.819  0.5439 -0.9415 -0.2212
  680SOL     vw 2720   1.180   1.718   0.751 -0.1498  0.1358  0.7063
  681SOL     ow 2721   6.992   0.165   1.797  0.8206  0.0736  0.0596
  681SOL     hw 2722   6.993   0.137   1.889 -1.8287  0.9411  0.4549
  681SOL     hw 2723   7.007   0.260   1.801  0.0521  0.2188 -0.3151
  681SOL     vw 2724   6.994   0.174   1.810  0.3698  0.2072  0.0623
  682SOL     ow 2725   0.713   6.404   0.797 -0.0666  0.4211  0.1261
  682SOL     hw 2726   0.679   6.363   0.877  0.7618 -0.5179  0.0103
  682SOL     hw 2727   0.711   6.334   0.731  2.9711 -0.0050  0.3634
  682SOL     vw 2728   0.708   6.389   0.799  0.4435  0.2410  0.1421
  683SOL     ow 2729   2.938   5.410   1.269  0.2923  0.6279  0.1819
  683SOL     hw 2730   2.930   5.493   1.315 -2.7293 -0.4458  1.8253
  683SOL     hw 2731   2.897   5.426   1.184  3.5101  1.8647 -1.2953
  683SOL     vw 2732   2.932   5.423   1.264  0.3182  0.6495  0.2038
  684SOL     ow 2733   1.521   1.762   6.233  0.2022  0.3439  0.4421
  684SOL     hw 2734   1.600   1.799   6.194 -0.1111  0.6042  0.0353
  684SOL     hw 2735   1.508   1.679   6.187 -0.2649  0.7332 -0.1499
  684SOL     vw 2736   1.529   1.756   6.222  0.0992  0.4296  0.3102
  685SOL     ow 2737   1.745   5.203   4.187 -0.0200  0.6174 -0.1511
  685SOL     hw 2738   1.687   5.225   4.260 -0.1131  0.9958 -0.3370
  685SOL     hw 2739   1.833   5.216   4.223  0.1314 -2.6431  1.0401
  685SOL     vw 2740   1.749   5.207   4.202 -0.0123  0.2370 -0.0186
  686SOL     ow 2741   1.680   6.504   4.686 -0.1134 -0.0609  0.2389
  686SOL     hw 2742   1.655   6.589   4.649  1.5075  1.2604  1.9536
  686SOL     hw 2743   1.692   6.447   4.610 -1.9626  0.9930 -0.9151
  686SOL     vw 2744   1.678   6.508   4.671 -0.1435  0.2525  0.3126
  687SOL     ow 2745   1.864   4.969   1.289 -0.3763  0.0753 -0.8079
  687SOL     hw 2746   1.945   4.930   1.322 -0.2714  0.6153 -0.4080
  687SOL     hw 2747   1.892   5.035   1.227 -0.4639  0.8530 -0.0413
  687SOL     vw 2748   1.878   4.972   1.285 -0.3741  0.2491 -0.6540
  688SOL     ow 2749   2.668   1.411   1.311  0.4513  0.3803 -0.1922
  688SOL     hw 2750   2.700   1.453   1.232 -0.0557  1.2952  0.0755
  688SOL     hw 2751   2.575   1.432   1.314  0.6103  1.0031  1.0328
  688SOL     vw 2752   2.660   1.419   1.301  0.4054  0.5832  0.0047
  689SOL     ow 2753   6.084   0.047   3.046  0.4669 -0.6155  0.2758
  689SOL     hw 2754   6.040   0.106   2.984  1.4705  0.6861  0.7618
  689SOL     hw 2755   6.053   0.075   3.132 -1.0166 -2.4979  0.4182
  689SOL     vw 2756   6.074   0.059   3.049  0.4036 -0.6922  0.3588
  690SOL     ow 2757   2.184   5.924   1.211 -0.5655 -0.4733 -0.3488
  690SOL     hw 2758   2.234   5.932   1.130 -0.6476 -1.3047 -0.4894
  690SOL     hw 2759   2.251   5.919   1.280 -0.3329 -3.2503 -0.6700
  690SOL     vw 2760   2.200   5.925   1.210 -0.5455 -0.9494 -0.4097
  691SOL     ow 2761   0.273   0.458   6.375 -0.0910  0.4088 -0.4982
  691SOL     hw 2762   0.276   0.537   6.320  1.4467  0.5069 -0.3272
  691SOL     hw 2763   0.289   0.386   6.315 -0.7140  0.2956 -0.5315
  691SOL     vw 2764   0.276   0.459   6.360  0.0297  0.4068 -0.4799
  692SOL     ow 2765   4.499   5.090   1.291  0.2086 -0.0901  0.1309
  692SOL     hw 2766   4.588   5.103   1.323  1.5479 -1.4895 -2.5981
  692SOL     hw 2767   4.461   5.025   1.351  1.3564 -0.1720  0.7940
  692SOL     vw 2768   4.506   5.083   1.303  0.5369 -0.2856 -0.1417
  693SOL     ow 2769   3.482   2.010   6.831  0.0090  0.1563  0.5986
  693SOL     hw 2770   3.422   2.028   6.759  1.8557  3.2946 -0.3199
  693SOL     hw 2771   3.445   2.056   6.906  1.5095  2.7824 -0.1657
  693SOL     vw 2772   3.469   2.018   6.831  0.4506  0.9170  0.3767
  694SOL     ow 2773   1.761   5.184   1.462  0.1816  0.1486  0.1361
  694SOL     hw 2774   1.697   5.231   1.515 -0.5731 -0.6114 -0.0611
  694SOL     hw 2775   1.811   5.252   1.417 -2.0798  0.8143 -1.5795
  694SOL     vw 2776   1.759   5.199   1.463 -0.2164  0.1359 -0.1162
  695SOL     ow 2777   1.816   1.244   3.264  0.1336 -0.0700  0.3920
  695SOL     hw 2778   1.865   1.324   3.244  0.1030  0.1560  1.2069
  695SOL     hw 2779   1.879   1.188   3.309  0.2180 -0.6075 -0.3671
  695SOL     vw 2780   1.831   1.247   3.267  0.1407 -0.1112  0.3994
  696SOL     ow 2781   2.698   2.208   0.240 -0.5608  0.5215  0.4485
  696SOL     hw 2782   2.605   2.209   0.215 -0.9433  0.3475  1.7883
  696SOL     hw 2783   2.700   2.157   0.321  0.6926  0.6657  0.5206
  696SOL     vw 2784   2.686   2.202   0.247 -0.4460  0.5176  0.6348
  697SOL     ow 2785   1.045   3.243   7.023  0.2934  0.2222  0.0490
  697SOL     hw 2786   1.002   3.226   7.108 -1.1812  0.9287 -0.5173
  697SOL     hw 2787   1.026   3.335   7.005 -0.9963 -0.3545 -1.8603
  697SOL     vw 2788   1.037   3.253   7.032 -0.0713  0.2393 -0.2778
  698SOL     ow 2789   1.123   0.838   1.184 -0.1194  0.3246 -0.0492
  698SOL     hw 2790   1.203   0.883   1.211 -0.8720  1.3648  0.5327
  698SOL     hw 2791   1.148   0.790   1.105  1.0514  0.7175  0.0603
  698SOL     vw 2792   1.137   0.838   1.177 -0.0643  0.5137  0.0420
  699SOL     ow 2793   0.042   3.718   3.311 -0.8120 -0.1051 -0.3807
  699SOL     hw 2794  -0.007   3.636   3.302 -0.2401 -0.4998 -0.0163
  699SOL     hw 2795   0.097   3.722   3.233  0.5539 -1.0497  0.4820
  699SOL     vw 2796   0.043   3.708   3.300 -0.5564 -0.2817 -0.2187
  700SOL     ow 2797   5.986   5.985   0.125  0.3444 -1.2189  0.2731
  700SOL     hw 2798   6.066   6.028   0.093 -0.8998  1.1796  0.1664
  700SOL     hw 2799   6.013   5.943   0.207  1.5253  0.4361  0.7973
  700SOL     vw 2800   6.000   5.985   0.132  0.3362 -0.6843  0.3282
  701SOL     ow 2801   1.690   1.712   5.128  0.0852 -0.7816 -0.2447
  701SOL     hw 2802   1.730   1.636   5.170  1.5858  0.3341  0.4371
  701SOL     hw 2803   1.602   1.682   5.104 -0.7027 -1.6815  3.1932
  701SOL     vw 2804   1.683   1.698   5.130  0.1792 -0.7531  0.2990
  702SOL     ow 2805   5.039   2.647   5.755  0.2513 -0.7894 -0.0658
  702SOL     hw 2806   5.029   2.742   5.764 -0.0644 -0.8731  0.5107
  702SOL     hw 2807   4.989   2.625   5.676 -0.6421 -0.6236  0.4343
  702SOL     vw 2808   5.031   2.657   5.746  0.0920 -0.7786  0.0763
  703SOL     ow 2809   4.195   6.157   0.389  0.5287 -0.4577 -0.4227
  703SOL     hw 2810   4.124   6.096   0.412  0.0817  0.4029  0.5782
  703SOL     hw 2811   4.270   6.101   0.369  0.7504 -1.3472  2.4973
  703SOL     vw 2812   4.195   6.142   0.389  0.4990 -0.4618  0.0946
  704SOL     ow 2813   5.455   2.836   5.322 -0.0969 -0.3342 -0.3510
  704SOL     hw 2814   5.527   2.774   5.320  0.5485  0.4139 -0.8514
  704SOL     hw 2815   5.455   2.871   5.411  2.7116  2.5388 -1.3147
  704SOL     vw 2816   5.464   2.832   5.334  0.3588  0.1434 -0.5441
  705SOL     ow 2817   3.752   6.085   1.028  0.1200  0.0085  0.6836
  705SOL     hw 2818   3.757   5.991   1.009 -3.4390 -0.5412  1.6012
  705SOL     hw 2819   3.714   6.089   1.116  0.0069  2.2930  0.5760
  705SOL     vw 2820   3.747   6.073   1.037 -0.3644  0.2372  0.7905
  706SOL     ow 2821   4.773   5.121   1.418  0.3162 -0.0798 -0.0607
  706SOL     hw 2822   4.823   5.082   1.348  0.6769  0.1397  0.0732
  706SOL     hw 2823   4.765   5.052   1.484 -0.3339 -0.4048 -0.4636
  706SOL     vw 2824   4.778   5.107   1.418  0.2782 -0.0937 -0.0961
  707SOL     ow 2825   2.894   5.141   4.933  0.2009 -0.2065 -0.9640
  707SOL     hw 2826   2.981   5.178   4.952  0.2141  0.0812 -1.5926
  707SOL     hw 2827   2.848   5.145   5.017  0.3971  0.7077 -0.8930
  707SOL     vw 2828   2.900   5.146   4.947  0.2285 -0.0479 -1.0374
  708SOL     ow 2829   5.618   6.147   5.448 -0.1301 -0.0116  0.1638
  708SOL     hw 2830   5.652   6.236   5.454 -0.4696  0.0751  0.9483
  708SOL     hw 2831   5.650   6.104   5.528 -1.7591  0.0492  0.8919
  708SOL     vw 2832   5.626   6.153   5.460 -0.3896  0.0079  0.3633
  709SOL     ow 2833   4.794   1.453   3.214  0.6243 -0.3565 -0.4441
  709SOL     hw 2834   4.786   1.533   3.266  0.0386  0.2010 -1.3619
  709SOL     hw 2835   4.816   1.484   3.126  1.2449 -1.2615 -0.6157
  709SOL     vw 2836   4.796   1.468   3.210  0.6287 -0.4024 -0.5879
  710SOL     ow 2837   6.483   2.043   6.700  0.8004 -0.2517  0.0342
  710SOL     hw 2838   6.550   2.107   6.725  0.1016  0.1825  0.8678
  710SOL     hw 2839   6.506   2.017   6.611  0.7951  1.5771 -0.5363
  710SOL     vw 2840   6.495   2.048   6.692  0.7079  0.0468  0.0687
  711SOL     ow 2841   4.476   1.907   2.487 -0.0367  0.2049 -0.0575
  711SOL     hw 2842   4.566   1.929   2.463  0.1512  1.4584  1.5726
  711SOL     hw 2843   4.441   1.861   2.411  1.4326  1.2171 -1.4165
  711SOL     vw 2844   4.483   1.904   2.474  0.1819  0.5038 -0.0217
  712SOL     ow 2845   5.110   2.975   1.162 -0.1254 -0.4987 -0.0055
  712SOL     hw 2846   5.084   2.927   1.083 -0.7456  0.7851 -0.6242
  712SOL     hw 2847   5.204   2.990   1.151 -0.2486 -0.1361 -0.6186
  712SOL     vw 2848   5.119   2.971   1.150 -0.2236 -0.2813 -0.1680
  713SOL     ow 2849   1.042   1.229   2.354  0.0650 -0.3358 -0.0320
  713SOL     hw 2850   0.989   1.158   2.317  0.7186 -1.4612  1.0935
  713SOL     hw 2851   0.991   1.262   2.427  0.5643 -0.9217  0.5950
  713SOL     vw 2852   1.028   1.224   2.358  0.2171 -0.5616  0.1992
  714SOL     ow 2853   5.548   6.813   4.426  0.1073 -0.0575  0.3185
  714SOL     hw 2854   5.504   6.789   4.508  2.7713 -2.4264  1.2162
  714SOL     hw 2855   5.581   6.730   4.391  0.6730  1.1256 -2.2225
  714SOL     vw 2856   5.546   6.799   4.432  0.5333 -0.2141  0.1018
  715SOL     ow 2857   3.245   3.813   3.684  0.2452  0.2487  0.4366
  715SOL     hw 2858   3.279   3.900   3.663  0.8722 -0.0984  0.0202
  715SOL     hw 2859   3.317   3.768   3.727 -0.8346  0.7693  3.0074
  715SOL     vw 2860   3.259   3.818   3.687  0.1855  0.2717  0.7207
  716SOL     ow 2861   1.928   3.783   6.211 -1.2596 -0.5327 -0.4708
  716SOL     hw 2862   1.895   3.704   6.254 -3.5345  0.3374 -0.4907
  716SOL     hw 2863   1.912   3.767   6.118 -0.8624 -0.4243 -0.5574
  716SOL     vw 2864   1.921   3.771   6.204 -1.5073 -0.4035 -0.4849
  717SOL     ow 2865   5.120   1.496   0.105  0.2417  0.5519 -0.0007
  717SOL     hw 2866   5.111   1.506   0.200  1.2769  2.5532 -0.0650
  717SOL     hw 2867   5.145   1.583   0.074 -0.2038 -0.0291 -2.1399
  717SOL     vw 2868   5.122   1.509   0.114  0.3195  0.7392 -0.2914
  718SOL     ow 2869   5.585   3.765   3.821  0.2355  0.0251  0.2323
  718SOL     hw 2870   5.662   3.817   3.843 -0.6637  1.8010 -0.6207
  718SOL     hw 2871   5.603   3.679   3.858  2.4850  0.4686  0.3023
  718SOL     vw 2872   5.597   3.761   3.829  0.4137  0.3181  0.1291
  719SOL     ow 2873   0.297   6.920   0.497 -0.2098  0.1761 -0.3013
  719SOL     hw 2874   0.234   6.888   0.562 -0.3060  0.0680 -0.4442
  719SOL     hw 2875   0.272   6.874   0.416  2.1089 -2.4920  0.3317
  719SOL     vw 2876   0.285   6.909   0.495  0.0834 -0.1903 -0.2366
  720SOL     ow 2877   6.526   4.253   4.302  0.3909 -0.3375  0.4828
  720SOL     hw 2878   6.580   4.330   4.321 -1.0213  1.4606 -2.0893
  720SOL     hw 2879   6.442   4.272   4.343 -0.2215 -0.0411 -0.8390
  720SOL     vw 2880   6.522   4.266   4.310  0.1237 -0.0610 -0.0308
  721SOL     ow 2881   1.543   0.630   5.235 -0.9321  0.9044 -0.4731
  721SOL     hw 2882   1.519   0.576   5.310  0.6208  0.3866 -0.2943
  721SOL     hw 2883   1.568   0.714   5.273 -1.8391  1.2390 -0.5983
  721SOL     vw 2884   1.543   0.634   5.249 -0.8469  0.8802 -0.4661
  722SOL     ow 2885   0.216   0.562   3.136  0.1291 -0.0710  0.1434
  722SOL     hw 2886   0.306   0.538   3.117  0.5324 -0.5447  2.3985
  722SOL     hw 2887   0.223   0.632   3.202 -1.1472  0.3215 -0.1082
  722SOL     vw 2888   0.228   0.568   3.142  0.0139 -0.0817  0.4078
  723SOL     ow 2889   1.937   6.180   1.687 -0.3791 -0.0026 -1.0762
  723SOL     hw 2890   2.024   6.175   1.727 -1.0209  0.9731  0.4917
  723SOL     hw 2891   1.878   6.142   1.752 -1.3324  0.7330 -1.4920
  723SOL     vw 2892   1.941   6.174   1.701 -0.5895  0.2232 -0.9242
  724SOL     ow 2893   0.009   2.780   1.796 -0.3239 -0.2620  0.9676
  724SOL     hw 2894   0.035   2.867   1.765  0.0654 -0.9047 -0.6012
  724SOL     hw 2895  -0.062   2.754   1.738  0.8642 -1.7846  0.1239
  724SOL     vw 2896   0.003   2.788   1.784 -0.1159 -0.5476  0.6493
  725SOL     ow 2897   0.863   2.442   6.267  0.0992 -0.4080  0.4047
  725SOL     hw 2898   0.783   2.482   6.300 -0.0862  0.0263 -0.5277
  725SOL     hw 2899   0.927   2.453   6.337  0.3092  2.3321 -0.1261
  725SOL     vw 2900   0.861   2.449   6.280  0.1024  0.0108  0.2117
  726SOL     ow 2901   2.350   0.484   4.913  0.2892  0.1463  0.2791
  726SOL     hw 2902   2.405   0.553   4.876 -0.0097  0.5723  0.6274
  726SOL     hw 2903   2.336   0.509   5.004  0.1384 -0.3489  0.3967
  726SOL     vw 2904   2.356   0.496   4.920  0.2298  0.1371  0.3407
  727SOL     ow 2905   2.250   6.260   6.135 -0.2494 -0.3362  0.1181
  727SOL     hw 2906   2.293   6.203   6.198  0.7372 -0.0056 -0.2367
  727SOL     hw 2907   2.278   6.348   6.159 -0.5629 -0.1325 -0.2533
  727SOL     vw 2908   2.259   6.264   6.146 -0.1606 -0.2656  0.0224
  728SOL     ow 2909   0.807   3.663   1.805 -0.5602 -0.2550 -0.5039
  728SOL     hw 2910   0.725   3.622   1.779  0.3147 -1.3522 -1.6813
  728SOL     hw 2911   0.803   3.751   1.769 -1.4948 -0.0645  0.0371
  728SOL     vw 2912   0.796   3.669   1.797 -0.5681 -0.3746 -0.5878
  729SOL     ow 2913   5.837   1.099   0.756  0.8871  0.0596  0.1392
  729SOL     hw 2914   5.790   1.120   0.836  2.3297  2.7318  0.4208
  729SOL     hw 2915   5.793   1.151   0.688 -0.3724 -2.2365 -0.8846
  729SOL     vw 2916   5.825   1.109   0.757  0.9112  0.1093  0.0413
  730SOL     ow 2917   3.168   0.807   0.443 -0.2102 -0.2007 -0.5874
  730SOL     hw 2918   3.106   0.820   0.371 -0.5647 -0.1623 -0.2802
  730SOL     hw 2919   3.117   0.765   0.512 -0.2504  1.0085  0.1699
  730SOL     vw 2920   3.153   0.803   0.443 -0.2623 -0.0361 -0.4470
  731SOL     ow 2921   5.675   1.710   6.061 -0.1646 -0.1687  0.1109
  731SOL     hw 2922   5.698   1.737   6.150 -0.8054  1.2545 -0.1227
  731SOL     hw 2923   5.729   1.765   6.005  1.1712 -1.9357 -0.4117
  731SOL     vw 2924   5.685   1.721   6.066 -0.0730 -0.2141  0.0112
  732SOL     ow 2925   0.888   7.001   4.461  0.7868 -0.1016  0.4768
  732SOL     hw 2926   0.976   7.032   4.439  0.5248  0.3390  0.0175
  732SOL     hw 2927   0.888   6.908   4.437  0.3037  0.5030 -2.1581
  732SOL     vw 2928   0.899   6.992   4.455  0.6885  0.0362  0.0687
  733SOL     ow 2929   5.448   6.175   5.740  0.2402 -1.0695 -0.1153
  733SOL     hw 2930   5.449   6.092   5.693 -0.3090 -1.1936  0.0857
  733SOL     hw 2931   5.355   6.198   5.747  0.4240 -0.0356 -0.8622
  733SOL     vw 2932   5.436   6.167   5.735  0.1919 -0.9496 -0.1876
  734SOL     ow 2933   7.005   1.079   5.687 -1.3298 -0.1707  0.2891
  734SOL     hw 2934   6.983   1.105   5.777 -2.1324  0.5533 -0.0957
  734SOL     hw 2935   6.925   1.096   5.638 -0.1348  1.9422 -1.0634
  734SOL     vw 2936   6.991   1.085   5.693 -1.2779  0.2036  0.0598
  735SOL     ow 2937   2.596   4.808   4.566 -0.0968  0.1398  0.6124
  735SOL     hw 2938   2.575   4.803   4.473  0.3471 -1.9369  0.5910
  735SOL     hw 2939   2.526   4.761   4.610  2.0093 -3.0119  0.8801
  735SOL     vw 2940   2.584   4.801   4.559  0.2397 -0.5498  0.6447
  736SOL     ow 2941   6.195   2.940   7.043  0.5883 -0.1679  0.5674
  736SOL     hw 2942   6.213   2.899   7.127 -2.4069 -0.5535  1.1301
  736SOL     hw 2943   6.145   3.018   7.064 -1.2894 -0.9224 -0.8504
  736SOL     vw 2944   6.191   2.945   7.056 -0.0544 -0.3184  0.4547
  737SOL     ow 2945   6.718   5.981   3.171  0.0267 -0.1604 -0.3971
  737SOL     hw 2946   6.745   5.990   3.079  0.1558 -0.3721 -0.3793
  737SOL     hw 2947   6.786   5.927   3.211 -1.0728 -1.8112 -0.6581
  737SOL     vw 2948   6.731   5.975   3.164 -0.1013 -0.4060 -0.4293
  738SOL     ow 2949   4.026   5.005   0.218 -0.1532 -0.4060  0.6270
  738SOL     hw 2950   4.060   5.041   0.300 -0.4093  0.7339  0.2517
  738SOL     hw 2951   3.958   4.943   0.245 -0.6187  0.3622  1.2815
  738SOL     vw 2952   4.021   5.002   0.232 -0.2484 -0.1540  0.6638
  739SOL     ow 2953   0.844   3.585   2.107 -0.1679  0.7403 -0.1124
  739SOL     hw 2954   0.854   3.630   2.191  1.6194 -0.0472  0.1264
  739SOL     hw 2955   0.771   3.525   2.121  1.6337 -1.1544  1.7189
  739SOL     vw 2956   0.836   3.583   2.120  0.3056  0.3864  0.1608
  740SOL     ow 2957   1.591   1.113   3.411 -0.2107 -0.1711 -0.3041
  740SOL     hw 2958   1.651   1.107   3.485  0.9474  0.3292 -1.1561
  740SOL     hw 2959   1.590   1.025   3.374  0.8131  0.0247 -0.8597
  740SOL     vw 2960   1.599   1.101   3.416  0.0771 -0.0792 -0.4898
  741SOL     ow 2961   0.702   4.543   1.491  0.5602 -0.1537 -0.1365
  741SOL     hw 2962   0.741   4.630   1.502  0.3141 -0.1107  0.3910
  741SOL     hw 2963   0.733   4.493   1.566  0.0829 -0.2972 -0.0324
  741SOL     vw 2964   0.711   4.548   1.502  0.4648 -0.1669 -0.0533
  742SOL     ow 2965   0.865   2.071   7.038 -0.0256  0.5010  0.5921
  742SOL     hw 2966   0.954   2.036   7.041 -0.4184 -0.8159 -1.0862
  742SOL     hw 2967   0.828   2.035   6.957 -1.3062  2.9373 -0.0208
  742SOL     vw 2968   0.872   2.062   7.028 -0.2464  0.6487  0.2899
  743SOL     ow 2969   4.529   1.275   3.263 -0.3564 -0.4687 -0.2449
  743SOL     hw 2970   4.482   1.212   3.318  1.7440 -1.8115  0.1403
  743SOL     hw 2971   4.477   1.355   3.269 -3.1645 -2.0897 -0.7651
  743SOL     vw 2972   4.516   1.277   3.271 -0.4497 -0.8597 -0.2626
  744SOL     ow 2973   4.386   2.165   3.904  0.0335 -0.3271  0.7300
  744SOL     hw 2974   4.310   2.213   3.872 -0.6507 -0.2114  2.4338
  744SOL     hw 2975   4.404   2.100   3.837  0.4557  1.7041 -1.2507
  744SOL     vw 2976   4.379   2.163   3.891 -0.0014 -0.0437  0.6934
  745SOL     ow 2977   6.189   6.100   0.007 -0.7193 -0.0875 -0.1330
  745SOL     hw 2978   6.228   6.026  -0.039  0.2601  1.6286 -2.2534
  745SOL     hw 2979   6.141   6.148  -0.061 -1.8148  0.9272  1.2963
  745SOL     vw 2980   6.188   6.096  -0.008 -0.7346  0.2728 -0.2241
  746SOL     ow 2981   3.744   5.698   4.606  0.1436 -0.1437  0.6492
  746SOL     hw 2982   3.759   5.614   4.563  1.7296 -2.2435  4.7592
  746SOL     hw 2983   3.832   5.733   4.621 -0.3017  0.4250  2.1206
  746SOL     vw 2984   3.757   5.691   4.602  0.2942 -0.3455  1.3859
  747SOL     ow 2985   2.498   3.391   5.998 -0.0466 -0.0040 -0.2162
  747SOL     hw 2986   2.488   3.337   5.920  0.2591 -0.4952  0.0840
  747SOL     hw 2987   2.587   3.373   6.029  0.0767  0.7070 -0.1391
  747SOL     vw 2988   2.508   3.382   5.992  0.0100  0.0250 -0.1664
  748SOL     ow 2989   1.670   0.660   2.445 -0.2844  0.0897  0.2199
  748SOL     hw 2990   1.649   0.752   2.431 -0.4205  0.0921  0.4238
  748SOL     hw 2991   1.765   0.658   2.456 -0.2910  0.2198  0.3026
  748SOL     vw 2992   1.679   0.672   2.445 -0.3032  0.1072  0.2577
  749SOL     ow 2993   0.085   3.244   5.347  0.4024 -0.3299 -1.0775
  749SOL     hw 2994   0.138   3.322   5.364 -0.8014  0.6216 -1.5444
  749SOL     hw 2995   0.124   3.176   5.402 -0.5444  1.4139  1.9869
  749SOL     vw 2996   0.097   3.245   5.356  0.1186  0.0257 -0.7348
  750SOL     ow 2997   3.467   5.467   6.217  0.0026  0.1371  0.0978
  750SOL     hw 2998   3.495   5.419   6.296 -0.1952  1.8371  1.2589
  750SOL     hw 2999   3.376   5.490   6.234  0.0768  0.8617 -0.4428
  750SOL     vw 3000   3.459   5.463   6.230 -0.0136  0.4568  0.1800
  751SOL     ow 3001   5.214   5.675   3.228  0.0123 -0.4946 -0.7504
  751SOL     hw 3002   5.272   5.671   3.153  2.4073  2.1420  0.7293
  751SOL     hw 3003   5.171   5.761   3.221 -0.4925 -0.6266  0.3650
  751SOL     vw 3004   5.216   5.686   3.217  0.2615 -0.1643 -0.4078
  752SOL     ow 3005   5.534   2.229   4.719 -0.4441 -0.2230  0.5321
  752SOL     hw 3006   5.488   2.311   4.700 -0.9137 -0.0960  2.0520
  752SOL     hw 3007   5.532   2.180   4.637  0.2374  1.4620 -0.5303
  752SOL     vw 3008   5.528   2.233   4.706 -0.4160  0.0160  0.5925
  753SOL     ow 3009   1.269   6.821   2.492 -0.5804  0.2177  0.0961
  753SOL     hw 3010   1.316   6.745   2.526 -0.5301  0.1095 -0.2168
  753SOL     hw 3011   1.264   6.806   2.398 -0.2245  0.7893 -0.0182
  753SOL     vw 3012   1.275   6.809   2.484 -0.5268  0.2789  0.0397
  754SOL     ow 3013   6.242   3.837   1.363  0.7746 -0.5724  0.0168
  754SOL     hw 3014   6.298   3.914   1.350 -1.3917  0.9842 -0.6115
  754SOL     hw 3015   6.178   3.866   1.428  0.1933 -2.0267  0.1111
  754SOL     vw 3016   6.241   3.851   1.370  0.4122 -0.5589 -0.0536
  755SOL     ow 3017   4.224   5.222   0.275 -0.8941  0.4550  0.6116
  755SOL     hw 3018   4.265   5.302   0.242 -2.0321  1.2481  1.0488
  755SOL     hw 3019   4.252   5.216   0.366 -0.2156 -0.0579  0.3745
  755SOL     vw 3020   4.233   5.232   0.282 -0.9549  0.4921  0.6380
  756SOL     ow 3021   2.687   0.679   3.615  0.4201 -0.5755  0.2873
  756SOL     hw 3022   2.602   0.668   3.571  0.0723 -1.7647  1.2077
  756SOL     hw 3023   2.684   0.768   3.651 -1.4961 -1.4073  2.4187
  756SOL     vw 3024   2.675   0.689   3.614  0.1214 -0.8421  0.6900
  757SOL     ow 3025   3.910   0.131   3.074  0.4919 -0.1235  0.2275
  757SOL     hw 3026   3.928   0.222   3.099 -1.0753  0.9867 -2.2304
  757SOL     hw 3027   3.814   0.128   3.066  0.6687 -0.9042 -3.0587
  757SOL     vw 3028   3.900   0.143   3.076  0.3084 -0.0801 -0.5305
  758SOL     ow 3029   4.505   5.357   1.369  0.1569 -0.2308  0.2981
  758SOL     hw 3030   4.580   5.416   1.360  1.4760 -1.7829  0.6063
  758SOL     hw 3031   4.488   5.354   1.463  0.6794 -0.9766  0.3855
  758SOL     vw 3032   4.513   5.364   1.380  0.3998 -0.5341  0.3502
  759SOL     ow 3033   4.571   3.736   3.377  0.4417 -0.0543  0.1149
  759SOL     hw 3034   4.505   3.776   3.321 -0.2085 -1.2764 -0.0219
  759SOL     hw 3035   4.555   3.642   3.371  1.9959 -0.3649  0.3416
  759SOL     vw 3036   4.560   3.729   3.369  0.5608 -0.2564  0.1267
  760SOL     ow 3037   4.154   2.841   1.599 -1.0497 -0.1494 -0.0658
  760SOL     hw 3038   4.250   2.837   1.600 -0.9343  0.4375 -2.2571
  760SOL     hw 3039   4.133   2.913   1.658 -0.1456 -0.2809  0.4445
  760SOL     vw 3040   4.164   2.850   1.607 -0.9155 -0.0895 -0.2875
  761SOL     ow 3041   1.093   0.069   3.336 -0.8981 -0.4513 -0.1736
  761SOL     hw 3042   1.161   0.041   3.274 -2.7048 -2.8155 -1.2343
  761SOL     hw 3043   1.053   0.146   3.294  1.8551  1.9054  1.1219
  761SOL     vw 3044   1.097   0.076   3.322 -0.7733 -0.4523 -0.1426
  762SOL     ow 3045   7.063   4.211   0.490 -0.4999 -0.2742  0.4387
  762SOL     hw 3046   7.008   4.266   0.546 -0.8466 -2.3025  2.2428
  762SOL     hw 3047   7.151   4.223   0.525 -0.3366  0.2468 -0.1368
  762SOL     vw 3048   7.067   4.220   0.502 -0.5241 -0.4733  0.6008
  763SOL     ow 3049   5.826   3.585   4.955 -0.2750 -0.3198  0.2967
  763SOL     hw 3050   5.736   3.556   4.937 -0.5239 -0.3347  1.4405
  763SOL     hw 3051   5.842   3.557   5.045  0.5642  0.4487  0.4005
  763SOL     vw 3052   5.816   3.578   4.965 -0.1974 -0.2205  0.4613
  764SOL     ow 3053   4.045   3.871   5.602  0.3397  0.4137  0.2680
  764SOL     hw 3054   4.034   3.777   5.617  2.8671  0.1522  1.0494
  764SOL     hw 3055   4.044   3.910   5.689 -1.2587  1.2405 -0.0817
  764SOL     vw 3056   4.044   3.864   5.615  0.4625  0.4882  0.3247
  765SOL     ow 3057   1.209   4.994   3.366  0.1070  0.0949 -0.2466
  765SOL     hw 3058   1.216   4.972   3.459 -0.2783 -0.8399 -0.4203
  765SOL     hw 3059   1.114   4.997   3.349  0.1706  0.6079 -0.5308
  765SOL     vw 3060   1.197   4.992   3.376  0.0646  0.0393 -0.3068
  766SOL     ow 3061   2.940   0.405   6.995 -0.2711  0.5930  0.0394
  766SOL     hw 3062   2.938   0.422   6.901  3.5471 -3.5413 -1.1328
  766SOL     hw 3063   2.890   0.324   7.006  1.1298 -0.1843  1.0907
  766SOL     vw 3064   2.933   0.397   6.984  0.4176 -0.0550  0.0236
  767SOL     ow 3065   1.843   6.372   5.495  0.3600 -0.4661 -0.2782
  767SOL     hw 3066   1.850   6.281   5.523  3.9558  0.0788  1.1946
  767SOL     hw 3067   1.922   6.387   5.443 -0.3671  1.6899 -0.8586
  767SOL     vw 3068   1.854   6.362   5.492  0.7384 -0.1097 -0.1605
  768SOL     ow 3069   1.985   4.825   6.130 -0.3848  0.6003  0.1536
  768SOL     hw 3070   1.895   4.797   6.115 -1.1151  2.6380  0.3697
  768SOL     hw 3071   2.036   4.778   6.064 -1.3319 -1.7764  1.0092
  768SOL     vw 3072   1.980   4.815   6.119 -0.6061  0.5555  0.2947
  769SOL     ow 3073   4.235   3.233   1.997 -0.2756  0.2588 -0.2234
  769SOL     hw 3074   4.150   3.266   2.026 -0.1756  0.9912 -0.7241
  769SOL     hw 3075   4.254   3.283   1.917  0.0039 -0.8459 -0.8713
  769SOL     vw 3076   4.226   3.244   1.990 -0.2255  0.2097 -0.3749
  770SOL     ow 3077   2.225   0.736   1.587  0.6850  0.6324  0.0883
  770SOL     hw 3078   2.215   0.710   1.496 -2.0662  1.6487  0.0092
  770SOL     hw 3079   2.241   0.654   1.633 -0.7791 -0.3286 -1.0006
  770SOL     vw 3080   2.226   0.722   1.581  0.1289  0.6397 -0.0659
  771SOL     ow 3081   0.008   0.899   2.600 -0.7349  0.3266  0.4225
  771SOL     hw 3082   0.065   0.976   2.596 -1.5456  0.9867  1.1285
  771SOL     hw 3083  -0.037   0.898   2.516  0.2632 -0.1709 -0.1210
  771SOL     vw 3084   0.009   0.909   2.588 -0.7102  0.3481  0.4439
  772SOL     ow 3085   6.625   3.596   2.165  0.7973 -0.4693  0.4186
  772SOL     hw 3086   6.712   3.562   2.187  0.6791 -0.8585  0.2948
  772SOL     hw 3087   6.585   3.616   2.250  1.2630  0.3736  0.4552
  772SOL     vw 3088   6.631   3.594   2.179  0.8433 -0.4094  0.4071
  773SOL     ow 3089   5.632   5.046   1.748 -0.1903 -0.8830  0.1653
  773SOL     hw 3090   5.678   5.123   1.714 -0.7637 -1.0482 -1.0248
  773SOL     hw 3091   5.540   5.064   1.733 -0.2406 -2.7399 -2.3044
  773SOL     vw 3092   5.626   5.059   1.741 -0.2723 -1.1494 -0.3176
  774SOL     ow 3093   2.542   6.958   6.621 -0.2945  0.1285 -0.1232
  774SOL     hw 3094   2.482   6.980   6.693  0.7572  0.1493  0.7791
  774SOL     hw 3095   2.587   6.880   6.651 -0.3471 -0.2800 -1.0920
  774SOL     vw 3096   2.540   6.951   6.634 -0.1627  0.0772 -0.1316
  775SOL     ow 3097   6.386   6.812   0.526 -0.1607  0.3021  0.8233
  775SOL     hw 3098   6.389   6.748   0.597  0.2467  0.3008  0.8050
  775SOL     hw 3099   6.396   6.760   0.446 -0.0629  0.3652  0.7952
  775SOL     vw 3100   6.388   6.797   0.525 -0.0939  0.3104  0.8172
  776SOL     ow 3101   3.920   6.646   3.347  0.1626 -0.3734 -0.2312
  776SOL     hw 3102   3.872   6.582   3.293  0.0169  0.1229 -0.6949
  776SOL     hw 3103   3.854   6.681   3.406 -0.1314  0.5430 -1.0837
  776SOL     vw 3104   3.905   6.642   3.347  0.1045 -0.1869 -0.4047
  777SOL     ow 3105   3.103   6.636   4.684  0.4283  0.4845 -0.1491
  777SOL     hw 3106   3.197   6.650   4.670  0.4169 -1.1488 -2.1886
  777SOL     hw 3107   3.060   6.692   4.619  0.0130  0.3522  0.0102
  777SOL     vw 3108   3.110   6.646   4.674  0.3719  0.2518 -0.3967
  778SOL     ow 3109   1.024   6.552   5.777  0.2223  0.6370  0.4088
  778SOL     hw 3110   1.024   6.642   5.808 -0.4760  0.0006  2.4497
  778SOL     hw 3111   1.096   6.510   5.825  1.1751  0.2896 -1.2341
  778SOL     vw 3112   1.034   6.558   5.788  0.2559  0.5074  0.4611
  779SOL     ow 3113   0.009   0.835   6.433 -0.0762  0.6223  0.2906
  779SOL     hw 3114   0.043   0.921   6.456  1.7833 -0.1829  0.7350
  779SOL     hw 3115  -0.077   0.831   6.475  1.2552  0.9731  3.3174
  779SOL     vw 3116   0.002   0.846   6.441  0.3450  0.5623  0.7486
  780SOL     ow 3117   3.031   3.578   5.424 -0.0438 -0.1765  0.2061
  780SOL     hw 3118   3.053   3.665   5.458  1.1102 -0.2306 -0.3474
  780SOL     hw 3119   3.053   3.518   5.495  2.5721 -0.3105 -0.6338
  780SOL     vw 3120   3.037   3.582   5.438  0.4536 -0.2012  0.0224
  781SOL     ow 3121   6.717   6.770   4.916 -0.2625 -0.2174  0.1851
  781SOL     hw 3122   6.782   6.824   4.873  0.6115 -0.3097  1.3417
  781SOL     hw 3123   6.675   6.722   4.845 -0.2647  1.1040 -0.7420
  781SOL     vw 3124   6.720   6.771   4.901 -0.1478 -0.0553  0.2153
  782SOL     ow 3125   6.976   5.051   5.813  0.3574 -0.4311  0.2024
  782SOL     hw 3126   6.942   5.013   5.894 -0.9992 -0.4158 -0.3371
  782SOL     hw 3127   6.936   4.999   5.743 -3.5476  3.1868 -0.7236
  782SOL     vw 3128   6.966   5.039   5.814 -0.3366  0.0484  0.0091
  783SOL     ow 3129   5.145   0.573   5.095 -0.4994  0.4272 -0.4112
  783SOL     hw 3130   5.210   0.552   5.162 -1.3556 -1.4051 -0.0994
  783SOL     hw 3131   5.164   0.512   5.023 -2.3289 -0.7679  0.0271
  783SOL     vw 3132   5.156   0.562   5.094 -0.8538  0.0277 -0.3121
  784SOL     ow 3133   2.666   4.678   1.948 -0.9834  0.0629 -0.4015
  784SOL     hw 3134   2.716   4.756   1.972 -3.0955  1.4692 -0.3011
  784SOL     hw 3135   2.707   4.607   1.996  0.3653  1.2975  0.3428
  784SOL     vw 3136   2.678   4.679   1.957 -1.0840  0.4113 -0.2902
  785SOL     ow 3137   0.795   5.406   3.604  0.2622 -0.1480 -0.1706
  785SOL     hw 3138   0.800   5.485   3.658  1.6671 -1.2406  1.4207
  785SOL     hw 3139   0.825   5.336   3.663 -1.9758 -2.0545 -1.1637
  785SOL     vw 3140   0.800   5.407   3.619  0.1523 -0.5436 -0.0914
  786SOL     ow 3141   3.356   4.741   0.409  0.6800  0.0648  0.4645
  786SOL     hw 3142   3.417   4.732   0.335 -2.2266  3.1419 -2.6809
  786SOL     hw 3143   3.275   4.700   0.378 -0.8770  2.1616  1.5215
  786SOL     vw 3144   3.353   4.734   0.395  0.0911  0.7472  0.1890
  787SOL     ow 3145   4.410   2.769   5.893 -0.8794  0.1457  0.4093
  787SOL     hw 3146   4.380   2.679   5.901  0.2801 -0.2261  0.9915
  787SOL     hw 3147   4.454   2.786   5.977 -0.8769  1.1654  0.2124
  787SOL     vw 3148   4.412   2.760   5.905 -0.7262  0.2313  0.4599
  788SOL     ow 3149   0.131   5.111   1.254  0.0146 -0.2000  0.3766
  788SOL     hw 3150   0.140   5.206   1.259  0.1769 -0.2635  1.7385
  788SOL     hw 3151   0.094   5.086   1.339  0.2825 -1.3788  0.1629
  788SOL     vw 3152   0.127   5.120   1.266  0.0713 -0.3638  0.5280
  789SOL     ow 3153   1.907   6.319   2.271 -0.2137  0.5789  0.0146
  789SOL     hw 3154   1.966   6.292   2.341 -0.6242  0.3283  0.2678
  789SOL     hw 3155   1.822   6.280   2.294 -0.0314 -0.7416 -1.3514
  789SOL     vw 3156   1.903   6.310   2.283 -0.2438  0.3717 -0.1323
  790SOL     ow 3157   6.549   2.109   3.989  0.3220 -0.3374  0.2112
  790SOL     hw 3158   6.484   2.126   4.057 -0.0820  0.0025 -0.2415
  790SOL     hw 3159   6.506   2.047   3.930 -0.4986  1.4912 -1.2687
  790SOL     vw 3160   6.535   2.103   3.990  0.1605 -0.0511 -0.0439
  791SOL     ow 3161   6.160   4.651   3.223 -0.2574  0.1164  0.4831
  791SOL     hw 3162   6.143   4.615   3.137  1.2987 -1.6955  0.8781
  791SOL     hw 3163   6.218   4.725   3.207 -0.7839  0.4177 -0.0772
  791SOL     vw 3164   6.165   4.656   3.210 -0.1216 -0.0832  0.4612
  792SOL     ow 3165   5.469   4.551   3.243  0.3454 -0.6319 -0.3858
  792SOL     hw 3166   5.476   4.613   3.170 -0.4196 -1.4210 -1.1598
  792SOL     hw 3167   5.492   4.466   3.204 -3.3894 -1.6993 -0.6617
  792SOL     vw 3168   5.473   4.548   3.228 -0.2484 -0.8769 -0.5244
  793SOL     ow 3169   2.429   6.248   4.267  0.1943  0.0522 -0.2410
  793SOL     hw 3170   2.392   6.176   4.318 -0.0586  0.4441  0.1292
  793SOL     hw 3171   2.355   6.281   4.215  0.4284 -0.2860 -0.7988
  793SOL     vw 3172   2.414   6.243   4.267  0.1917  0.0594 -0.2658
  794SOL     ow 3173   0.895   1.049   0.009  0.4091  0.0368  0.2086
  794SOL     hw 3174   0.815   0.996   0.011 -0.1201  0.7374 -1.2200
  794SOL     hw 3175   0.964   0.988   0.035 -0.5553 -0.5842  1.4720
  794SOL     vw 3176   0.893   1.034   0.013  0.2121  0.0473  0.1868
  795SOL     ow 3177   2.765   6.022   3.163 -0.0741  0.4187  0.3722
  795SOL     hw 3178   2.704   6.096   3.157  1.4663  1.6624 -2.1668
  795SOL     hw 3179   2.846   6.061   3.197 -0.0107 -0.7276  1.6067
  795SOL     vw 3180   2.768   6.037   3.167  0.1377  0.4318  0.2002
  796SOL     ow 3181   1.111   1.195   0.129 -0.0028 -0.2589 -0.0016
  796SOL     hw 3182   1.167   1.271   0.143 -0.9233  0.4469 -0.0691
  796SOL     hw 3183   1.119   1.144   0.210  0.5214 -0.0234  0.0937
  796SOL     vw 3184   1.119   1.198   0.142 -0.0551 -0.1348  0.0021
  797SOL     ow 3185   1.433   0.461   7.066  0.0895  0.4133  1.0280
  797SOL     hw 3186   1.442   0.381   7.014  0.8882  0.0086  1.7716
  797SOL     hw 3187   1.412   0.529   7.001 -0.6908 -0.4061  0.4062
  797SOL     vw 3188   1.432   0.460   7.050  0.0920  0.2518  1.0440
  798SOL     ow 3189   1.158   4.138   6.321 -0.6060 -0.3455  0.2067
  798SOL     hw 3190   1.166   4.092   6.405 -0.3431  0.8925  0.8948
  798SOL     hw 3191   1.081   4.194   6.332 -0.6342 -0.2562 -0.4210
  798SOL     vw 3192   1.149   4.140   6.334 -0.5750 -0.1705  0.2143
  799SOL     ow 3193   6.685   4.560   1.068 -0.0151 -0.2672  0.2952
  799SOL     hw 3194   6.725   4.558   0.981 -0.7442  1.0119 -0.1012
  799SOL     hw 3195   6.756   4.588   1.126  0.0802  0.4434 -0.1525
  799SOL     vw 3196   6.700   4.564   1.064 -0.0985 -0.0045  0.1838
  800SOL     ow 3197   1.903   6.820   2.903 -0.7036  0.3008  0.3044
  800SOL     hw 3198   1.821   6.775   2.883 -0.7790 -0.4425  2.0853
  800SOL     hw 3199   1.902   6.898   2.848  0.7792 -3.0528 -5.3811
  800SOL     vw 3200   1.892   6.824   2.893 -0.5179 -0.2398 -0.2108
  801SOL     ow 3201   5.524   0.219   1.514  0.1110  0.3314  0.1202
  801SOL     hw 3202   5.486   0.132   1.499  0.5106  0.3227 -0.9489
  801SOL     hw 3203   5.449   0.278   1.516 -0.0545  0.1830 -0.9637
  801SOL     vw 3204   5.509   0.215   1.512  0.1421  0.3107 -0.1639
  802SOL     ow 3205   3.396   0.567   6.037  0.0631  0.2509  0.1689
  802SOL     hw 3206   3.333   0.504   6.071 -0.3202 -0.2728 -1.4267
  802SOL     hw 3207   3.439   0.603   6.115 -0.2588 -1.4013  1.1469
  802SOL     vw 3208   3.394   0.564   6.051 -0.0300 -0.0362  0.0875
  803SOL     ow 3209   4.021   0.114   2.771 -0.0993  0.2968 -0.0073
  803SOL     hw 3210   4.044   0.052   2.702  2.3601 -0.4664  1.3616
  803SOL     hw 3211   3.962   0.176   2.729 -0.7729 -1.6044 -2.0618
  803SOL     vw 3212   4.016   0.114   2.756  0.1364 -0.0548 -0.0978
  804SOL     ow 3213   2.420   0.151   4.092  0.0780 -0.3474  0.1311
  804SOL     hw 3214   2.366   0.187   4.022 -0.3528 -0.3550  0.4570
  804SOL     hw 3215   2.422   0.220   4.158 -0.8285 -0.9344  0.8028
  804SOL     vw 3216   2.413   0.165   4.091 -0.0985 -0.4259  0.2627
  805SOL     ow 3217   2.397   6.351   0.338 -0.1050 -0.5503  0.3466
  805SOL     hw 3218   2.356   6.269   0.366  0.9839 -0.7572  1.4070
  805SOL     hw 3219   2.436   6.330   0.254 -1.5593 -0.5308 -0.3736
  805SOL     vw 3220   2.396   6.337   0.331 -0.1531 -0.5751  0.3915
  806SOL     ow 3221   0.024   0.357   6.547 -0.6466 -0.8383 -0.1096
  806SOL     hw 3222  -0.053   0.380   6.600 -2.0957  0.2918 -2.5014
  806SOL     hw 3223   0.005   0.269   6.515 -1.2330 -0.3877 -1.0653
  806SOL     vw 3224   0.011   0.348   6.549 -0.9151 -0.6297 -0.5512
  807SOL     ow 3225   5.440   7.026   4.666 -0.5152 -0.5332 -0.5617
  807SOL     hw 3226   5.366   7.034   4.726 -0.8930 -1.4190 -0.8767
  807SOL     hw 3227   5.422   7.090   4.597 -0.4888 -0.0707 -0.1434
  807SOL     vw 3228   5.428   7.035   4.664 -0.5620 -0.5889 -0.5481
  808SOL     ow 3229   3.633   3.102   6.531  0.0378  0.0291  0.0766
  808SOL     hw 3230   3.611   3.080   6.621  0.6642 -1.6449 -0.1376
  808SOL     hw 3231   3.696   3.173   6.538 -2.8320  2.7508  0.7745
  808SOL     vw 3232   3.638   3.108   6.544 -0.2582  0.1673  0.1407
  809SOL     ow 3233   7.050   3.926   3.566  0.2392 -0.1329 -0.3393
  809SOL     hw 3234   7.062   4.006   3.617  1.8796  0.6124 -1.7759
  809SOL     hw 3235   7.063   3.855   3.629  0.0852  0.7387  0.6933
  809SOL     vw 3236   7.054   3.927   3.581  0.4351  0.0803 -0.3927
  810SOL     ow 3237   4.619   7.008   1.630  0.1200  0.3768  0.5740
  810SOL     hw 3238   4.587   6.926   1.592 -0.5541  0.8192  0.1685
  810SOL     hw 3239   4.664   6.981   1.710  2.6945 -0.7327 -1.1156
  810SOL     vw 3240   4.621   6.993   1.636  0.3707  0.2887  0.2976
  811SOL     ow 3241   3.440   4.589   5.356 -0.7448 -0.0429 -0.5970
  811SOL     hw 3242   3.410   4.502   5.380 -1.5239  0.2730 -0.3960
  811SOL     hw 3243   3.521   4.602   5.406 -1.4450 -0.0524  0.5606
  811SOL     vw 3244   3.447   4.579   5.366 -0.9400 -0.0026 -0.4175
  812SOL     ow 3245   1.555   1.681   5.777 -0.1341 -0.2086 -0.3561
  812SOL     hw 3246   1.490   1.643   5.836 -0.3779  0.1342 -0.3972
  812SOL     hw 3247   1.505   1.744   5.724  0.3740  0.6563  0.1637
  812SOL     vw 3248   1.540   1.684   5.777 -0.0992 -0.0494 -0.2930
  813SOL     ow 3249   0.450   6.073   2.904  0.9779  0.4885  0.1208
  813SOL     hw 3250   0.505   6.008   2.947  0.4130  0.3586  0.6522
  813SOL     hw 3251   0.462   6.153   2.955 -0.0296  0.2214  0.7957
  813SOL     vw 3252   0.459   6.075   2.916  0.7704  0.4358  0.2800
  814SOL     ow 3253   0.493   6.892   0.910  0.0879  0.5432 -0.0783
  814SOL     hw 3254   0.414   6.943   0.891 -0.3681  0.9301  2.5144
  814SOL     hw 3255   0.509   6.907   1.003  0.6668 -3.0328  0.5335
  814SOL     vw 3256   0.485   6.901   0.920  0.1041  0.1223  0.3445
  815SOL     ow 3257   4.536   6.461   0.402  0.1786  0.0614 -0.1660
  815SOL     hw 3258   4.566   6.372   0.385 -0.4570 -0.2581  0.3398
  815SOL     hw 3259   4.529   6.501   0.316  3.1537  0.5394 -0.3072
  815SOL     vw 3260   4.539   6.455   0.389  0.4873  0.0820 -0.1179
  816SOL     ow 3261   3.005   3.647   5.097  0.2000  0.0217  0.1311
  816SOL     hw 3262   2.946   3.715   5.063 -0.3962 -1.7337 -2.7212
  816SOL     hw 3263   3.089   3.667   5.055  0.0731 -0.8140 -0.5556
  816SOL     vw 3264   3.008   3.659   5.087  0.1047 -0.3201 -0.3362
  817SOL     ow 3265   1.261   4.788   2.827  0.3395  0.0739 -0.4995
  817SOL     hw 3266   1.296   4.785   2.916 -1.1858  1.0249  0.1786
  817SOL     hw 3267   1.297   4.868   2.789 -1.1514  1.1443  0.2571
  817SOL     vw 3268   1.270   4.798   2.834 -0.0584  0.3405 -0.3101
  818SOL     ow 3269   0.258   2.605   1.832  0.1024 -0.4228  0.2395
  818SOL     hw 3270   0.316   2.531   1.815  0.8160  0.2853 -0.5179
  818SOL     hw 3271   0.289   2.673   1.772 -0.0451  0.7473  1.4498
  818SOL     vw 3272   0.270   2.604   1.822  0.1771 -0.1751  0.2993
  819SOL     ow 3273   0.003   6.451   2.494  0.4842  0.1439  0.1560
  819SOL     hw 3274  -0.021   6.358   2.491  1.6129 -0.2187  1.3994
  819SOL     hw 3275  -0.053   6.488   2.563  1.9441 -0.2680  1.6398
  819SOL     vw 3276  -0.007   6.444   2.503  0.8256  0.0415  0.5158
  820SOL     ow 3277   1.160   5.082   4.807  0.5701 -0.1449  0.0917
  820SOL     hw 3278   1.211   5.162   4.799  0.7804 -0.2037  0.7370
  820SOL     hw 3279   1.128   5.083   4.897 -2.4964  1.0241 -0.9102
  820SOL     vw 3280   1.163   5.092   4.818  0.1933  0.0017  0.0448
  821SOL     ow 3281   5.524   6.017   5.927  0.0482  0.5970 -0.2896
  821SOL     hw 3282   5.479   6.089   5.882  1.8794  1.4009 -0.9339
  821SOL     hw 3283   5.598   6.059   5.971 -0.5509 -0.4720  1.8802
  821SOL     vw 3284   5.528   6.032   5.927  0.2108  0.5622 -0.0882
  822SOL     ow 3285   0.799   3.051   4.361 -0.0670  0.6230 -0.5447
  822SOL     hw 3286   0.722   3.086   4.315  1.2866  1.8219 -2.0330
  822SOL     hw 3287   0.843   3.128   4.396  0.8774  0.0377 -0.4081
  822SOL     vw 3288   0.795   3.066   4.359  0.2362  0.7038 -0.7226
  823SOL     ow 3289   4.432   4.265   1.726 -0.1328 -0.4863 -0.6662
  823SOL     hw 3290   4.373   4.334   1.755  0.2195  0.5917 -2.3847
  823SOL     hw 3291   4.375   4.189   1.711 -0.3451 -1.1111  2.5541
  823SOL     vw 3292   4.417   4.264   1.728 -0.1144 -0.4263 -0.4681
  824SOL     ow 3293   5.548   5.408   2.446  0.3433  0.1980  0.3063
  824SOL     hw 3294   5.466   5.361   2.434 -0.5744  1.8199 -0.0746
  824SOL     hw 3295   5.543   5.481   2.385  1.5860  0.9559  1.0601
  824SOL     vw 3296   5.536   5.412   2.437  0.3860  0.5121  0.3555
  825SOL     ow 3297   1.368   1.702   4.127 -0.0493  0.3031 -0.1164
  825SOL     hw 3298   1.414   1.641   4.069  1.5176  0.2284  1.1183
  825SOL     hw 3299   1.341   1.647   4.201  2.1493  1.1824  1.4308
  825SOL     vw 3300   1.370   1.686   4.129  0.4476  0.4092  0.2511
  826SOL     ow 3301   5.944   2.507   1.982 -0.7395 -0.3708  0.2309
  826SOL     hw 3302   5.893   2.560   1.920  1.4420 -1.1273 -2.3963
  826SOL     hw 3303   6.012   2.565   2.013 -1.0334 -0.3793  0.9012
  826SOL     vw 3304   5.946   2.521   1.978 -0.4907 -0.4716 -0.0273
  827SOL     ow 3305   1.539   6.503   6.656  0.1161  0.1369 -0.1771
  827SOL     hw 3306   1.490   6.423   6.676 -0.2704  0.5258  0.4758
  827SOL     hw 3307   1.486   6.546   6.589  0.4628 -0.2791 -0.7233
  827SOL     vw 3308   1.525   6.498   6.650  0.1109  0.1333 -0.1628
  828SOL     ow 3309   6.966   5.079   6.647 -0.1909 -0.5006  0.1256
  828SOL     hw 3310   7.054   5.078   6.683  1.4743  1.9077 -3.3106
  828SOL     hw 3311   6.976   5.046   6.557 -3.2988 -2.4002  0.3194
  828SOL     vw 3312   6.979   5.074   6.640 -0.3812 -0.4334 -0.3023
  829SOL     ow 3313   1.046   3.478   1.089  0.1016 -0.3945  0.0399
  829SOL     hw 3314   1.016   3.536   1.159  1.1532 -0.3069  0.4288
  829SOL     hw 3315   0.980   3.488   1.020  0.0688  0.9985  0.2419
  829SOL     vw 3316   1.033   3.487   1.089  0.2360 -0.1991  0.1178
  830SOL     ow 3317   4.840   4.649   3.712  0.5662 -0.4306  0.6881
  830SOL     hw 3318   4.783   4.725   3.718 -1.3133 -1.7526  0.5577
  830SOL     hw 3319   4.853   4.637   3.618  2.1906  0.6241  0.7466
  830SOL     vw 3320   4.834   4.657   3.700  0.5326 -0.4659  0.6785
  831SOL     ow 3321   1.740   4.811   0.625 -0.0191 -0.3260 -0.5564
  831SOL     hw 3322   1.781   4.890   0.589 -0.6600  1.4055  2.2088
  831SOL     hw 3323   1.648   4.835   0.634 -0.3707 -1.7005 -0.3789
  831SOL     vw 3324   1.733   4.825   0.621 -0.1501 -0.2792 -0.1681
  832SOL     ow 3325   4.834   6.077   2.651  0.2486  0.0011 -0.2819
  832SOL     hw 3326   4.742   6.068   2.675 -0.2822  1.1253 -1.7943
  832SOL     hw 3327   4.844   6.026   2.571  1.2607 -1.1071  0.4984
  832SOL     vw 3328   4.823   6.069   2.644  0.3119  0.0033 -0.3785
  833SOL     ow 3329   6.439   2.547   3.173  0.1081  0.5056  0.4451
  833SOL     hw 3330   6.530   2.572   3.154  1.1440 -1.3539  2.4997
  833SOL     hw 3331   6.392   2.631   3.175  1.5616  1.4558 -1.4278
  833SOL     vw 3332   6.445   2.562   3.171  0.4365  0.3855  0.4690
  834SOL     ow 3333   2.906   7.031   1.204  1.1094  0.3359  0.0640
  834SOL     hw 3334   2.973   7.050   1.138  0.5013 -1.5811 -1.1913
  834SOL     hw 3335   2.824   7.062   1.164  0.7698 -0.6110  0.0030
  834SOL     vw 3336   2.904   7.037   1.190  0.9843 -0.0420 -0.1097
  835SOL     ow 3337   0.158   2.152   5.501 -0.1137  0.6590  1.0746
  835SOL     hw 3338   0.112   2.186   5.424  0.0687  1.3816  1.2683
  835SOL     hw 3339   0.172   2.059   5.483 -1.1536  0.5525  0.7690
  835SOL     vw 3340   0.154   2.145   5.489 -0.2269  0.7404  1.0598
  836SOL     ow 3341   1.154   6.786   0.774 -0.5169 -0.3568  0.3425
  836SOL     hw 3342   1.102   6.842   0.716  0.3774  0.5097  0.3490
  836SOL     hw 3343   1.090   6.750   0.836 -1.3415 -0.5958 -0.6315
  836SOL     vw 3344   1.138   6.789   0.775 -0.5078 -0.2742  0.2148
  837SOL     ow 3345   1.443   0.505   0.630 -0.1623 -1.0575  0.3727
  837SOL     hw 3346   1.358   0.467   0.607 -1.3041 -0.0963  2.6376
  837SOL     hw 3347   1.474   0.450   0.702 -0.1943  0.2022  1.3781
  837SOL     vw 3348   1.436   0.493   0.637 -0.3172 -0.7645  0.8041
  838SOL     ow 3349   0.284   3.620   5.018 -0.3267  0.3905 -0.6351
  838SOL     hw 3350   0.327   3.640   4.935  0.8498  1.6353  0.2312
  838SOL     hw 3351   0.354   3.625   5.083 -1.1049 -1.1277  0.3787
  838SOL     vw 3352   0.299   3.623   5.016 -0.2741  0.3544 -0.3870
  839SOL     ow 3353   4.416   4.832   0.661 -0.6360  0.3365  0.3877
  839SOL     hw 3354   4.322   4.851   0.668 -0.3119  2.7803 -0.9976
  839SOL     hw 3355   4.440   4.798   0.748 -2.5209  0.8868  1.1740
  839SOL     vw 3356   4.406   4.830   0.674 -0.8421  0.7312  0.3087
  840SOL     ow 3357   7.028   4.696   2.338 -0.6758  0.0547  0.0450
  840SOL     hw 3358   7.062   4.740   2.415  0.4545 -0.9774  0.1633
  840SOL     hw 3359   7.086   4.723   2.267 -2.1018  1.5302 -0.6266
  840SOL     vw 3360   7.040   4.705   2.338 -0.7150  0.1132 -0.0280
  841SOL     ow 3361   1.409   4.568   1.681 -1.2775 -0.3458 -0.1344
  841SOL     hw 3362   1.492   4.519   1.684  0.0207  1.7716  1.4231
  841SOL     hw 3363   1.398   4.601   1.771 -2.9105  0.8719 -0.7408
  841SOL     vw 3364   1.419   4.566   1.694 -1.3217  0.0944 -0.0089
  842SOL     ow 3365   3.928   0.577   1.089 -0.3463 -0.3212  0.2579
  842SOL     hw 3366   3.872   0.502   1.110  0.6755 -1.3326 -0.5186
  842SOL     hw 3367   4.011   0.558   1.133 -0.2524  0.6365  0.5190
  842SOL     vw 3368   3.932   0.564   1.098 -0.1992 -0.3283  0.1900
  843SOL     ow 3369   4.721   1.324   2.567 -0.3350  0.4189  0.9854
  843SOL     hw 3370   4.777   1.392   2.604 -0.2061  0.4603  0.7220
  843SOL     hw 3371   4.683   1.280   2.642  1.2589 -0.6335  1.2262
  843SOL     vw 3372   4.724   1.327   2.581 -0.1080  0.2856  0.9823
  844SOL     ow 3373   5.924   5.750   3.499 -0.2814  0.0135  0.1268
  844SOL     hw 3374   5.845   5.762   3.552 -0.9656 -0.9491 -0.6445
  844SOL     hw 3375   5.968   5.835   3.504 -0.4406  0.0446  2.0193
  844SOL     vw 3376   5.919   5.763   3.507 -0.3924 -0.1097  0.2749
  845SOL     ow 3377   1.257   1.533   0.941  0.2005 -0.3882  0.4474
  845SOL     hw 3378   1.276   1.446   0.905 -0.4709 -1.0200  1.5482
  845SOL     hw 3379   1.322   1.546   1.009  0.5769  0.1847 -0.0061
  845SOL     vw 3380   1.268   1.523   0.945  0.1615 -0.3960  0.5328
  846SOL     ow 3381   7.016   0.698   4.793  0.3614 -0.1522 -0.7654
  846SOL     hw 3382   6.956   0.741   4.854 -0.0203 -1.5608 -0.0954
  846SOL     hw 3383   7.003   0.743   4.710 -0.4360  0.6279 -0.2302
  846SOL     vw 3384   7.007   0.709   4.790  0.2058 -0.2351 -0.6065
  847SOL     ow 3385   2.500   6.606   2.491 -0.0199 -0.3577  0.1587
  847SOL     hw 3386   2.486   6.514   2.512  2.6384 -1.3337 -1.7681
  847SOL     hw 3387   2.495   6.610   2.395  5.0971  0.2835 -0.3261
  847SOL     vw 3388   2.497   6.594   2.481  1.0060 -0.4017 -0.1595
  848SOL     ow 3389   2.474   1.186   6.522  0.4349 -0.0461 -0.7411
  848SOL     hw 3390   2.452   1.137   6.442  0.1898 -1.8072  0.3457
  848SOL     hw 3391   2.543   1.133   6.563  0.0660  0.4494  0.5538
  848SOL     vw 3392   2.480   1.172   6.517  0.3539 -0.2130 -0.4268
  849SOL     ow 3393   5.624   0.414   0.095 -0.4470 -0.0589  0.4083
  849SOL     hw 3394   5.678   0.483   0.133 -0.5239  0.1477  0.1476
  849SOL     hw 3395   5.534   0.448   0.101 -0.3656  0.5132 -1.0290
  849SOL     vw 3396   5.619   0.428   0.101 -0.4463  0.0438  0.1843
  850SOL     ow 3397   4.096   1.358   5.096  0.1900  0.5548 -0.0834
  850SOL     hw 3398   4.045   1.333   5.019  1.4687  0.0728 -0.8034
  850SOL     hw 3399   4.132   1.444   5.073  1.3000  0.0201 -0.4249
  850SOL     vw 3400   4.094   1.366   5.083  0.5052  0.4207 -0.2234
  851SOL     ow 3401   2.126   2.947   6.503  0.0099  0.1306 -0.4680
  851SOL     hw 3402   2.134   2.863   6.457 -1.0594 -0.7433  0.8501
  851SOL     hw 3403   2.042   2.983   6.472  0.6230  0.9063 -1.2843
  851SOL     vw 3404   2.116   2.941   6.493 -0.0503  0.1175 -0.4017
  852SOL     ow 3405   0.901   2.100   3.644 -0.3488  0.4805  0.1913
  852SOL     hw 3406   0.974   2.075   3.586  0.1404  0.5316  0.7794
  852SOL     hw 3407   0.882   2.021   3.695 -1.9910 -0.1333 -1.2714
  852SOL     vw 3408   0.908   2.086   3.643 -0.5009  0.4064  0.0758
  853SOL     ow 3409   5.242   1.656   5.350 -0.1492 -0.2536  0.2821
  853SOL     hw 3410   5.156   1.675   5.311  0.5171  0.8767 -0.7041
  853SOL     hw 3411   5.223   1.591   5.418 -1.2469 -3.3049 -2.6538
  853SOL     vw 3412   5.228   1.650   5.354 -0.2062 -0.5071 -0.2356
  854SOL     ow 3413   1.225   2.852   3.868 -0.4348 -0.2481 -0.2130
  854SOL     hw 3414   1.178   2.768   3.866  1.3901 -1.2989 -0.5584
  854SOL     hw 3415   1.317   2.829   3.874  0.1321  1.7553 -0.3202
  854SOL     vw 3416   1.231   2.838   3.869 -0.1193 -0.1224 -0.2725
  855SOL     ow 3417   5.113   4.520   0.173 -0.4307 -0.1045  0.4195
  855SOL     hw 3418   5.087   4.446   0.229  1.8602 -0.2578  1.4263
  855SOL     hw 3419   5.208   4.511   0.166 -0.0232  2.8794  0.7865
  855SOL     vw 3420   5.122   4.509   0.180 -0.0746  0.2687  0.6008
  856SOL     ow 3421   2.924   7.012   3.071  0.0009 -0.0255 -0.1233
  856SOL     hw 3422   2.847   7.063   3.045  0.9978  0.1826 -2.9817
  856SOL     hw 3423   2.890   6.950   3.136 -2.4667  0.4125 -0.8835
  856SOL     vw 3424   2.909   7.010   3.076 -0.1932  0.0596 -0.6008
  857SOL     ow 3425   3.644   4.364   3.013 -0.2560 -0.2676 -0.1224
  857SOL     hw 3426   3.650   4.283   3.064 -1.1787 -1.4133 -1.7481
  857SOL     hw 3427   3.733   4.379   2.981  0.0025 -0.4192  0.5136
  857SOL     vw 3428   3.657   4.355   3.015 -0.3438 -0.4387 -0.2530
  858SOL     ow 3429   6.345   3.245   0.852 -0.4329  0.2389 -0.2345
  858SOL     hw 3430   6.279   3.193   0.899 -0.7268  1.9473  1.3792
  858SOL     hw 3431   6.425   3.194   0.859 -1.2547 -1.2537 -1.0792
  858SOL     vw 3432   6.347   3.231   0.860 -0.5803  0.2674 -0.1330
  859SOL     ow 3433   0.311   0.028   3.952 -0.2384 -0.7344 -0.1183
  859SOL     hw 3434   0.295   0.057   3.863  3.9383 -0.7718 -1.0986
  859SOL     hw 3435   0.330  -0.065   3.944 -0.7178 -0.9459  0.9827
  859SOL     vw 3436   0.312   0.020   3.939  0.2494 -0.7673 -0.1024
  860SOL     ow 3437   2.278   6.953   3.261 -0.0307  0.0738  0.3585
  860SOL     hw 3438   2.301   6.868   3.298 -1.1939 -0.1271  0.6763
  860SOL     hw 3439   2.215   6.933   3.192 -0.7839  0.7026  0.8469
  860SOL     vw 3440   2.273   6.939   3.257 -0.2836  0.1302  0.4650
  861SOL     ow 3441   4.438   6.825   4.233 -0.0868  0.5184 -0.2880
  861SOL     hw 3442   4.478   6.862   4.154 -1.8399  1.5361 -0.7472
  861SOL     hw 3443   4.414   6.736   4.208  1.8514 -0.1335  0.0160
  861SOL     vw 3444   4.440   6.818   4.219 -0.0625  0.5670 -0.3088
  862SOL     ow 3445   6.549   2.399   0.925  0.4475  0.8823  0.1299
  862SOL     hw 3446   6.618   2.349   0.881 -0.5901  0.9749 -1.7035
  862SOL     hw 3447   6.557   2.487   0.889 -0.0764  1.1025  0.5485
  862SOL     vw 3448   6.559   2.404   0.914  0.2418  0.9238 -0.0568
  863SOL     ow 3449   2.871   3.120   0.937  0.4514  0.1353  0.0973
  863SOL     hw 3450   2.812   3.150   1.006  0.7208  0.5507  0.1495
  863SOL     hw 3451   2.874   3.025   0.947 -0.4956  0.0637 -0.1330
  863SOL     vw 3452   2.863   3.111   0.947  0.3622  0.1807  0.0738
  864SOL     ow 3453   2.481   6.242   3.752 -0.0183 -0.2326 -0.0645
  864SOL     hw 3454   2.404   6.299   3.752 -0.2771 -0.5784  0.4651
  864SOL     hw 3455   2.555   6.302   3.739 -0.2829  0.2376  0.5403
  864SOL     vw 3456   2.481   6.258   3.750 -0.0874 -0.2162  0.0851
  865SOL     ow 3457   1.349   3.168   2.215  0.2801  0.0251  0.2144
  865SOL     hw 3458   1.371   3.246   2.265 -1.0039  0.7218 -0.2512
  865SOL     hw 3459   1.311   3.201   2.134 -1.1951 -1.0573  0.4143
  865SOL     vw 3460   1.347   3.182   2.211 -0.0839 -0.0259  0.1793
  866SOL     ow 3461   1.504   5.202   6.521  0.4208  0.1511 -0.7254
  866SOL     hw 3462   1.550   5.221   6.603 -1.3032  3.5576 -0.3557
  866SOL     hw 3463   1.447   5.128   6.541 -0.0597  1.0067  1.2283
  866SOL     vw 3464   1.502   5.195   6.534  0.1299  0.7133 -0.4189
  867SOL     ow 3465   2.366   3.912   5.434  0.0174 -0.6280  0.2140
  867SOL     hw 3466   2.319   3.925   5.352  0.5508 -0.9728 -0.1542
  867SOL     hw 3467   2.433   3.981   5.434 -0.4499 -0.1567  0.7209
  867SOL     vw 3468   2.369   3.923   5.424  0.0261 -0.6113  0.2322
  868SOL     ow 3469   1.700   0.574   6.384 -0.0221 -0.2260 -0.4459
  868SOL     hw 3470   1.769   0.579   6.317 -0.8444 -0.6464 -1.3346
  868SOL     hw 3471   1.745   0.540   6.462  1.1207  1.0338 -0.5265
  868SOL     vw 3472   1.715   0.570   6.386  0.0201 -0.1152 -0.5736
  869SOL     ow 3473   6.133   3.070   1.013 -0.2912  0.2260  0.2430
  869SOL     hw 3474   6.106   3.017   0.938  0.6412  0.1563 -0.0502
  869SOL     hw 3475   6.209   3.024   1.048  1.5059  2.1708 -0.9367
  869SOL     vw 3476   6.139   3.057   1.008  0.0691  0.4735  0.0486
  870SOL     ow 3477   4.137   3.563   3.539  0.3459 -0.2184  0.5915
  870SOL     hw 3478   4.220   3.597   3.570  0.6720  0.4860 -0.9626
  870SOL     hw 3479   4.139   3.575   3.444 -0.8565 -1.6760  0.3245
  870SOL     vw 3480   4.148   3.569   3.530  0.2303 -0.3179  0.3513
  871SOL     ow 3481   1.451   3.962   3.839 -0.4515 -0.2411 -0.3948
  871SOL     hw 3482   1.541   3.977   3.867 -0.2484  0.1731 -1.2234
  871SOL     hw 3483   1.410   3.918   3.913  0.9670 -2.2725 -0.7039
  871SOL     vw 3484   1.458   3.958   3.852 -0.2375 -0.4545 -0.5449
  872SOL     ow 3485   0.701   4.747   4.202  0.4767  0.6431  0.1966
  872SOL     hw 3486   0.623   4.795   4.175  0.3606  0.5654  0.3897
  872SOL     hw 3487   0.720   4.689   4.129  0.6336  1.0019 -0.0480
  872SOL     vw 3488   0.693   4.745   4.189  0.4821  0.6802  0.1895
  873SOL     ow 3489   1.225   3.740   1.016 -0.1639  0.5666  0.3327
  873SOL     hw 3490   1.266   3.781   0.940 -2.1660  0.3418 -0.9491
  873SOL     hw 3491   1.195   3.813   1.070 -0.5757  0.7700 -0.1635
  873SOL     vw 3492   1.226   3.755   1.014 -0.4823  0.5639  0.0982
  874SOL     ow 3493   1.183   4.039   1.727  0.1458 -0.5627  0.1131
  874SOL     hw 3494   1.189   3.952   1.767  1.5005 -0.3683  0.3899
  874SOL     hw 3495   1.090   4.061   1.732 -0.2920 -2.1582 -0.3497
  874SOL     vw 3496   1.171   4.030   1.733  0.2668 -0.7474  0.0885
  875SOL     ow 3497   2.500   6.506   0.556 -0.6471  0.0610 -0.1312
  875SOL     hw 3498   2.585   6.535   0.589 -0.6767  1.6778 -1.3565
  875SOL     hw 3499   2.491   6.416   0.588  2.3255 -0.8187 -1.4400
  875SOL     vw 3500   2.510   6.498   0.565 -0.2587  0.1583 -0.4655
  876SOL     ow 3501   0.374   2.048   4.484 -0.0395  0.9983 -0.1043
  876SOL     hw 3502   0.296   2.043   4.429  0.7369  0.1847 -1.1604
  876SOL     hw 3503   0.442   2.002   4.435  0.8418  0.7647  1.2613
  876SOL     vw 3504   0.373   2.041   4.470  0.1792  0.8602 -0.0632
  877SOL     ow 3505   5.864   5.414   2.473  0.3018  0.4441  0.6991
  877SOL     hw 3506   5.928   5.443   2.408  0.6764 -1.3340  0.2239
  877SOL     hw 3507   5.916   5.395   2.551 -0.0126  1.5324  1.1968
  877SOL     vw 3508   5.879   5.415   2.475  0.3097  0.3531  0.7019
  878SOL     ow 3509   3.628   6.017   2.715  0.2911  0.1318 -0.0033
  878SOL     hw 3510   3.624   6.104   2.676  1.0235  0.0550 -0.2573
  878SOL     hw 3511   3.689   6.025   2.788 -1.6934  0.4765  1.7118
  878SOL     vw 3512   3.635   6.029   2.719  0.1258  0.1674  0.1894
  879SOL     ow 3513   6.999   5.540   6.068 -0.1060  0.4918 -0.2129
  879SOL     hw 3514   7.088   5.508   6.080  0.5827  1.6632 -1.7192
  879SOL     hw 3515   6.988   5.544   5.973 -2.2045 -0.7060 -0.0812
  879SOL     vw 3516   7.009   5.536   6.057 -0.2918  0.4883 -0.3941
  880SOL     ow 3517   5.599   6.560   2.218 -0.5012 -0.0408 -0.3784
  880SOL     hw 3518   5.578   6.652   2.238 -2.1666 -0.6584  0.8829
  880SOL     hw 3519   5.692   6.553   2.239 -0.6131  1.0824  0.6133
  880SOL     vw 3520   5.609   6.571   2.223 -0.7355  0.0262 -0.0811
  881SOL     ow 3521   0.900   1.875   3.800 -0.1516 -0.0922  0.3398
  881SOL     hw 3522   0.834   1.823   3.846 -0.2881  1.0821  1.5390
  881SOL     hw 3523   0.974   1.880   3.862 -0.9813  2.9263  1.2504
  881SOL     vw 3524   0.901   1.869   3.815 -0.2791  0.4610  0.6182
  882SOL     ow 3525   6.067   1.189   4.268 -0.3598 -0.0136 -0.6174
  882SOL     hw 3526   6.034   1.279   4.258  3.4799  2.0105  2.0728
  882SOL     hw 3527   6.021   1.155   4.345 -0.6131  0.3323 -0.6119
  882SOL     vw 3528   6.057   1.197   4.277  0.1132  0.2991 -0.2618
  883SOL     ow 3529   3.214   2.016   1.693 -0.0973 -0.0138 -0.1387
  883SOL     hw 3530   3.204   1.999   1.599 -0.9360 -1.5180  0.1940
  883SOL     hw 3531   3.211   2.112   1.700 -0.6650  0.1045 -1.5834
  883SOL     vw 3532   3.212   2.026   1.681 -0.2828 -0.1967 -0.2855
  884SOL     ow 3533   5.863   1.470   1.484  0.4321  0.1189 -0.2300
  884SOL     hw 3534   5.897   1.405   1.545  1.0559  0.5342 -0.1227
  884SOL     hw 3535   5.800   1.422   1.431 -1.9716  0.2462  2.2675
  884SOL     vw 3536   5.860   1.455   1.485  0.1974  0.1906  0.1137
  885SOL     ow 3537   6.382   0.217   1.796 -0.1783  0.3560  0.3010
  885SOL     hw 3538   6.302   0.263   1.772  0.5345  1.7196  0.4495
  885SOL     hw 3539   6.367   0.189   1.887 -0.4722  0.6316  0.3403
  885SOL     vw 3540   6.369   0.219   1.805 -0.1233  0.5723  0.3258
  886SOL     ow 3541   2.533   1.337   1.601 -0.1604  0.4458 -0.1137
  886SOL     hw 3542   2.449   1.309   1.563 -0.7832 -1.1903  2.2806
  886SOL     hw 3543   2.515   1.425   1.635 -0.3077  0.8933 -1.2866
  886SOL     vw 3544   2.519   1.345   1.600 -0.2620  0.2890  0.0476
  887SOL     ow 3545   4.462   1.449   1.157 -0.1204  0.6647 -0.1891
  887SOL     hw 3546   4.556   1.434   1.155 -0.1429 -0.0267  1.6587
  887SOL     hw 3547   4.449   1.510   1.230 -1.1332  0.3938 -0.1287
  887SOL     vw 3548   4.473   1.455   1.166 -0.2570  0.5377  0.0626
  888SOL     ow 3549   4.345   6.724   6.457 -0.8301 -0.6803 -0.5762
  888SOL     hw 3550   4.381   6.759   6.375 -0.7652  1.3483  0.2467
  888SOL     hw 3551   4.255   6.701   6.436 -0.1147 -2.5491 -1.8094
  888SOL     vw 3552   4.338   6.726   6.443 -0.7272 -0.6592 -0.6304
  889SOL     ow 3553   2.799   0.074   5.299 -0.0977  0.1509  0.6376
  889SOL     hw 3554   2.815   0.089   5.205  2.7602 -0.0918  0.9933
  889SOL     hw 3555   2.854  -0.001   5.321 -1.0259 -0.0526  2.4441
  889SOL     vw 3556   2.809   0.066   5.289  0.1569  0.0920  0.9229
  890SOL     ow 3557   0.658   5.134   2.481  0.2320  0.0929  0.5208
  890SOL     hw 3558   0.640   5.050   2.437 -0.1755 -0.4236  1.6436
  890SOL     hw 3559   0.746   5.158   2.451  1.4886 -2.0596  2.1510
  890SOL     vw 3560   0.667   5.126   2.471  0.3440 -0.2596  0.8841
  891SOL     ow 3561   5.410   1.707   4.829  0.6113  0.2075  0.1386
  891SOL     hw 3562   5.494   1.672   4.798  1.5934  1.0356  1.7118
  891SOL     hw 3563   5.344   1.653   4.786  1.9198 -0.1847 -1.5181
  891SOL     vw 3564   5.412   1.695   4.819  0.9134  0.2650  0.1276
  892SOL     ow 3565   5.545   1.631   5.239 -0.7077 -0.0839 -0.1509
  892SOL     hw 3566   5.619   1.580   5.207 -1.0515 -2.0654  1.9386
  892SOL     hw 3567   5.584   1.712   5.273  0.3268 -0.5323 -0.2371
  892SOL     vw 3568   5.560   1.635   5.240 -0.6170 -0.4045  0.1137
  893SOL     ow 3569   2.974   2.121   0.817  0.1049  0.0108  0.0109
  893SOL     hw 3570   3.059   2.090   0.849  0.8070  0.8484 -0.9235
  893SOL     hw 3571   2.980   2.216   0.823 -1.2457  0.0546  1.0273
  893SOL     vw 3572   2.986   2.129   0.822  0.0194  0.1271  0.0218
  894SOL     ow 3573   6.320   5.134   6.355  0.6157  0.3128  0.5070
  894SOL     hw 3574   6.381   5.207   6.351  1.0498 -0.1036 -2.6683
  894SOL     hw 3575   6.300   5.114   6.264 -0.5549 -2.6627  1.2979
  894SOL     vw 3576   6.325   5.141   6.342  0.5186 -0.1345  0.1926
  895SOL     ow 3577   5.812   1.171   2.216  0.4661 -0.7341  0.1866
  895SOL     hw 3578   5.760   1.221   2.153 -2.1636 -1.2561  1.8047
  895SOL     hw 3579   5.894   1.220   2.223 -0.0664  0.5852 -1.9053
  895SOL     vw 3580   5.816   1.184   2.209  0.0491 -0.6289  0.1241
  896SOL     ow 3581   6.812   1.686   5.214  0.7494  0.1044  0.0958
  896SOL     hw 3582   6.883   1.672   5.276  1.0882 -0.6897 -0.4508
  896SOL     hw 3583   6.854   1.717   5.134  0.6767 -1.6466 -0.6748
  896SOL     vw 3584   6.827   1.688   5.212  0.7842 -0.2314 -0.0780
  897SOL     ow 3585   0.700   4.707   3.040  0.0984  0.2669  0.4199
  897SOL     hw 3586   0.686   4.646   2.967 -3.0640  1.7747 -0.4460
  897SOL     hw 3587   0.756   4.776   3.003 -0.1035  0.1708 -0.0731
  897SOL     vw 3588   0.705   4.708   3.025 -0.3454  0.4530  0.2407
  898SOL     ow 3589   6.692   1.835   5.450  0.0760 -0.8929  0.1872
  898SOL     hw 3590   6.694   1.812   5.543  1.8524  0.2375  0.4728
  898SOL     hw 3591   6.689   1.931   5.449 -1.4361 -0.9064 -0.9628
  898SOL     vw 3592   6.692   1.845   5.462  0.1109 -0.7456  0.0732
  899SOL     ow 3593   2.664   0.039   3.996  0.4621  0.0540  0.5111
  899SOL     hw 3594   2.704  -0.010   3.924  0.8539  3.3771 -1.7413
  899SOL     hw 3595   2.738   0.074   4.046  0.4325  2.3452 -0.9011
  899SOL     vw 3596   2.679   0.037   3.993  0.5101  0.7947  0.0277
  900SOL     ow 3597   3.302   6.876   1.843 -0.6752 -0.2234  0.6247
  900SOL     hw 3598   3.335   6.965   1.833 -0.9623 -0.2428 -0.7433
  900SOL     hw 3599   3.373   6.820   1.813 -0.9093 -0.3985  0.3927
  900SOL     vw 3600   3.316   6.880   1.838 -0.7440 -0.2489  0.4136
  901SOL     ow 3601   1.038   0.102   6.844 -0.1950 -0.2300 -0.0986
  901SOL     hw 3602   1.131   0.088   6.864  0.1159  0.6535 -0.8328
  901SOL     hw 3603   1.013   0.178   6.897  0.6905  2.2638 -2.9380
  901SOL     vw 3604   1.047   0.110   6.854 -0.0372  0.2156 -0.5701
  902SOL     ow 3605   0.560   6.388   6.284 -0.4223 -0.0419  0.0827
  902SOL     hw 3606   0.549   6.466   6.230  1.1936 -0.6622 -1.2261
  902SOL     hw 3607   0.501   6.323   6.246  0.6940 -0.4693 -0.9929
  902SOL     vw 3608   0.551   6.390   6.272 -0.0618 -0.1800 -0.2317
  903SOL     ow 3609   6.927   4.920   3.322 -0.1593  0.0316  0.1825
  903SOL     hw 3610   6.908   4.956   3.235 -0.7077  0.0298  0.2967
  903SOL     hw 3611   6.927   4.825   3.309 -0.4454  0.0267  0.2278
  903SOL     vw 3612   6.925   4.912   3.308 -0.2694  0.0305  0.2035
  904SOL     ow 3613   6.248   3.985   4.432  0.0070  0.2108 -0.0724
  904SOL     hw 3614   6.154   3.972   4.439 -0.0907 -0.3570 -1.8515
  904SOL     hw 3615   6.258   4.077   4.409 -0.1084  0.2524  0.0420
  904SOL     vw 3616   6.237   3.995   4.430 -0.0212  0.1414 -0.2923
  905SOL     ow 3617   2.899   0.728   2.850 -0.6753 -0.3048  0.0047
  905SOL     hw 3618   2.881   0.636   2.831  1.2605 -0.6574 -0.3530
  905SOL     hw 3619   2.853   0.776   2.781 -1.1630 -1.0378 -0.1898
  905SOL     vw 3620   2.890   0.722   2.838 -0.4842 -0.4480 -0.0681
  906SOL     ow 3621   7.035   0.403   4.956  0.1148  0.2452 -0.4662
  906SOL     hw 3622   6.945   0.374   4.971 -0.1293  1.6119  0.8833
  906SOL     hw 3623   7.089   0.330   4.987 -0.4951 -0.4316 -0.9473
  906SOL     vw 3624   7.030   0.390   4.962  0.0024  0.3362 -0.3519
  907SOL     ow 3625   1.227   4.469   4.345  0.3325 -0.3665 -0.4486
  907SOL     hw 3626   1.219   4.376   4.329 -3.0100 -0.2614  0.0628
  907SOL     hw 3627   1.191   4.511   4.267 -0.8225  0.4168  0.4723
  907SOL     vw 3628   1.221   4.463   4.333 -0.2609 -0.2494 -0.2596
  908SOL     ow 3629   3.855   1.077   6.761 -0.0519  0.1085  0.2706
  908SOL     hw 3630   3.803   1.002   6.791 -1.2954  0.3817 -1.0668
  908SOL     hw 3631   3.796   1.152   6.769  0.2717  0.5072 -0.8685
  908SOL     vw 3632   3.840   1.077   6.766 -0.1732  0.1972 -0.0563
  909SOL     ow 3633   5.850   2.099   0.211  0.2489  0.4667  0.1107
  909SOL     hw 3634   5.806   2.092   0.126  1.6195 -1.9162 -0.4899
  909SOL     hw 3635   5.900   2.181   0.206  0.2437  0.4014 -1.3543
  909SOL     vw 3636   5.851   2.109   0.199  0.4292  0.1436 -0.1618
  910SOL     ow 3637   1.804   0.605   4.437 -0.1158  0.1472 -0.5510
  910SOL     hw 3638   1.754   0.527   4.414  1.1912 -0.2062 -2.4890
  910SOL     hw 3639   1.854   0.579   4.515 -0.9687 -0.3588 -0.1647
  910SOL     vw 3640   1.804   0.591   4.444 -0.0559  0.0338 -0.7558
  911SOL     ow 3641   3.596   5.750   4.865  0.0238  0.2031 -0.2763
  911SOL     hw 3642   3.543   5.673   4.845  2.7054 -1.7902 -0.0906
  911SOL     hw 3643   3.653   5.761   4.789  0.6524  1.1473  0.3053
  911SOL     vw 3644   3.596   5.742   4.852  0.4606  0.0644 -0.1750
  912SOL     ow 3645   2.259   4.745   3.101 -0.0731 -0.5870 -0.3046
  912SOL     hw 3646   2.181   4.710   3.058 -0.5802 -0.1729  0.2550
  912SOL     hw 3647   2.317   4.669   3.112 -1.2738 -1.3496  1.1596
  912SOL     vw 3648   2.257   4.730   3.097 -0.2983 -0.6330 -0.0376
  913SOL     ow 3649   4.603   6.357   1.935 -0.0443 -0.2838  0.1809
  913SOL     hw 3650   4.527   6.406   1.964  1.1630  2.6544 -1.1684
  913SOL     hw 3651   4.650   6.335   2.015 -0.5547  1.0044  0.8545
  913SOL     vw 3652   4.599   6.361   1.949  0.0474  0.2739  0.0918
  914SOL     ow 3653   3.094   1.326   1.536 -0.4935  0.6767 -0.1560
  914SOL     hw 3654   3.170   1.370   1.574  0.0763 -1.1342  0.9435
  914SOL     hw 3655   3.113   1.323   1.443  0.7788  0.3220  0.0883
  914SOL     vw 3656   3.107   1.331   1.529 -0.2505  0.3911  0.0213
  915SOL     ow 3657   2.456   2.295   6.267 -0.9793 -0.5163  0.1758
  915SOL     hw 3658   2.511   2.269   6.341  1.3465  0.6439 -1.0452
  915SOL     hw 3659   2.427   2.383   6.288  0.2018  0.0649 -0.4935
  915SOL     vw 3660   2.460   2.303   6.280 -0.5167 -0.2865 -0.0732
  916SOL     ow 3661   0.842   5.029   6.377  0.2529  0.2239 -0.6874
  916SOL     hw 3662   0.885   4.945   6.357  0.8612 -0.2539  2.1904
  916SOL     hw 3663   0.758   5.004   6.414  2.1219  0.3968  4.4445
  916SOL     vw 3664   0.837   5.014   6.379  0.5798  0.1833  0.3695
  917SOL     ow 3665   2.916   5.121   6.772 -0.0719  0.4315  0.0901
  917SOL     hw 3666   2.965   5.071   6.837  0.5227  2.9073  1.6547
  917SOL     hw 3667   2.984   5.170   6.724 -0.6155 -0.3614 -1.5686
  917SOL     vw 3668   2.932   5.121   6.774 -0.0652  0.6535  0.0777
  918SOL     ow 3669   0.793   2.161   3.962  0.0717 -0.4543  0.4903
  918SOL     hw 3670   0.794   2.071   3.994  0.9288 -0.0395  1.7115
  918SOL     hw 3671   0.775   2.214   4.041 -1.4791  0.3866 -0.3772
  918SOL     vw 3672   0.791   2.156   3.977 -0.0198 -0.2885  0.5369
  919SOL     ow 3673   4.166   5.914   6.273  0.1305 -0.2646  0.3714
  919SOL     hw 3674   4.206   5.974   6.210 -0.0420 -0.9023 -0.3676
  919SOL     hw 3675   4.131   5.843   6.219  0.0465 -0.8670  1.1999
  919SOL     vw 3676   4.166   5.913   6.257  0.0970 -0.4282  0.3834
  920SOL     ow 3677   5.022   3.977   1.209  0.1994 -0.6601 -0.1209
  920SOL     hw 3678   5.046   3.886   1.196 -0.5685 -0.9187  0.1692
  920SOL     hw 3679   5.099   4.027   1.182  0.5971 -1.3873 -0.3590
  920SOL     vw 3680   5.035   3.972   1.204  0.1507 -0.7901 -0.1141
  921SOL     ow 3681   1.259   3.137   3.779 -0.0230 -0.4712  0.2610
  921SOL     hw 3682   1.218   3.183   3.706 -1.4393 -0.0505  1.2689
  921SOL     hw 3683   1.344   3.179   3.790  0.3453 -0.7563 -1.3212
  921SOL     vw 3684   1.265   3.148   3.771 -0.1613 -0.4534  0.1851
  922SOL     ow 3685   4.687   3.486   6.729 -0.2874  0.0468  0.5014
  922SOL     hw 3686   4.680   3.422   6.658 -1.7910 -0.5002  1.0977
  922SOL     hw 3687   4.766   3.536   6.709 -0.8077  0.0680 -1.6821
  922SOL     vw 3688   4.696   3.484   6.717 -0.5543 -0.0228  0.2918
  923SOL     ow 3689   2.598   5.493   5.387 -0.5800  0.4087 -0.2304
  923SOL     hw 3690   2.536   5.509   5.316 -0.4551 -0.3033 -0.5146
  923SOL     hw 3691   2.637   5.408   5.365  1.4997  1.4551 -0.8002
  923SOL     vw 3692   2.595   5.484   5.375 -0.2891  0.4530 -0.3433
  924SOL     ow 3693   2.504   5.890   0.107  0.0614  0.1131 -0.2170
  924SOL     hw 3694   2.568   5.866   0.174  0.4659  1.8764  0.0695
  924SOL     hw 3695   2.420   5.894   0.154  0.3061  1.1089  0.1635
  924SOL     vw 3696   2.501   5.887   0.122  0.1472  0.4773 -0.1290
  925SOL     ow 3697   6.150   2.142   6.657 -0.6541 -0.5639 -0.2635
  925SOL     hw 3698   6.162   2.208   6.588 -2.2932 -0.2601 -0.2941
  925SOL     hw 3699   6.060   2.155   6.687 -0.7563 -2.2759  0.2788
  925SOL     vw 3700   6.140   2.153   6.652 -0.8838 -0.7497 -0.1960
  926SOL     ow 3701   1.965   2.110   6.813  0.5583 -0.2823 -0.4360
  926SOL     hw 3702   1.931   2.196   6.789  0.6162 -0.3110 -0.6272
  926SOL     hw 3703   1.909   2.080   6.884  2.3591  1.2286  1.7751
  926SOL     vw 3704   1.953   2.118   6.819  0.8036 -0.0868 -0.1698
  927SOL     ow 3705   5.439   5.933   5.425  0.6025  0.2579 -0.1667
  927SOL     hw 3706   5.377   5.927   5.498 -0.6866  0.0061 -1.2487
  927SOL     hw 3707   5.500   6.002   5.452 -1.8970  2.6903 -0.2832
  927SOL     vw 3708   5.439   5.942   5.439  0.1025  0.5457 -0.3245
  928SOL     ow 3709   0.962   6.915   6.903  0.1058  0.5796  0.1024
  928SOL     hw 3710   0.981   6.884   6.991  1.5775  0.3022 -0.2824
  928SOL     hw 3711   0.971   6.838   6.848 -1.6629  0.5557 -0.2229
  928SOL     vw 3712   0.966   6.901   6.907  0.0666  0.5400  0.0086
  929SOL     ow 3713   3.620   5.116   3.597 -0.4681 -0.5946 -0.0187
  929SOL     hw 3714   3.595   5.148   3.684 -3.2524  0.9350 -1.2313
  929SOL     hw 3715   3.696   5.061   3.612  1.4215  2.4764  2.9508
  929SOL     vw 3716   3.626   5.113   3.610 -0.5862  0.0126  0.2131
  930SOL     ow 3717   0.968   5.250   4.712 -0.2132  0.4263  0.3909
  930SOL     hw 3718   1.027   5.175   4.721 -0.3614  0.1715 -0.6078
  930SOL     hw 3719   0.983   5.302   4.791 -0.2119 -0.7146  1.1631
  930SOL     vw 3720   0.978   5.247   4.723 -0.2326  0.2420  0.3612
  931SOL     ow 3721   0.496   4.590   3.381 -0.4578 -0.0200  0.1500
  931SOL     hw 3722   0.581   4.620   3.413  0.3483 -2.3684  0.4375
  931SOL     hw 3723   0.450   4.561   3.459 -1.1470  0.3436 -0.1157
  931SOL     vw 3724   0.501   4.590   3.396 -0.4424 -0.2816  0.1528
  932SOL     ow 3725   0.287   0.395   6.688  0.8929 -0.5915 -0.1381
  932SOL     hw 3726   0.362   0.406   6.747  0.2722 -2.5999  1.1201
  932SOL     hw 3727   0.268   0.301   6.691 -0.8951 -0.3129 -1.4130
  932SOL     vw 3728   0.295   0.384   6.697  0.5751 -0.8198 -0.1402
  933SOL     ow 3729   6.623   4.455   4.439  0.4602 -0.1320  0.4395
  933SOL     hw 3730   6.705   4.501   4.454 -0.5271  1.5718  0.8710
  933SOL     hw 3731   6.555   4.516   4.468 -0.9971 -1.2288 -0.4884
  933SOL     vw 3732   6.625   4.469   4.445  0.1378 -0.0520  0.3738
  934SOL     ow 3733   5.554   6.074   5.171  0.0853 -0.0855  0.3589
  934SOL     hw 3734   5.602   6.125   5.235 -0.9851  1.2099  0.1774
  934SOL     hw 3735   5.535   6.136   5.100 -2.7613 -0.1859  0.9179
  934SOL     vw 3736   5.558   6.089   5.170 -0.4313  0.0725  0.4089
  935SOL     ow 3737   3.448   4.355   6.440 -0.6154 -0.4052 -0.0017
  935SOL     hw 3738   3.353   4.362   6.447 -0.4833  0.3778  1.2122
  935SOL     hw 3739   3.477   4.443   6.417 -0.2419 -0.8621 -1.3920
  935SOL     vw 3740   3.439   4.368   6.438 -0.5487 -0.3624 -0.0248
  936SOL     ow 3741   5.143   5.325   3.431  0.0257  0.2444 -0.7513
  936SOL     hw 3742   5.126   5.258   3.364  0.8032  0.8039 -1.5323
  936SOL     hw 3743   5.237   5.320   3.446  0.1205  1.2992 -0.9622
  936SOL     vw 3744   5.153   5.315   3.424  0.1407  0.4573 -0.8823
  937SOL     ow 3745   6.463   6.584   2.096 -0.6597  0.6474  0.1911
  937SOL     hw 3746   6.517   6.660   2.118 -0.4469  0.7155 -0.5592
  937SOL     hw 3747   6.373   6.617   2.105 -0.6325  0.3128  2.2405
  937SOL     vw 3748   6.458   6.599   2.100 -0.6282  0.6120  0.3625
  938SOL     ow 3749   4.949   3.868   5.798 -0.3977  0.7690 -0.4160
  938SOL     hw 3750   4.968   3.804   5.866 -0.5938 -0.6584 -1.6678
  938SOL     hw 3751   5.034   3.882   5.754 -0.0560  2.4122  0.6751
  938SOL     vw 3752   4.963   3.862   5.801 -0.3786  0.7975 -0.4368
  939SOL     ow 3753   5.356   6.111   4.938  0.0274 -0.1523 -0.0280
  939SOL     hw 3754   5.376   6.132   4.847  1.8602 -0.4044  0.2767
  939SOL     hw 3755   5.278   6.163   4.958 -0.8366 -0.6191 -1.9227
  939SOL     vw 3756   5.348   6.121   4.929  0.1554 -0.2470 -0.2379
  940SOL     ow 3757   3.794   0.743   2.764  0.1488  0.7511 -0.5393
  940SOL     hw 3758   3.792   0.733   2.860 -1.9900 -0.1852 -0.6188
  940SOL     hw 3759   3.711   0.704   2.735  0.1713  2.1714 -2.6747
  940SOL     vw 3760   3.783   0.736   2.773 -0.1304  0.8150 -0.8317
  941SOL     ow 3761   4.446   6.832   5.776  0.3007 -0.1539  0.0872
  941SOL     hw 3762   4.376   6.771   5.797  1.9149 -1.6890  1.2980
  941SOL     hw 3763   4.471   6.870   5.860 -1.1415  2.8259 -0.7170
  941SOL     vw 3764   4.440   6.829   5.790  0.3233  0.0367  0.1411
  942SOL     ow 3765   0.669   3.062   3.008  0.3729 -0.0219 -0.0605
  942SOL     hw 3766   0.623   3.035   2.929  0.8429  0.3015 -0.4561
  942SOL     hw 3767   0.740   3.118   2.976  0.7528 -0.1320  0.5646
  942SOL     vw 3768   0.672   3.066   2.993  0.4851  0.0062 -0.0303
  943SOL     ow 3769   0.780   3.131   0.799  0.0481  0.6153  0.5660
  943SOL     hw 3770   0.711   3.171   0.852 -0.9166  0.4202 -0.4909
  943SOL     hw 3771   0.739   3.119   0.713  0.5244 -1.9435  0.6226
  943SOL     vw 3772   0.765   3.135   0.794 -0.0163  0.2520  0.4340
  944SOL     ow 3773   2.835   1.364   1.641 -0.2165 -0.1682  1.0253
  944SOL     hw 3774   2.835   1.355   1.736 -0.8499 -1.5049  0.9244
  944SOL     hw 3775   2.927   1.361   1.616 -0.0587  0.0248  1.5863
  944SOL     vw 3776   2.847   1.362   1.650 -0.2794 -0.3191  1.0861
  945SOL     ow 3777   4.083   1.015   2.046  0.4361 -0.2110  0.4397
  945SOL     hw 3778   3.999   1.028   2.091  1.2479  2.3043  1.4053
  945SOL     hw 3779   4.118   0.934   2.083 -0.8284 -0.4308  1.2167
  945SOL     vw 3780   4.077   1.006   2.057  0.3765  0.0919  0.6697
  946SOL     ow 3781   3.385   3.865   0.696 -0.1912 -0.9209  0.5253
  946SOL     hw 3782   3.449   3.846   0.627  0.3292  2.4781 -0.1051
  946SOL     hw 3783   3.301   3.863   0.652 -0.1864 -1.7342  0.5280
  946SOL     vw 3784   3.382   3.862   0.681 -0.1218 -0.5796  0.4425
  947SOL     ow 3785   4.101   0.531   0.798  0.1666  0.8966  0.1742
  947SOL     hw 3786   4.057   0.446   0.797  2.2472 -0.2443 -0.0593
  947SOL     hw 3787   4.177   0.518   0.856  0.7400  2.4892 -0.1586
  947SOL     vw 3788   4.105   0.518   0.806  0.5167  0.9562  0.0995
  948SOL     ow 3789   6.069   5.509   2.303 -0.0160  0.0781  0.1335
  948SOL     hw 3790   6.131   5.446   2.340 -0.4965  0.7945  2.2763
  948SOL     hw 3791   6.109   5.594   2.318 -0.2147  0.3971 -1.0793
  948SOL     vw 3792   6.082   5.512   2.310 -0.1059  0.2151  0.2562
  949SOL     ow 3793   1.755   5.029   0.120  0.2381 -0.2489 -0.0383
  949SOL     hw 3794   1.694   4.967   0.080 -0.7165  1.0710 -0.7168
  949SOL     hw 3795   1.712   5.115   0.109  1.9088  0.6346  0.0775
  949SOL     vw 3796   1.741   5.032   0.113  0.3326  0.0417 -0.1125
  950SOL     ow 3797   3.341   1.421   1.638 -0.0161  0.6640  0.1977
  950SOL     hw 3798   3.405   1.434   1.568  1.1037 -0.4887  0.9637
  950SOL     hw 3799   3.360   1.334   1.672 -1.0347  0.8929  1.4275
  950SOL     vw 3800   3.352   1.411   1.633 -0.0027  0.5422  0.4610
  951SOL     ow 3801   5.517   4.660   3.498 -0.7754  0.6636 -0.0732
  951SOL     hw 3802   5.537   4.753   3.499 -1.6852  0.8983  2.6740
  951SOL     hw 3803   5.511   4.638   3.405 -2.4224  3.7621 -0.8169
  951SOL     vw 3804   5.519   4.669   3.486 -1.1129  1.1034  0.1912
  952SOL     ow 3805   3.610   0.142   4.202  0.0942  0.1444 -0.2768
  952SOL     hw 3806   3.706   0.139   4.197  0.1297  1.7533 -1.3652
  952SOL     hw 3807   3.590   0.104   4.288  1.5717 -1.6917 -0.6650
  952SOL     vw 3808   3.620   0.137   4.213  0.2937  0.1144 -0.4714
  953SOL     ow 3809   6.976   4.510   5.106  0.9078 -0.1867 -0.0395
  953SOL     hw 3810   7.019   4.580   5.056  0.4202 -0.4246 -0.8017
  953SOL     hw 3811   7.026   4.431   5.083  0.5104 -0.3428 -0.3707
  953SOL     vw 3812   6.988   4.509   5.096  0.7913 -0.2384 -0.1836
  954SOL     ow 3813   4.531   5.574   5.163 -0.5531 -0.5513  0.3865
  954SOL     hw 3814   4.601   5.514   5.138  1.1536  1.4381  0.0773
  954SOL     hw 3815   4.521   5.562   5.257  1.3299  0.1524  0.7289
  954SOL     vw 3816   4.539   5.565   5.172 -0.0794 -0.1960  0.3910
  955SOL     ow 3817   5.757   6.134   5.980 -0.0960 -0.2610  0.1384
  955SOL     hw 3818   5.832   6.074   5.977 -0.6412 -1.0023  1.0512
  955SOL     hw 3819   5.758   6.168   6.069 -0.0092  0.8320 -0.2641
  955SOL     vw 3820   5.767   6.131   5.991 -0.1564 -0.2146  0.2058
  956SOL     ow 3821   5.159   2.167   0.938 -0.2945 -0.5927  0.1400
  956SOL     hw 3822   5.103   2.136   1.009 -1.1220 -0.1620 -0.3121
  956SOL     hw 3823   5.202   2.245   0.973  1.0024 -1.6017  0.9187
  956SOL     vw 3824   5.157   2.173   0.952 -0.2327 -0.6689  0.1831
  957SOL     ow 3825   1.775   3.458   4.916 -0.3391  0.9571 -0.3162
  957SOL     hw 3826   1.827   3.527   4.874 -0.9930  0.1060 -2.7038
  957SOL     hw 3827   1.833   3.382   4.920  0.5345  1.6608  2.7366
  957SOL     vw 3828   1.789   3.457   4.911 -0.3101  0.9376 -0.2284
  958SOL     ow 3829   2.690   0.076   0.556 -0.1478  0.5007 -0.0040
  958SOL     hw 3830   2.693   0.148   0.619 -1.6924 -0.2401  0.9841
  958SOL     hw 3831   2.758   0.015   0.585  0.8620  1.3194 -0.5846
  958SOL     vw 3832   2.700   0.077   0.568 -0.2183  0.5110  0.0497
  959SOL     ow 3833   6.485   2.189   4.624  0.6173 -0.2562 -0.6539
  959SOL     hw 3834   6.392   2.174   4.607  0.1962  0.3503  0.9846
  959SOL     hw 3835   6.511   2.119   4.684  0.3766  1.3427  1.4438
  959SOL     vw 3836   6.477   2.178   4.630  0.5300  0.0349 -0.1614
  960SOL     ow 3837   1.658   6.057   6.410  0.9616 -0.4510 -0.3377
  960SOL     hw 3838   1.648   6.037   6.317 -0.4362 -1.2260 -0.0513
  960SOL     hw 3839   1.618   6.144   6.421 -0.9739 -1.3236 -0.1042
  960SOL     vw 3840   1.651   6.066   6.399  0.5218 -0.6683 -0.2692
  961SOL     ow 3841   1.417   0.830   0.655 -0.4910 -0.5352 -0.8861
  961SOL     hw 3842   1.481   0.888   0.695  0.2748 -0.9050 -1.5444
  961SOL     hw 3843   1.342   0.886   0.637 -1.1020 -0.4747  1.5480
  961SOL     vw 3844   1.416   0.845   0.658 -0.4706 -0.5760 -0.6518
  962SOL     ow 3845   4.683   4.319   1.942 -0.1711 -0.1682  0.2432
  962SOL     hw 3846   4.759   4.375   1.925  0.7689 -1.7747 -1.1468
  962SOL     hw 3847   4.702   4.279   2.028 -1.0397  1.8519  1.4391
  962SOL     vw 3848   4.696   4.321   1.951 -0.1616 -0.1137  0.2176
  963SOL     ow 3849   2.471   4.110   1.513  0.0528 -0.3742 -0.1914
  963SOL     hw 3850   2.388   4.064   1.523 -0.2994  0.1465 -0.6061
  963SOL     hw 3851   2.529   4.047   1.471 -0.7699 -0.1096 -1.8340
  963SOL     vw 3852   2.467   4.096   1.509 -0.1023 -0.2706 -0.4628
  964SOL     ow 3853   1.600   6.829   6.770  0.0564 -0.7043 -0.7467
  964SOL     hw 3854   1.655   6.870   6.837 -1.7337 -0.9226  0.9279
  964SOL     hw 3855   1.533   6.894   6.749 -1.4491 -1.8676  0.2532
  964SOL     vw 3856   1.599   6.843   6.776 -0.3784 -0.8867 -0.3939
  965SOL     ow 3857   2.014   3.548   3.792  0.0029  0.7856  0.2735
  965SOL     hw 3858   1.939   3.539   3.734 -0.9306 -2.2942  1.7722
  965SOL     hw 3859   2.022   3.643   3.806 -1.5844  1.4164 -2.3901
  965SOL     vw 3860   2.005   3.559   3.786 -0.3296  0.4625  0.1197
  966SOL     ow 3861   4.891   5.765   4.397 -0.1004  0.6317 -0.3008
  966SOL     hw 3862   4.836   5.690   4.372  1.4318 -0.6357  0.0012
  966SOL     hw 3863   4.913   5.807   4.314  2.8663 -2.0552 -1.0490
  966SOL     vw 3864   4.886   5.761   4.383  0.4933  0.1099 -0.3595
  967SOL     ow 3865   6.010   2.271   3.515  0.5419  0.1941  0.1998
  967SOL     hw 3866   6.041   2.360   3.501 -0.9900  0.6000 -0.8855
  967SOL     hw 3867   6.040   2.223   3.438  0.7444 -0.0542  0.4323
  967SOL     vw 3868   6.018   2.276   3.503  0.3667  0.2148  0.0874
  968SOL     ow 3869   6.947   2.081   6.565 -0.8262 -0.4298 -0.5768
  968SOL     hw 3870   6.920   2.122   6.483  0.2778  0.0270 -0.7223
  968SOL     hw 3871   6.871   2.028   6.591 -1.2299 -0.4990 -1.8272
  968SOL     vw 3872   6.934   2.079   6.557 -0.7336 -0.3787 -0.7608
  969SOL     ow 3873   5.033   5.435   2.152  0.2351  0.1557  0.3491
  969SOL     hw 3874   5.118   5.413   2.191 -0.6085 -1.4945  1.3478
  969SOL     hw 3875   4.985   5.480   2.221  0.4466  1.5703 -0.3833
  969SOL     vw 3876   5.038   5.438   2.166  0.1519  0.1247  0.3842
  970SOL     ow 3877   1.415   0.125   3.435  0.6397 -0.2817  0.0222
  970SOL     hw 3878   1.381   0.086   3.354  0.2983  0.7893 -0.3708
  970SOL     hw 3879   1.469   0.056   3.473  0.3488 -1.0130 -0.8205
  970SOL     vw 3880   1.417   0.110   3.429  0.5563 -0.2369 -0.1408
  971SOL     ow 3881   1.928   2.745   1.222 -0.3209  0.1076 -0.3859
  971SOL     hw 3882   1.932   2.687   1.298  2.3106  2.5050  1.5244
  971SOL     hw 3883   1.968   2.696   1.152 -1.8205 -1.7771 -0.0115
  971SOL     vw 3884   1.934   2.731   1.223 -0.1715  0.1751 -0.0845
  972SOL     ow 3885   6.155   1.406   5.046  0.6588 -0.2583 -0.2770
  972SOL     hw 3886   6.069   1.386   5.009  0.5916  0.2548 -0.3953
  972SOL     hw 3887   6.147   1.384   5.139  0.8795 -1.7113 -0.5777
  972SOL     vw 3888   6.143   1.400   5.053  0.6790 -0.3824 -0.3324
  973SOL     ow 3889   2.118   2.320   3.158 -0.0659 -0.1018  0.1639
  973SOL     hw 3890   2.124   2.366   3.241  1.1118 -1.8069  1.1066
  973SOL     hw 3891   2.208   2.322   3.123 -0.7768  1.7216 -1.7756
  973SOL     vw 3892   2.131   2.326   3.164 -0.0043 -0.0862  0.0323
  974SOL     ow 3893   1.420   3.714   3.682 -0.3986 -0.2421  0.2568
  974SOL     hw 3894   1.372   3.636   3.653 -0.9152 -0.0474  0.5780
  974SOL     hw 3895   1.471   3.684   3.757 -0.1751 -0.4022  0.0410
  974SOL     vw 3896   1.420   3.700   3.688 -0.4373 -0.2376  0.2707
  975SOL     ow 3897   5.844   3.837   5.530 -0.5760 -0.2737  0.1684
  975SOL     hw 3898   5.773   3.859   5.469 -1.2145  0.5242  1.1567
  975SOL     hw 3899   5.802   3.837   5.616  1.1421  3.3173  1.2017
  975SOL     vw 3900   5.829   3.840   5.533 -0.4337  0.3053  0.4349
  976SOL     ow 3901   1.400   7.015   2.682  0.4105  0.2884  0.2466
  976SOL     hw 3902   1.470   7.076   2.703 -0.1056  1.1169 -0.3634
  976SOL     hw 3903   1.395   6.956   2.757  0.4396  1.4403  1.1728
  976SOL     vw 3904   1.409   7.015   2.695  0.3463  0.5498  0.2884
  977SOL     ow 3905   3.050   0.607   5.047  0.0024 -0.1139  0.2287
  977SOL     hw 3906   3.104   0.611   5.127  0.3142  0.0845  0.0110
  977SOL     hw 3907   2.967   0.648   5.073  0.2092  0.2267  0.3722
  977SOL     vw 3908   3.046   0.613   5.061  0.0707 -0.0428  0.2186
  978SOL     ow 3909   3.988   6.970   6.268 -0.2516 -0.0483 -0.2819
  978SOL     hw 3910   3.981   6.915   6.346  0.0484 -1.5175 -1.2579
  978SOL     hw 3911   4.051   6.925   6.212  2.0204  2.6122 -0.0772
  978SOL     vw 3912   3.995   6.957   6.271  0.0876  0.1090 -0.3836
  979SOL     ow 3913   5.971   4.524   4.885  0.0689  0.0406  0.0364
  979SOL     hw 3914   6.028   4.600   4.873 -0.0195  0.2271  0.7241
  979SOL     hw 3915   5.946   4.499   4.797 -0.8733  1.5513 -0.1641
  979SOL     vw 3916   5.976   4.531   4.872 -0.0670  0.2644  0.1009
  980SOL     ow 3917   6.580   2.284   2.571  0.4574 -0.2074  0.1871
  980SOL     hw 3918   6.589   2.356   2.508 -2.3551  1.1422  1.1809
  980SOL     hw 3919   6.647   2.303   2.637 -0.6898  2.0195  0.8208
  980SOL     vw 3920   6.590   2.296   2.571 -0.0651  0.2645  0.4019
  981SOL     ow 3921   3.231   1.768   4.837 -0.3789 -0.4121  0.0538
  981SOL     hw 3922   3.304   1.771   4.775 -0.1358  2.0492  0.3418
  981SOL     hw 3923   3.272   1.758   4.923 -0.6105 -2.0056  0.0113
  981SOL     vw 3924   3.246   1.767   4.840 -0.3774 -0.2977  0.0858
  982SOL     ow 3925   0.121   6.117   4.956  0.6540 -0.1496 -0.4093
  982SOL     hw 3926   0.047   6.172   4.983  0.5846  0.6899 -2.1989
  982SOL     hw 3927   0.182   6.121   5.030 -0.0465  1.0622  0.1351
  982SOL     vw 3928   0.119   6.125   4.970  0.5524  0.1209 -0.5736
  983SOL     ow 3929   3.107   6.602   5.879 -0.8398  0.0173 -0.2002
  983SOL     hw 3930   3.085   6.536   5.944 -2.5118  1.3472  0.6512
  983SOL     hw 3931   3.072   6.684   5.914 -0.4763  1.0447 -2.0816
  983SOL     vw 3932   3.099   6.604   5.892 -1.0124  0.3283 -0.3359
  984SOL     ow 3933   4.063   2.381   5.684 -0.3648 -0.2711 -0.7723
  984SOL     hw 3934   4.081   2.301   5.733 -0.9433 -0.8478 -1.4843
  984SOL     hw 3935   3.971   2.400   5.702  0.2363  1.3482  0.9568
  984SOL     vw 3936   4.053   2.373   5.693 -0.3619 -0.1335 -0.6380
  985SOL     ow 3937   4.766   4.128   5.896  0.1730  0.1920 -0.0020
  985SOL     hw 3938   4.755   4.100   5.987  0.7918  0.0632  0.0412
  985SOL     hw 3939   4.690   4.184   5.878 -0.7123 -0.9427  0.1295
  985SOL     vw 3940   4.755   4.132   5.906  0.1376  0.0253  0.0210
  986SOL     ow 3941   3.953   3.312   3.608  0.9232 -0.0236  0.0862
  986SOL     hw 3942   3.870   3.277   3.576  1.4139 -0.9913 -0.1739
  986SOL     hw 3943   3.971   3.261   3.687  1.1029  0.4261  0.3386
  986SOL     vw 3944   3.944   3.301   3.615  1.0116 -0.0919  0.0852
  987SOL     ow 3945   3.397   3.313   6.506 -0.0786  0.2400 -0.1332
  987SOL     hw 3946   3.394   3.403   6.474 -0.9556 -0.2035 -1.3345
  987SOL     hw 3947   3.340   3.314   6.583 -0.9294  0.4937 -0.7478
  987SOL     vw 3948   3.389   3.325   6.512 -0.3065  0.2151 -0.3729
  988SOL     ow 3949   0.216   5.495   6.071  0.2270  0.1037  0.2948
  988SOL     hw 3950   0.258   5.572   6.031  0.2288 -1.0288 -2.0870
  988SOL     hw 3951   0.259   5.486   6.156  1.9510  1.3409 -0.3731
  988SOL     vw 3952   0.227   5.504   6.077  0.4547  0.1178 -0.1078
  989SOL     ow 3953   1.592   6.753   5.152 -0.5492  0.5698 -0.6676
  989SOL     hw 3954   1.520   6.694   5.129  1.6628 -2.3038 -0.8613
  989SOL     hw 3955   1.549   6.835   5.174 -3.8195 -0.7691 -1.3485
  989SOL     vw 3956   1.577   6.756   5.151 -0.6888  0.0141 -0.7830
  990SOL     ow 3957   4.790   0.562   6.454  0.9185  0.3752 -0.4264
  990SOL     hw 3958   4.776   0.608   6.536  0.2489 -2.2088  1.0083
  990SOL     hw 3959   4.875   0.593   6.423  1.8572  0.3938  1.9846
  990SOL     vw 3960   4.800   0.572   6.460  0.9537  0.0367  0.0808
  991SOL     ow 3961   1.577   5.329   5.148  0.1276 -0.2228  0.3842
  991SOL     hw 3962   1.641   5.372   5.206  0.6929 -1.8584  1.0333
  991SOL     hw 3963   1.499   5.384   5.155  1.0960  1.2167  0.4345
  991SOL     vw 3964   1.575   5.342   5.157  0.3300 -0.2487  0.4764
  992SOL     ow 3965   1.675   0.693   0.623  0.4382  0.3857  0.0779
  992SOL     hw 3966   1.708   0.769   0.671  0.0632 -0.3895  1.6180
  992SOL     hw 3967   1.717   0.618   0.665 -1.0289 -0.4234  0.1450
  992SOL     vw 3968   1.685   0.693   0.635  0.1953  0.1766  0.2899
  993SOL     ow 3969   2.288   2.186   4.298 -0.4507  0.2593 -0.4698
  993SOL     hw 3970   2.357   2.157   4.238 -1.2451 -0.1166 -1.2216
  993SOL     hw 3971   2.319   2.160   4.385  0.1360 -0.3202 -0.8432
  993SOL     vw 3972   2.301   2.179   4.301 -0.4781  0.1332 -0.6180
  994SOL     ow 3973   1.421   1.022   4.834 -0.1155 -0.5350 -0.0716
  994SOL     hw 3974   1.512   1.045   4.854  0.0998 -1.5044  0.1146
  994SOL     hw 3975   1.403   1.065   4.751  0.9338 -1.3230 -0.7376
  994SOL     vw 3976   1.431   1.030   4.826  0.0513 -0.7668 -0.1347
  995SOL     ow 3977   1.492   2.840   3.896 -0.1170 -0.0933 -0.0902
  995SOL     hw 3978   1.461   2.805   3.979  1.6628 -0.9089  0.2591
  995SOL     hw 3979   1.534   2.923   3.919 -2.4502  1.3746 -0.6541
  995SOL     vw 3980   1.493   2.847   3.910 -0.1900 -0.0073 -0.1186
  996SOL     ow 3981   6.522   6.830   1.182 -0.6313  0.4343  0.2383
  996SOL     hw 3982   6.455   6.776   1.223 -0.5151 -1.2629 -1.6148
  996SOL     hw 3983   6.479   6.869   1.106 -0.0193  0.8074  0.0735
  996SOL     vw 3984   6.508   6.828   1.177 -0.5352  0.2592 -0.0280
  997SOL     ow 3985   6.447   3.837   2.109  0.4080  0.2981 -0.1379
  997SOL     hw 3986   6.367   3.822   2.060  0.8395  0.9156 -1.0500
  997SOL     hw 3987   6.421   3.892   2.182 -0.4191 -1.3826  0.9103
  997SOL     vw 3988   6.433   3.842   2.112  0.3560  0.1577 -0.1199
  998SOL     ow 3989   2.566   3.530   2.297  0.2415  0.1188  0.2434
  998SOL     hw 3990   2.480   3.571   2.307 -0.0726  0.0041 -1.6726
  998SOL     hw 3991   2.546   3.437   2.284  0.7183 -0.0245  0.5181
  998SOL     vw 3992   2.552   3.523   2.297  0.2630  0.0848  0.0268
  999SOL     ow 3993   0.048   4.579   4.105  0.7793  0.0286 -0.4773
  999SOL     hw 3994   0.092   4.525   4.039 -0.8946  0.6622 -2.2040
  999SOL     hw 3995   0.101   4.657   4.113  1.9833 -0.8353  0.3430
  999SOL     vw 3996   0.061   4.582   4.098  0.7173 -0.0019 -0.5970
 1000SOL     ow 3997   1.007   3.251   6.134 -0.1042  0.5201 -0.1443
 1000SOL     hw 3998   1.078   3.313   6.152 -2.0409  2.9410 -0.2347
 1000SOL     hw 3999   0.956   3.249   6.215  1.0246 -2.7464  0.6316
 1000SOL     vw 4000   1.010   3.259   6.147 -0.2108  0.4084 -0.0539
 1001SOL     ow 4001   0.851   0.531   1.846  0.1117 -0.3562 -0.5231
 1001SOL     hw 4002   0.931   0.510   1.895  1.1368  0.0458 -1.9350
 1001SOL     hw 4003   0.831   0.621   1.871  0.1264 -0.4506 -0.1751
 1001SOL     vw 4004   0.859   0.540   1.856  0.2488 -0.3157 -0.6635
 1002SOL     ow 4005   6.044   3.598   1.243  0.8129  0.4821  0.4372
 1002SOL     hw 4006   5.997   3.550   1.174 -0.5456  1.7742  0.4100
 1002SOL     hw 4007   5.992   3.582   1.322  1.2350  0.6434  0.7499
 1002SOL     vw 4008   6.031   3.590   1.245  0.6893  0.6739  0.4749
 1003SOL     ow 4009   6.342   3.750   0.631  0.0394 -0.0722  0.1740
 1003SOL     hw 4010   6.261   3.755   0.682  0.8223  1.1585  1.3563
 1003SOL     hw 4011   6.333   3.818   0.565 -0.9930 -1.6951 -1.4523
 1003SOL     vw 4012   6.330   3.759   0.629  0.0067 -0.1240  0.1154
 1004SOL     ow 4013   1.464   2.668   3.673  0.3800  0.8328 -0.3882
 1004SOL     hw 4014   1.435   2.727   3.604  0.3440  0.4207 -0.7358
 1004SOL     hw 4015   1.439   2.581   3.641 -0.3010  0.6991  0.4836
 1004SOL     vw 4016   1.457   2.664   3.659  0.2854  0.7608 -0.3190
 1005SOL     ow 4017   5.934   4.281   5.054  0.1962 -0.2547  0.1744
 1005SOL     hw 4018   5.947   4.273   5.149  1.0836  0.1878  0.1023
 1005SOL     hw 4019   5.937   4.191   5.022 -2.9629 -0.7078  0.8672
 1005SOL     vw 4020   5.936   4.268   5.063 -0.1035 -0.2561  0.2563
 1006SOL     ow 4021   4.210   5.221   4.958  0.5742  0.3391 -0.4007
 1006SOL     hw 4022   4.267   5.144   4.964 -0.5063 -0.3931  1.2960
 1006SOL     hw 4023   4.254   5.279   4.896  0.9769 -2.0068 -2.4401
 1006SOL     vw 4024   4.224   5.219   4.951  0.4847 -0.0670 -0.4458
 1007SOL     ow 4025   4.706   1.383   6.823 -0.2690 -0.0107  0.1466
 1007SOL     hw 4026   4.700   1.303   6.770  0.3738 -1.1383  1.6762
 1007SOL     hw 4027   4.626   1.431   6.803 -0.9495 -1.3120 -0.4043
 1007SOL     vw 4028   4.694   1.379   6.814 -0.2739 -0.3312  0.2756
 1008SOL     ow 4029   4.593   2.247   6.877 -0.2336  0.4440 -0.4104
 1008SOL     hw 4030   4.573   2.157   6.902 -0.3914  0.2369 -1.2550
 1008SOL     hw 4031   4.685   2.245   6.851 -0.4425  0.3549 -1.1657
 1008SOL     vw 4032   4.603   2.235   6.877 -0.2818  0.4051 -0.6216
 1009SOL     ow 4033   5.928   6.681   1.109 -0.8294  0.1475  0.6187
 1009SOL     hw 4034   5.924   6.776   1.100  1.6018  0.2899  0.4877
 1009SOL     hw 4035   5.978   6.666   1.189  2.9024 -0.8937 -1.6458
 1009SOL     vw 4036   5.934   6.691   1.118 -0.0162  0.0291  0.3026
 1010SOL     ow 4037   5.655   3.977   1.010  0.9493  0.3170  0.1744
 1010SOL     hw 4038   5.681   3.886   0.995 -0.7933 -0.1830 -0.0167
 1010SOL     hw 4039   5.668   4.019   0.925 -0.1217 -0.2482 -0.2810
 1010SOL     vw 4040   5.660   3.970   0.997  0.5782  0.1764  0.0890
 1011SOL     ow 4041   5.180   5.104   0.468 -0.0371  0.2205  0.1681
 1011SOL     hw 4042   5.106   5.052   0.435 -0.1311 -0.4812  1.4451
 1011SOL     hw 4043   5.258   5.053   0.444 -0.1122 -0.3617  1.1119
 1011SOL     vw 4044   5.180   5.091   0.460 -0.0596  0.0513  0.4611
 1012SOL     ow 4045   2.321   4.158   4.260 -0.1713 -0.5008  0.2564
 1012SOL     hw 4046   2.260   4.102   4.212 -0.1580  1.2501 -1.9738
 1012SOL     hw 4047   2.267   4.200   4.327 -0.5196 -1.8759  0.8772
 1012SOL     vw 4048   2.306   4.156   4.263 -0.2154 -0.4511  0.0441
 1013SOL     ow 4049   6.661   3.977   5.590 -0.7622 -0.2365 -0.3951
 1013SOL     hw 4050   6.639   3.940   5.676 -0.6560 -0.8451 -0.6280
 1013SOL     hw 4051   6.623   4.065   5.592 -0.8789 -0.2941  0.2244
 1013SOL     vw 4052   6.653   3.984   5.602 -0.7637 -0.3244 -0.3440
 1014SOL     ow 4053   5.812   5.352   0.413 -0.0305 -0.4684  0.6047
 1014SOL     hw 4054   5.779   5.441   0.427  0.4716 -0.3155  0.8400
 1014SOL     hw 4055   5.839   5.322   0.500  0.8822 -0.4091  0.3578
 1014SOL     vw 4056   5.811   5.360   0.427  0.1562 -0.4404  0.6032
 1015SOL     ow 4057   4.627   3.797   4.535 -0.2883  0.1778 -0.3701
 1015SOL     hw 4058   4.692   3.753   4.590  0.2249 -0.7421 -1.6440
 1015SOL     hw 4059   4.654   3.775   4.445 -0.9925  1.7624 -0.9946
 1015SOL     vw 4060   4.640   3.788   4.530 -0.3135  0.2654 -0.6204
 1016SOL     ow 4061   6.577   5.428   1.981  0.5369  0.3501 -0.6813
 1016SOL     hw 4062   6.647   5.383   1.934  1.1462 -0.5650  1.0242
 1016SOL     hw 4063   6.622   5.484   2.044 -0.2472  0.3810 -0.1280
 1016SOL     vw 4064   6.592   5.430   1.983  0.5138  0.2334 -0.3833
 1017SOL     ow 4065   5.197   3.197   1.327  0.3163  0.7505 -0.3383
 1017SOL     hw 4066   5.273   3.158   1.370 -0.0255  0.4702  0.0172
 1017SOL     hw 4067   5.233   3.267   1.273  0.8245  0.6255 -0.1638
 1017SOL     vw 4068   5.212   3.201   1.325  0.3381  0.6970 -0.2684
 1018SOL     ow 4069   6.343   2.254   3.270 -0.0100 -0.7244  0.1911
 1018SOL     hw 4070   6.348   2.216   3.357 -1.3926 -1.0466  0.1507
 1018SOL     hw 4071   6.433   2.253   3.238  0.6397  0.1276  1.8985
 1018SOL     vw 4072   6.355   2.249   3.277 -0.1068 -0.6545  0.4109
 1019SOL     ow 4073   3.003   2.256   6.599  0.1778 -0.2153 -0.4295
 1019SOL     hw 4074   3.075   2.228   6.541 -0.5010  0.6502 -1.7531
 1019SOL     hw 4075   3.032   2.341   6.632  1.4655 -1.5583  2.2042
 1019SOL     vw 4076   3.017   2.264   6.596  0.2581 -0.2784 -0.2570
 1020SOL     ow 4077   5.309   2.051   0.662 -0.6218  0.6082  0.0699
 1020SOL     hw 4078   5.309   1.983   0.594 -0.0963  0.3557  0.3205
 1020SOL     hw 4079   5.352   2.126   0.622  3.3397 -0.7796  1.3248
 1020SOL     vw 4080   5.314   2.052   0.647 -0.0296  0.3916  0.2685
 1021SOL     ow 4081   1.926   6.475   1.948  0.3167  0.0657 -0.4517
 1021SOL     hw 4082   1.849   6.424   1.924  0.2567 -0.1588  0.1922
 1021SOL     hw 4083   1.960   6.508   1.865 -0.7514  0.5743 -0.7078
 1021SOL     vw 4084   1.920   6.473   1.934  0.1678  0.1030 -0.4005
 1022SOL     ow 4085   5.889   6.606   4.580 -0.6498 -0.0058  0.1006
 1022SOL     hw 4086   5.851   6.581   4.496 -0.0507  0.1324 -0.2229
 1022SOL     hw 4087   5.851   6.546   4.643 -0.5547 -0.5848 -0.3876
 1022SOL     vw 4088   5.879   6.595   4.577 -0.5586 -0.0641 -0.0064
 1023SOL     ow 4089   2.770   3.708   2.507  0.4524  0.0554 -0.0340
 1023SOL     hw 4090   2.756   3.790   2.461  0.3251 -0.1053 -0.2804
 1023SOL     hw 4091   2.845   3.725   2.564  0.6991  0.2095 -0.4051
 1023SOL     vw 4092   2.778   3.721   2.509  0.4681  0.0544 -0.1153
 1024SOL     ow 4093   4.614   5.427   2.809 -0.6935 -0.1222  0.5438
 1024SOL     hw 4094   4.677   5.354   2.810 -0.7123 -0.1387  1.0818
 1024SOL     hw 4095   4.597   5.443   2.717  0.6966  0.3947  0.3544
 1024SOL     vw 4096   4.620   5.419   2.797 -0.5126 -0.0563  0.5897
 1025SOL     ow 4097   4.188   6.475   3.396  0.2509  0.5277  0.4897
 1025SOL     hw 4098   4.160   6.383   3.388  2.6595 -0.5605  2.8843
 1025SOL     hw 4099   4.198   6.505   3.306  0.0556 -1.7896 -0.3805
 1025SOL     vw 4100   4.185   6.467   3.383  0.5429  0.0784  0.6908
 1026SOL     ow 4101   3.794   5.884   1.323 -0.1933  0.1754 -0.1672
 1026SOL     hw 4102   3.862   5.829   1.286  0.0091  0.5841 -0.4155
 1026SOL     hw 4103   3.713   5.834   1.312 -0.0855  0.1516 -0.8637
 1026SOL     vw 4104   3.792   5.870   1.317 -0.1525  0.2263 -0.2918
 1027SOL     ow 4105   4.636   2.352   5.240  0.0292 -0.0116  0.1008
 1027SOL     hw 4106   4.722   2.377   5.205  0.4795 -2.1401 -0.4318
 1027SOL     hw 4107   4.602   2.433   5.278  2.0677  0.9938 -0.0588
 1027SOL     vw 4108   4.643   2.366   5.240  0.3576 -0.1599  0.0093
 1028SOL     ow 4109   1.474   3.528   4.997  0.6120 -0.0836 -0.3620
 1028SOL     hw 4110   1.397   3.530   5.054  2.0360 -0.7518  1.7077
 1028SOL     hw 4111   1.504   3.619   4.994  0.6210 -0.0687  0.1181
 1028SOL     vw 4112   1.468   3.540   5.004  0.8011 -0.1698 -0.0257
 1029SOL     ow 4113   6.031   3.280   4.964  0.2682 -0.2154 -0.0155
 1029SOL     hw 4114   5.981   3.338   5.021  0.7681  0.0621  0.1463
 1029SOL     hw 4115   6.114   3.268   5.009 -0.5121 -2.6416  0.9294
 1029SOL     vw 4116   6.035   3.286   4.977  0.2313 -0.4989  0.1304
 1030SOL     ow 4117   5.069   0.491   5.436 -0.0037 -0.0299 -0.6337
 1030SOL     hw 4118   5.006   0.541   5.385 -0.7349  0.0300  0.3033
 1030SOL     hw 4119   5.147   0.486   5.380 -0.9745 -0.4941 -2.0065
 1030SOL     vw 4120   5.071   0.497   5.422 -0.2284 -0.0833 -0.6912
 1031SOL     ow 4121   2.622   5.273   6.767 -0.3296 -0.3505 -0.2276
 1031SOL     hw 4122   2.562   5.327   6.716  0.1742 -0.3384 -0.8217
 1031SOL     hw 4123   2.574   5.253   6.847 -1.0686 -0.2293 -0.6302
 1031SOL     vw 4124   2.608   5.278   6.771 -0.3605 -0.3328 -0.3591
 1032SOL     ow 4125   2.443   1.021   6.327 -0.1843 -0.2616 -0.1176
 1032SOL     hw 4126   2.520   1.038   6.272 -0.0368  0.4420  0.2864
 1032SOL     hw 4127   2.382   0.975   6.270 -1.0284  2.5306 -1.6738
 1032SOL     vw 4128   2.445   1.017   6.312 -0.2762  0.1997 -0.2694
 1033SOL     ow 4129   5.266   3.174   5.547  0.0801  0.5389  0.4109
 1033SOL     hw 4130   5.320   3.208   5.619  0.7571 -1.5859  0.9790
 1033SOL     hw 4131   5.297   3.221   5.469  1.0286  1.1186  1.1163
 1033SOL     vw 4132   5.277   3.185   5.546  0.2944  0.3351  0.5786
 1034SOL     ow 4133   1.024   5.901   5.076  0.0676 -0.2474  0.2838
 1034SOL     hw 4134   1.102   5.846   5.080  0.1933  0.0008  1.3767
 1034SOL     hw 4135   1.037   5.966   5.145  0.4716  1.8811 -1.6714
 1034SOL     vw 4136   1.036   5.903   5.085  0.1375  0.0663  0.1702
 1035SOL     ow 4137   2.799   2.572   4.155 -0.7435 -0.3337 -0.4280
 1035SOL     hw 4138   2.856   2.532   4.090 -2.5235 -1.3114 -1.4717
 1035SOL     hw 4139   2.738   2.625   4.104  1.6768  4.2916  0.8584
 1035SOL     vw 4140   2.798   2.574   4.140 -0.6591  0.1476 -0.3958
 1036SOL     ow 4141   5.255   6.746   3.966 -0.1584 -1.1659 -0.7081
 1036SOL     hw 4142   5.160   6.757   3.960 -0.0231  0.0107 -0.9103
 1036SOL     hw 4143   5.274   6.671   3.909 -0.9438 -1.2653 -0.8446
 1036SOL     vw 4144   5.245   6.738   3.958 -0.2444 -1.0240 -0.7528
 1037SOL     ow 4145   6.778   3.944   5.325 -0.0940  0.2030  0.6438
 1037SOL     hw 4146   6.853   3.908   5.278  1.1488 -0.9063  3.2948
 1037SOL     hw 4147   6.702   3.903   5.283  0.9216 -0.6576 -0.4466
 1037SOL     vw 4148   6.777   3.934   5.313  0.2038 -0.0569  0.8495
 1038SOL     ow 4149   2.463   2.787   2.001  0.4119 -0.4180 -0.0795
 1038SOL     hw 4150   2.456   2.764   1.909  0.3589  1.6451 -0.6409
 1038SOL     hw 4151   2.480   2.882   2.001 -0.4170 -0.2125  2.0397
 1038SOL     vw 4152   2.464   2.797   1.989  0.2955 -0.1187  0.1259
 1039SOL     ow 4153   2.331   1.260   5.763 -0.0386  0.1759  1.3007
 1039SOL     hw 4154   2.375   1.214   5.835 -0.7608 -0.5211  1.3164
 1039SOL     hw 4155   2.399   1.316   5.725  1.1688 -1.6326  0.6406
 1039SOL     vw 4156   2.346   1.261   5.768  0.0255 -0.1546  1.2157
 1040SOL     ow 4157   0.088   5.800   5.660 -0.0405  0.0192  0.2734
 1040SOL     hw 4158   0.151   5.774   5.727  0.0010  0.6101  0.4738
 1040SOL     hw 4159   0.058   5.887   5.687  0.3001  0.4604 -0.7054
 1040SOL     vw 4160   0.092   5.808   5.672  0.0099  0.1554  0.1709
 1041SOL     ow 4161   6.041   6.972   6.822  0.0474  0.6418 -0.0724
 1041SOL     hw 4162   5.969   6.915   6.793 -0.0399  0.2846  0.8196
 1041SOL     hw 4163   6.116   6.945   6.769  0.3156 -1.1508  1.1474
 1041SOL     vw 4164   6.041   6.961   6.811  0.0713  0.3581  0.2062
 1042SOL     ow 4165   2.514   4.610   6.247  0.4960 -0.1364  0.3772
 1042SOL     hw 4166   2.467   4.627   6.165  1.3536 -1.6611 -0.4878
 1042SOL     hw 4167   2.604   4.639   6.230  0.8148 -0.9846  0.5702
 1042SOL     vw 4168   2.520   4.616   6.234  0.6511 -0.4494  0.2882
 1043SOL     ow 4169   3.120   2.264   6.896 -0.7289 -0.2116 -0.1581
 1043SOL     hw 4170   3.085   2.197   6.837  2.0896 -2.1616  0.1654
 1043SOL     hw 4171   3.157   2.330   6.837 -2.0953  0.2924 -0.4890
 1043SOL     vw 4172   3.121   2.264   6.880 -0.5373 -0.4023 -0.1590
 1044SOL     ow 4173   0.620   1.061   4.552 -0.4966 -0.3634 -0.1794
 1044SOL     hw 4174   0.551   1.068   4.618 -0.9077  0.0936 -0.6471
 1044SOL     hw 4175   0.614   0.970   4.522  0.0185 -0.7147  0.7500
 1044SOL     vw 4176   0.610   1.050   4.557 -0.4828 -0.3494 -0.1183
 1045SOL     ow 4177   3.926   5.251   5.964  0.5454  0.3596  0.1709
 1045SOL     hw 4178   3.868   5.306   5.910  0.9331  2.8362  2.0723
 1045SOL     hw 4179   3.867   5.195   6.014 -0.1648  1.7186  0.9061
 1045SOL     vw 4180   3.911   5.251   5.964  0.5029  0.8657  0.5188
 1046SOL     ow 4181   0.777   6.956   0.842  0.3401  0.0413 -0.0924
 1046SOL     hw 4182   0.757   7.048   0.860  1.8851  0.2627  0.6487
 1046SOL     hw 4183   0.859   6.958   0.791 -0.5338 -0.8745 -1.6313
 1046SOL     vw 4184   0.785   6.968   0.837  0.4286 -0.0505 -0.1977
 1047SOL     ow 4185   2.541   1.463   5.323 -0.1032 -0.2648  0.0068
 1047SOL     hw 4186   2.520   1.484   5.415  0.8450 -0.7909  0.3508
 1047SOL     hw 4187   2.568   1.547   5.286  0.7686 -0.2736  0.5743
 1047SOL     vw 4188   2.542   1.477   5.330  0.1370 -0.3353  0.1273
 1048SOL     ow 4189   4.931   4.104   3.060  0.0934 -0.2306  0.3678
 1048SOL     hw 4190   4.967   4.071   3.142  0.2626 -0.0997  0.3461
 1048SOL     hw 4191   4.871   4.035   3.031  0.6179 -0.6194  0.2070
 1048SOL     vw 4192   4.928   4.090   3.067  0.1850 -0.2646  0.3437
 1049SOL     ow 4193   1.439   3.504   3.967 -0.0284  0.3073 -0.2568
 1049SOL     hw 4194   1.390   3.533   4.044 -0.2539 -0.3252 -0.1500
 1049SOL     hw 4195   1.526   3.543   3.977 -0.5551  1.5997 -0.5417
 1049SOL     vw 4196   1.444   3.513   3.978 -0.1277  0.3945 -0.2804
 1050SOL     ow 4197   6.686   0.238   1.761 -0.3445  0.9054  0.0734
 1050SOL     hw 4198   6.774   0.220   1.729 -1.2984 -2.0439 -1.2263
 1050SOL     hw 4199   6.689   0.214   1.854 -0.1524 -0.8585 -0.3585
 1050SOL     vw 4200   6.698   0.233   1.769 -0.4451  0.2836 -0.1551
 1051SOL     ow 4201   1.776   6.639   5.566 -0.5324 -0.4484  0.3384
 1051SOL     hw 4202   1.742   6.644   5.656 -0.4542 -1.1946  0.4187
 1051SOL     hw 4203   1.861   6.683   5.571 -1.0852  0.6384  0.3348
 1051SOL     vw 4204   1.783   6.645   5.579 -0.5950 -0.4032  0.3486
 1052SOL     ow 4205   5.941   3.089   4.823  0.2699 -0.5067 -0.1164
 1052SOL     hw 4206   5.852   3.124   4.832  0.1714 -1.2539  3.0426
 1052SOL     hw 4207   5.995   3.148   4.876  1.0765 -1.8966  0.6439
 1052SOL     vw 4208   5.937   3.102   4.831  0.3631 -0.7887  0.4008
 1053SOL     ow 4209   0.648   3.123   5.546 -0.2591  0.1273  0.0790
 1053SOL     hw 4210   0.562   3.110   5.585 -0.2624  1.8408  0.7371
 1053SOL     hw 4211   0.656   3.053   5.482 -2.2259  0.0528 -0.1517
 1053SOL     vw 4212   0.638   3.112   5.543 -0.5191  0.3436  0.1354
 1054SOL     ow 4213   4.497   4.012   1.324  0.1229  1.0272  0.4003
 1054SOL     hw 4214   4.467   3.938   1.272 -1.6396  0.7033  1.8041
 1054SOL     hw 4215   4.426   4.076   1.318  1.5005  2.5525 -0.5805
 1054SOL     vw 4216   4.484   4.011   1.317  0.0720  1.1857  0.4562
 1055SOL     ow 4217   2.530   4.199   4.104  0.0848  0.1843 -0.6332
 1055SOL     hw 4218   2.569   4.266   4.161 -0.4708 -0.8684  1.0672
 1055SOL     hw 4219   2.455   4.166   4.154 -1.0207 -0.1235 -2.4267
 1055SOL     vw 4220   2.525   4.203   4.118 -0.1345  0.0050 -0.6456
 1056SOL     ow 4221   1.780   1.435   5.658 -0.0630  0.0726 -0.3326
 1056SOL     hw 4222   1.815   1.381   5.587 -1.5624 -1.5608  0.1150
 1056SOL     hw 4223   1.838   1.418   5.732 -2.0097 -3.1636  0.6160
 1056SOL     vw 4224   1.792   1.426   5.658 -0.5176 -0.5699 -0.1483
 1057SOL     ow 4225   4.930   1.131   2.428  1.1256  0.6151  0.2349
 1057SOL     hw 4226   4.972   1.155   2.510  1.6948 -0.4976  0.2987
 1057SOL     hw 4227   5.003   1.110   2.369  0.7126 -1.2453  0.3166
 1057SOL     vw 4228   4.945   1.131   2.431  1.1463  0.2229  0.2540
 1058SOL     ow 4229   5.285   2.711   6.444 -0.6101 -0.1474  0.0062
 1058SOL     hw 4230   5.265   2.707   6.351 -2.0453 -2.6762  0.3193
 1058SOL     hw 4231   5.380   2.696   6.449 -0.8543 -2.4762 -1.0325
 1058SOL     vw 4232   5.295   2.708   6.433 -0.8318 -0.7882 -0.0894
 1059SOL     ow 4233   3.387   4.963   2.114  0.2552 -0.1489  0.2647
 1059SOL     hw 4234   3.461   4.986   2.058  1.3977  1.4760  2.2933
 1059SOL     hw 4235   3.363   5.045   2.157 -0.9539 -1.1880  1.6792
 1059SOL     vw 4236   3.394   4.977   2.112  0.2463 -0.0715  0.7190
 1060SOL     ow 4237   3.037   6.474   3.323 -0.4419  0.7083  0.1242
 1060SOL     hw 4238   3.030   6.403   3.388 -0.0616  1.2084  0.7243
 1060SOL     hw 4239   3.001   6.436   3.243 -0.3515 -0.1318  0.4635
 1060SOL     vw 4240   3.031   6.459   3.321 -0.3798  0.6633  0.2483
 1061SOL     ow 4241   3.137   0.777   4.780  0.0834 -0.1303  0.4453
 1061SOL     hw 4242   3.185   0.850   4.819  0.6283  0.5245 -1.3356
 1061SOL     hw 4243   3.169   0.773   4.690 -0.5057 -2.0924  0.2762
 1061SOL     vw 4244   3.147   0.786   4.773  0.0776 -0.3027  0.1881
 1062SOL     ow 4245   6.036   2.832   4.635  0.3975  0.1318  0.0786
 1062SOL     hw 4246   5.972   2.761   4.636  0.8496 -0.4275 -2.6401
 1062SOL     hw 4247   6.118   2.790   4.664  0.9282 -0.8833 -2.5721
 1062SOL     vw 4248   6.039   2.817   4.639  0.5271 -0.0759 -0.6299
 1063SOL     ow 4249   2.729   4.560   0.130 -0.0315  0.0112  0.1657
 1063SOL     hw 4250   2.808   4.587   0.085  0.4260 -1.0895  0.2600
 1063SOL     hw 4251   2.709   4.632   0.190 -0.6062  1.4525 -1.6762
 1063SOL     vw 4252   2.737   4.573   0.132 -0.0470  0.0558 -0.0648
 1064SOL     ow 4253   4.602   0.508   6.180 -0.8587  0.4556 -0.1272
 1064SOL     hw 4254   4.527   0.547   6.134 -1.4064 -1.8815 -1.3807
 1064SOL     hw 4255   4.582   0.415   6.182  1.4653 -0.0768  0.6296
 1064SOL     vw 4256   4.589   0.501   6.174 -0.6244  0.0771 -0.1926
 1065SOL     ow 4257   3.729   3.978   4.093  0.4718  0.0535  0.0923
 1065SOL     hw 4258   3.742   3.895   4.139  0.4807 -0.5949 -1.0472
 1065SOL     hw 4259   3.812   3.993   4.048  0.0703  0.0839 -0.6419
 1065SOL     vw 4260   3.742   3.969   4.093  0.4200 -0.0280 -0.1550
 1066SOL     ow 4261   2.132   4.122   2.985  0.4713 -0.3863  0.2503
 1066SOL     hw 4262   2.137   4.194   2.922 -0.7886 -0.0340  0.5218
 1066SOL     hw 4263   2.218   4.080   2.981  1.1275  0.9522 -0.1179
 1066SOL     vw 4264   2.144   4.126   2.976  0.3916 -0.1633  0.2376
 1067SOL     ow 4265   6.212   4.996   5.538 -0.1840  0.1855  0.3076
 1067SOL     hw 4266   6.206   4.904   5.563  1.6369 -0.2945 -0.8126
 1067SOL     hw 4267   6.160   5.002   5.458  0.2619 -0.0555 -0.0087
 1067SOL     vw 4268   6.204   4.984   5.530  0.1149  0.0906  0.1185
 1068SOL     ow 4269   4.710   6.414   1.668  0.1684  0.6059 -0.2743
 1068SOL     hw 4270   4.628   6.453   1.639 -0.4596 -0.1888  0.3788
 1068SOL     hw 4271   4.767   6.417   1.591 -1.3474 -1.1956 -1.5556
 1068SOL     vw 4272   4.707   6.419   1.654 -0.1147  0.2635 -0.3573
 1069SOL     ow 4273   2.829   6.560   5.486 -0.2933  0.0325 -0.3191
 1069SOL     hw 4274   2.826   6.617   5.562 -1.7978 -0.5196  0.0721
 1069SOL     hw 4275   2.811   6.617   5.411  1.4333  0.6215 -0.3368
 1069SOL     vw 4276   2.826   6.575   5.486 -0.2639  0.0372 -0.2699
 1070SOL     ow 4277   6.545   4.076   5.834  0.2133 -0.4403 -0.5936
 1070SOL     hw 4278   6.533   4.117   5.919  2.5926 -0.0878 -0.3609
 1070SOL     hw 4279   6.456   4.060   5.802 -0.8695  3.5465 -0.0763
 1070SOL     vw 4280   6.532   4.079   5.841  0.3843  0.1323 -0.4947
 1071SOL     ow 4281   0.800   3.214   5.304  0.8976 -0.2444 -0.1765
 1071SOL     hw 4282   0.863   3.190   5.236  1.0848  0.3678 -0.2182
 1071SOL     hw 4283   0.718   3.229   5.256  1.7750  3.5780 -0.8073
 1071SOL     vw 4284   0.797   3.212   5.289  1.0380  0.3406 -0.2654
 1072SOL     ow 4285   0.266   1.991   2.994 -0.2400  0.0691 -0.5256
 1072SOL     hw 4286   0.241   1.999   3.085  1.6738  1.7769 -0.0622
 1072SOL     hw 4287   0.209   1.922   2.958 -1.5567 -0.0831  1.7175
 1072SOL     vw 4288   0.255   1.983   3.001 -0.1613  0.2744 -0.1686
 1073SOL     ow 4289   3.214   2.739   5.824 -0.9193 -0.0785  0.3679
 1073SOL     hw 4290   3.275   2.666   5.823 -0.3933  0.3509  0.6166
 1073SOL     hw 4291   3.269   2.817   5.831 -1.5074  0.2917  1.0411
 1073SOL     vw 4292   3.229   2.740   5.825 -0.9274  0.0269  0.4895
 1074SOL     ow 4293   2.597   0.117   5.544  0.1334  0.4433  0.0901
 1074SOL     hw 4294   2.686   0.091   5.565 -0.0335 -1.4478 -1.3100
 1074SOL     hw 4295   2.555   0.129   5.629  1.7007  1.4113  0.7682
 1074SOL     vw 4296   2.603   0.115   5.558  0.3182  0.3215 -0.0052
 1075SOL     ow 4297   2.479   4.796   6.527 -0.1107  0.4807 -0.7201
 1075SOL     hw 4298   2.428   4.855   6.471  0.7013  0.9082 -1.0254
 1075SOL     hw 4299   2.437   4.801   6.612 -0.6192  0.7769 -0.9835
 1075SOL     vw 4300   2.467   4.804   6.531 -0.0707  0.5763 -0.7951
 1076SOL     ow 4301   6.961   0.683   2.802 -0.4957  0.4304 -0.8588
 1076SOL     hw 4302   6.871   0.714   2.797 -1.3066 -1.1103  1.7677
 1076SOL     hw 4303   6.965   0.610   2.740 -1.1353  0.3170 -0.7659
 1076SOL     vw 4304   6.950   0.677   2.793 -0.6871  0.2122 -0.5000
 1077SOL     ow 4305   0.938   1.028   4.523 -0.0273  0.3263  0.6455
 1077SOL     hw 4306   1.020   1.077   4.514  1.0093 -1.3502  0.6540
 1077SOL     hw 4307   0.946   0.982   4.606 -0.7972 -0.1898  0.4511
 1077SOL     vw 4308   0.949   1.029   4.533  0.0079  0.0370  0.6208
 1078SOL     ow 4309   5.893   0.361   3.981  0.5049 -0.2478  0.8141
 1078SOL     hw 4310   5.829   0.313   3.928 -0.4006  0.4359  1.2679
 1078SOL     hw 4311   5.978   0.336   3.944 -0.0571 -0.4721 -0.3832
 1078SOL     vw 4312   5.896   0.351   3.969  0.3114 -0.1872  0.7161
 1079SOL     ow 4313   1.618   0.396   0.191 -0.6465 -0.0070  0.0952
 1079SOL     hw 4314   1.569   0.366   0.268 -1.1708 -1.6889 -0.8397
 1079SOL     hw 4315   1.550   0.415   0.126 -0.2945  2.6401  0.3804
 1079SOL     vw 4316   1.602   0.395   0.193 -0.6692  0.1204  0.0095
 1080SOL     ow 4317   3.174   6.133   1.930  0.6668 -0.0744 -0.6020
 1080SOL     hw 4318   3.166   6.153   1.837  2.0969  1.2148 -0.4932
 1080SOL     hw 4319   3.266   6.106   1.941  1.0352  1.5027  0.6850
 1080SOL     vw 4320   3.185   6.132   1.919  0.9042  0.3037 -0.4179
 1081SOL     ow 4321   6.850   5.483   4.266  0.6556 -0.0413  0.0674
 1081SOL     hw 4322   6.892   5.397   4.261 -1.7149 -1.1943 -1.4269
 1081SOL     hw 4323   6.881   5.529   4.188  0.2448 -0.3775 -0.3000
 1081SOL     vw 4324   6.860   5.478   4.255  0.2887 -0.2379 -0.1781
 1082SOL     ow 4325   3.078   6.023   4.808 -0.3681 -0.5114  0.0425
 1082SOL     hw 4326   3.011   5.977   4.858 -1.2657  0.1049 -0.5380
 1082SOL     hw 4327   3.157   5.970   4.817 -0.5247 -0.4505  2.0108
 1082SOL     vw 4328   3.079   6.010   4.816 -0.5072 -0.4218  0.2255
 1083SOL     ow 4329   0.777   5.401   0.622  0.5368 -0.2300  0.3600
 1083SOL     hw 4330   0.698   5.455   0.617  0.8644  0.4083  1.7435
 1083SOL     hw 4331   0.744   5.312   0.639  0.0094 -0.4845 -1.6954
 1083SOL     vw 4332   0.762   5.396   0.624  0.5104 -0.1795  0.2714
 1084SOL     ow 4333   3.208   6.556   0.083  0.6440 -0.3723  0.2014
 1084SOL     hw 4334   3.160   6.634   0.112  1.9708  0.5057  0.1175
 1084SOL     hw 4335   3.289   6.558   0.134 -0.1742 -2.8983  1.7869
 1084SOL     vw 4336   3.213   6.566   0.094  0.7112 -0.5896  0.3995
 1085SOL     ow 4337   3.687   3.959   2.862 -0.2741  0.7960  0.4940
 1085SOL     hw 4338   3.615   3.907   2.826  1.6140 -0.8908 -1.0845
 1085SOL     hw 4339   3.691   3.933   2.954 -1.3629  0.5503  0.4881
 1085SOL     vw 4340   3.678   3.949   2.869 -0.1688  0.5411  0.2850
 1086SOL     ow 4341   4.981   4.259   4.629 -0.5402 -0.1505  0.3987
 1086SOL     hw 4342   4.995   4.331   4.569  1.2747 -0.2510  0.6404
 1086SOL     hw 4343   4.917   4.292   4.693 -1.1713  0.5378 -0.5688
 1086SOL     vw 4344   4.974   4.273   4.630 -0.3841 -0.0732  0.3030
 1087SOL     ow 4345   0.960   6.943   0.669  0.5670  0.8748 -0.2514
 1087SOL     hw 4346   0.921   6.862   0.637  0.8109  0.0469  1.4405
 1087SOL     hw 4347   0.908   7.012   0.629 -0.5188 -0.1360 -0.6429
 1087SOL     vw 4348   0.948   6.941   0.660  0.4559  0.6323 -0.0798
 1088SOL     ow 4349   5.835   6.222   4.180  0.1389  0.2220  0.2289
 1088SOL     hw 4350   5.878   6.305   4.204 -0.8398  1.0746 -0.8682
 1088SOL     hw 4351   5.771   6.246   4.113 -0.3628 -1.3953  0.0797
 1088SOL     vw 4352   5.832   6.236   4.175 -0.0563  0.1209  0.0644
 1089SOL     ow 4353   1.518   5.102   6.195  0.0657 -0.7428  0.2230
 1089SOL     hw 4354   1.510   5.009   6.173 -1.1348 -0.0225 -2.9332
 1089SOL     hw 4355   1.550   5.143   6.114 -0.6935  1.7571  1.1044
 1089SOL     vw 4356   1.521   5.095   6.181 -0.1928 -0.3181 -0.0770
 1090SOL     ow 4357   3.246   6.275   0.204  0.4610  0.1574 -0.5647
 1090SOL     hw 4358   3.272   6.190   0.169 -1.1814 -1.5470  2.0129
 1090SOL     hw 4359   3.318   6.301   0.262 -0.3546 -1.0603  1.0511
 1090SOL     vw 4360   3.259   6.267   0.207  0.1367 -0.2279 -0.0114
 1091SOL     ow 4361   2.423   5.990   6.908  0.2895  0.0082  0.2275
 1091SOL     hw 4362   2.436   6.085   6.907  0.0498  0.0422 -1.4436
 1091SOL     hw 4363   2.329   5.979   6.917  0.3974 -0.1136  1.4335
 1091SOL     vw 4364   2.412   6.001   6.909  0.2722 -0.0036  0.1664
 1092SOL     ow 4365   3.623   2.577   4.007  0.1745 -0.1296 -0.0776
 1092SOL     hw 4366   3.676   2.544   3.935  0.4240  1.0483 -0.4497
 1092SOL     hw 4367   3.532   2.560   3.981  0.2852 -0.1641 -0.4450
 1092SOL     vw 4368   3.618   2.571   3.994  0.2220  0.0212 -0.1754
 1093SOL     ow 4369   1.104   4.108   6.007  0.8119  0.1048 -0.0581
 1093SOL     hw 4370   1.175   4.149   5.958  0.3341  1.1757  0.1241
 1093SOL     hw 4371   1.053   4.060   5.941  1.8312 -0.9095 -0.1522
 1093SOL     vw 4372   1.106   4.107   5.992  0.8834  0.1125 -0.0465
 1094SOL     ow 4373   5.212   2.400   2.474  0.4040  0.1931 -0.2418
 1094SOL     hw 4374   5.256   2.419   2.557  0.4182  0.8165 -0.3818
 1094SOL     hw 4375   5.258   2.323   2.440 -1.6984 -2.1762  1.8404
 1094SOL     vw 4376   5.224   2.393   2.481  0.1285 -0.0372  0.0144
 1095SOL     ow 4377   6.196   1.923   6.781 -0.5323  0.0623  0.0363
 1095SOL     hw 4378   6.211   1.829   6.790 -0.2792  0.0578 -0.3685
 1095SOL     hw 4379   6.139   1.931   6.705 -0.6044  0.2306  0.1084
 1095SOL     vw 4380   6.191   1.912   6.772 -0.5085  0.0839 -0.0076
 1096SOL     ow 4381   2.106   4.397   3.145 -0.6296  0.5165 -0.3743
 1096SOL     hw 4382   2.192   4.433   3.168 -0.0780 -0.3557 -1.0122
 1096SOL     hw 4383   2.067   4.463   3.088 -0.2031  0.7125 -0.4408
 1096SOL     vw 4384   2.112   4.410   3.141 -0.5004  0.4272 -0.4671
 1097SOL     ow 4385   4.746   6.583   3.249 -0.2812 -1.3835  0.0307
 1097SOL     hw 4386   4.658   6.593   3.212  0.1465  1.3653 -0.4064
 1097SOL     hw 4387   4.793   6.530   3.185  0.7282  3.9267 -4.3488
 1097SOL     vw 4388   4.741   6.577   3.236 -0.0913 -0.3200 -0.6047
 1098SOL     ow 4389   4.517   5.031   2.260  0.0369  0.0846 -0.3499
 1098SOL     hw 4390   4.482   4.971   2.326  1.2697  0.5904  0.7972
 1098SOL     hw 4391   4.511   5.117   2.301 -1.0340  0.6927 -1.6986
 1098SOL     vw 4392   4.512   5.034   2.274  0.0582  0.2315 -0.3766
 1099SOL     ow 4393   5.932   4.787   3.394  0.2592 -0.4487  0.6192
 1099SOL     hw 4394   5.895   4.803   3.481 -1.1427 -1.0129  0.1611
 1099SOL     hw 4395   5.936   4.874   3.354 -0.5475 -0.3558  0.7093
 1099SOL     vw 4396   5.927   4.800   3.400 -0.0322 -0.5107  0.5705
 1100SOL     ow 4397   0.269   3.375   0.517 -0.0918 -0.0380  0.2344
 1100SOL     hw 4398   0.334   3.420   0.463 -0.6851  0.7996  0.2060
 1100SOL     hw 4399   0.185   3.402   0.480 -0.4881 -2.6545 -1.0072
 1100SOL     vw 4400   0.266   3.385   0.505 -0.2224 -0.2728  0.0669
 1101SOL     ow 4401   6.191   0.400   1.773  1.2770  0.0815 -0.2517
 1101SOL     hw 4402   6.112   0.424   1.821 -0.5509  1.0989 -3.4631
 1101SOL     hw 4403   6.252   0.473   1.788 -0.4738  1.9993 -1.9121
 1101SOL     vw 4404   6.189   0.413   1.782  0.8049  0.4687 -0.8945
 1102SOL     ow 4405   1.125   1.237   6.271  0.5125  0.5735  0.3356
 1102SOL     hw 4406   1.198   1.247   6.210 -1.1204 -2.5448 -2.4657
 1102SOL     hw 4407   1.066   1.308   6.250  1.2085  1.1430  0.2757
 1102SOL     vw 4408   1.127   1.247   6.260  0.3889  0.2372 -0.0417
 1103SOL     ow 4409   4.616   2.667   0.765 -0.1090  0.1585 -0.0292
 1103SOL     hw 4410   4.708   2.655   0.745 -0.0720  0.4142 -0.0065
 1103SOL     hw 4411   4.602   2.614   0.844  0.3798  1.3416  0.8833
 1103SOL     vw 4412   4.626   2.658   0.773 -0.0393  0.3482  0.0942
 1104SOL     ow 4413   1.248   3.280   5.471  0.4968  0.1206  0.2412
 1104SOL     hw 4414   1.220   3.210   5.413  0.1914  0.1780  0.3200
 1104SOL     hw 4415   1.239   3.360   5.419  1.0755  0.0786  0.0698
 1104SOL     vw 4416   1.243   3.281   5.457  0.5329  0.1227  0.2289
 1105SOL     ow 4417   4.460   3.884   4.771  0.4295 -1.0550 -0.1519
 1105SOL     hw 4418   4.402   3.859   4.843 -1.7511  2.2539 -0.5063
 1105SOL     hw 4419   4.525   3.942   4.812  1.1912 -1.7401 -0.3696
 1105SOL     vw 4420   4.461   3.888   4.786  0.2425 -0.7088 -0.2275
 1106SOL     ow 4421   0.722   5.204   6.992 -0.2559  0.0574 -0.0308
 1106SOL     hw 4422   0.656   5.145   6.954  0.0245  0.0249 -0.4681
 1106SOL     hw 4423   0.672   5.281   7.019 -0.9200 -1.0066  2.0611
 1106SOL     vw 4424   0.706   5.206   6.991 -0.3065 -0.0873  0.1874
 1107SOL     ow 4425   0.704   1.854   0.054  0.1069 -0.1792  0.5322
 1107SOL     hw 4426   0.762   1.827  -0.017  1.5169  0.6483  1.3256
 1107SOL     hw 4427   0.617   1.825   0.026  0.8763 -1.4202 -0.7193
 1107SOL     vw 4428   0.700   1.846   0.041  0.3944 -0.2338  0.4716
 1108SOL     ow 4429   5.127   6.109   6.756  0.2182 -0.7375 -0.3018
 1108SOL     hw 4430   5.205   6.149   6.719 -0.0022  1.7323  1.5981
 1108SOL     hw 4431   5.058   6.125   6.692  1.0642 -2.3745 -1.6946
 1108SOL     vw 4432   5.128   6.116   6.743  0.3009 -0.6278 -0.2348
 1109SOL     ow 4433   1.700   4.701   4.708  0.3791  1.4586  0.2127
 1109SOL     hw 4434   1.664   4.640   4.773 -0.6210  1.8987  0.0847
 1109SOL     hw 4435   1.794   4.681   4.706 -0.1201 -1.1283 -0.9174
 1109SOL     vw 4436   1.708   4.690   4.716  0.1813  1.1754  0.0465
 1110SOL     ow 4437   1.381   3.970   3.505 -0.4865 -0.3775  1.0018
 1110SOL     hw 4438   1.474   3.975   3.481 -0.2232  2.1212  2.2960
 1110SOL     hw 4439   1.349   3.893   3.458  1.6458  0.1074 -1.4703
 1110SOL     vw 4440   1.389   3.960   3.495 -0.1705  0.0161  0.8464
 1111SOL     ow 4441   6.009   0.833   1.835  0.1256 -0.1051  0.7862
 1111SOL     hw 4442   6.099   0.819   1.806  1.5915  1.6922  4.0567
 1111SOL     hw 4443   5.984   0.750   1.876  0.2690 -0.5505  0.0125
 1111SOL     vw 4444   6.017   0.820   1.836  0.3381  0.0733  1.1156
 1112SOL     ow 4445   3.616   0.525   5.796  0.7074 -0.3466  0.8140
 1112SOL     hw 4446   3.640   0.462   5.728 -0.8070  1.4471 -1.5421
 1112SOL     hw 4447   3.680   0.595   5.787 -0.7155  0.8813 -0.3115
 1112SOL     vw 4448   3.628   0.526   5.786  0.3200  0.0520  0.3548
 1113SOL     ow 4449   3.450   1.797   2.824 -0.1462  0.2160 -0.0932
 1113SOL     hw 4450   3.454   1.863   2.894  1.3987 -1.6351  1.6803
 1113SOL     hw 4451   3.387   1.732   2.855  2.4879 -2.0045  0.9954
 1113SOL     vw 4452   3.442   1.797   2.837  0.4051 -0.3212  0.2844
 1114SOL     ow 4453   3.515   5.839   2.440  0.2072  0.0797  0.1803
 1114SOL     hw 4454   3.515   5.866   2.348 -1.6693  2.1435  0.6904
 1114SOL     hw 4455   3.424   5.813   2.458  0.4377  0.1163  1.5320
 1114SOL     vw 4456   3.503   5.839   2.431 -0.0099  0.3567  0.4261
 1115SOL     ow 4457   6.982   1.696   5.450  0.0405  0.4190 -0.6022
 1115SOL     hw 4458   7.044   1.756   5.410  0.5967 -0.4333 -1.0495
 1115SOL     hw 4459   6.969   1.730   5.538  2.7471 -0.4985  0.2561
 1115SOL     vw 4460   6.988   1.708   5.456  0.4709  0.1855 -0.5476
 1116SOL     ow 4461   4.341   3.029   1.788  0.3769  0.0200 -0.2013
 1116SOL     hw 4462   4.338   3.099   1.723  0.4422 -0.1036 -0.3381
 1116SOL     hw 4463   4.380   2.955   1.742  1.3398  0.2284  0.2563
 1116SOL     vw 4464   4.346   3.028   1.774  0.5126  0.0312 -0.1590
 1117SOL     ow 4465   0.548   2.389   2.302 -0.0574 -0.2820  0.6305
 1117SOL     hw 4466   0.491   2.463   2.283 -0.1411 -0.6728 -0.7409
 1117SOL     hw 4467   0.586   2.365   2.218  1.9096 -0.2422  1.4539
 1117SOL     vw 4468   0.545   2.396   2.288  0.1911 -0.3283  0.5584
 1118SOL     ow 4469   5.251   4.124   2.174  0.5219  0.4043 -0.4417
 1118SOL     hw 4470   5.234   4.107   2.266  2.6696 -1.5945 -0.3183
 1118SOL     hw 4471   5.181   4.078   2.127  0.5546 -0.2802  0.1689
 1118SOL     vw 4472   5.239   4.116   2.180  0.8097  0.0501 -0.3448
 1119SOL     ow 4473   0.839   5.692   5.518  0.8428 -0.4860  0.3721
 1119SOL     hw 4474   0.793   5.776   5.524  1.5612 -0.0144 -0.5759
 1119SOL     hw 4475   0.930   5.713   5.536  0.9921 -1.1080  0.3625
 1119SOL     vw 4476   0.845   5.705   5.521  0.9573 -0.5059  0.2456
 1120SOL     ow 4477   1.833   1.215   3.734 -0.2124 -0.0347 -0.0406
 1120SOL     hw 4478   1.843   1.160   3.656  3.0326 -1.1331  0.9909
 1120SOL     hw 4479   1.849   1.304   3.703 -0.6961 -0.2463 -0.9147
 1120SOL     vw 4480   1.836   1.220   3.720  0.1519 -0.2075 -0.0198
 1121SOL     ow 4481   3.357   2.953   5.308 -0.6844 -0.2746 -0.3049
 1121SOL     hw 4482   3.412   3.011   5.254 -1.2795  1.4872  0.8758
 1121SOL     hw 4483   3.276   2.945   5.258 -0.0174 -1.4815 -1.2463
 1121SOL     vw 4484   3.354   2.960   5.294 -0.6748 -0.2015 -0.2730
 1122SOL     ow 4485   4.920   1.353   7.053 -0.3022 -0.0664  0.6855
 1122SOL     hw 4486   4.932   1.263   7.021  0.6201  0.5695 -0.8276
 1122SOL     hw 4487   4.999   1.371   7.103 -0.0581  0.2157  0.2040
 1122SOL     vw 4488   4.932   1.343   7.055 -0.1483  0.0547  0.4225
 1123SOL     ow 4489   3.035   3.679   3.924 -0.0376 -0.9223 -0.7778
 1123SOL     hw 4490   3.019   3.599   3.972  0.7582 -0.0070  1.1299
 1123SOL     hw 4491   3.039   3.747   3.991  1.6262  0.3600 -2.0709
 1123SOL     vw 4492   3.034   3.678   3.939  0.2869 -0.6324 -0.6968
 1124SOL     ow 4493   2.154   3.328   6.927  0.1201  0.2680 -0.5084
 1124SOL     hw 4494   2.175   3.408   6.976 -0.4781  0.1127  0.0132
 1124SOL     hw 4495   2.221   3.265   6.955  0.1292  0.3544 -0.3331
 1124SOL     vw 4496   2.166   3.330   6.937  0.0423  0.2589 -0.4168
 1125SOL     ow 4497   4.988   0.209   1.007 -0.5002  0.0023 -0.0044
 1125SOL     hw 4498   5.032   0.184   1.088 -0.7886  0.8825  0.4349
 1125SOL     hw 4499   5.005   0.136   0.947  1.2971  0.1747  0.2435
 1125SOL     vw 4500   4.996   0.196   1.010 -0.3011  0.1412  0.0863
 1126SOL     ow 4501   0.327   0.919   6.609 -0.1441  0.2479  0.2130
 1126SOL     hw 4502   0.360   0.834   6.579 -0.0542  0.5104 -0.4505
 1126SOL     hw 4503   0.267   0.947   6.540 -1.1854  0.1340  1.0453
 1126SOL     vw 4504   0.324   0.911   6.596 -0.2696  0.2675  0.2348
 1127SOL     ow 4505   6.300   1.214   4.462 -0.0244  0.4636  0.3804
 1127SOL     hw 4506   6.366   1.193   4.528 -1.3871 -1.2344  1.3058
 1127SOL     hw 4507   6.266   1.299   4.490  0.9261  0.7921  0.5814
 1127SOL     vw 4508   6.304   1.223   4.474 -0.0789  0.2830  0.5291
 1128SOL     ow 4509   4.057   0.704   3.564  0.1689 -0.1436  0.3253
 1128SOL     hw 4510   3.989   0.760   3.526  1.0230  2.7564  2.7005
 1128SOL     hw 4511   4.137   0.729   3.517  0.1330 -1.4451 -0.4744
 1128SOL     vw 4512   4.058   0.715   3.553  0.2768  0.0674  0.5331
 1129SOL     ow 4513   4.264   5.000   2.034  0.0708 -0.0862 -0.3612
 1129SOL     hw 4514   4.195   4.966   2.091 -0.3149  2.0951  0.5867
 1129SOL     hw 4515   4.221   5.012   1.949  0.0865 -1.4172 -0.5752
 1129SOL     vw 4516   4.249   4.997   2.030  0.0222  0.0262 -0.2644
 1130SOL     ow 4517   3.742   6.008   6.660 -0.6997 -0.1454 -0.1482
 1130SOL     hw 4518   3.774   5.931   6.708 -0.6823 -0.3864 -0.5385
 1130SOL     hw 4519   3.746   6.079   6.723 -2.8521 -0.9085  0.9411
 1130SOL     vw 4520   3.747   6.007   6.675 -0.9813 -0.2775 -0.0560
 1131SOL     ow 4521   0.795   6.462   5.633  0.5625 -0.5634 -0.1426
 1131SOL     hw 4522   0.736   6.529   5.600 -0.0568 -0.5591  0.9165
 1131SOL     hw 4523   0.745   6.380   5.626  0.5311 -0.6030  0.4842
 1131SOL     vw 4524   0.781   6.460   5.628  0.4767 -0.5679  0.0799
 1132SOL     ow 4525   5.714   5.140   4.485 -0.3265 -0.1670  0.8796
 1132SOL     hw 4526   5.631   5.185   4.499 -1.5689 -0.4406 -3.6963
 1132SOL     hw 4527   5.781   5.208   4.498 -1.4717  0.8292  1.8318
 1132SOL     vw 4528   5.712   5.155   4.488 -0.6413 -0.0715  0.4013
 1133SOL     ow 4529   0.348   5.649   3.134 -0.7002  0.0615 -0.2125
 1133SOL     hw 4530   0.431   5.600   3.131 -0.7038  0.0859 -0.8046
 1133SOL     hw 4531   0.334   5.665   3.227  0.1322  0.3419 -0.1198
 1133SOL     vw 4532   0.357   5.644   3.146 -0.5908  0.1018 -0.2784
 1134SOL     ow 4533   1.585   5.056   3.911  0.1974  0.2550  0.6254
 1134SOL     hw 4534   1.591   4.969   3.872  0.9239  1.7969 -3.1029
 1134SOL     hw 4535   1.515   5.100   3.863  1.5980  2.5435  0.5211
 1134SOL     vw 4536   1.576   5.050   3.900  0.4780  0.7608  0.1197
 1135SOL     ow 4537   3.680   5.079   4.242 -0.0794  0.0173  0.3803
 1135SOL     hw 4538   3.743   5.119   4.182  0.1968  0.1242  0.7337
 1135SOL     hw 4539   3.727   5.074   4.325 -0.5997  0.2504  0.6910
 1135SOL     vw 4540   3.695   5.083   4.245 -0.1116  0.0622  0.4680
 1136SOL     ow 4541   5.893   6.870   1.826 -0.5813  0.2261  0.0194
 1136SOL     hw 4542   5.928   6.806   1.765  0.0372  0.6015 -0.0271
 1136SOL     hw 4543   5.904   6.829   1.912 -0.4085  0.1768 -0.0271
 1136SOL     vw 4544   5.899   6.856   1.830 -0.4771  0.2692  0.0071
 1137SOL     ow 4545   3.986   1.741   0.774 -0.1111 -0.7557  0.1361
 1137SOL     hw 4546   4.001   1.648   0.756 -0.0027 -1.0399  1.6200
 1137SOL     hw 4547   4.061   1.784   0.732 -0.0689 -1.3370 -0.4170
 1137SOL     vw 4548   3.998   1.734   0.766 -0.0912 -0.8699  0.2589
 1138SOL     ow 4549   5.186   3.649   6.821  0.1057 -0.6303  0.2155
 1138SOL     hw 4550   5.126   3.710   6.864  0.1590  0.4582 -1.1594
 1138SOL     hw 4551   5.184   3.570   6.875  0.5622  0.8028  2.4602
 1138SOL     vw 4552   5.178   3.647   6.834  0.1731 -0.2977  0.3302
 1139SOL     ow 4553   6.953   5.660   5.505 -0.6119  0.0391 -0.4772
 1139SOL     hw 4554   6.894   5.732   5.526 -0.7985  0.1043 -1.2141
 1139SOL     hw 4555   6.925   5.629   5.418  0.4577  0.1028 -0.8616
 1139SOL     vw 4556   6.941   5.665   5.496 -0.4952  0.0563 -0.6251
 1140SOL     ow 4557   6.591   6.506   6.294 -0.3896  0.1242 -0.6872
 1140SOL     hw 4558   6.660   6.440   6.294 -0.1464  0.3378  1.0052
 1140SOL     hw 4559   6.563   6.511   6.202  0.1428 -1.7150 -0.9975
 1140SOL     vw 4560   6.597   6.498   6.282 -0.2875 -0.0901 -0.5047
 1141SOL     ow 4561   2.806   4.478   1.230 -0.3168 -0.3416  0.5718
 1141SOL     hw 4562   2.779   4.550   1.173  0.6483 -1.8670 -2.0282
 1141SOL     hw 4563   2.900   4.468   1.212 -0.1764 -1.4580  1.8057
 1141SOL     vw 4564   2.815   4.486   1.220 -0.1708 -0.6905  0.3915
 1142SOL     ow 4565   6.429   6.262   0.025 -0.1355  0.2188  0.0758
 1142SOL     hw 4566   6.505   6.305   0.063  0.7920 -2.0751  0.9496
 1142SOL     hw 4567   6.461   6.222  -0.056 -0.4792 -0.5384  0.3082
 1142SOL     vw 4568   6.443   6.263   0.019 -0.0587 -0.1841  0.2218
 1143SOL     ow 4569   4.861   4.410   2.928 -0.5610  0.2317  0.1216
 1143SOL     hw 4570   4.773   4.432   2.898 -0.6212  1.2454  0.9613
 1143SOL     hw 4571   4.889   4.487   2.979  1.4409  0.6186 -1.4017
 1143SOL     vw 4572   4.853   4.423   2.931 -0.3047  0.4165  0.0315
 1144SOL     ow 4573   1.846   5.958   4.907 -0.2437  0.1224  0.0323
 1144SOL     hw 4574   1.815   5.980   4.819  0.2194  2.1638  0.3194
 1144SOL     hw 4575   1.940   5.975   4.904 -0.4028  1.3359  1.2091
 1144SOL     vw 4576   1.854   5.963   4.895 -0.2036  0.5519  0.2255
 1145SOL     ow 4577   1.421   1.382   1.269 -0.3644 -0.1053 -0.2063
 1145SOL     hw 4578   1.344   1.328   1.252 -0.3659  0.0921 -0.8178
 1145SOL     hw 4579   1.482   1.362   1.198  0.5203 -0.9262  0.7428
 1145SOL     vw 4580   1.419   1.372   1.258 -0.2478 -0.1875 -0.1617
 1146SOL     ow 4581   5.986   2.254   2.171  0.7824 -0.1756 -0.1529
 1146SOL     hw 4582   6.024   2.282   2.254  0.5646 -0.9319  0.2105
 1146SOL     hw 4583   5.950   2.167   2.189  1.3969 -0.6775 -1.2297
 1146SOL     vw 4584   5.986   2.246   2.184  0.8349 -0.3417 -0.2470
 1147SOL     ow 4585   2.500   3.798   0.206 -0.1314 -0.2895 -0.4309
 1147SOL     hw 4586   2.590   3.772   0.227 -0.0884 -0.7290 -1.1402
 1147SOL     hw 4587   2.453   3.792   0.290  0.7144  0.8939  0.1449
 1147SOL     vw 4588   2.506   3.794   0.220 -0.0142 -0.1913 -0.4485
 1148SOL     ow 4589   0.328   1.344   5.466  0.8289 -0.2267  0.3130
 1148SOL     hw 4590   0.336   1.286   5.390  0.4014  0.5010 -0.3072
 1148SOL     hw 4591   0.234   1.363   5.472  0.9892  0.6127  0.3311
 1148SOL     vw 4592   0.317   1.339   5.457  0.7937 -0.0200  0.2334
 1149SOL     ow 4593   2.640   4.997   6.707  0.0328  0.3460  1.1228
 1149SOL     hw 4594   2.682   4.935   6.768  0.8008 -0.4692 -0.1850
 1149SOL     hw 4595   2.594   4.941   6.645 -1.0000  1.1791  1.1215
 1149SOL     vw 4596   2.640   4.981   6.707 -0.0021  0.3481  0.9499
 1150SOL     ow 4597   5.293   1.370   3.483  0.1865 -0.6870 -0.2116
 1150SOL     hw 4598   5.256   1.416   3.558 -0.8975 -1.5318 -0.2139
 1150SOL     hw 4599   5.290   1.278   3.507  0.8975 -0.8835 -0.8398
 1150SOL     vw 4600   5.288   1.364   3.496  0.1373 -0.8243 -0.2946
 1151SOL     ow 4601   1.831   1.056   4.018  0.6387  0.1523 -0.3847
 1151SOL     hw 4602   1.838   1.070   4.112 -0.9071  0.5300 -0.2869
 1151SOL     hw 4603   1.889   0.982   4.000  1.4597  0.4846  0.7396
 1151SOL     vw 4604   1.840   1.048   4.028  0.5430  0.2460 -0.2232
 1152SOL     ow 4605   6.603   0.370   2.894 -0.4513  0.5845 -0.4950
 1152SOL     hw 4606   6.655   0.329   2.825  0.8571  0.6771  0.4190
 1152SOL     hw 4607   6.613   0.464   2.880  0.5815  0.6150  0.3597
 1152SOL     vw 4608   6.611   0.377   2.883 -0.1423  0.6008 -0.2617
 1153SOL     ow 4609   2.074   4.003   6.410 -0.2626 -0.4386  0.6055
 1153SOL     hw 4610   2.144   4.053   6.452  0.9540 -0.2214 -1.5646
 1153SOL     hw 4611   1.993   4.045   6.440  0.6391  1.3196  0.6935
 1153SOL     vw 4612   2.072   4.015   6.420  0.0168 -0.1781  0.3309
 1154SOL     ow 4613   2.781   5.740   5.544  0.5943  0.2027  0.9818
 1154SOL     hw 4614   2.825   5.793   5.477  0.5172 -0.3044  0.5213
 1154SOL     hw 4615   2.832   5.756   5.624 -1.3785  3.6010  1.7347
 1154SOL     vw 4616   2.794   5.749   5.545  0.3237  0.5841  1.0200
 1155SOL     ow 4617   1.441   5.011   3.190  0.6703  0.3835  0.2467
 1155SOL     hw 4618   1.395   4.934   3.157  0.3416  1.0323 -0.8294
 1155SOL     hw 4619   1.523   5.014   3.140  0.1817  1.3571 -0.5281
 1155SOL     vw 4620   1.446   5.001   3.179  0.5625  0.5977  0.0025
 1156SOL     ow 4621   2.184   0.716   1.878  0.4160 -0.5209  0.4276
 1156SOL     hw 4622   2.278   0.729   1.892  0.4882  0.7354 -1.0403
 1156SOL     hw 4623   2.144   0.748   1.959  1.2246 -1.0560  1.0652
 1156SOL     vw 4624   2.191   0.722   1.891  0.5323 -0.4257  0.3181
 1157SOL     ow 4625   2.787   1.399   5.115 -0.0686  0.4215 -0.2324
 1157SOL     hw 4626   2.882   1.405   5.107 -0.1033  1.8233  0.1778
 1157SOL     hw 4627   2.754   1.431   5.030 -0.1844 -1.8714 -1.1237
 1157SOL     vw 4628   2.795   1.404   5.102 -0.0885  0.3039 -0.2959
 1158SOL     ow 4629   1.625   4.378   1.779  0.2337  0.6784 -0.2829
 1158SOL     hw 4630   1.694   4.342   1.724  0.3903  1.0093 -0.3058
 1158SOL     hw 4631   1.672   4.422   1.850  0.0328  0.2450  0.1225
 1158SOL     vw 4632   1.640   4.379   1.781  0.2279  0.6649 -0.2324
 1159SOL     ow 4633   5.144   6.154   2.752  0.0793 -0.3079 -0.3170
 1159SOL     hw 4634   5.187   6.107   2.681  0.5713 -1.3564  0.6463
 1159SOL     hw 4635   5.210   6.217   2.782  1.0970 -2.0180  1.2603
 1159SOL     vw 4636   5.158   6.156   2.747  0.2785 -0.6719  0.0182
 1160SOL     ow 4637   0.090   1.283   1.744  0.1071  0.0700 -0.2655
 1160SOL     hw 4638   0.138   1.216   1.695 -1.0128 -0.1439 -1.1391
 1160SOL     hw 4639   0.012   1.298   1.691 -0.7385  0.4651  1.0525
 1160SOL     vw 4640   0.086   1.276   1.730 -0.1523  0.0939 -0.2069
 1161SOL     ow 4641   1.007   3.906   3.534  0.2729 -0.5047  0.0034
 1161SOL     hw 4642   0.931   3.964   3.544  0.5820  0.0533 -0.8087
 1161SOL     hw 4643   0.975   3.835   3.478 -0.3218 -1.5568  1.5885
 1161SOL     vw 4644   0.992   3.905   3.528  0.2352 -0.5699  0.1055
 1162SOL     ow 4645   1.566   1.407   3.395 -0.0984  0.1291 -0.3294
 1162SOL     hw 4646   1.587   1.478   3.335  0.4553 -0.9813 -1.5091
 1162SOL     hw 4647   1.484   1.434   3.438 -0.6410  0.8570 -1.7657
 1162SOL     vw 4648   1.558   1.420   3.393 -0.0970  0.0786 -0.6746
 1163SOL     ow 4649   5.326   5.270   3.702  0.4559 -0.0675 -0.1257
 1163SOL     hw 4650   5.297   5.286   3.792  1.0101  2.7827 -0.3608
 1163SOL     hw 4651   5.418   5.246   3.710  0.8788  1.5130  0.0392
 1163SOL     vw 4652   5.334   5.269   3.715  0.5851  0.5169 -0.1351
 1164SOL     ow 4653   3.196   5.353   0.469 -0.2954 -0.4917  0.0056
 1164SOL     hw 4654   3.290   5.343   0.482 -0.2170  0.2131 -0.0171
 1164SOL     hw 4655   3.158   5.325   0.553  0.0720  1.4530  0.8784
 1164SOL     vw 4656   3.203   5.348   0.482 -0.2365 -0.1421  0.1178
 1165SOL     ow 4657   6.443   6.486   5.130  0.2236 -0.5758  0.0904
 1165SOL     hw 4658   6.532   6.452   5.122  1.7080  2.7599  0.4668
 1165SOL     hw 4659   6.392   6.413   5.165  2.7906 -2.6249 -0.1477
 1165SOL     vw 4660   6.448   6.472   5.133  0.7579 -0.4060  0.1090
 1166SOL     ow 4661   3.158   5.838   1.998 -0.2925 -0.1831 -0.2792
 1166SOL     hw 4662   3.244   5.798   1.992 -0.7129 -0.9726 -1.4091
 1166SOL     hw 4663   3.111   5.805   1.921 -0.5626  2.7487 -1.5128
 1166SOL     vw 4664   3.163   5.828   1.987 -0.3836  0.0994 -0.5910
 1167SOL     ow 4665   4.677   6.979   4.293 -0.9151  0.3526 -0.0840
 1167SOL     hw 4666   4.755   6.954   4.341 -2.0870  0.0517  1.7671
 1167SOL     hw 4667   4.699   7.064   4.254  0.5035  0.0052 -0.0964
 1167SOL     vw 4668   4.690   6.987   4.294 -0.8826  0.2670  0.1588
 1168SOL     ow 4669   1.389   6.653   0.921 -0.3994 -0.3721  0.5617
 1168SOL     hw 4670   1.480   6.635   0.943  0.1042  0.4514 -0.7464
 1168SOL     hw 4671   1.349   6.680   1.004  0.7840  0.1487  0.9802
 1168SOL     vw 4672   1.396   6.655   0.935 -0.1768 -0.1948  0.4443
 1169SOL     ow 4673   6.080   3.740   5.348 -0.0632 -0.0495 -0.3189
 1169SOL     hw 4674   6.157   3.687   5.327  2.6019  2.6086  1.9560
 1169SOL     hw 4675   6.075   3.803   5.276 -1.0627 -1.0648 -1.1823
 1169SOL     vw 4676   6.090   3.741   5.335  0.1566  0.1673 -0.1326
 1170SOL     ow 4677   1.434   2.301   2.898 -0.2818  0.1959  0.6058
 1170SOL     hw 4678   1.419   2.310   2.804  0.8952  1.0410  0.4867
 1170SOL     hw 4679   1.405   2.212   2.918  0.0078 -0.2076 -0.6669
 1170SOL     vw 4680   1.428   2.290   2.888 -0.0883  0.2542  0.4220
 1171SOL     ow 4681   0.118   5.426   0.032  0.4816 -0.3099 -0.2066
 1171SOL     hw 4682   0.165   5.443   0.114  1.1792  1.1625 -0.8756
 1171SOL     hw 4683   0.184   5.435  -0.036 -0.0272 -1.8041 -0.9445
 1171SOL     vw 4684   0.133   5.429   0.034  0.5065 -0.3128 -0.3922
 1172SOL     ow 4685   5.280   1.385   4.372  0.0648 -0.4542  0.1120
 1172SOL     hw 4686   5.219   1.348   4.308  0.9902 -1.4508 -0.2208
 1172SOL     hw 4687   5.224   1.433   4.433 -0.8613  0.4056 -1.3381
 1172SOL     vw 4688   5.264   1.387   4.372  0.0646 -0.4722 -0.1235
 1173SOL     ow 4689   2.467   1.624   2.279  0.3429 -0.0713  0.0663
 1173SOL     hw 4690   2.480   1.716   2.255 -1.0462  1.0070  2.9603
 1173SOL     hw 4691   2.400   1.593   2.218 -0.3740  1.3639  0.0676
 1173SOL     vw 4692   2.460   1.632   2.268  0.0651  0.2603  0.4483
 1174SOL     ow 4693   0.934   1.721   3.584  1.1692  0.3238  0.3878
 1174SOL     hw 4694   0.915   1.780   3.657  1.9103  0.4447  0.4969
 1174SOL     hw 4695   1.021   1.685   3.604  1.7332  0.9509 -0.8088
 1174SOL     vw 4696   0.943   1.724   3.596  1.3414  0.4225  0.2443
 1175SOL     ow 4697   3.531   2.315   5.114  0.8173 -0.0381 -0.2724
 1175SOL     hw 4698   3.523   2.228   5.153  0.1116 -0.2841 -0.9357
 1175SOL     hw 4699   3.610   2.352   5.153  1.7341 -1.3893 -0.7761
 1175SOL     vw 4700   3.540   2.309   5.124  0.8453 -0.2487 -0.4265
 1176SOL     ow 4701   4.328   2.860   2.507 -0.3886 -0.1499 -0.3787
 1176SOL     hw 4702   4.258   2.801   2.536  0.1578  0.4434  2.4303
 1176SOL     hw 4703   4.398   2.800   2.480 -0.7783 -0.7814 -0.0380
 1176SOL     vw 4704   4.328   2.844   2.507 -0.3679 -0.1549  0.0368
 1177SOL     ow 4705   1.028   5.412   0.731  0.3667  0.3587  0.0515
 1177SOL     hw 4706   0.936   5.421   0.705  0.9912  0.8393 -2.2255
 1177SOL     hw 4707   1.034   5.324   0.767 -1.0605  0.4773  0.6446
 1177SOL     vw 4708   1.017   5.402   0.733  0.2608  0.4377 -0.1707
 1178SOL     ow 4709   6.199   5.836   5.215  0.1896 -0.1888  0.2154
 1178SOL     hw 4710   6.228   5.859   5.303 -2.0288  0.8400  0.7500
 1178SOL     hw 4711   6.275   5.853   5.159  0.9128  1.4197  1.6157
 1178SOL     vw 4712   6.213   5.841   5.219 -0.0076  0.1590  0.4709
 1179SOL     ow 4713   6.198   4.128   0.214  1.2317  0.3518  0.0709
 1179SOL     hw 4714   6.223   4.109   0.304 -1.0560  2.1667  1.1601
 1179SOL     hw 4715   6.170   4.043   0.178  1.0665 -0.1826  1.4225
 1179SOL     vw 4716   6.198   4.114   0.221  0.9081  0.5205  0.3930
 1180SOL     ow 4717   2.510   1.504   7.063 -0.4512  0.2921  0.2716
 1180SOL     hw 4718   2.606   1.502   7.071 -0.2455 -1.6333 -1.7746
 1180SOL     hw 4719   2.493   1.561   6.989 -1.0335  1.8312  1.5395
 1180SOL     vw 4720   2.521   1.511   7.054 -0.5008  0.2412  0.1689
 1181SOL     ow 4721   6.194   4.816   1.062  0.3759  0.5482 -0.3316
 1181SOL     hw 4722   6.121   4.827   1.122 -0.0888  0.1715 -0.8157
 1181SOL     hw 4723   6.186   4.889   1.000  0.0221  0.1418 -0.7721
 1181SOL     vw 4724   6.183   4.827   1.062  0.2680  0.4447 -0.4535
 1182SOL     ow 4725   2.321   4.567   6.478 -0.1894 -0.5213 -0.2679
 1182SOL     hw 4726   2.258   4.593   6.411 -1.1530 -1.4338  0.2446
 1182SOL     hw 4727   2.280   4.591   6.561 -0.0881 -1.5491  0.0940
 1182SOL     vw 4728   2.307   4.573   6.480 -0.3031 -0.7772 -0.1523
 1183SOL     ow 4729   1.370   4.323   7.023 -0.2782  0.2800  0.0927
 1183SOL     hw 4730   1.460   4.353   7.030 -0.2771  0.2547  0.1863
 1183SOL     hw 4731   1.367   4.242   7.075 -0.0790 -0.3380 -0.8302
 1183SOL     vw 4732   1.381   4.316   7.031 -0.2518  0.1953 -0.0167
 1184SOL     ow 4733   1.050   6.565   5.480  0.5983 -0.0183 -0.0264
 1184SOL     hw 4734   1.071   6.658   5.486 -1.2940  0.4364  0.3161
 1184SOL     hw 4735   1.094   6.535   5.400  0.5978  1.3566 -0.5669
 1184SOL     vw 4736   1.059   6.574   5.470  0.3486  0.2232 -0.0527
 1185SOL     ow 4737   4.648   6.560   5.546 -0.5888  0.3276 -0.5001
 1185SOL     hw 4738   4.591   6.612   5.603 -0.1834 -0.4859  0.7085
 1185SOL     hw 4739   4.685   6.493   5.605 -1.3723 -1.5611 -2.0356
 1185SOL     vw 4740   4.645   6.558   5.562 -0.6387 -0.0288 -0.5434
 1186SOL     ow 4741   4.298   0.517   0.646 -0.7802 -0.3222 -0.0958
 1186SOL     hw 4742   4.219   0.513   0.699 -0.2781  0.2418  0.7115
 1186SOL     hw 4743   4.284   0.452   0.576 -2.5057  0.7106 -0.7530
 1186SOL     vw 4744   4.286   0.508   0.644 -0.9415 -0.1115 -0.0760
 1187SOL     ow 4745   5.305   1.386   5.231  0.0336 -0.0382  0.1046
 1187SOL     hw 4746   5.227   1.357   5.277 -0.1285  0.5043  0.1758
 1187SOL     hw 4747   5.307   1.333   5.151  0.4622 -1.1808  0.8444
 1187SOL     vw 4748   5.295   1.375   5.227  0.0687 -0.1173  0.2120
 1188SOL     ow 4749   4.556   6.125   1.677 -0.2525 -0.0106 -0.4279
 1188SOL     hw 4750   4.584   6.042   1.641  0.3352  0.4997 -1.1811
 1188SOL     hw 4751   4.469   6.139   1.640 -0.9607 -0.9392  0.8161
 1188SOL     vw 4752   4.548   6.116   1.668 -0.2685 -0.0656 -0.3632
 1189SOL     ow 4753   6.578   1.255   2.653  0.0121 -0.1700 -0.5457
 1189SOL     hw 4754   6.528   1.307   2.589  0.3764 -0.3175 -0.9627
 1189SOL     hw 4755   6.631   1.196   2.599  0.2871 -0.3360 -0.0997
 1189SOL     vw 4756   6.578   1.254   2.637  0.0963 -0.2113 -0.5418
 1190SOL     ow 4757   6.213   0.928   4.975 -0.0896  0.1022 -0.5888
 1190SOL     hw 4758   6.224   0.833   4.962 -0.9727 -0.0969  0.0108
 1190SOL     hw 4759   6.266   0.947   5.052 -0.4389 -0.0410 -0.3069
 1190SOL     vw 4760   6.221   0.918   4.983 -0.2522  0.0570 -0.4725
 1191SOL     ow 4761   6.533   0.401   0.290  0.0528  0.0934  0.0463
 1191SOL     hw 4762   6.521   0.486   0.248 -1.4610 -0.7781 -1.4039
 1191SOL     hw 4763   6.605   0.360   0.242  0.7220  0.4836  0.6869
 1191SOL     vw 4764   6.541   0.407   0.278 -0.0582  0.0299 -0.0605
 1192SOL     ow 4765   5.223   4.656   6.380  0.0451 -0.3988  0.4185
 1192SOL     hw 4766   5.218   4.562   6.366  1.9694 -0.8656  2.3564
 1192SOL     hw 4767   5.144   4.691   6.337 -1.1243 -2.9367  0.3201
 1192SOL     vw 4768   5.212   4.648   6.373  0.1445 -0.7951  0.6609
 1193SOL     ow 4769   1.206   4.646   3.336 -0.4475 -0.1752 -0.7153
 1193SOL     hw 4770   1.284   4.613   3.381  0.0410  0.8921 -0.7436
 1193SOL     hw 4771   1.169   4.711   3.396 -0.8350 -0.0626 -1.0724
 1193SOL     vw 4772   1.211   4.650   3.350 -0.4342 -0.0196 -0.7662
 1194SOL     ow 4773   4.953   2.080   1.113 -0.2235 -0.4721  0.3884
 1194SOL     hw 4774   4.911   2.165   1.100  0.8070  0.4602  2.5814
 1194SOL     hw 4775   4.983   2.082   1.204  2.5464 -1.9454 -0.3680
 1194SOL     vw 4776   4.952   2.091   1.123  0.2778 -0.5436  0.5779
 1195SOL     ow 4777   0.218   1.191   6.682 -0.0313 -0.2774 -0.2150
 1195SOL     hw 4778   0.135   1.232   6.657  0.0444  0.1360  0.1925
 1195SOL     hw 4779   0.282   1.263   6.680  1.1438 -1.1642 -4.0937
 1195SOL     vw 4780   0.216   1.206   6.678  0.1337 -0.3399 -0.6731
 1196SOL     ow 4781   4.142   3.905   7.032  0.1518  0.4181 -0.7398
 1196SOL     hw 4782   4.085   3.843   7.079  0.3322  0.3785 -0.5681
 1196SOL     hw 4783   4.088   3.941   6.963  0.2546 -0.4850 -1.3048
 1196SOL     vw 4784   4.128   3.901   7.029  0.1891  0.2939 -0.7917
 1197SOL     ow 4785   6.783   4.697   0.214 -0.1363 -0.4189  0.8154
 1197SOL     hw 4786   6.727   4.730   0.144 -1.0562 -3.1522  0.1407
 1197SOL     hw 4787   6.776   4.763   0.283  0.1143  1.9423 -1.2590
 1197SOL     vw 4788   6.775   4.710   0.214 -0.2246 -0.4683  0.4527
 1198SOL     ow 4789   5.693   6.033   5.674  0.0898  0.1511 -0.0309
 1198SOL     hw 4790   5.774   5.987   5.651 -0.1383 -0.1519 -0.2301
 1198SOL     hw 4791   5.662   5.987   5.753  1.1846  1.5581  1.2838
 1198SOL     vw 4792   5.700   6.021   5.682  0.2043  0.2968  0.1163
 1199SOL     ow 4793   2.383   4.799   3.556  0.1197 -0.2758 -0.1350
 1199SOL     hw 4794   2.433   4.722   3.529 -0.3992 -1.2657  1.5337
 1199SOL     hw 4795   2.356   4.779   3.646 -1.2000  1.2800 -0.1423
 1199SOL     vw 4796   2.386   4.786   3.564 -0.1228 -0.2012  0.0842
 1200SOL     ow 4797   5.986   2.205   3.825  0.1886 -0.2389 -0.5229
 1200SOL     hw 4798   6.014   2.266   3.894  1.3479  0.1607 -1.3078
 1200SOL     hw 4799   6.039   2.126   3.841  1.3732  0.2876 -1.6351
 1200SOL     vw 4800   5.997   2.202   3.836  0.4976 -0.1167 -0.7733
 1201SOL     ow 4801   5.266   5.933   1.620 -0.5637  0.0459 -0.2300
 1201SOL     hw 4802   5.308   5.950   1.704 -2.1121  2.0556  0.2205
 1201SOL     hw 4803   5.324   5.974   1.556 -1.2239  1.8477  0.2740
 1201SOL     vw 4804   5.279   5.941   1.623 -0.8554  0.5486 -0.1041
 1202SOL     ow 4805   5.322   0.508   5.293 -0.0753  0.0166 -0.0482
 1202SOL     hw 4806   5.396   0.511   5.353 -0.0105 -1.9414  0.0264
 1202SOL     hw 4807   5.282   0.422   5.308 -2.8338  1.2590  0.4661
 1202SOL     vw 4808   5.326   0.497   5.303 -0.4308 -0.0778  0.0296
 1203SOL     ow 4809   2.807   6.221   2.705 -0.3888  1.2344  0.4003
 1203SOL     hw 4810   2.741   6.240   2.639  1.0555 -2.3023 -2.4217
 1203SOL     hw 4811   2.876   6.286   2.689  0.1359  0.2027 -2.0950
 1203SOL     vw 4812   2.808   6.232   2.694 -0.1291  0.6316 -0.3014
 1204SOL     ow 4813   3.791   5.181   1.196  0.0427  0.1933 -0.1401
 1204SOL     hw 4814   3.869   5.191   1.141  0.3695  2.6286  0.6271
 1204SOL     hw 4815   3.734   5.253   1.169 -0.9572 -0.2197  0.8323
 1204SOL     vw 4816   3.794   5.192   1.185 -0.0460  0.4604  0.0894
 1205SOL     ow 4817   0.121   2.338   3.396 -0.2849  0.5772 -0.0223
 1205SOL     hw 4818   0.133   2.421   3.349  2.5407  0.3554  0.1643
 1205SOL     hw 4819   0.204   2.293   3.387 -1.5453 -2.0251  0.4116
 1205SOL     vw 4820   0.133   2.343   3.388 -0.0784  0.2044  0.0596
 1206SOL     ow 4821   4.331   1.166   1.954  0.1429  0.0018 -0.4528
 1206SOL     hw 4822   4.383   1.246   1.948 -2.7208  1.9612 -1.2914
 1206SOL     hw 4823   4.313   1.142   1.863 -0.8097 -0.3247 -0.1928
 1206SOL     vw 4824   4.336   1.173   1.941 -0.3607  0.2172 -0.5291
 1207SOL     ow 4825   1.307   1.914   6.342  1.0493 -0.0312 -0.5296
 1207SOL     hw 4826   1.282   2.005   6.359  0.3222 -0.4104  0.5652
 1207SOL     hw 4827   1.260   1.892   6.261 -0.8145 -0.1642  0.5249
 1207SOL     vw 4828   1.297   1.923   6.334  0.7074 -0.0988 -0.2460
 1208SOL     ow 4829   6.759   3.003   2.395 -0.3954  0.4984  0.3972
 1208SOL     hw 4830   6.733   3.035   2.309  0.7342  0.0970 -0.1142
 1208SOL     hw 4831   6.763   2.907   2.385 -0.5154  0.4270  0.9723
 1208SOL     vw 4832   6.756   2.994   2.382 -0.2625  0.4359  0.4055
 1209SOL     ow 4833   6.713   5.558   4.556  0.0587 -0.2605  0.0508
 1209SOL     hw 4834   6.773   5.497   4.600 -0.2523  0.0616  0.9389
 1209SOL     hw 4835   6.636   5.560   4.612  0.1381  1.1042  0.1501
 1209SOL     vw 4836   6.711   5.550   4.569  0.0281 -0.0379  0.1810
 1210SOL     ow 4837   2.201   1.427   7.051  0.0985  0.2395 -0.1318
 1210SOL     hw 4838   2.159   1.459   7.131  0.1464  0.8579 -0.3540
 1210SOL     hw 4839   2.131   1.421   6.987 -0.5117 -2.8009  0.6428
 1210SOL     vw 4840   2.186   1.430   7.053  0.0242 -0.0800 -0.0589
 1211SOL     ow 4841   1.065   4.899   3.001  0.5640  0.5862  0.3534
 1211SOL     hw 4842   1.115   4.878   2.922  0.0575 -0.3760  0.2701
 1211SOL     hw 4843   0.999   4.962   2.972 -1.3935 -1.7573 -0.6735
 1211SOL     vw 4844   1.063   4.905   2.987  0.2389  0.1504  0.2069
 1212SOL     ow 4845   2.577   2.602   4.396  0.5079 -0.4961 -0.1265
 1212SOL     hw 4846   2.643   2.626   4.331 -1.2154 -1.6938 -2.4610
 1212SOL     hw 4847   2.599   2.512   4.420  0.9113 -0.1881  0.6846
 1212SOL     vw 4848   2.589   2.593   4.391  0.3338 -0.6133 -0.3276
 1213SOL     ow 4849   4.161   6.496   5.049  0.4147 -0.0479  0.1745
 1213SOL     hw 4850   4.079   6.454   5.024  0.0308 -0.0774  1.4074
 1213SOL     hw 4851   4.167   6.573   4.993 -0.5849  0.0785  0.2290
 1213SOL     vw 4852   4.151   6.501   5.038  0.2320 -0.0350  0.3445
 1214SOL     ow 4853   1.108   4.739   2.365 -0.1160  0.1360 -0.8479
 1214SOL     hw 4854   1.019   4.773   2.360  0.2197  0.9350 -1.7519
 1214SOL     hw 4855   1.134   4.726   2.273  1.1305  1.1243 -0.6720
 1214SOL     vw 4856   1.100   4.742   2.352  0.0928  0.3717 -0.9439
 1215SOL     ow 4857   4.802   6.482   0.462 -0.0375  0.3744 -0.3938
 1215SOL     hw 4858   4.708   6.489   0.477 -0.2367  0.1158 -1.4466
 1215SOL     hw 4859   4.811   6.419   0.391  1.1169 -2.1292  1.7847
 1215SOL     vw 4860   4.791   6.475   0.455  0.0887  0.0103 -0.2453
 1216SOL     ow 4861   5.020   4.727   0.377 -0.0391  0.1911 -0.1056
 1216SOL     hw 4862   5.046   4.702   0.465  1.1810  0.6299 -0.3139
 1216SOL     hw 4863   4.971   4.809   0.389  1.1885  0.9298  0.0949
 1216SOL     vw 4864   5.017   4.735   0.390  0.2837  0.3467 -0.1066
 1217SOL     ow 4865   1.308   1.118   3.038 -0.3778 -0.1000 -0.5270
 1217SOL     hw 4866   1.282   1.079   3.121  0.1848  0.0236 -0.2919
 1217SOL     hw 4867   1.234   1.173   3.013  0.9829  3.2565  1.9955
 1217SOL     vw 4868   1.295   1.121   3.045 -0.1241  0.3591 -0.1631
 1218SOL     ow 4869   4.508   6.894   5.306  0.0131 -0.1147  0.0041
 1218SOL     hw 4870   4.438   6.923   5.248 -0.2885  1.8401  1.2564
 1218SOL     hw 4871   4.572   6.965   5.303  0.5833 -0.5655  1.0769
 1218SOL     vw 4872   4.507   6.908   5.298  0.0484  0.0839  0.3104
 1219SOL     ow 4873   2.804   3.022   6.676 -0.1701 -0.5746  0.1074
 1219SOL     hw 4874   2.871   2.954   6.672  0.5020  0.1314 -2.4999
 1219SOL     hw 4875   2.728   2.982   6.634  0.7093  0.6491 -2.9058
 1219SOL     vw 4876   2.803   3.007   6.670  0.0346 -0.3200 -0.6342
 1220SOL     ow 4877   5.053   0.106   0.011 -0.5164 -0.3304  0.3887
 1220SOL     hw 4878   4.976   0.162   0.015 -0.7378 -0.5851 -0.2139
 1220SOL     hw 4879   5.116   0.147   0.070 -1.1318 -0.1528  0.9342
 1220SOL     vw 4880   5.051   0.119   0.019 -0.6268 -0.3406  0.3812
 1221SOL     ow 4881   5.694   5.965   0.133 -0.2178 -0.2376  0.3692
 1221SOL     hw 4882   5.674   6.018   0.211 -0.1942 -0.2821  0.4057
 1221SOL     hw 4883   5.625   5.899   0.131 -1.1058  0.6865 -0.5080
 1221SOL     vw 4884   5.682   5.963   0.143 -0.3316 -0.1216  0.2583
 1222SOL     ow 4885   1.397   2.041   2.967  0.2281 -0.0014  0.4611
 1222SOL     hw 4886   1.347   2.051   3.049  1.3821  0.6817  1.1056
 1222SOL     hw 4887   1.343   1.984   2.913  0.6293 -2.7342  2.7280
 1222SOL     vw 4888   1.383   2.035   2.971  0.4333 -0.2718  0.8452
 1223SOL     ow 4889   0.425   5.050   1.177 -0.4228 -0.5290  0.1437
 1223SOL     hw 4890   0.449   5.100   1.256 -1.0051 -0.8401  0.5189
 1223SOL     hw 4891   0.486   5.082   1.110 -0.5140  0.3911  0.4819
 1223SOL     vw 4892   0.436   5.061   1.179 -0.5116 -0.4485  0.2378
 1224SOL     ow 4893   7.047   6.221   0.219  0.5525 -0.0716 -0.2599
 1224SOL     hw 4894   7.122   6.208   0.162  1.5713  0.0419  1.0271
 1224SOL     hw 4895   7.029   6.315   0.216  1.1505  0.0606  0.2795
 1224SOL     vw 4896   7.054   6.231   0.211  0.7658 -0.0391 -0.0190
 1225SOL     ow 4897   3.114   5.464   0.176  0.2189 -0.4929  0.3509
 1225SOL     hw 4898   3.102   5.557   0.199 -3.3647 -0.2661 -1.7334
 1225SOL     hw 4899   3.163   5.466   0.094 -0.8216 -0.3077 -0.2882
 1225SOL     vw 4900   3.119   5.477   0.168 -0.3911 -0.4385 -0.0084
 1226SOL     ow 4901   5.937   1.886   0.433  0.1224  0.0986  0.3448
 1226SOL     hw 4902   5.914   1.939   0.509 -1.2962  0.1312 -0.0621
 1226SOL     hw 4903   5.959   1.800   0.469  1.3745  0.6371  0.9198
 1226SOL     vw 4904   5.937   1.882   0.448  0.1001  0.1739  0.3670
 1227SOL     ow 4905   2.608   6.894   2.644 -0.4459  0.4910  0.0208
 1227SOL     hw 4906   2.690   6.913   2.597 -1.0258  0.1234 -1.1653
 1227SOL     hw 4907   2.598   6.968   2.705  0.9175  0.3870  0.4229
 1227SOL     vw 4908   2.618   6.907   2.646 -0.3425  0.4287 -0.0827
 1228SOL     ow 4909   4.154   0.184   5.528  0.1413  0.5682 -0.3100
 1228SOL     hw 4910   4.107   0.249   5.580 -0.8934  0.9223 -1.6268
 1228SOL     hw 4911   4.197   0.234   5.459 -0.3346 -0.0718 -1.1025
 1228SOL     vw 4912   4.153   0.199   5.526 -0.0582  0.5305 -0.5884
 1229SOL     ow 4913   5.367   1.748   5.924  1.0001 -0.5209 -0.0315
 1229SOL     hw 4914   5.292   1.707   5.968  0.2814 -0.3790 -1.0857
 1229SOL     hw 4915   5.338   1.837   5.906  1.8659 -0.0993  0.5640
 1229SOL     vw 4916   5.353   1.755   5.928  1.0192 -0.4466 -0.0920
 1230SOL     ow 4917   5.880   4.550   4.623  0.3896  0.0223  0.0560
 1230SOL     hw 4918   5.817   4.488   4.588  0.5222 -0.1524  0.1231
 1230SOL     hw 4919   5.826   4.619   4.663  0.2113  1.1037 -1.9529
 1230SOL     vw 4920   5.865   4.551   4.624  0.3836  0.1419 -0.2000
 1231SOL     ow 4921   4.152   5.816   3.427  0.3789 -0.5475 -0.3801
 1231SOL     hw 4922   4.212   5.785   3.495  2.0249  0.1331 -1.4763
 1231SOL     hw 4923   4.179   5.770   3.348 -0.8672 -0.5662 -0.8235
 1231SOL     vw 4924   4.163   5.805   3.426  0.4318 -0.4601 -0.5832
 1232SOL     ow 4925   1.554   0.879   6.095 -0.3368  0.8048  0.4029
 1232SOL     hw 4926   1.527   0.947   6.034 -1.9546 -1.4830 -1.6218
 1232SOL     hw 4927   1.644   0.859   6.070 -0.1678  1.5386  0.3969
 1232SOL     vw 4928   1.562   0.885   6.084 -0.5280  0.5997  0.1354
 1233SOL     ow 4929   5.079   0.267   5.549 -0.1227 -0.9161 -0.5150
 1233SOL     hw 4930   5.075   0.215   5.469  2.4905 -1.3074 -0.4752
 1233SOL     hw 4931   5.083   0.358   5.518  1.3688 -1.0886 -0.8970
 1233SOL     vw 4932   5.079   0.272   5.534  0.4189 -0.9905 -0.5600
 1234SOL     ow 4933   1.478   2.425   7.066 -0.1665  0.1992  0.1027
 1234SOL     hw 4934   1.456   2.381   6.984 -0.3853  0.7293 -0.1264
 1234SOL     hw 4935   1.574   2.429   7.066 -0.1779  0.4904 -0.2842
 1234SOL     vw 4936   1.488   2.420   7.055 -0.1969  0.3077  0.0214
 1235SOL     ow 4937   6.965   2.822   6.073 -0.5416 -1.0237 -0.7420
 1235SOL     hw 4938   7.053   2.854   6.050 -0.7487  0.3000  0.1730
 1235SOL     hw 4939   6.981   2.742   6.122  0.3254  0.1437  1.0218
 1235SOL     vw 4940   6.979   2.816   6.076 -0.4547 -0.6950 -0.3886
 1236SOL     ow 4941   5.612   5.251   4.236 -0.3044  0.2407 -0.6520
 1236SOL     hw 4942   5.519   5.247   4.260 -0.2946 -1.5583 -0.7688
 1236SOL     hw 4943   5.611   5.282   4.145 -0.6356  2.2026 -0.0211
 1236SOL     vw 4944   5.599   5.255   4.227 -0.3467  0.2623 -0.5839
 1237SOL     ow 4945   4.617   1.972   6.937 -0.6593  0.0303  0.0963
 1237SOL     hw 4946   4.633   1.955   6.844 -0.8882  1.5681 -0.2569
 1237SOL     hw 4947   4.527   1.942   6.951 -1.1838  1.2213 -0.5890
 1237SOL     vw 4948   4.607   1.966   6.926 -0.7586  0.3904 -0.0408
 1238SOL     ow 4949   2.289   1.001   0.581  0.4912  0.3281 -0.0145
 1238SOL     hw 4950   2.351   1.018   0.652 -0.2035  0.4726  0.5674
 1238SOL     hw 4951   2.222   1.068   0.592 -1.6458 -1.9266  1.5530
 1238SOL     vw 4952   2.289   1.012   0.592  0.1175  0.0498  0.2691
 1239SOL     ow 4953   0.194   0.931   6.876  0.3603  0.0831 -0.2199
 1239SOL     hw 4954   0.205   0.835   6.873 -0.2169  0.0278 -1.0569
 1239SOL     hw 4955   0.108   0.946   6.838  0.2113  0.9133  0.4170
 1239SOL     vw 4956   0.184   0.920   6.871  0.2645  0.1853 -0.2460
 1240SOL     ow 4957   1.914   3.140   5.511 -0.1254  0.3003  0.6776
 1240SOL     hw 4958   1.859   3.064   5.533 -0.1003  1.3300  5.6426
 1240SOL     hw 4959   2.001   3.115   5.542  0.6352  1.2314 -0.6508
 1240SOL     vw 4960   1.918   3.126   5.518 -0.0218  0.5591  1.1575
 1241SOL     ow 4961   0.136   3.923   1.021  0.0817  0.0186  0.0230
 1241SOL     hw 4962   0.167   3.878   1.100 -1.6758 -0.9681  0.2025
 1241SOL     hw 4963   0.208   3.914   0.959  0.9362 -0.4502  1.0389
 1241SOL     vw 4964   0.150   3.916   1.023 -0.0374 -0.1734  0.1807
 1242SOL     ow 4965   0.551   6.919   0.609 -0.2126  0.0040  0.2330
 1242SOL     hw 4966   0.462   6.904   0.576 -0.1890 -0.5674  0.4110
 1242SOL     hw 4967   0.567   7.012   0.595 -0.5409 -0.0515 -0.5445
 1242SOL     vw 4968   0.541   6.929   0.603 -0.2528 -0.0784  0.1539
 1243SOL     ow 4969   0.208   1.328   2.239  0.2887 -0.8078 -0.2995
 1243SOL     hw 4970   0.248   1.396   2.293  3.2597  0.4962 -3.7863
 1243SOL     hw 4971   0.254   1.247   2.263  1.8640 -0.1672 -1.0396
 1243SOL     vw 4972   0.219   1.326   2.249  0.8885 -0.5513 -0.8571
 1244SOL     ow 4973   5.419   6.942   4.167 -0.6832 -0.0457  0.5955
 1244SOL     hw 4974   5.435   7.024   4.121 -0.7926 -0.3356  0.0190
 1244SOL     hw 4975   5.409   6.966   4.259  0.9795  0.3842  0.6851
 1244SOL     vw 4976   5.420   6.956   4.173 -0.4783 -0.0274  0.5310
 1245SOL     ow 4977   5.256   4.088   0.781  0.1217  0.1977 -0.3060
 1245SOL     hw 4978   5.286   4.119   0.867  0.4030  0.1681 -0.3945
 1245SOL     hw 4979   5.336   4.074   0.731 -0.0329 -0.0583 -0.4813
 1245SOL     vw 4980   5.270   4.090   0.786  0.1388  0.1600 -0.3408
 1246SOL     ow 4981   0.890   4.198   0.891 -0.2466  0.6689  0.1706
 1246SOL     hw 4982   0.910   4.136   0.962  0.6721 -1.8932 -2.1728
 1246SOL     hw 4983   0.794   4.198   0.886 -0.2922  0.2550  0.8831
 1246SOL     vw 4984   0.880   4.190   0.900 -0.1314  0.2761 -0.0446
 1247SOL     ow 4985   3.732   1.476   0.021 -0.5746 -0.0256 -0.5127
 1247SOL     hw 4986   3.815   1.508  -0.013 -0.1556 -0.6107 -0.0529
 1247SOL     hw 4987   3.738   1.380   0.015 -0.2837 -0.2030  1.6047
 1247SOL     vw 4988   3.744   1.467   0.016 -0.4809 -0.1263 -0.1727
 1248SOL     ow 4989   2.291   4.066   6.888  0.2110 -0.4672 -0.4617
 1248SOL     hw 4990   2.334   4.025   6.963 -1.6459 -1.9282 -0.1440
 1248SOL     hw 4991   2.308   4.007   6.815 -0.8462 -0.8125 -0.4325
 1248SOL     vw 4992   2.299   4.053   6.889 -0.1734 -0.7055 -0.4160
 1249SOL     ow 4993   2.084   4.655   5.215  0.2561 -0.6347 -0.2578
 1249SOL     hw 4994   2.179   4.655   5.205  0.4917  3.6609 -0.0227
 1249SOL     hw 4995   2.069   4.649   5.309  0.2034 -1.8303 -0.3248
 1249SOL     vw 4996   2.094   4.654   5.226  0.2801 -0.2258 -0.2356
 1250SOL     ow 4997   0.248   4.197   6.058  0.4667 -0.7232 -1.3712
 1250SOL     hw 4998   0.154   4.209   6.069  0.7432  0.8356 -0.4258
 1250SOL     hw 4999   0.272   4.134   6.126  0.2194 -0.5944 -1.1649
 1250SOL     vw 5000   0.239   4.190   6.068  0.4705 -0.5007 -1.2193
 1251SOL     ow 5001   4.464   3.007   5.009 -0.1522  0.3462  0.3987
 1251SOL     hw 5002   4.378   2.972   5.030 -0.3766 -0.4763 -1.6751
 1251SOL     hw 5003   4.500   3.034   5.094 -1.7874 -0.7556  1.5028
 1251SOL     vw 5004   4.458   3.006   5.023 -0.3977  0.0925  0.2706
 1252SOL     ow 5005   5.990   6.243   2.386  0.4512  0.2111  0.3850
 1252SOL     hw 5006   6.041   6.318   2.355  2.8922 -2.0373 -1.4484
 1252SOL     hw 5007   6.029   6.168   2.343 -1.8033 -2.1965  2.2311
 1252SOL     vw 5008   6.002   6.243   2.377  0.4759 -0.4034  0.3866
 1253SOL     ow 5009   3.438   0.094   3.913 -0.0993  0.4519 -0.1523
 1253SOL     hw 5010   3.385   0.130   3.842  2.2078  0.4366 -2.0010
 1253SOL     hw 5011   3.493   0.028   3.871 -1.1878 -2.2752  2.3629
 1253SOL     vw 5012   3.438   0.090   3.898  0.0616  0.0901 -0.0643
 1254SOL     ow 5013   0.566   1.291   3.833 -0.4793 -0.4601  0.0342
 1254SOL     hw 5014   0.652   1.249   3.831 -0.6180 -0.7666  0.3957
 1254SOL     hw 5015   0.582   1.376   3.874 -0.3769 -0.5843  0.2508
 1254SOL     vw 5016   0.579   1.297   3.838 -0.4841 -0.5169  0.1104
 1255SOL     ow 5017   1.525   0.133   1.883 -0.1495  0.0382  0.2190
 1255SOL     hw 5018   1.451   0.071   1.887 -0.6805  0.6370 -0.1201
 1255SOL     hw 5019   1.497   0.198   1.819  0.6598  0.3055  0.1387
 1255SOL     vw 5020   1.511   0.133   1.875 -0.1128  0.1524  0.1637
 1256SOL     ow 5021   6.506   6.448   3.366 -0.4522  0.2570 -0.7171
 1256SOL     hw 5022   6.474   6.480   3.282 -0.7584  0.4147 -0.5393
 1256SOL     hw 5023   6.442   6.383   3.393  1.0629 -1.8734 -1.9305
 1256SOL     vw 5024   6.493   6.444   3.359 -0.2930 -0.0031 -0.8537
 1257SOL     ow 5025   2.207   1.835   1.327 -0.9870  0.0658 -0.0532
 1257SOL     hw 5026   2.234   1.767   1.388  0.6158  1.6905  1.1847
 1257SOL     hw 5027   2.249   1.812   1.245  0.8373  0.2919  0.7539
 1257SOL     vw 5028   2.216   1.823   1.324 -0.5349  0.3099  0.2166
 1258SOL     ow 5029   5.318   6.605   6.370  0.1119 -0.1009 -0.3154
 1258SOL     hw 5030   5.267   6.569   6.297 -0.5141  1.2145 -0.5533
 1258SOL     hw 5031   5.258   6.664   6.415  1.2814  1.1650 -0.3363
 1258SOL     vw 5032   5.303   6.608   6.366  0.1833  0.2396 -0.3495
 1259SOL     ow 5033   7.002   5.591   5.811 -0.3031 -0.0820 -0.0177
 1259SOL     hw 5034   6.911   5.577   5.783  0.6276 -2.2401 -2.3287
 1259SOL     hw 5035   7.027   5.675   5.772 -1.0940  0.2218  0.1086
 1259SOL     vw 5036   6.993   5.600   5.802 -0.2847 -0.3266 -0.3059
 1260SOL     ow 5037   3.274   4.707   0.728 -0.4306  0.2839  0.1862
 1260SOL     hw 5038   3.267   4.643   0.798  0.3277  0.1862  0.1741
 1260SOL     hw 5039   3.262   4.791   0.771  1.3493  0.3248  0.6755
 1260SOL     vw 5040   3.271   4.710   0.743 -0.0958  0.2763  0.2491
 1261SOL     ow 5041   3.893   2.216   4.517 -0.1911  0.0632  0.1406
 1261SOL     hw 5042   3.872   2.299   4.475 -0.4800  0.7379  1.5809
 1261SOL     hw 5043   3.809   2.182   4.547  0.1556  0.2788  1.3946
 1261SOL     vw 5044   3.879   2.222   4.515 -0.1835  0.1808  0.4961
 1262SOL     ow 5045   3.811   1.910   0.575  0.1476 -0.1680  0.3980
 1262SOL     hw 5046   3.887   1.966   0.562  0.7565 -1.3367 -1.5422
 1262SOL     hw 5047   3.735   1.968   0.567  0.7878  0.9670  2.1111
 1262SOL     vw 5048   3.811   1.925   0.572  0.3124 -0.1724  0.3680
 1263SOL     ow 5049   3.541   6.560   6.942 -0.1244  0.0472 -0.1334
 1263SOL     hw 5050   3.634   6.583   6.942  0.3153 -1.3428  2.4806
 1263SOL     hw 5051   3.539   6.465   6.940 -1.3188 -0.0554  2.2585
 1263SOL     vw 5052   3.553   6.551   6.942 -0.2241 -0.1495  0.5274
 1264SOL     ow 5053   6.884   0.105   0.496 -0.0150  0.4653  0.4787
 1264SOL     hw 5054   6.858   0.053   0.420 -1.3005  0.0811  1.1469
 1264SOL     hw 5055   6.839   0.064   0.570  1.5226  0.5885  1.5324
 1264SOL     vw 5056   6.875   0.093   0.496  0.0181  0.4309  0.7059
 1265SOL     ow 5057   5.211   4.616   2.553 -0.2856  0.6628  0.1087
 1265SOL     hw 5058   5.277   4.617   2.622 -2.1732 -0.3891  2.0616
 1265SOL     hw 5059   5.199   4.708   2.530  0.7399  1.0006  0.8401
 1265SOL     vw 5060   5.218   4.628   2.559 -0.3991  0.5684  0.4629
 1266SOL     ow 5061   1.473   4.672   4.508  0.0043 -0.5602 -0.1336
 1266SOL     hw 5062   1.379   4.678   4.488 -0.3000 -1.9803  0.7413
 1266SOL     hw 5063   1.492   4.578   4.506  1.7962 -0.2359 -1.9087
 1266SOL     vw 5064   1.463   4.660   4.505  0.2006 -0.7050 -0.2525
 1267SOL     ow 5065   2.213   5.658   5.180 -0.1386 -0.3182  0.1688
 1267SOL     hw 5066   2.206   5.690   5.269 -1.2636  0.6508 -0.2459
 1267SOL     hw 5067   2.301   5.682   5.152 -0.8714  2.3403 -0.0733
 1267SOL     vw 5068   2.223   5.665   5.188 -0.3837  0.1602  0.0820
 1268SOL     ow 5069   2.803   1.884   0.683 -0.4729 -0.0178  0.5974
 1268SOL     hw 5070   2.780   1.814   0.744 -1.6657 -0.4908 -0.3684
 1268SOL     hw 5071   2.787   1.848   0.596  2.5202  0.1650 -0.1470
 1268SOL     vw 5072   2.798   1.870   0.680 -0.2354 -0.0561  0.3717
 1269SOL     ow 5073   6.039   6.073   2.683  0.3205 -0.2910  0.7987
 1269SOL     hw 5074   5.996   6.004   2.735 -2.8029  0.9555  0.1185
 1269SOL     hw 5075   6.072   6.134   2.748  2.8749 -2.1664  1.4056
 1269SOL     vw 5076   6.038   6.072   2.699  0.2453 -0.3741  0.7890
 1270SOL     ow 5077   2.409   0.812   0.368  0.0717  0.3236 -0.2632
 1270SOL     hw 5078   2.396   0.775   0.280 -0.9127 -2.9072  1.1119
 1270SOL     hw 5079   2.498   0.788   0.392  0.5498  1.7149 -0.5309
 1270SOL     vw 5080   2.419   0.804   0.359  0.0049  0.0809 -0.1171
 1271SOL     ow 5081   6.694   1.265   3.846 -0.6370  1.0001 -0.3566
 1271SOL     hw 5082   6.680   1.312   3.763  3.1088  0.7614 -1.3341
 1271SOL     hw 5083   6.728   1.332   3.905  0.6639  0.4209 -0.4072
 1271SOL     vw 5084   6.697   1.280   3.843  0.0288  0.8922 -0.4922
 1272SOL     ow 5085   6.776   3.301   4.254  0.3721  0.0821 -0.1453
 1272SOL     hw 5086   6.722   3.379   4.235  0.5874  0.3958  0.5029
 1272SOL     hw 5087   6.866   3.331   4.239  0.4637 -0.0049  0.2322
 1272SOL     vw 5088   6.781   3.316   4.250  0.4127  0.1121 -0.0100
 1273SOL     ow 5089   5.447   3.952   5.914  0.1600  0.4008  0.2277
 1273SOL     hw 5090   5.429   3.864   5.880  2.4899  0.3741 -1.0928
 1273SOL     hw 5091   5.394   3.957   5.994 -1.6543 -1.3874 -0.7572
 1273SOL     vw 5092   5.437   3.941   5.920  0.2282  0.1613 -0.0765
 1274SOL     ow 5093   3.056   7.021   1.428 -0.2175 -0.1490 -0.0334
 1274SOL     hw 5094   3.134   6.975   1.458 -0.6718 -0.6351  0.4359
 1274SOL     hw 5095   3.068   7.111   1.458  0.0627 -0.2733  0.2316
 1274SOL     vw 5096   3.068   7.027   1.436 -0.2406 -0.2296  0.0634
 1275SOL     ow 5097   5.090   3.838   6.620  0.7196 -0.4746  0.8166
 1275SOL     hw 5098   5.075   3.917   6.673 -1.7324 -0.1443 -0.2367
 1275SOL     hw 5099   5.094   3.870   6.530  0.9737 -1.4271  0.4787
 1275SOL     vw 5100   5.088   3.853   6.615  0.4294 -0.5568  0.6332
 1276SOL     ow 5101   4.964   5.812   6.787  0.0437  0.0919  0.0192
 1276SOL     hw 5102   4.884   5.814   6.839  1.1656 -3.3477  2.2162
 1276SOL     hw 5103   4.949   5.744   6.722 -0.4215  2.6856 -2.8234
 1276SOL     vw 5104   4.951   5.804   6.785  0.1302 -0.0198 -0.0658
 1277SOL     ow 5105   3.579   5.645   6.388  0.3775  0.3244  0.5351
 1277SOL     hw 5106   3.536   5.602   6.315 -1.0384  0.3195  1.3197
 1277SOL     hw 5107   3.664   5.602   6.396  0.3735  0.0400 -0.8165
 1277SOL     vw 5108   3.585   5.634   6.380  0.1901  0.2866  0.4601
 1278SOL     ow 5109   0.444   1.858   6.424 -0.2065 -0.3916  0.1079
 1278SOL     hw 5110   0.371   1.815   6.469  0.0933 -0.2820  0.7220
 1278SOL     hw 5111   0.508   1.788   6.410 -0.2153 -0.3851  0.0378
 1278SOL     vw 5112   0.443   1.843   6.428 -0.1681 -0.3763  0.1798
 1279SOL     ow 5113   3.491   3.082   5.130 -0.5314  0.0878  0.4225
 1279SOL     hw 5114   3.442   3.022   5.074 -0.1161  0.8469 -0.7882
 1279SOL     hw 5115   3.582   3.071   5.103 -0.2980  0.3082  1.1111
 1279SOL     vw 5116   3.497   3.073   5.119 -0.4457  0.2171  0.3536
 1280SOL     ow 5117   4.373   1.881   1.834 -0.9727  0.6694 -0.3539
 1280SOL     hw 5118   4.387   1.789   1.859 -3.1952  0.6824  1.2348
 1280SOL     hw 5119   4.338   1.877   1.745  0.5167  0.1462 -0.9576
 1280SOL     vw 5120   4.370   1.868   1.826 -1.0698  0.6021 -0.2240
 1281SOL     ow 5121   4.525   0.991   0.476  0.0774  0.3830 -0.6624
 1281SOL     hw 5122   4.576   1.014   0.399  0.5208  0.6052 -0.3116
 1281SOL     hw 5123   4.485   1.073   0.504  1.0291  0.5932  0.1356
 1281SOL     vw 5124   4.526   1.005   0.470  0.2618  0.4401 -0.5108
 1282SOL     ow 5125   0.951   0.057   3.598 -0.2936 -0.7200  0.7976
 1282SOL     hw 5126   0.863   0.090   3.583 -0.1354  0.4222  2.1075
 1282SOL     hw 5127   0.957   0.049   3.693  0.9245 -1.0394  0.7095
 1282SOL     vw 5128   0.940   0.060   3.609 -0.1120 -0.6115  0.9588
 1283SOL     ow 5129   3.151   4.771   2.202 -0.0730  0.4968 -0.0349
 1283SOL     hw 5130   3.117   4.721   2.276  2.7349  0.9587  1.7193
 1283SOL     hw 5131   3.082   4.835   2.183 -2.0978 -1.5028  0.1787
 1283SOL     vw 5132   3.137   4.773   2.209  0.0303  0.2940  0.2247
 1284SOL     ow 5133   0.227   1.551   1.658  1.0788 -0.2813  0.4318
 1284SOL     hw 5134   0.278   1.544   1.578  0.7633 -0.0353  0.2073
 1284SOL     hw 5135   0.180   1.634   1.650  1.0864 -0.2267  0.8959
 1284SOL     vw 5136   0.227   1.561   1.646  1.0382 -0.2416  0.4634
 1285SOL     ow 5137   3.494   6.211   0.837 -0.5565 -0.5276 -0.2994
 1285SOL     hw 5138   3.489   6.187   0.744 -0.5174 -1.8052  0.0059
 1285SOL     hw 5139   3.444   6.293   0.843 -0.1285 -0.1479 -1.5284
 1285SOL     vw 5140   3.486   6.219   0.825 -0.4947 -0.6459 -0.4213
 1286SOL     ow 5141   6.060   0.062   5.737  0.6807  0.1463 -0.0491
 1286SOL     hw 5142   5.992   0.094   5.678  0.2775  1.5980  1.1330
 1286SOL     hw 5143   6.012   0.028   5.813  1.2180 -0.3574  0.0691
 1286SOL     vw 5144   6.045   0.062   5.740  0.6986  0.2716  0.1223
 1287SOL     ow 5145   3.061   3.757   4.299 -0.4610 -0.0202  0.9063
 1287SOL     hw 5146   3.021   3.674   4.274  0.4119 -0.0315 -0.6214
 1287SOL     hw 5147   3.155   3.744   4.285 -0.3853  1.4831 -0.2796
 1287SOL     vw 5148   3.068   3.744   4.294 -0.3358  0.1767  0.5484
 1288SOL     ow 5149   5.968   6.850   3.182  0.1360 -0.1795 -0.5625
 1288SOL     hw 5150   5.912   6.824   3.110 -0.7382  0.0384  0.0186
 1288SOL     hw 5151   5.908   6.877   3.251  0.8360 -2.3892  1.0424
 1288SOL     vw 5152   5.953   6.850   3.182  0.1132 -0.4420 -0.2739
 1289SOL     ow 5153   4.176   0.049   3.035 -0.1869  0.0732 -0.6319
 1289SOL     hw 5154   4.209   0.121   3.089 -0.8269 -0.4345  0.4677
 1289SOL     hw 5155   4.231  -0.026   3.059 -0.8338 -0.2901 -0.2591
 1289SOL     vw 5156   4.188   0.048   3.045 -0.3567 -0.0417 -0.4376
 1290SOL     ow 5157   6.400   0.711   6.089  0.0039  0.5001  0.3255
 1290SOL     hw 5158   6.453   0.746   6.016 -1.1900  0.1971 -0.7198
 1290SOL     hw 5159   6.389   0.618   6.068  0.9635  0.0383  1.7399
 1290SOL     vw 5160   6.406   0.704   6.076 -0.0269  0.3992  0.3743
 1291SOL     ow 5161   3.004   0.733   1.237  0.4208 -0.1615  0.3513
 1291SOL     hw 5162   2.984   0.642   1.215  0.6405 -0.1771  0.2256
 1291SOL     hw 5163   3.068   0.761   1.172 -1.2665  0.7796 -1.0132
 1291SOL     vw 5164   3.010   0.725   1.226  0.2272 -0.0394  0.1547
 1292SOL     ow 5165   3.454   2.072   3.796  0.2825 -0.2041  0.4083
 1292SOL     hw 5166   3.388   2.140   3.778  0.7079 -0.0962 -0.8435
 1292SOL     hw 5167   3.537   2.113   3.771  0.5956 -1.0331  0.0684
 1292SOL     vw 5168   3.457   2.087   3.790  0.3799 -0.2992  0.1982
 1293SOL     ow 5169   6.331   2.173   6.948 -0.2478 -0.3549  0.6056
 1293SOL     hw 5170   6.410   2.211   6.987 -0.4350  1.3465 -0.5887
 1293SOL     hw 5171   6.268   2.244   6.948 -1.5310 -1.4574  0.7695
 1293SOL     vw 5172   6.333   2.187   6.953 -0.4423 -0.2759  0.4697
 1294SOL     ow 5173   2.212   2.439   5.388 -0.3146  0.3809  0.1572
 1294SOL     hw 5174   2.137   2.392   5.353 -2.0740  1.6457  1.9737
 1294SOL     hw 5175   2.183   2.531   5.390  2.0742  1.2249 -1.0026
 1294SOL     vw 5176   2.198   2.445   5.384 -0.2314  0.6592  0.2437
 1295SOL     ow 5177   0.930   6.898   3.330 -0.3232 -0.1372 -0.4584
 1295SOL     hw 5178   0.903   6.914   3.240 -3.6057  2.3952  0.7864
 1295SOL     hw 5179   0.848   6.881   3.377  1.0194  0.6861  2.4072
 1295SOL     vw 5180   0.916   6.898   3.324 -0.5791  0.3054  0.0839
 1296SOL     ow 5181   6.660   7.040   6.567  0.1303 -0.2794 -0.6144
 1296SOL     hw 5182   6.646   7.047   6.662 -0.6483 -1.7637 -0.5801
 1296SOL     hw 5183   6.595   7.099   6.529  1.1225  1.1018 -0.2248
 1296SOL     vw 5184   6.649   7.048   6.575  0.1585 -0.2928 -0.5586
 1297SOL     ow 5185   5.534   1.328   6.455  0.3859 -0.5622  0.5627
 1297SOL     hw 5186   5.570   1.242   6.431 -0.7736 -1.2822  1.3003
 1297SOL     hw 5187   5.457   1.338   6.399  2.3927  1.6236 -2.0697
 1297SOL     vw 5188   5.529   1.318   6.444  0.4978 -0.3688  0.3126
 1298SOL     ow 5189   4.516   2.818   6.114  1.0253  0.0037  0.3698
 1298SOL     hw 5190   4.528   2.891   6.174  0.4683 -0.1339  0.6527
 1298SOL     hw 5191   4.479   2.748   6.168  1.4138 -0.4414  0.0717
 1298SOL     vw 5192   4.513   2.818   6.129  1.0030 -0.0733  0.3679
 1299SOL     ow 5193   0.401   1.138   0.632 -0.7116  0.2153 -0.5663
 1299SOL     hw 5194   0.436   1.122   0.720  0.1302 -0.4378 -0.9963
 1299SOL     hw 5195   0.334   1.205   0.644 -1.6797 -0.9335  0.7992
 1299SOL     vw 5196   0.397   1.145   0.645 -0.7283 -0.0224 -0.4429
 1300SOL     ow 5197   3.630   1.262   6.521  0.2809 -0.4553  0.4039
 1300SOL     hw 5198   3.631   1.296   6.610  0.3987  0.7875 -0.0529
 1300SOL     hw 5199   3.584   1.178   6.528  0.5734 -0.5310  1.6748
 1300SOL     vw 5200   3.624   1.255   6.534  0.3351 -0.3013  0.5112
 1301SOL     ow 5201   3.930   6.460   5.239  0.1458 -0.3888  0.4400
 1301SOL     hw 5202   3.904   6.552   5.228  1.1745 -0.2834 -1.5678
 1301SOL     hw 5203   3.871   6.427   5.307  0.0421  1.8546  1.5456
 1301SOL     vw 5204   3.919   6.468   5.246  0.2679 -0.0789  0.3209
 1302SOL     ow 5205   2.417   6.909   1.019  0.7779  0.8783 -0.4338
 1302SOL     hw 5206   2.468   6.981   0.984  1.0012  0.7775 -0.3151
 1302SOL     hw 5207   2.481   6.842   1.041  0.8515  1.6136  1.8551
 1302SOL     vw 5208   2.432   6.910   1.017  0.8171  0.9620 -0.1161
 1303SOL     ow 5209   4.847   3.658   6.653 -0.1669  0.3369  0.5052
 1303SOL     hw 5210   4.792   3.666   6.575  0.6572 -3.0655 -0.5929
 1303SOL     hw 5211   4.910   3.730   6.645 -0.7862  0.7236 -1.3745
 1303SOL     vw 5212   4.848   3.669   6.642 -0.1400 -0.0612  0.1125
 1304SOL     ow 5213   4.610   1.060   2.431  0.1217 -0.4993  0.1272
 1304SOL     hw 5214   4.633   0.982   2.381  2.7117 -0.2456  0.7741
 1304SOL     hw 5215   4.588   1.027   2.519  0.1086 -0.5819  0.0924
 1304SOL     vw 5216   4.610   1.046   2.436  0.4613 -0.4767  0.2080
 1305SOL     ow 5217   3.771   6.920   2.250  0.7600 -0.2293 -0.1665
 1305SOL     hw 5218   3.788   6.840   2.201 -0.7623  0.0710 -1.2528
 1305SOL     hw 5219   3.752   6.986   2.182  0.3417  0.6371  0.7618
 1305SOL     vw 5220   3.771   6.918   2.234  0.5040 -0.0751 -0.1874
 1306SOL     ow 5221   0.233   2.750   0.383  0.5541  0.0134  0.3641
 1306SOL     hw 5222   0.264   2.840   0.371  4.9576 -1.2135  0.8384
 1306SOL     hw 5223   0.218   2.743   0.478  3.3470 -0.4568  0.8581
 1306SOL     vw 5224   0.235   2.761   0.394  1.5036 -0.2104  0.4919
 1307SOL     ow 5225   4.445   6.959   4.507  0.1063 -0.1684  0.3709
 1307SOL     hw 5226   4.442   7.045   4.548 -2.3841  1.1231 -2.1841
 1307SOL     hw 5227   4.396   6.902   4.567  1.1867  0.2671  1.7391
 1307SOL     vw 5228   4.438   6.963   4.520 -0.0796  0.0596  0.2143
 1308SOL     ow 5229   1.468   5.970   2.966 -0.3042 -0.6781 -0.2488
 1308SOL     hw 5230   1.462   6.054   2.921 -0.0375 -0.3775  0.2658
 1308SOL     hw 5231   1.398   5.917   2.927 -0.4105 -0.2548 -0.6473
 1308SOL     vw 5232   1.458   5.974   2.955 -0.2831 -0.5827 -0.2335
 1309SOL     ow 5233   1.768   0.196   0.027 -0.0923  0.1405  0.2892
 1309SOL     hw 5234   1.815   0.113   0.040 -0.6636 -0.2845 -0.2803
 1309SOL     hw 5235   1.707   0.178  -0.045 -0.0885  1.1156  0.0252
 1309SOL     vw 5236   1.766   0.182   0.019 -0.1672  0.2131  0.1792
 1310SOL     ow 5237   2.287   2.736   0.456 -0.6442 -0.0873 -0.0973
 1310SOL     hw 5238   2.243   2.764   0.375 -1.2464  0.0698  0.2796
 1310SOL     hw 5239   2.380   2.737   0.434 -0.6360  2.1097 -0.1255
 1310SOL     vw 5240   2.293   2.740   0.442 -0.7225  0.2235 -0.0513
 1311SOL     ow 5241   0.606   1.677   3.131 -0.9527  0.2804  0.1808
 1311SOL     hw 5242   0.668   1.702   3.200  2.5782 -2.4027 -1.6621
 1311SOL     hw 5243   0.551   1.610   3.171  1.2758 -1.5009  0.5074
 1311SOL     vw 5244   0.607   1.671   3.145 -0.1928 -0.3086 -0.0192
 1312SOL     ow 5245   2.788   4.835   3.391  0.3493  0.5599  0.3993
 1312SOL     hw 5246   2.861   4.798   3.441 -0.8923 -0.6553  1.3939
 1312SOL     hw 5247   2.830   4.885   3.321  2.1278  0.2834  1.2111
 1312SOL     vw 5248   2.803   4.837   3.388  0.4201  0.3631  0.6377
 1313SOL     ow 5249   2.200   5.631   1.294 -0.0040 -0.2574  0.2376
 1313SOL     hw 5250   2.170   5.551   1.336 -0.6223 -0.4146 -0.4738
 1313SOL     hw 5251   2.251   5.601   1.218  0.2667  0.0193  0.3085
 1313SOL     vw 5252   2.202   5.617   1.289 -0.0498 -0.2418  0.1531
 1314SOL     ow 5253   0.363   3.375   1.546 -0.1367 -0.4365 -0.1217
 1314SOL     hw 5254   0.441   3.324   1.570  0.8561  0.7492 -0.7104
 1314SOL     hw 5255   0.307   3.312   1.501 -0.3959 -1.7858  1.9552
 1314SOL     vw 5256   0.366   3.360   1.543 -0.0399 -0.4581  0.0747
 1315SOL     ow 5257   6.967   5.756   5.148  0.4228 -0.0382 -0.1024
 1315SOL     hw 5258   6.920   5.823   5.198  1.5857 -0.5030  1.6936
 1315SOL     hw 5259   6.913   5.677   5.158 -0.5761  0.3877 -1.6343
 1315SOL     vw 5260   6.953   5.754   5.156  0.4444 -0.0434 -0.0675
 1316SOL     ow 5261   5.783   4.577   5.104 -0.1216  0.4387 -0.1771
 1316SOL     hw 5262   5.692   4.583   5.077 -0.2609  1.0108  0.4045
 1316SOL     hw 5263   5.822   4.659   5.076 -0.2116  0.9431  1.1005
 1316SOL     vw 5264   5.776   4.588   5.097 -0.1519  0.5805  0.0684
 1317SOL     ow 5265   6.176   1.637   1.021  0.0856  0.0488 -0.6439
 1317SOL     hw 5266   6.156   1.708   1.083 -0.0144  0.5174 -1.2019
 1317SOL     hw 5267   6.099   1.632   0.964  0.2498 -0.2561 -0.8433
 1317SOL     vw 5268   6.163   1.646   1.022  0.0939  0.0704 -0.7439
 1318SOL     ow 5269   1.331   2.176   5.026  0.1732  0.2415 -0.4515
 1318SOL     hw 5270   1.405   2.142   5.076 -0.4042  0.2291  0.3980
 1318SOL     hw 5271   1.372   2.216   4.949  1.0468  0.0153 -0.1225
 1318SOL     vw 5272   1.346   2.177   5.022  0.2123  0.2102 -0.2959
 1319SOL     ow 5273   6.838   5.850   3.434  0.6914 -0.6731  0.4765
 1319SOL     hw 5274   6.761   5.798   3.455  0.3832  0.3988  2.1524
 1319SOL     hw 5275   6.904   5.822   3.497  2.3018 -2.7289 -1.9250
 1319SOL     vw 5276   6.836   5.840   3.445  0.8631 -0.8032  0.3809
 1320SOL     ow 5277   3.632   1.812   6.929  0.3712  0.0184  0.2996
 1320SOL     hw 5278   3.580   1.882   6.888 -0.1689  0.9777  2.4630
 1320SOL     hw 5279   3.714   1.855   6.953  0.1333 -0.1216  1.4213
 1320SOL     vw 5280   3.636   1.827   6.927  0.2687  0.1265  0.7331
 1321SOL     ow 5281   6.258   0.762   1.740 -0.3750 -0.0945  0.2330
 1321SOL     hw 5282   6.278   0.851   1.709 -0.5281 -0.1624 -0.0620
 1321SOL     hw 5283   6.338   0.713   1.723  0.2608  0.3381  1.7862
 1321SOL     vw 5284   6.271   0.768   1.734 -0.3116 -0.0464  0.3991
 1322SOL     ow 5285   0.703   0.525   5.301  0.3661 -0.2561 -0.4102
 1322SOL     hw 5286   0.789   0.500   5.335 -0.7144 -1.4838  1.6480
 1322SOL     hw 5287   0.722   0.579   5.224  3.0067  1.6390  1.4064
 1322SOL     vw 5288   0.717   0.529   5.295  0.5719 -0.1680  0.1011
 1323SOL     ow 5289   0.702   1.886   0.983  0.1463 -0.3267 -0.1825
 1323SOL     hw 5290   0.663   1.920   0.902  0.8465  1.1393  0.0535
 1323SOL     hw 5291   0.643   1.816   1.011 -1.0399  0.2903 -1.0517
 1323SOL     vw 5292   0.689   1.881   0.976  0.0822 -0.0519 -0.2660
 1324SOL     ow 5293   2.741   3.912   4.749  0.0735  0.1248  0.5487
 1324SOL     hw 5294   2.820   3.884   4.796  0.9803  0.8121 -0.5091
 1324SOL     hw 5295   2.692   3.963   4.812  0.5418 -0.1972  1.1838
 1324SOL     vw 5296   2.745   3.915   4.763  0.2550  0.1730  0.4928
 1325SOL     ow 5297   2.073   3.345   5.780  0.3067 -0.1238 -0.5471
 1325SOL     hw 5298   2.137   3.295   5.729  2.0625  0.2348  1.1895
 1325SOL     hw 5299   2.000   3.284   5.793  0.9811 -1.1163 -1.2350
 1325SOL     vw 5300   2.072   3.330   5.775  0.6274 -0.2074 -0.4086
 1326SOL     ow 5301   0.340   6.540   5.520  0.5147 -0.6613 -0.7520
 1326SOL     hw 5302   0.430   6.569   5.532  0.1891  0.1377 -0.1979
 1326SOL     hw 5303   0.347   6.465   5.461  1.4636 -0.0739 -1.4198
 1326SOL     vw 5304   0.353   6.534   5.514  0.5969 -0.4783 -0.7668
 1327SOL     ow 5305   0.527   2.894   0.553 -0.3242  0.0316  0.9758
 1327SOL     hw 5306   0.553   2.836   0.625  2.5974 -3.0001 -2.1095
 1327SOL     hw 5307   0.493   2.835   0.486  1.0613  2.0561 -1.7013
 1327SOL     vw 5308   0.526   2.878   0.553  0.2441 -0.1012  0.2155
 1328SOL     ow 5309   4.515   3.596   6.996 -0.6507 -0.1581  0.2540
 1328SOL     hw 5310   4.464   3.618   6.918 -0.0637  1.5246  0.2962
 1328SOL     hw 5311   4.455   3.611   7.069  0.0135  2.6299  0.3640
 1328SOL     vw 5312   4.500   3.601   6.995 -0.4857  0.4318  0.2742
 1329SOL     ow 5313   5.269   3.653   2.217 -0.1899  0.1098 -0.8182
 1329SOL     hw 5314   5.343   3.647   2.278  0.8515  2.8920 -1.6518
 1329SOL     hw 5315   5.194   3.619   2.266  1.2160 -0.7433  0.8299
 1329SOL     vw 5316   5.269   3.648   2.231  0.1330  0.3644 -0.7108
 1330SOL     ow 5317   5.190   0.804   0.562  0.2488 -0.1069 -0.3113
 1330SOL     hw 5318   5.202   0.732   0.624  1.0825  0.4444  0.1940
 1330SOL     hw 5319   5.240   0.777   0.485 -0.5724 -0.6742 -0.6616
 1330SOL     vw 5320   5.198   0.791   0.560  0.2506 -0.1090 -0.2908
 1331SOL     ow 5321   4.128   2.122   4.555 -0.6939 -0.1601  0.3280
 1331SOL     hw 5322   4.038   2.148   4.535 -0.6781 -0.1194  0.3104
 1331SOL     hw 5323   4.181   2.166   4.490 -0.7986 -1.4000 -0.6446
 1331SOL     vw 5324   4.123   2.131   4.544 -0.7057 -0.3183  0.1974
 1332SOL     ow 5325   0.169   0.485   4.752 -0.0323  0.2708  0.4435
 1332SOL     hw 5326   0.181   0.392   4.730  1.1678  0.3389  0.7323
 1332SOL     hw 5327   0.208   0.532   4.678  3.2228  0.5018  2.1263
 1332SOL     vw 5328   0.176   0.479   4.739  0.5555  0.3103  0.7038
 1333SOL     ow 5329   1.693   2.792   1.085 -0.0719 -0.1619 -0.1402
 1333SOL     hw 5330   1.703   2.843   1.004 -0.5124  0.6418  0.2926
 1333SOL     hw 5331   1.774   2.806   1.133 -0.6233  1.0979  0.4863
 1333SOL     vw 5332   1.705   2.801   1.080 -0.2028  0.1103 -0.0005
 1334SOL     ow 5333   6.088   5.239   6.389  0.1094 -0.1947 -0.0340
 1334SOL     hw 5334   6.095   5.310   6.452 -0.2965 -0.3224  0.1536
 1334SOL     hw 5335   6.178   5.208   6.379  0.4764  1.0414 -0.9315
 1334SOL     vw 5336   6.101   5.244   6.396  0.1042 -0.0484 -0.1276
 1335SOL     ow 5337   1.203   4.680   4.516 -0.0176  0.3292  0.3417
 1335SOL     hw 5338   1.196   4.651   4.607 -2.1736 -1.4283 -0.2848
 1335SOL     hw 5339   1.195   4.599   4.465 -0.1021  1.4040 -1.4238
 1335SOL     vw 5340   1.201   4.665   4.521 -0.3132  0.2391  0.0262
 1336SOL     ow 5341   2.758   2.172   0.580 -0.0013  0.1409 -0.4517
 1336SOL     hw 5342   2.740   2.266   0.579  0.3293  0.2097 -2.0876
 1336SOL     hw 5343   2.676   2.132   0.550  0.3769  0.0274 -1.3614
 1336SOL     vw 5344   2.745   2.179   0.576  0.0921  0.1349 -0.7875
 1337SOL     ow 5345   3.513   4.220   6.871  0.1672 -0.5367 -0.2294
 1337SOL     hw 5346   3.606   4.197   6.866  0.9281  1.8767  0.9468
 1337SOL     hw 5347   3.487   4.195   6.960  0.3362  0.7807  0.2092
 1337SOL     vw 5348   3.522   4.213   6.882  0.2899 -0.0448 -0.0162
 1338SOL     ow 5349   4.394   2.788   0.674 -0.1605 -0.2327 -0.5259
 1338SOL     hw 5350   4.379   2.846   0.749 -1.4297 -3.0845  1.6581
 1338SOL     hw 5351   4.484   2.758   0.684 -0.3275 -0.6073 -0.1240
 1338SOL     vw 5352   4.404   2.791   0.685 -0.3498 -0.6584 -0.1847
 1339SOL     ow 5353   1.118   6.426   2.627 -0.1692  0.8257  0.5495
 1339SOL     hw 5354   1.162   6.495   2.677 -0.2871  0.6569  0.8885
 1339SOL     hw 5355   1.173   6.414   2.550 -0.4358  1.6781  0.2097
 1339SOL     vw 5356   1.131   6.433   2.624 -0.2199  0.9160  0.5494
 1340SOL     ow 5357   1.455   0.302   0.433  0.7695  0.4193  0.2787
 1340SOL     hw 5358   1.450   0.287   0.528  1.0724  0.9581  0.3855
 1340SOL     hw 5359   1.408   0.228   0.394  0.5791  0.2338  0.8527
 1340SOL     vw 5360   1.448   0.290   0.441  0.7844  0.4659  0.3685
 1341SOL     ow 5361   2.427   1.638   6.846 -0.5486 -0.1335 -0.4372
 1341SOL     hw 5362   2.509   1.681   6.823 -0.6094  0.9697  1.2403
 1341SOL     hw 5363   2.374   1.644   6.767  0.5057  0.3169 -1.1276
 1341SOL     vw 5364   2.431   1.645   6.833 -0.4176  0.0715 -0.3071
 1342SOL     ow 5365   1.784   4.443   4.345  0.3558 -0.1932  0.1943
 1342SOL     hw 5366   1.731   4.458   4.424  1.3003 -0.5427  0.9205
 1342SOL     hw 5367   1.869   4.480   4.367  0.3507  0.5846 -1.0496
 1342SOL     vw 5368   1.788   4.450   4.358  0.4797 -0.1369  0.1261
 1343SOL     ow 5369   2.644   6.264   4.035  0.1303  0.2083  0.2434
 1343SOL     hw 5370   2.644   6.307   3.949 -0.1190  1.4181  0.8245
 1343SOL     hw 5371   2.716   6.202   4.031 -1.7329 -2.0467 -1.9166
 1343SOL     vw 5372   2.653   6.262   4.023 -0.1484  0.0706  0.0353
 1344SOL     ow 5373   0.530   5.368   2.655  0.5572  0.0795 -0.4185
 1344SOL     hw 5374   0.545   5.320   2.736 -3.8657 -1.3289 -0.1629
 1344SOL     hw 5375   0.524   5.460   2.682 -0.7884 -0.3624  0.9371
 1344SOL     vw 5376   0.531   5.374   2.669 -0.2038 -0.1645 -0.2060
 1345SOL     ow 5377   4.873   2.373   5.138  0.1645 -0.2790 -0.3030
 1345SOL     hw 5378   4.875   2.278   5.136 -3.3002 -0.4534 -0.3921
 1345SOL     hw 5379   4.841   2.398   5.051 -1.3233  0.7875  0.5086
 1345SOL     vw 5380   4.869   2.364   5.126 -0.4888 -0.1613 -0.2074
 1346SOL     ow 5381   3.498   5.599   6.692 -0.4749 -0.0067 -0.5073
 1346SOL     hw 5382   3.553   5.603   6.770  1.1367 -2.2577 -1.4181
 1346SOL     hw 5383   3.417   5.558   6.722 -0.6022  0.8178  0.3119
 1346SOL     vw 5384   3.494   5.594   6.706 -0.2789 -0.1948 -0.5195
 1347SOL     ow 5385   1.624   1.647   5.484 -0.1207  0.1149  0.3596
 1347SOL     hw 5386   1.555   1.710   5.506 -0.9892 -1.4707  2.5828
 1347SOL     hw 5387   1.586   1.594   5.414 -0.3962  0.4452  0.2515
 1347SOL     vw 5388   1.610   1.648   5.478 -0.2717 -0.0507  0.6387
 1348SOL     ow 5389   4.934   5.984   1.642  0.2723 -0.4914 -0.5477
 1348SOL     hw 5390   4.853   5.937   1.622  0.3577 -0.6462 -0.5317
 1348SOL     hw 5391   4.906   6.061   1.691  0.1186 -0.4453 -0.7101
 1348SOL     vw 5392   4.920   5.988   1.646  0.2635 -0.5059 -0.5670
 1349SOL     ow 5393   0.453   3.958   3.721 -0.5103  0.2757 -0.3696
 1349SOL     hw 5394   0.392   4.010   3.669 -1.2290  1.0706  1.2077
 1349SOL     hw 5395   0.412   3.953   3.807  0.5959 -1.0954  0.1056
 1349SOL     vw 5396   0.439   3.964   3.725 -0.4592  0.1996 -0.0987
 1350SOL     ow 5397   2.945   1.552   3.969 -0.0466  0.6251 -0.1796
 1350SOL     hw 5398   3.007   1.538   3.897 -0.4986  0.8212 -0.6153
 1350SOL     hw 5399   2.877   1.607   3.931 -2.9869 -3.2400 -1.2168
 1350SOL     vw 5400   2.944   1.557   3.954 -0.4941  0.1410 -0.3740
 1351SOL     ow 5401   5.493   2.402   4.317 -0.5117  0.2317 -0.2265
 1351SOL     hw 5402   5.404   2.418   4.348  0.0386 -0.1913  1.6927
 1351SOL     hw 5403   5.535   2.488   4.322  0.2601 -0.2113  2.7153
 1351SOL     vw 5404   5.487   2.416   4.322 -0.3371  0.1174  0.4148
 1352SOL     ow 5405   0.490   1.075   6.775 -1.3267 -0.1173  0.5660
 1352SOL     hw 5406   0.550   1.150   6.783 -1.2994 -0.0913  0.1318
 1352SOL     hw 5407   0.547   0.998   6.775 -1.3529 -0.1383  0.9854
 1352SOL     vw 5408   0.505   1.075   6.776 -1.3265 -0.1166  0.5639
 1353SOL     ow 5409   2.326   3.950   0.062 -0.1168  0.3160 -0.5448
 1353SOL     hw 5410   2.405   3.914   0.102  0.3789  0.7726 -1.0951
 1353SOL     hw 5411   2.257   3.886   0.081 -0.1335  0.9469  1.8621
 1353SOL     vw 5412   2.327   3.937   0.070 -0.0536  0.4594 -0.2998
 1354SOL     ow 5413   6.725   3.008   6.208 -0.4387 -0.1026  0.4166
 1354SOL     hw 5414   6.786   3.061   6.260  2.4232 -1.5111 -1.2691
 1354SOL     hw 5415   6.710   2.930   6.260 -3.2224  1.3738  2.0855
 1354SOL     vw 5416   6.731   3.005   6.222 -0.4284 -0.0937  0.4144
 1355SOL     ow 5417   4.552   0.981   5.649  0.4834  0.4376 -0.3657
 1355SOL     hw 5418   4.476   0.976   5.707  0.5115 -0.5319 -0.3954
 1355SOL     hw 5419   4.515   0.971   5.561  0.5569  0.7820 -0.4342
 1355SOL     vw 5420   4.537   0.979   5.645  0.4969  0.3552 -0.3786
 1356SOL     ow 5421   4.837   6.352   3.137 -0.6186  0.3557 -0.5883
 1356SOL     hw 5422   4.853   6.270   3.184 -1.5251  0.9174  0.7738
 1356SOL     hw 5423   4.876   6.339   3.051 -0.5967 -1.4350 -0.3359
 1356SOL     vw 5424   4.845   6.339   3.132 -0.7353  0.1936 -0.3753
 1357SOL     ow 5425   2.047   2.010   2.782 -0.8815  0.3453  0.0066
 1357SOL     hw 5426   2.119   2.038   2.726 -1.7023  0.1339 -1.2122
 1357SOL     hw 5427   2.020   2.089   2.828  0.0388  0.4495  0.3928
 1357SOL     vw 5428   2.053   2.024   2.781 -0.8683  0.3312 -0.1032
 1358SOL     ow 5429   4.255   2.077   3.425  0.3244 -0.1794 -0.3852
 1358SOL     hw 5430   4.313   2.056   3.499 -0.1459  2.3242  0.8202
 1358SOL     hw 5431   4.175   2.028   3.443  0.8667 -1.0575 -0.2743
 1358SOL     vw 5432   4.252   2.068   3.437  0.3338  0.0350 -0.2115
 1359SOL     ow 5433   2.068   3.234   3.924 -0.1875  0.2379  0.5821
 1359SOL     hw 5434   2.144   3.208   3.871 -1.7550  0.2983 -1.8714
 1359SOL     hw 5435   2.034   3.152   3.959  0.8823  0.1959  1.5748
 1359SOL     vw 5436   2.074   3.220   3.922 -0.2532  0.2404  0.3893
 1360SOL     ow 5437   2.033   4.613   2.985 -0.5742  0.4603  0.3090
 1360SOL     hw 5438   1.950   4.656   3.007  0.5620  4.0776 -1.6685
 1360SOL     hw 5439   2.024   4.590   2.892 -0.1098 -1.2328  0.6467
 1360SOL     vw 5440   2.021   4.616   2.976 -0.3630  0.7143  0.0926
 1361SOL     ow 5441   4.452   2.102   4.185  0.4680  0.2169 -0.5226
 1361SOL     hw 5442   4.519   2.044   4.220  0.8527  0.0611 -1.4863
 1361SOL     hw 5443   4.392   2.118   4.259 -0.4757 -2.5510 -0.5962
 1361SOL     vw 5444   4.453   2.097   4.199  0.3943 -0.1689 -0.6595
 1362SOL     ow 5445   5.972   1.090   1.748 -0.4134 -0.4929  0.0453
 1362SOL     hw 5446   5.989   1.177   1.713 -1.5797 -0.1705  0.2480
 1362SOL     hw 5447   5.985   1.100   1.843 -0.8267 -0.4685  0.0994
 1362SOL     vw 5448   5.976   1.103   1.756 -0.6213 -0.4472  0.0792
 1363SOL     ow 5449   4.908   0.636   5.260  0.1378  0.4859  0.8060
 1363SOL     hw 5450   4.814   0.651   5.266  0.3987  3.1696 -0.2773
 1363SOL     hw 5451   4.947   0.720   5.285  2.1954 -0.0111 -0.4730
 1363SOL     vw 5452   4.901   0.649   5.264  0.4437  0.7744  0.4947
 1364SOL     ow 5453   2.031   0.364   4.839  0.4604 -0.1218 -0.0264
 1364SOL     hw 5454   2.061   0.452   4.862  2.1508 -0.7996  0.4908
 1364SOL     hw 5455   1.976   0.338   4.913 -0.4121  0.6450 -0.3833
 1364SOL     vw 5456   2.027   0.372   4.852  0.5683 -0.1101 -0.0055
 1365SOL     ow 5457   5.315   2.051   1.186  0.0164  0.0257  0.1678
 1365SOL     hw 5458   5.331   2.050   1.092 -0.3336  1.1825  0.0813
 1365SOL     hw 5459   5.376   2.117   1.220  0.3347 -0.5833  0.7903
 1365SOL     vw 5460   5.325   2.060   1.178  0.0124  0.0979  0.2385
 1366SOL     ow 5461   3.185   4.062   2.940 -0.2853  0.2625  0.2220
 1366SOL     hw 5462   3.121   4.130   2.920  0.0385  0.4149 -0.3313
 1366SOL     hw 5463   3.193   4.013   2.858  0.8845  0.7409  0.0259
 1366SOL     vw 5464   3.178   4.065   2.926 -0.0881  0.3459  0.1230
 1367SOL     ow 5465   4.984   6.949   1.682 -0.4725 -0.4399 -0.2123
 1367SOL     hw 5466   5.059   6.951   1.742  1.4402  1.1449 -2.4604
 1367SOL     hw 5467   5.006   6.883   1.617  0.2481  1.6576 -2.2523
 1367SOL     vw 5468   4.996   6.941   1.682 -0.1252  0.0460 -0.7781
 1368SOL     ow 5469   5.087   3.179   3.390 -0.4324 -1.0127  0.2386
 1368SOL     hw 5470   5.008   3.232   3.381 -1.5014 -2.5464  0.1716
 1368SOL     hw 5471   5.109   3.185   3.483  0.6971  1.1562 -0.0980
 1368SOL     vw 5472   5.080   3.186   3.401 -0.4244 -0.9290  0.1855
 1369SOL     ow 5473   3.348   1.021   0.317  0.1241 -0.6150 -0.7565
 1369SOL     hw 5474   3.426   0.975   0.288  0.4092  0.7632 -2.2600
 1369SOL     hw 5475   3.312   1.062   0.238  0.2338  2.2616  0.5590
 1369SOL     vw 5476   3.353   1.020   0.303  0.1763 -0.0537 -0.7813
 1370SOL     ow 5477   2.071   2.233   1.849 -0.2141  0.6024  0.2829
 1370SOL     hw 5478   2.164   2.244   1.869 -0.3128 -0.0358  1.1391
 1370SOL     hw 5479   2.056   2.289   1.773  0.7471  1.1373  0.4731
 1370SOL     vw 5480   2.081   2.242   1.842 -0.1003  0.5888  0.4209
 1371SOL     ow 5481   2.011   5.045   0.269  0.4964 -0.6995  0.5522
 1371SOL     hw 5482   2.061   4.982   0.321 -0.3325 -2.0099 -0.1718
 1371SOL     hw 5483   1.931   5.059   0.319 -0.2426 -1.8604 -0.2322
 1371SOL     vw 5484   2.007   5.038   0.282  0.2896 -1.0254  0.3532
 1372SOL     ow 5485   2.698   0.357   5.407 -0.0685  0.2006  0.3730
 1372SOL     hw 5486   2.780   0.382   5.364 -0.2507  0.1063 -0.0330
 1372SOL     hw 5487   2.659   0.441   5.433  0.2588  0.2346  0.7586
 1372SOL     vw 5488   2.704   0.372   5.404 -0.0494  0.1927  0.3703
 1373SOL     ow 5489   1.721   1.968   4.994 -0.1872 -0.0665  0.6607
 1373SOL     hw 5490   1.782   2.042   4.991 -0.3108  0.0157  0.0988
 1373SOL     hw 5491   1.668   1.977   4.915  0.7618 -1.5806 -0.1985
 1373SOL     vw 5492   1.722   1.979   4.983 -0.0784 -0.2553  0.4730
 1374SOL     ow 5493   5.678   1.385   6.754  0.0107 -0.4054 -0.0176
 1374SOL     hw 5494   5.749   1.448   6.770 -0.0944  0.8175 -3.4264
 1374SOL     hw 5495   5.622   1.391   6.831  1.5805  1.4901  1.0610
 1374SOL     vw 5496   5.680   1.394   6.766  0.2038  0.0061 -0.3250
 1375SOL     ow 5497   4.884   6.308   2.836 -0.5501 -0.4468 -0.0605
 1375SOL     hw 5498   4.793   6.335   2.821 -0.5819  0.0515  0.9535
 1375SOL     hw 5499   4.935   6.366   2.780 -0.8012 -0.1829 -0.0176
 1375SOL     vw 5500   4.879   6.319   2.827 -0.5875 -0.3462  0.0790
 1376SOL     ow 5501   5.050   0.131   5.808 -0.2103  0.6751  0.2011
 1376SOL     hw 5502   5.090   0.075   5.875  0.0768  0.8497  0.1772
 1376SOL     hw 5503   4.987   0.185   5.855 -0.3790  0.4379  0.2482
 1376SOL     vw 5504   5.047   0.131   5.823 -0.1945  0.6668  0.2041
 1377SOL     ow 5505   3.533   4.834   0.630  0.3736 -1.0165  0.4173
 1377SOL     hw 5506   3.572   4.859   0.713 -0.4718  0.4184  0.4239
 1377SOL     hw 5507   3.608   4.821   0.571  0.9310  0.0940  0.8473
 1377SOL     vw 5508   3.548   4.836   0.633  0.3356 -0.6807  0.4749
 1378SOL     ow 5509   4.021   3.186   3.867  0.0188  0.0803  0.4070
 1378SOL     hw 5510   4.100   3.233   3.838  1.1834 -2.0081 -0.0137
 1378SOL     hw 5511   4.049   3.139   3.945 -0.9616 -0.3418  0.5149
 1378SOL     vw 5512   4.035   3.186   3.874  0.0429 -0.2512  0.3659
 1379SOL     ow 5513   0.644   0.068   4.540  0.2448 -0.1955  0.8075
 1379SOL     hw 5514   0.549   0.053   4.546 -0.1518  1.3124 -0.8115
 1379SOL     hw 5515   0.667   0.035   4.453  1.4689 -1.5574  1.6032
 1379SOL     vw 5516   0.634   0.061   4.529  0.3540 -0.1763  0.6988
 1380SOL     ow 5517   0.896   0.992   6.250  0.0976  0.3519  0.2350
 1380SOL     hw 5518   0.810   0.960   6.277  0.2143 -0.5327 -0.3991
 1380SOL     hw 5519   0.897   0.982   6.155  0.6717  0.9577  0.1678
 1380SOL     vw 5520   0.885   0.987   6.241  0.1887  0.3151  0.1426
 1381SOL     ow 5521   6.111   0.895   0.475  0.7816  0.5155 -0.0831
 1381SOL     hw 5522   6.113   0.817   0.420  1.5354  0.1432  0.4641
 1381SOL     hw 5523   6.147   0.964   0.419  1.3093  0.1928 -0.1531
 1381SOL     vw 5524   6.116   0.894   0.460  0.9508  0.4238 -0.0201
 1382SOL     ow 5525   4.309   0.555   4.061  0.1411  0.1451  0.1287
 1382SOL     hw 5526   4.388   0.596   4.094  2.2061 -1.4100 -2.5094
 1382SOL     hw 5527   4.248   0.556   4.135  2.1723  2.4147  1.9069
 1382SOL     vw 5528   4.311   0.560   4.075  0.6816  0.2394  0.0150
 1383SOL     ow 5529   2.580   4.311   1.367  0.4902  0.5325  0.8320
 1383SOL     hw 5530   2.513   4.380   1.361 -1.3212 -1.2399 -0.8612
 1383SOL     hw 5531   2.556   4.261   1.445  0.5296  0.5812  0.8751
 1383SOL     vw 5532   2.568   4.314   1.377  0.2564  0.3052  0.6143
 1384SOL     ow 5533   6.049   5.541   3.230  0.4542  0.3211  0.7644
 1384SOL     hw 5534   6.041   5.463   3.175  2.3239  0.9794 -0.5487
 1384SOL     hw 5535   6.038   5.614   3.169  1.3819  1.0644  1.4616
 1384SOL     vw 5536   6.047   5.540   3.214  0.8237  0.5057  0.6832
 1385SOL     ow 5537   5.136   3.929   0.564 -0.0342  0.4201 -0.4069
 1385SOL     hw 5538   5.173   3.986   0.497  0.2962 -0.2012 -0.7650
 1385SOL     hw 5539   5.062   3.886   0.521  0.0741  0.1482 -0.3235
 1385SOL     vw 5540   5.131   3.931   0.549  0.0238  0.3022 -0.4432
 1386SOL     ow 5541   3.830   5.704   5.372 -0.3721  0.1553 -0.0816
 1386SOL     hw 5542   3.779   5.761   5.429  0.1691 -0.4558  1.0502
 1386SOL     hw 5543   3.921   5.728   5.389 -0.1892  2.6180 -3.5218
 1386SOL     vw 5544   3.835   5.715   5.382 -0.2764  0.3996 -0.3862
 1387SOL     ow 5545   5.461   2.140   4.243 -0.1608 -0.0973 -0.1391
 1387SOL     hw 5546   5.486   2.078   4.311  3.1055  0.7780 -0.4006
 1387SOL     hw 5547   5.406   2.090   4.183 -0.1242 -1.8564  1.2276
 1387SOL     vw 5548   5.457   2.125   4.244  0.2751 -0.2139  0.0069
 1388SOL     ow 5549   3.578   3.715   0.847 -0.7589  0.4957 -0.4328
 1388SOL     hw 5550   3.542   3.652   0.784  0.4312 -1.4787  0.7530
 1388SOL     hw 5551   3.598   3.662   0.924 -2.0378  2.7786  1.6144
 1388SOL     vw 5552   3.576   3.700   0.849 -0.7707  0.5363 -0.0062
 1389SOL     ow 5553   6.619   0.133   3.951 -0.0850  0.5406 -0.0069
 1389SOL     hw 5554   6.572   0.202   3.998 -0.7817 -0.8931  1.5411
 1389SOL     hw 5555   6.577   0.052   3.980  1.7994 -0.6498 -0.4275
 1389SOL     vw 5556   6.608   0.132   3.961  0.0718  0.1944  0.1420
 1390SOL     ow 5557   3.277   4.076   3.622  0.5047  0.4718 -0.1722
 1390SOL     hw 5558   3.349   4.111   3.570 -0.0924  0.9768 -0.6774
 1390SOL     hw 5559   3.234   4.154   3.658 -0.5821  0.2605 -0.9583
 1390SOL     vw 5560   3.281   4.091   3.620  0.2824  0.5105 -0.3426
 1391SOL     ow 5561   0.151   4.796   1.186 -0.0198  0.3334  0.5199
 1391SOL     hw 5562   0.080   4.769   1.127 -0.9958 -1.3595  2.3670
 1391SOL     hw 5563   0.124   4.764   1.272  2.8710 -0.0975  1.3521
 1391SOL     vw 5564   0.138   4.788   1.189  0.2329  0.0529  0.8733
 1392SOL     ow 5565   1.935   0.380   0.201  0.1297 -0.4242  0.1928
 1392SOL     hw 5566   1.938   0.472   0.228 -1.0446 -0.4476  0.4719
 1392SOL     hw 5567   1.997   0.374   0.128  1.8783  0.0924  1.5628
 1392SOL     vw 5568   1.944   0.392   0.195  0.2055 -0.3591  0.4104
 1393SOL     ow 5569   2.938   0.470   2.094 -0.0241  0.2915  0.1139
 1393SOL     hw 5570   2.883   0.426   2.029 -0.7680  0.4182  0.6521
 1393SOL     hw 5571   3.014   0.499   2.044 -0.6921  0.5912 -0.7542
 1393SOL     vw 5572   2.941   0.468   2.079 -0.2104  0.3478  0.0705
 1394SOL     ow 5573   2.352   6.737   0.474 -1.4081  0.7724 -0.2152
 1394SOL     hw 5574   2.367   6.816   0.423 -2.0879  1.2791  0.3506
 1394SOL     hw 5575   2.269   6.752   0.520 -0.4800  0.6579  1.5991
 1394SOL     vw 5576   2.343   6.749   0.473 -1.3754  0.8245  0.0988
 1395SOL     ow 5577   6.183   2.423   3.065  0.5200 -0.3296 -0.3093
 1395SOL     hw 5578   6.120   2.354   3.047  1.3156 -1.0726 -0.3289
 1395SOL     hw 5579   6.224   2.441   2.981 -1.4171  1.9839 -0.8465
 1395SOL     vw 5580   6.180   2.416   3.052  0.3695 -0.1224 -0.3829
 1396SOL     ow 5581   0.890   4.605   3.233 -0.1135 -0.0399  0.0857
 1396SOL     hw 5582   0.811   4.615   3.180 -1.0008 -2.4803  0.8130
 1396SOL     hw 5583   0.865   4.640   3.319  0.2522  0.9032 -0.1761
 1396SOL     vw 5584   0.876   4.611   3.238 -0.1823 -0.2372  0.1471
 1397SOL     ow 5585   6.527   2.575   5.592  0.1619 -1.1971 -0.0309
 1397SOL     hw 5586   6.492   2.547   5.676 -4.3821  2.2411 -0.4240
 1397SOL     hw 5587   6.586   2.647   5.614  0.1390 -1.2607  0.2432
 1397SOL     vw 5588   6.530   2.581   5.606 -0.4408 -0.7520 -0.0465
 1398SOL     ow 5589   3.489   2.964   4.296  0.3752 -0.1316  0.0407
 1398SOL     hw 5590   3.464   2.909   4.222  0.7663 -0.7780  0.3810
 1398SOL     hw 5591   3.544   3.033   4.258 -1.9468  1.3936 -0.7451
 1398SOL     vw 5592   3.493   2.966   4.281  0.1205 -0.0156 -0.0181
 1399SOL     ow 5593   2.684   1.970   3.195 -0.1467 -0.6520  0.3862
 1399SOL     hw 5594   2.704   1.977   3.288  0.7062 -1.1296  0.2455
 1399SOL     hw 5595   2.660   1.878   3.183  0.9597 -0.8951 -0.0847
 1399SOL     vw 5596   2.683   1.959   3.206  0.1118 -0.7471  0.3057
 1400SOL     ow 5597   4.755   0.177   0.750  0.0270 -0.0265 -0.0101
 1400SOL     hw 5598   4.726   0.153   0.662  0.5560 -1.4239  0.1721
 1400SOL     hw 5599   4.824   0.114   0.771  1.6570  1.8182  0.4596
 1400SOL     vw 5600   4.760   0.165   0.741  0.3119  0.0325  0.0759
 1401SOL     ow 5601   0.017   4.179   3.664 -0.0226  0.0750  0.4424
 1401SOL     hw 5602   0.019   4.262   3.615  0.0398  0.7141  1.4985
 1401SOL     hw 5603   0.094   4.183   3.720 -0.0687 -0.6724  0.5604
 1401SOL     vw 5604   0.027   4.191   3.665 -0.0205  0.0610  0.5971
 1402SOL     ow 5605   5.291   3.745   3.888 -0.3041  0.5363 -0.2158
 1402SOL     hw 5606   5.207   3.758   3.931  0.5961  1.4689  1.3488
 1402SOL     hw 5607   5.318   3.657   3.913 -0.1924  0.7482  0.4069
 1402SOL     vw 5608   5.284   3.735   3.897 -0.1705  0.6872  0.0727
 1403SOL     ow 5609   2.215   0.709   0.593 -1.0127  0.3286  0.0305
 1403SOL     hw 5610   2.227   0.729   0.686 -1.8409  2.1403 -0.2013
 1403SOL     hw 5611   2.175   0.622   0.592  0.2647 -0.3187  1.2834
 1403SOL     vw 5612   2.212   0.700   0.605 -0.9533  0.4822  0.1652
 1404SOL     ow 5613   6.214   6.758   4.619  0.2943  0.1475 -0.5636
 1404SOL     hw 5614   6.276   6.713   4.562 -1.1538  1.1894 -3.0933
 1404SOL     hw 5615   6.261   6.835   4.651  0.9548 -0.1791 -0.7362
 1404SOL     vw 5616   6.228   6.762   4.616  0.1903  0.2418 -0.9201
 1405SOL     ow 5617   4.327   0.330   2.402  0.3135 -0.0158 -0.0801
 1405SOL     hw 5618   4.268   0.405   2.391 -1.4308 -1.3879 -0.5720
 1405SOL     hw 5619   4.379   0.329   2.321 -0.8768 -0.3276 -0.8668
 1405SOL     vw 5620   4.326   0.340   2.390 -0.0734 -0.2379 -0.2488
 1406SOL     ow 5621   1.225   4.374   1.658  0.1810  0.6054 -0.8727
 1406SOL     hw 5622   1.293   4.441   1.660 -0.3869  1.3290 -2.9143
 1406SOL     hw 5623   1.181   4.387   1.574 -0.5768 -1.7266 -0.9249
 1406SOL     vw 5624   1.228   4.384   1.647  0.0061  0.3932 -1.1490
 1407SOL     ow 5625   2.330   4.992   6.398  0.3273  0.0081 -0.6542
 1407SOL     hw 5626   2.278   5.002   6.319 -0.1775 -1.6265 -0.5652
 1407SOL     hw 5627   2.345   5.081   6.429 -0.3437  0.6123 -2.0171
 1407SOL     vw 5628   2.325   5.005   6.392  0.1723 -0.1278 -0.8221
 1408SOL     ow 5629   6.516   2.863   4.039  0.2549  0.3923  0.3964
 1408SOL     hw 5630   6.432   2.875   4.082 -1.6285  1.1657 -3.1035
 1408SOL     hw 5631   6.543   2.774   4.062 -2.5874 -0.6606  0.0857
 1408SOL     vw 5632   6.508   2.853   4.047 -0.3688  0.3555 -0.1066
 1409SOL     ow 5633   2.539   3.584   6.273 -0.2597  0.0988  0.4418
 1409SOL     hw 5634   2.525   3.572   6.367  0.1239 -1.7656  0.3038
 1409SOL     hw 5635   2.632   3.606   6.265 -0.6107  1.7653  0.5733
 1409SOL     vw 5636   2.550   3.585   6.284 -0.2553  0.0727  0.4408
 1410SOL     ow 5637   6.435   3.940   4.211  0.1335  0.4355 -0.2800
 1410SOL     hw 5638   6.382   3.926   4.289  0.3369 -0.0737 -0.2237
 1410SOL     hw 5639   6.474   3.854   4.193  0.3831  0.6346 -0.7236
 1410SOL     vw 5640   6.433   3.926   4.219  0.1934  0.3945 -0.3312
 1411SOL     ow 5641   4.881   0.118   1.646  0.1083  0.0424 -0.2146
 1411SOL     hw 5642   4.925   0.035   1.665  0.7655  0.6967  1.3269
 1411SOL     hw 5643   4.948   0.170   1.600 -0.2311 -0.2019 -0.9893
 1411SOL     vw 5644   4.896   0.114   1.642  0.1502  0.0965 -0.1134
 1412SOL     ow 5645   0.422   0.146   4.212  0.2786  0.4440 -0.4650
 1412SOL     hw 5646   0.466   0.211   4.267  0.9414  0.1037 -0.5785
 1412SOL     hw 5647   0.461   0.063   4.239  0.6816  0.2805 -1.4988
 1412SOL     vw 5648   0.433   0.144   4.223  0.4193  0.3776 -0.6163
 1413SOL     ow 5649   3.746   0.006   2.527 -0.7853 -0.2206  0.2112
 1413SOL     hw 5650   3.731   0.031   2.618 -2.2266  0.2815 -0.1418
 1413SOL     hw 5651   3.816   0.064   2.497 -0.7369  0.0374  0.8186
 1413SOL     vw 5652   3.753   0.017   2.535 -0.9692 -0.1202  0.2449
 1414SOL     ow 5653   3.571   2.842   2.818 -0.3357 -0.1149  0.0237
 1414SOL     hw 5654   3.483   2.873   2.838  0.2271  2.0830 -0.5631
 1414SOL     hw 5655   3.569   2.748   2.837 -2.9458 -0.2489 -0.5667
 1414SOL     vw 5656   3.559   2.834   2.823 -0.6058  0.1574 -0.1315
 1415SOL     ow 5657   2.094   6.565   1.721  0.3528 -0.5806  0.2911
 1415SOL     hw 5658   2.172   6.518   1.692 -0.6842 -0.7601 -2.6028
 1415SOL     hw 5659   2.121   6.656   1.726  0.5786 -0.4951 -1.7000
 1415SOL     vw 5660   2.108   6.571   1.718  0.2458 -0.5932 -0.3533
 1416SOL     ow 5661   5.714   3.398   2.920 -0.1784 -0.1156  0.0345
 1416SOL     hw 5662   5.737   3.419   2.830  0.4485 -1.8162 -0.2313
 1416SOL     hw 5663   5.717   3.302   2.925 -0.0903 -0.0641  1.8888
 1416SOL     vw 5664   5.717   3.388   2.909 -0.0839 -0.3332  0.2441
 1417SOL     ow 5665   4.931   2.481   2.330  0.0868  0.1592 -1.0831
 1417SOL     hw 5666   4.885   2.535   2.266  0.2876 -0.4768 -1.7785
 1417SOL     hw 5667   4.870   2.410   2.350 -0.2817  0.7656  0.0272
 1417SOL     vw 5668   4.917   2.478   2.324  0.0646  0.1553 -1.0283
 1418SOL     ow 5669   4.489   4.550   6.580 -0.0017 -0.0365 -0.2229
 1418SOL     hw 5670   4.407   4.567   6.626 -0.6718 -0.0844 -1.3439
 1418SOL     hw 5671   4.557   4.573   6.642 -0.8625 -0.3788  0.8767
 1418SOL     vw 5672   4.487   4.556   6.594 -0.2034 -0.0882 -0.2255
 1419SOL     ow 5673   4.613   6.718   4.450  0.1695  0.4283 -0.1252
 1419SOL     hw 5674   4.570   6.633   4.440 -1.2981  1.4317 -4.0354
 1419SOL     hw 5675   4.697   6.707   4.405  0.2340  0.9073 -0.1196
 1419SOL     vw 5676   4.619   6.705   4.443 -0.0157  0.6237 -0.6402
 1420SOL     ow 5677   5.559   4.024   3.754 -0.3824  0.1591 -0.2189
 1420SOL     hw 5678   5.543   4.079   3.678 -0.0175  0.1798 -0.2794
 1420SOL     hw 5679   5.621   3.958   3.724 -0.3595  0.0714  0.0180
 1420SOL     vw 5680   5.565   4.023   3.740 -0.3312  0.1502 -0.1956
 1421SOL     ow 5681   1.237   4.184   1.422  0.0297 -0.0375  0.4027
 1421SOL     hw 5682   1.256   4.253   1.359  2.4404 -1.4302 -0.5501
 1421SOL     hw 5683   1.199   4.113   1.370 -1.4714  0.1525  1.1922
 1421SOL     vw 5684   1.234   4.184   1.407  0.1497 -0.1962  0.3812
 1422SOL     ow 5685   1.743   2.622   5.748  0.3750  0.6037  0.2326
 1422SOL     hw 5686   1.697   2.651   5.669 -1.2564 -1.8508  0.1662
 1422SOL     hw 5687   1.696   2.663   5.820 -1.7346 -1.3905  0.1265
 1422SOL     vw 5688   1.731   2.631   5.747 -0.1186  0.0167  0.2098
 1423SOL     ow 5689   1.730   6.482   3.301  1.0899 -0.0408  0.0378
 1423SOL     hw 5690   1.699   6.478   3.210  0.0668  0.2051  0.3759
 1423SOL     hw 5691   1.826   6.478   3.293  0.9932 -0.6002 -1.0192
 1423SOL     vw 5692   1.739   6.481   3.288  0.9421 -0.0823 -0.0570
 1424SOL     ow 5693   7.063   0.260   0.656  0.5593  0.2071  0.1906
 1424SOL     hw 5694   7.068   0.354   0.639 -0.5717 -0.0443 -1.9439
 1424SOL     hw 5695   7.106   0.248   0.740 -1.1735  2.9368  1.6046
 1424SOL     vw 5696   7.069   0.270   0.665  0.1815  0.5341  0.0955
 1425SOL     ow 5697   3.878   5.176   4.996 -0.1499 -0.2727 -0.5940
 1425SOL     hw 5698   3.793   5.220   4.987 -0.8229 -1.1164  1.0989
 1425SOL     hw 5699   3.866   5.091   4.955 -1.1098 -1.5206  2.0562
 1425SOL     vw 5700   3.865   5.171   4.990 -0.3654 -0.5486 -0.0210
 1426SOL     ow 5701   1.191   1.875   3.873  1.1524 -0.3032 -0.1879
 1426SOL     hw 5702   1.226   1.858   3.960  1.5113 -0.8360 -0.4299
 1426SOL     hw 5703   1.248   1.826   3.814 -0.7103 -2.2835 -0.5001
 1426SOL     vw 5704   1.203   1.866   3.877  0.9539 -0.6347 -0.2611
 1427SOL     ow 5705   4.336   5.729   2.201 -0.3983 -0.3300 -0.5473
 1427SOL     hw 5706   4.354   5.812   2.245 -0.8103 -0.5282  0.0017
 1427SOL     hw 5707   4.362   5.662   2.265 -0.9009 -0.6183 -0.6402
 1427SOL     vw 5708   4.342   5.731   2.216 -0.5188 -0.3941 -0.4872
 1428SOL     ow 5709   6.235   4.611   0.853 -0.8270  0.1091  0.5894
 1428SOL     hw 5710   6.185   4.662   0.789  0.9034  0.3029 -0.6883
 1428SOL     hw 5711   6.281   4.546   0.801 -0.2760 -0.4916  1.7906
 1428SOL     vw 5712   6.234   4.609   0.838 -0.5260  0.0553  0.5793
 1429SOL     ow 5713   2.224   4.899   3.363  0.2230  0.3462 -0.3838
 1429SOL     hw 5714   2.136   4.888   3.398  0.6774 -1.0042  0.4272
 1429SOL     hw 5715   2.280   4.850   3.423  1.4301  0.5282 -1.3116
 1429SOL     vw 5716   2.220   4.891   3.375  0.4423  0.1922 -0.3992
 1430SOL     ow 5717   4.373   1.003   5.841  0.4343  0.2938  0.1128
 1430SOL     hw 5718   4.430   1.032   5.913  0.9127 -0.6325  0.1154
 1430SOL     hw 5719   4.324   0.930   5.878  1.7238 -1.1543 -0.9079
 1430SOL     vw 5720   4.374   0.998   5.856  0.6678 -0.0194 -0.0217
 1431SOL     ow 5721   3.956   5.030   5.748  1.2728  0.2490 -0.1294
 1431SOL     hw 5722   3.999   4.952   5.713  0.6709 -0.2046  0.1264
 1431SOL     hw 5723   3.863   5.019   5.725  1.2410  1.0865 -0.4459
 1431SOL     vw 5724   3.949   5.018   5.740  1.1892  0.2997 -0.1376
 1432SOL     ow 5725   3.889   6.025   6.438  0.6391  0.6248 -0.2315
 1432SOL     hw 5726   3.820   6.057   6.380  0.1902 -1.6867 -1.0874
 1432SOL     hw 5727   3.853   6.035   6.526 -0.7997 -0.4495 -0.6631
 1432SOL     vw 5728   3.875   6.030   6.442  0.3901  0.1781 -0.4010
 1433SOL     ow 5729   5.010   0.388   0.636  0.6998  0.1984  0.3003
 1433SOL     hw 5730   5.009   0.383   0.540 -2.5365  0.3857  0.2272
 1433SOL     hw 5731   5.051   0.305   0.663  1.4251  0.0200 -1.2108
 1433SOL     vw 5732   5.015   0.376   0.627  0.3686  0.1995  0.0913
 1434SOL     ow 5733   5.638   6.623   3.363 -0.7005 -0.2718  0.8648
 1434SOL     hw 5734   5.629   6.715   3.338  0.0974  0.1151  1.9207
 1434SOL     hw 5735   5.571   6.578   3.312 -0.3580  0.7245 -0.5222
 1434SOL     vw 5736   5.628   6.629   3.353 -0.5500 -0.0892  0.8209
 1435SOL     ow 5737   6.602   2.016   2.705  0.3385 -0.5349 -0.0041
 1435SOL     hw 5738   6.649   1.933   2.713 -1.4213 -1.8905 -2.3431
 1435SOL     hw 5739   6.533   2.011   2.771  1.2214 -0.1637  0.9675
 1435SOL     vw 5740   6.599   2.004   2.715  0.2229 -0.6647 -0.1845
 1436SOL     ow 5741   2.700   4.824   3.696  0.0245  0.2784  0.1438
 1436SOL     hw 5742   2.700   4.859   3.785  1.3657  0.0437  0.2473
 1436SOL     hw 5743   2.723   4.732   3.706  0.9041  0.4108 -0.4950
 1436SOL     vw 5744   2.703   4.816   3.709  0.3175  0.2651  0.0731
 1437SOL     ow 5745   0.496   3.693   5.144  0.4361  0.8869  0.1792
 1437SOL     hw 5746   0.468   3.754   5.211  2.9441  2.6602 -0.2186
 1437SOL     hw 5747   0.553   3.631   5.189  1.0514  1.2791 -0.0314
 1437SOL     vw 5748   0.500   3.693   5.159  0.8482  1.1728  0.0989
 1438SOL     ow 5749   5.376   6.432   6.593 -0.2870  0.2021 -0.2896
 1438SOL     hw 5750   5.369   6.341   6.619  2.6262 -0.0619 -0.1602
 1438SOL     hw 5751   5.343   6.482   6.668  0.1151 -0.6922  0.4921
 1438SOL     vw 5752   5.370   6.427   6.606  0.1504  0.0496 -0.1695
 1439SOL     ow 5753   6.284   6.092   0.293  0.2171  0.4981 -0.9538
 1439SOL     hw 5754   6.311   6.003   0.269  0.2389  0.3589 -0.4284
 1439SOL     hw 5755   6.314   6.102   0.383  0.6968  1.2449 -1.1956
 1439SOL     vw 5756   6.291   6.081   0.302  0.2835  0.5782 -0.9164
 1440SOL     ow 5757   0.945   1.320   6.966 -0.6658 -0.3440  0.3140
 1440SOL     hw 5758   0.977   1.319   6.876  0.5986 -0.2816  0.7459
 1440SOL     hw 5759   0.908   1.408   6.978 -0.7132 -0.3081 -0.0936
 1440SOL     vw 5760   0.944   1.332   6.956 -0.5052 -0.3310  0.3173
 1441SOL     ow 5761   6.942   1.201   0.081 -0.7317  0.4328  0.1835
 1441SOL     hw 5762   6.952   1.145   0.004 -0.0209  1.0712 -0.2099
 1441SOL     hw 5763   6.953   1.142   0.156 -0.3468 -0.0201 -0.2225
 1441SOL     vw 5764   6.945   1.186   0.081 -0.5875  0.4573  0.0780
 1442SOL     ow 5765   0.200   0.943   0.538 -0.0939 -0.6666  0.5071
 1442SOL     hw 5766   0.199   0.918   0.630 -0.7032 -0.2784  0.6137
 1442SOL     hw 5767   0.112   0.921   0.505  0.4783 -1.8543 -0.2776
 1442SOL     vw 5768   0.188   0.937   0.546 -0.0988 -0.7721  0.4176
 1443SOL     ow 5769   4.313   0.122   5.792 -0.4431 -0.8440 -0.3559
 1443SOL     hw 5770   4.292   0.093   5.881  1.2165  0.5647  0.5667
 1443SOL     hw 5771   4.299   0.217   5.794  0.5532 -0.6578 -1.2979
 1443SOL     vw 5772   4.309   0.131   5.804 -0.0930 -0.6336 -0.3583
 1444SOL     ow 5773   0.173   0.638   6.593  0.1231  0.3023 -0.4695
 1444SOL     hw 5774   0.218   0.688   6.661  1.5937  2.0252 -2.5468
 1444SOL     hw 5775   0.131   0.705   6.538 -1.1796 -1.0276 -1.1772
 1444SOL     vw 5776   0.173   0.653   6.595  0.1452  0.3541 -0.8368
 1445SOL     ow 5777   3.698   1.172   4.815  0.1439 -1.1722 -0.2091
 1445SOL     hw 5778   3.735   1.116   4.747 -2.2889 -3.1297 -0.0650
 1445SOL     hw 5779   3.626   1.217   4.771 -2.7415 -3.9160  1.3032
 1445SOL     vw 5780   3.693   1.170   4.800 -0.5577 -1.7924  0.0095
 1446SOL     ow 5781   2.624   3.417   6.950 -0.3932 -0.3698 -0.2766
 1446SOL     hw 5782   2.674   3.366   6.886  1.0661  1.6380 -0.8371
 1446SOL     hw 5783   2.561   3.466   6.897 -0.5231 -0.1994  0.0374
 1446SOL     vw 5784   2.623   3.416   6.934 -0.2179 -0.0824 -0.3092
 1447SOL     ow 5785   3.146   4.041   5.865 -0.4176  0.2333  0.2706
 1447SOL     hw 5786   3.219   4.034   5.927 -1.6636  2.5734  2.1803
 1447SOL     hw 5787   3.085   3.973   5.892  0.3793 -0.8108 -0.4507
 1447SOL     vw 5788   3.148   4.032   5.876 -0.4768  0.4044  0.4275
 1448SOL     ow 5789   1.447   0.630   6.197 -0.3093 -0.4703  0.2566
 1448SOL     hw 5790   1.498   0.690   6.143 -0.3315  1.2387  2.0399
 1448SOL     hw 5791   1.364   0.621   6.150 -0.2728  0.8305 -0.1000
 1448SOL     vw 5792   1.443   0.637   6.183 -0.3074 -0.0732  0.4447
 1449SOL     ow 5793   4.013   0.560   3.856 -0.6878  0.8873  0.1568
 1449SOL     hw 5794   4.094   0.611   3.865 -1.7137  2.5563  0.2739
 1449SOL     hw 5795   3.983   0.546   3.946  0.1938 -1.0228  0.2055
 1449SOL     vw 5796   4.020   0.564   3.869 -0.7069  0.8554  0.1787
 1450SOL     ow 5797   6.024   2.589   3.567 -1.1121  0.5623 -0.5474
 1450SOL     hw 5798   5.935   2.605   3.536 -0.8025  3.8262 -0.1578
 1450SOL     hw 5799   6.026   2.626   3.655  0.8109  1.3520 -0.8676
 1450SOL     vw 5800   6.013   2.596   3.574 -0.8175  1.0972 -0.5382
 1451SOL     ow 5801   2.095   3.806   0.815  0.6396 -0.7298  0.0607
 1451SOL     hw 5802   2.069   3.719   0.783  0.4215 -0.4693 -0.4702
 1451SOL     hw 5803   2.188   3.812   0.795  1.1642 -1.6889  2.0179
 1451SOL     vw 5804   2.104   3.795   0.808  0.6800 -0.8219  0.2489
 1452SOL     ow 5805   1.166   3.041   2.432 -0.8639  0.4845 -0.2110
 1452SOL     hw 5806   1.152   3.019   2.524 -0.5136  2.0009  0.2478
 1452SOL     hw 5807   1.108   3.116   2.417 -1.1847  0.0251 -1.3352
 1452SOL     vw 5808   1.156   3.048   2.442 -0.8600  0.6239 -0.2987
 1453SOL     ow 5809   1.833   5.438   1.391 -0.2981 -0.0404  0.3670
 1453SOL     hw 5810   1.787   5.505   1.440 -0.4263 -0.0391  0.2468
 1453SOL     hw 5811   1.924   5.445   1.419 -0.4199 -0.2268  0.8116
 1453SOL     vw 5812   1.839   5.448   1.401 -0.3311 -0.0646  0.4098
 1454SOL     ow 5813   2.379   4.633   1.917  0.0619  0.3911  0.5124
 1454SOL     hw 5814   2.312   4.567   1.899  1.6559 -0.9344 -0.8954
 1454SOL     hw 5815   2.335   4.716   1.902 -1.0738 -0.4610 -1.1581
 1454SOL     vw 5816   2.364   4.635   1.913  0.1224  0.1040  0.1062
 1455SOL     ow 5817   4.896   2.958   5.462 -0.1650 -0.2925 -0.0333
 1455SOL     hw 5818   4.865   2.890   5.522  1.2702 -1.2941 -0.3479
 1455SOL     hw 5819   4.873   3.040   5.504 -1.4661 -0.9537  0.6359
 1455SOL     vw 5820   4.889   2.960   5.475 -0.1473 -0.5119  0.0131
 1456SOL     ow 5821   6.297   1.406   0.814  0.6260 -0.2628  0.3042
 1456SOL     hw 5822   6.302   1.448   0.728  0.4077 -0.4886  0.1784
 1456SOL     hw 5823   6.374   1.349   0.818  0.2735 -0.7737 -0.0273
 1456SOL     vw 5824   6.308   1.404   0.803  0.5510 -0.3600  0.2439
 1457SOL     ow 5825   1.207   4.231   3.515  0.0271  0.2902 -0.0259
 1457SOL     hw 5826   1.294   4.268   3.526 -0.0293  0.5321 -0.3613
 1457SOL     hw 5827   1.217   4.137   3.533  0.4986  0.1980 -0.7557
 1457SOL     vw 5828   1.220   4.223   3.519  0.0818  0.3102 -0.1664
 1458SOL     ow 5829   6.530   6.019   6.397  0.1557  0.4241 -0.4655
 1458SOL     hw 5830   6.624   6.035   6.392  0.1398  0.1555 -2.5596
 1458SOL     hw 5831   6.521   5.924   6.404  0.0362  0.5574  2.2097
 1458SOL     vw 5832   6.541   6.008   6.397  0.1378  0.4063 -0.3889
 1459SOL     ow 5833   4.090   6.082   3.574  0.2571  0.6933 -0.0599
 1459SOL     hw 5834   4.097   6.133   3.493 -0.4663 -1.1872 -1.3898
 1459SOL     hw 5835   4.177   6.046   3.588  0.3652  0.9571 -0.0559
 1459SOL     vw 5836   4.102   6.084   3.565  0.1760  0.4799 -0.2347
 1460SOL     ow 5837   0.974   1.360   5.686  0.2160 -0.1043  0.2413
 1460SOL     hw 5838   1.057   1.314   5.673 -0.0996 -0.4970 -0.3878
 1460SOL     hw 5839   0.983   1.400   5.773  0.8729 -0.5410  0.3827
 1460SOL     vw 5840   0.986   1.359   5.696  0.2610 -0.2137  0.1769
 1461SOL     ow 5841   5.048   1.398   5.328 -0.2186 -0.5400 -0.0358
 1461SOL     hw 5842   5.026   1.469   5.267  1.9892  0.0309 -0.2668
 1461SOL     hw 5843   5.043   1.438   5.414  0.0279 -0.3633 -0.1002
 1461SOL     vw 5844   5.045   1.412   5.331  0.1054 -0.4414 -0.0749
 1462SOL     ow 5845   5.964   1.750   6.017  0.1025 -0.4863  0.2378
 1462SOL     hw 5846   6.008   1.748   6.102  2.4214  1.5780 -0.8001
 1462SOL     hw 5847   5.980   1.663   5.981 -0.2358 -1.1262  1.5499
 1462SOL     vw 5848   5.972   1.738   6.024  0.3638 -0.2984  0.2742
 1463SOL     ow 5849   4.798   5.059   2.224 -0.3368 -0.0741  0.7730
 1463SOL     hw 5850   4.856   5.058   2.300 -2.7597  1.1478  2.7678
 1463SOL     hw 5851   4.715   5.025   2.256 -1.1283 -0.6410 -1.6605
 1463SOL     vw 5852   4.794   5.055   2.238 -0.7613  0.0124  0.7150
 1464SOL     ow 5853   2.714   6.016   0.916  0.2097 -0.2769 -0.6045
 1464SOL     hw 5854   2.638   6.072   0.933  1.9734  2.2012 -0.3640
 1464SOL     hw 5855   2.714   6.005   0.821  0.0308  0.4735 -0.7021
 1464SOL     vw 5856   2.704   6.022   0.905  0.4189  0.1488 -0.5856
 1465SOL     ow 5857   5.965   4.651   6.786 -0.0028  0.2805  0.0101
 1465SOL     hw 5858   5.882   4.668   6.831 -0.4720  0.1990 -0.8037
 1465SOL     hw 5859   5.942   4.589   6.716  0.3000  1.8991 -1.6020
 1465SOL     vw 5860   5.951   4.645   6.783 -0.0248  0.4835 -0.3099
 1466SOL     ow 5861   0.089   5.759   6.260 -0.4197  0.5976  0.1594
 1466SOL     hw 5862   0.143   5.692   6.302 -0.4488  1.2433  1.2968
 1466SOL     hw 5863   0.064   5.817   6.332 -0.7149  1.6087 -0.7303
 1466SOL     vw 5864   0.093   5.758   6.275 -0.4625  0.8163  0.1922
 1467SOL     ow 5865   5.087   2.475   5.957 -0.6233  0.5612  0.0842
 1467SOL     hw 5866   5.135   2.413   5.901  0.3485  1.9424 -0.6571
 1467SOL     hw 5867   5.059   2.544   5.898 -2.4062  0.4592  0.7716
 1467SOL     vw 5868   5.090   2.476   5.942 -0.7303  0.7299  0.0770
 1468SOL     ow 5869   1.901   2.976   1.956 -0.2073 -0.5080  0.5714
 1468SOL     hw 5870   1.826   3.012   1.909 -0.6621  0.3008  1.8686
 1468SOL     hw 5871   1.912   2.888   1.919 -1.1057 -0.2421 -0.3897
 1468SOL     vw 5872   1.893   2.969   1.945 -0.3858 -0.3663  0.6157
 1469SOL     ow 5873   5.429   1.514   6.660 -0.2236 -0.2261  0.6304
 1469SOL     hw 5874   5.418   1.577   6.588  0.7777 -0.6140  0.1216
 1469SOL     hw 5875   5.416   1.567   6.739  0.3003  0.5685  0.2054
 1469SOL     vw 5876   5.426   1.530   6.661 -0.0224 -0.1724  0.5069
 1470SOL     ow 5877   2.551   6.845   0.617 -0.0088 -0.0160  0.1149
 1470SOL     hw 5878   2.493   6.791   0.562 -0.1567  0.1974  0.0621
 1470SOL     hw 5879   2.591   6.782   0.678  1.5422 -0.5675 -1.3853
 1470SOL     vw 5880   2.548   6.829   0.618  0.1764 -0.0606 -0.0900
 1471SOL     ow 5881   1.876   2.062   2.541  0.0810  0.1068 -0.5860
 1471SOL     hw 5882   1.919   2.067   2.455  0.4967 -0.0909 -0.3913
 1471SOL     hw 5883   1.814   2.135   2.540 -0.2609 -0.1743 -1.2366
 1471SOL     vw 5884   1.873   2.072   2.529  0.0907  0.0435 -0.6461
 1472SOL     ow 5885   5.602   3.277   2.208  0.2569 -0.2268  0.4004
 1472SOL     hw 5886   5.523   3.329   2.192  0.8342  0.6153  0.2679
 1472SOL     hw 5887   5.617   3.284   2.302  0.9583  0.7736  0.2280
 1472SOL     vw 5888   5.593   3.285   2.219  0.4253  0.0162  0.3601
 1473SOL     ow 5889   2.042   0.610   0.271 -0.2117 -0.0624  0.1132
 1473SOL     hw 5890   2.074   0.545   0.208 -2.0011  0.0831 -1.0096
 1473SOL     hw 5891   2.057   0.570   0.357  0.5516 -1.0729 -0.4603
 1473SOL     vw 5892   2.048   0.596   0.274 -0.3471 -0.1765 -0.1106
 1474SOL     ow 5893   6.820   3.174   1.232 -0.3910  0.2890  0.3637
 1474SOL     hw 5894   6.914   3.158   1.227 -0.5427 -0.8421  0.6892
 1474SOL     hw 5895   6.806   3.253   1.181  1.2678  2.9353  3.6455
 1474SOL     vw 5896   6.830   3.182   1.225 -0.1919  0.4890  0.8397
 1475SOL     ow 5897   3.628   6.780   4.223 -0.0791 -0.4158 -0.2443
 1475SOL     hw 5898   3.619   6.812   4.133 -1.4856  2.2356  0.7364
 1475SOL     hw 5899   3.574   6.839   4.275  2.0089 -0.8364  2.6211
 1475SOL     vw 5900   3.619   6.792   4.218  0.0108 -0.1216  0.2632
 1476SOL     ow 5901   0.607   3.145   0.585  0.2308 -0.5166 -0.1257
 1476SOL     hw 5902   0.598   3.050   0.574  1.9070 -0.8397  0.9413
 1476SOL     hw 5903   0.659   3.174   0.510 -1.9692 -0.0615 -1.5585
 1476SOL     vw 5904   0.613   3.136   0.574  0.1616 -0.4991 -0.1739
 1477SOL     ow 5905   0.007   5.350   5.720 -0.2798 -0.1531 -0.3013
 1477SOL     hw 5906  -0.014   5.439   5.748 -1.3722 -0.0020 -1.4935
 1477SOL     hw 5907  -0.059   5.329   5.654  0.9339 -1.2321 -1.2451
 1477SOL     vw 5908  -0.005   5.359   5.715 -0.2638 -0.2756 -0.5832
 1478SOL     ow 5909   5.935   0.945   0.983 -0.3967 -0.1252  0.0134
 1478SOL     hw 5910   5.861   0.924   1.040  0.4893  2.0650  2.1486
 1478SOL     hw 5911   6.011   0.908   1.029  0.3020  1.3631  0.1030
 1478SOL     vw 5912   5.936   0.937   0.997 -0.1874  0.3601  0.3069
 1479SOL     ow 5913   6.482   3.400   0.368  0.4673 -0.4388 -0.0302
 1479SOL     hw 5914   6.575   3.422   0.364  0.4244 -0.3731 -1.9251
 1479SOL     hw 5915   6.442   3.455   0.300 -0.9077 -0.6705  0.5638
 1479SOL     vw 5916   6.489   3.410   0.358  0.2804 -0.4606 -0.2018
 1480SOL     ow 5917   4.681   5.100   0.431  0.1057 -0.2299 -0.4731
 1480SOL     hw 5918   4.613   5.136   0.489 -1.5694 -1.6320 -1.4622
 1480SOL     hw 5919   4.670   5.148   0.349  0.1501 -0.6186 -0.7083
 1480SOL     vw 5920   4.671   5.111   0.428 -0.1094 -0.4661 -0.6346
 1481SOL     ow 5921   5.432   3.059   0.071  0.1273  0.4117 -0.0315
 1481SOL     hw 5922   5.470   2.996   0.010 -0.7590 -0.2038  0.0360
 1481SOL     hw 5923   5.338   3.053   0.056 -0.0970  0.3495  1.2999
 1481SOL     vw 5924   5.424   3.050   0.061 -0.0193  0.3225  0.1530
 1482SOL     ow 5925   0.072   5.254   5.985  0.3677 -0.3020 -0.9447
 1482SOL     hw 5926   0.115   5.331   6.023 -1.1213 -0.1212  0.5296
 1482SOL     hw 5927   0.046   5.202   6.061  0.1022 -1.5611 -1.8771
 1482SOL     vw 5928   0.074   5.257   6.000  0.1362 -0.4442 -0.8733
 1483SOL     ow 5929   6.512   3.139   1.323  0.7117  0.3009 -0.2157
 1483SOL     hw 5930   6.463   3.096   1.253  2.0854  1.6522 -2.1171
 1483SOL     hw 5931   6.445   3.168   1.385 -0.4430 -2.1555 -0.1929
 1483SOL     vw 5932   6.497   3.137   1.322  0.7405  0.1550 -0.4636
 1484SOL     ow 5933   6.508   1.229   0.832  0.0728 -0.0417  0.0655
 1484SOL     hw 5934   6.582   1.284   0.807  0.3656 -1.4669 -2.4986
 1484SOL     hw 5935   6.546   1.147   0.861 -0.4585 -0.0434  0.7935
 1484SOL     vw 5936   6.522   1.226   0.833  0.0415 -0.2300 -0.1768
 1485SOL     ow 5937   0.044   2.221   3.025  0.0474  0.0973  0.3372
 1485SOL     hw 5938   0.060   2.309   3.059  1.1664 -0.6763  1.9205
 1485SOL     hw 5939  -0.047   2.202   3.049 -0.5343  1.1806 -0.9220
 1485SOL     vw 5940   0.034   2.230   3.033  0.1183  0.1380  0.3800
 1486SOL     ow 5941   2.807   5.261   6.547 -0.3204 -0.5351  0.2618
 1486SOL     hw 5942   2.791   5.278   6.454 -0.8107 -1.1251  0.2286
 1486SOL     hw 5943   2.895   5.294   6.563 -1.5579  3.0442  0.4826
 1486SOL     vw 5944   2.817   5.268   6.537 -0.5485 -0.1407  0.2863
 1487SOL     ow 5945   4.387   6.957   5.555  0.8642 -0.6998  0.3341
 1487SOL     hw 5946   4.438   6.923   5.482  3.3823  2.9003  0.1925
 1487SOL     hw 5947   4.409   6.900   5.628  0.9197 -2.3463 -0.9091
 1487SOL     vw 5948   4.397   6.945   5.555  1.2035 -0.4420  0.1516
 1488SOL     ow 5949   6.479   5.128   5.494  0.0489  0.1439 -0.2004
 1488SOL     hw 5950   6.442   5.129   5.405  1.8827  3.2332 -1.0822
 1488SOL     hw 5951   6.548   5.062   5.490  1.1960  1.3493 -1.6814
 1488SOL     vw 5952   6.483   5.119   5.481  0.4423  0.7105 -0.5119
 1489SOL     ow 5953   0.027   0.317   0.349  0.5789  0.5119 -0.2971
 1489SOL     hw 5954   0.109   0.364   0.363  0.6334  1.0076 -2.0567
 1489SOL     hw 5955  -0.040   0.385   0.348  0.3850  0.3193 -0.6652
 1489SOL     vw 5956   0.029   0.332   0.351  0.5605  0.5519 -0.5778
 1490SOL     ow 5957   3.262   3.573   6.757  0.7880 -0.0045  0.0729
 1490SOL     hw 5958   3.351   3.593   6.729  0.7365 -0.3301 -0.3339
 1490SOL     hw 5959   3.233   3.503   6.698  0.3563 -0.0814  0.3674
 1490SOL     vw 5960   3.270   3.566   6.746  0.7242 -0.0577  0.0579
 1491SOL     ow 5961   4.320   6.737   6.763  0.2347 -0.2093 -0.3115
 1491SOL     hw 5962   4.226   6.724   6.777  0.2641  0.2194  0.3142
 1491SOL     hw 5963   4.362   6.675   6.821  0.3628 -2.2834 -2.4722
 1491SOL     vw 5964   4.313   6.727   6.772  0.2553 -0.4263 -0.5140
 1492SOL     ow 5965   3.331   6.037   0.075  0.1235 -0.0823  0.2683
 1492SOL     hw 5966   3.314   5.983   0.153 -0.2408  0.2611  0.4283
 1492SOL     hw 5967   3.253   6.024   0.021 -0.5030  1.1771  0.8187
 1492SOL     vw 5968   3.318   6.028   0.078 -0.0073  0.1290  0.3620
 1493SOL     ow 5969   6.464   5.428   1.681  0.5633 -0.0578  0.0854
 1493SOL     hw 5970   6.468   5.332   1.678 -0.3955 -0.1128  0.0662
 1493SOL     hw 5971   6.537   5.457   1.627  0.5388 -0.7863 -0.3535
 1493SOL     vw 5972   6.474   5.419   1.674  0.4334 -0.1612  0.0249
 1494SOL     ow 5973   1.012   2.324   3.793  0.3539  0.0218  0.1945
 1494SOL     hw 5974   1.043   2.370   3.872  0.5966  0.7388 -0.3116
 1494SOL     hw 5975   1.085   2.329   3.732 -0.8610  2.1504 -1.1859
 1494SOL     vw 5976   1.026   2.331   3.796  0.2256  0.3973 -0.0545
 1495SOL     ow 5977   5.275   6.121   5.245  0.3359  0.5728  0.1605
 1495SOL     hw 5978   5.185   6.105   5.217 -0.0396 -0.4379  1.8383
 1495SOL     hw 5979   5.270   6.200   5.298  0.5015  0.7088 -0.0255
 1495SOL     vw 5980   5.262   6.129   5.248  0.3080  0.4573  0.3574
 1496SOL     ow 5981   5.248   5.841   6.676 -0.1579  0.0777 -0.0504
 1496SOL     hw 5982   5.278   5.756   6.708 -0.9842 -1.0869 -2.1731
 1496SOL     hw 5983   5.318   5.869   6.616 -0.9145 -0.2387 -1.1117
 1496SOL     vw 5984   5.261   5.833   6.672 -0.3667 -0.1173 -0.4706
 1497SOL     ow 5985   0.524   1.906   2.950  0.0133 -0.1050  0.2466
 1497SOL     hw 5986   0.428   1.913   2.955 -0.0065 -0.3398  0.2137
 1497SOL     hw 5987   0.556   1.991   2.979 -0.3224  1.7660 -4.1431
 1497SOL     vw 5988   0.515   1.918   2.954 -0.0336  0.1109 -0.3368
 1498SOL     ow 5989   5.410   1.916   5.180 -0.4934 -0.1350 -0.2161
 1498SOL     hw 5990   5.365   1.889   5.260 -0.4765  3.2225  1.1169
 1498SOL     hw 5991   5.503   1.917   5.204 -0.5565  1.7563  0.1238
 1498SOL     vw 5992   5.417   1.913   5.194 -0.4995  0.5575  0.0048
 1499SOL     ow 5993   1.038   6.530   1.429 -0.4223 -0.0605  0.4755
 1499SOL     hw 5994   1.003   6.446   1.402  0.7129  0.3040 -2.4714
 1499SOL     hw 5995   0.965   6.591   1.421 -0.3241 -0.1261 -1.0624
 1499SOL     vw 5996   1.024   6.527   1.425 -0.2596 -0.0212 -0.1162
 1500SOL     ow 5997   5.267   4.297   2.627 -0.3390 -0.6307  0.0137
 1500SOL     hw 5998   5.304   4.232   2.568 -0.7309  0.2734 -1.2612
 1500SOL     hw 5999   5.331   4.304   2.698 -1.0921 -3.6552  1.1382
 1500SOL     vw 6000   5.280   4.289   2.629 -0.4902 -0.9103 -0.0063
 1501SOL     ow 6001   5.917   4.659   1.775 -0.0707 -0.5062  0.2750
 1501SOL     hw 6002   5.932   4.641   1.683  0.4750 -2.3132  0.6797
 1501SOL     hw 6003   5.907   4.754   1.780 -2.0722 -0.4953 -1.9140
 1501SOL     vw 6004   5.917   4.669   1.764 -0.2630 -0.7432  0.0396
 1502SOL     ow 6005   6.476   1.262   2.894 -0.2059 -0.7304 -1.0024
 1502SOL     hw 6006   6.525   1.335   2.931 -3.0159  0.7980  0.0331
 1502SOL     hw 6007   6.518   1.243   2.811  1.2982  1.3238 -0.7733
 1502SOL     vw 6008   6.488   1.269   2.888 -0.3779 -0.2577 -0.8357
 1503SOL     ow 6009   1.313   6.457   1.336  0.2833  0.1662  0.1853
 1503SOL     hw 6010   1.286   6.368   1.312  0.8472 -0.4252  1.6792
 1503SOL     hw 6011   1.393   6.472   1.287 -0.2316  0.1744 -0.6828
 1503SOL     vw 6012   1.320   6.447   1.326  0.2898  0.0892  0.2678
 1504SOL     ow 6013   4.284   6.434   0.503  0.5396  0.6982  0.1919
 1504SOL     hw 6014   4.252   6.506   0.558 -1.5727  1.5168 -1.9373
 1504SOL     hw 6015   4.366   6.468   0.467  0.1271  1.6150  0.0720
 1504SOL     vw 6016   4.291   6.448   0.505  0.2062  0.9272 -0.1048
 1505SOL     ow 6017   1.547   6.421   5.490 -0.0175  0.4853  0.3809
 1505SOL     hw 6018   1.525   6.339   5.445  1.3880 -0.2851  1.0286
 1505SOL     hw 6019   1.495   6.419   5.570  2.5058 -1.5290  2.1147
 1505SOL     vw 6020   1.537   6.410   5.494  0.5009  0.1178  0.6948
 1506SOL     ow 6021   5.100   0.020   6.825 -0.1169 -0.8861 -0.3070
 1506SOL     hw 6022   5.072   0.045   6.913  1.4881  2.8351 -0.6419
 1506SOL     hw 6023   5.122  -0.073   6.832 -0.8017 -0.9350  2.9720
 1506SOL     vw 6024   5.099   0.011   6.838  0.0045 -0.4016  0.0813
 1507SOL     ow 6025   1.274   1.467   0.629 -0.3951 -0.4172  0.1594
 1507SOL     hw 6026   1.182   1.448   0.648 -0.1540 -2.2594 -0.3293
 1507SOL     hw 6027   1.322   1.418   0.695  0.2970 -1.9465 -1.4271
 1507SOL     vw 6028   1.268   1.458   0.640 -0.2719 -0.8619 -0.1144
 1508SOL     ow 6029   5.454   1.976   4.912  0.0015  0.2225  0.2185
 1508SOL     hw 6030   5.428   1.946   4.998  2.0932 -0.1865  0.7523
 1508SOL     hw 6031   5.443   1.900   4.855  1.0713 -0.2952  0.6751
 1508SOL     vw 6032   5.449   1.962   4.916  0.4187  0.1003  0.3493
 1509SOL     ow 6033   2.193   4.997   6.167  0.4327 -0.0966  0.1429
 1509SOL     hw 6034   2.201   5.053   6.090  2.6786  0.5643  0.7780
 1509SOL     hw 6035   2.124   4.934   6.144 -2.3400  2.9269 -0.5360
 1509SOL     vw 6036   2.185   4.996   6.154  0.3632  0.3893  0.1371
 1510SOL     ow 6037   3.921   1.334   4.853  0.3902  0.5703 -0.0092
 1510SOL     hw 6038   3.981   1.312   4.782  1.2099  0.3017  0.7524
 1510SOL     hw 6039   3.839   1.290   4.831  0.8492 -0.0740 -0.4412
 1510SOL     vw 6040   3.918   1.325   4.841  0.5590  0.4498  0.0343
 1511SOL     ow 6041   4.568   2.129   1.961  0.2252 -0.2153  0.0251
 1511SOL     hw 6042   4.644   2.099   2.012 -1.1084  0.6167  2.6546
 1511SOL     hw 6043   4.605   2.193   1.900  1.8622 -1.1055  0.0038
 1511SOL     vw 6044   4.583   2.134   1.960  0.2654 -0.2229  0.3693
 1512SOL     ow 6045   5.390   5.824   5.107 -0.5862  0.1050  0.1955
 1512SOL     hw 6046   5.385   5.835   5.013 -0.8739  0.0667  0.2068
 1512SOL     hw 6047   5.318   5.765   5.129 -0.2879 -0.1924  0.3905
 1512SOL     vw 6048   5.380   5.818   5.098 -0.5848  0.0603  0.2227
 1513SOL     ow 6049   1.578   2.123   5.181  0.0741  0.0999  0.4405
 1513SOL     hw 6050   1.568   2.073   5.262 -2.2997 -1.2055 -0.5617
 1513SOL     hw 6051   1.633   2.067   5.126 -1.2476 -0.7004 -0.0972
 1513SOL     vw 6052   1.584   2.109   5.185 -0.4134 -0.1777  0.2370
 1514SOL     ow 6053   4.942   4.985   0.351  0.4584  0.0095 -0.2225
 1514SOL     hw 6054   4.943   5.039   0.271 -0.8599 -0.0750 -0.3211
 1514SOL     hw 6055   4.867   5.018   0.401 -0.7208 -2.0327 -0.5219
 1514SOL     vw 6056   4.932   4.997   0.347  0.1287 -0.2713 -0.2750
 1515SOL     ow 6057   4.167   5.043   1.807  0.1443  0.0674 -0.2986
 1515SOL     hw 6058   4.085   4.993   1.804  0.9547 -1.3734  0.5055
 1515SOL     hw 6059   4.139   5.134   1.805 -1.5387 -0.3648  0.9349
 1515SOL     vw 6060   4.152   5.048   1.806  0.0293 -0.1793 -0.0298
 1516SOL     ow 6061   5.920   5.512   5.015  0.3560 -0.9175  0.1855
 1516SOL     hw 6062   5.827   5.504   4.993  0.2799 -1.1451  0.5795
 1516SOL     hw 6063   5.952   5.422   5.018  0.2908 -0.9182  1.2841
 1516SOL     vw 6064   5.912   5.499   5.013  0.3371 -0.9477  0.3824
 1517SOL     ow 6065   3.017   4.275   5.791  0.1022 -0.3705 -0.1832
 1517SOL     hw 6066   3.063   4.207   5.840 -0.2503  0.2328  1.0091
 1517SOL     hw 6067   2.951   4.228   5.741 -0.3313 -0.8947  0.8547
 1517SOL     vw 6068   3.015   4.260   5.791 -0.0015 -0.3600  0.1106
 1518SOL     ow 6069   4.454   2.436   4.059  0.3886 -0.1510  0.4903
 1518SOL     hw 6070   4.512   2.475   3.993 -1.4073  2.4572  0.3205
 1518SOL     hw 6071   4.487   2.469   4.142 -0.3096  0.7051  0.4496
 1518SOL     vw 6072   4.466   2.446   4.061  0.0594  0.3060  0.4625
 1519SOL     ow 6073   3.864   1.966   6.990  0.0387  0.0713  0.1811
 1519SOL     hw 6074   3.856   2.006   7.077 -0.5541 -3.2244  1.8429
 1519SOL     hw 6075   3.946   1.916   6.995  0.2025  0.1595 -1.3401
 1519SOL     vw 6076   3.874   1.964   7.002 -0.0179 -0.3518  0.1996
 1520SOL     ow 6077   5.202   4.523   3.264 -0.0189  0.2386 -0.2539
 1520SOL     hw 6078   5.165   4.566   3.187  1.6572 -1.0476 -1.8759
 1520SOL     hw 6079   5.294   4.551   3.264  0.6703 -1.8439 -0.3166
 1520SOL     vw 6080   5.209   4.533   3.254  0.2935 -0.2058 -0.4762
 1521SOL     ow 6081   6.065   1.832   5.721 -0.1512  0.3577  0.1024
 1521SOL     hw 6082   6.071   1.892   5.646  1.6030 -0.2328 -0.2714
 1521SOL     hw 6083   6.118   1.756   5.695 -1.1592 -0.7419  1.1495
 1521SOL     vw 6084   6.072   1.830   5.708 -0.0527  0.1347  0.1910
 1522SOL     ow 6085   2.455   0.757   1.862 -0.1735 -0.1881 -0.2091
 1522SOL     hw 6086   2.498   0.790   1.941 -0.7264  0.1118 -0.0254
 1522SOL     hw 6087   2.526   0.738   1.801  0.2104  0.3922  0.0507
 1522SOL     vw 6088   2.470   0.759   1.864 -0.1957 -0.0720 -0.1506
 1523SOL     ow 6089   4.176   3.644   3.262  0.5528  0.3443 -0.3829
 1523SOL     hw 6090   4.091   3.646   3.218  0.9951  0.0813 -1.2823
 1523SOL     hw 6091   4.231   3.589   3.206  1.1278 -0.0532  0.5404
 1523SOL     vw 6092   4.172   3.637   3.249  0.6869  0.2573 -0.3797
 1524SOL     ow 6093   3.771   3.911   5.462  0.3336 -0.1190  0.1028
 1524SOL     hw 6094   3.698   3.961   5.425  0.8108 -0.2812 -1.1068
 1524SOL     hw 6095   3.732   3.827   5.487 -0.2239  0.4071  1.0153
 1524SOL     vw 6096   3.756   3.906   5.460  0.3231 -0.0709  0.0639
 1525SOL     ow 6097   5.665   4.599   3.788 -0.5410 -0.2717 -0.0531
 1525SOL     hw 6098   5.711   4.525   3.826 -3.0210 -1.1013  1.5699
 1525SOL     hw 6099   5.696   4.675   3.838  1.1282 -0.3412 -0.9302
 1525SOL     vw 6100   5.675   4.599   3.800 -0.6483 -0.3903  0.0454
 1526SOL     ow 6101   6.019   6.662   5.618 -0.5481 -0.3613 -0.0064
 1526SOL     hw 6102   5.998   6.670   5.525 -0.5436  0.7511  0.0753
 1526SOL     hw 6103   6.027   6.568   5.633  2.2641 -0.5316 -1.7523
 1526SOL     vw 6104   6.017   6.651   5.607 -0.1764 -0.2370 -0.2258
 1527SOL     ow 6105   4.182   0.007   1.596  0.2490  0.0614  0.0637
 1527SOL     hw 6106   4.170   0.101   1.611 -1.2889  0.4923 -3.0716
 1527SOL     hw 6107   4.146  -0.035   1.674  0.5814  2.0469  1.3334
 1527SOL     vw 6108   4.176   0.014   1.608  0.0901  0.3803 -0.1824
 1528SOL     ow 6109   4.761   4.625   3.985  0.1506  0.2272  0.0371
 1528SOL     hw 6110   4.823   4.605   4.055 -1.5965  1.8253  2.2144
 1528SOL     hw 6111   4.774   4.718   3.967  1.6684 -0.4622 -3.0592
 1528SOL     vw 6112   4.771   4.635   3.992  0.1204  0.3471 -0.0842
 1529SOL     ow 6113   6.795   0.612   6.000 -0.1016 -0.5586  1.2921
 1529SOL     hw 6114   6.789   0.545   5.932  3.0372  1.4704 -1.3062
 1529SOL     hw 6115   6.732   0.678   5.974  0.0787 -0.4405  1.1482
 1529SOL     vw 6116   6.786   0.612   5.987  0.3364 -0.2753  0.9303
 1530SOL     ow 6117   5.782   2.989   1.429 -0.2891 -0.3833 -0.0245
 1530SOL     hw 6118   5.769   2.931   1.504  0.2993  1.2169  1.3559
 1530SOL     hw 6119   5.748   3.074   1.458  3.7669  1.4225  0.1010
 1530SOL     vw 6120   5.775   2.992   1.443  0.3235  0.0660  0.1742
 1531SOL     ow 6121   6.436   4.589   1.125 -0.4768  0.2415  0.8265
 1531SOL     hw 6122   6.427   4.574   1.220 -0.0956 -1.9994  0.5608
 1531SOL     hw 6123   6.528   4.572   1.107 -0.4782  0.9866  0.0714
 1531SOL     vw 6124   6.447   4.585   1.135 -0.4270  0.0441  0.6918
 1532SOL     ow 6125   1.291   6.031   4.086  0.2775  0.3589 -0.1528
 1532SOL     hw 6126   1.325   6.014   3.998  0.9638  1.5969 -0.1412
 1532SOL     hw 6127   1.343   6.104   4.118 -0.8738  0.7977  0.7710
 1532SOL     vw 6128   1.303   6.038   4.079  0.2162  0.5803 -0.0293
 1533SOL     ow 6129   0.553   3.936   6.929  0.2985  0.7272  0.3819
 1533SOL     hw 6130   0.591   3.982   7.003 -1.2253  1.5269  0.7087
 1533SOL     hw 6131   0.553   3.844   6.955  0.7861  0.8681  0.8974
 1533SOL     vw 6132   0.558   3.930   6.942  0.1618  0.8513  0.4928
 1534SOL     ow 6133   3.784   2.445   4.223  0.3649  0.1940 -0.4771
 1534SOL     hw 6134   3.705   2.399   4.193 -1.0984  2.2169  0.1063
 1534SOL     hw 6135   3.855   2.406   4.171 -0.7916 -2.5044 -0.1975
 1534SOL     vw 6136   3.783   2.434   4.212  0.0193  0.1049 -0.3633
 1535SOL     ow 6137   1.114   4.636   2.647 -0.4792  0.4820  0.1226
 1535SOL     hw 6138   1.170   4.690   2.703 -0.8320  1.6902 -0.6607
 1535SOL     hw 6139   1.061   4.585   2.709 -0.6956  1.6213  0.9060
 1535SOL     vw 6140   1.114   4.636   2.663 -0.5543  0.7918  0.1227
 1536SOL     ow 6141   4.824   0.942   5.525  1.0169  0.3136 -0.1953
 1536SOL     hw 6142   4.792   0.993   5.450 -1.0358 -3.5503 -2.2659
 1536SOL     hw 6143   4.920   0.945   5.517  0.9272  2.3032 -1.2090
 1536SOL     vw 6144   4.833   0.949   5.514  0.7343  0.0663 -0.6022
 1537SOL     ow 6145   4.549   3.205   0.655  0.8166 -0.0480 -0.5714
 1537SOL     hw 6146   4.630   3.232   0.611  0.7751  0.8602 -0.1130
 1537SOL     hw 6147   4.578   3.148   0.726  0.8954 -1.4051 -1.6516
 1537SOL     vw 6148   4.564   3.201   0.659  0.8216 -0.1072 -0.6534
 1538SOL     ow 6149   0.040   1.639   3.472  0.4930 -0.1211  0.0385
 1538SOL     hw 6150   0.102   1.706   3.502  2.2562 -1.9183  0.6884
 1538SOL     hw 6151   0.057   1.629   3.379  0.0499  0.4970 -0.1103
 1538SOL     vw 6152   0.051   1.646   3.464  0.6673 -0.2767  0.1045
 1539SOL     ow 6153   0.370   5.151   2.423 -0.6697 -0.1478 -0.1650
 1539SOL     hw 6154   0.305   5.182   2.361 -1.0665 -1.5504 -0.4986
 1539SOL     hw 6155   0.322   5.090   2.479  0.3005 -1.0889 -0.3165
 1539SOL     vw 6156   0.355   5.147   2.422 -0.5940 -0.4570 -0.2290
 1540SOL     ow 6157   0.063   0.226   0.950 -0.3869 -0.1071  0.3480
 1540SOL     hw 6158  -0.032   0.221   0.949 -0.3563 -0.8374 -0.7165
 1540SOL     hw 6159   0.082   0.313   0.985 -1.4468  0.1143  0.4110
 1540SOL     vw 6160   0.053   0.237   0.954 -0.5226 -0.1743  0.2159
 1541SOL     ow 6161   6.962   1.201   5.937  0.0718 -0.5923  0.1937
 1541SOL     hw 6162   6.979   1.166   6.024  1.0429  0.9507  0.6597
 1541SOL     hw 6163   6.917   1.284   5.952  0.5751 -0.1260 -0.7341
 1541SOL     vw 6164   6.958   1.207   5.950  0.2661 -0.3272  0.1326
 1542SOL     ow 6165   1.428   0.451   3.582  0.1753  0.5175 -0.1515
 1542SOL     hw 6166   1.373   0.511   3.633 -1.5138 -0.4023 -0.7962
 1542SOL     hw 6167   1.476   0.509   3.522 -0.1414  1.3636  0.3849
 1542SOL     vw 6168   1.427   0.467   3.581 -0.0893  0.5078 -0.1658
 1543SOL     ow 6169   5.375   6.634   4.201  0.0133  0.8170 -0.2875
 1543SOL     hw 6170   5.342   6.606   4.287  2.4437  0.9086  0.7795
 1543SOL     hw 6171   5.415   6.555   4.164  3.2074  1.7177  0.8915
 1543SOL     vw 6172   5.376   6.620   4.208  0.7553  0.9482  0.0086
 1544SOL     ow 6173   1.133   1.397   6.783  0.5093 -0.1671 -0.1507
 1544SOL     hw 6174   1.204   1.448   6.822  1.9859 -1.3287 -1.2470
 1544SOL     hw 6175   1.124   1.432   6.695  4.1647 -3.9868 -2.4071
 1544SOL     vw 6176   1.141   1.408   6.777  1.1863 -0.8243 -0.5932
 1545SOL     ow 6177   0.916   3.840   2.011 -0.2730 -0.4424  0.0312
 1545SOL     hw 6178   0.971   3.872   2.082 -0.7358 -0.1745  0.2664
 1545SOL     hw 6179   0.846   3.904   2.003 -0.9803 -1.1729  0.2409
 1545SOL     vw 6180   0.914   3.852   2.019 -0.4274 -0.5035  0.0899
 1546SOL     ow 6181   0.448   1.627   2.886  0.1823  0.3096 -0.1720
 1546SOL     hw 6182   0.385   1.595   2.950  1.2390  0.1714  0.8330
 1546SOL     hw 6183   0.426   1.580   2.805 -2.0184  1.4733 -0.3150
 1546SOL     vw 6184   0.437   1.617   2.883  0.0314  0.4449 -0.0584
 1547SOL     ow 6185   1.212   1.692   0.452 -0.4834 -0.7460  0.2660
 1547SOL     hw 6186   1.273   1.682   0.379 -0.2043  0.0928  0.3732
 1547SOL     hw 6187   1.153   1.617   0.444 -0.1522 -0.9370 -0.5208
 1547SOL     vw 6188   1.212   1.681   0.441 -0.4029 -0.6605  0.1764
 1548SOL     ow 6189   6.654   0.926   1.251  0.3754 -0.0332  0.4900
 1548SOL     hw 6190   6.670   0.990   1.183 -0.5453  0.8259  1.0590
 1548SOL     hw 6191   6.566   0.892   1.233  0.5321 -0.5522  0.6605
 1548SOL     vw 6192   6.644   0.930   1.240  0.2744  0.0117  0.5876
 1549SOL     ow 6193   0.259   6.185   4.555  0.1706  0.4388  0.0333
 1549SOL     hw 6194   0.175   6.141   4.549  0.8161 -1.2641  2.1361
 1549SOL     hw 6195   0.323   6.114   4.555  1.5295  1.6276 -0.2891
 1549SOL     vw 6196   0.256   6.170   4.554  0.4351  0.3710  0.2682
 1550SOL     ow 6197   5.734   1.806   6.816 -0.3903 -0.0461  0.5144
 1550SOL     hw 6198   5.787   1.726   6.820 -0.3598 -0.0283  0.4613
 1550SOL     hw 6199   5.784   1.865   6.760 -1.5091 -0.8130 -1.4083
 1550SOL     vw 6200   5.747   1.803   6.809 -0.5338 -0.1449  0.2537
 1551SOL     ow 6201   5.929   3.391   3.129  0.4555 -0.4026  0.3255
 1551SOL     hw 6202   5.918   3.302   3.163  2.0919 -0.4740  0.7199
 1551SOL     hw 6203   6.021   3.397   3.106  0.5656  1.4782  1.1026
 1551SOL     vw 6204   5.940   3.380   3.130  0.6857 -0.1639  0.4802
 1552SOL     ow 6205   1.225   2.349   0.193  0.3479  0.4831  0.4198
 1552SOL     hw 6206   1.175   2.389   0.122  2.6339  0.8588 -1.0547
 1552SOL     hw 6207   1.164   2.347   0.267 -2.1865 -0.0930 -1.5530
 1552SOL     vw 6208   1.210   2.354   0.194  0.3151  0.4567 -0.0350
 1553SOL     ow 6209   0.430   2.674   2.348 -0.2314 -0.0105  0.3724
 1553SOL     hw 6210   0.426   2.762   2.384 -0.8491  0.3710 -0.5942
 1553SOL     hw 6211   0.481   2.683   2.267 -0.0741 -0.5894  0.4008
 1553SOL     vw 6212   0.436   2.686   2.342 -0.2921 -0.0366  0.2488
 1554SOL     ow 6213   0.402   1.964   6.133  0.3782  0.2773 -0.4466
 1554SOL     hw 6214   0.483   1.942   6.087  0.9693  0.8437  0.2911
 1554SOL     hw 6215   0.407   1.917   6.216 -1.1244 -1.4995 -1.2981
 1554SOL     vw 6216   0.413   1.955   6.138  0.2579  0.1176 -0.4621
 1555SOL     ow 6217   1.226   5.681   0.790  0.0769 -0.1442  0.0639
 1555SOL     hw 6218   1.273   5.735   0.854 -0.3222 -1.2761  1.3546
 1555SOL     hw 6219   1.180   5.744   0.735 -0.1107  0.8502  1.3128
 1555SOL     vw 6220   1.226   5.697   0.791 -0.0005 -0.1626  0.3990
 1556SOL     ow 6221   5.527   3.796   1.841 -0.2724  0.3676  0.7311
 1556SOL     hw 6222   5.571   3.714   1.863 -0.2222 -0.2118 -1.3113
 1556SOL     hw 6223   5.518   3.794   1.746 -0.5040  2.6388  0.6392
 1556SOL     vw 6224   5.531   3.785   1.831 -0.2964  0.5907  0.4495
 1557SOL     ow 6225   6.843   5.055   3.659  0.2647  0.0751 -0.2563
 1557SOL     hw 6226   6.772   5.052   3.722  0.1033  1.3836 -0.3467
 1557SOL     hw 6227   6.880   5.143   3.668  0.5470  0.1305 -1.6405
 1557SOL     vw 6228   6.839   5.066   3.668  0.2809  0.2551 -0.4508
 1558SOL     ow 6229   1.254   2.465   3.068  0.3980 -0.1278 -0.1274
 1558SOL     hw 6230   1.219   2.456   3.157 -0.0299 -2.7729 -0.4731
 1558SOL     hw 6231   1.199   2.532   3.028  0.0067  0.4601  1.3159
 1558SOL     vw 6232   1.242   2.472   3.075  0.2900 -0.3992  0.0173
 1559SOL     ow 6233   4.509   3.080   2.387 -0.1881  0.6140  0.6552
 1559SOL     hw 6234   4.602   3.097   2.400  0.3470 -0.7317 -1.0310
 1559SOL     hw 6235   4.492   3.109   2.297 -1.8665  2.5001  1.4864
 1559SOL     vw 6236   4.519   3.086   2.377 -0.3390  0.6853  0.5424
 1560SOL     ow 6237   0.240   4.063   6.833 -0.2511  0.1571  0.0218
 1560SOL     hw 6238   0.193   3.980   6.824 -0.9802  0.5672  0.0410
 1560SOL     hw 6239   0.178   4.129   6.804  0.2252  0.7328  0.3035
 1560SOL     vw 6240   0.226   4.060   6.828 -0.2845  0.2873  0.0613
 1561SOL     ow 6241   1.359   5.162   5.164 -0.0713 -0.3650  0.3907
 1561SOL     hw 6242   1.276   5.129   5.130 -1.5814  2.8145  0.6307
 1561SOL     hw 6243   1.346   5.166   5.259  0.4585 -0.1327  0.4565
 1561SOL     vw 6244   1.346   5.158   5.172 -0.2006  0.0851  0.4313
 1562SOL     ow 6245   3.263   2.009   6.590  0.3483  0.0634  0.3010
 1562SOL     hw 6246   3.189   1.954   6.616  0.3373  0.4463  1.1173
 1562SOL     hw 6247   3.256   2.015   6.495 -0.2031 -0.5637  0.2946
 1562SOL     vw 6248   3.252   2.003   6.581  0.2739  0.0311  0.4077
 1563SOL     ow 6249   2.103   1.380   5.592  0.7299  0.6267 -0.3923
 1563SOL     hw 6250   2.115   1.472   5.615  1.0221  0.5376 -0.1739
 1563SOL     hw 6251   2.066   1.381   5.504 -2.8237  1.0519  0.9415
 1563SOL     vw 6252   2.100   1.392   5.583  0.2997  0.6711 -0.1876
 1564SOL     ow 6253   0.419   1.146   3.580  0.1414  0.0904  0.1592
 1564SOL     hw 6254   0.450   1.170   3.492 -0.9163 -0.4822 -0.3895
 1564SOL     hw 6255   0.373   1.063   3.567 -2.0357  1.1388  0.8273
 1564SOL     vw 6256   0.417   1.138   3.567 -0.2854  0.1532  0.1749
 1565SOL     ow 6257   6.727   3.185   1.522  0.1054 -0.0770  0.0009
 1565SOL     hw 6258   6.665   3.167   1.593 -1.2436 -0.6001 -1.2799
 1565SOL     hw 6259   6.787   3.250   1.560 -0.9750  0.1540  1.4100
 1565SOL     vw 6260   6.727   3.191   1.536 -0.2151 -0.1155  0.0178
 1566SOL     ow 6261   1.382   0.616   2.279 -0.6766  0.3989 -0.3066
 1566SOL     hw 6262   1.328   0.554   2.230  0.8294  0.3941 -2.0665
 1566SOL     hw 6263   1.332   0.697   2.279 -2.1901 -0.4791  1.0960
 1566SOL     vw 6264   1.368   0.619   2.273 -0.6776  0.2824 -0.3537
 1567SOL     ow 6265   6.299   1.016   5.221  0.6056 -0.0265  0.0319
 1567SOL     hw 6266   6.370   1.025   5.285  0.0212  0.5465  0.6097
 1567SOL     hw 6267   6.232   1.077   5.251  1.2770  2.1297 -2.4809
 1567SOL     vw 6268   6.299   1.025   5.233  0.6173  0.3336 -0.2232
 1568SOL     ow 6269   0.907   4.073   1.134 -0.0372 -0.0469  0.0312
 1568SOL     hw 6270   0.887   4.152   1.183  1.2372 -0.1809  0.7932
 1568SOL     hw 6271   0.837   4.012   1.157  0.1946  0.1066  1.1973
 1568SOL     vw 6272   0.895   4.075   1.143  0.1615 -0.0443  0.2857
 1569SOL     ow 6273   6.018   0.106   6.633  0.0157  0.9158  0.0980
 1569SOL     hw 6274   6.042   0.038   6.570 -1.4286  0.9665 -0.5454
 1569SOL     hw 6275   6.087   0.172   6.625 -0.8739  1.6538 -2.5912
 1569SOL     vw 6276   6.030   0.106   6.624 -0.2923  1.0199 -0.3417
 1570SOL     ow 6277   1.316   2.948   1.764 -0.5234 -0.1156 -0.8868
 1570SOL     hw 6278   1.244   2.952   1.701  1.6140 -1.5003 -3.6269
 1570SOL     hw 6279   1.335   3.040   1.785 -2.3128  0.3013 -0.9289
 1570SOL     vw 6280   1.309   2.961   1.759 -0.4776 -0.2432 -1.2538
 1571SOL     ow 6281   1.297   1.593   2.278 -0.2468 -0.6722 -0.1330
 1571SOL     hw 6282   1.331   1.683   2.285 -0.8182 -0.2712 -1.8869
 1571SOL     hw 6283   1.360   1.548   2.222 -0.9784 -0.7855 -0.8920
 1571SOL     vw 6284   1.310   1.599   2.271 -0.4187 -0.6342 -0.4644
 1572SOL     ow 6285   4.332   1.515   0.871 -0.1897  0.2518  0.3799
 1572SOL     hw 6286   4.367   1.444   0.816  0.1271  0.7706 -0.0940
 1572SOL     hw 6287   4.391   1.588   0.855  0.8623 -0.0386  2.5895
 1572SOL     vw 6288   4.345   1.515   0.862 -0.0091  0.2820  0.6089
 1573SOL     ow 6289   1.425   0.596   6.535 -0.1347  0.0546 -0.0210
 1573SOL     hw 6290   1.332   0.580   6.550  0.0168 -1.5525 -0.5466
 1573SOL     hw 6291   1.457   0.630   6.619 -0.3991 -3.3753  1.6658
 1573SOL     vw 6292   1.417   0.598   6.548 -0.1495 -0.6100  0.1321
 1574SOL     ow 6293   0.966   6.287   1.471  0.4959 -0.4306  0.1655
 1574SOL     hw 6294   1.008   6.233   1.538  0.7675  1.0769  1.2550
 1574SOL     hw 6295   0.894   6.233   1.438  0.1149 -1.0670  1.9565
 1574SOL     vw 6296   0.962   6.273   1.475  0.4815 -0.3159  0.5456
 1575SOL     ow 6297   1.759   6.587   5.282  0.2130 -0.3257 -0.5380
 1575SOL     hw 6298   1.848   6.600   5.248  0.1848 -2.1194 -1.4065
 1575SOL     hw 6299   1.703   6.636   5.222  0.5315 -0.0163 -0.5864
 1575SOL     vw 6300   1.764   6.595   5.270  0.2513 -0.5214 -0.6592
 1576SOL     ow 6301   5.100   5.307   1.923  0.0425  0.6925  0.0702
 1576SOL     hw 6302   5.184   5.353   1.921  0.5936 -0.0755  2.4555
 1576SOL     hw 6303   5.058   5.338   2.003 -0.4979 -1.3687  0.6266
 1576SOL     vw 6304   5.106   5.317   1.933  0.0441  0.3190  0.4584
 1577SOL     ow 6305   1.535   6.951   2.454  0.3335  0.3801  0.2974
 1577SOL     hw 6306   1.611   6.937   2.509  0.3505  0.0636  0.1927
 1577SOL     hw 6307   1.540   6.883   2.387  0.2892  0.7328 -0.0693
 1577SOL     vw 6308   1.545   6.940   2.452  0.3299  0.3850  0.2352
 1578SOL     ow 6309   6.197   1.409   0.134  0.3058  0.6862  0.3413
 1578SOL     hw 6310   6.128   1.394   0.069  0.9579 -1.7420  0.0955
 1578SOL     hw 6311   6.247   1.483   0.099 -0.1696  0.2931 -1.2550
 1578SOL     vw 6312   6.195   1.416   0.121  0.3293  0.3140  0.0982
 1579SOL     ow 6313   1.921   0.864   2.695 -0.1116  0.3384 -0.1777
 1579SOL     hw 6314   1.904   0.958   2.681 -4.3041 -0.4146 -1.4612
 1579SOL     hw 6315   1.980   0.840   2.623 -0.9604  1.5437 -1.3243
 1579SOL     vw 6316   1.927   0.873   2.684 -0.7768  0.3981 -0.4983
 1580SOL     ow 6317   0.713   5.659   1.669  0.5106 -0.0930 -0.1307
 1580SOL     hw 6318   0.644   5.665   1.735  0.3108 -0.1423 -0.3362
 1580SOL     hw 6319   0.685   5.717   1.599  0.7396 -0.0178 -0.1612
 1580SOL     vw 6320   0.700   5.667   1.669  0.5144 -0.0894 -0.1618
 1581SOL     ow 6321   2.917   1.311   4.173 -0.2792  0.0451 -0.3604
 1581SOL     hw 6322   2.963   1.243   4.125  1.3170  0.5547  0.3666
 1581SOL     hw 6323   2.920   1.282   4.265 -0.7628  0.4555 -0.2072
 1581SOL     vw 6324   2.924   1.298   4.179 -0.1324  0.1665 -0.2446
 1582SOL     ow 6325   6.190   6.366   0.181 -0.0885  0.3880  0.2686
 1582SOL     hw 6326   6.225   6.397   0.265 -0.1745  3.2633 -0.6283
 1582SOL     hw 6327   6.206   6.439   0.121 -0.2720 -1.4704 -2.1839
 1582SOL     vw 6328   6.197   6.380   0.184 -0.1240  0.5221 -0.1733
 1583SOL     ow 6329   1.058   6.833   5.502 -0.6164  0.0052 -0.2951
 1583SOL     hw 6330   1.062   6.841   5.598  1.3263 -0.1536 -0.3289
 1583SOL     hw 6331   0.965   6.821   5.484 -0.8232 -2.4546  1.7903
 1583SOL     vw 6332   1.046   6.833   5.513 -0.3874 -0.3402 -0.0246
 1584SOL     ow 6333   0.492   3.669   1.535 -0.3700 -0.1109  0.3784
 1584SOL     hw 6334   0.564   3.651   1.475 -0.6557 -0.1046  0.0251
 1584SOL     hw 6335   0.496   3.763   1.550  0.2816 -0.2537  1.1267
 1584SOL     vw 6336   0.502   3.679   1.529 -0.3217 -0.1289  0.4305
 1585SOL     ow 6337   2.950   0.228   3.136  0.1024  0.1730  0.1571
 1585SOL     hw 6338   2.880   0.282   3.100  0.5397 -0.4544 -1.7310
 1585SOL     hw 6339   2.958   0.257   3.227 -2.0012  0.8569  0.1787
 1585SOL     vw 6340   2.942   0.239   3.144 -0.1174  0.1804 -0.0892
 1586SOL     ow 6341   3.775   1.321   3.772 -0.1328 -0.0145 -0.1073
 1586SOL     hw 6342   3.681   1.334   3.777 -0.0731  0.4120 -0.0158
 1586SOL     hw 6343   3.810   1.369   3.847 -0.0821 -2.9453  1.8864
 1586SOL     vw 6344   3.768   1.329   3.783 -0.1183 -0.3449  0.1680
 1587SOL     ow 6345   4.914   5.901   4.119 -0.7078 -0.4777  0.3621
 1587SOL     hw 6346   5.002   5.878   4.092 -0.4610  1.1698 -0.3897
 1587SOL     hw 6347   4.857   5.846   4.065 -0.1689 -1.4811  0.7852
 1587SOL     vw 6348   4.918   5.891   4.109 -0.6044 -0.3927  0.3188
 1588SOL     ow 6349   0.641   6.001   0.486  0.2652 -0.0746  0.4366
 1588SOL     hw 6350   0.622   6.046   0.404 -1.4689 -2.2560 -0.4711
 1588SOL     hw 6351   0.594   5.918   0.479  2.8007 -1.8145  2.2091
 1588SOL     vw 6352   0.632   5.996   0.474  0.3709 -0.5920  0.5507
 1589SOL     ow 6353   4.262   2.958   5.788 -0.3692 -0.6467  0.2621
 1589SOL     hw 6354   4.319   2.889   5.821  0.1444 -0.4014 -0.0993
 1589SOL     hw 6355   4.240   2.930   5.699 -0.0460 -0.2865  0.0636
 1589SOL     vw 6356   4.267   2.946   5.780 -0.2589 -0.5667  0.1881
 1590SOL     ow 6357   0.295   0.066   3.682  0.1934  0.6383 -0.0024
 1590SOL     hw 6358   0.236   0.005   3.638  0.9478  0.9840 -1.5779
 1590SOL     hw 6359   0.289   0.146   3.631  2.1206  0.6310 -0.3023
 1590SOL     vw 6360   0.286   0.068   3.670  0.5472  0.6829 -0.2499
 1591SOL     ow 6361   4.415   2.836   1.595  0.2954 -0.1813  0.3340
 1591SOL     hw 6362   4.441   2.896   1.525 -0.3998 -0.5558 -0.2530
 1591SOL     hw 6363   4.495   2.788   1.617  0.2316 -0.9845 -1.1116
 1591SOL     vw 6364   4.429   2.838   1.589  0.1950 -0.3366  0.0658
 1592SOL     ow 6365   3.644   2.057   6.308 -0.5648  0.6686  0.3286
 1592SOL     hw 6366   3.632   2.003   6.231 -0.6606  0.2509  0.6331
 1592SOL     hw 6367   3.560   2.101   6.320 -0.8766 -0.0508  0.7884
 1592SOL     vw 6368   3.631   2.056   6.300 -0.6186  0.5186  0.4294
 1593SOL     ow 6369   2.001   2.006   3.121 -0.0327 -0.2851  0.9949
 1593SOL     hw 6370   2.067   2.004   3.051  0.8122 -1.6728  1.7813
 1593SOL     hw 6371   2.016   2.090   3.165  0.5227 -0.1270  0.5218
 1593SOL     vw 6372   2.012   2.017   3.118  0.1520 -0.4474  1.0363
 1594SOL     ow 6373   2.890   3.965   2.961 -0.1242  0.5259 -0.3027
 1594SOL     hw 6374   2.892   4.016   2.880 -0.9903  0.6489 -0.2509
 1594SOL     hw 6375   2.797   3.960   2.986 -0.0998 -1.1907 -0.3788
 1594SOL     vw 6376   2.878   3.971   2.954 -0.2353  0.3157 -0.3060
 1595SOL     ow 6377   6.839   4.713   4.212 -0.2903 -0.0333 -0.2126
 1595SOL     hw 6378   6.876   4.724   4.299 -0.9764 -2.5760  0.4999
 1595SOL     hw 6379   6.756   4.760   4.214  0.2540  0.9368  0.0680
 1595SOL     vw 6380   6.833   4.720   4.224 -0.3090 -0.2408 -0.0813
 1596SOL     ow 6381   0.439   4.697   3.083 -0.0927  0.1981  0.2132
 1596SOL     hw 6382   0.526   4.725   3.054 -0.2998  0.0384 -0.5996
 1596SOL     hw 6383   0.381   4.728   3.013 -0.4456 -1.3586 -0.2099
 1596SOL     vw 6384   0.443   4.705   3.070 -0.1666 -0.0281  0.0502
 1597SOL     ow 6385   1.964   4.744   4.969 -0.1171  0.2728 -0.5623
 1597SOL     hw 6386   2.019   4.822   4.971  1.0813 -0.5336 -0.8445
 1597SOL     hw 6387   1.968   4.714   4.878 -0.1837 -0.3723 -0.3572
 1597SOL     vw 6388   1.971   4.750   4.957  0.0322  0.0813 -0.5724
 1598SOL     ow 6389   3.446   3.561   0.078  0.3215  0.0166 -0.5821
 1598SOL     hw 6390   3.417   3.482   0.124 -1.8230  0.2426 -1.4519
 1598SOL     hw 6391   3.533   3.579   0.115  0.1360 -1.7530  0.8712
 1598SOL     vw 6392   3.454   3.553   0.089  0.0142 -0.1870 -0.5052
 1599SOL     ow 6393   1.126   0.273   4.493 -0.1560 -0.3686 -0.8138
 1599SOL     hw 6394   1.121   0.252   4.399 -0.9988  0.1045 -0.8917
 1599SOL     hw 6395   1.217   0.258   4.516 -0.3920 -2.7898 -1.1590
 1599SOL     vw 6396   1.137   0.268   4.483 -0.2984 -0.6257 -0.8695
 1600SOL     ow 6397   5.472   1.541   6.112  0.1968 -0.1324  0.1552
 1600SOL     hw 6398   5.532   1.547   6.186  0.5236 -1.5141  0.0335
 1600SOL     hw 6399   5.403   1.481   6.142  0.7575 -1.3690 -0.8932
 1600SOL     vw 6400   5.471   1.534   6.126  0.3138 -0.4779  0.0010
 1601SOL     ow 6401   1.154   6.905   3.508  0.0982  0.2362 -0.1012
 1601SOL     hw 6402   1.190   6.900   3.596 -0.7413  1.0247  0.3058
 1601SOL     hw 6403   1.230   6.903   3.450  0.6621 -0.1644  0.6479
 1601SOL     vw 6404   1.169   6.904   3.512  0.0618  0.2873  0.0514
 1602SOL     ow 6405   2.767   5.977   2.824  0.0854  0.2037  0.3909
 1602SOL     hw 6406   2.772   5.922   2.745  3.1181 -0.0592  0.6517
 1602SOL     hw 6407   2.786   6.065   2.793 -0.1719  0.3447  0.6323
 1602SOL     vw 6408   2.770   5.981   2.809  0.4517  0.1876  0.4573
 1603SOL     ow 6409   5.914   3.637   4.677  0.0965 -0.5209 -0.0712
 1603SOL     hw 6410   5.837   3.690   4.655 -0.6015 -0.5704  2.0505
 1603SOL     hw 6411   5.976   3.655   4.607 -0.6744  1.9585 -0.2071
 1603SOL     vw 6412   5.912   3.646   4.665 -0.0973 -0.2004  0.1910
 1604SOL     ow 6413   1.451   0.633   0.392  0.4180  0.3718  0.0807
 1604SOL     hw 6414   1.439   0.539   0.385  0.6173  0.3955 -0.6499
 1604SOL     hw 6415   1.437   0.666   0.303  1.4192  0.9135  0.1121
 1604SOL     vw 6416   1.447   0.625   0.379  0.5764  0.4464 -0.0115
 1605SOL     ow 6417   0.166   4.039   0.311  0.8111  0.2087  0.3892
 1605SOL     hw 6418   0.170   3.957   0.262 -1.5630  0.8579 -1.0464
 1605SOL     hw 6419   0.243   4.088   0.282 -0.1282  0.2874 -2.2706
 1605SOL     vw 6420   0.177   4.034   0.301  0.3740  0.3047 -0.1512
 1606SOL     ow 6421   4.443   3.893   0.009  0.3531 -0.1891  0.3893
 1606SOL     hw 6422   4.522   3.925   0.053 -0.4469  3.0700 -0.2870
 1606SOL     hw 6423   4.423   3.810   0.053  3.8593 -0.9397  0.8373
 1606SOL     vw 6424   4.451   3.886   0.021  0.7100  0.1419  0.3592
 1607SOL     ow 6425   0.975   3.499   7.007 -0.7943 -0.5947  0.4520
 1607SOL     hw 6426   0.944   3.559   7.075 -3.6562 -0.6051 -0.7342
 1607SOL     hw 6427   0.992   3.554   6.931 -2.5480 -1.1121 -0.3584
 1607SOL     vw 6428   0.973   3.514   7.006 -1.4032 -0.6644  0.1886
 1608SOL     ow 6429   0.740   2.428   1.652 -0.1914 -0.2491 -0.1160
 1608SOL     hw 6430   0.831   2.418   1.623 -0.2480 -1.0013 -0.0545
 1608SOL     hw 6431   0.746   2.473   1.736 -0.0793  2.9855 -1.7056
 1608SOL     vw 6432   0.753   2.433   1.659 -0.1840  0.0784 -0.3176
 1609SOL     ow 6433   5.186   4.387   2.352 -0.6010 -0.0827  0.5300
 1609SOL     hw 6434   5.215   4.446   2.283  1.1961 -0.7904  0.6241
 1609SOL     hw 6435   5.121   4.330   2.309 -1.1066  0.8545  0.0147
 1609SOL     vw 6436   5.181   4.387   2.337 -0.4306 -0.0522  0.4743
 1610SOL     ow 6437   4.742   0.396   0.987  0.0296  0.0082  1.0096
 1610SOL     hw 6438   4.819   0.346   1.016 -0.2631 -0.4529  0.9872
 1610SOL     hw 6439   4.669   0.357   1.035 -0.3876 -0.4281  0.0310
 1610SOL     vw 6440   4.743   0.384   0.997 -0.0641 -0.1102  0.8775
 1611SOL     ow 6441   3.241   3.727   7.059  0.3553  0.3353 -0.1329
 1611SOL     hw 6442   3.172   3.757   7.119  1.7281  1.4639  0.9567
 1611SOL     hw 6443   3.285   3.657   7.107 -0.0643 -0.4337 -0.8564
 1611SOL     vw 6444   3.237   3.722   7.074  0.4809  0.3827 -0.0846
 1612SOL     ow 6445   5.914   4.335   0.298 -0.1082 -0.2713  0.1014
 1612SOL     hw 6446   5.867   4.321   0.215 -0.2926  0.2150  0.1212
 1612SOL     hw 6447   5.918   4.430   0.307  0.9655 -0.3082  0.0614
 1612SOL     vw 6448   5.908   4.346   0.288  0.0093 -0.2122  0.0987
 1613SOL     ow 6449   6.208   2.430   0.937  0.2633 -0.4842  0.0060
 1613SOL     hw 6450   6.207   2.522   0.912  1.0090 -0.1479  1.1218
 1613SOL     hw 6451   6.117   2.411   0.959  0.5054  0.8706  2.6336
 1613SOL     vw 6452   6.196   2.440   0.937  0.3936 -0.2608  0.4999
 1614SOL     ow 6453   5.862   2.061   0.625 -0.4105  0.3777  0.1183
 1614SOL     hw 6454   5.852   2.135   0.566  0.2905  0.2109 -0.2260
 1614SOL     hw 6455   5.831   2.093   0.709 -0.2235  1.0298 -0.0531
 1614SOL     vw 6456   5.857   2.075   0.628 -0.2935  0.4417  0.0502
 1615SOL     ow 6457   0.268   6.417   4.712  0.0707  0.2906  0.0458
 1615SOL     hw 6458   0.263   6.324   4.692 -0.0593  0.3842 -0.3807
 1615SOL     hw 6459   0.250   6.424   4.805  0.1900 -0.1222  0.0980
 1615SOL     vw 6460   0.265   6.406   4.721  0.0692  0.2484 -0.0033
 1616SOL     ow 6461   1.406   3.402   2.373 -0.6367  0.7999 -0.1459
 1616SOL     hw 6462   1.429   3.495   2.379 -2.1235  1.1044  1.9602
 1616SOL     hw 6463   1.363   3.383   2.456  0.1133 -1.9422 -0.2984
 1616SOL     vw 6464   1.404   3.412   2.385 -0.7339  0.4783  0.1118
 1617SOL     ow 6465   1.781   6.709   4.920 -0.2707 -0.2711 -0.4545
 1617SOL     hw 6466   1.822   6.789   4.887  0.3103 -0.0439  0.7534
 1617SOL     hw 6467   1.725   6.739   4.991 -1.2568 -0.7782 -0.9997
 1617SOL     vw 6468   1.779   6.723   4.925 -0.3242 -0.3078 -0.3672
 1618SOL     ow 6469   3.760   1.845   2.857 -0.2215 -0.3694 -0.1551
 1618SOL     hw 6470   3.739   1.936   2.877  2.2227  0.2910 -0.2709
 1618SOL     hw 6471   3.803   1.812   2.936 -0.0104 -1.0427 -0.5360
 1618SOL     vw 6472   3.763   1.853   2.870  0.1289 -0.3711 -0.2205
 1619SOL     ow 6473   1.452   4.185   1.652 -0.3845  0.1519 -0.0562
 1619SOL     hw 6474   1.489   4.230   1.577 -1.3160  0.3309 -0.4141
 1619SOL     hw 6475   1.518   4.196   1.721 -0.3743  1.6213 -0.2820
 1619SOL     vw 6476   1.466   4.192   1.651 -0.5061  0.3693 -0.1332
 1620SOL     ow 6477   1.985   1.551   3.603 -0.3920  0.4572 -0.9946
 1620SOL     hw 6478   2.003   1.597   3.684 -1.2927  0.2333 -0.6539
 1620SOL     hw 6479   2.071   1.521   3.572 -0.0636  0.3904 -0.0393
 1620SOL     vw 6480   1.999   1.553   3.609 -0.4675  0.4189 -0.8235
 1621poe    c31 6481   3.399   7.000   1.542 -0.0762 -0.0342  0.6231
 1621poe     o2 6482   3.288   6.927   1.495 -0.0373  0.0161  0.4529
 1621poe    c23 6483   3.318   6.790   1.516  0.3070  0.0215  0.0157
 1621poe    c23 6484   3.225   6.693   1.442  0.1388  0.5480 -0.4764
 1621poe     o2 6485   3.089   6.711   1.475  0.1502 -0.1079 -0.0367
 1621poe    c23 6486   3.010   6.617   1.405  0.1710 -0.3675  0.2902
 1621poe    c23 6487   2.862   6.640   1.437  0.1448  0.4028 -0.3624
 1621poe     o2 6488   2.826   6.770   1.397 -0.3012  0.3812 -0.0403
 1621poe    c23 6489   2.703   6.791   1.464 -0.4158  0.0325 -0.1380
 1621poe    c23 6490   2.666   6.939   1.485 -0.2015  0.1823 -0.7752
 1621poe     o2 6491   2.790   7.003   1.501 -0.0480 -0.2839 -0.0332
 1621poe    c31 6492   2.770   7.138   1.534  0.3773 -0.3389  0.4634
 1622poe    c31 6493   0.454   6.899   4.384 -0.4037 -0.3221  0.1736
 1622poe     o2 6494   0.537   6.977   4.300 -0.3041 -0.2173  0.3693
 1622poe    c23 6495   0.602   6.903   4.200 -0.2297 -0.1460  0.3650
 1622poe    c23 6496   0.700   6.984   4.113 -0.4923 -0.2977 -0.0759
 1622poe     o2 6497   0.633   7.044   4.004 -0.2164  0.3630  0.1111
 1622poe    c23 6498   0.721   7.122   3.927 -0.1572  0.4893  0.3088
 1622poe    c23 6499   0.645   7.205   3.823  0.0540  0.3243  0.0210
 1622poe     o2 6500   0.562   7.284   3.907  0.1934  0.2075  0.2675
 1622poe    c23 6501   0.530   7.403   3.839  0.0473  0.2985  0.4971
 1622poe    c23 6502   0.500   7.511   3.944 -0.3966  0.6903 -0.0263
 1622poe     o2 6503   0.392   7.454   4.015 -0.1026  0.0831 -0.0654
 1622poe    c31 6504   0.330   7.555   4.091 -0.3069 -0.1897  0.1328
 1623poe    c31 6505   2.685   2.463   2.245  0.0456 -0.8747 -0.0382
 1623poe     o2 6506   2.572   2.515   2.180  0.0975 -0.1515  0.4468
 1623poe    c23 6507   2.496   2.400   2.153 -0.0278 -0.0844  0.5102
 1623poe    c23 6508   2.370   2.443   2.076  0.0381  0.5005  0.7292
 1623poe     o2 6509   2.404   2.507   1.955 -1.0358 -0.5717 -0.1655
 1623poe    c23 6510   2.294   2.551   1.878 -0.5555  0.4983 -0.2641
 1623poe    c23 6511   2.363   2.579   1.743 -0.4232  0.3424 -0.2288
 1623poe     o2 6512   2.447   2.690   1.759 -0.6217  0.4049  0.4415
 1623poe    c23 6513   2.505   2.718   1.633  0.4395 -0.8975  0.6244
 1623poe    c23 6514   2.616   2.825   1.633 -0.1178 -0.3133 -0.0651
 1623poe     o2 6515   2.718   2.796   1.727  0.0314 -0.1510 -0.1766
 1623poe    c31 6516   2.780   2.913   1.775 -0.3239 -0.0809  0.1188
 1624poe    c31 6517   0.099   1.228   2.669 -0.0503  0.3462  0.1830
 1624poe     o2 6518   0.145   1.112   2.604  0.0996  0.1564  0.6235
 1624poe    c23 6519   0.274   1.127   2.547 -0.3313  0.2536 -0.3569
 1624poe    c23 6520   0.295   1.031   2.428 -1.2922 -0.6046  0.1471
 1624poe     o2 6521   0.260   1.080   2.300  0.0218  0.4331  0.1611
 1624poe    c23 6522   0.285   0.987   2.198  0.4987  0.8270 -0.0850
 1624poe    c23 6523   0.212   1.012   2.065 -0.3634 -0.2004  0.1807
 1624poe     o2 6524   0.074   1.033   2.090 -0.3095  0.3607  0.0204
 1624poe    c23 6525   0.013   1.031   1.963  0.3157 -0.5153 -0.2813
 1624poe    c23 6526  -0.128   1.092   1.972  0.4094 -0.3655  0.2159
 1624poe     o2 6527  -0.184   1.040   2.091 -0.0709 -0.1412  0.0906
 1624poe    c31 6528  -0.325   1.031   2.085 -0.0666 -0.1771  0.0378
 1625poe    c31 6529   2.517   6.533   2.841  0.3625  0.6381 -0.2701
 1625poe     o2 6530   2.449   6.630   2.764 -0.2112  0.5580  0.1315
 1625poe    c23 6531   2.321   6.659   2.815 -0.4517 -0.3711  0.0744
 1625poe    c23 6532   2.250   6.776   2.744  0.2655 -0.1762 -0.3257
 1625poe     o2 6533   2.306   6.791   2.615  0.2903 -0.2501 -0.3239
 1625poe    c23 6534   2.263   6.909   2.552  0.2984 -0.0985 -0.0490
 1625poe    c23 6535   2.353   6.943   2.431  0.0382 -0.6164 -0.3930
 1625poe     o2 6536   2.367   6.840   2.336  0.3678 -0.8831 -0.0553
 1625poe    c23 6537   2.482   6.860   2.257 -0.0868  0.4792 -0.3915
 1625poe    c23 6538   2.497   6.743   2.158 -0.2222 -0.1072  0.2784
 1625poe     o2 6539   2.510   6.616   2.219  0.1410 -0.2594 -0.1088
 1625poe    c31 6540   2.537   6.508   2.133  0.0701 -0.3188 -0.0562
 1626poe    c31 6541   4.498   5.144   1.863  1.1626 -0.0363 -0.8735
 1626poe     o2 6542   4.523   5.031   1.944 -0.4221  0.0924 -0.1532
 1626poe    c23 6543   4.589   4.928   1.873  0.3546  0.5319 -0.0802
 1626poe    c23 6544   4.623   4.809   1.964 -0.2739  0.3071 -0.1344
 1626poe     o2 6545   4.509   4.814   2.046  0.2602  0.0875  0.6319
 1626poe    c23 6546   4.521   4.688   2.107  0.0739 -0.4579 -0.4325
 1626poe    c23 6547   4.412   4.663   2.213  0.4148 -0.6738 -0.1319
 1626poe     o2 6548   4.433   4.756   2.317  0.1514 -0.7908  0.0261
 1626poe    c23 6549   4.392   4.721   2.447 -0.6030 -0.6113 -0.1605
 1626poe    c23 6550   4.350   4.855   2.511  0.4261 -0.2523 -0.2287
 1626poe     o2 6551   4.449   4.953   2.489 -0.0387  0.2689 -0.0177
 1626poe    c31 6552   4.475   5.045   2.592  0.1003 -0.0639  0.2453
 1627poe    c31 6553   6.553   6.328   6.810 -0.7213  0.0882  0.1702
 1627poe     o2 6554   6.498   6.204   6.847 -0.3533 -0.1631 -0.1099
 1627poe    c23 6555   6.551   6.107   6.760 -0.0595  0.3111 -0.4582
 1627poe    c23 6556   6.430   6.025   6.713 -0.3816  0.5128  0.0112
 1627poe     o2 6557   6.340   6.097   6.630 -0.5177  0.4359  0.0923
 1627poe    c23 6558   6.220   6.023   6.621 -0.5661  0.4263  0.7657
 1627poe    c23 6559   6.129   6.089   6.516  0.5512  0.0463 -0.4615
 1627poe     o2 6560   6.203   6.069   6.398  0.4553 -0.4185 -0.4458
 1627poe    c23 6561   6.122   6.095   6.285 -0.0275  0.8032  0.1574
 1627poe    c23 6562   6.220   6.081   6.167  0.1936 -0.1571  0.4419
 1627poe     o2 6563   6.329   6.166   6.197 -0.5665  0.9529  0.1297
 1627poe    c31 6564   6.422   6.170   6.092 -0.6608  0.6755  0.0332
 1628poe    c31 6565   6.249   4.191   1.442 -0.3019 -0.2017  0.3805
 1628poe     o2 6566   6.353   4.126   1.371 -0.7898 -0.3730 -0.1829
 1628poe    c23 6567   6.384   4.189   1.248 -0.1836 -0.2479  0.0312
 1628poe    c23 6568   6.460   4.082   1.167  0.2014  0.5052 -0.6141
 1628poe     o2 6569   6.367   3.983   1.132  0.2199  0.2517  0.0375
 1628poe    c23 6570   6.439   3.880   1.068 -0.0951  0.1777 -0.2041
 1628poe    c23 6571   6.341   3.768   1.031 -0.1142  0.1157  0.0326
 1628poe     o2 6572   6.318   3.679   1.138 -0.0823  0.0175 -0.0418
 1628poe    c23 6573   6.403   3.567   1.134  0.8765  0.7217  0.1610
 1628poe    c23 6574   6.433   3.533   1.281  0.3248 -0.3624  0.0296
 1628poe     o2 6575   6.320   3.559   1.361  0.2625 -0.4129 -0.0413
 1628poe    c31 6576   6.358   3.528   1.493  0.2643  0.2538  0.1172
 1629poe    c31 6577   4.065   3.104   2.465 -0.2489  0.4106 -0.6276
 1629poe     o2 6578   4.194   3.154   2.486 -0.0531 -0.2271 -0.2790
 1629poe    c23 6579   4.193   3.247   2.592 -0.1275  0.1930 -0.6440
 1629poe    c23 6580   4.335   3.282   2.638 -0.3967  0.0898  0.2973
 1629poe     o2 6581   4.414   3.167   2.660  0.1229  0.3511 -0.1716
 1629poe    c23 6582   4.542   3.182   2.717  0.2193 -0.1205 -0.2596
 1629poe    c23 6583   4.583   3.038   2.752  0.9444  0.1712  0.0987
 1629poe     o2 6584   4.581   2.972   2.627  0.1761  0.3368  0.0233
 1629poe    c23 6585   4.664   2.859   2.634 -0.0356  0.1640 -0.2328
 1629poe    c23 6586   4.680   2.798   2.494  0.6051 -0.0548 -0.0688
 1629poe     o2 6587   4.560   2.743   2.445  0.5882  0.0757 -0.1734
 1629poe    c31 6588   4.584   2.669   2.328 -0.0651 -0.0079 -0.2595
 1630poe    c31 6589   6.504   0.079   6.900 -0.1632  0.0703  0.2091
 1630poe     o2 6590   6.593  -0.015   6.844 -0.4977 -0.0143 -0.1855
 1630poe    c23 6591   6.548  -0.145   6.873  0.1441 -0.2675 -0.3123
 1630poe    c23 6592   6.666  -0.244   6.862 -0.0859 -0.6239  0.3579
 1630poe     o2 6593   6.722  -0.250   6.733 -0.1592  0.5491  0.2637
 1630poe    c23 6594   6.851  -0.308   6.729 -0.4908 -0.1783  0.0523
 1630poe    c23 6595   6.890  -0.390   6.604  0.2512 -0.1860  0.2848
 1630poe     o2 6596   6.873  -0.305   6.493 -0.5566  0.0224  0.5596
 1630poe    c23 6597   6.934  -0.335   6.370 -0.3094  0.1675  0.6453
 1630poe    c23 6598   6.906  -0.207   6.289 -0.0718  0.2539  0.6983
 1630poe     o2 6599   6.773  -0.168   6.319 -0.3670 -0.0606 -0.1823
 1630poe    c31 6600   6.725  -0.096   6.208 -0.5360 -0.0790 -0.1214
 1631poe    c31 6601   4.492   3.510   2.411  0.3685 -0.6004 -0.3854
 1631poe     o2 6602   4.355   3.505   2.376  0.0968 -0.0118  0.5534
 1631poe    c23 6603   4.333   3.543   2.242  0.4293 -0.8388  0.2613
 1631poe    c23 6604   4.181   3.545   2.214  0.4778  0.3511  0.0569
 1631poe     o2 6605   4.112   3.624   2.308  0.5405 -0.0231  0.4153
 1631poe    c23 6606   3.979   3.579   2.311  0.4223  0.2502 -0.5110
 1631poe    c23 6607   3.921   3.626   2.446  0.5476 -0.0197 -0.3619
 1631poe     o2 6608   3.944   3.765   2.449  0.6326 -0.0407  0.0048
 1631poe    c23 6609   3.929   3.819   2.578  0.2477 -0.5784  0.1889
 1631poe    c23 6610   3.987   3.961   2.563 -0.1202 -0.3625  0.8009
 1631poe     o2 6611   4.121   3.966   2.522 -0.1437  0.1246  0.7762
 1631poe    c31 6612   4.192   4.049   2.612  0.1533  0.6216  0.0850
 1632poe    c31 6613   4.883   4.946   3.474 -0.3107  0.2981 -0.1974
 1632poe     o2 6614   4.806   4.835   3.433  0.0977 -0.1102  0.1205
 1632poe    c23 6615   4.874   4.745   3.348 -0.0807  0.0829 -0.2313
 1632poe    c23 6616   4.799   4.612   3.365 -0.1678  0.1627  0.0340
 1632poe     o2 6617   4.826   4.532   3.478  0.1476  0.1826 -0.0242
 1632poe    c23 6618   4.767   4.404   3.473  0.4585  0.0374  0.0234
 1632poe    c23 6619   4.824   4.336   3.598  0.1151 -0.0296  0.1440
 1632poe     o2 6620   4.776   4.360   3.728  0.2024  0.2167  0.1314
 1632poe    c23 6621   4.744   4.241   3.797  0.1885  0.3278  0.3185
 1632poe    c23 6622   4.678   4.281   3.930  0.0413 -0.2399  0.4194
 1632poe     o2 6623   4.589   4.389   3.917  0.2815 -0.0539  0.3199
 1632poe    c31 6624   4.450   4.365   3.903  0.2415  0.2415  0.1994
 1633poe    c31 6625   3.963   5.063   6.930  0.1831 -0.7165  0.3648
 1633poe     o2 6626   4.085   5.097   6.992  0.1232  0.0900  0.0465
 1633poe    c23 6627   4.175   5.136   6.891  0.0720  0.0010 -0.0335
 1633poe    c23 6628   4.287   5.198   6.977 -0.0442 -0.6171  0.5814
 1633poe     o2 6629   4.244   5.290   7.074  0.2744  0.0967  0.0601
 1633poe    c23 6630   4.304   5.417   7.057 -0.0585  0.2482  0.0048
 1633poe    c23 6631   4.237   5.524   7.145  0.1271  0.4410 -0.0873
 1633poe     o2 6632   4.253   5.508   7.284 -0.1550  0.6052 -0.0343
 1633poe    c23 6633   4.175   5.596   7.361 -0.8010 -0.4602  0.5517
 1633poe    c23 6634   4.103   5.517   7.472 -0.5257 -0.7144  0.5492
 1633poe     o2 6635   4.002   5.429   7.430 -0.4253 -0.4640 -0.2309
 1633poe    c31 6636   3.893   5.448   7.518  0.1073  0.2634  0.2745
 1634poe    c31 6637   6.629   4.347   6.377  0.5408  0.1322 -0.0080
 1634poe     o2 6638   6.526   4.372   6.284  0.1099  0.0597  0.4469
 1634poe    c23 6639   6.536   4.512   6.268 -0.2439  0.0767  0.3747
 1634poe    c23 6640   6.460   4.555   6.141  0.2733 -0.1356 -0.0076
 1634poe     o2 6641   6.339   4.485   6.157  0.0751  0.0838 -0.5190
 1634poe    c23 6642   6.272   4.483   6.033  0.1371 -0.3960 -0.5484
 1634poe    c23 6643   6.152   4.388   6.050 -0.2314  0.0370 -0.6832
 1634poe     o2 6644   6.207   4.264   6.089 -0.2912  0.0751 -0.4778
 1634poe    c23 6645   6.105   4.169   6.069 -0.5487  0.1561  0.4031
 1634poe    c23 6646   6.166   4.035   6.114 -0.0252  0.3077  0.1423
 1634poe     o2 6647   6.290   4.011   6.050 -0.4320 -0.2266 -0.4559
 1634poe    c31 6648   6.318   3.874   6.032 -0.4498 -0.2830 -0.0709
 1635poe    c31 6649   6.696   5.167   6.419 -0.2866 -0.3387  0.1125
 1635poe     o2 6650   6.721   5.048   6.490 -0.1170 -0.3307  0.0679
 1635poe    c23 6651   6.627   4.944   6.469 -0.3052 -0.1748  0.1379
 1635poe    c23 6652   6.688   4.812   6.517 -0.6937 -0.4073 -0.0031
 1635poe     o2 6653   6.751   4.839   6.640 -0.3228 -0.5702 -0.1554
 1635poe    c23 6654   6.815   4.726   6.693  0.1754 -0.1312  0.1945
 1635poe    c23 6655   6.864   4.766   6.834  0.3791 -0.2997  0.1735
 1635poe     o2 6656   6.947   4.879   6.823  0.1529 -0.1284  0.2154
 1635poe    c23 6657   7.019   4.910   6.940  0.2932 -0.1165  0.1251
 1635poe    c23 6658   7.158   4.963   6.899  0.2408  0.1329  0.2632
 1635poe     o2 6659   7.158   5.076   6.815 -0.2228  0.4706  0.7117
 1635poe    c31 6660   7.287   5.131   6.806  0.1560 -0.4957  0.0250
 1636poe    c31 6661   4.968   1.152   0.436  0.2224  0.4150  0.4432
 1636poe     o2 6662   5.102   1.122   0.467  0.1425 -0.1523  0.2392
 1636poe    c23 6663   5.184   1.195   0.379  0.0045 -0.0401  0.2040
 1636poe    c23 6664   5.326   1.206   0.436  0.1705  0.2876 -0.2645
 1636poe     o2 6665   5.367   1.104   0.525 -0.0086  0.4288 -0.0165
 1636poe    c23 6666   5.497   1.111   0.579 -0.0209  0.2663  0.0351
 1636poe    c23 6667   5.540   0.971   0.624  0.3322  0.5229  0.5078
 1636poe     o2 6668   5.433   0.903   0.686 -0.1168  0.3422 -0.4425
 1636poe    c23 6669   5.487   0.796   0.761 -0.3380  0.7806  0.3577
 1636poe    c23 6670   5.387   0.719   0.850 -0.1647  0.4318  0.2505
 1636poe     o2 6671   5.291   0.658   0.766  0.0672 -0.0358  0.3223
 1636poe    c31 6672   5.187   0.620   0.853  0.0850 -0.1727  0.2841
 1637poe    c31 6673   3.831   2.305   6.968 -0.5266 -0.1013 -0.3917
 1637poe     o2 6674   3.719   2.370   7.025 -0.0014 -0.0415  0.5988
 1637poe    c23 6675   3.609   2.283   7.039 -0.3677  0.2736 -0.2792
 1637poe    c23 6676   3.496   2.371   7.095 -0.7434 -0.5301  0.2417
 1637poe     o2 6677   3.517   2.501   7.044  0.1700 -0.7296  0.0870
 1637poe    c23 6678   3.435   2.584   7.123  0.3411 -0.1112 -0.3834
 1637poe    c23 6679   3.469   2.728   7.079 -0.4181  0.3585  0.5316
 1637poe     o2 6680   3.607   2.725   7.054 -0.5613  0.2681 -0.2953
 1637poe    c23 6681   3.682   2.800   7.148 -0.2668 -0.1458 -0.1971
 1637poe    c23 6682   3.829   2.783   7.105 -0.2385  0.0583 -0.1812
 1637poe     o2 6683   3.856   2.649   7.071  0.0046 -0.0406  0.3911
 1637poe    c31 6684   3.992   2.618   7.092  0.0877 -0.2960 -0.5034
 1638poe    c31 6685   1.560   5.452   3.940  0.5715  0.3299 -0.0846
 1638poe     o2 6686   1.642   5.342   3.907  0.6224  0.1888  0.5042
 1638poe    c23 6687   1.752   5.364   3.822  0.3071  0.2621  0.1086
 1638poe    c23 6688   1.816   5.226   3.797  0.2118  0.1649  0.3954
 1638poe     o2 6689   1.854   5.152   3.911  0.0664  0.0165  0.3481
 1638poe    c23 6690   1.942   5.048   3.874  0.1712  0.1891  0.1107
 1638poe    c23 6691   1.960   4.982   4.011  0.2447  0.2981  0.1531
 1638poe     o2 6692   1.830   4.956   4.059  0.3447 -0.5975 -0.0504
 1638poe    c23 6693   1.844   4.859   4.161  0.5736  0.0033  0.4934
 1638poe    c23 6694   1.716   4.774   4.167  0.3947  0.2555  0.2756
 1638poe     o2 6695   1.607   4.860   4.188  0.3741  0.3209 -0.0879
 1638poe    c31 6696   1.487   4.785   4.188  0.1421  0.6865 -0.4369
 1639poe    c31 6697   4.794   0.027   1.323  0.3844  0.6859  0.1698
 1639poe     o2 6698   4.708   0.108   1.399 -0.0987  0.2039  0.1426
 1639poe    c23 6699   4.714   0.244   1.360  0.5515  0.4551  1.0809
 1639poe    c23 6700   4.627   0.326   1.457 -0.3516  0.3707  0.3520
 1639poe     o2 6701   4.657   0.282   1.587 -0.3169 -0.2912  0.1263
 1639poe    c23 6702   4.613   0.374   1.685 -0.2320 -0.0034 -0.1049
 1639poe    c23 6703   4.680   0.320   1.812 -0.5879  0.2319  0.1856
 1639poe     o2 6704   4.652   0.182   1.822  0.1887  0.0385 -0.1882
 1639poe    c23 6705   4.715   0.121   1.932 -0.9789 -0.2497  0.3448
 1639poe    c23 6706   4.675  -0.019   1.980 -0.8947 -0.2986  0.2722
 1639poe     o2 6707   4.696  -0.116   1.879 -0.6338  0.1049 -0.0682
 1639poe    c31 6708   4.657  -0.246   1.918 -0.0316  0.0833  0.4765
 1640poe    c31 6709   3.819   2.400   5.310  0.3624  0.3272  0.4062
 1640poe     o2 6710   3.719   2.460   5.232  0.0966 -0.3087  0.2482
 1640poe    c23 6711   3.774   2.559   5.148 -0.4715 -0.1044  0.1089
 1640poe    c23 6712   3.668   2.653   5.088 -0.1724  0.0176 -0.2319
 1640poe     o2 6713   3.587   2.584   4.994  0.1627 -0.3282 -0.2702
 1640poe    c23 6714   3.514   2.680   4.921  0.3102 -0.2935 -0.3732
 1640poe    c23 6715   3.411   2.610   4.831 -0.1566  0.0186 -0.0912
 1640poe     o2 6716   3.328   2.535   4.917 -0.3241 -0.2618 -0.4914
 1640poe    c23 6717   3.217   2.481   4.848 -0.9216  0.5682 -0.2039
 1640poe    c23 6718   3.138   2.391   4.945  0.0437  0.5373  0.5765
 1640poe     o2 6719   3.227   2.326   5.034  0.3385  0.0451 -0.0685
 1640poe    c31 6720   3.234   2.187   5.014  0.6810  0.1138 -0.4487
 1641poe    c31 6721   1.112   1.220   1.158  0.3749 -0.2085  0.8975
 1641poe     o2 6722   1.191   1.287   1.253  0.4395  0.2497  0.5268
 1641poe    c23 6723   1.114   1.298   1.371  0.1350 -0.5702  0.4085
 1641poe    c23 6724   1.183   1.386   1.476 -0.2689  0.0315  0.1781
 1641poe     o2 6725   1.309   1.353   1.530 -0.0650  0.3083 -0.1304
 1641poe    c23 6726   1.335   1.442   1.636 -0.0524  0.1283  0.0189
 1641poe    c23 6727   1.478   1.408   1.683 -0.1726 -0.8132 -0.2883
 1641poe     o2 6728   1.564   1.425   1.573 -0.0724 -0.5295 -0.1664
 1641poe    c23 6729   1.700   1.424   1.610 -0.1413 -0.6174  0.0845
 1641poe    c23 6730   1.776   1.443   1.477  0.3040 -0.4568  0.3559
 1641poe     o2 6731   1.707   1.373   1.375  0.1115 -0.0085  0.1787
 1641poe    c31 6732   1.778   1.386   1.254  0.0010 -0.0621  0.1078
 1642poe    c31 6733   0.152   1.325   0.806 -0.2740  0.5434  0.0839
 1642poe     o2 6734   0.199   1.316   0.673 -0.1033  0.9787  0.1103
 1642poe    c23 6735   0.097   1.345   0.580 -0.2349  0.1894 -0.0010
 1642poe    c23 6736   0.163   1.341   0.441 -0.3833 -0.3465 -0.0592
 1642poe     o2 6737   0.237   1.226   0.407 -0.0693 -0.0645 -0.3483
 1642poe    c23 6738   0.267   1.235   0.270  1.1732  0.2484 -0.0676
 1642poe    c23 6739   0.309   1.098   0.213  0.5896 -0.0512  0.2163
 1642poe     o2 6740   0.411   1.047   0.296  0.2979 -0.0545  0.5747
 1642poe    c23 6741   0.446   0.919   0.250 -0.1977 -0.1514  0.4635
 1642poe    c23 6742   0.543   0.862   0.355 -0.0595 -0.0054  0.4148
 1642poe     o2 6743   0.476   0.873   0.478 -0.0069 -0.0788  0.4501
 1642poe    c31 6744   0.524   0.794   0.585 -0.0862 -0.0745  0.4897
 1643poe    c31 6745   4.136   5.049   2.783 -0.2522 -0.7115 -0.1619
 1643poe     o2 6746   4.156   5.133   2.895  0.2918  0.0607 -0.8357
 1643poe    c23 6747   4.047   5.220   2.918  0.2769 -0.2569  0.3115
 1643poe    c23 6748   4.081   5.319   3.031 -0.0714  0.1316  0.0750
 1643poe     o2 6749   4.103   5.262   3.158 -0.0636  0.4231  0.2058
 1643poe    c23 6750   4.136   5.355   3.258  0.1686  0.2224  0.3170
 1643poe    c23 6751   4.159   5.280   3.390  0.2960  0.3088  0.3451
 1643poe     o2 6752   4.040   5.233   3.451  0.1991 -0.2433 -0.2618
 1643poe    c23 6753   4.072   5.171   3.574 -0.4258 -0.2671 -0.1106
 1643poe    c23 6754   4.045   5.020   3.563  0.3051 -0.4709  0.7713
 1643poe     o2 6755   3.910   4.981   3.554  0.2730 -0.2329  0.1362
 1643poe    c31 6756   3.874   4.864   3.485 -0.0136 -0.1276  0.1037
 1644poe    c31 6757   4.762   6.379   3.572  0.5686 -0.0354 -0.1282
 1644poe     o2 6758   4.825   6.500   3.536  0.1110  0.3773  0.4502
 1644poe    c23 6759   4.959   6.473   3.503 -0.0936 -0.0971  0.0069
 1644poe    c23 6760   5.040   6.603   3.516  0.1278 -0.2142 -0.1899
 1644poe     o2 6761   4.966   6.693   3.436 -0.2783 -0.1203  0.2874
 1644poe    c23 6762   5.055   6.803   3.438 -0.2696 -0.1170 -0.1131
 1644poe    c23 6763   5.024   6.898   3.321  1.0626  0.6262  0.1234
 1644poe     o2 6764   4.898   6.961   3.320  0.5408 -0.3791  0.4950
 1644poe    c23 6765   4.884   7.027   3.196  0.7599  0.3328  0.8387
 1644poe    c23 6766   4.739   7.076   3.177  0.7117 -0.0298  0.2148
 1644poe     o2 6767   4.710   7.188   3.258 -0.3286 -0.1997  0.0847
 1644poe    c31 6768   4.569   7.185   3.269 -0.3295 -0.5111 -0.0156
 1645poe    c31 6769   2.056   5.250   1.159  0.4775 -0.2211 -0.4634
 1645poe     o2 6770   1.937   5.180   1.133  0.2684  0.1020 -0.3844
 1645poe    c23 6771   1.841   5.268   1.082 -0.0397 -0.0478 -0.0727
 1645poe    c23 6772   1.706   5.199   1.051  0.3702 -0.7636 -0.2711
 1645poe     o2 6773   1.643   5.162   1.171 -0.2018  0.1254 -0.2900
 1645poe    c23 6774   1.539   5.073   1.137 -0.3300  0.1260  0.0915
 1645poe    c23 6775   1.485   4.993   1.256 -0.1344 -0.5562 -0.2746
 1645poe     o2 6776   1.585   4.931   1.335  0.0749 -0.2335 -0.2845
 1645poe    c23 6777   1.534   4.840   1.430 -0.1088 -0.1522 -0.3040
 1645poe    c23 6778   1.640   4.802   1.534 -0.0116  0.0516 -0.3282
 1645poe     o2 6779   1.701   4.925   1.566 -0.4717  0.0851  0.4321
 1645poe    c31 6780   1.806   4.894   1.655  0.1316  0.1476 -0.2558
 1646poe    c31 6781   5.455   5.079   5.760 -0.0744  0.4299 -0.1061
 1646poe     o2 6782   5.445   5.183   5.665 -0.1274  0.5604  0.0421
 1646poe    c23 6783   5.395   5.304   5.717 -0.7119  0.2702  0.1659
 1646poe    c23 6784   5.359   5.399   5.602  0.0277  0.2279 -0.1074
 1646poe     o2 6785   5.465   5.380   5.511 -0.0756  0.3154 -0.2463
 1646poe    c23 6786   5.427   5.457   5.399 -0.2039  0.4240 -0.1293
 1646poe    c23 6787   5.545   5.415   5.308 -0.3550 -0.2344 -0.0288
 1646poe     o2 6788   5.554   5.275   5.296 -0.6539 -0.2520 -0.0643
 1646poe    c23 6789   5.658   5.246   5.205 -0.5727  0.0179 -0.0580
 1646poe    c23 6790   5.679   5.094   5.207 -0.2990  0.0558 -0.0003
 1646poe     o2 6791   5.721   5.028   5.324 -0.2994 -0.4799 -0.2952
 1646poe    c31 6792   5.787   4.908   5.291 -0.7125 -0.8704  0.2854
 1647poe    c31 6793   6.640   3.607   6.928  0.1248 -0.7856  0.0934
 1647poe     o2 6794   6.586   3.638   6.802 -0.0845 -0.3915  0.2808
 1647poe    c23 6795   6.669   3.598   6.695  0.0511  0.1156  0.1934
 1647poe    c23 6796   6.592   3.588   6.562 -0.1083 -0.1684  0.3072
 1647poe     o2 6797   6.505   3.479   6.539  0.0053 -0.2162  0.0970
 1647poe    c23 6798   6.424   3.506   6.427  0.3457  0.5894  0.0407
 1647poe    c23 6799   6.277   3.541   6.457  0.1268 -0.4000  0.1470
 1647poe     o2 6800   6.239   3.662   6.518  0.7925 -0.0901 -0.0436
 1647poe    c23 6801   6.244   3.775   6.434 -0.4685  0.3805  0.4866
 1647poe    c23 6802   6.308   3.897   6.503 -0.2172  0.6015 -0.1278
 1647poe     o2 6803   6.274   3.900   6.640 -0.3691  0.4830 -0.1629
 1647poe    c31 6804   6.341   4.010   6.698 -0.6087  0.4385  0.2090
 1648poe    c31 6805   0.462   2.913   1.149 -0.0992 -0.2713 -0.0135
 1648poe     o2 6806   0.558   2.872   1.054  0.0060 -0.2505  0.0835
 1648poe    c23 6807   0.488   2.809   0.949  0.0674  0.4991 -0.4136
 1648poe    c23 6808   0.593   2.724   0.876 -0.0500 -0.2669  0.2886
 1648poe     o2 6809   0.666   2.813   0.794 -0.1299 -0.4605  0.0055
 1648poe    c23 6810   0.777   2.746   0.738 -0.0499 -0.2059 -0.1407
 1648poe    c23 6811   0.895   2.832   0.688 -0.2286  0.3079  0.3078
 1648poe     o2 6812   0.946   2.898   0.801  0.2019  0.6272 -0.0721
 1648poe    c23 6813   1.072   2.951   0.765  0.3968  0.0575 -0.2376
 1648poe    c23 6814   1.137   2.994   0.898 -0.1010 -0.3854  0.1561
 1648poe     o2 6815   1.041   3.066   0.971  0.1778  0.3621 -0.1945
 1648poe    c31 6816   1.107   3.101   1.091 -0.1126 -0.4406  0.2085
 1649poe    c31 6817   2.564   1.419   3.853  0.0201  0.6129 -0.3072
 1649poe     o2 6818   2.607   1.432   3.987  0.6224  0.6642 -0.5014
 1649poe    c23 6819   2.554   1.549   4.045 -0.2822  0.0002  0.0472
 1649poe    c23 6820   2.621   1.583   4.180 -0.1673  0.3280 -0.0917
 1649poe     o2 6821   2.761   1.570   4.194 -0.2825 -0.3079  0.5078
 1649poe    c23 6822   2.795   1.589   4.329  0.3910 -0.2108  0.3277
 1649poe    c23 6823   2.937   1.648   4.342  0.3185  0.0569 -0.0786
 1649poe     o2 6824   3.025   1.556   4.281  0.3657  0.3506 -0.4602
 1649poe    c23 6825   3.153   1.614   4.274  0.5495  0.0230  0.1257
 1649poe    c23 6826   3.233   1.495   4.219 -0.3229 -0.6042  0.1921
 1649poe     o2 6827   3.164   1.454   4.103 -0.1656 -0.5834  0.0899
 1649poe    c31 6828   3.255   1.381   4.024  0.3787 -0.2687  0.4158
 1650poe    c31 6829   3.112   1.369   1.939  0.0217 -0.4996 -0.1881
 1650poe     o2 6830   3.120   1.510   1.935  0.1009 -0.5005 -0.0331
 1650poe    c23 6831   3.079   1.554   2.063  0.1599 -0.0702 -0.1609
 1650poe    c23 6832   3.012   1.692   2.073  0.1333 -0.1373  0.5813
 1650poe     o2 6833   3.117   1.778   2.035 -0.0127 -0.2913 -0.1712
 1650poe    c23 6834   3.077   1.913   2.027  0.1254 -0.2616 -0.3688
 1650poe    c23 6835   3.196   2.003   2.067 -0.1102 -0.0226 -0.2019
 1650poe     o2 6836   3.297   1.981   1.971  0.0701  0.5277 -0.1396
 1650poe    c23 6837   3.432   1.978   2.012 -0.0146 -0.5777  0.0909
 1650poe    c23 6838   3.513   1.995   1.882 -0.2561  0.8515  0.1122
 1650poe     o2 6839   3.460   1.903   1.790  0.4232  0.1324  0.4236
 1650poe    c31 6840   3.566   1.846   1.716  0.0812  0.0491 -0.0041
 1651poe    c31 6841   2.150   4.631   4.142 -0.5653 -0.0679  0.4972
 1651poe     o2 6842   2.016   4.631   4.099 -0.3042  0.3709 -0.3387
 1651poe    c23 6843   1.999   4.533   3.999 -0.3654  0.0189  0.0139
 1651poe    c23 6844   1.854   4.527   3.949 -0.3837 -0.1664  0.0868
 1651poe     o2 6845   1.761   4.479   4.044 -0.3484  0.3589  0.3933
 1651poe    c23 6846   1.648   4.432   3.973  0.2918  0.0106 -0.4191
 1651poe    c23 6847   1.542   4.377   4.070  0.2513  0.6975 -0.0645
 1651poe     o2 6848   1.602   4.286   4.161 -0.2618  0.1367 -0.2785
 1651poe    c23 6849   1.507   4.199   4.218 -0.3488  0.2127 -0.3054
 1651poe    c23 6850   1.560   4.101   4.325 -0.2489  0.6770  0.0723
 1651poe     o2 6851   1.552   4.153   4.455 -0.0114 -0.2821  0.4785
 1651poe    c31 6852   1.630   4.070   4.537  0.2806 -0.3421  0.1416
 1652poe    c31 6853   1.054   4.211   4.706 -0.6354 -0.3791 -0.0044
 1652poe     o2 6854   1.039   4.171   4.572  0.2610  0.0952 -0.2564
 1652poe    c23 6855   1.159   4.139   4.504  0.3326 -0.6138  0.1893
 1652poe    c23 6856   1.137   4.101   4.356 -0.0734 -0.0575  0.1051
 1652poe     o2 6857   1.129   4.219   4.279 -0.0586 -0.0779  0.0721
 1652poe    c23 6858   1.154   4.177   4.147  0.7139  0.5390  0.0108
 1652poe    c23 6859   1.043   4.227   4.052  0.0797  0.2894  0.6068
 1652poe     o2 6860   1.018   4.366   4.054 -0.2918  0.2382 -0.1292
 1652poe    c23 6861   1.100   4.446   3.972  0.0144  0.0054 -0.0546
 1652poe    c23 6862   1.075   4.592   4.013 -0.1926  0.1947 -0.8238
 1652poe     o2 6863   1.117   4.613   4.146  0.3609  0.0206 -0.9660
 1652poe    c31 6864   1.091   4.745   4.190  0.5483 -0.1264 -0.4087
 1653poe    c31 6865   6.923   1.235   0.990  0.0619 -0.1461 -0.1148
 1653poe     o2 6866   6.861   1.176   0.878  0.1638 -0.0837 -0.2029
 1653poe    c23 6867   6.915   1.058   0.823  0.0962 -0.0653 -0.3099
 1653poe    c23 6868   6.892   0.924   0.897 -0.1758 -0.1768 -0.5922
 1653poe     o2 6869   6.960   0.896   1.017  0.1223 -0.4962 -0.8344
 1653poe    c23 6870   6.941   0.760   1.050  0.5657 -0.4266 -0.2687
 1653poe    c23 6871   6.988   0.718   1.191 -0.0695  0.1598  0.1246
 1653poe     o2 6872   6.920   0.772   1.302 -0.0222  0.0298  0.2160
 1653poe    c23 6873   6.874   0.670   1.388 -0.1410  0.1875  0.3384
 1653poe    c23 6874   6.854   0.733   1.528 -0.3155  0.5476  0.1533
 1653poe     o2 6875   6.809   0.864   1.504 -0.2604  0.5172 -0.1249
 1653poe    c31 6876   6.781   0.924   1.629 -0.4796 -0.2238  0.1875
 1654poe    c31 6877   0.132   3.681   3.778 -0.2852  0.1385  0.0376
 1654poe     o2 6878   0.019   3.712   3.700 -0.3934  0.1907  0.2136
 1654poe    c23 6879  -0.045   3.598   3.649  0.0681 -0.1262  0.3372
 1654poe    c23 6880  -0.183   3.638   3.593  0.3045  0.3260  0.0780
 1654poe     o2 6881  -0.175   3.706   3.470  0.5455  0.1937  0.0201
 1654poe    c23 6882  -0.300   3.736   3.412  0.6748  0.4606 -0.1234
 1654poe    c23 6883  -0.287   3.774   3.263  0.4157  0.4205 -0.1569
 1654poe     o2 6884  -0.187   3.874   3.269  0.5818  0.2493 -0.0294
 1654poe    c23 6885  -0.173   3.948   3.150  0.4990  0.0522 -0.1623
 1654poe    c23 6886  -0.077   4.063   3.186  0.3583  0.0845  0.1055
 1654poe     o2 6887   0.020   4.009   3.273 -0.0475  0.0309  0.5322
 1654poe    c31 6888   0.116   4.100   3.323  0.5459 -0.3211  0.0499
 1655poe    c31 6889   5.157   6.716   5.225  0.0979  0.6088  0.2074
 1655poe     o2 6890   5.194   6.625   5.326 -0.4227  0.0367 -0.1065
 1655poe    c23 6891   5.289   6.537   5.272 -0.2223  0.2445 -0.0943
 1655poe    c23 6892   5.355   6.432   5.364  0.1506  0.6013  0.0455
 1655poe     o2 6893   5.275   6.330   5.418  0.1017  0.5264 -0.1710
 1655poe    c23 6894   5.194   6.363   5.529  0.4138 -0.4660  0.3691
 1655poe    c23 6895   5.102   6.254   5.586 -0.1178 -0.2667 -0.1033
 1655poe     o2 6896   5.188   6.153   5.634  0.2986  0.1581  0.0540
 1655poe    c23 6897   5.121   6.034   5.598  0.5859 -0.0269  0.1321
 1655poe    c23 6898   5.180   5.929   5.695 -0.2435 -0.6137  0.0116
 1655poe     o2 6899   5.296   5.882   5.631  0.1066  0.0120  0.1805
 1655poe    c31 6900   5.348   5.774   5.706 -0.4979 -0.5335 -0.1730
 1656poe    c31 6901   2.081   6.980   0.778  0.9693  0.1639 -0.3041
 1656poe     o2 6902   2.132   6.988   0.909  0.4552 -0.6960 -0.0501
 1656poe    c23 6903   2.054   7.088   0.971  0.1361 -0.6816 -0.4675
 1656poe    c23 6904   2.132   7.143   1.092 -0.3188  0.0712 -0.5138
 1656poe     o2 6905   2.185   7.034   1.164 -0.2438  0.1110 -0.5089
 1656poe    c23 6906   2.255   7.073   1.280 -0.9284 -0.1776  0.0139
 1656poe    c23 6907   2.269   6.959   1.382  0.2483  0.2331  0.3326
 1656poe     o2 6908   2.324   6.852   1.309  0.2072 -0.0756  0.7511
 1656poe    c23 6909   2.330   6.738   1.392 -0.4658 -0.7250 -0.0628
 1656poe    c23 6910   2.401   6.623   1.319 -0.0790 -0.5876  0.0917
 1656poe     o2 6911   2.313   6.574   1.220 -0.2229 -0.1999  0.0276
 1656poe    c31 6912   2.359   6.466   1.141 -0.2699 -0.0307 -0.2332
 1657poe    c31 6913   2.735   4.763   1.036 -0.1023  0.3778  0.1686
 1657poe     o2 6914   2.682   4.665   1.122  0.1772 -0.1812 -0.2961
 1657poe    c23 6915   2.544   4.644   1.100  0.0619 -0.3289  0.5481
 1657poe    c23 6916   2.511   4.537   0.995  0.3647  0.1449 -0.0353
 1657poe     o2 6917   2.557   4.410   1.035  0.3871  0.1947  0.0981
 1657poe    c23 6918   2.597   4.337   0.921 -0.5583 -0.0958 -0.0632
 1657poe    c23 6919   2.640   4.200   0.977 -0.1760  0.1879  0.3531
 1657poe     o2 6920   2.718   4.211   1.094  0.5440 -0.0353 -0.1013
 1657poe    c23 6921   2.741   4.082   1.144  0.2582 -0.2734 -0.5788
 1657poe    c23 6922   2.852   4.094   1.249 -0.6784 -0.2709  0.4238
 1657poe     o2 6923   2.839   4.219   1.312 -0.1941  0.2424 -0.4843
 1657poe    c31 6924   2.920   4.218   1.427 -0.7558 -0.8621 -0.0889
 1658poe    c31 6925   2.208   2.959   1.737 -0.3310  0.2155 -0.0432
 1658poe     o2 6926   2.252   3.076   1.671  0.3008 -0.1448 -0.2668
 1658poe    c23 6927   2.159   3.112   1.571 -0.7201  0.7252  0.9802
 1658poe    c23 6928   2.203   3.253   1.527 -0.3083  0.2880 -0.0310
 1658poe     o2 6929   2.226   3.317   1.651 -0.1068  0.2348 -0.0407
 1658poe    c23 6930   2.241   3.455   1.630 -0.5716  0.3299  0.2354
 1658poe    c23 6931   2.295   3.514   1.761 -0.0466 -0.2050  0.2648
 1658poe     o2 6932   2.407   3.438   1.800 -0.0375 -0.5227 -0.3777
 1658poe    c23 6933   2.497   3.502   1.887 -0.1958 -0.9313  0.0870
 1658poe    c23 6934   2.640   3.482   1.833 -0.0713  0.5536 -0.1646
 1658poe     o2 6935   2.686   3.352   1.802 -0.1524  0.5760 -0.3778
 1658poe    c31 6936   2.804   3.371   1.727  0.1494 -0.2673 -0.1237
 1659poe    c31 6937   5.460   4.770   6.182 -0.5137  0.2809 -0.0306
 1659poe     o2 6938   5.444   4.807   6.317  0.5422 -0.2700  0.2578
 1659poe    c23 6939   5.475   4.945   6.329 -0.2527 -0.0587 -0.0694
 1659poe    c23 6940   5.452   4.982   6.476 -0.5179 -0.0719 -0.1065
 1659poe     o2 6941   5.358   4.898   6.538 -0.2925  0.0501  0.4064
 1659poe    c23 6942   5.312   4.953   6.660 -0.3845  0.4279  0.2016
 1659poe    c23 6943   5.220   4.847   6.724 -0.0688  0.1718  0.2315
 1659poe     o2 6944   5.307   4.741   6.758 -0.2163  0.1104  0.4211
 1659poe    c23 6945   5.236   4.620   6.771 -0.6154  0.2102 -0.7181
 1659poe    c23 6946   5.336   4.525   6.839 -0.0218  0.8546 -0.6803
 1659poe     o2 6947   5.430   4.480   6.744  0.0675 -0.2041 -0.0997
 1659poe    c31 6948   5.531   4.410   6.814 -0.1354 -0.6552 -0.2568
 1660poe    c31 6949   4.235   4.905   4.868  0.3630  0.4587 -0.2786
 1660poe     o2 6950   4.210   4.960   4.996 -0.1118 -0.1617 -0.1027
 1660poe    c23 6951   4.129   4.868   5.066  0.3647 -0.1552  0.4652
 1660poe    c23 6952   4.131   4.937   5.204  0.1856 -0.0109  0.3963
 1660poe     o2 6953   4.062   5.060   5.195 -0.4934 -0.4425 -0.4860
 1660poe    c23 6954   4.064   5.111   5.326  0.4029  0.2727 -0.7742
 1660poe    c23 6955   4.008   5.253   5.344 -0.7065 -0.2065 -0.3364
 1660poe     o2 6956   4.065   5.318   5.232  0.1209 -0.5875 -0.1444
 1660poe    c23 6957   4.031   5.455   5.222 -0.1889 -0.6973 -0.6495
 1660poe    c23 6958   4.098   5.505   5.093  0.3085 -0.2640 -0.2261
 1660poe     o2 6959   4.038   5.427   4.992  0.6152 -0.1689 -0.4848
 1660poe    c31 6960   4.045   5.482   4.863 -0.1023  0.4039 -0.2804
 1661poe    c31 6961   2.987   2.956   4.321 -0.4441  0.5901  0.5150
 1661poe     o2 6962   3.055   2.875   4.414  0.0673  0.5091  0.0721
 1661poe    c23 6963   2.990   2.750   4.407  0.3082  0.3803  0.0978
 1661poe    c23 6964   3.081   2.638   4.460  0.4163  0.3072 -0.2387
 1661poe     o2 6965   3.174   2.585   4.368  0.1185  0.4188 -0.6068
 1661poe    c23 6966   3.110   2.491   4.285  0.1313  0.1088 -0.2665
 1661poe    c23 6967   3.083   2.350   4.340  0.4651  0.1814  0.0869
 1661poe     o2 6968   2.975   2.322   4.426  0.6515 -0.3048  0.1697
 1661poe    c23 6969   2.851   2.304   4.360  0.3569  0.0163  0.6252
 1661poe    c23 6970   2.736   2.268   4.455  0.3813 -0.1876  0.5780
 1661poe     o2 6971   2.680   2.386   4.508 -0.1295 -0.1867  0.0478
 1661poe    c31 6972   2.705   2.399   4.646 -0.3152  0.0765  0.0585
 1662poe    c31 6973   6.184   2.792   2.055  0.4627 -0.6525 -0.2608
 1662poe     o2 6974   6.087   2.696   2.090 -0.4677  0.3228 -0.1150
 1662poe    c23 6975   6.112   2.659   2.224 -0.3781 -0.0661 -0.2397
 1662poe    c23 6976   5.980   2.652   2.304 -0.1623  0.0284  0.1271
 1662poe     o2 6977   5.888   2.564   2.244 -0.3343 -0.1250  0.6222
 1662poe    c23 6978   5.765   2.570   2.313 -0.2424  0.2901  0.7526
 1662poe    c23 6979   5.654   2.496   2.235  0.5887  0.4270 -0.5783
 1662poe     o2 6980   5.690   2.365   2.200  0.0857  0.2457 -0.4224
 1662poe    c23 6981   5.591   2.321   2.110  0.0736  0.2356 -0.4042
 1662poe    c23 6982   5.663   2.214   2.025 -0.3684 -0.1760 -0.2627
 1662poe     o2 6983   5.778   2.268   1.966 -0.4685  0.0466 -0.2533
 1662poe    c31 6984   5.830   2.200   1.854 -0.2543  0.4680 -0.4128
 1663poe    c31 6985   2.006   5.493   5.922 -0.0674 -0.4868  0.1664
 1663poe     o2 6986   2.120   5.447   5.853  0.1931  0.4752 -0.0519
 1663poe    c23 6987   2.157   5.518   5.736  0.6060 -0.1697 -0.3194
 1663poe    c23 6988   2.228   5.424   5.638  0.3764 -0.0309 -0.6211
 1663poe     o2 6989   2.150   5.316   5.591  0.3629 -0.1495 -0.3287
 1663poe    c23 6990   2.214   5.224   5.506 -0.0247 -0.0391 -0.7437
 1663poe    c23 6991   2.116   5.115   5.459 -0.0186 -0.5091  0.3233
 1663poe     o2 6992   2.068   5.061   5.580  0.1610 -0.0087  0.6228
 1663poe    c23 6993   1.976   4.955   5.561  0.2726 -0.0934  0.5541
 1663poe    c23 6994   1.905   4.920   5.694  0.4989 -0.6135  0.5391
 1663poe     o2 6995   1.879   5.041   5.761  0.1065 -0.2809 -0.2031
 1663poe    c31 6996   1.819   5.011   5.885 -0.2908 -0.3101 -0.3978
 1664poe    c31 6997   5.125   3.511   6.520  0.0412 -0.7935 -0.2119
 1664poe     o2 6998   5.222   3.612   6.528 -0.4570 -0.3159 -0.1222
 1664poe    c23 6999   5.343   3.563   6.473 -0.1028 -0.2824  0.6138
 1664poe    c23 7000   5.452   3.667   6.505  0.1041 -0.2113 -0.3140
 1664poe     o2 7001   5.423   3.728   6.628  0.4819 -0.2587 -0.2009
 1664poe    c23 7002   5.511   3.833   6.663  0.4936 -0.3336 -0.0095
 1664poe    c23 7003   5.477   3.887   6.804 -0.0803 -0.2100 -0.1917
 1664poe     o2 7004   5.343   3.929   6.803 -0.1406 -0.3979 -0.0503
 1664poe    c23 7005   5.286   3.955   6.929 -0.4934 -0.2860 -0.2315
 1664poe    c23 7006   5.136   3.991   6.922 -0.4802 -0.1416  0.1923
 1664poe     o2 7007   5.049   3.887   6.883 -0.0472 -0.6124  0.4682
 1664poe    c31 7008   4.919   3.937   6.867  0.0715 -0.3201  0.4075
 1665poe    c31 7009   1.328   0.127   0.129 -0.2111 -0.2589  0.4167
 1665poe     o2 7010   1.371   0.127   0.264  0.4087  0.4441  0.2237
 1665poe    c23 7011   1.470   0.026   0.265 -0.3582 -0.3122  0.0906
 1665poe    c23 7012   1.503  -0.019   0.408 -0.2881 -0.5369  0.0032
 1665poe     o2 7013   1.578   0.069   0.488 -0.5943 -0.0127 -0.2855
 1665poe    c23 7014   1.586   0.047   0.627 -0.0077 -0.1645 -0.3406
 1665poe    c23 7015   1.454   0.073   0.701 -0.2166 -0.3054 -0.6633
 1665poe     o2 7016   1.396   0.201   0.698  0.2201 -0.0673  0.4553
 1665poe    c23 7017   1.271   0.209   0.764  0.0994 -0.2517  0.2513
 1665poe    c23 7018   1.174   0.269   0.661 -0.3518 -0.2900  0.6559
 1665poe     o2 7019   1.195   0.408   0.653 -0.4286 -0.2999  0.2834
 1665poe    c31 7020   1.121   0.465   0.547 -0.2204  0.3139  0.4630
 1666poe    c31 7021   0.049   6.574   3.510  0.2239 -0.3421 -0.0443
 1666poe     o2 7022  -0.017   6.489   3.419  0.0538  0.0688 -0.3071
 1666poe    c23 7023  -0.024   6.537   3.287  1.2498 -0.4144 -0.5535
 1666poe    c23 7024  -0.109   6.430   3.215 -0.3666  0.3554  0.1678
 1666poe     o2 7025  -0.238   6.414   3.269 -0.4499 -0.6073 -0.2958
 1666poe    c23 7026  -0.323   6.344   3.181 -0.6072  0.2042 -0.8029
 1666poe    c23 7027  -0.384   6.416   3.059 -0.2093  0.4472 -0.8602
 1666poe     o2 7028  -0.471   6.521   3.093 -0.4915 -0.2523  0.6874
 1666poe    c23 7029  -0.578   6.515   3.001  0.0788  0.1535 -0.0128
 1666poe    c23 7030  -0.681   6.628   3.017 -0.4374 -0.3679  0.4059
 1666poe     o2 7031  -0.736   6.642   3.146 -0.4509 -0.1025  0.3723
 1666poe    c31 7032  -0.852   6.563   3.163 -0.4019 -0.2300  0.1191
 1667poe    c31 7033   3.315   0.662   5.313 -0.0288  0.1347 -0.1878
 1667poe     o2 7034   3.206   0.581   5.274 -0.4309  0.4924  0.1832
 1667poe    c23 7035   3.110   0.602   5.375 -0.0400 -0.1379  0.6869
 1667poe    c23 7036   3.007   0.492   5.408  0.1342 -0.4284  0.2650
 1667poe     o2 7037   2.915   0.456   5.306  0.2762  0.3992 -0.1649
 1667poe    c23 7038   2.959   0.362   5.210  0.0287 -0.0217  0.1302
 1667poe    c23 7039   2.875   0.334   5.085  0.0104 -0.5016  0.2487
 1667poe     o2 7040   2.754   0.264   5.102 -0.0894 -0.2511  0.5654
 1667poe    c23 7041   2.646   0.354   5.099 -0.4691 -0.7270 -0.5272
 1667poe    c23 7042   2.518   0.277   5.136 -0.3417 -0.5706  0.2623
 1667poe     o2 7043   2.510   0.195   5.250 -0.3216  0.2361  0.8515
 1667poe    c31 7044   2.399   0.109   5.237  0.4589 -0.6783 -0.0045
 1668poe    c31 7045   0.977   2.817   5.669 -0.0039  0.3639  0.1983
 1668poe     o2 7046   0.869   2.864   5.591 -0.7373 -0.6851  0.5507
 1668poe    c23 7047   0.859   2.798   5.467  1.0575 -0.4466  0.2525
 1668poe    c23 7048   0.718   2.803   5.405  1.3593  0.1061 -0.4046
 1668poe     o2 7049   0.670   2.927   5.359  0.2361 -0.1519  0.0445
 1668poe    c23 7050   0.551   2.915   5.284  0.0399  0.4147  0.2616
 1668poe    c23 7051   0.484   3.046   5.239  0.1415  0.2939 -0.2497
 1668poe     o2 7052   0.549   3.125   5.142  0.7030  0.0243 -0.0943
 1668poe    c23 7053   0.476   3.241   5.108  0.3502 -0.0386  0.4285
 1668poe    c23 7054   0.530   3.314   4.984 -0.3473 -0.2325  0.0039
 1668poe     o2 7055   0.637   3.390   5.035 -0.2487 -0.1643 -0.3022
 1668poe    c31 7056   0.711   3.461   4.938  0.2444  0.2734  0.3861
 1669poe    c31 7057   3.380   4.421   3.192  0.5275 -0.0520 -0.3138
 1669poe     o2 7058   3.362   4.391   3.056 -0.4334  0.1791 -0.2468
 1669poe    c23 7059   3.276   4.490   3.004 -0.3633  0.1635 -0.3943
 1669poe    c23 7060   3.261   4.482   2.851 -0.4148 -0.2291 -0.3688
 1669poe     o2 7061   3.388   4.430   2.816 -0.2466  0.1179 -0.2779
 1669poe    c23 7062   3.411   4.396   2.681  0.2577 -0.5632 -0.0254
 1669poe    c23 7063   3.557   4.397   2.632  0.1578  0.2413 -0.3207
 1669poe     o2 7064   3.622   4.296   2.705  0.3139  0.3841 -0.2642
 1669poe    c23 7065   3.760   4.299   2.675  0.2839  0.4037 -0.3999
 1669poe    c23 7066   3.856   4.250   2.785 -0.1293 -0.1734 -0.2881
 1669poe     o2 7067   3.885   4.346   2.885 -0.0978 -0.1314 -0.3376
 1669poe    c31 7068   4.001   4.314   2.958 -0.1234 -0.2309 -0.3401
 1670poe    c31 7069   2.278   3.057   3.650 -0.2826 -0.0519  0.4225
 1670poe     o2 7070   2.283   3.147   3.758  0.3947  0.3682  0.0488
 1670poe    c23 7071   2.378   3.246   3.728  0.4678  0.2684 -0.0495
 1670poe    c23 7072   2.316   3.386   3.711  0.3367  0.2631  0.3812
 1670poe     o2 7073   2.257   3.419   3.835 -0.0082 -0.0493  0.3010
 1670poe    c23 7074   2.343   3.488   3.923 -0.1120  0.4668  0.0015
 1670poe    c23 7075   2.295   3.459   4.066  0.1778  0.1178  0.0306
 1670poe     o2 7076   2.155   3.469   4.070  0.1632 -0.1822  0.4806
 1670poe    c23 7077   2.102   3.423   4.192  0.4245 -0.8301  0.3499
 1670poe    c23 7078   1.948   3.427   4.184  0.4616 -0.0976 -0.0560
 1670poe     o2 7079   1.905   3.405   4.051  0.3967  0.4073 -0.1226
 1670poe    c31 7080   1.765   3.385   4.055  0.3730  0.5728 -0.1206
 1671poe    c31 7081   5.974   4.907   4.879  0.2103 -0.2324  0.1541
 1671poe     o2 7082   5.872   4.810   4.894 -0.2742  0.1800 -0.4166
 1671poe    c23 7083   5.770   4.839   4.802 -0.2436 -0.1831 -0.5655
 1671poe    c23 7084   5.647   4.753   4.837 -0.0259 -0.1309  0.3400
 1671poe     o2 7085   5.649   4.626   4.776 -0.0373 -0.0436  0.1578
 1671poe    c23 7086   5.541   4.623   4.685  0.1120 -0.3528 -0.0118
 1671poe    c23 7087   5.537   4.479   4.630  0.1381 -0.2305 -0.3360
 1671poe     o2 7088   5.651   4.460   4.550  0.3358 -0.1328 -0.0819
 1671poe    c23 7089   5.643   4.332   4.489  0.2743 -0.0938 -0.1559
 1671poe    c23 7090   5.772   4.247   4.482  0.1448 -0.3168  0.1324
 1671poe     o2 7091   5.800   4.174   4.599  0.0814  0.2455  0.5030
 1671poe    c31 7092   5.897   4.076   4.570 -0.5771 -0.2910  0.0859
 1672poe    c31 7093   4.045   4.903   3.969  0.2129 -0.1442 -0.1346
 1672poe     o2 7094   4.142   4.857   3.877  0.6054  0.0252  0.1949
 1672poe    c23 7095   4.157   4.717   3.871  0.3479 -0.0043  0.2479
 1672poe    c23 7096   4.256   4.674   3.762  0.1720  0.0907  0.0479
 1672poe     o2 7097   4.387   4.711   3.799  0.1689  0.1995 -0.0525
 1672poe    c23 7098   4.486   4.700   3.699 -0.1357 -0.3943 -0.2893
 1672poe    c23 7099   4.568   4.829   3.682  0.1190 -0.4965  0.1693
 1672poe     o2 7100   4.676   4.838   3.772 -0.0605  0.1430  0.3226
 1672poe    c23 7101   4.673   4.954   3.853 -0.4041  0.2315  0.1848
 1672poe    c23 7102   4.816   4.982   3.903 -0.2420 -0.0601 -0.1059
 1672poe     o2 7103   4.863   4.863   3.962 -0.0990 -0.2084 -0.5160
 1672poe    c31 7104   5.003   4.866   3.968 -0.1141 -0.1812 -0.0837
 1673poe    c31 7105   6.697   5.272   4.718 -0.5749  1.0540  0.5494
 1673poe     o2 7106   6.811   5.347   4.683  0.2172 -0.3652 -0.0343
 1673poe    c23 7107   6.938   5.346   4.743  0.0275  0.7036  0.4121
 1673poe    c23 7108   7.047   5.409   4.654  0.4049 -0.2502  0.1833
 1673poe     o2 7109   7.011   5.545   4.638  0.0377 -0.4179 -0.4452
 1673poe    c23 7110   7.107   5.618   4.566  0.2745  0.0731  0.3520
 1673poe    c23 7111   7.047   5.746   4.504  0.0338 -0.2004  0.0154
 1673poe     o2 7112   7.014   5.855   4.587 -0.1154 -0.0324 -0.2635
 1673poe    c23 7113   6.951   5.941   4.495  0.0499  0.0268 -0.3214
 1673poe    c23 7114   6.921   6.082   4.547 -0.1053 -0.0895 -0.0953
 1673poe     o2 7115   7.039   6.146   4.590  0.1541 -0.9444  0.4826
 1673poe    c31 7116   7.010   6.256   4.673  0.3144 -0.2969 -0.3038
 1674poe    c31 7117   6.809   4.133   2.735  0.1223 -0.2492 -0.5915
 1674poe     o2 7118   6.755   4.201   2.846  0.4880  0.1384 -0.6465
 1674poe    c23 7119   6.622   4.164   2.872  0.5299  0.5792  0.2226
 1674poe    c23 7120   6.570   4.230   3.002  0.1821 -0.0250  0.3983
 1674poe     o2 7121   6.565   4.370   2.989 -0.1467 -0.0995 -0.3704
 1674poe    c23 7122   6.514   4.406   3.115 -0.4846  0.2013 -0.5903
 1674poe    c23 7123   6.478   4.554   3.093 -0.0792  0.3355 -0.3638
 1674poe     o2 7124   6.591   4.609   3.029  0.4239 -0.4813 -0.1999
 1674poe    c23 7125   6.571   4.747   3.004  0.1848 -0.5394 -0.3385
 1674poe    c23 7126   6.712   4.796   2.966 -0.1107  0.4336 -0.2004
 1674poe     o2 7127   6.770   4.711   2.869 -0.0974 -0.2057  0.3565
 1674poe    c31 7128   6.900   4.757   2.839 -0.1141 -0.4264 -0.0644
 1675poe    c31 7129   4.637   5.475   4.313 -0.5606 -0.4042  0.2798
 1675poe     o2 7130   4.670   5.574   4.408  0.6700 -0.4710 -0.0659
 1675poe    c23 7131   4.668   5.534   4.544 -0.5216  0.2466  0.1405
 1675poe    c23 7132   4.667   5.646   4.649 -0.1882  0.5649 -0.1911
 1675poe     o2 7133   4.784   5.725   4.656  0.3958 -0.3506  0.6914
 1675poe    c23 7134   4.769   5.802   4.773  0.0098 -0.0233  0.4304
 1675poe    c23 7135   4.867   5.921   4.772  0.0730 -0.0769  0.0361
 1675poe     o2 7136   4.971   5.864   4.695 -0.0938 -0.2060 -0.0931
 1675poe    c23 7137   5.086   5.944   4.709 -0.0034 -0.4099  0.3416
 1675poe    c23 7138   5.196   5.879   4.623 -0.3267 -0.0493 -0.3544
 1675poe     o2 7139   5.154   5.868   4.489 -0.1395  0.2269 -0.4378
 1675poe    c31 7140   5.267   5.851   4.407  0.3631  0.0123  0.2863
 1676poe    c31 7141   3.107   6.841   4.402  0.2594  0.5099  0.0423
 1676poe     o2 7142   3.007   6.774   4.476 -0.1077  0.3962 -0.5471
 1676poe    c23 7143   2.932   6.871   4.547 -0.3955  0.0263 -0.3436
 1676poe    c23 7144   2.804   6.801   4.597 -0.1436 -0.4009 -0.2933
 1676poe     o2 7145   2.822   6.712   4.705 -0.0906  0.2588  0.2466
 1676poe    c23 7146   2.703   6.636   4.713  0.1166 -0.0935 -0.0339
 1676poe    c23 7147   2.739   6.498   4.771  0.0002 -0.1281 -0.0438
 1676poe     o2 7148   2.845   6.518   4.863  0.3286  0.0692 -0.4635
 1676poe    c23 7149   2.926   6.407   4.894 -0.3519 -0.0686  0.8757
 1676poe    c23 7150   3.023   6.451   5.006  0.5865 -0.6115  0.2908
 1676poe     o2 7151   3.065   6.581   4.973  0.1779 -0.5048  0.1817
 1676poe    c31 7152   3.182   6.617   5.044  0.4682  0.3920 -0.7170
 1677poe    c31 7153   3.655   0.576   3.045 -0.1050  0.1407  0.4116
 1677poe     o2 7154   3.736   0.681   2.997 -0.0965 -0.2484 -0.4421
 1677poe    c23 7155   3.855   0.687   3.073  0.1119 -0.1068 -0.7749
 1677poe    c23 7156   3.940   0.815   3.080  0.1733 -0.1781 -0.1659
 1677poe     o2 7157   4.000   0.866   2.963  0.2679 -0.1190 -0.0915
 1677poe    c23 7158   4.116   0.796   2.925  0.4669 -0.0022  0.2843
 1677poe    c23 7159   4.168   0.855   2.792 -0.0621  0.7861  0.4233
 1677poe     o2 7160   4.058   0.852   2.705  0.1406 -0.2483  0.1915
 1677poe    c23 7161   4.088   0.921   2.585  0.1737 -0.1440  0.2601
 1677poe    c23 7162   3.962   0.922   2.496  0.0504 -0.2003  0.4326
 1677poe     o2 7163   3.852   0.954   2.578 -0.1846 -0.0905  0.0768
 1677poe    c31 7164   3.735   0.963   2.500 -0.0694  0.0648 -0.0786
 1678poe    c31 7165   1.150   6.876   4.774  0.5353  0.3236 -0.3075
 1678poe     o2 7166   1.105   6.995   4.834  0.2024  0.0968 -0.1058
 1678poe    c23 7167   1.207   7.088   4.862 -0.2116  0.4584  0.2166
 1678poe    c23 7168   1.173   7.205   4.957  0.4556  0.5441  0.3531
 1678poe     o2 7169   1.114   7.319   4.901 -0.2028  0.1019  0.1363
 1678poe    c23 7170   1.058   7.402   5.000 -0.3515 -0.0995  0.2211
 1678poe    c23 7171   0.967   7.505   4.930 -0.0441 -0.1948 -0.3208
 1678poe     o2 7172   0.874   7.416   4.873 -0.4397 -0.1018  0.1705
 1678poe    c23 7173   0.745   7.467   4.894 -0.2682  0.3720  0.1003
 1678poe    c23 7174   0.634   7.360   4.879 -0.2412  0.3123  0.3127
 1678poe     o2 7175   0.669   7.241   4.946  0.3862  0.0151 -0.5315
 1678poe    c31 7176   0.555   7.160   4.958  0.5038 -0.1524 -0.5402
 1679poe    c31 7177   5.204   1.149   3.835 -0.3391 -0.1069  0.4722
 1679poe     o2 7178   5.213   1.068   3.720  0.2815  0.2090  0.2912
 1679poe    c23 7179   5.197   0.930   3.745  0.2946  0.2781  0.6836
 1679poe    c23 7180   5.160   0.869   3.609  0.2006  0.8789  0.4354
 1679poe     o2 7181   5.273   0.888   3.526  0.0878 -0.4330 -0.0498
 1679poe    c23 7182   5.257   0.845   3.393  0.3148  0.0616 -0.2392
 1679poe    c23 7183   5.368   0.908   3.307  0.4630 -0.1202 -0.1826
 1679poe     o2 7184   5.496   0.859   3.340  0.3725 -0.2371 -0.0039
 1679poe    c23 7185   5.576   0.821   3.230  0.1839  0.2638 -0.3182
 1679poe    c23 7186   5.718   0.856   3.278  0.0754  0.2962 -0.0162
 1679poe     o2 7187   5.732   0.812   3.412 -0.0805  0.0239 -0.0894
 1679poe    c31 7188   5.864   0.816   3.460 -0.0919  0.2088 -0.0719
 1680poe    c31 7189   5.813   6.965   5.938  0.1824  0.5785 -1.1730
 1680poe     o2 7190   5.951   6.992   5.948  0.1026  0.5506  0.3637
 1680poe    c23 7191   6.026   6.890   6.008  0.1135  0.0653 -0.4518
 1680poe    c23 7192   6.171   6.937   6.028 -0.1436  0.8102 -0.3118
 1680poe     o2 7193   6.244   6.981   5.915 -0.2550  0.1072 -0.6646
 1680poe    c23 7194   6.343   7.070   5.962  0.3132 -0.6286 -0.4417
 1680poe    c23 7195   6.430   7.122   5.846  0.3334  0.5861  0.0926
 1680poe     o2 7196   6.351   7.159   5.735  0.1424 -0.4536 -0.1360
 1680poe    c23 7197   6.419   7.147   5.612  0.0231  0.2009 -0.2683
 1680poe    c23 7198   6.307   7.153   5.506  0.2107  0.0758 -0.4723
 1680poe     o2 7199   6.207   7.057   5.531  0.2059  0.0870 -0.4502
 1680poe    c31 7200   6.115   7.071   5.424  0.1764 -0.1576 -0.4593
 1681poe    c31 7201   3.696   1.473   5.193 -0.8325 -0.1001  0.4565
 1681poe     o2 7202   3.748   1.450   5.322 -0.0209  0.0553  0.1653
 1681poe    c23 7203   3.700   1.562   5.393 -0.2605  0.0712 -0.0201
 1681poe    c23 7204   3.780   1.556   5.525  0.0705 -0.6985 -0.2478
 1681poe     o2 7205   3.798   1.419   5.552  0.5562 -0.5528  0.1822
 1681poe    c23 7206   3.879   1.402   5.666  0.0595 -0.4643  0.5510
 1681poe    c23 7207   3.904   1.254   5.702 -0.1152 -0.5528  0.3163
 1681poe     o2 7208   3.962   1.191   5.590  0.5651  0.3667  0.1377
 1681poe    c23 7209   4.064   1.102   5.630  0.0858 -0.2400  0.0099
 1681poe    c23 7210   4.190   1.115   5.542 -0.0595  0.0162 -0.1610
 1681poe     o2 7211   4.184   1.135   5.403 -0.0201 -0.2715 -0.2042
 1681poe    c31 7212   4.149   1.026   5.320  0.4046 -0.4149 -0.2000
 1682poe    c31 7213   0.542   2.611   6.090 -0.0065 -0.0649  0.3699
 1682poe     o2 7214   0.527   2.471   6.086 -0.5036  0.0027 -0.2340
 1682poe    c23 7215   0.529   2.421   6.218  0.0435  0.2180 -0.1592
 1682poe    c23 7216   0.563   2.273   6.244 -0.1537  0.1933 -0.0446
 1682poe     o2 7217   0.692   2.225   6.213 -0.1919  0.1425 -0.1245
 1682poe    c23 7218   0.686   2.088   6.245  0.4211  0.1109 -0.1373
 1682poe    c23 7219   0.829   2.031   6.245  0.1258 -0.6419 -0.1249
 1682poe     o2 7220   0.892   2.110   6.148  0.0019 -0.4459 -0.0456
 1682poe    c23 7221   1.015   2.062   6.099  0.3211 -0.2260  0.5305
 1682poe    c23 7222   1.065   2.182   6.017 -0.1713  0.2248  0.8899
 1682poe     o2 7223   1.021   2.305   6.071 -0.6418  0.5256 -0.1565
 1682poe    c31 7224   1.113   2.412   6.056 -0.0091 -0.0536 -0.4673
 1683poe    c31 7225   2.464   5.210   4.559 -0.7451 -0.3129  0.8649
 1683poe     o2 7226   2.551   5.251   4.662 -0.4287  0.2618  0.3746
 1683poe    c23 7227   2.671   5.310   4.617 -0.3070  0.0300  0.3936
 1683poe    c23 7228   2.771   5.224   4.538 -0.8197  0.0477 -0.2812
 1683poe     o2 7229   2.841   5.131   4.618 -0.1712  0.6196 -0.1705
 1683poe    c23 7230   2.904   5.056   4.516  0.0695  0.5395  0.0382
 1683poe    c23 7231   2.991   4.952   4.589 -0.1984 -0.0764 -0.5128
 1683poe     o2 7232   2.910   4.905   4.694  0.2728  0.2248 -0.0038
 1683poe    c23 7233   2.944   4.776   4.741  0.2665 -0.1158 -0.9059
 1683poe    c23 7234   2.849   4.723   4.850  0.5206  0.7788 -0.2372
 1683poe     o2 7235   2.870   4.782   4.977  0.5452 -0.0563  0.1485
 1683poe    c31 7236   2.761   4.763   5.064  0.6015 -0.3384  0.1590
 1684poe    c31 7237   0.228   5.769   7.029  0.1125  0.4673 -0.1533
 1684poe     o2 7238   0.123   5.860   7.052 -0.2523 -0.0431  0.2475
 1684poe    c23 7239   0.062   5.910   6.935 -0.0188  0.0937  0.1840
 1684poe    c23 7240  -0.040   6.025   6.952 -0.1983  0.0724 -0.7132
 1684poe     o2 7241  -0.157   5.980   7.017  0.3322  0.1933  0.3354
 1684poe    c23 7242  -0.253   6.082   7.037 -0.1326 -0.2583  0.4063
 1684poe    c23 7243  -0.327   6.042   7.166 -0.5250 -0.1239  0.2210
 1684poe     o2 7244  -0.261   6.041   7.290 -0.0618 -0.0558 -0.0249
 1684poe    c23 7245  -0.338   5.982   7.392  0.7526 -0.5788  0.2939
 1684poe    c23 7246  -0.280   6.023   7.528  0.1933  1.0614  0.0611
 1684poe     o2 7247  -0.141   6.005   7.511  0.0734  0.4938 -0.3263
 1684poe    c31 7248  -0.083   6.078   7.617 -0.5133 -0.0511  0.3793
 1685poe    c31 7249   3.216   4.986   3.746 -0.1301 -0.0252  0.5047
 1685poe     o2 7250   3.145   5.015   3.628  0.1886  0.2050  0.3685
 1685poe    c23 7251   3.225   5.061   3.521  0.2530  0.3835  0.4925
 1685poe    c23 7252   3.240   5.214   3.515  0.2442  0.3698  0.1110
 1685poe     o2 7253   3.351   5.257   3.591  0.5878 -0.3326  0.0242
 1685poe    c23 7254   3.367   5.396   3.574 -0.3231 -0.2064  0.1267
 1685poe    c23 7255   3.428   5.447   3.443 -0.0994 -0.1721  0.2428
 1685poe     o2 7256   3.535   5.371   3.391  0.4953  0.6450  0.2499
 1685poe    c23 7257   3.537   5.379   3.250  0.3827  0.4091  0.2351
 1685poe    c23 7258   3.664   5.309   3.196 -0.0505 -0.0708 -0.1726
 1685poe     o2 7259   3.677   5.193   3.276 -0.6398 -0.1830 -0.2346
 1685poe    c31 7260   3.761   5.104   3.206 -0.5744 -0.4522  0.1886
 1686poe    c31 7261   2.703   0.940   6.539  0.5310  0.3306 -0.2110
 1686poe     o2 7262   2.664   1.049   6.619 -0.0630 -0.3274  0.4131
 1686poe    c23 7263   2.774   1.114   6.679 -0.1459  0.1984  0.0029
 1686poe    c23 7264   2.816   1.233   6.591  0.2420  0.1126  0.0701
 1686poe     o2 7265   2.712   1.324   6.560 -0.3300 -0.5075  0.1265
 1686poe    c23 7266   2.706   1.430   6.654  0.6067 -0.0909 -0.2615
 1686poe    c23 7267   2.660   1.556   6.579 -0.0030 -0.1617 -0.0155
 1686poe     o2 7268   2.559   1.510   6.492  0.1153  0.1040 -0.2950
 1686poe    c23 7269   2.571   1.580   6.370  0.0841  0.4445 -0.1039
 1686poe    c23 7270   2.451   1.525   6.291 -0.0382  0.7303 -0.1180
 1686poe     o2 7271   2.440   1.387   6.317  0.2175  0.7792  0.2648
 1686poe    c31 7272   2.333   1.339   6.238  0.0622 -0.0264  0.9572
 1687poe    c31 7273   6.337   6.780   4.928  0.0367  0.0780  0.5922
 1687poe     o2 7274   6.303   6.723   5.052  0.4444 -0.2385  0.5599
 1687poe    c23 7275   6.218   6.807   5.126 -0.1417  0.1612 -0.5446
 1687poe    c23 7276   6.221   6.741   5.265  0.4405  0.0992 -0.5840
 1687poe     o2 7277   6.349   6.704   5.309  0.1762  0.0923  0.2049
 1687poe    c23 7278   6.355   6.676   5.447 -0.2312 -1.1579 -0.0152
 1687poe    c23 7279   6.494   6.706   5.507 -0.3568  0.0703 -0.3062
 1687poe     o2 7280   6.542   6.836   5.479 -0.1923  0.0589 -0.0746
 1687poe    c23 7281   6.677   6.842   5.519  0.0850 -0.3534 -0.9275
 1687poe    c23 7282   6.752   6.957   5.451  0.5671 -0.1793 -0.1164
 1687poe     o2 7283   6.751   6.944   5.311 -0.2527  0.1861 -0.1490
 1687poe    c31 7284   6.819   7.052   5.252 -0.1711  0.1006 -0.2104
 1688poe    c31 7285   4.266   3.064   4.743 -0.6155  0.5479 -0.6846
 1688poe     o2 7286   4.403   3.046   4.713 -0.3300 -0.2812  1.0058
 1688poe    c23 7287   4.428   2.914   4.671 -0.0467  0.2658 -0.6154
 1688poe    c23 7288   4.572   2.906   4.618  0.1680  0.3184 -0.0447
 1688poe     o2 7289   4.639   2.930   4.740  0.0987  0.5843 -0.0583
 1688poe    c23 7290   4.771   2.978   4.727  0.0418  0.7512 -0.0233
 1688poe    c23 7291   4.824   2.962   4.871 -0.4936 -0.5113  0.0513
 1688poe     o2 7292   4.742   3.038   4.957  0.2165  0.2419  0.0830
 1688poe    c23 7293   4.795   3.020   5.087  0.1651 -0.3838  0.0215
 1688poe    c23 7294   4.732   3.114   5.191  0.2610 -0.0538 -0.2179
 1688poe     o2 7295   4.595   3.083   5.205  0.0692  0.5019 -0.7550
 1688poe    c31 7296   4.532   3.144   5.315 -0.0543  0.0694 -0.5811
 1689poe    c31 7297   6.441   4.058   1.832  0.1233 -0.2113 -0.3692
 1689poe     o2 7298   6.560   4.128   1.858 -0.1977  0.3346 -0.3600
 1689poe    c23 7299   6.632   4.185   1.752  0.1356 -0.2994 -0.4757
 1689poe    c23 7300   6.766   4.246   1.798  0.0344 -0.7066  0.3742
 1689poe     o2 7301   6.746   4.368   1.866  0.4269 -0.2178 -0.3725
 1689poe    c23 7302   6.865   4.439   1.840  0.3876  0.0137  0.0788
 1689poe    c23 7303   6.846   4.567   1.924  0.1995 -0.0286  0.1023
 1689poe     o2 7304   6.788   4.532   2.047 -0.4868 -0.2932 -0.2880
 1689poe    c23 7305   6.762   4.655   2.112  0.3444 -0.1328 -0.2414
 1689poe    c23 7306   6.686   4.628   2.243 -0.1186 -0.2368 -0.5300
 1689poe     o2 7307   6.622   4.502   2.237  0.0535 -0.3668  0.2305
 1689poe    c31 7308   6.520   4.494   2.333 -0.2179  0.3282  0.0122
 1690poe    c31 7309   0.556   2.193   7.012  0.1542  0.1893  0.7581
 1690poe     o2 7310   0.587   2.114   7.125 -0.0252 -0.4303  0.3798
 1690poe    c23 7311   0.513   2.155   7.238  0.1877  0.3330  0.2479
 1690poe    c23 7312   0.553   2.055   7.347  0.1384 -0.4975 -0.4809
 1690poe     o2 7313   0.694   2.045   7.349  0.1431 -0.3871  0.2818
 1690poe    c23 7314   0.744   1.958   7.448  0.3894  0.5148  0.9558
 1690poe    c23 7315   0.895   1.989   7.444  0.6658 -0.8618  0.0974
 1690poe     o2 7316   0.934   1.988   7.309 -0.5112  0.2885 -0.2750
 1690poe    c23 7317   1.074   1.973   7.321 -0.5678 -0.0434 -0.0248
 1690poe    c23 7318   1.139   2.048   7.204  0.0320 -0.2510  0.1728
 1690poe     o2 7319   1.104   2.003   7.075 -0.1718 -0.0306  0.1509
 1690poe    c31 7320   1.220   2.030   6.999 -0.1747 -0.7124 -0.0967
 1691poe    c31 7321   6.979   6.946   2.007  0.1459 -0.4197  0.0567
 1691poe     o2 7322   6.931   7.077   2.029  0.6466 -0.2766  0.3247
 1691poe    c23 7323   6.815   7.045   2.103  0.6678  0.1904  0.5666
 1691poe    c23 7324   6.739   7.173   2.140  0.3438  0.1409  0.0879
 1691poe     o2 7325   6.650   7.223   2.043  0.6182  0.3473 -0.0592
 1691poe    c23 7326   6.579   7.342   2.070  0.0850 -0.1040  0.5974
 1691poe    c23 7327   6.444   7.304   2.132 -0.0811 -0.1439  0.2098
 1691poe     o2 7328   6.357   7.239   2.041  0.1574  0.1674 -0.2489
 1691poe    c23 7329   6.276   7.138   2.098 -0.3048  0.1911 -0.8528
 1691poe    c23 7330   6.273   6.999   2.032 -0.0547 -0.1912 -0.0822
 1691poe     o2 7331   6.207   7.001   1.907  0.6544  0.2359 -0.4600
 1691poe    c31 7332   6.229   6.889   1.824 -0.1380 -0.3451  0.0881
 1692poe    c31 7333   4.920   4.118   0.794 -0.1890  0.2486  0.6517
 1692poe     o2 7334   4.981   3.991   0.791 -0.1568  0.2663  0.5679
 1692poe    c23 7335   4.920   3.897   0.877 -0.0531  0.3233  0.7049
 1692poe    c23 7336   4.986   3.762   0.846 -0.0340  0.4537  0.1743
 1692poe     o2 7337   5.122   3.798   0.862  0.0323 -0.0465  0.7478
 1692poe    c23 7338   5.190   3.679   0.830 -0.4780 -0.3887  0.9194
 1692poe    c23 7339   5.339   3.716   0.823 -0.5467 -0.3559 -0.7601
 1692poe     o2 7340   5.367   3.833   0.749  0.4060 -0.0032  0.1368
 1692poe    c23 7341   5.494   3.823   0.689  0.0394 -0.0686 -0.6448
 1692poe    c23 7342   5.542   3.953   0.621  0.2008  0.1629 -0.0907
 1692poe     o2 7343   5.488   4.062   0.693 -0.3516 -0.0209 -0.2289
 1692poe    c31 7344   5.554   4.184   0.670 -0.3131 -0.1642 -0.9034
 1693poe    c31 7345   1.755   5.921   6.744 -0.3761 -0.2734 -0.8992
 1693poe     o2 7346   1.767   6.029   6.654 -0.4627  0.3463 -0.1776
 1693poe    c23 7347   1.775   6.155   6.717  0.0462 -0.1175  0.7050
 1693poe    c23 7348   1.794   6.278   6.627  0.3347 -0.4063  0.3688
 1693poe     o2 7349   1.877   6.230   6.524 -0.7682 -0.1276 -0.6759
 1693poe    c23 7350   1.891   6.333   6.429 -0.1187  0.4265  0.0055
 1693poe    c23 7351   1.952   6.263   6.306 -0.6837  0.0274 -0.0481
 1693poe     o2 7352   1.873   6.148   6.282 -0.4629 -0.0618 -0.3519
 1693poe    c23 7353   1.888   6.100   6.150  0.5122  0.2973 -0.3825
 1693poe    c23 7354   1.764   6.055   6.070  0.1438  0.4697  0.0801
 1693poe     o2 7355   1.676   5.997   6.163  0.0590  0.3660 -0.0647
 1693poe    c31 7356   1.566   5.939   6.096 -0.1994  0.1972  0.5001
 1694poe    c31 7357   3.791   0.784   5.630 -0.2406  0.3315 -0.5219
 1694poe     o2 7358   3.754   0.731   5.755  0.4529 -0.1266 -0.5064
 1694poe    c23 7359   3.714   0.845   5.827  0.3523 -0.1557 -0.5167
 1694poe    c23 7360   3.751   0.832   5.976  0.2534  0.0784 -0.4714
 1694poe     o2 7361   3.690   0.729   6.051 -0.3047  0.4393 -0.4277
 1694poe    c23 7362   3.791   0.648   6.105 -0.2251  0.4378 -0.5764
 1694poe    c23 7363   3.725   0.536   6.188  1.0616  0.2438  0.2111
 1694poe     o2 7364   3.661   0.449   6.098  0.5050  0.6774  0.1856
 1694poe    c23 7365   3.598   0.341   6.163  0.3112 -0.0112 -1.1118
 1694poe    c23 7366   3.538   0.238   6.066 -1.0337 -0.1266 -0.1878
 1694poe     o2 7367   3.472   0.316   5.968 -0.4385  0.6024 -0.0102
 1694poe    c31 7368   3.405   0.235   5.874  0.6415 -0.0034 -0.2771
 1695poe    c31 7369   3.864   0.814   1.918 -0.2451 -0.1191 -0.2165
 1695poe     o2 7370   3.813   0.766   1.796  0.3199 -0.0247 -0.4902
 1695poe    c23 7371   3.788   0.627   1.797  0.0378  0.0274 -0.4732
 1695poe    c23 7372   3.752   0.595   1.650 -0.1083 -0.1732 -0.3937
 1695poe     o2 7373   3.672   0.695   1.592  0.2271  0.4540  0.2093
 1695poe    c23 7374   3.592   0.637   1.491  0.5147  0.7062 -0.1648
 1695poe    c23 7375   3.502   0.740   1.421 -0.7795 -0.4162 -0.1858
 1695poe     o2 7376   3.438   0.816   1.521  0.1538  0.0161  0.0932
 1695poe    c23 7377   3.338   0.899   1.466  0.3025  0.4587  0.4818
 1695poe    c23 7378   3.210   0.896   1.552 -0.0958  1.0876 -0.0803
 1695poe     o2 7379   3.231   0.947   1.682  0.2513 -0.1859  0.3821
 1695poe    c31 7380   3.112   0.930   1.755 -0.1157  0.0664 -0.1480
 1696poe    c31 7381   1.788   4.596   3.174  0.6939  0.8991  0.4184
 1696poe     o2 7382   1.789   4.697   3.076  0.2870 -0.0413 -0.5694
 1696poe    c23 7383   1.672   4.742   3.011  0.0579  0.2257  0.0161
 1696poe    c23 7384   1.671   4.876   2.936 -1.1722  0.0919 -0.2201
 1696poe     o2 7385   1.644   4.979   3.028 -0.1847 -0.0412  0.2240
 1696poe    c23 7386   1.729   5.090   3.012 -0.3162 -0.0383 -0.4570
 1696poe    c23 7387   1.718   5.202   3.117 -0.1287  0.0775 -0.5602
 1696poe     o2 7388   1.588   5.252   3.138 -0.0441  0.1776 -0.2679
 1696poe    c23 7389   1.573   5.334   3.252 -0.1093 -0.1855 -0.0134
 1696poe    c23 7390   1.430   5.390   3.260  0.0958  0.3705 -0.1369
 1696poe     o2 7391   1.333   5.295   3.300  0.1563  0.4167  0.1223
 1696poe    c31 7392   1.210   5.326   3.239 -0.0385 -0.2260  0.1821
 1697poe    c31 7393   5.133   2.761   2.500  0.0648  0.0376  0.0790
 1697poe     o2 7394   5.136   2.687   2.380 -0.2582 -0.1391  0.1792
 1697poe    c23 7395   5.235   2.720   2.285 -0.1030  0.0054  0.3893
 1697poe    c23 7396   5.217   2.646   2.151 -0.1111  0.2267  0.2675
 1697poe     o2 7397   5.191   2.513   2.192  0.0678  0.0812 -0.0913
 1697poe    c23 7398   5.181   2.427   2.080  0.4824  0.4399 -0.4107
 1697poe    c23 7399   5.154   2.287   2.137  0.1970  0.5369 -0.3055
 1697poe     o2 7400   5.271   2.248   2.205 -0.3986  0.2106  0.5486
 1697poe    c23 7401   5.263   2.114   2.251 -0.3697  0.1938  0.5039
 1697poe    c23 7402   5.378   2.108   2.353  0.0026  0.2707  0.0910
 1697poe     o2 7403   5.351   2.199   2.458 -0.1030 -0.1244  0.4061
 1697poe    c31 7404   5.428   2.167   2.571  0.2511  0.1373  0.2416
 1698poe    c31 7405   2.032   4.140   0.938 -0.1141 -0.2129  0.3651
 1698poe     o2 7406   2.068   4.034   1.025 -0.3787 -0.4171  0.2265
 1698poe    c23 7407   2.180   4.064   1.104 -0.1084  0.4268 -0.4595
 1698poe    c23 7408   2.209   3.949   1.203 -0.1307  0.2601 -0.6461
 1698poe     o2 7409   2.178   3.834   1.129 -0.4761 -0.2581  0.2838
 1698poe    c23 7410   2.217   3.713   1.192  0.4605 -0.2769 -0.3042
 1698poe    c23 7411   2.256   3.591   1.107  0.0862 -0.6791  0.1008
 1698poe     o2 7412   2.170   3.576   0.997 -0.2576  0.1331  0.2495
 1698poe    c23 7413   2.197   3.452   0.933 -0.2567  0.1653  0.1869
 1698poe    c23 7414   2.129   3.447   0.795  0.4481 -0.6029 -0.1320
 1698poe     o2 7415   2.178   3.538   0.699  0.0573 -0.3962 -0.1346
 1698poe    c31 7416   2.125   3.517   0.570  0.8535 -0.5349 -0.4452
 1699poe    c31 7417   6.335   0.438   5.762  0.0156 -0.0685  0.0222
 1699poe     o2 7418   6.389   0.526   5.666  0.2518 -0.0402  0.1812
 1699poe    c23 7419   6.530   0.531   5.658  0.2342  0.7945  0.3389
 1699poe    c23 7420   6.582   0.653   5.579  0.6087  0.4280  0.0169
 1699poe     o2 7421   6.557   0.768   5.656 -0.4246  0.4068 -0.2859
 1699poe    c23 7422   6.523   0.882   5.579  0.0105  0.4819 -0.3678
 1699poe    c23 7423   6.476   0.995   5.671  0.0593  0.4953 -0.3591
 1699poe     o2 7424   6.577   1.034   5.761  0.4132  0.8887 -0.9178
 1699poe    c23 7425   6.528   1.134   5.848  0.6455  0.1898  0.0378
 1699poe    c23 7426   6.612   1.161   5.974  0.6257 -0.0048  0.0925
 1699poe     o2 7427   6.622   1.038   6.043 -0.0454 -0.0577  0.1010
 1699poe    c31 7428   6.717   1.055   6.146 -0.0455  0.1344  0.0707
 1700poe    c31 7429   5.548   3.964   4.121 -0.0970  0.3001 -0.0093
 1700poe     o2 7430   5.447   3.942   4.025  0.6153 -0.7149 -0.5445
 1700poe    c23 7431   5.358   4.051   4.034  0.6764 -0.7000 -0.0666
 1700poe    c23 7432   5.225   4.040   3.957  0.6215 -0.5092  0.0007
 1700poe     o2 7433   5.261   4.070   3.824 -0.1405  0.3050 -0.0307
 1700poe    c23 7434   5.151   4.053   3.736 -0.1627 -0.2761  0.1001
 1700poe    c23 7435   5.166   4.158   3.624 -0.1574 -0.1778  0.1928
 1700poe     o2 7436   5.158   4.290   3.673 -0.4194  0.0257 -0.3790
 1700poe    c23 7437   5.211   4.383   3.582  0.9201 -0.2309  0.1056
 1700poe    c23 7438   5.275   4.504   3.653  0.2336  0.2658 -0.1120
 1700poe     o2 7439   5.401   4.475   3.708  0.1272 -0.1566 -0.0883
 1700poe    c31 7440   5.380   4.422   3.837 -0.4251 -0.1093 -0.1586
 1701poe    c31 7441   2.079   4.848   1.996  0.1175 -0.3790  0.5426
 1701poe     o2 7442   2.094   4.709   2.013  0.2228 -0.4027  0.2609
 1701poe    c23 7443   2.018   4.643   1.914 -0.0529  0.3590 -0.0449
 1701poe    c23 7444   2.044   4.491   1.906 -0.6715  0.2659 -0.3632
 1701poe     o2 7445   2.180   4.463   1.885 -0.6664 -0.6695  0.8421
 1701poe    c23 7446   2.201   4.324   1.866 -0.1963 -0.4780 -0.0878
 1701poe    c23 7447   2.351   4.301   1.891 -0.1442 -1.0629 -0.9087
 1701poe     o2 7448   2.443   4.358   1.800  0.1417 -0.0670 -0.0168
 1701poe    c23 7449   2.582   4.336   1.806  0.0734 -0.5196 -0.0542
 1701poe    c23 7450   2.656   4.414   1.696  0.2249 -0.6928 -0.0762
 1701poe     o2 7451   2.664   4.554   1.710  0.0923 -0.6491 -0.4237
 1701poe    c31 7452   2.755   4.611   1.619  0.0155 -0.2497 -0.2519
 1702poe    c31 7453   3.203   3.723   3.180  0.2668  0.2665  0.0009
 1702poe     o2 7454   3.160   3.857   3.176 -0.1028  0.1441 -0.2423
 1702poe    c23 7455   3.149   3.915   3.304  1.1828 -0.2852  0.0834
 1702poe    c23 7456   3.117   4.065   3.294  0.2521 -0.5091 -0.4713
 1702poe     o2 7457   3.033   4.083   3.182 -0.3631  0.0157  0.0633
 1702poe    c23 7458   2.994   4.217   3.202 -0.3322  0.0072  0.1827
 1702poe    c23 7459   2.920   4.270   3.078  0.1917  0.5181  0.0833
 1702poe     o2 7460   2.986   4.242   2.957 -0.0087 -0.1646  0.1243
 1702poe    c23 7461   2.910   4.278   2.843  0.0920  0.0665  0.1298
 1702poe    c23 7462   2.966   4.221   2.712 -0.1429 -0.0592  0.0848
 1702poe     o2 7463   2.955   4.081   2.726 -0.3985 -0.0371  0.1003
 1702poe    c31 7464   2.958   4.019   2.600 -0.3889 -0.4998  0.3281
 1703poe    c31 7465   2.096   3.310   5.272  0.2336  0.1080 -0.6071
 1703poe     o2 7466   1.972   3.358   5.318  0.0729 -0.7240 -0.1495
 1703poe    c23 7467   1.907   3.442   5.225  0.1452 -0.5618 -0.0519
 1703poe    c23 7468   1.769   3.484   5.280  0.0779 -0.1274 -0.5400
 1703poe     o2 7469   1.724   3.376   5.359  0.3399  0.0369 -0.1579
 1703poe    c23 7470   1.603   3.400   5.428  0.6546 -0.4294  0.5605
 1703poe    c23 7471   1.567   3.271   5.505 -0.2479 -0.4645  0.0879
 1703poe     o2 7472   1.674   3.270   5.597 -0.2334 -0.3784  0.0723
 1703poe    c23 7473   1.629   3.204   5.714 -0.3607  0.3415  0.4363
 1703poe    c23 7474   1.733   3.227   5.824 -0.1045  0.7754  0.1081
 1703poe     o2 7475   1.859   3.174   5.788 -0.5566 -0.2246 -0.0269
 1703poe    c31 7476   1.878   3.042   5.835 -0.5659 -0.3158 -0.2777
 1704poe    c31 7477   5.033   1.665   1.245 -0.3850 -0.1080 -0.2615
 1704poe     o2 7478   4.989   1.759   1.340  0.5200 -0.4594  0.5275
 1704poe    c23 7479   4.901   1.680   1.418 -0.6665  0.1856 -0.1273
 1704poe    c23 7480   4.820   1.770   1.513 -0.5691  0.3586 -0.2082
 1704poe     o2 7481   4.904   1.864   1.576  0.3424 -0.2944 -0.4295
 1704poe    c23 7482   4.836   1.946   1.669  0.8481  0.3029 -0.5788
 1704poe    c23 7483   4.925   2.059   1.724  0.4691  0.4140 -0.1923
 1704poe     o2 7484   4.968   2.130   1.610  0.1506 -0.0732 -0.6228
 1704poe    c23 7485   5.069   2.222   1.647 -0.2531  0.1228  0.0104
 1704poe    c23 7486   5.069   2.341   1.548  0.3755  0.1712  0.0693
 1704poe     o2 7487   5.106   2.294   1.420  0.0275 -0.4240  0.1800
 1704poe    c31 7488   5.135   2.400   1.331 -0.2440 -0.3624  0.1662
 1705poe    c31 7489   3.424   2.805   0.573  0.5386 -0.2592  0.0130
 1705poe     o2 7490   3.403   2.690   0.651  0.5762 -0.5398 -0.3853
 1705poe    c23 7491   3.490   2.581   0.632  0.5301 -0.5837 -0.3450
 1705poe    c23 7492   3.438   2.463   0.716 -0.0238 -0.1492 -0.0800
 1705poe     o2 7493   3.448   2.485   0.855  0.3080 -0.1223 -0.1078
 1705poe    c23 7494   3.409   2.365   0.918 -0.2102  0.3449  0.4800
 1705poe    c23 7495   3.430   2.399   1.067  0.0436 -0.0416  0.5345
 1705poe     o2 7496   3.366   2.519   1.102  0.2824  0.2229  0.0661
 1705poe    c23 7497   3.355   2.539   1.242 -1.1806 -0.4566  0.0624
 1705poe    c23 7498   3.349   2.690   1.268  0.4540 -0.4288  0.4016
 1705poe     o2 7499   3.425   2.760   1.172  0.1119 -0.3738  0.1683
 1705poe    c31 7500   3.389   2.896   1.176 -0.3105 -0.4886  0.3386
 1706poe    c31 7501   0.563   1.555   3.549  0.0594  0.0484  0.0651
 1706poe     o2 7502   0.704   1.556   3.540  0.0137  0.0657 -0.6821
 1706poe    c23 7503   0.743   1.422   3.560 -0.1713  0.0830 -0.1792
 1706poe    c23 7504   0.833   1.384   3.440 -0.1509  0.1689 -0.1915
 1706poe     o2 7505   0.927   1.487   3.418  0.0837 -0.0957 -0.4354
 1706poe    c23 7506   1.003   1.445   3.307  0.5212 -0.4071 -0.0231
 1706poe    c23 7507   1.082   1.569   3.262  0.0183  0.1299  0.5561
 1706poe     o2 7508   0.991   1.673   3.235  0.3104  0.1408 -0.4002
 1706poe    c23 7509   1.059   1.785   3.182  0.4198  0.3052  0.0835
 1706poe    c23 7510   0.979   1.882   3.093  0.1140 -0.1690 -0.1641
 1706poe     o2 7511   0.872   1.934   3.168  0.0935 -0.1918 -0.1775
 1706poe    c31 7512   0.836   2.057   3.110  1.2973 -0.2633 -1.1051
 1707poe    c31 7513   0.210   5.438   1.366 -0.2843  0.2024 -0.0849
 1707poe     o2 7514   0.177   5.375   1.244 -0.9443  0.2783  0.0505
 1707poe    c23 7515   0.186   5.463   1.133 -0.0175 -0.0211 -0.1191
 1707poe    c23 7516   0.141   5.387   1.007 -0.3998 -0.1011  0.0640
 1707poe     o2 7517   0.009   5.337   1.001 -0.1632 -0.7739  0.3318
 1707poe    c23 7518  -0.015   5.282   0.874  0.5649 -0.2190 -0.0520
 1707poe    c23 7519  -0.095   5.151   0.881 -0.2009  0.2385 -0.1060
 1707poe     o2 7520  -0.022   5.037   0.919  0.3621  0.4623 -0.4995
 1707poe    c23 7521  -0.077   4.929   0.846  0.4140  0.0554  0.0559
 1707poe    c23 7522  -0.012   4.792   0.876  0.1507 -0.0121  0.3229
 1707poe     o2 7523  -0.035   4.735   1.003 -0.5106 -0.0986  0.1713
 1707poe    c31 7524  -0.045   4.595   1.000  0.2952 -0.1671  0.4885
 1708poe    c31 7525   5.433   3.638   5.843  0.0557 -0.2501  0.0282
 1708poe     o2 7526   5.364   3.746   5.785 -0.0754 -0.1858  0.3008
 1708poe    c23 7527   5.268   3.694   5.696  0.4638 -0.2720 -0.2393
 1708poe    c23 7528   5.224   3.783   5.579 -0.1527  0.2866  0.4070
 1708poe     o2 7529   5.148   3.891   5.628 -0.3240  0.1545  0.4344
 1708poe    c23 7530   5.114   3.980   5.524 -0.1126 -0.1434  0.1091
 1708poe    c23 7531   5.025   4.093   5.579 -0.1467 -0.2193  0.2100
 1708poe     o2 7532   4.895   4.048   5.608 -0.3918  0.1360 -0.3247
 1708poe    c23 7533   4.817   4.017   5.495 -0.7326  0.3261 -0.1423
 1708poe    c23 7534   4.725   3.899   5.533 -0.0040 -0.2298 -0.0881
 1708poe     o2 7535   4.669   3.943   5.655  0.1842 -0.3978  0.0613
 1708poe    c31 7536   4.534   3.901   5.667  0.0241  0.0222 -0.2464
 1709poe    c31 7537   2.194   4.088   3.357 -0.6946 -0.6905 -0.7185
 1709poe     o2 7538   2.088   4.158   3.296 -0.2708  0.3006 -0.3348
 1709poe    c23 7539   1.971   4.105   3.353  0.1619 -0.4300 -0.1045
 1709poe    c23 7540   1.851   4.173   3.283  0.1029 -0.1191  0.2931
 1709poe     o2 7541   1.872   4.193   3.145 -0.3039  0.2600  0.2843
 1709poe    c23 7542   1.754   4.221   3.074 -0.2413  0.0836  0.1094
 1709poe    c23 7543   1.781   4.196   2.924  0.1150 -0.0133  0.1884
 1709poe     o2 7544   1.867   4.299   2.883 -0.0440  0.0279 -0.0409
 1709poe    c23 7545   1.920   4.285   2.753  0.3974  0.3704  0.1010
 1709poe    c23 7546   2.052   4.363   2.738  0.2488  0.6348  0.1581
 1709poe     o2 7547   2.145   4.306   2.827 -0.2467 -0.1944  0.1529
 1709poe    c31 7548   2.275   4.360   2.838 -0.1007 -0.6049  0.4997
 1710poe    c31 7549   3.226   1.318   1.253  0.5037 -0.1333 -0.0429
 1710poe     o2 7550   3.091   1.280   1.255  0.3911  0.2771  0.1092
 1710poe    c23 7551   3.083   1.177   1.160  0.0557  0.4710 -0.0772
 1710poe    c23 7552   2.945   1.170   1.093  0.1133  0.0860 -0.1570
 1710poe     o2 7553   2.842   1.112   1.171  0.3040 -0.0861 -0.0325
 1710poe    c23 7554   2.712   1.129   1.120  0.0805 -0.5840  0.3506
 1710poe    c23 7555   2.595   1.040   1.164 -0.6359 -0.1528 -0.6188
 1710poe     o2 7556   2.546   1.041   1.296  0.6632 -0.6698 -0.1127
 1710poe    c23 7557   2.424   0.972   1.315  0.4163 -0.0227  0.7338
 1710poe    c23 7558   2.407   0.819   1.312  0.0023  0.0298 -0.2361
 1710poe     o2 7559   2.407   0.767   1.181 -0.0464  0.0107 -0.2284
 1710poe    c31 7560   2.484   0.650   1.174 -0.1568 -0.1110  0.4417
 1711poe    c31 7561   3.803   2.634   3.051 -0.7495  0.3623 -0.1436
 1711poe     o2 7562   3.843   2.733   3.144  0.1523 -0.5178  0.4328
 1711poe    c23 7563   3.727   2.780   3.210 -0.0311  0.0610 -0.2898
 1711poe    c23 7564   3.754   2.811   3.358 -0.5464  0.3611 -0.2588
 1711poe     o2 7565   3.872   2.888   3.367 -0.4770  0.2512 -0.2242
 1711poe    c23 7566   3.894   2.915   3.503 -0.8128  0.2087 -0.1591
 1711poe    c23 7567   4.007   2.823   3.553 -0.5005  0.5657 -0.2014
 1711poe     o2 7568   4.119   2.876   3.486 -0.1950 -0.0127 -0.1552
 1711poe    c23 7569   4.246   2.827   3.522 -0.1751  0.0114 -0.1931
 1711poe    c23 7570   4.360   2.894   3.443 -0.0872  0.0831 -0.0055
 1711poe     o2 7571   4.313   2.912   3.311 -0.1703 -0.2348 -0.0203
 1711poe    c31 7572   4.419   2.909   3.219 -0.5629  0.8628 -0.5245
 1712poe    c31 7573   3.972   6.729   1.468 -0.7932 -0.3435  0.1443
 1712poe     o2 7574   4.016   6.826   1.560  0.2418 -0.1161 -0.5793
 1712poe    c23 7575   4.044   6.770   1.686 -0.1529  0.3738 -0.2696
 1712poe    c23 7576   4.008   6.867   1.800 -0.2666  0.5402 -0.4486
 1712poe     o2 7577   4.106   6.967   1.810 -0.6540  0.8649  0.1263
 1712poe    c23 7578   4.136   7.004   1.943  0.2815 -0.0263  0.1709
 1712poe    c23 7579   4.208   7.139   1.959  0.1489  0.0920 -0.2344
 1712poe     o2 7580   4.151   7.239   1.877  0.2326  0.5859  0.3099
 1712poe    c23 7581   4.255   7.308   1.812 -0.0459  0.1017 -0.6549
 1712poe    c23 7582   4.195   7.413   1.717  0.0498  0.6914 -0.0732
 1712poe     o2 7583   4.141   7.338   1.610 -0.1921  0.7017  0.0400
 1712poe    c31 7584   4.086   7.433   1.521  0.5552  0.8308 -0.2957
 1713poe    c31 7585   3.365   6.489   2.896  0.0775 -0.3666 -0.0769
 1713poe     o2 7586   3.336   6.484   3.034 -0.0563 -0.4011 -0.1069
 1713poe    c23 7587   3.451   6.522   3.105 -0.1189  0.3970 -0.4215
 1713poe    c23 7588   3.423   6.510   3.256 -0.0937  0.2341 -0.4304
 1713poe     o2 7589   3.322   6.603   3.285 -0.0383  0.1626  0.0036
 1713poe    c23 7590   3.330   6.638   3.421 -0.1951 -0.4281  0.1659
 1713poe    c23 7591   3.237   6.759   3.437  0.2753 -0.0583  0.1475
 1713poe     o2 7592   3.112   6.735   3.376  0.5013 -0.0938 -0.3048
 1713poe    c23 7593   3.027   6.821   3.449  0.3474 -0.2136 -0.3422
 1713poe    c23 7594   2.879   6.809   3.408  0.2492  0.3511 -0.1505
 1713poe     o2 7595   2.854   6.849   3.275 -0.2912  0.0852 -0.1299
 1713poe    c31 7596   2.721   6.829   3.233 -0.5180  0.4194  0.4173
 1714poe    c31 7597   2.725   4.804   0.388 -0.1389  0.1842 -0.2387
 1714poe     o2 7598   2.735   4.664   0.384  0.0707  0.1989 -0.2410
 1714poe    c23 7599   2.668   4.615   0.498  0.5478  0.1483  0.0201
 1714poe    c23 7600   2.655   4.461   0.497  0.1974  0.1773 -0.0959
 1714poe     o2 7601   2.634   4.409   0.368 -0.6163 -0.4097  0.2643
 1714poe    c23 7602   2.650   4.269   0.376 -0.2954 -0.3749  0.2765
 1714poe    c23 7603   2.560   4.205   0.269  0.2059  0.1364 -0.4556
 1714poe     o2 7604   2.587   4.269   0.146  0.0223  0.6013 -0.2578
 1714poe    c23 7605   2.505   4.219   0.042  0.0399 -0.0837  0.0487
 1714poe    c23 7606   2.506   4.306  -0.086 -0.6240 -0.2034 -0.0408
 1714poe     o2 7607   2.469   4.433  -0.037 -0.2199 -0.1656  0.1667
 1714poe    c31 7608   2.482   4.532  -0.136 -0.6455  0.2459  0.5202
 1715poe    c31 7609   5.176   1.800   0.944  0.1569 -0.7029 -0.3052
 1715poe     o2 7610   5.106   1.903   0.878 -0.0201 -0.6990 -0.1096
 1715poe    c23 7611   4.980   1.857   0.835  0.1351 -0.8259 -0.4262
 1715poe    c23 7612   4.909   1.974   0.764  0.4093 -0.4717 -0.1190
 1715poe     o2 7613   5.003   2.070   0.721  0.0212 -0.0813 -0.1033
 1715poe    c23 7614   4.947   2.189   0.669 -0.2204 -0.0338  0.2669
 1715poe    c23 7615   5.061   2.238   0.578 -0.2307  0.1445  0.3503
 1715poe     o2 7616   5.180   2.281   0.641  0.4027 -0.3345 -0.5019
 1715poe    c23 7617   5.254   2.380   0.572  0.1727  0.3185  0.1749
 1715poe    c23 7618   5.402   2.376   0.613  0.1191 -0.4596  0.3100
 1715poe     o2 7619   5.456   2.247   0.589  0.4466 -0.3164  0.2681
 1715poe    c31 7620   5.587   2.233   0.639  0.6513  0.2910 -0.0816
 1716poe    c31 7621   4.990   1.755   5.148  0.0907  0.3243  0.3393
 1716poe     o2 7622   5.011   1.702   5.276  0.3208  0.1024  0.2097
 1716poe    c23 7623   4.893   1.702   5.353  0.3442  0.5658  0.2475
 1716poe    c23 7624   4.935   1.685   5.500  0.0367  0.0012  0.2744
 1716poe     o2 7625   4.996   1.561   5.526  0.5459  0.0890 -0.4770
 1716poe    c23 7626   5.043   1.557   5.659  0.0792 -0.1777 -0.3181
 1716poe    c23 7627   5.103   1.419   5.692 -0.0255 -0.0837  0.2651
 1716poe     o2 7628   5.215   1.393   5.610  0.1608 -0.2099  0.5530
 1716poe    c23 7629   5.252   1.261   5.642  0.2353 -0.3431 -0.0709
 1716poe    c23 7630   5.388   1.230   5.577  0.3229  0.4810 -0.2926
 1716poe     o2 7631   5.390   1.099   5.526 -0.4136  0.2850  0.1667
 1716poe    c31 7632   5.509   1.084   5.451 -0.0816 -0.0849  0.7606
 1717poe    c31 7633   5.509   5.567   2.916  0.0664 -0.1178 -0.4865
 1717poe     o2 7634   5.456   5.670   2.997  0.1459 -0.6313  0.2282
 1717poe    c23 7635   5.461   5.798   2.938 -0.2092 -0.4074  0.6825
 1717poe    c23 7636   5.382   5.909   3.010 -0.5632 -0.3442  0.2066
 1717poe     o2 7637   5.414   5.931   3.146  0.2618  0.3179 -0.0864
 1717poe    c23 7638   5.509   6.029   3.178  0.2675  0.4150 -0.4021
 1717poe    c23 7639   5.520   6.053   3.329 -0.1164  0.5676 -0.3970
 1717poe     o2 7640   5.577   5.947   3.402 -0.3047  0.5113 -0.3339
 1717poe    c23 7641   5.547   5.959   3.540 -0.3099  0.2673 -0.3123
 1717poe    c23 7642   5.565   5.833   3.627  0.0273 -0.0010 -0.7622
 1717poe     o2 7643   5.700   5.793   3.632 -0.1106 -0.3539  0.2197
 1717poe    c31 7644   5.722   5.720   3.751  0.7632 -0.2755  0.1067
 1718poe    c31 7645   3.425   1.346   3.683  0.2847 -0.2504 -0.1823
 1718poe     o2 7646   3.517   1.283   3.769  0.2164 -0.4826 -0.2779
 1718poe    c23 7647   3.482   1.149   3.792 -0.0797 -0.3914 -0.1918
 1718poe    c23 7648   3.560   1.059   3.889 -0.0062 -0.0008  0.1124
 1718poe     o2 7649   3.700   1.079   3.893  0.0134 -0.1395  0.1272
 1718poe    c23 7650   3.765   0.987   3.978 -0.0133 -0.2427  0.0362
 1718poe    c23 7651   3.912   1.031   3.996 -0.0163 -0.1139 -0.2458
 1718poe     o2 7652   3.948   1.071   3.866 -0.1112 -0.0916 -0.2654
 1718poe    c23 7653   4.077   1.126   3.855 -0.2163  0.2392  0.1537
 1718poe    c23 7654   4.120   1.162   3.712  0.4700  0.2896  0.3686
 1718poe     o2 7655   4.008   1.221   3.650  0.1026 -0.5981  0.1748
 1718poe    c31 7656   4.017   1.229   3.509 -0.8980 -0.3013  0.1197
 1719poe    c31 7657   0.927   2.762   2.504  0.0740 -0.0617 -0.6022
 1719poe     o2 7658   0.801   2.751   2.566  0.4927  0.5636  0.3810
 1719poe    c23 7659   0.775   2.857   2.655 -0.0732  0.5364  0.2575
 1719poe    c23 7660   0.647   2.839   2.737 -0.2096  0.0978 -0.0504
 1719poe     o2 7661   0.670   2.739   2.834 -0.2273 -0.0572 -0.2047
 1719poe    c23 7662   0.542   2.683   2.852 -0.4833  0.5563 -0.0821
 1719poe    c23 7663   0.547   2.552   2.934 -0.1078  0.7613  0.2237
 1719poe     o2 7664   0.534   2.431   2.863  0.1553  0.2641  1.0103
 1719poe    c23 7665   0.661   2.392   2.815 -0.0659  0.1841  0.4841
 1719poe    c23 7666   0.644   2.270   2.723 -0.2648 -0.0498  0.8276
 1719poe     o2 7667   0.587   2.267   2.595  0.2783 -0.1961  0.5846
 1719poe    c31 7668   0.566   2.131   2.562 -0.0680 -0.1230  0.4966
 1720poe    c31 7669   2.195   1.026   5.513 -0.1618  0.2101  0.5133
 1720poe     o2 7670   2.136   1.080   5.629  0.1538  1.0295  0.2956
 1720poe    c23 7671   2.060   0.983   5.697  0.9967  0.4851  0.4738
 1720poe    c23 7672   1.961   1.062   5.785  0.0079 -0.4402  0.2118
 1720poe     o2 7673   2.022   1.181   5.831 -0.1214 -0.2019 -0.2208
 1720poe    c23 7674   1.957   1.234   5.944  0.0727  0.0439 -0.2232
 1720poe    c23 7675   2.000   1.379   5.973  0.0257  0.0083  0.0288
 1720poe     o2 7676   1.948   1.458   5.868 -0.0241  0.4404  0.3767
 1720poe    c23 7677   1.983   1.594   5.884  0.5179  0.4012 -0.4063
 1720poe    c23 7678   1.870   1.691   5.846  0.3319  0.3968  0.1177
 1720poe     o2 7679   1.840   1.703   5.708 -0.8114  0.3103  0.3479
 1720poe    c31 7680   1.862   1.829   5.648  0.3966 -0.2087 -0.3308
 1721poe    c31 7681   5.610   1.980   4.524 -0.2005 -0.2049  0.5703
 1721poe     o2 7682   5.494   2.060   4.527  0.2705  0.5337 -0.3091
 1721poe    c23 7683   5.375   1.986   4.546  0.4124  0.3542 -0.1183
 1721poe    c23 7684   5.259   2.075   4.595  0.3179 -0.1617  0.6085
 1721poe     o2 7685   5.266   2.100   4.734  0.3628 -0.0402  0.5840
 1721poe    c23 7686   5.160   2.177   4.785  0.2046  0.3189 -0.2707
 1721poe    c23 7687   5.170   2.198   4.937  0.2838 -0.0470 -0.2245
 1721poe     o2 7688   5.301   2.244   4.960  0.1421  0.1154  0.2797
 1721poe    c23 7689   5.332   2.251   5.097  0.4452 -0.1055  0.2228
 1721poe    c23 7690   5.472   2.315   5.109  0.2161  0.3917  0.2648
 1721poe     o2 7691   5.541   2.265   4.997  0.0581 -0.0480  0.3595
 1721poe    c31 7692   5.682   2.261   5.000  0.0643 -0.0702  0.0766
 1722poe    c31 7693   7.033   1.860   2.905  0.1049 -0.4397  0.5968
 1722poe     o2 7694   7.170   1.843   2.877 -0.1049 -0.3349 -0.5413
 1722poe    c23 7695   7.187   1.750   2.773  0.4647 -0.6264 -0.1906
 1722poe    c23 7696   7.196   1.802   2.629  0.1725  0.0766  0.0439
 1722poe     o2 7697   7.280   1.913   2.608  0.2873  0.0335  0.2826
 1722poe    c23 7698   7.312   1.942   2.474  0.1466  0.3921  0.3258
 1722poe    c23 7699   7.214   2.037   2.402  0.1949 -0.0285 -0.3030
 1722poe     o2 7700   7.188   2.164   2.457 -1.0452 -0.0894 -0.7338
 1722poe    c23 7701   7.284   2.255   2.408 -0.1078 -0.5127  0.2835
 1722poe    c23 7702   7.268   2.379   2.499 -0.3873 -0.1872 -0.2034
 1722poe     o2 7703   7.319   2.361   2.629 -0.4191  0.0694 -0.1561
 1722poe    c31 7704   7.303   2.483   2.698  0.2657 -0.3303  0.7326
 1723poe    c31 7705   5.546   2.648   6.029  0.0372  0.4096  0.2154
 1723poe     o2 7706   5.420   2.591   6.056 -0.0695  0.3953 -0.3146
 1723poe    c23 7707   5.440   2.452   6.050 -0.4944  0.3089  0.2212
 1723poe    c23 7708   5.395   2.378   6.177 -0.1634  0.0195  0.1705
 1723poe     o2 7709   5.260   2.405   6.205 -0.2883 -0.3142 -0.1083
 1723poe    c23 7710   5.218   2.335   6.319 -0.1300  0.2790  0.3184
 1723poe    c23 7711   5.073   2.291   6.292  0.0760 -0.3976  0.2902
 1723poe     o2 7712   5.008   2.407   6.246  0.3150 -0.2347  0.3619
 1723poe    c23 7713   4.877   2.386   6.197  0.2440  0.0500  0.4252
 1723poe    c23 7714   4.817   2.528   6.190  0.0861 -0.0243  0.2901
 1723poe     o2 7715   4.904   2.626   6.139 -0.5065  0.0580 -0.5953
 1723poe    c31 7716   4.848   2.755   6.130 -0.3214  0.1660 -0.2372
 1724poe    c31 7717   5.779   6.292   3.423  0.3552 -0.1793  0.7367
 1724poe     o2 7718   5.808   6.412   3.492  0.3197  0.0534  0.3517
 1724poe    c23 7719   5.943   6.444   3.465  0.4332 -0.2117  0.5959
 1724poe    c23 7720   5.979   6.562   3.557 -0.0279  0.2554  0.1867
 1724poe     o2 7721   5.890   6.663   3.515 -0.0981 -0.0433 -0.3943
 1724poe    c23 7722   5.941   6.794   3.529 -0.0085 -0.1779  0.6226
 1724poe    c23 7723   5.838   6.902   3.493  0.0537 -0.2060  0.3560
 1724poe     o2 7724   5.791   6.888   3.361  0.1030  0.7070  0.2333
 1724poe    c23 7725   5.698   6.991   3.332 -0.2630  0.3477  0.1184
 1724poe    c23 7726   5.613   6.967   3.206 -0.0049  0.3426 -0.0573
 1724poe     o2 7727   5.526   6.860   3.235  0.3611  0.0481 -0.0426
 1724poe    c31 7728   5.429   6.838   3.135  0.1086  0.2873  0.1460
 1725poe    c31 7729   1.573   1.034   2.411 -0.0853 -0.0581 -0.5949
 1725poe     o2 7730   1.619   0.912   2.359 -0.0503 -0.4816  0.4126
 1725poe    c23 7731   1.587   0.904   2.221  0.3549  0.0157  0.2906
 1725poe    c23 7732   1.685   0.820   2.138 -0.3410 -0.2632 -0.2522
 1725poe     o2 7733   1.658   0.682   2.149 -0.1975 -0.3076 -0.4334
 1725poe    c23 7734   1.763   0.620   2.079  0.6356  0.4961  0.0937
 1725poe    c23 7735   1.699   0.480   2.081  0.3697  0.6172  0.0743
 1725poe     o2 7736   1.661   0.457   2.215 -0.4928  0.1617 -0.2439
 1725poe    c23 7737   1.588   0.337   2.228  0.5979 -0.4834  0.0979
 1725poe    c23 7738   1.568   0.309   2.378  0.5845 -0.4147  0.1092
 1725poe     o2 7739   1.483   0.401   2.442  0.4013 -0.3225 -0.2664
 1725poe    c31 7740   1.502   0.415   2.581  0.8163  0.0385 -0.3579
 1726poe    c31 7741   3.811   6.442   3.086  0.0605  0.0335 -0.2056
 1726poe     o2 7742   3.808   6.449   3.227 -0.2543  0.3097 -0.2273
 1726poe    c23 7743   3.808   6.321   3.285 -0.0951  0.4326  0.0417
 1726poe    c23 7744   3.797   6.325   3.439 -0.3019  0.4455  0.0269
 1726poe     o2 7745   3.911   6.375   3.506 -0.1405 -0.2056  0.2432
 1726poe    c23 7746   3.888   6.394   3.643  0.2251 -0.0082  0.2772
 1726poe    c23 7747   4.012   6.441   3.722  0.4549 -0.1455 -0.0006
 1726poe     o2 7748   4.048   6.562   3.659  0.0434  0.0722  0.1766
 1726poe    c23 7749   4.129   6.647   3.738 -0.1073  0.5037 -0.1325
 1726poe    c23 7750   4.164   6.775   3.660  0.2390  0.8010  0.5029
 1726poe     o2 7751   4.179   6.738   3.525 -0.2216 -0.0382  0.6741
 1726poe    c31 7752   4.308   6.765   3.475 -0.6525  0.3618 -0.2586
 1727poe    c31 7753   7.059   5.945   1.955 -0.2980  0.2657  0.8887
 1727poe     o2 7754   7.200   5.946   1.955 -0.2905  0.5291 -0.1209
 1727poe    c23 7755   7.250   5.850   2.046  0.4142  0.6995 -0.3201
 1727poe    c23 7756   7.307   5.885   2.185 -0.1599  0.2192  0.0403
 1727poe     o2 7757   7.434   5.946   2.177 -0.1001  0.1092  0.1460
 1727poe    c23 7758   7.468   5.998   2.303 -0.0142 -0.5468  0.3968
 1727poe    c23 7759   7.618   6.017   2.333 -0.0400  0.1313  0.1186
 1727poe     o2 7760   7.663   6.124   2.254  0.1319  0.0488  0.1058
 1727poe    c23 7761   7.801   6.132   2.224  0.0728  0.0690 -0.1696
 1727poe    c23 7762   7.850   6.246   2.133 -0.5121  0.1609 -0.3725
 1727poe     o2 7763   7.816   6.372   2.185  0.1354  0.1125  0.1669
 1727poe    c31 7764   7.843   6.483   2.102  0.4691  0.0264  0.1557
 1728poe    c31 7765   6.320   3.294   6.157 -0.1625  0.2902 -0.6433
 1728poe     o2 7766   6.346   3.202   6.053  0.0579 -0.2616 -0.1085
 1728poe    c23 7767   6.483   3.207   6.020  0.1683 -0.4675  0.3019
 1728poe    c23 7768   6.513   3.164   5.875 -0.7096 -0.3927  0.0897
 1728poe     o2 7769   6.529   3.025   5.861  0.0072 -0.2849 -0.2083
 1728poe    c23 7770   6.409   2.964   5.821 -0.0443 -0.1072 -0.3265
 1728poe    c23 7771   6.367   2.834   5.894  0.2912  0.0268  0.1098
 1728poe     o2 7772   6.436   2.721   5.844 -0.1053 -0.1979  0.0743
 1728poe    c23 7773   6.390   2.616   5.926 -0.0164  0.1172  0.5336
 1728poe    c23 7774   6.470   2.485   5.915 -0.1617  0.0806 -0.0944
 1728poe     o2 7775   6.469   2.429   5.785  0.3396  0.0880 -0.1063
 1728poe    c31 7776   6.517   2.298   5.764  0.4642  0.2120 -0.6093
 1729poe    c31 7777   1.400   0.457   5.009 -0.4193 -0.0026 -0.1035
 1729poe     o2 7778   1.461   0.564   4.942 -0.1446 -0.0727  0.0341
 1729poe    c23 7779   1.580   0.522   4.877 -0.2100  0.1533 -0.2338
 1729poe    c23 7780   1.678   0.640   4.868 -0.2253  0.1967  0.1685
 1729poe     o2 7781   1.675   0.711   4.990 -0.6581  0.4453  0.0162
 1729poe    c23 7782   1.773   0.813   4.990 -0.1592 -0.0277  0.1162
 1729poe    c23 7783   1.845   0.834   5.125  0.1122  0.0200 -0.0364
 1729poe     o2 7784   1.754   0.853   5.231  0.0625 -0.0062 -0.0738
 1729poe    c23 7785   1.820   0.901   5.346  0.2278  0.0415 -0.1890
 1729poe    c23 7786   1.755   0.859   5.479  0.2011  0.4657 -0.0674
 1729poe     o2 7787   1.729   0.722   5.499  0.2769  0.4955  0.2430
 1729poe    c31 7788   1.623   0.704   5.590  0.0316  0.9424  0.0527
 1730poe    c31 7789   4.596   1.118   5.273  0.4151 -0.5169  0.2953
 1730poe     o2 7790   4.724   1.095   5.328  0.6111  0.0287  0.0823
 1730poe    c23 7791   4.801   1.211   5.347 -0.0316  0.4835 -0.0525
 1730poe    c23 7792   4.761   1.296   5.469 -0.2210 -0.2107  0.3746
 1730poe     o2 7793   4.806   1.215   5.575  0.8937 -0.1466 -0.0345
 1730poe    c23 7794   4.744   1.259   5.694  0.5138  0.5125 -0.4710
 1730poe    c23 7795   4.808   1.202   5.822 -0.5048  0.1054 -0.1378
 1730poe     o2 7796   4.797   1.061   5.821 -0.2859  0.0903 -0.4248
 1730poe    c23 7797   4.804   1.003   5.949  0.9529 -0.0746 -0.5605
 1730poe    c23 7798   4.742   0.862   5.951  0.6716  0.0564  0.3704
 1730poe     o2 7799   4.760   0.807   5.822 -0.4318  0.0481  0.2081
 1730poe    c31 7800   4.679   0.692   5.833  0.0138 -0.2918 -0.0404
 1731poe    c31 7801   5.737   2.173   4.105 -0.7738  0.2414 -0.6599
 1731poe     o2 7802   5.669   2.296   4.099 -0.1215  0.7010  0.9103
 1731poe    c23 7803   5.774   2.390   4.108  0.4772  0.1906 -0.4783
 1731poe    c23 7804   5.741   2.538   4.084 -0.3394  0.1612  0.4240
 1731poe     o2 7805   5.641   2.590   4.169  0.0738  0.4455  0.7416
 1731poe    c23 7806   5.626   2.730   4.167 -0.3420  0.3934  0.1680
 1731poe    c23 7807   5.502   2.761   4.253 -0.6540  0.2521 -0.2272
 1731poe     o2 7808   5.399   2.673   4.213 -0.0685 -0.3453 -0.4372
 1731poe    c23 7809   5.285   2.681   4.296  0.4308 -0.6242  0.2872
 1731poe    c23 7810   5.189   2.563   4.274 -0.2959 -0.0412  0.3104
 1731poe     o2 7811   5.249   2.442   4.315  0.1810  0.1153  0.0736
 1731poe    c31 7812   5.165   2.333   4.284 -0.6653  0.6303  0.5162
 1732poe    c31 7813   5.091   0.027   6.457  0.4392 -0.5077  0.3025
 1732poe     o2 7814   5.037   0.081   6.575  0.2771  0.2171 -0.1004
 1732poe    c23 7815   4.935   0.170   6.534 -0.1556 -0.0591  0.3600
 1732poe    c23 7816   4.885   0.253   6.653 -0.0691  0.4851  0.0189
 1732poe     o2 7817   5.012   0.278   6.709  0.0703  0.1196 -0.1349
 1732poe    c23 7818   5.013   0.390   6.794  0.0344  0.1629 -0.1916
 1732poe    c23 7819   5.150   0.456   6.816  0.2257 -0.2236 -0.2198
 1732poe     o2 7820   5.254   0.369   6.855 -0.0362 -0.4345  0.0106
 1732poe    c23 7821   5.369   0.447   6.881 -0.3748  0.0369  0.1036
 1732poe    c23 7822   5.448   0.505   6.762 -0.0430 -0.2109  0.2022
 1732poe     o2 7823   5.484   0.396   6.679  0.0443 -0.1208  0.1216
 1732poe    c31 7824   5.589   0.419   6.588 -0.1151  0.0525 -0.0186
 1733poe    c31 7825   2.557   5.616   2.098 -0.2899 -0.2263  0.1362
 1733poe     o2 7826   2.527   5.558   2.223 -0.4440 -0.2076  0.1083
 1733poe    c23 7827   2.515   5.418   2.215 -0.2850 -0.2328  0.2976
 1733poe    c23 7828   2.508   5.370   2.361 -0.3501  0.1077  0.4062
 1733poe     o2 7829   2.408   5.455   2.413 -0.5279  0.4366 -0.4583
 1733poe    c23 7830   2.391   5.439   2.552 -0.0213 -0.2291 -0.4656
 1733poe    c23 7831   2.268   5.520   2.597  0.1000 -0.6057  0.5846
 1733poe     o2 7832   2.269   5.645   2.531  0.4571 -0.5359  0.7217
 1733poe    c23 7833   2.153   5.720   2.559  0.5071 -0.0460 -0.3100
 1733poe    c23 7834   2.158   5.838   2.460  0.3094  0.1155 -0.1290
 1733poe     o2 7835   2.103   5.810   2.333  0.6027 -0.1760 -0.1945
 1733poe    c31 7836   2.106   5.918   2.242 -0.3363  0.2827  0.3067
 1734poe    c31 7837   1.971   0.250   6.190 -0.1167 -0.0627 -0.2066
 1734poe     o2 7838   1.905   0.157   6.107 -0.1856 -0.2275  0.0333
 1734poe    c23 7839   1.897   0.039   6.184 -0.2126 -0.0660  0.2780
 1734poe    c23 7840   1.810  -0.063   6.109  0.4161 -0.5618  0.2102
 1734poe     o2 7841   1.831  -0.049   5.970  0.6001 -0.6647  0.2281
 1734poe    c23 7842   1.752  -0.126   5.882 -0.4394  0.4319  0.1857
 1734poe    c23 7843   1.811  -0.105   5.742 -0.3559  0.0209  0.1586
 1734poe     o2 7844   1.819   0.030   5.703 -0.2617 -0.0703 -0.1424
 1734poe    c23 7845   1.886   0.040   5.579 -0.6517  0.4727 -0.3191
 1734poe    c23 7846   1.880   0.180   5.517  0.2036  0.5512 -0.2384
 1734poe     o2 7847   1.957   0.285   5.570  0.4249  0.3679 -0.1978
 1734poe    c31 7848   1.941   0.407   5.501  0.2124  0.3081 -0.2553
 1735poe    c31 7849   4.421   4.059   4.410  0.2249 -0.2384 -0.0897
 1735poe     o2 7850   4.398   3.929   4.459 -0.3978  0.0993  0.5285
 1735poe    c23 7851   4.299   3.859   4.386 -0.1527 -0.1154  0.4006
 1735poe    c23 7852   4.320   3.707   4.398 -0.1277 -0.1543 -0.1483
 1735poe     o2 7853   4.325   3.690   4.538 -0.0608  0.3604 -0.0888
 1735poe    c23 7854   4.295   3.562   4.588  0.7932  0.0001 -0.4776
 1735poe    c23 7855   4.368   3.524   4.718  0.4797 -0.0095 -0.3023
 1735poe     o2 7856   4.329   3.607   4.825 -0.0436 -0.3560 -0.2198
 1735poe    c23 7857   4.337   3.545   4.951 -0.0831 -0.1592 -0.1197
 1735poe    c23 7858   4.333   3.649   5.064  0.5956 -0.9301  0.6310
 1735poe     o2 7859   4.416   3.763   5.066  0.2632 -0.6835  0.3978
 1735poe    c31 7860   4.426   3.830   5.190  1.0073  0.8262 -0.4515
 1736poe    c31 7861   3.615   5.364   2.328 -0.0434 -0.1986  0.5650
 1736poe     o2 7862   3.484   5.398   2.289  0.2525  0.1549 -0.1424
 1736poe    c23 7863   3.419   5.458   2.399  0.3546 -0.3903  0.2238
 1736poe    c23 7864   3.288   5.528   2.357  0.3517 -0.3292  0.3340
 1736poe     o2 7865   3.213   5.441   2.275  0.4407  0.3014 -0.4295
 1736poe    c23 7866   3.112   5.511   2.206  0.0421  0.1189 -0.0379
 1736poe    c23 7867   3.052   5.415   2.101 -0.4368  0.5687 -0.1728
 1736poe     o2 7868   3.154   5.395   2.006 -0.2035  0.4253  0.1072
 1736poe    c23 7869   3.104   5.335   1.888  0.0138  0.2377  0.1109
 1736poe    c23 7870   3.201   5.358   1.770 -0.0462 -0.1458 -0.0157
 1736poe     o2 7871   3.335   5.326   1.798 -0.2721 -0.6751  0.4791
 1736poe    c31 7872   3.408   5.302   1.680 -0.6088 -0.4164  0.2166
 1737poe    c31 7873   2.626   4.059   5.875 -0.1945 -0.2741 -0.3508
 1737poe     o2 7874   2.511   3.998   5.928 -0.5846  0.7143 -0.0415
 1737poe    c23 7875   2.509   3.997   6.069 -0.2292 -0.0914 -0.0384
 1737poe    c23 7876   2.478   4.125   6.148 -0.7187 -0.3303  0.1627
 1737poe     o2 7877   2.341   4.158   6.139 -0.6713 -0.0853  0.3184
 1737poe    c23 7878   2.328   4.297   6.121 -0.0285 -0.0983 -0.2907
 1737poe    c23 7879   2.187   4.356   6.102  0.0626  0.1192 -0.2905
 1737poe     o2 7880   2.106   4.314   5.995  0.2179 -0.3807 -0.2116
 1737poe    c23 7881   1.979   4.375   5.994  0.2607 -0.2557  0.6106
 1737poe    c23 7882   1.886   4.270   5.930  0.5403 -0.1160 -0.0413
 1737poe     o2 7883   1.902   4.144   5.991  0.5554 -0.2259 -0.2715
 1737poe    c31 7884   1.785   4.081   6.038  0.3547  0.1952 -0.1984
 1738poe    c31 7885   6.307   2.026   5.955 -0.0869  0.4197 -0.0014
 1738poe     o2 7886   6.170   1.998   5.965 -0.0678  0.2536 -0.2123
 1738poe    c23 7887   6.113   2.123   5.935  0.0651  0.4634  0.4150
 1738poe    c23 7888   5.967   2.112   5.983  0.0228 -0.1657  0.1505
 1738poe     o2 7889   5.911   2.017   5.896 -0.3078  0.7135 -0.6212
 1738poe    c23 7890   5.771   2.037   5.896 -0.3534  0.4476  0.3712
 1738poe    c23 7891   5.706   1.970   5.774  0.4450  0.3524 -0.0129
 1738poe     o2 7892   5.707   1.829   5.784 -0.0220  0.3232 -0.2987
 1738poe    c23 7893   5.621   1.765   5.694 -0.0321  0.2451 -0.2333
 1738poe    c23 7894   5.627   1.612   5.705 -0.3646  0.2170 -0.4249
 1738poe     o2 7895   5.585   1.565   5.831  1.0484 -0.1018 -0.0637
 1738poe    c31 7896   5.615   1.427   5.843  0.6284 -0.1631  0.2923
 1739poe    c31 7897   4.294   1.075   2.328  0.1357 -0.3374  0.1892
 1739poe     o2 7898   4.193   1.141   2.255 -0.1704 -0.4913  0.4682
 1739poe    c23 7899   4.181   1.280   2.276 -0.5714 -0.4142 -0.2240
 1739poe    c23 7900   4.065   1.350   2.202 -0.2831  0.0248 -0.2631
 1739poe     o2 7901   4.107   1.357   2.068  0.1551 -0.4886 -0.1604
 1739poe    c23 7902   4.000   1.418   1.998 -0.5201 -1.1908  0.2468
 1739poe    c23 7903   4.032   1.368   1.856 -0.5593  0.0823 -0.2182
 1739poe     o2 7904   4.075   1.235   1.845  0.2666  0.3517 -0.2862
 1739poe    c23 7905   4.074   1.189   1.711 -0.1708 -0.1071 -0.1269
 1739poe    c23 7906   4.104   1.038   1.713 -0.2854 -0.1310 -0.2113
 1739poe     o2 7907   4.224   1.003   1.778 -0.0518  0.4786 -0.3032
 1739poe    c31 7908   4.252   0.866   1.756 -0.1336  0.4631 -0.3107
 1740poe    c31 7909   5.086   1.100   2.769 -0.2872  0.6176  0.5281
 1740poe     o2 7910   5.060   1.210   2.686 -0.0357  0.0903 -0.2668
 1740poe    c23 7911   5.075   1.321   2.773  0.0659  0.5880 -0.9085
 1740poe    c23 7912   5.077   1.457   2.701 -0.0917  1.0610 -0.0253
 1740poe     o2 7913   4.946   1.473   2.654 -0.1838 -0.0049 -0.1521
 1740poe    c23 7914   4.925   1.581   2.565  0.2286  0.0292 -0.2097
 1740poe    c23 7915   4.958   1.544   2.419 -0.1979 -0.0441 -0.2887
 1740poe     o2 7916   4.853   1.475   2.355 -0.3806  0.4482 -0.5284
 1740poe    c23 7917   4.900   1.417   2.235 -0.2335 -0.0355 -0.2407
 1740poe    c23 7918   4.780   1.352   2.164 -0.2147 -0.0781 -0.2341
 1740poe     o2 7919   4.709   1.250   2.231  0.4121 -0.7545 -0.5781
 1740poe    c31 7920   4.614   1.188   2.146 -0.5065 -0.0278 -0.1080
 1741poe    c31 7921   2.846   2.356   3.292 -0.1472  0.6249  0.2074
 1741poe     o2 7922   2.926   2.282   3.203 -0.5970 -0.1645  0.4477
 1741poe    c23 7923   3.018   2.201   3.271  0.4461  0.7689  0.1848
 1741poe    c23 7924   3.096   2.092   3.194 -0.0483 -0.0157  0.7795
 1741poe     o2 7925   3.012   2.011   3.115 -0.0379  0.1128  0.6376
 1741poe    c23 7926   3.090   1.911   3.052 -0.3960  0.5679 -0.5726
 1741poe    c23 7927   3.001   1.786   3.058  0.7178 -0.2094  0.1189
 1741poe     o2 7928   2.870   1.818   3.018  0.8177 -0.1524 -0.1702
 1741poe    c23 7929   2.783   1.712   2.983  0.2939  0.0622  0.4478
 1741poe    c23 7930   2.748   1.619   3.100  0.0976 -0.3682  0.0483
 1741poe     o2 7931   2.669   1.685   3.197  0.6271 -0.0714  0.2781
 1741poe    c31 7932   2.634   1.603   3.306  0.1467  0.4057  0.4871
 1742poe    c31 7933   5.946   5.711   2.646  0.3450  0.4546  0.6137
 1742poe     o2 7934   5.878   5.829   2.684 -0.3443  0.4341 -0.4999
 1742poe    c23 7935   5.790   5.863   2.579 -0.4359 -0.4734 -0.7305
 1742poe    c23 7936   5.709   5.991   2.604  0.0621 -0.2780 -0.0689
 1742poe     o2 7937   5.777   6.115   2.609 -0.0723 -0.2127  0.1653
 1742poe    c23 7938   5.732   6.178   2.726 -0.3641  0.5472 -0.3498
 1742poe    c23 7939   5.778   6.325   2.723 -0.2106  0.5148  0.2322
 1742poe     o2 7940   5.903   6.335   2.657 -0.3021 -0.0216 -0.0294
 1742poe    c23 7941   5.957   6.465   2.661  0.2858 -0.2724  0.1905
 1742poe    c23 7942   6.111   6.471   2.667  0.2913 -0.0910 -0.0879
 1742poe     o2 7943   6.164   6.437   2.541 -0.0553 -0.7452 -0.0621
 1742poe    c31 7944   6.302   6.466   2.541 -0.3123  0.5464 -0.5539
 1743poe    c31 7945   0.104   4.134   5.487  0.1556  0.3253  0.3780
 1743poe     o2 7946   0.108   4.023   5.400  0.3000  0.4725  0.1950
 1743poe    c23 7947   0.142   4.067   5.271  0.5284 -0.2583 -0.0025
 1743poe    c23 7948   0.138   3.950   5.171  0.0372 -0.2177 -0.0362
 1743poe     o2 7949   0.001   3.920   5.157 -0.0338 -0.0351  0.2693
 1743poe    c23 7950  -0.026   3.842   5.043 -0.5430 -0.2590  0.5415
 1743poe    c23 7951  -0.170   3.866   4.994 -0.2852 -0.0905 -0.1407
 1743poe     o2 7952  -0.268   3.812   5.080  0.1812  0.1993  0.5798
 1743poe    c23 7953  -0.396   3.853   5.037  0.2019 -0.1984  0.1353
 1743poe    c23 7954  -0.513   3.799   5.120  0.0264 -0.0671 -0.0247
 1743poe     o2 7955  -0.501   3.846   5.253 -0.0682 -0.4063  0.1059
 1743poe    c31 7956  -0.627   3.826   5.313 -0.1880 -0.3870 -0.1374
 1744poe    c31 7957   5.277   3.159   0.376 -0.0989 -0.4304  0.7773
 1744poe     o2 7958   5.321   3.035   0.324  0.0297 -0.0487 -0.0490
 1744poe    c23 7959   5.296   2.927   0.411 -0.6668  0.0559 -0.1133
 1744poe    c23 7960   5.350   2.801   0.341 -0.2324  0.0620  0.2022
 1744poe     o2 7961   5.480   2.823   0.293 -0.3038  0.0198 -0.0131
 1744poe    c23 7962   5.512   2.718   0.204 -0.1543 -0.0329  0.1025
 1744poe    c23 7963   5.653   2.734   0.144 -0.3116  0.0065 -0.2544
 1744poe     o2 7964   5.671   2.866   0.099  0.0390 -0.0400 -0.2507
 1744poe    c23 7965   5.781   2.891   0.014  0.1317 -0.0867 -0.1450
 1744poe    c23 7966   5.774   3.031  -0.051  0.2119 -0.0769 -0.1331
 1744poe     o2 7967   5.691   3.019  -0.165 -0.3531 -0.1345  0.2765
 1744poe    c31 7968   5.653   3.154  -0.180  0.2934  0.0507  0.2694
 1745poe    c31 7969   6.349   1.943   2.926 -0.2946  0.3518 -0.2820
 1745poe     o2 7970   6.410   2.047   2.853  0.2812  0.1077 -0.1549
 1745poe    c23 7971   6.330   2.163   2.848  0.1944  0.0688  0.2946
 1745poe    c23 7972   6.415   2.290   2.870 -0.1932  0.2534  0.7481
 1745poe     o2 7973   6.356   2.417   2.856 -0.4097  0.0838  0.0287
 1745poe    c23 7974   6.306   2.458   2.731 -0.2992 -0.0756 -0.0671
 1745poe    c23 7975   6.155   2.455   2.701 -0.2269 -0.1345 -0.4352
 1745poe     o2 7976   6.082   2.335   2.687 -0.3047 -0.0990 -0.3328
 1745poe    c23 7977   5.949   2.355   2.729  0.0489  0.0131  0.7585
 1745poe    c23 7978   5.882   2.220   2.701  0.2795 -0.0097  0.3225
 1745poe     o2 7979   5.911   2.130   2.806  0.4523 -0.4659 -0.1051
 1745poe    c31 7980   5.871   2.004   2.758  0.2334 -0.5646  0.3296
 1746poe    c31 7981   1.806   6.527   6.876 -0.6237 -0.0154  0.0546
 1746poe     o2 7982   1.680   6.587   6.896 -0.5656  0.1990 -0.2161
 1746poe    c23 7983   1.622   6.532   7.012 -0.2884 -0.4890 -0.3980
 1746poe    c23 7984   1.489   6.606   7.039  0.1971  0.2244  0.0783
 1746poe     o2 7985   1.423   6.612   6.914 -0.0492 -0.5509  0.1657
 1746poe    c23 7986   1.300   6.682   6.910  0.3711  0.1887 -0.1246
 1746poe    c23 7987   1.242   6.688   6.768  0.3131 -0.2316 -0.1207
 1746poe     o2 7988   1.338   6.732   6.675 -0.2162  0.3497 -0.4001
 1746poe    c23 7989   1.288   6.772   6.549 -0.2008  0.2767 -0.4294
 1746poe    c23 7990   1.404   6.796   6.451  0.2443  0.0046  0.0265
 1746poe     o2 7991   1.483   6.679   6.459  0.5064  0.2058  0.4359
 1746poe    c31 7992   1.581   6.690   6.358  0.1318  0.2693  0.0747
 1747poe    c31 7993   2.136   2.779   2.117 -0.0057  0.0928  0.2145
 1747poe     o2 7994   2.057   2.879   2.177 -0.0111  0.1675  0.0831
 1747poe    c23 7995   2.063   2.866   2.317 -0.0211 -0.4657  0.0280
 1747poe    c23 7996   2.007   2.993   2.385  0.1802 -0.4929  0.2474
 1747poe     o2 7997   1.885   3.012   2.317 -0.0385  0.1057  0.8088
 1747poe    c23 7998   1.830   3.137   2.355 -0.0214  0.2537  0.3521
 1747poe    c23 7999   1.706   3.182   2.276  0.3474  0.4406 -0.1258
 1747poe     o2 8000   1.743   3.168   2.141  0.1013  0.4458 -0.1953
 1747poe    c23 8001   1.625   3.154   2.065 -0.1536 -0.2623  0.3271
 1747poe    c23 8002   1.632   3.203   1.919 -0.7026 -0.3602  0.2646
 1747poe     o2 8003   1.701   3.100   1.852 -0.3660 -0.3122  0.5313
 1747poe    c31 8004   1.661   3.083   1.718  0.1683 -0.2465  0.3630
 1748poe    c31 8005   1.468   6.750   4.580 -0.0639 -0.2195 -0.3277
 1748poe     o2 8006   1.603   6.722   4.610 -0.1234  0.2490  0.4210
 1748poe    c23 8007   1.677   6.842   4.602 -0.2963  0.2746 -1.2696
 1748poe    c23 8008   1.824   6.817   4.566  0.1547  0.6787  0.2212
 1748poe     o2 8009   1.896   6.747   4.664 -0.0252 -0.1314 -0.2185
 1748poe    c23 8010   2.026   6.707   4.626  0.0162  0.2106 -0.4310
 1748poe    c23 8011   2.081   6.622   4.741 -0.0585 -0.2434 -0.7296
 1748poe     o2 8012   1.989   6.516   4.757 -0.0685 -0.1347  0.0046
 1748poe    c23 8013   2.042   6.425   4.850 -0.2839  0.2866  0.5421
 1748poe    c23 8014   1.920   6.335   4.877 -0.0217 -0.1072  0.4255
 1748poe     o2 8015   1.808   6.416   4.906  0.0949  0.1077  0.2808
 1748poe    c31 8016   1.725   6.347   4.996 -0.4337 -0.1814 -0.4195
 1749poe    c31 8017   0.359   4.506   5.251 -0.4186 -0.0372  0.1063
 1749poe     o2 8018   0.459   4.414   5.216  0.0133  0.3761  0.2469
 1749poe    c23 8019   0.507   4.371   5.341  0.4217  0.0161 -0.0295
 1749poe    c23 8020   0.577   4.234   5.342 -0.2445 -0.3350 -0.4012
 1749poe     o2 8021   0.710   4.272   5.316 -0.1393 -0.1027  0.4390
 1749poe    c23 8022   0.786   4.168   5.259 -0.3277 -0.1086  0.1986
 1749poe    c23 8023   0.914   4.237   5.209 -0.4247  0.1352  0.2871
 1749poe     o2 8024   0.998   4.265   5.319 -0.2536 -0.4361  0.3047
 1749poe    c23 8025   1.135   4.290   5.297 -0.2838 -0.3353  0.2320
 1749poe    c23 8026   1.213   4.269   5.427 -0.1030 -0.5054  0.0955
 1749poe     o2 8027   1.194   4.349   5.542  0.1306 -0.1065 -0.1413
 1749poe    c31 8028   1.285   4.310   5.642 -0.1350 -0.2706  0.0401
 1750poe    c31 8029   1.771   3.017   6.803  0.5495  0.2202  0.7695
 1750poe     o2 8030   1.696   3.068   6.910 -0.7160  0.5227 -0.2266
 1750poe    c23 8031   1.734   3.006   7.031 -0.1385  0.4814 -0.4255
 1750poe    c23 8032   1.624   3.001   7.139  0.5094  0.0790  0.2243
 1750poe     o2 8033   1.587   3.131   7.176  0.0876  0.0596 -0.1189
 1750poe    c23 8034   1.562   3.141   7.315 -0.2428  0.0038 -0.1747
 1750poe    c23 8035   1.552   3.288   7.359 -0.6702 -0.0768 -0.0006
 1750poe     o2 8036   1.455   3.353   7.279 -0.9624 -0.1156  0.3218
 1750poe    c23 8037   1.448   3.489   7.314  0.2131  0.0408 -0.0231
 1750poe    c23 8038   1.388   3.572   7.199 -0.3018 -0.2434  0.0376
 1750poe     o2 8039   1.413   3.509   7.075  0.5196 -0.2056  0.1797
 1750poe    c31 8040   1.345   3.581   6.975  0.5204 -0.3429  0.0800
 1751poe    c31 8041   4.637   1.642   0.730 -0.2397 -0.1085  0.3994
 1751poe     o2 8042   4.554   1.684   0.836 -0.5379 -0.0011  0.1273
 1751poe    c23 8043   4.618   1.685   0.962 -0.2535 -0.1721 -0.0154
 1751poe    c23 8044   4.524   1.751   1.064 -0.0989  0.3308 -0.1976
 1751poe     o2 8045   4.391   1.706   1.056 -0.0400  0.0760  0.2757
 1751poe    c23 8046   4.289   1.798   1.089 -0.1392 -0.0555  0.3369
 1751poe    c23 8047   4.153   1.739   1.046  0.0668 -0.2182 -0.0922
 1751poe     o2 8048   4.141   1.611   1.105  0.0910 -0.4942 -0.6761
 1751poe    c23 8049   4.032   1.536   1.057 -0.2458 -0.1792 -0.4171
 1751poe    c23 8050   4.063   1.406   1.135  0.1334  0.2301  0.1221
 1751poe     o2 8051   4.187   1.346   1.109  0.2071  0.1700  0.6115
 1751poe    c31 8052   4.190   1.220   1.173  0.4380 -0.2003 -0.1183
 1752poe    c31 8053   5.948   6.019   3.703  0.4138  0.0338 -0.0388
 1752poe     o2 8054   6.034   5.996   3.594  0.2009 -0.7553 -0.0492
 1752poe    c23 8055   6.142   6.086   3.609 -0.1065 -0.3891 -0.0240
 1752poe    c23 8056   6.248   6.102   3.720 -0.1755 -0.2437  0.0210
 1752poe     o2 8057   6.343   5.999   3.703 -0.1325 -0.2096  0.0547
 1752poe    c23 8058   6.458   6.029   3.779 -0.0232 -0.1204 -0.1448
 1752poe    c23 8059   6.522   5.894   3.817 -0.2797 -0.1319  0.2550
 1752poe     o2 8060   6.509   5.810   3.704  0.5936  0.1411 -0.0580
 1752poe    c23 8061   6.618   5.720   3.706  0.2582 -0.2715 -0.3040
 1752poe    c23 8062   6.615   5.600   3.610  0.4232 -0.3733 -0.1806
 1752poe     o2 8063   6.663   5.642   3.484 -0.4300 -0.2639 -0.4761
 1752poe    c31 8064   6.749   5.537   3.443  0.3540  0.1191  0.1577
 1753poe    c31 8065   6.448   6.431   1.769 -0.1780 -0.3486 -0.3906
 1753poe     o2 8066   6.511   6.386   1.887 -0.3528 -0.4219 -0.3261
 1753poe    c23 8067   6.495   6.250   1.921 -0.1474 -0.4158 -0.2075
 1753poe    c23 8068   6.602   6.207   2.024 -0.5723  0.0282  0.4271
 1753poe     o2 8069   6.594   6.301   2.128 -0.2961 -0.3187  0.7624
 1753poe    c23 8070   6.692   6.267   2.224 -0.3681 -0.7239  0.6924
 1753poe    c23 8071   6.692   6.382   2.327  0.4908 -0.1868  0.1057
 1753poe     o2 8072   6.705   6.502   2.255 -0.1797 -0.2897 -0.1963
 1753poe    c23 8073   6.727   6.617   2.335 -0.0682 -0.4849  0.0564
 1753poe    c23 8074   6.728   6.749   2.257 -0.4603 -0.6305 -0.2019
 1753poe     o2 8075   6.610   6.792   2.192  0.0552 -0.0235 -0.7529
 1753poe    c31 8076   6.519   6.864   2.272  0.4985  0.2944 -0.5289
 1754poe    c31 8077   3.642   6.790   0.950  0.1351 -0.0072 -0.1863
 1754poe     o2 8078   3.578   6.869   0.853 -0.0514 -0.1578 -0.1868
 1754poe    c23 8079   3.656   6.888   0.737 -0.1183  0.0037 -0.2059
 1754poe    c23 8080   3.611   7.022   0.677 -0.0047  0.1222 -0.0252
 1754poe     o2 8081   3.470   7.032   0.682 -0.0240 -0.0927 -0.1551
 1754poe    c23 8082   3.424   7.153   0.626 -0.0239  0.2553  0.5913
 1754poe    c23 8083   3.279   7.172   0.675 -0.3780 -0.4739 -0.1489
 1754poe     o2 8084   3.285   7.218   0.808  0.2819 -0.5383 -0.1526
 1754poe    c23 8085   3.156   7.222   0.866  0.2501  0.6578 -0.2824
 1754poe    c23 8086   3.162   7.292   1.003  0.3892 -0.0795  0.0987
 1754poe     o2 8087   3.230   7.213   1.097  0.4344  0.5754  0.6291
 1754poe    c31 8088   3.205   7.245   1.232  0.4316 -0.1163  0.7962
 1755poe    c31 8089   2.977   3.271   2.050  0.1373  0.5273  0.2218
 1755poe     o2 8090   3.053   3.315   1.940 -0.5655  0.1580 -0.4210
 1755poe    c23 8091   3.142   3.215   1.896 -0.4262  0.1332 -0.0862
 1755poe    c23 8092   3.204   3.245   1.758  0.3913 -0.3578  0.1652
 1755poe     o2 8093   3.281   3.363   1.768 -0.3468  0.1359  0.0623
 1755poe    c23 8094   3.333   3.404   1.644  0.0316  0.5445  0.3515
 1755poe    c23 8095   3.431   3.517   1.678  0.5141  0.2013  0.1285
 1755poe     o2 8096   3.366   3.618   1.752 -0.0602 -0.0128 -0.0828
 1755poe    c23 8097   3.436   3.740   1.756  0.0847 -0.0853 -0.3887
 1755poe    c23 8098   3.340   3.845   1.816  0.1969 -0.2251  0.0412
 1755poe     o2 8099   3.253   3.779   1.906  0.0773  0.1500  0.2048
 1755poe    c31 8100   3.197   3.878   1.989 -0.7693  0.3718 -0.6146
 1756poe    c31 8101   3.703   6.683   5.099 -0.2586  0.3647 -0.5358
 1756poe     o2 8102   3.842   6.703   5.118 -0.4034  0.2175  0.7308
 1756poe    c23 8103   3.869   6.829   5.175  0.6313  0.7142 -0.7900
 1756poe    c23 8104   4.017   6.855   5.209  0.4602  0.2484  0.3786
 1756poe     o2 8105   4.054   6.750   5.295 -0.3262  0.0101  0.4348
 1756poe    c23 8106   4.194   6.760   5.312 -0.2474 -0.4213  0.0742
 1756poe    c23 8107   4.238   6.662   5.422 -0.1574 -0.4719 -0.0068
 1756poe     o2 8108   4.192   6.536   5.379 -0.1987 -0.3137 -0.4338
 1756poe    c23 8109   4.259   6.442   5.459 -0.1212  0.0001 -0.1258
 1756poe    c23 8110   4.301   6.322   5.372 -0.4403 -0.2362  0.0448
 1756poe     o2 8111   4.185   6.307   5.293 -0.2275  0.0489 -0.3215
 1756poe    c31 8112   4.208   6.196   5.208  0.4891  0.0284 -0.1104
 1757poe    c31 8113   4.743   3.003   0.870 -0.0517  0.3490 -0.1877
 1757poe     o2 8114   4.614   3.058   0.861 -0.1236  0.1803 -0.1919
 1757poe    c23 8115   4.532   3.005   0.963 -0.0115 -0.0296 -0.2104
 1757poe    c23 8116   4.383   3.039   0.947 -0.0581 -0.0445  0.1781
 1757poe     o2 8117   4.317   2.962   0.849 -0.2100  0.1005  0.1659
 1757poe    c23 8118   4.182   3.003   0.845 -0.3960 -0.5249 -0.0420
 1757poe    c23 8119   4.109   2.905   0.752 -0.5390 -0.3157 -0.1506
 1757poe     o2 8120   4.150   2.907   0.617  0.1664  0.7152  0.0753
 1757poe    c23 8121   4.063   2.830   0.538 -0.0910  0.6155  0.4598
 1757poe    c23 8122   4.096   2.850   0.389  0.0444  0.3997  0.4603
 1757poe     o2 8123   4.236   2.840   0.385  0.0369  0.4638  0.0465
 1757poe    c31 8124   4.265   2.828   0.247  0.1057 -0.1308  0.1118
 1758poe    c31 8125   5.204   3.277   6.872 -0.6385 -0.2836  0.7955
 1758poe     o2 8126   5.253   3.406   6.905  0.1568 -0.3728  0.0019
 1758poe    c23 8127   5.325   3.400   7.026 -0.0767  0.8083  0.2136
 1758poe    c23 8128   5.353   3.533   7.098  0.3348  0.8655 -0.0486
 1758poe     o2 8129   5.236   3.596   7.144 -0.2053 -0.2272  0.0951
 1758poe    c23 8130   5.212   3.581   7.282  0.0323  1.2349  0.3083
 1758poe    c23 8131   5.312   3.621   7.392  0.0539 -0.0633  0.7785
 1758poe     o2 8132   5.428   3.542   7.372 -0.1642 -0.1305 -0.3127
 1758poe    c23 8133   5.522   3.573   7.473 -0.0195  0.0580 -0.5056
 1758poe    c23 8134   5.626   3.462   7.495 -0.5103 -0.3817 -0.3792
 1758poe     o2 8135   5.580   3.333   7.531  0.3278 -0.6362 -0.1883
 1758poe    c31 8136   5.504   3.318   7.649  0.6459  0.2488  0.1426
 1759poe    c31 8137   3.155   0.935   5.127 -0.0334 -0.1558  0.3230
 1759poe     o2 8138   3.273   0.919   5.051 -0.0303 -0.6285  0.4257
 1759poe    c23 8139   3.308   1.046   5.001  0.1653 -0.6788  0.4354
 1759poe    c23 8140   3.376   1.048   4.863 -0.3166 -0.3417  0.2009
 1759poe     o2 8141   3.297   0.994   4.759  0.3447 -0.5094 -0.2217
 1759poe    c23 8142   3.370   1.009   4.640 -0.6078  0.4458 -0.7016
 1759poe    c23 8143   3.302   0.926   4.530 -0.2301 -0.1823 -0.4656
 1759poe     o2 8144   3.287   0.792   4.572  0.0880 -0.2254 -0.4870
 1759poe    c23 8145   3.275   0.701   4.464 -0.8925 -0.7656  0.0547
 1759poe    c23 8146   3.397   0.609   4.444 -0.1558  0.0722  0.5980
 1759poe     o2 8147   3.418   0.538   4.564  0.2927 -0.1634  0.3806
 1759poe    c31 8148   3.490   0.418   4.546  0.4480 -0.0428  0.1981
 1760poe    c31 8149   5.012   1.119   6.781 -0.1294 -0.5467  0.0511
 1760poe     o2 8150   5.074   1.244   6.794  0.5073 -0.7830 -0.6157
 1760poe    c23 8151   5.038   1.323   6.683 -0.2433 -0.2654 -0.0137
 1760poe    c23 8152   5.060   1.474   6.702 -0.5933 -0.1383 -0.6090
 1760poe     o2 8153   4.966   1.531   6.791 -0.4355  0.1770 -0.6410
 1760poe    c23 8154   5.004   1.665   6.813 -0.5295  0.0873  0.0890
 1760poe    c23 8155   4.878   1.718   6.883 -0.1656  0.7955  0.2143
 1760poe     o2 8156   4.839   1.629   6.984  0.0253 -0.0736 -0.4681
 1760poe    c23 8157   4.727   1.678   7.054 -0.1499  0.1372 -0.8966
 1760poe    c23 8158   4.643   1.591   7.149  0.2010  0.3391 -0.4029
 1760poe     o2 8159   4.617   1.463   7.096  0.0453 -0.0220  0.5144
 1760poe    c31 8160   4.515   1.410   7.177 -0.5970  0.1272 -0.1811
 1761poe    c31 8161   4.616   6.974   0.932  0.1778  0.4292  0.4307
 1761poe     o2 8162   4.707   6.915   0.842  0.0728  0.7327  0.1226
 1761poe    c23 8163   4.641   6.857   0.731  0.2204 -0.0855  0.4557
 1761poe    c23 8164   4.702   6.888   0.593 -0.0357  0.0215  0.3647
 1761poe     o2 8165   4.838   6.855   0.571 -0.1493  0.1738 -0.5796
 1761poe    c23 8166   4.862   6.876   0.434  0.1359  0.5899 -0.4684
 1761poe    c23 8167   5.003   6.824   0.400  0.0568  0.0116  0.0862
 1761poe     o2 8168   5.020   6.684   0.395  0.3227  0.0685 -0.6394
 1761poe    c23 8169   5.149   6.645   0.354  0.2588 -0.3227 -0.4793
 1761poe    c23 8170   5.148   6.491   0.354 -0.7350 -0.3221 -0.6656
 1761poe     o2 8171   5.087   6.446   0.473 -0.2759  0.0923 -0.2716
 1761poe    c31 8172   5.153   6.330   0.517  0.3533  0.3451 -0.5271
 1762poe    c31 8173   1.271   4.941   6.524  0.4235 -0.3363 -0.5745
 1762poe     o2 8174   1.409   4.970   6.535  0.2929 -0.0334  0.3841
 1762poe    c23 8175   1.473   4.866   6.464  0.1338 -0.0188  0.2195
 1762poe    c23 8176   1.626   4.875   6.457  0.1535 -0.0418  0.6039
 1762poe     o2 8177   1.675   4.979   6.375  0.0094 -0.6171 -0.2318
 1762poe    c23 8178   1.814   4.995   6.395 -0.0529  0.1895 -0.4035
 1762poe    c23 8179   1.870   5.112   6.313  0.3757  0.1918 -0.1112
 1762poe     o2 8180   1.784   5.220   6.340  0.3305 -0.0441  0.6981
 1762poe    c23 8181   1.812   5.320   6.245 -0.1627 -0.2151  0.3695
 1762poe    c23 8182   1.705   5.430   6.254 -0.2354 -0.3050  0.5908
 1762poe     o2 8183   1.579   5.373   6.227 -0.2702  0.0747 -0.0475
 1762poe    c31 8184   1.479   5.473   6.233 -0.1696  0.1729  0.0019
 1763poe    c31 8185   4.351   4.148   6.841 -0.0797  0.5918  0.4328
 1763poe     o2 8186   4.283   4.152   6.964 -0.2441 -0.5536  0.3902
 1763poe    c23 8187   4.318   4.268   7.036 -0.4938 -0.1073 -0.2053
 1763poe    c23 8188   4.239   4.264   7.168 -0.9660 -0.6936 -0.4997
 1763poe     o2 8189   4.271   4.135   7.217  0.5618 -0.1259  0.0720
 1763poe    c23 8190   4.205   4.123   7.341  0.2439  0.0004 -0.0835
 1763poe    c23 8191   4.222   3.985   7.408 -0.3517 -0.1576 -0.2491
 1763poe     o2 8192   4.179   3.874   7.333 -0.1906 -0.2986 -0.1324
 1763poe    c23 8193   4.208   3.750   7.394  0.8513 -0.1773 -0.3518
 1763poe    c23 8194   4.268   3.666   7.280  0.5899 -0.4173 -0.3163
 1763poe     o2 8195   4.395   3.708   7.234  0.1875  0.7703 -0.3805
 1763poe    c31 8196   4.498   3.705   7.330 -0.4880  0.2941  0.3472
 1764poe    c31 8197   0.878   4.807   4.553 -0.0313  0.3012 -0.1810
 1764poe     o2 8198   0.830   4.695   4.483  0.5437 -0.3498  0.4482
 1764poe    c23 8199   0.898   4.572   4.496  0.2887 -0.5039  0.3491
 1764poe    c23 8200   0.875   4.488   4.369 -0.2692 -0.0904  0.1711
 1764poe     o2 8201   0.742   4.506   4.326 -0.3976 -0.1973  0.5198
 1764poe    c23 8202   0.708   4.405   4.235 -0.4676 -0.1688  0.5149
 1764poe    c23 8203   0.622   4.295   4.300 -0.2755 -0.6281  0.0004
 1764poe     o2 8204   0.505   4.364   4.338  0.2296  0.2089  0.0445
 1764poe    c23 8205   0.407   4.286   4.403  0.4666 -0.1387 -0.0120
 1764poe    c23 8206   0.312   4.379   4.481  0.2105 -0.5021  0.1087
 1764poe     o2 8207   0.373   4.470   4.569  0.2955 -0.4590  0.0057
 1764poe    c31 8208   0.274   4.546   4.634  0.6190 -0.3784  0.4121
 1765poe    c31 8209   4.251   4.231   4.719  0.0485 -0.1986  0.0146
 1765poe     o2 8210   4.117   4.273   4.737  0.1296  0.1730 -0.2410
 1765poe    c23 8211   4.046   4.200   4.834 -0.0788  0.4674 -0.1719
 1765poe    c23 8212   3.899   4.204   4.788 -0.0504 -0.0888 -0.3133
 1765poe     o2 8213   3.842   4.116   4.693 -0.4589 -0.1038 -0.0578
 1765poe    c23 8214   3.898   4.136   4.565  0.0112 -0.3742  0.1014
 1765poe    c23 8215   3.857   4.046   4.448 -0.3790 -0.2480  0.1366
 1765poe     o2 8216   3.725   4.057   4.400 -0.1307  0.2628 -0.4496
 1765poe    c23 8217   3.630   4.027   4.501 -0.4208 -0.6935 -1.0000
 1765poe    c23 8218   3.501   4.084   4.441 -0.7977 -0.2360  0.2313
 1765poe     o2 8219   3.497   4.078   4.300  0.0187  0.6916  0.1574
 1765poe    c31 8220   3.365   4.068   4.252  0.1061  0.3602 -0.0204
 1766poe    c31 8221   2.657   6.340   3.225  0.9946  0.3250 -0.1091
 1766poe     o2 8222   2.608   6.216   3.180  0.4996  0.4135  0.1746
 1766poe    c23 8223   2.531   6.248   3.066  0.9245  0.0615 -0.2166
 1766poe    c23 8224   2.449   6.128   3.015  0.5051  0.1383  0.2711
 1766poe     o2 8225   2.518   6.009   2.988  0.0392 -0.0883  0.0566
 1766poe    c23 8226   2.450   5.895   3.036  0.0871 -0.0925  0.1165
 1766poe    c23 8227   2.504   5.761   2.981  0.3404 -0.0244  0.2007
 1766poe     o2 8228   2.639   5.765   3.022  0.3778 -0.1475  0.0892
 1766poe    c23 8229   2.718   5.658   2.977 -0.1721 -0.7011  0.4241
 1766poe    c23 8230   2.860   5.678   3.034 -0.1396  0.3283  0.0098
 1766poe     o2 8231   2.882   5.816   3.018  0.5841  0.1705 -0.3862
 1766poe    c31 8232   3.010   5.836   3.072  0.1840 -0.9686  1.0390
 1767poe    c31 8233   6.507   0.682   0.048  0.4155 -0.5198  0.1857
 1767poe     o2 8234   6.464   0.649   0.178 -0.5801 -0.4349 -0.1163
 1767poe    c23 8235   6.413   0.755   0.256  0.0298 -0.4427  0.3019
 1767poe    c23 8236   6.421   0.709   0.403  0.2898 -0.0929  0.3991
 1767poe     o2 8237   6.331   0.604   0.433  0.3129 -0.2295 -0.0002
 1767poe    c23 8238   6.330   0.575   0.571 -0.6499 -0.0604  0.0300
 1767poe    c23 8239   6.284   0.432   0.605 -0.1792 -0.2848 -0.2748
 1767poe     o2 8240   6.352   0.337   0.527  0.6211  0.0839 -0.0338
 1767poe    c23 8241   6.332   0.210   0.585 -0.2915  0.2339 -0.0063
 1767poe    c23 8242   6.388   0.107   0.485 -0.2887  0.1906  0.0400
 1767poe     o2 8243   6.346   0.156   0.360  0.2699  0.0446 -0.2103
 1767poe    c31 8244   6.354   0.063   0.254 -0.2728 -0.0011 -0.2149
 1768poe    c31 8245   6.417   6.211   5.391 -0.1765  0.0880 -0.2353
 1768poe     o2 8246   6.368   6.271   5.274  0.2883  0.5127 -0.2169
 1768poe    c23 8247   6.298   6.168   5.208 -0.0792  0.1806  0.6724
 1768poe    c23 8248   6.238   6.186   5.067  0.0527  0.1689  0.6141
 1768poe     o2 8249   6.211   6.069   4.993  0.0776  0.8589 -0.5050
 1768poe    c23 8250   6.096   6.065   4.912 -0.0287 -0.1421 -0.3137
 1768poe    c23 8251   5.961   6.046   4.984 -0.1176  0.4176 -0.3311
 1768poe     o2 8252   5.955   5.943   5.080 -0.2191  0.3306 -0.4321
 1768poe    c23 8253   5.844   5.960   5.165  0.3294  0.4517  0.2611
 1768poe    c23 8254   5.859   5.868   5.288 -0.4168 -0.4264 -0.2996
 1768poe     o2 8255   5.929   5.751   5.250  0.3047  0.0374 -0.4122
 1768poe    c31 8256   5.937   5.651   5.350 -0.7375 -0.7184 -1.0667
 1769poe    c31 8257   6.188   4.509   1.967 -0.0614 -0.5999 -0.6274
 1769poe     o2 8258   6.067   4.444   1.935 -0.4566 -0.2369  0.1043
 1769poe    c23 8259   6.093   4.332   1.854  0.4729  0.4507 -0.5713
 1769poe    c23 8260   5.950   4.280   1.828  0.4534  0.1514  0.1237
 1769poe     o2 8261   5.864   4.384   1.787  0.2410  0.1092  0.4520
 1769poe    c23 8262   5.779   4.336   1.685  0.0358  0.2921  0.5380
 1769poe    c23 8263   5.669   4.442   1.667  0.2379  0.3631 -0.3280
 1769poe     o2 8264   5.613   4.454   1.796  0.4007 -0.1423 -0.2083
 1769poe    c23 8265   5.547   4.579   1.803  0.4236 -0.1425  0.0249
 1769poe    c23 8266   5.472   4.619   1.932 -0.0089 -0.3623 -0.1553
 1769poe     o2 8267   5.570   4.648   2.028 -0.3090 -0.3956  0.1609
 1769poe    c31 8268   5.556   4.768   2.100  0.1150 -0.0743 -0.2859
 1770poe    c31 8269   0.425   4.859   0.735 -0.2063  0.1182 -0.4616
 1770poe     o2 8270   0.439   4.967   0.825  0.0091 -0.5092  0.2704
 1770poe    c23 8271   0.519   5.063   0.761 -0.8228  0.1885  0.2572
 1770poe    c23 8272   0.487   5.192   0.838  0.0451  0.3268  0.3923
 1770poe     o2 8273   0.548   5.194   0.965  0.3617 -0.3691  0.2526
 1770poe    c23 8274   0.591   5.321   1.009  0.6407 -0.2970 -0.2228
 1770poe    c23 8275   0.656   5.320   1.148  0.2541  0.1359 -0.0353
 1770poe     o2 8276   0.573   5.268   1.249  0.0464 -0.3284 -0.4376
 1770poe    c23 8277   0.623   5.263   1.381 -0.0334  0.6181 -0.3648
 1770poe    c23 8278   0.514   5.235   1.486  0.2780  0.3464 -0.1124
 1770poe     o2 8279   0.438   5.124   1.444  0.1319  0.1739  0.5981
 1770poe    c31 8280   0.352   5.116   1.556  0.4278 -0.2017  0.8014
 1771poe    c31 8281   5.452   0.483   2.612 -1.2216  0.2549  0.7697
 1771poe     o2 8282   5.361   0.550   2.527 -0.7248  0.1365  0.1325
 1771poe    c23 8283   5.333   0.684   2.561 -0.0918  0.3373 -0.1286
 1771poe    c23 8284   5.181   0.696   2.540 -0.2381  0.0741  0.7543
 1771poe     o2 8285   5.150   0.669   2.405  0.3266  0.0838  0.6191
 1771poe    c23 8286   5.012   0.678   2.377  0.3832 -0.2698  0.2104
 1771poe    c23 8287   4.975   0.690   2.228 -0.2591 -0.4860  0.3495
 1771poe     o2 8288   4.994   0.572   2.152 -0.0664  0.0480 -0.4393
 1771poe    c23 8289   5.050   0.589   2.024  0.3014  0.6603 -0.2011
 1771poe    c23 8290   5.106   0.456   1.971  0.1065  0.6074 -0.2725
 1771poe     o2 8291   5.232   0.418   2.021 -0.0841  0.0841 -0.1783
 1771poe    c31 8292   5.311   0.328   1.946  0.0203 -0.1588  0.2236
 1772poe    c31 8293   3.574   5.087   0.906  0.0016  0.0612  0.1021
 1772poe     o2 8294   3.525   4.955   0.894 -0.2638  0.1742 -0.0680
 1772poe    c23 8295   3.430   4.937   0.996 -0.1667  0.0082 -0.0055
 1772poe    c23 8296   3.292   4.992   0.954 -0.1929 -0.0869 -0.0438
 1772poe     o2 8297   3.244   4.942   0.831  0.1103 -0.0728 -0.1675
 1772poe    c23 8298   3.124   5.013   0.813  0.0967 -0.1512 -0.3788
 1772poe    c23 8299   3.064   4.999   0.671 -0.6395  0.0939 -0.0989
 1772poe     o2 8300   3.144   5.050   0.567 -0.0966  0.2668  0.3955
 1772poe    c23 8301   3.081   5.019   0.444  0.8967  0.6143 -0.2118
 1772poe    c23 8302   3.158   5.064   0.318  0.4696 -0.1557 -0.7532
 1772poe     o2 8303   3.110   5.173   0.242 -0.0680  0.2002  0.0819
 1772poe    c31 8304   3.002   5.136   0.159 -0.5367 -0.1330  0.8258
 1773poe    c31 8305   5.766   1.767   0.168  0.3329  0.2381 -0.9462
 1773poe     o2 8306   5.894   1.825   0.175  0.4161 -0.1021  0.8032
 1773poe    c23 8307   5.984   1.757   0.089  0.2574  0.6559  0.0268
 1773poe    c23 8308   6.114   1.836   0.067  0.6993 -0.1710 -0.3539
 1773poe     o2 8309   6.122   1.929   0.173 -0.0490 -0.1402 -0.3224
 1773poe    c23 8310   6.247   1.993   0.162  0.1813 -0.5339 -0.0112
 1773poe    c23 8311   6.260   2.056   0.302 -0.3241 -0.1825 -0.1212
 1773poe     o2 8312   6.138   2.122   0.326 -0.2858 -0.3758  0.6542
 1773poe    c23 8313   6.152   2.217   0.429 -0.2761  0.0972  0.2189
 1773poe    c23 8314   6.068   2.344   0.405 -0.2983  0.0042 -0.2114
 1773poe     o2 8315   5.928   2.325   0.409 -0.3309  0.3136  0.1756
 1773poe    c31 8316   5.865   2.451   0.425 -0.4951  0.1652  0.7312
 1774poe    c31 8317   0.397   2.370   4.397  0.0168  0.0333 -0.0258
 1774poe     o2 8318   0.418   2.360   4.536 -0.7974  0.6696  0.1466
 1774poe    c23 8319   0.470   2.471   4.606  0.3685  0.3342 -0.1792
 1774poe    c23 8320   0.384   2.599   4.608  0.1943  0.2100  0.3649
 1774poe     o2 8321   0.391   2.667   4.484 -0.1720 -0.0545  0.1967
 1774poe    c23 8322   0.327   2.792   4.490 -0.8705 -0.3876 -0.1953
 1774poe    c23 8323   0.329   2.863   4.353 -0.1960 -0.6804 -0.3415
 1774poe     o2 8324   0.463   2.880   4.314 -0.0498  0.1011  0.4486
 1774poe    c23 8325   0.464   2.919   4.178  0.1791 -0.0855  0.3935
 1774poe    c23 8326   0.586   3.000   4.131  0.4287 -0.3647  0.5616
 1774poe     o2 8327   0.622   3.119   4.197  0.2434  0.1046 -0.1736
 1774poe    c31 8328   0.526   3.223   4.194  0.6062  0.4625  0.3236
 1775poe    c31 8329   1.379   1.192   0.795  0.0868  0.1045  0.0392
 1775poe     o2 8330   1.404   1.329   0.811 -0.0110  0.1114  0.1377
 1775poe    c23 8331   1.543   1.352   0.801  0.0626 -0.3331  0.1098
 1775poe    c23 8332   1.587   1.499   0.822  0.3328 -0.4121  0.1036
 1775poe     o2 8333   1.541   1.575   0.713  0.0297 -0.2371  0.3536
 1775poe    c23 8334   1.609   1.699   0.713 -0.1669 -0.1262  0.1479
 1775poe    c23 8335   1.559   1.794   0.603  0.2545  0.1031  0.1516
 1775poe     o2 8336   1.420   1.815   0.605  0.2639  0.1992 -0.1823
 1775poe    c23 8337   1.387   1.952   0.595  0.5039  0.2262 -0.6483
 1775poe    c23 8338   1.397   2.049   0.715  0.2863 -0.2018 -0.2805
 1775poe     o2 8339   1.290   2.049   0.807  0.3570  0.6782 -0.1910
 1775poe    c31 8340   1.305   2.142   0.911  0.1006  0.7727 -0.2386
 1776poe    c31 8341   3.987   2.929   1.330 -0.5000 -0.0449 -0.5024
 1776poe     o2 8342   4.067   2.813   1.336  0.1298  0.4182  0.3336
 1776poe    c23 8343   4.171   2.813   1.240  0.0044  0.4836  0.1973
 1776poe    c23 8344   4.246   2.679   1.251  0.2517  0.6220  0.1893
 1776poe     o2 8345   4.252   2.653   1.390 -0.3267  0.4553  0.1827
 1776poe    c23 8346   4.280   2.517   1.413 -0.1367  0.4534 -0.0596
 1776poe    c23 8347   4.236   2.481   1.556 -0.0472 -0.1236 -0.1760
 1776poe     o2 8348   4.107   2.532   1.580  0.2137  0.5077 -0.1054
 1776poe    c23 8349   4.054   2.516   1.710 -0.4735 -0.4667 -0.4944
 1776poe    c23 8350   3.914   2.577   1.692 -0.1547  0.3175 -0.3957
 1776poe     o2 8351   3.924   2.693   1.613  0.1819  0.4909 -0.0971
 1776poe    c31 8352   3.803   2.757   1.645 -0.2825 -0.4232 -0.0010
 1777poe    c31 8353   6.898   4.867   4.527  0.2469 -0.3387  0.0205
 1777poe     o2 8354   6.925   4.752   4.450 -0.3633 -0.2846 -0.2772
 1777poe    c23 8355   6.979   4.650   4.530 -0.3419 -0.4864 -0.5476
 1777poe    c23 8356   7.020   4.534   4.437  0.3797 -0.4589 -0.2731
 1777poe     o2 8357   6.923   4.486   4.347 -0.4937  0.0360  0.3934
 1777poe    c23 8358   6.955   4.360   4.292 -0.0726  0.2945  0.0374
 1777poe    c23 8359   6.858   4.315   4.182 -0.1407  0.5808 -0.0227
 1777poe     o2 8360   6.865   4.414   4.081  0.0426 -0.1142 -0.7040
 1777poe    c23 8361   6.769   4.408   3.978  0.1303 -0.2109 -0.7809
 1777poe    c23 8362   6.817   4.498   3.864  0.2104  0.1180 -0.4887
 1777poe     o2 8363   6.867   4.614   3.928 -0.2898  0.1082 -0.0834
 1777poe    c31 8364   6.885   4.725   3.844 -0.5917 -0.0465 -0.3547
 1778poe    c31 8365   0.273   5.005   5.766 -0.2230 -0.2997 -0.6096
 1778poe     o2 8366   0.175   5.089   5.711 -0.0682  0.1399 -0.2184
 1778poe    c23 8367   0.129   5.011   5.603 -0.6435  0.6493 -0.3475
 1778poe    c23 8368   0.089   5.102   5.485  0.1058  0.9972 -0.3388
 1778poe     o2 8369  -0.033   5.162   5.523 -0.2591 -0.2742  0.5755
 1778poe    c23 8370  -0.095   5.241   5.424 -0.0645 -0.3932  0.3571
 1778poe    c23 8371  -0.237   5.276   5.472  0.1788  0.5900  0.3695
 1778poe     o2 8372  -0.231   5.344   5.595  0.0215 -0.2756  0.8582
 1778poe    c23 8373  -0.357   5.401   5.625  0.0185  0.0949  0.1548
 1778poe    c23 8374  -0.378   5.433   5.774  0.0425 -0.0247  0.1844
 1778poe     o2 8375  -0.300   5.545   5.808 -0.2895  0.3040 -0.1310
 1778poe    c31 8376  -0.374   5.648   5.869 -0.1428  0.3893 -0.0975
 1779poe    c31 8377   1.510   1.057   0.030  0.7611 -0.5954  0.5450
 1779poe     o2 8378   1.540   1.104  -0.099 -0.1366  0.1280  0.5916
 1779poe    c23 8379   1.436   1.162  -0.174  0.3944  0.2117 -0.0962
 1779poe    c23 8380   1.496   1.219  -0.304  0.1701  0.1165 -0.2419
 1779poe     o2 8381   1.548   1.113  -0.380  0.4979  0.2268 -0.1708
 1779poe    c23 8382   1.612   1.167  -0.494 -0.3042  0.0793 -0.6962
 1779poe    c23 8383   1.682   1.065  -0.586  0.3966  0.1266 -0.2243
 1779poe     o2 8384   1.792   1.018  -0.512  0.1064 -0.1093  0.0604
 1779poe    c23 8385   1.897   1.008  -0.606  0.0857  0.6493 -0.0513
 1779poe    c23 8386   1.976   0.886  -0.554 -0.3329  0.4424  0.1000
 1779poe     o2 8387   2.045   0.894  -0.432 -0.1019  0.4196 -0.0279
 1779poe    c31 8388   2.178   0.940  -0.446  0.0267 -0.2823 -1.1978
 1780poe    c31 8389   1.294   1.024   1.881 -0.0381  0.3790 -0.0965
 1780poe     o2 8390   1.267   0.980   2.012 -0.2405 -0.2733 -0.3563
 1780poe    c23 8391   1.245   0.841   2.017  0.2528 -0.3368  0.1505
 1780poe    c23 8392   1.139   0.812   2.125 -0.0787  0.4197  0.0350
 1780poe     o2 8393   1.207   0.835   2.247 -0.0122  0.8681 -0.0845
 1780poe    c23 8394   1.120   0.833   2.358 -0.1171  0.6256 -0.1680
 1780poe    c23 8395   1.173   0.880   2.495 -0.1841 -0.2878  0.1791
 1780poe     o2 8396   1.191   1.020   2.491 -0.2230 -0.2894 -0.0538
 1780poe    c23 8397   1.223   1.051   2.625  0.3228  0.0127 -0.2486
 1780poe    c23 8398   1.241   1.204   2.635  0.2960 -0.0524  0.9213
 1780poe     o2 8399   1.326   1.232   2.526 -0.3099 -0.1255  0.4235
 1780poe    c31 8400   1.380   1.362   2.535  0.4992 -0.4791  0.7826
 1781poe    c31 8401   6.476   0.600   3.119 -0.0966  0.3787  0.1250
 1781poe     o2 8402   6.524   0.468   3.124 -0.2477  0.3205  0.0236
 1781poe    c23 8403   6.499   0.424   3.256 -0.1363  0.0286 -0.0520
 1781poe    c23 8404   6.554   0.280   3.264 -0.3272 -0.0428 -0.0087
 1781poe     o2 8405   6.508   0.218   3.146 -0.4828 -0.8188  0.4545
 1781poe    c23 8406   6.578   0.106   3.097  1.0156  0.3601 -0.1726
 1781poe    c23 8407   6.480   0.054   2.990  0.2458  0.1004  0.6516
 1781poe     o2 8408   6.458   0.151   2.891  0.4572 -0.3967  0.1115
 1781poe    c23 8409   6.386   0.106   2.779  0.1109 -0.6208  0.4205
 1781poe    c23 8410   6.351   0.210   2.671 -0.3934 -1.1315  0.0823
 1781poe     o2 8411   6.259   0.303   2.726  0.9279  0.6142 -0.5848
 1781poe    c31 8412   6.226   0.401   2.630  0.5859  0.6472 -0.4325
 1782poe    c31 8413   5.182   1.405   1.570 -0.1425 -0.0860 -0.4377
 1782poe     o2 8414   5.110   1.501   1.645  0.6460  0.0290  0.1895
 1782poe    c23 8415   5.086   1.447   1.773 -0.2170 -0.0387  0.0089
 1782poe    c23 8416   5.000   1.557   1.838  0.0762  0.1314  0.1119
 1782poe     o2 8417   5.069   1.678   1.860 -0.4537  0.4003  0.3177
 1782poe    c23 8418   5.173   1.683   1.956 -0.1531  0.3793 -0.0048
 1782poe    c23 8419   5.234   1.824   1.957 -0.1178  0.3635  0.2125
 1782poe     o2 8420   5.294   1.857   1.834  0.4404 -0.2082  0.3294
 1782poe    c23 8421   5.345   1.987   1.846 -0.4290  0.2317 -0.5836
 1782poe    c23 8422   5.449   2.029   1.740  0.3119 -0.9660 -0.3440
 1782poe     o2 8423   5.382   2.024   1.616 -0.1303 -0.2957 -0.1388
 1782poe    c31 8424   5.467   2.073   1.514  0.0650 -0.2254  0.0571
 1783poe    c31 8425   5.410   0.513   3.480 -0.2262  0.5498 -0.3183
 1783poe     o2 8426   5.528   0.590   3.490  0.3930 -0.3242 -0.7495
 1783poe    c23 8427   5.643   0.513   3.515  0.1688 -0.2955  0.4362
 1783poe    c23 8428   5.678   0.517   3.665  0.3401 -0.1866  0.3938
 1783poe     o2 8429   5.734   0.644   3.691 -0.7497  0.3941 -0.0304
 1783poe    c23 8430   5.755   0.661   3.829  0.0493  0.0338 -0.1060
 1783poe    c23 8431   5.755   0.805   3.882  0.5347 -0.0442  0.1170
 1783poe     o2 8432   5.634   0.871   3.915  0.3763 -0.6419  0.7467
 1783poe    c23 8433   5.678   0.994   3.966  0.3419 -0.3202  0.0179
 1783poe    c23 8434   5.546   1.047   4.025  0.1911  0.0163 -0.6178
 1783poe     o2 8435   5.496   0.977   4.137 -0.7671  0.3042 -0.8531
 1783poe    c31 8436   5.451   0.844   4.124  0.0863 -0.0743 -0.0856
 1784poe    c31 8437   1.235   4.429   6.690 -0.5129 -0.2142  0.4140
 1784poe     o2 8438   1.186   4.331   6.779 -0.5004  0.1661  0.8414
 1784poe    c23 8439   1.050   4.296   6.762 -0.2640 -0.2506 -0.2834
 1784poe    c23 8440   1.008   4.214   6.885  0.2984  0.3062  0.2855
 1784poe     o2 8441   1.035   4.290   7.001  0.0297  0.0695  0.5050
 1784poe    c23 8442   0.991   4.222   7.116 -0.1563  0.2926  0.5667
 1784poe    c23 8443   1.004   4.321   7.233 -0.0201  0.4065  0.4543
 1784poe     o2 8444   1.123   4.397   7.234 -0.0750  0.5109 -0.2909
 1784poe    c23 8445   1.110   4.505   7.323 -0.3774 -0.0590  0.3656
 1784poe    c23 8446   1.238   4.589   7.344 -0.2314 -0.2461  0.2286
 1784poe     o2 8447   1.325   4.525   7.434  0.4112  0.1752 -0.0810
 1784poe    c31 8448   1.409   4.611   7.509  0.4863 -0.0125  0.0513
 1785poe    c31 8449   2.409   5.879   1.502  0.4648  0.1109 -0.0709
 1785poe     o2 8450   2.368   5.951   1.387 -0.4817 -0.4447 -0.0913
 1785poe    c23 8451   2.465   6.037   1.333 -0.1518 -0.3965  0.5594
 1785poe    c23 8452   2.590   5.969   1.274  0.3412  0.3809  0.6913
 1785poe     o2 8453   2.682   6.036   1.190 -0.3678  0.4621 -0.0368
 1785poe    c23 8454   2.750   6.140   1.257 -0.0612  0.3744 -0.2108
 1785poe    c23 8455   2.832   6.209   1.147  0.2328 -0.1103 -0.3016
 1785poe     o2 8456   2.934   6.120   1.106  0.3564 -0.0276 -0.1765
 1785poe    c23 8457   3.003   6.173   0.995  0.1269  0.3756 -0.1294
 1785poe    c23 8458   3.087   6.054   0.945 -0.3829 -0.3530  0.7236
 1785poe     o2 8459   2.996   5.949   0.918 -0.2850 -0.3501  0.3763
 1785poe    c31 8460   3.059   5.857   0.831 -0.3218  0.1126 -0.1431
 1786poe    c31 8461   0.332   1.400   5.870 -0.2444  0.2632 -0.1394
 1786poe     o2 8462   0.215   1.352   5.807  0.0088  0.3189 -0.6578
 1786poe    c23 8463   0.162   1.454   5.726 -0.8730  0.5161  0.1551
 1786poe    c23 8464   0.032   1.434   5.646 -0.8115  0.1712  0.1429
 1786poe     o2 8465   0.061   1.348   5.537 -0.1758 -0.1090  0.5263
 1786poe    c23 8466  -0.052   1.320   5.457  0.1863 -0.3962  0.1177
 1786poe    c23 8467  -0.046   1.204   5.355  1.0451  0.1452 -0.4696
 1786poe     o2 8468  -0.002   1.087   5.419 -0.3534 -0.0385  0.2157
 1786poe    c23 8469  -0.039   0.974   5.343 -0.1906 -0.0253  0.1163
 1786poe    c23 8470   0.061   0.860   5.372 -1.1902 -0.6892  1.0248
 1786poe     o2 8471   0.102   0.864   5.506 -0.5054 -0.0429  0.8063
 1786poe    c31 8472   0.170   0.748   5.548  0.0377 -0.1041 -0.2277
 1787poe    c31 8473   5.291   1.838   6.543 -0.6365 -0.0748  0.3324
 1787poe     o2 8474   5.364   1.809   6.660  0.0252 -0.2564 -0.1185
 1787poe    c23 8475   5.315   1.856   6.784  0.0952 -0.1213 -0.1415
 1787poe    c23 8476   5.418   1.810   6.888  0.5649  0.1982 -0.4633
 1787poe     o2 8477   5.411   1.669   6.887 -0.4165  0.2314  0.2681
 1787poe    c23 8478   5.489   1.614   6.991  0.1913  0.4177 -0.0832
 1787poe    c23 8479   5.446   1.471   7.027  0.2802  0.4483  0.1426
 1787poe     o2 8480   5.475   1.385   6.919 -0.5034  0.5483 -0.1471
 1787poe    c23 8481   5.359   1.307   6.901 -0.0604 -0.1666  0.0823
 1787poe    c23 8482   5.386   1.177   6.823  0.1158  0.1494 -0.3888
 1787poe     o2 8483   5.443   1.192   6.695 -0.4350 -0.0752 -0.6635
 1787poe    c31 8484   5.450   1.062   6.640 -0.3914 -0.2956 -0.1455
 1788poe    c31 8485   2.712   3.435   0.922 -0.4934  0.6288 -0.4575
 1788poe     o2 8486   2.786   3.360   0.828  0.0996  0.9321 -0.2394
 1788poe    c23 8487   2.729   3.375   0.700 -0.4166 -0.1880 -0.1599
 1788poe    c23 8488   2.770   3.249   0.622 -0.3896 -0.4700  0.3063
 1788poe     o2 8489   2.906   3.225   0.646 -0.1697 -0.1617 -0.5950
 1788poe    c23 8490   2.955   3.103   0.594 -0.4529 -0.3940 -0.3223
 1788poe    c23 8491   3.097   3.125   0.651 -0.6377  0.5216 -0.2012
 1788poe     o2 8492   3.101   3.164   0.787 -0.7479  0.0754 -0.0702
 1788poe    c23 8493   3.226   3.147   0.850 -0.8890 -0.7854 -0.0126
 1788poe    c23 8494   3.224   3.189   0.998 -0.6604  0.0813 -0.2534
 1788poe     o2 8495   3.225   3.328   1.023 -0.6266  0.0697 -0.1923
 1788poe    c31 8496   3.250   3.367   1.157 -0.0401 -0.3954 -0.1624
 1789poe    c31 8497   2.832   3.448   6.039 -0.0035  0.0529  0.1331
 1789poe     o2 8498   2.727   3.386   6.110 -0.4230  0.3310 -0.2334
 1789poe    c23 8499   2.774   3.302   6.214 -0.3487  0.2944 -0.2964
 1789poe    c23 8500   2.662   3.200   6.242 -0.4048  0.4653  0.1014
 1789poe     o2 8501   2.555   3.280   6.286 -0.1961  0.1159  1.2875
 1789poe    c23 8502   2.463   3.190   6.345 -0.1108 -0.2111  0.9205
 1789poe    c23 8503   2.327   3.259   6.358 -0.0248  0.2550 -0.4832
 1789poe     o2 8504   2.298   3.342   6.247  0.1127  0.1903 -0.5674
 1789poe    c23 8505   2.164   3.383   6.252 -0.0060 -0.1979 -0.5380
 1789poe    c23 8506   2.140   3.456   6.118 -0.2060  0.3227 -0.2229
 1789poe     o2 8507   2.237   3.557   6.099 -0.0561  0.2468  0.1368
 1789poe    c31 8508   2.254   3.595   5.965 -0.9009  0.6945  0.1525
 1790poe    c31 8509   1.252   6.235   0.236 -0.2802 -0.2673 -0.2866
 1790poe     o2 8510   1.238   6.097   0.211  0.1180 -0.3413 -0.1095
 1790poe    c23 8511   1.106   6.051   0.195  0.0050  0.0327 -0.2824
 1790poe    c23 8512   1.107   5.913   0.126 -1.3068 -0.2675  0.2591
 1790poe     o2 8513   1.191   5.814   0.181 -0.5579  0.1318 -0.1465
 1790poe    c23 8514   1.182   5.701   0.098 -0.1327 -0.1701  0.2159
 1790poe    c23 8515   1.240   5.571   0.159 -0.5354 -0.5808 -0.2683
 1790poe     o2 8516   1.357   5.613   0.225 -0.3719 -0.8007 -0.4202
 1790poe    c23 8517   1.428   5.522   0.306 -0.2891 -0.2286  0.1534
 1790poe    c23 8518   1.531   5.589   0.399 -0.2883  0.3712 -0.2706
 1790poe     o2 8519   1.475   5.681   0.489 -0.5991 -0.0718 -0.0051
 1790poe    c31 8520   1.564   5.687   0.598  0.5089 -0.4321 -0.8696
 1791poe    c31 8521   5.359   3.289   2.506  0.2943  1.1380  0.2428
 1791poe     o2 8522   5.381   3.262   2.642  0.0023 -0.3991 -0.0010
 1791poe    c23 8523   5.495   3.180   2.659 -0.0251 -0.5666 -0.5870
 1791poe    c23 8524   5.479   3.126   2.803  0.3080  0.1829 -0.2646
 1791poe     o2 8525   5.447   3.234   2.888  0.9792  0.1385  0.0563
 1791poe    c23 8526   5.453   3.204   3.025  0.2645  0.3263  0.1310
 1791poe    c23 8527   5.380   3.314   3.104  0.6015  0.2523  0.5517
 1791poe     o2 8528   5.241   3.325   3.080  0.6613 -0.0930  0.0470
 1791poe    c23 8529   5.198   3.435   3.157  0.2123  0.0932 -0.4637
 1791poe    c23 8530   5.045   3.445   3.145  0.1413 -0.1680  0.2156
 1791poe     o2 8531   5.016   3.480   3.012 -0.2069  0.1263  0.3668
 1791poe    c31 8532   4.879   3.465   2.981 -0.0951  0.4770 -0.3249
 1792poe    c31 8533   4.231   4.792   0.345 -0.3291 -0.2914 -0.2870
 1792poe     o2 8534   4.340   4.715   0.390 -0.1640  0.1518  0.0740
 1792poe    c23 8535   4.339   4.590   0.325 -0.0852 -0.0621  0.4831
 1792poe    c23 8536   4.444   4.509   0.403 -0.0734 -0.5224 -0.0116
 1792poe     o2 8537   4.537   4.589   0.472 -0.1666 -0.4251 -0.0000
 1792poe    c23 8538   4.640   4.509   0.525  0.1620  0.3987  0.6298
 1792poe    c23 8539   4.734   4.586   0.619  0.4088  1.0848 -0.1727
 1792poe     o2 8540   4.665   4.656   0.720 -0.1644  0.1404  0.1011
 1792poe    c23 8541   4.654   4.603   0.850  0.3888 -0.3490 -0.0478
 1792poe    c23 8542   4.603   4.719   0.938  0.1132 -0.2507 -0.3352
 1792poe     o2 8543   4.475   4.770   0.908  0.0942 -0.0967  0.0069
 1792poe    c31 8544   4.449   4.875   0.998  0.0188 -0.0206 -0.1041
 1793poe    c31 8545   1.336   0.178   3.109  0.2048 -0.4807  0.2258
 1793poe     o2 8546   1.293   0.062   3.176  0.5866 -0.1694  1.0199
 1793poe    c23 8547   1.365  -0.046   3.121  0.0781  0.0048  0.0046
 1793poe    c23 8548   1.337  -0.176   3.198  0.0803  0.0620  0.1015
 1793poe     o2 8549   1.368  -0.164   3.335 -0.1113  0.1667  0.1369
 1793poe    c23 8550   1.492  -0.226   3.362 -0.1715  0.0196  0.0742
 1793poe    c23 8551   1.531  -0.211   3.510 -0.3711 -0.1457  0.1447
 1793poe     o2 8552   1.539  -0.074   3.544  0.1703 -0.0822 -0.2320
 1793poe    c23 8553   1.548  -0.053   3.683 -0.0860  0.3644 -0.2803
 1793poe    c23 8554   1.560   0.092   3.731  0.4367  0.4087 -0.5322
 1793poe     o2 8555   1.442   0.168   3.716  0.4132  0.4765 -0.0331
 1793poe    c31 8556   1.369   0.167   3.837 -0.4089 -0.6429 -0.5229
 1794poe    c31 8557   5.577   5.694   2.208 -0.3926 -0.2550  0.0833
 1794poe     o2 8558   5.610   5.560   2.237 -0.1501 -0.1622  0.2385
 1794poe    c23 8559   5.683   5.507   2.128 -0.3730 -0.0754  0.0454
 1794poe    c23 8560   5.698   5.354   2.124  0.2467 -0.0321  0.5294
 1794poe     o2 8561   5.768   5.302   2.235 -0.2527 -0.0513  0.8391
 1794poe    c23 8562   5.801   5.167   2.209 -0.0689  0.0666  0.4450
 1794poe    c23 8563   5.840   5.090   2.336 -0.5454 -0.6641  0.1539
 1794poe     o2 8564   5.755   5.131   2.441 -0.2077  0.2671  0.0673
 1794poe    c23 8565   5.781   5.065   2.563  0.0741 -0.3536 -0.3275
 1794poe    c23 8566   5.666   5.086   2.663 -0.4420 -0.0266 -0.9840
 1794poe     o2 8567   5.628   5.222   2.662 -0.5185 -0.0339  0.0105
 1794poe    c31 8568   5.603   5.247   2.798  0.0904  0.0949  0.1013
 1795poe    c31 8569   4.679   1.848   4.229  0.3455  0.3780  0.0883
 1795poe     o2 8570   4.653   1.979   4.273 -0.0891  0.4094 -0.2584
 1795poe    c23 8571   4.766   2.024   4.343 -0.1689 -0.1188  0.2110
 1795poe    c23 8572   4.748   2.172   4.379  0.5492  0.0326 -0.0382
 1795poe     o2 8573   4.752   2.257   4.267  0.1678  0.0414 -0.0466
 1795poe    c23 8574   4.772   2.393   4.300  0.3735 -0.0255  0.1113
 1795poe    c23 8575   4.658   2.456   4.382  0.3850 -0.1486  0.2202
 1795poe     o2 8576   4.552   2.496   4.298  0.3157 -0.2564  0.2566
 1795poe    c23 8577   4.481   2.586   4.381  0.0392  0.2997 -0.5694
 1795poe    c23 8578   4.332   2.605   4.350 -0.0014 -0.2508 -0.7215
 1795poe     o2 8579   4.267   2.482   4.376  0.1038 -0.1753 -0.0883
 1795poe    c31 8580   4.127   2.492   4.379  0.1144 -0.0881  0.1511
 1796poe    c31 8581   3.870   4.235   0.897 -0.5681  0.3357 -0.0602
 1796poe     o2 8582   3.800   4.142   0.976  0.1230 -0.1324  0.0122
 1796poe    c23 8583   3.741   4.182   1.098 -0.3158 -0.3279 -0.1325
 1796poe    c23 8584   3.705   4.062   1.188 -0.2763 -0.4373 -0.2616
 1796poe     o2 8585   3.581   4.001   1.159 -0.1719 -0.6061 -0.3531
 1796poe    c23 8586   3.583   3.899   1.256 -0.1896  0.0322  0.3249
 1796poe    c23 8587   3.446   3.860   1.314 -0.5465  0.8009  0.0152
 1796poe     o2 8588   3.352   3.799   1.227  0.3506 -0.2344 -0.2471
 1796poe    c23 8589   3.224   3.785   1.284  0.2742 -0.0568 -0.3743
 1796poe    c23 8590   3.111   3.738   1.191 -0.2914 -0.1316  0.3490
 1796poe     o2 8591   3.096   3.835   1.090  0.3246  0.0022  0.3854
 1796poe    c31 8592   2.980   3.814   1.013  0.3766  0.4774  0.1791
 1797poe    c31 8593   3.261   5.356   1.061  0.4534 -0.0718 -1.2139
 1797poe     o2 8594   3.277   5.240   1.141 -0.1234  0.5579 -0.1554
 1797poe    c23 8595   3.265   5.279   1.276 -0.5155  0.4170 -0.1475
 1797poe    c23 8596   3.229   5.157   1.362 -0.5380  1.0381  0.7296
 1797poe     o2 8597   3.089   5.138   1.362 -0.3990 -0.0318  0.1802
 1797poe    c23 8598   3.057   5.001   1.363  0.3311 -0.2155 -0.3826
 1797poe    c23 8599   2.910   4.976   1.324  0.0208  0.6016  0.2451
 1797poe     o2 8600   2.839   5.083   1.382  0.5657  0.7161  0.7146
 1797poe    c23 8601   2.701   5.089   1.354  0.6115  0.2719  0.3893
 1797poe    c23 8602   2.635   5.207   1.428 -0.3645  0.6178 -0.9843
 1797poe     o2 8603   2.727   5.311   1.402  0.3342  0.3434  0.2866
 1797poe    c31 8604   2.671   5.425   1.462  0.2147  0.1240  0.5914
 1798poe    c31 8605   2.241   4.998   1.016  0.0655  0.3134  0.2323
 1798poe     o2 8606   2.123   4.920   1.015  0.0635  0.3158  0.3053
 1798poe    c23 8607   2.167   4.790   0.983 -0.2740  0.2828 -0.0250
 1798poe    c23 8608   2.083   4.667   1.020  0.1088 -0.0200 -0.1487
 1798poe     o2 8609   1.963   4.662   0.945  0.1174 -0.6295 -0.1331
 1798poe    c23 8610   1.879   4.579   1.022 -0.4234 -0.1517 -0.1956
 1798poe    c23 8611   1.735   4.632   1.031 -0.3520 -0.0296  0.2183
 1798poe     o2 8612   1.688   4.683   0.908  0.1183  0.0045  0.0495
 1798poe    c23 8613   1.548   4.689   0.929  0.1238 -0.1549  0.1390
 1798poe    c23 8614   1.477   4.810   0.865  0.5472 -0.1952 -0.4208
 1798poe     o2 8615   1.502   4.832   0.728  0.1112  0.1146 -0.4523
 1798poe    c31 8616   1.434   4.939   0.667  0.1825  0.6467  0.3827
 1799poe    c31 8617   4.312   2.221   2.094  0.1248 -0.3851 -0.2203
 1799poe     o2 8618   4.271   2.129   1.996 -0.0772 -0.2295 -0.2833
 1799poe    c23 8619   4.133   2.150   1.979 -0.1804 -0.2337  0.5435
 1799poe    c23 8620   4.076   2.040   1.888 -0.2091  0.3226 -0.1177
 1799poe     o2 8621   4.112   2.061   1.754  0.3251  0.1386 -0.0042
 1799poe    c23 8622   4.050   1.961   1.676  0.8801 -0.0728 -0.1840
 1799poe    c23 8623   4.082   1.989   1.528  0.2856  0.0758 -0.2879
 1799poe     o2 8624   4.222   1.987   1.515  0.2619 -0.1036 -0.5272
 1799poe    c23 8625   4.261   2.029   1.386 -0.0355 -0.0729 -0.6080
 1799poe    c23 8626   4.411   2.065   1.382  0.0784 -0.3643  0.5630
 1799poe     o2 8627   4.452   2.161   1.476  0.0370  0.3019 -0.0895
 1799poe    c31 8628   4.581   2.208   1.443  0.2029  0.2324  0.4482
 1800poe    c31 8629   0.009   5.818   0.971  0.2929  0.2365 -0.5243
 1800poe     o2 8630  -0.128   5.820   1.002  0.4905 -1.0218  0.5130
 1800poe    c23 8631  -0.153   5.860   1.135  0.0679 -0.2783  0.2168
 1800poe    c23 8632  -0.303   5.895   1.137  0.1596  0.1165  0.3431
 1800poe     o2 8633  -0.370   5.789   1.072  0.0305  0.6664 -0.4238
 1800poe    c23 8634  -0.507   5.800   1.039 -0.1491  0.3299  0.1988
 1800poe    c23 8635  -0.546   5.653   1.009 -0.2743  0.4113 -0.0471
 1800poe     o2 8636  -0.444   5.599   0.928 -0.0087 -0.0736  0.5939
 1800poe    c23 8637  -0.474   5.470   0.880 -0.0056  0.2013 -0.1732
 1800poe    c23 8638  -0.476   5.361   0.989  0.0746  0.3306 -0.0429
 1800poe     o2 8639  -0.341   5.351   1.029  0.0867  0.2306 -0.1093
 1800poe    c31 8640  -0.324   5.264   1.139 -0.3855 -0.7259 -0.7783
 1801poe    c31 8641   5.437   1.479   3.101  0.0603  0.3062 -0.0274
 1801poe     o2 8642   5.487   1.452   3.230 -0.1487  0.0792  0.0062
 1801poe    c23 8643   5.607   1.378   3.233  0.0964  0.4398 -0.6520
 1801poe    c23 8644   5.637   1.323   3.374 -0.4086  0.6803 -0.4472
 1801poe     o2 8645   5.580   1.415   3.464 -0.7657 -0.0373  0.0711
 1801poe    c23 8646   5.639   1.377   3.587 -0.3184 -0.4313 -0.2602
 1801poe    c23 8647   5.586   1.445   3.714  0.3968 -0.0749 -0.1449
 1801poe     o2 8648   5.450   1.412   3.731  0.4497  0.0043  0.4879
 1801poe    c23 8649   5.375   1.498   3.814  0.0334 -0.3549  0.4908
 1801poe    c23 8650   5.300   1.605   3.733 -0.3385 -0.5807  0.5340
 1801poe     o2 8651   5.212   1.522   3.660 -0.1284 -0.2369 -0.1213
 1801poe    c31 8652   5.083   1.571   3.689  0.0841  0.2785 -0.0306
 1802poe    c31 8653   2.459   1.296   4.455  0.1991 -0.0850 -0.0491
 1802poe     o2 8654   2.479   1.188   4.366 -0.3364 -0.1895 -0.0489
 1802poe    c23 8655   2.539   1.078   4.431 -0.2253  0.0856  0.3220
 1802poe    c23 8656   2.514   0.948   4.352 -0.1547  0.0815  0.3059
 1802poe     o2 8657   2.558   0.981   4.222 -0.1957 -0.2727  0.2014
 1802poe    c23 8658   2.556   0.878   4.126  0.0263 -0.0200 -0.0751
 1802poe    c23 8659   2.565   0.936   3.984  0.0744 -0.0050 -0.0660
 1802poe     o2 8660   2.457   1.024   3.956 -0.0408 -0.1327 -0.0221
 1802poe    c23 8661   2.418   1.023   3.821  0.0012 -0.7642 -0.0326
 1802poe    c23 8662   2.327   1.143   3.792  0.3759 -0.1972  1.0893
 1802poe     o2 8663   2.222   1.170   3.882 -0.0220  0.2922  0.4906
 1802poe    c31 8664   2.142   1.281   3.849  0.0719  0.4439  0.7678
 1803poe    c31 8665   2.249   2.341   6.851  0.8594  0.4324 -0.0155
 1803poe     o2 8666   2.253   2.208   6.898  0.0053  0.3130 -0.2525
 1803poe    c23 8667   2.378   2.148   6.871 -0.2767 -0.2671 -0.2707
 1803poe    c23 8668   2.380   2.003   6.925 -0.0793 -0.4981 -0.8933
 1803poe     o2 8669   2.245   1.966   6.942 -0.0204 -0.3473 -0.0563
 1803poe    c23 8670   2.234   1.856   7.029  0.0760 -0.3244 -0.0157
 1803poe    c23 8671   2.098   1.797   6.989 -0.1497 -0.3281  0.7311
 1803poe     o2 8672   1.999   1.892   7.020 -0.0365 -0.0578  0.2810
 1803poe    c23 8673   1.874   1.845   7.065 -0.4452  0.1523 -0.6112
 1803poe    c23 8674   1.772   1.956   7.097 -0.2384  0.1184  0.1903
 1803poe     o2 8675   1.751   2.030   6.979 -0.0398 -0.2421 -0.0743
 1803poe    c31 8676   1.625   2.092   6.965  0.5161  0.9559  0.0628
 1804poe    c31 8677   3.493   5.666   4.393 -0.3526 -0.8618 -0.1337
 1804poe     o2 8678   3.514   5.744   4.278 -0.1156 -0.1306  0.3974
 1804poe    c23 8679   3.401   5.762   4.196  0.2349  0.4217  0.0255
 1804poe    c23 8680   3.445   5.822   4.062  0.0695 -0.3275 -0.3694
 1804poe     o2 8681   3.562   5.897   4.087 -0.4554  0.4171 -0.0874
 1804poe    c23 8682   3.611   5.956   3.968  0.4215  0.3791  0.2448
 1804poe    c23 8683   3.724   6.056   3.998  0.7950  0.2651 -0.7659
 1804poe     o2 8684   3.818   6.013   4.094  0.8996 -0.1721 -1.0556
 1804poe    c23 8685   3.933   6.092   4.118  0.2870  0.4622 -0.1079
 1804poe    c23 8686   3.990   6.078   4.260 -0.0676 -0.6470 -0.0693
 1804poe     o2 8687   3.901   6.135   4.353  0.2577  0.5750 -0.4869
 1804poe    c31 8688   3.968   6.181   4.469  0.6223 -0.4992 -0.2581
 1805poe    c31 8689   6.174   2.077   4.698  0.0526 -0.0156  0.0164
 1805poe     o2 8690   6.235   2.160   4.602 -0.3141 -0.1669 -0.3526
 1805poe    c23 8691   6.155   2.271   4.566 -0.1258 -0.1212 -0.6332
 1805poe    c23 8692   6.203   2.347   4.441 -0.2061  0.3873 -0.3573
 1805poe     o2 8693   6.326   2.400   4.484  0.3916 -0.7160 -0.6729
 1805poe    c23 8694   6.384   2.461   4.371  0.1910 -0.4032 -0.6100
 1805poe    c23 8695   6.500   2.553   4.413 -0.2361  0.1714 -0.6867
 1805poe     o2 8696   6.591   2.479   4.491 -0.4479  0.2545 -0.3561
 1805poe    c23 8697   6.692   2.564   4.540  0.0239 -0.3805 -0.2125
 1805poe    c23 8698   6.795   2.496   4.633 -0.0701 -0.3026 -0.0513
 1805poe     o2 8699   6.710   2.402   4.695  0.1431 -0.4273  0.0524
 1805poe    c31 8700   6.766   2.348   4.813  0.6754  0.1267  0.0589
 1806poe    c31 8701   3.532   5.276   4.489  0.5963  0.3239 -0.3188
 1806poe     o2 8702   3.470   5.225   4.373  0.6238  0.2033 -0.2805
 1806poe    c23 8703   3.343   5.285   4.364  0.2971 -0.3411  0.6005
 1806poe    c23 8704   3.267   5.198   4.263  0.3734 -0.2377  0.4528
 1806poe     o2 8705   3.325   5.070   4.255  0.4815 -0.1585 -0.0612
 1806poe    c23 8706   3.259   4.986   4.163  0.3216 -0.1765  0.0698
 1806poe    c23 8707   3.339   4.855   4.153 -0.0194 -0.3585 -0.2963
 1806poe     o2 8708   3.471   4.869   4.106 -0.1439 -0.3525 -0.6469
 1806poe    c23 8709   3.528   4.741   4.124 -0.2391 -0.3043 -0.0038
 1806poe    c23 8710   3.677   4.732   4.083 -0.0666  0.5165  0.4193
 1806poe     o2 8711   3.691   4.744   3.944  0.3822  0.1376  0.4321
 1806poe    c31 8712   3.699   4.877   3.897  0.6291  0.0594  0.2518
 1807poe    c31 8713   2.954   1.752   1.576  0.2429  0.1572  0.1813
 1807poe     o2 8714   3.031   1.855   1.519  0.0217  0.1444 -0.1438
 1807poe    c23 8715   3.108   1.786   1.424  0.3463 -0.3856  0.4925
 1807poe    c23 8716   3.189   1.888   1.341 -1.0819  0.3578 -0.0279
 1807poe     o2 8717   3.255   1.979   1.426  0.0993 -0.3633 -0.1387
 1807poe    c23 8718   3.362   2.051   1.370 -0.2446  0.6584  0.4833
 1807poe    c23 8719   3.444   2.140   1.465  0.1268  0.6816  0.1441
 1807poe     o2 8720   3.378   2.240   1.539 -0.8901 -0.1854  0.4273
 1807poe    c23 8721   3.455   2.310   1.634 -0.0100 -0.0145 -0.4062
 1807poe    c23 8722   3.361   2.397   1.719  0.6499 -0.2700  0.6073
 1807poe     o2 8723   3.285   2.310   1.800 -0.1377  0.1737  0.3612
 1807poe    c31 8724   3.181   2.386   1.858  0.3036  0.6358  0.5579
 1808poe    c31 8725   2.537   1.147   5.202 -0.4343  0.0246 -0.3131
 1808poe     o2 8726   2.661   1.173   5.264 -0.5087  0.1438 -0.2124
 1808poe    c23 8727   2.685   1.087   5.373  0.1321  0.7089  0.0932
 1808poe    c23 8728   2.813   1.142   5.441  0.7237 -0.3481 -0.1421
 1808poe     o2 8729   2.807   1.283   5.433 -0.5557 -0.3296  0.7583
 1808poe    c23 8730   2.913   1.350   5.498 -0.0146 -0.3162 -0.1150
 1808poe    c23 8731   2.871   1.498   5.502 -0.1830 -0.3467 -0.6485
 1808poe     o2 8732   2.837   1.545   5.373  0.0344  0.0412 -0.5672
 1808poe    c23 8733   2.856   1.684   5.367  0.5489 -0.0263 -0.5209
 1808poe    c23 8734   2.792   1.737   5.238 -0.1484 -0.7890 -0.4937
 1808poe     o2 8735   2.658   1.697   5.253 -0.3461  0.1585  0.3874
 1808poe    c31 8736   2.584   1.733   5.138 -0.3609  0.0566  0.3646
 1809poe    c31 8737   1.311   3.958   7.058  0.1990  0.4695 -0.5650
 1809poe     o2 8738   1.387   4.070   7.096 -0.1147  0.5452 -0.1562
 1809poe    c23 8739   1.520   4.044   7.059 -0.0921 -0.2173  0.4423
 1809poe    c23 8740   1.612   4.153   7.117  1.0365 -0.9825  0.1145
 1809poe     o2 8741   1.650   4.157   7.253 -0.0447  0.2874  0.3950
 1809poe    c23 8742   1.764   4.075   7.266  0.0458  0.3567  0.0624
 1809poe    c23 8743   1.787   4.049   7.416 -0.3404  0.2713  0.1084
 1809poe     o2 8744   1.750   4.166   7.486 -1.0225  0.1303 -0.0088
 1809poe    c23 8745   1.776   4.127   7.619  0.5678  0.1508 -0.2926
 1809poe    c23 8746   1.748   4.243   7.717 -0.1782 -0.1038 -0.2001
 1809poe     o2 8747   1.612   4.281   7.716 -0.0234  0.4736  0.0209
 1809poe    c31 8748   1.590   4.406   7.777 -0.8854  0.2206  0.2418
 1810poe    c31 8749   4.741   6.791   4.892 -0.2670  1.0299  0.5676
 1810poe     o2 8750   4.687   6.710   4.994  0.1761  0.4160  0.3238
 1810poe    c23 8751   4.582   6.631   4.941  0.0449  0.7144  0.1348
 1810poe    c23 8752   4.447   6.705   4.939  0.0515  0.7231 -0.1245
 1810poe     o2 8753   4.418   6.782   4.824 -0.2378  0.0810 -0.4850
 1810poe    c23 8754   4.288   6.838   4.826 -0.1669  0.2421  0.4378
 1810poe    c23 8755   4.185   6.751   4.753  0.2717  0.0144  0.0804
 1810poe     o2 8756   4.138   6.631   4.811  0.2607 -0.1722 -0.3082
 1810poe    c23 8757   4.006   6.607   4.768  0.0940  0.4730 -0.1756
 1810poe    c23 8758   3.979   6.455   4.774  0.3991  0.4191 -0.1742
 1810poe     o2 8759   3.984   6.394   4.902 -0.0407 -0.2184 -0.4533
 1810poe    c31 8760   3.917   6.272   4.884  0.7031 -0.7365  0.2229
 1811poe    c31 8761   2.450   0.721   3.388 -0.7489 -0.3485 -0.3720
 1811poe     o2 8762   2.471   0.650   3.508 -0.3866 -0.4218 -0.4780
 1811poe    c23 8763   2.397   0.531   3.521 -0.0884 -0.5452  0.1431
 1811poe    c23 8764   2.394   0.500   3.672 -0.4766 -0.4985  0.1462
 1811poe     o2 8765   2.526   0.483   3.718 -0.3637 -0.0185  0.0173
 1811poe    c23 8766   2.521   0.413   3.841  0.1717 -0.1405 -0.0266
 1811poe    c23 8767   2.654   0.359   3.895  0.2644 -0.1548 -0.2667
 1811poe     o2 8768   2.758   0.453   3.881  0.1596  0.0872  0.5365
 1811poe    c23 8769   2.878   0.398   3.931  0.2371  0.2296  0.5088
 1811poe    c23 8770   2.984   0.499   3.885  0.4514 -0.1449  0.1699
 1811poe     o2 8771   2.939   0.578   3.777 -0.0755 -0.1331  0.3955
 1811poe    c31 8772   3.039   0.663   3.726  0.2122 -0.8037 -0.1569
 1812poe    c31 8773   5.024   5.770   1.353 -0.4438 -0.0782  0.1122
 1812poe     o2 8774   5.038   5.746   1.491 -0.9679 -0.2277  0.1412
 1812poe    c23 8775   5.071   5.613   1.523  0.3518 -0.0989 -0.6224
 1812poe    c23 8776   5.005   5.597   1.661  0.4584 -0.0385 -0.5639
 1812poe     o2 8777   5.049   5.709   1.735 -0.1524 -0.1706  0.0102
 1812poe    c23 8778   4.998   5.701   1.866  0.0104 -0.1968  0.0724
 1812poe    c23 8779   5.071   5.814   1.941 -0.6793  0.2223  0.1282
 1812poe     o2 8780   5.083   5.928   1.859  0.2232 -0.1041 -0.2059
 1812poe    c23 8781   5.146   6.041   1.917  0.3585  0.1382 -0.8129
 1812poe    c23 8782   5.295   6.025   1.952  0.1098 -0.4474  0.0243
 1812poe     o2 8783   5.379   6.018   1.839 -0.2303 -0.0259 -0.2587
 1812poe    c31 8784   5.514   5.993   1.873 -0.2485  0.0421 -0.1353
 1813poe    c31 8785   3.913   6.281   6.876  0.2542 -0.4480 -0.0723
 1813poe     o2 8786   3.798   6.204   6.902 -0.5784  0.5194 -0.7875
 1813poe    c23 8787   3.720   6.270   6.999 -0.2020  0.0407 -0.1490
 1813poe    c23 8788   3.572   6.232   6.981 -0.0931 -0.1147 -0.7177
 1813poe     o2 8789   3.512   6.324   6.893 -0.1221 -0.1710 -0.7570
 1813poe    c23 8790   3.385   6.272   6.858 -0.3686 -0.1664  0.1174
 1813poe    c23 8791   3.335   6.348   6.734  0.2566  0.1495  0.0539
 1813poe     o2 8792   3.315   6.486   6.758  0.0480  0.1008  0.1613
 1813poe    c23 8793   3.181   6.527   6.771  0.0223  0.1131 -0.1414
 1813poe    c23 8794   3.170   6.679   6.797 -0.2307  0.0490  0.1286
 1813poe     o2 8795   3.274   6.729   6.877 -0.1585 -0.3421  0.2850
 1813poe    c31 8796   3.230   6.827   6.969  0.1828  0.0942 -0.0125
 1814poe    c31 8797   0.800   5.546   0.284  0.1796  0.4607 -0.3763
 1814poe     o2 8798   0.889   5.465   0.211 -0.3736  0.2086 -0.7816
 1814poe    c23 8799   0.892   5.335   0.265 -0.0271  0.6057  0.1800
 1814poe    c23 8800   1.007   5.241   0.225 -0.1739  0.3829  0.2728
 1814poe     o2 8801   0.981   5.177   0.102  0.2472  0.1990  0.2775
 1814poe    c23 8802   1.097   5.099   0.078 -0.0399 -0.0094 -0.4637
 1814poe    c23 8803   1.071   5.017  -0.049  0.2803 -0.2921 -0.3455
 1814poe     o2 8804   1.016   5.099  -0.150 -0.6301 -0.3462  0.0927
 1814poe    c23 8805   0.990   5.025  -0.266  0.0330 -0.4002 -0.0248
 1814poe    c23 8806   0.984   5.117  -0.390 -0.4565 -0.5804 -0.1360
 1814poe     o2 8807   0.882   5.213  -0.376  0.4944  0.4160  0.0323
 1814poe    c31 8808   0.861   5.296  -0.488  0.1930  0.1262 -0.1250
 1815poe    c31 8809   4.374   2.309   0.661 -0.0931  0.5965  0.1400
 1815poe     o2 8810   4.439   2.347   0.542  0.0898 -0.5775 -0.1456
 1815poe    c23 8811   4.428   2.485   0.518 -0.0273 -0.5829 -0.1270
 1815poe    c23 8812   4.554   2.547   0.454  0.0073  0.0973  0.5836
 1815poe     o2 8813   4.548   2.674   0.393 -0.1661 -0.3936 -0.4393
 1815poe    c23 8814   4.673   2.703   0.333 -0.0755  0.0784 -0.0298
 1815poe    c23 8815   4.695   2.854   0.349  0.0433  0.0759 -0.1649
 1815poe     o2 8816   4.606   2.923   0.265 -0.2032 -0.1627 -0.0998
 1815poe    c23 8817   4.658   3.051   0.235  0.0487 -0.1182  0.5034
 1815poe    c23 8818   4.550   3.149   0.184  0.1555 -0.1680  0.1800
 1815poe     o2 8819   4.453   3.180   0.281  0.0968 -0.0965  0.0979
 1815poe    c31 8820   4.364   3.270   0.219 -0.6676 -0.8246  0.1099
 1816poe    c31 8821   6.995   0.966   4.615  0.1246 -0.3410  0.9311
 1816poe     o2 8822   7.057   0.856   4.553 -0.3900 -0.1244  0.0080
 1816poe    c23 8823   7.006   0.814   4.429 -0.1001 -0.3756 -0.0276
 1816poe    c23 8824   7.092   0.691   4.391  0.2643 -0.1717  0.1319
 1816poe     o2 8825   7.068   0.584   4.479  0.0144 -0.3362 -0.1349
 1816poe    c23 8826   6.958   0.504   4.440  0.0901 -0.3555 -0.3079
 1816poe    c23 8827   6.944   0.394   4.547  0.4883 -0.2617 -0.1563
 1816poe     o2 8828   6.913   0.425   4.680  0.1716 -1.0435 -0.0439
 1816poe    c23 8829   6.779   0.385   4.698  0.0607 -0.5170  0.3305
 1816poe    c23 8830   6.720   0.399   4.839 -0.6511 -0.2713  0.0110
 1816poe     o2 8831   6.778   0.305   4.926  0.0311  0.3956  0.2830
 1816poe    c31 8832   6.718   0.288   5.053 -0.0630 -0.0095  0.1853
 1817poe    c31 8833   4.207   4.651   1.087  0.1894  0.2513 -0.1033
 1817poe     o2 8834   4.102   4.742   1.112 -0.1450 -0.2268  0.2497
 1817poe    c23 8835   4.006   4.761   1.010  0.0579 -0.3381  0.0366
 1817poe    c23 8836   3.869   4.802   1.068 -0.1287 -0.4724 -0.3081
 1817poe     o2 8837   3.812   4.712   1.161 -0.1349  0.3266  0.4747
 1817poe    c23 8838   3.673   4.737   1.158 -0.1579  0.1585 -1.3022
 1817poe    c23 8839   3.608   4.649   1.266  0.2785  0.9449 -0.3694
 1817poe     o2 8840   3.678   4.659   1.387 -0.0262  0.2680 -0.1288
 1817poe    c23 8841   3.596   4.665   1.502  0.0018  0.3575 -0.1126
 1817poe    c23 8842   3.696   4.671   1.618 -0.2695 -0.1912  0.1556
 1817poe     o2 8843   3.785   4.773   1.578 -0.2807 -0.1982  0.1118
 1817poe    c31 8844   3.880   4.783   1.682 -0.1460 -0.1616 -0.0146
 1818poe    c31 8845   2.828   6.198   5.652 -0.7773  0.0025  0.1236
 1818poe     o2 8846   2.766   6.320   5.687  0.2934  0.5436  0.2019
 1818poe    c23 8847   2.830   6.370   5.802 -0.5239 -0.3195  1.0658
 1818poe    c23 8848   2.756   6.496   5.851 -0.1913  0.2021  0.2569
 1818poe     o2 8849   2.745   6.594   5.751 -0.4451 -0.2185 -0.1288
 1818poe    c23 8850   2.662   6.693   5.806 -0.0255 -0.1969  0.4757
 1818poe    c23 8851   2.638   6.808   5.706  0.8439 -0.0440  0.4422
 1818poe     o2 8852   2.607   6.757   5.578  0.3933  0.3384  0.3979
 1818poe    c23 8853   2.598   6.861   5.484  0.4601  0.1091  0.1372
 1818poe    c23 8854   2.603   6.808   5.339  0.1412  0.3282  0.0451
 1818poe     o2 8855   2.733   6.762   5.312 -0.1663 -0.5415  0.0159
 1818poe    c31 8856   2.740   6.687   5.193  0.5967 -0.8806  0.2649
 1819poe    c31 8857   3.365   0.527   4.960  0.3038 -0.1438 -0.5594
 1819poe     o2 8858   3.260   0.530   4.866 -0.0233  0.3981 -0.1825
 1819poe    c23 8859   3.224   0.408   4.803 -0.5693  0.2945  0.3211
 1819poe    c23 8860   3.102   0.418   4.709 -0.0544  0.0901 -0.3769
 1819poe     o2 8861   3.011   0.510   4.765 -0.2613 -0.2687 -0.1258
 1819poe    c23 8862   2.881   0.506   4.710 -0.3013  0.1531 -0.0587
 1819poe    c23 8863   2.816   0.646   4.709  0.0618  0.3214 -0.2307
 1819poe     o2 8864   2.845   0.701   4.836  0.0619  0.1826 -0.1709
 1819poe    c23 8865   2.731   0.721   4.917  0.3105 -0.3304  0.3134
 1819poe    c23 8866   2.773   0.802   5.042 -0.5162  0.2706  0.2053
 1819poe     o2 8867   2.822   0.717   5.142 -0.6640 -0.0280  0.0243
 1819poe    c31 8868   2.795   0.769   5.270 -0.5653  0.6048 -0.2118
 1820poe    c31 8869   4.618   4.021   6.446  0.0979  0.1235  0.6015
 1820poe     o2 8870   4.674   4.150   6.439  0.2374  0.0282 -0.1253
 1820poe    c23 8871   4.701   4.209   6.564 -0.0840  0.2754 -0.1716
 1820poe    c23 8872   4.789   4.333   6.540  0.1830  0.1114 -0.0450
 1820poe     o2 8873   4.717   4.439   6.481  0.0420  0.0789  0.0691
 1820poe    c23 8874   4.807   4.515   6.404  0.1679 -0.5753 -0.4340
 1820poe    c23 8875   4.757   4.653   6.359  0.1618 -0.6291 -0.5946
 1820poe     o2 8876   4.626   4.643   6.306 -0.0664 -0.2712 -0.1130
 1820poe    c23 8877   4.562   4.767   6.285  0.4382  0.0804  0.4180
 1820poe    c23 8878   4.428   4.728   6.221  0.7085 -0.3060  0.0802
 1820poe     o2 8879   4.387   4.617   6.299 -0.2431  0.2310  0.3502
 1820poe    c31 8880   4.263   4.573   6.246  0.2998 -0.0080 -0.7508
 1821poe    c31 8881   6.638   5.235   1.502 -0.0820  0.3180 -0.1629
 1821poe     o2 8882   6.590   5.214   1.633  0.3734 -0.2464 -0.0811
 1821poe    c23 8883   6.547   5.085   1.671 -0.2056 -0.0988 -0.2301
 1821poe    c23 8884   6.479   5.092   1.809 -0.1050  0.0512 -0.1874
 1821poe     o2 8885   6.378   5.191   1.807 -0.1800 -0.0228 -0.0518
 1821poe    c23 8886   6.314   5.177   1.932  0.2190  0.6775  0.2345
 1821poe    c23 8887   6.214   5.293   1.946 -0.0980  0.4586 -0.2028
 1821poe     o2 8888   6.279   5.416   1.922  0.2156  0.1985 -0.7157
 1821poe    c23 8889   6.190   5.522   1.895  0.1569  0.3684  0.1127
 1821poe    c23 8890   6.258   5.657   1.924  0.1691  0.3228  0.2890
 1821poe     o2 8891   6.384   5.652   1.862 -0.1818 -0.1030 -0.3948
 1821poe    c31 8892   6.459   5.770   1.874 -0.0675 -0.2191  0.0400
 1822poe    c31 8893   3.984   5.816   5.012 -0.0264  0.4981 -0.0384
 1822poe     o2 8894   3.857   5.876   5.023 -0.3684 -0.2604  0.2300
 1822poe    c23 8895   3.851   5.948   5.144 -0.1891 -0.2480  0.2306
 1822poe    c23 8896   3.715   6.011   5.177  0.1287  0.4024  0.3163
 1822poe     o2 8897   3.627   5.902   5.159  0.3090  0.2581  0.3081
 1822poe    c23 8898   3.517   5.924   5.245  0.1511  0.3270  0.0908
 1822poe    c23 8899   3.411   5.857   5.156 -0.1671  0.4969  0.3437
 1822poe     o2 8900   3.459   5.733   5.109  0.1473  0.5531  0.5145
 1822poe    c23 8901   3.350   5.661   5.057  0.3792  0.3265  0.3371
 1822poe    c23 8902   3.385   5.527   4.990 -0.0923  0.1702  0.3961
 1822poe     o2 8903   3.462   5.545   4.873 -0.1310 -0.3056  0.2951
 1822poe    c31 8904   3.456   5.431   4.790  0.0376 -0.1583  0.0816
 1823poe    c31 8905   0.363   3.093   0.339  0.1787 -0.2400  0.3536
 1823poe     o2 8906   0.253   3.006   0.349  0.2027 -0.2994  0.1062
 1823poe    c23 8907   0.133   3.040   0.283  0.3945  0.2811  0.0521
 1823poe    c23 8908  -0.002   3.005   0.348 -0.1514 -0.2012 -1.3030
 1823poe     o2 8909  -0.029   2.867   0.356  0.4026 -0.2437  0.3077
 1823poe    c23 8910  -0.149   2.850   0.428  0.4697 -0.5305  0.3503
 1823poe    c23 8911  -0.211   2.714   0.390  0.2917 -0.4002  0.1683
 1823poe     o2 8912  -0.098   2.632   0.367  0.0689 -0.5217 -0.4912
 1823poe    c23 8913  -0.129   2.495   0.349 -0.2729 -0.3877 -0.9633
 1823poe    c23 8914   0.009   2.427   0.351 -0.0715  0.0384  0.0037
 1823poe     o2 8915   0.105   2.501   0.279 -0.2140  0.0990 -0.1244
 1823poe    c31 8916   0.172   2.405   0.201 -0.0866  0.1458 -0.0727
 1824poe    c31 8917   3.392   2.049   5.642  0.6828 -0.6104  0.4092
 1824poe     o2 8918   3.298   1.954   5.687  0.1012 -0.5404 -0.6285
 1824poe    c23 8919   3.170   1.964   5.627 -0.3029  0.0465  0.3065
 1824poe    c23 8920   3.062   1.918   5.727 -0.5759  0.1926  0.0793
 1824poe     o2 8921   3.082   1.784   5.764 -0.2661  0.1708 -0.1616
 1824poe    c23 8922   2.960   1.712   5.772  0.0079 -0.2795  0.0174
 1824poe    c23 8923   2.983   1.609   5.884 -0.0056 -0.2297  0.0661
 1824poe     o2 8924   3.102   1.540   5.852  0.3239  0.5128 -0.3315
 1824poe    c23 8925   3.123   1.438   5.946  0.0508  0.1652 -0.6434
 1824poe    c23 8926   3.256   1.372   5.903  0.2200 -0.2173  0.4184
 1824poe     o2 8927   3.350   1.475   5.886  0.1002 -0.1953 -0.1379
 1824poe    c31 8928   3.466   1.427   5.820  0.3293  0.3266 -0.1225
 1825poe    c31 8929   3.024   3.469   6.995  0.7601  0.1805  0.0289
 1825poe     o2 8930   3.039   3.585   6.916  0.3016  0.6189  0.5746
 1825poe    c23 8931   2.916   3.653   6.921  0.0928  0.2894  0.0123
 1825poe    c23 8932   2.924   3.759   6.810 -0.5525  0.1987 -0.1226
 1825poe     o2 8933   3.048   3.818   6.842 -0.1426 -0.2824 -0.8063
 1825poe    c23 8934   3.090   3.907   6.741 -0.4168  0.9628  0.1593
 1825poe    c23 8935   3.238   3.946   6.763  0.0281 -0.5882 -0.0114
 1825poe     o2 8936   3.308   3.833   6.810  0.1299 -0.5089  0.0262
 1825poe    c23 8937   3.443   3.852   6.772 -0.0275  0.2979 -0.1538
 1825poe    c23 8938   3.548   3.741   6.793 -0.0557  0.2932 -0.0363
 1825poe     o2 8939   3.511   3.638   6.704  0.3693 -0.7035  0.9213
 1825poe    c31 8940   3.603   3.531   6.696 -0.1423 -1.0559 -0.4570
 1826poe    c31 8941   2.466   2.054   0.642 -0.2680 -0.1212  0.5431
 1826poe     o2 8942   2.547   2.005   0.538 -0.5587 -0.1575  0.3316
 1826poe    c23 8943   2.518   1.874   0.495 -0.7282  0.1751 -0.6045
 1826poe    c23 8944   2.625   1.833   0.393 -0.0334 -0.4130  0.3410
 1826poe     o2 8945   2.752   1.800   0.444  0.2001  0.2659  0.2042
 1826poe    c23 8946   2.827   1.747   0.337 -0.4395 -0.1554 -0.0430
 1826poe    c23 8947   2.978   1.729   0.361 -0.4342  0.7896  0.6720
 1826poe     o2 8948   3.054   1.846   0.341  0.3248  0.1880  0.0044
 1826poe    c23 8949   3.180   1.815   0.284  0.3713 -0.3724  0.4110
 1826poe    c23 8950   3.265   1.941   0.263  0.0296 -0.1055  0.6185
 1826poe     o2 8951   3.379   1.916   0.184 -0.2525  0.0082  0.1686
 1826poe    c31 8952   3.476   2.013   0.219  0.0685 -0.0650 -0.5110
 1827poe    c31 8953   5.319   0.963   1.519 -0.0282  0.7618  0.7380
 1827poe     o2 8954   5.182   0.996   1.523 -0.2463 -0.0068 -0.1126
 1827poe    c23 8955   5.135   1.028   1.651 -0.3941 -0.2820 -0.0985
 1827poe    c23 8956   4.981   1.032   1.653 -0.3739  0.7056 -0.1794
 1827poe     o2 8957   4.951   0.920   1.574  0.4254  0.2388  0.1637
 1827poe    c23 8958   4.821   0.866   1.590  0.7880 -0.5188  0.6132
 1827poe    c23 8959   4.802   0.768   1.472 -0.0917  0.6259 -0.2283
 1827poe     o2 8960   4.864   0.825   1.359 -0.1587 -0.3153 -0.7487
 1827poe    c23 8961   4.893   0.735   1.254  0.1355 -0.5068 -0.5068
 1827poe    c23 8962   4.990   0.813   1.162  0.0782 -0.1613 -0.2783
 1827poe     o2 8963   5.071   0.884   1.253  0.2033 -0.7221  0.0507
 1827poe    c31 8964   5.188   0.923   1.186 -0.0254  0.2168  0.1821
 1828poe    c31 8965   3.889   3.284   6.671  0.0623  0.4709  0.0824
 1828poe     o2 8966   3.828   3.245   6.550 -0.3969  0.7252  0.2282
 1828poe    c23 8967   3.848   3.353   6.462  0.5106  0.4417  0.0706
 1828poe    c23 8968   3.793   3.327   6.320  0.0361 -0.1421  0.3612
 1828poe     o2 8969   3.652   3.326   6.318  0.0465  0.0326 -0.5764
 1828poe    c23 8970   3.612   3.291   6.187  0.1278 -0.2912 -0.5158
 1828poe    c23 8971   3.576   3.143   6.161  0.1063 -0.4779  0.5445
 1828poe     o2 8972   3.504   3.094   6.272  0.4766 -0.6770  0.7013
 1828poe    c23 8973   3.397   3.017   6.222  0.2300 -0.2269  0.5227
 1828poe    c23 8974   3.312   2.944   6.328 -0.4553 -0.1632  0.0215
 1828poe     o2 8975   3.307   3.035   6.435  0.2603  0.0970 -0.1575
 1828poe    c31 8976   3.295   2.961   6.555 -0.3862 -0.1182 -0.3515
 1829poe    c31 8977   2.177   6.011   5.058  0.6477 -0.6389  0.1546
 1829poe     o2 8978   2.102   5.950   4.956 -0.1052  0.9594 -0.2834
 1829poe    c23 8979   2.181   5.868   4.873 -0.2035  0.6773 -0.0999
 1829poe    c23 8980   2.108   5.798   4.756  0.0991  0.1988 -0.0072
 1829poe     o2 8981   1.995   5.724   4.794  0.2811 -0.1368 -0.1186
 1829poe    c23 8982   1.962   5.609   4.718  0.1983 -0.0428 -0.2249
 1829poe    c23 8983   1.897   5.497   4.801 -0.3504 -0.0942 -0.7234
 1829poe     o2 8984   1.804   5.562   4.886  0.1572 -0.5104  0.1549
 1829poe    c23 8985   1.673   5.523   4.851 -0.0707  0.3188  0.0673
 1829poe    c23 8986   1.593   5.616   4.944 -0.6148  0.4256 -0.5046
 1829poe     o2 8987   1.663   5.738   4.958  0.5220 -0.2786  0.1306
 1829poe    c31 8988   1.571   5.808   5.040 -0.1245 -0.5792 -0.3315
 1830poe    c31 8989   2.024   5.854   1.525 -0.0906 -0.4815  0.4761
 1830poe     o2 8990   1.987   5.807   1.397 -0.0404 -0.3308  0.4066
 1830poe    c23 8991   1.858   5.849   1.359 -0.0200 -0.3187  0.3504
 1830poe    c23 8992   1.828   5.756   1.241  0.0906  0.5960 -0.4110
 1830poe     o2 8993   1.935   5.759   1.150  0.0754  0.0198 -0.4539
 1830poe    c23 8994   1.893   5.669   1.050 -0.3665  0.0647 -0.3113
 1830poe    c23 8995   2.016   5.662   0.957 -0.3604  0.0364 -0.3013
 1830poe     o2 8996   2.128   5.591   1.004 -0.5057 -0.2268 -0.3555
 1830poe    c23 8997   2.239   5.639   0.932 -0.1434 -0.0668  0.3037
 1830poe    c23 8998   2.375   5.589   0.985  0.2794  0.4626 -0.2674
 1830poe     o2 8999   2.391   5.622   1.121 -0.3392  0.1251 -0.1044
 1830poe    c31 9000   2.523   5.604   1.167 -0.2934  0.7720  0.0279
 1831poe    c31 9001   2.008   1.842   5.288  0.1459  0.0922 -0.4710
 1831poe     o2 9002   1.964   1.863   5.155 -0.1606  0.0045 -0.3827
 1831poe    c23 9003   2.078   1.841   5.075  0.0574 -0.1006 -0.0460
 1831poe    c23 9004   2.054   1.857   4.924  0.0927 -0.3902 -0.0816
 1831poe     o2 9005   1.937   1.781   4.898 -0.3265  0.2789 -0.1593
 1831poe    c23 9006   1.927   1.754   4.760 -0.2651  0.4740 -0.2028
 1831poe    c23 9007   1.786   1.694   4.746 -0.0899  0.0339 -0.1032
 1831poe     o2 9008   1.687   1.766   4.816 -0.2855 -0.1252 -0.2133
 1831poe    c23 9009   1.559   1.715   4.786 -0.0921 -0.4529 -0.4811
 1831poe    c23 9010   1.441   1.783   4.857  0.1768 -0.3426 -0.1359
 1831poe     o2 9011   1.424   1.745   4.992  0.2717 -0.4743 -0.1605
 1831poe    c31 9012   1.321   1.816   5.058  0.6178 -0.3134  0.2128
 1832poe    c31 9013   0.383   6.435   5.014  0.5983  0.7380  0.7077
 1832poe     o2 9014   0.254   6.451   4.959  0.7211 -0.4517  0.0189
 1832poe    c23 9015   0.186   6.555   5.028  0.2917 -0.2049 -0.7626
 1832poe    c23 9016   0.045   6.576   4.969  0.2216  0.6635 -0.2872
 1832poe     o2 9017   0.049   6.626   4.837  0.2470 -0.1513 -0.5984
 1832poe    c23 9018  -0.077   6.645   4.779  0.0142 -0.0288 -0.0634
 1832poe    c23 9019  -0.070   6.689   4.631 -0.1199  0.2790  0.0192
 1832poe     o2 9020   0.027   6.605   4.571 -0.0485  0.1283  0.3423
 1832poe    c23 9021   0.033   6.645   4.436  0.1481 -0.6111  0.1305
 1832poe    c23 9022   0.128   6.550   4.359  0.1220 -0.6169  0.1058
 1832poe     o2 9023   0.240   6.531   4.443  0.0440 -0.6879  0.1936
 1832poe    c31 9024   0.342   6.466   4.370  0.6614  0.4861 -0.0052
 1833poe    c31 9025   5.707   0.962   1.940  0.1818 -0.4901  0.3493
 1833poe     o2 9026   5.744   0.942   1.806  0.1781  0.0377  0.2659
 1833poe    c23 9027   5.666   0.833   1.762  0.6871 -0.0648 -0.4049
 1833poe    c23 9028   5.671   0.827   1.608 -0.2013 -0.1950 -0.4347
 1833poe     o2 9029   5.809   0.834   1.583 -0.2856  0.0067 -0.8483
 1833poe    c23 9030   5.828   0.825   1.444 -0.1693 -0.8007 -0.7841
 1833poe    c23 9031   5.980   0.831   1.420 -0.1350 -0.1218 -0.4111
 1833poe     o2 9032   6.060   0.933   1.476  0.0951 -0.4525 -0.1297
 1833poe    c23 9033   6.192   0.944   1.428  0.1387  0.3801  0.1607
 1833poe    c23 9034   6.272   1.048   1.509  0.5175  0.1293  0.1104
 1833poe     o2 9035   6.301   0.989   1.633 -0.3580 -0.0129  0.2568
 1833poe    c31 9036   6.352   1.075   1.732 -0.2689  0.0368  0.1675
 1834poe    c31 9037   1.965   1.511   6.822 -0.5074  0.6797  0.1730
 1834poe     o2 9038   1.990   1.397   6.901  0.4654  0.4575 -0.4363
 1834poe    c23 9039   1.966   1.284   6.821 -0.7049 -0.0986  0.6649
 1834poe    c23 9040   2.020   1.155   6.886  0.0041 -0.1640 -0.0427
 1834poe     o2 9041   1.937   1.088   6.978  0.0480 -0.0184  0.1047
 1834poe    c23 9042   1.870   1.145   7.088 -0.6413  0.1972 -0.4200
 1834poe    c23 9043   1.858   1.037   7.196  0.0103  0.2364 -0.3051
 1834poe     o2 9044   1.798   0.922   7.139  0.1570  0.0030  0.0062
 1834poe    c23 9045   1.792   0.817   7.233 -0.1356  0.2014  0.2132
 1834poe    c23 9046   1.749   0.685   7.165 -0.0728  0.1470  0.2793
 1834poe     o2 9047   1.859   0.641   7.089 -0.0391  0.0186  0.4010
 1834poe    c31 9048   1.833   0.545   6.989  0.8800 -0.2717  0.4297
 1835poe    c31 9049   5.223   4.999   1.680 -0.0864  0.2621 -0.0640
 1835poe     o2 9050   5.348   4.988   1.615 -0.1909 -0.2829 -0.1782
 1835poe    c23 9051   5.369   4.857   1.567 -0.2785 -0.4673  0.2819
 1835poe    c23 9052   5.515   4.821   1.536 -0.0623  0.3129  0.3845
 1835poe     o2 9053   5.572   4.915   1.447 -0.2638 -0.1123 -0.1986
 1835poe    c23 9054   5.713   4.911   1.452 -0.2507 -0.4778 -0.7805
 1835poe    c23 9055   5.786   4.994   1.345  0.4796 -0.0549  0.0307
 1835poe     o2 9056   5.755   5.129   1.369 -0.3308 -0.0960 -0.7184
 1835poe    c23 9057   5.835   5.200   1.277 -0.1250 -0.1404 -0.5753
 1835poe    c23 9058   5.798   5.349   1.279  0.5339  0.0214 -0.3849
 1835poe     o2 9059   5.658   5.347   1.264  0.4498 -0.7428  0.4550
 1835poe    c31 9060   5.615   5.480   1.245  0.6171 -0.7074  0.3266
 1836poe    c31 9061   0.549   4.307   6.957  0.1595  0.2413  0.1180
 1836poe     o2 9062   0.535   4.202   6.864  1.0340  0.1176  0.1155
 1836poe    c23 9063   0.556   4.251   6.734 -0.2024  0.0836 -0.1112
 1836poe    c23 9064   0.575   4.142   6.627 -0.5693  0.1810 -0.2751
 1836poe     o2 9065   0.490   4.038   6.671 -0.0628 -0.1054  0.0238
 1836poe    c23 9066   0.498   3.925   6.587 -0.6031  0.2361 -0.4953
 1836poe    c23 9067   0.425   3.795   6.626 -0.0254  0.1367  0.2863
 1836poe     o2 9068   0.286   3.817   6.621  0.0439  0.5582  0.1844
 1836poe    c23 9069   0.217   3.710   6.682  0.2749  0.3088  0.0067
 1836poe    c23 9070   0.072   3.750   6.713  0.3200  0.2421  0.3109
 1836poe     o2 9071   0.057   3.857   6.803 -0.1457  0.4678 -0.0308
 1836poe    c31 9072  -0.076   3.852   6.850 -0.3096  0.2755 -0.5063
 1837poe    c31 9073   3.825   4.408   6.092  0.3316  0.6883 -0.5821
 1837poe     o2 9074   3.765   4.433   6.216  0.0284 -0.3853 -0.4990
 1837poe    c23 9075   3.768   4.570   6.250  0.0878 -0.4808 -0.1021
 1837poe    c23 9076   3.768   4.584   6.403  0.3328 -0.2902 -0.1180
 1837poe     o2 9077   3.628   4.591   6.421  0.4129 -0.0095  0.4025
 1837poe    c23 9078   3.600   4.697   6.511 -0.0876  0.5643 -0.4152
 1837poe    c23 9079   3.449   4.724   6.520 -0.1451  0.2354 -0.3806
 1837poe     o2 9080   3.373   4.624   6.584 -0.0990  0.3352 -0.1697
 1837poe    c23 9081   3.235   4.622   6.554 -0.0650  0.5428 -0.3463
 1837poe    c23 9082   3.203   4.558   6.418  0.3557 -0.4716  0.0218
 1837poe     o2 9083   3.202   4.417   6.415 -0.6781 -0.4655 -0.2563
 1837poe    c31 9084   3.179   4.377   6.282  0.3703 -0.4549 -0.4451
 1838poe    c31 9085   3.114   0.212   2.211 -0.4212  0.2133 -0.5964
 1838poe     o2 9086   3.111   0.108   2.116 -0.0388 -0.2762 -0.0736
 1838poe    c23 9087   3.003   0.124   2.027 -0.5671 -0.5681  0.5094
 1838poe    c23 9088   3.023   0.061   1.888  0.3647  0.1416  0.3108
 1838poe     o2 9089   3.023  -0.079   1.901 -0.0179  0.1018 -0.0884
 1838poe    c23 9090   2.975  -0.144   1.785 -0.5775  0.1633  0.1065
 1838poe    c23 9091   2.941  -0.294   1.796 -0.0459  0.0508  0.2711
 1838poe     o2 9092   3.053  -0.357   1.853 -0.4031 -0.4974  0.3792
 1838poe    c23 9093   3.044  -0.496   1.876 -0.5351 -0.5300  0.1350
 1838poe    c23 9094   3.181  -0.544   1.929 -0.3205 -0.0418  0.0360
 1838poe     o2 9095   3.223  -0.439   2.012 -0.6748  0.1470 -0.0199
 1838poe    c31 9096   3.288  -0.488   2.127  0.1636  0.7490 -0.2243
 1839poe    c31 9097   3.651   4.657   6.884 -0.0088 -0.2825 -0.0738
 1839poe     o2 9098   3.653   4.516   6.899 -0.3355 -0.2936 -0.1336
 1839poe    c23 9099   3.782   4.473   6.862 -0.5434 -0.7383 -0.3458
 1839poe    c23 9100   3.845   4.361   6.948  0.2712 -0.3336 -0.4079
 1839poe     o2 9101   3.768   4.243   6.945 -0.0867 -0.1285  0.4696
 1839poe    c23 9102   3.822   4.150   7.036  0.2569 -0.3586  0.0366
 1839poe    c23 9103   3.732   4.033   7.077  0.0452 -0.2268 -0.0520
 1839poe     o2 9104   3.612   4.060   7.148  0.5493 -0.1487  0.7877
 1839poe    c23 9105   3.519   3.954   7.148  0.1392  0.2079  0.6417
 1839poe    c23 9106   3.377   4.010   7.168  0.1448  0.2713  0.4984
 1839poe     o2 9107   3.349   4.115   7.077  0.2733  0.1165  0.2791
 1839poe    c31 9108   3.211   4.143   7.084  0.1253 -0.6215  0.4530
 1840poe    c31 9109   3.150   6.770   3.008 -0.6064  0.1533 -0.1610
 1840poe     o2 9110   3.094   6.657   3.071  0.1077 -0.3254 -0.3757
 1840poe    c23 9111   2.970   6.629   3.009 -0.2857  0.0874  0.2129
 1840poe    c23 9112   2.978   6.480   2.970  0.2630  0.0784  0.3412
 1840poe     o2 9113   2.998   6.395   3.081  0.2842 -0.0421  0.2458
 1840poe    c23 9114   3.016   6.262   3.038 -0.0375  0.0472 -0.1815
 1840poe    c23 9115   3.074   6.166   3.143  1.1726  0.5638 -0.3634
 1840poe     o2 9116   2.984   6.157   3.251  1.0479 -0.0596 -0.5111
 1840poe    c23 9117   3.063   6.121   3.362 -0.4051 -0.4447  0.4202
 1840poe    c23 9118   3.020   6.165   3.503  0.3298  0.0040  0.5116
 1840poe     o2 9119   3.032   6.306   3.505 -0.4004  0.0774  0.2175
 1840poe    c31 9120   3.024   6.343   3.641  0.4293  0.5874  0.1314
 1841poe    c31 9121   6.654   3.517   3.903  0.4787  0.2838 -0.5229
 1841poe     o2 9122   6.542   3.546   3.823 -0.3603  0.2861  0.6143
 1841poe    c23 9123   6.501   3.680   3.840  0.0397  0.4925  0.0214
 1841poe    c23 9124   6.412   3.713   3.719  0.0410 -0.4809 -0.2550
 1841poe     o2 9125   6.300   3.626   3.727 -0.2146 -0.1091  0.3107
 1841poe    c23 9126   6.186   3.670   3.657  0.0265 -0.0089 -0.0282
 1841poe    c23 9127   6.054   3.628   3.726  0.1461  0.0205  0.2199
 1841poe     o2 9128   6.018   3.492   3.728  0.0216  0.0520  0.1086
 1841poe    c23 9129   5.927   3.453   3.827 -0.4230 -0.2583 -0.4158
 1841poe    c23 9130   5.929   3.300   3.848  0.1168 -0.1967  0.0233
 1841poe     o2 9131   6.017   3.230   3.932 -0.0902  0.3343  0.6911
 1841poe    c31 9132   5.939   3.201   4.046 -0.8353 -1.0030 -0.1313
 1842poe    c31 9133   2.146   5.278   2.227  0.0760 -0.7369 -0.3425
 1842poe     o2 9134   2.025   5.263   2.298  0.2294 -0.1187  0.0553
 1842poe    c23 9135   1.942   5.162   2.246 -0.1014  0.2983 -0.2286
 1842poe    c23 9136   1.848   5.117   2.360  0.2358 -0.2277 -0.1574
 1842poe     o2 9137   1.762   5.212   2.419 -0.1254 -0.7280  0.1286
 1842poe    c23 9138   1.785   5.217   2.558  0.0739 -0.0015  0.0755
 1842poe    c23 9139   1.878   5.329   2.608 -0.5433  0.3115  0.5372
 1842poe     o2 9140   1.837   5.463   2.591 -0.7245  0.1877 -0.0196
 1842poe    c23 9141   1.826   5.507   2.457 -0.2746 -0.4313 -0.2606
 1842poe    c23 9142   1.724   5.621   2.447 -0.0603 -0.2229 -0.0813
 1842poe     o2 9143   1.762   5.748   2.496 -0.2091 -0.3157  0.2791
 1842poe    c31 9144   1.657   5.836   2.464 -0.1781 -0.2676  0.3117
 1843poe    c31 9145   3.782   4.721   3.070 -0.0392  0.2478 -0.3471
 1843poe     o2 9146   3.701   4.709   3.185  0.3707  0.3804 -0.0425
 1843poe    c23 9147   3.568   4.745   3.158  0.4086  0.4813 -0.0962
 1843poe    c23 9148   3.485   4.773   3.285  0.3129  0.0970 -0.0724
 1843poe     o2 9149   3.468   4.655   3.360 -0.8055  0.1455 -0.2190
 1843poe    c23 9150   3.426   4.676   3.493  0.3693  0.2027  0.1610
 1843poe    c23 9151   3.446   4.560   3.592  0.2426  0.3178  0.3230
 1843poe     o2 9152   3.586   4.539   3.595  0.2367  0.1196 -0.4190
 1843poe    c23 9153   3.617   4.489   3.723 -0.3726 -0.2837 -0.4252
 1843poe    c23 9154   3.770   4.504   3.723 -0.4100  0.1242 -0.0449
 1843poe     o2 9155   3.846   4.430   3.630 -0.1238  0.8454 -0.3935
 1843poe    c31 9156   3.974   4.420   3.688 -0.4159 -0.3067  0.0954
 1844poe    c31 9157   2.373   3.563   2.931  0.4603  0.1122 -0.4514
 1844poe     o2 9158   2.249   3.515   2.979  0.6107  0.0093 -0.1623
 1844poe    c23 9159   2.224   3.557   3.111  0.1434 -0.2685 -0.1617
 1844poe    c23 9160   2.084   3.506   3.148 -0.0268  0.3825  0.1078
 1844poe     o2 9161   2.012   3.494   3.028  0.2883 -0.0702 -0.0385
 1844poe    c23 9162   1.875   3.480   3.057  0.3529 -0.8893 -0.0993
 1844poe    c23 9163   1.797   3.449   2.928  0.3429 -0.4216 -0.2095
 1844poe     o2 9164   1.868   3.363   2.842  0.6400 -0.3419 -0.0441
 1844poe    c23 9165   1.795   3.318   2.730  0.4742 -0.0968 -0.0328
 1844poe    c23 9166   1.788   3.164   2.731 -0.1401 -0.0752 -0.5179
 1844poe     o2 9167   1.917   3.109   2.718  0.0957  0.3800 -0.1228
 1844poe    c31 9168   1.951   2.983   2.771  0.1440  0.3940 -0.1198
 1845poe    c31 9169   0.089   0.255   1.466  0.5172  0.3173 -0.3023
 1845poe     o2 9170   0.112   0.128   1.409  0.4296  0.1073  0.1328
 1845poe    c23 9171   0.156   0.147   1.277  0.8993 -0.4152  0.2085
 1845poe    c23 9172   0.128   0.020   1.194 -0.3018 -0.3018  0.4156
 1845poe     o2 9173   0.158  -0.077   1.292  0.9566  0.0264  0.3709
 1845poe    c23 9174   0.145  -0.206   1.236  0.3389  0.3692 -0.2811
 1845poe    c23 9175   0.219  -0.288   1.343 -0.0341 -0.1225 -0.3996
 1845poe     o2 9176   0.176  -0.240   1.468  0.4704  0.3047 -0.3887
 1845poe    c23 9177   0.198  -0.338   1.568 -0.1622  0.2862 -0.2599
 1845poe    c23 9178   0.211  -0.284   1.711  0.2180 -0.9043  0.1665
 1845poe     o2 9179   0.311  -0.185   1.725 -0.6006 -0.0450  0.0679
 1845poe    c31 9180   0.344  -0.175   1.862  0.0625 -0.2841 -0.0711
 1846poe    c31 9181   3.002   1.902   3.991  0.3779 -0.1479 -0.1737
 1846poe     o2 9182   3.124   1.841   4.023  0.0709 -0.5061  0.3263
 1846poe    c23 9183   3.226   1.938   4.037 -0.1693 -0.2596  0.3657
 1846poe    c23 9184   3.361   1.865   4.027  0.2172  0.4521  0.3370
 1846poe     o2 9185   3.390   1.800   3.906  0.0916  0.2453  0.4167
 1846poe    c23 9186   3.527   1.771   3.918  0.0573  0.0409  0.3220
 1846poe    c23 9187   3.575   1.709   3.786 -0.2563 -0.0063  0.2314
 1846poe     o2 9188   3.553   1.798   3.679 -0.1913 -0.0574  0.1751
 1846poe    c23 9189   3.581   1.741   3.553  0.1158  0.2206  0.1166
 1846poe    c23 9190   3.561   1.861   3.458  0.2683  0.3957  0.3029
 1846poe     o2 9191   3.435   1.912   3.497 -0.1181 -0.2676 -0.0490
 1846poe    c31 9192   3.407   2.024   3.415 -0.2215 -0.2833 -0.0346
 1847poe    c31 9193   0.486   5.499   1.873  0.2374 -0.1935 -0.1737
 1847poe     o2 9194   0.541   5.629   1.874  0.3269 -0.2334  0.0096
 1847poe    c23 9195   0.572   5.675   2.004 -0.2766 -0.1278  0.1195
 1847poe    c23 9196   0.664   5.799   2.010 -0.1833 -0.2109  0.4338
 1847poe     o2 9197   0.784   5.765   1.944 -0.3513 -0.2157  0.1274
 1847poe    c23 9198   0.832   5.887   1.893  0.0968 -0.4568 -0.0337
 1847poe    c23 9199   0.979   5.875   1.849  0.2356 -0.6186  0.4683
 1847poe     o2 9200   0.978   5.765   1.760  0.4304 -0.1230 -0.1516
 1847poe    c23 9201   1.098   5.749   1.688  0.5145 -0.1643 -0.0021
 1847poe    c23 9202   1.050   5.661   1.572 -0.1379 -0.0610  0.1855
 1847poe     o2 9203   0.985   5.557   1.641 -0.2402 -0.0697  0.0772
 1847poe    c31 9204   0.970   5.446   1.555 -0.1319  0.2571 -0.3674
 1848poe    c31 9205   2.588   2.037   4.198  0.1305 -0.0966  0.4670
 1848poe     o2 9206   2.493   2.125   4.141  0.1601 -0.1855  0.2794
 1848poe    c23 9207   2.559   2.223   4.066  0.1942 -0.4296 -0.0124
 1848poe    c23 9208   2.475   2.291   3.956  0.8392  0.3146 -0.0569
 1848poe     o2 9209   2.366   2.362   4.009  0.4657  0.0173 -0.4261
 1848poe    c23 9210   2.251   2.336   3.931  0.0591  0.2940  0.0745
 1848poe    c23 9211   2.134   2.421   3.983 -0.0935  0.3729 -0.3987
 1848poe     o2 9212   2.110   2.386   4.117  0.3525  0.8058 -0.2040
 1848poe    c23 9213   1.984   2.424   4.167 -0.1582 -0.7346 -0.2896
 1848poe    c23 9214   1.974   2.368   4.310  0.1509  0.3565  0.1643
 1848poe     o2 9215   2.086   2.394   4.392  0.1324  0.1232  0.2645
 1848poe    c31 9216   2.060   2.339   4.519 -0.2238 -0.2471  0.0319
 1849poe    c31 9217   4.679   1.817   0.363  0.0933  0.0630 -0.1752
 1849poe     o2 9218   4.622   1.939   0.321 -0.1427  0.0881  0.2171
 1849poe    c23 9219   4.483   1.946   0.294 -0.1120  0.4308  0.1415
 1849poe    c23 9220   4.434   2.092   0.283 -0.4554  0.2774 -0.3645
 1849poe     o2 9221   4.531   2.176   0.226 -0.4158  0.0523 -0.6320
 1849poe    c23 9222   4.466   2.296   0.193 -0.3263  0.1161 -0.5749
 1849poe    c23 9223   4.582   2.371   0.124 -0.0770  0.5731  0.3200
 1849poe     o2 9224   4.705   2.351   0.190  0.0215  0.2946  0.0529
 1849poe    c23 9225   4.800   2.432   0.124  0.0901  0.0100 -0.2019
 1849poe    c23 9226   4.948   2.392   0.109  0.1824  0.3408 -0.1771
 1849poe     o2 9227   5.010   2.355   0.230 -0.1039 -0.1519 -0.1819
 1849poe    c31 9228   5.136   2.301   0.200  0.0413  0.0434  0.0730
 1850poe    c31 9229   0.057   3.000   5.122 -0.1726 -0.0292 -0.2468
 1850poe     o2 9230  -0.008   3.124   5.103 -0.0680  0.0508 -0.0797
 1850poe    c23 9231  -0.147   3.100   5.106 -0.0148 -0.2229  0.3010
 1850poe    c23 9232  -0.209   3.233   5.059 -0.3935 -0.2321  0.7588
 1850poe     o2 9233  -0.150   3.331   5.142  0.2973 -0.1617  0.1995
 1850poe    c23 9234  -0.212   3.454   5.115 -0.3865 -0.4179  0.5683
 1850poe    c23 9235  -0.154   3.554   5.216 -0.5121  0.9819 -0.7004
 1850poe     o2 9236  -0.018   3.521   5.234 -0.8263  0.1323  0.2805
 1850poe    c23 9237   0.035   3.594   5.342 -0.3237  0.4280 -0.1594
 1850poe    c23 9238   0.188   3.595   5.362 -0.3301  0.0673 -0.0899
 1850poe     o2 9239   0.235   3.465   5.390 -0.0523  0.1121 -0.3491
 1850poe    c31 9240   0.373   3.438   5.406 -0.1506 -0.2827 -0.1674
 1851poe    c31 9241   6.689   1.883   1.903 -0.6501 -0.1098  0.3843
 1851poe     o2 9242   6.627   2.009   1.901  0.2761  0.3572  0.3862
 1851poe    c23 9243   6.728   2.108   1.896  0.6028  0.0260  0.4220
 1851poe    c23 9244   6.675   2.247   1.933  0.1353  0.0359 -0.2543
 1851poe     o2 9245   6.562   2.290   1.860  0.1026 -0.0646 -0.2632
 1851poe    c23 9246   6.501   2.404   1.917  0.1683 -0.1057 -0.1117
 1851poe    c23 9247   6.389   2.446   1.821 -0.3851  0.5934  0.8241
 1851poe     o2 9248   6.265   2.380   1.831  0.0453 -0.4082 -0.2453
 1851poe    c23 9249   6.159   2.433   1.757  0.1251 -0.0738 -0.1204
 1851poe    c23 9250   6.138   2.399   1.608  0.2229 -0.2659 -0.0907
 1851poe     o2 9251   6.082   2.270   1.605 -0.0926 -0.1234 -0.4703
 1851poe    c31 9252   6.014   2.282   1.482 -0.9326  0.0000 -0.0046
 1852poe    c31 9253   5.505   2.217   2.922  0.0561 -0.4404 -0.1677
 1852poe     o2 9254   5.475   2.300   3.032  0.3045 -0.2859 -0.2148
 1852poe    c23 9255   5.557   2.281   3.144  0.2577  0.3274 -0.0757
 1852poe    c23 9256   5.514   2.394   3.240  0.2097 -0.0052  0.2983
 1852poe     o2 9257   5.375   2.375   3.249  0.3175 -0.8056  0.3799
 1852poe    c23 9258   5.326   2.448   3.360 -0.5494  0.0389 -0.5284
 1852poe    c23 9259   5.187   2.392   3.395 -0.3461  0.1030  0.3989
 1852poe     o2 9260   5.095   2.427   3.294  0.0815  0.3072  0.0762
 1852poe    c23 9261   4.960   2.393   3.313  0.3388 -0.6746  0.1739
 1852poe    c23 9262   4.887   2.399   3.178  0.5576  0.2341  0.0935
 1852poe     o2 9263   4.944   2.306   3.089 -0.0565  0.1256 -0.1921
 1852poe    c31 9264   4.861   2.292   2.975  0.5966 -0.3204 -0.6205
 1853poe    c31 9265   7.014   1.648   1.911  0.0908 -0.4119  0.7581
 1853poe     o2 9266   7.116   1.551   1.912 -0.1739 -0.6998  0.2901
 1853poe    c23 9267   7.179   1.563   2.038  0.3804 -0.2481 -0.0260
 1853poe    c23 9268   7.332   1.556   2.019  0.4644  0.0738  0.5061
 1853poe     o2 9269   7.358   1.437   1.949  0.3819  0.3507 -0.0005
 1853poe    c23 9270   7.492   1.394   1.957  0.1256 -0.3001  0.9651
 1853poe    c23 9271   7.491   1.252   1.898  0.5712  0.2789 -0.4701
 1853poe     o2 9272   7.421   1.242   1.776  0.0399  0.0126 -0.1487
 1853poe    c23 9273   7.454   1.116   1.722  0.2894  0.0954 -0.1932
 1853poe    c23 9274   7.394   1.086   1.584 -0.2976  0.0138  0.0757
 1853poe     o2 9275   7.254   1.104   1.586 -0.3548 -0.3703 -0.1872
 1853poe    c31 9276   7.220   1.153   1.458 -0.3435  0.3819  0.0900
 1854poe    c31 9277   5.722   4.553   0.872 -0.4521 -0.3839 -0.3573
 1854poe     o2 9278   5.775   4.426   0.903  0.1050 -0.0207  0.2058
 1854poe    c23 9279   5.915   4.431   0.918  0.1480 -0.5514 -0.0036
 1854poe    c23 9280   5.985   4.294   0.928  0.2514 -0.5072 -0.1271
 1854poe     o2 9281   5.922   4.216   1.027  0.3548  0.1140  0.4374
 1854poe    c23 9282   5.977   4.086   1.036 -0.3753 -0.2531 -0.2564
 1854poe    c23 9283   5.988   4.039   1.183  0.0459 -0.5366 -0.3774
 1854poe     o2 9284   5.857   4.016   1.229 -0.0860  0.6089 -0.1319
 1854poe    c23 9285   5.833   4.037   1.366  0.4502  0.5787 -0.0318
 1854poe    c23 9286   5.685   4.010   1.396  0.3375  0.4825 -0.6710
 1854poe     o2 9287   5.610   4.060   1.287  0.4425  0.0423 -0.9466
 1854poe    c31 9288   5.471   4.040   1.294  0.5045 -0.0157  0.4152
 1855poe    c31 9289   1.313   5.317   6.888 -0.2039  0.1223 -0.0443
 1855poe     o2 9290   1.204   5.401   6.857 -0.0811  0.6261  0.8346
 1855poe    c23 9291   1.261   5.523   6.816 -0.4067  0.4950 -0.0239
 1855poe    c23 9292   1.152   5.615   6.758 -0.7525  0.2564  0.2457
 1855poe     o2 9293   1.061   5.657   6.857 -0.3681  0.0154  0.7046
 1855poe    c23 9294   0.968   5.751   6.809  0.0485  0.1961  0.2478
 1855poe    c23 9295   0.826   5.704   6.843 -0.2220  0.0078 -1.0821
 1855poe     o2 9296   0.800   5.574   6.797 -0.1534 -0.4506  0.1255
 1855poe    c23 9297   0.666   5.529   6.807 -0.4795  0.4527 -0.0998
 1855poe    c23 9298   0.587   5.514   6.938 -0.1911 -0.0015  0.0263
 1855poe     o2 9299   0.623   5.409   7.025 -0.1971 -0.0293 -0.0046
 1855poe    c31 9300   0.537   5.415   7.137 -0.1779 -0.1623  0.0175
 1856poe    c31 9301   1.493   2.165   0.290  0.4990  0.1021  0.1341
 1856poe     o2 9302   1.525   2.300   0.271 -0.3546  0.1789 -0.8634
 1856poe    c23 9303   1.578   2.354   0.390  0.5312 -0.5444 -0.9165
 1856poe    c23 9304   1.587   2.504   0.357 -0.2266 -0.2697  0.0694
 1856poe     o2 9305   1.473   2.541   0.284 -0.2644 -0.1535  0.1864
 1856poe    c23 9306   1.466   2.682   0.286  0.0085 -0.1201 -0.6156
 1856poe    c23 9307   1.330   2.718   0.224 -0.2019 -0.0865 -0.1386
 1856poe     o2 9308   1.310   2.638   0.110  0.3270  0.0865 -0.3536
 1856poe    c23 9309   1.188   2.678   0.051  0.5530  0.8751 -0.3015
 1856poe    c23 9310   1.128   2.584  -0.055  0.4933  0.5630  0.0070
 1856poe     o2 9311   1.126   2.451  -0.007 -0.4655  0.7239  0.4326
 1856poe    c31 9312   1.054   2.373  -0.099 -0.0500  0.2749  0.4886
 1857poe    c31 9313   6.019   3.246   2.042  0.0684  0.1576 -0.0487
 1857poe     o2 9314   5.898   3.174   2.039  0.3560 -0.3377  0.1993
 1857poe    c23 9315   5.880   3.088   1.928 -0.0487  0.2370 -0.1840
 1857poe    c23 9316   5.787   2.974   1.975 -0.1278  0.1283 -0.6043
 1857poe     o2 9317   5.665   3.023   2.026 -0.2209 -0.4534 -0.2519
 1857poe    c23 9318   5.571   2.927   2.065 -0.1923 -0.3766  0.0082
 1857poe    c23 9319   5.437   2.997   2.094 -0.0014 -0.1431  0.3329
 1857poe     o2 9320   5.367   3.045   1.981 -0.5366 -0.0642  0.6911
 1857poe    c23 9321   5.253   3.118   2.020 -0.5016  0.3613  0.0232
 1857poe    c23 9322   5.200   3.219   1.917 -0.2511  0.0998 -0.3671
 1857poe     o2 9323   5.293   3.325   1.927  0.3021 -0.4273  0.1390
 1857poe    c31 9324   5.276   3.410   1.817 -0.1509  0.0042  0.5378
 1858poe    c31 9325   2.587   6.151   6.517  0.5502 -0.0130 -0.3095
 1858poe     o2 9326   2.511   6.039   6.478 -0.1464  0.1311  0.6160
 1858poe    c23 9327   2.510   5.925   6.561  0.2200 -0.4996 -0.2277
 1858poe    c23 9328   2.636   5.838   6.556  0.5877 -0.0209  0.4814
 1858poe     o2 9329   2.627   5.724   6.639  0.1036 -0.2457  0.1277
 1858poe    c23 9330   2.757   5.677   6.612  0.3012  0.3124  0.0901
 1858poe    c23 9331   2.803   5.559   6.700  0.5652  0.0387 -0.4109
 1858poe     o2 9332   2.805   5.595   6.836  0.1837 -0.2059 -0.3403
 1858poe    c23 9333   2.873   5.513   6.929 -0.2453 -0.4162 -0.2086
 1858poe    c23 9334   2.845   5.585   7.062  0.1133 -0.5662 -0.0492
 1858poe     o2 9335   2.718   5.539   7.103 -0.1883  0.2652 -0.0309
 1858poe    c31 9336   2.710   5.511   7.241 -1.5354  0.0990 -0.1368
 1859poe    c31 9337   1.390   3.351   6.642 -0.1859 -0.1689 -0.3868
 1859poe     o2 9338   1.278   3.267   6.661 -0.2435 -0.0380 -0.1453
 1859poe    c23 9339   1.163   3.348   6.660  0.0160  0.3322 -0.3767
 1859poe    c23 9340   1.058   3.280   6.570  0.2482 -0.4913 -0.0287
 1859poe     o2 9341   1.069   3.140   6.588 -0.1172 -0.4816  0.2872
 1859poe    c23 9342   0.983   3.067   6.504 -0.6531  0.7074 -0.2318
 1859poe    c23 9343   0.950   2.932   6.571  0.1878  0.3166 -0.5923
 1859poe     o2 9344   1.075   2.867   6.570  0.1673  0.2769 -0.8205
 1859poe    c23 9345   1.072   2.731   6.607  0.2556  0.3774 -0.4355
 1859poe    c23 9346   1.222   2.696   6.619  0.2248  0.2508 -0.4132
 1859poe     o2 9347   1.284   2.752   6.733 -0.3501 -0.5786  0.3236
 1859poe    c31 9348   1.405   2.683   6.754 -0.0915 -0.0762  0.4969
 1860poe    c31 9349   0.097   6.744   2.297 -0.4855 -0.0837 -0.2398
 1860poe     o2 9350   0.198   6.679   2.370 -0.5468 -0.1287 -0.1943
 1860poe    c23 9351   0.248   6.564   2.304  0.2502  0.1827 -0.1470
 1860poe    c23 9352   0.345   6.487   2.396  0.2359  0.4076  0.0611
 1860poe     o2 9353   0.296   6.473   2.527 -0.1921 -0.2431 -0.1612
 1860poe    c23 9354   0.364   6.389   2.618  0.3556  0.0847 -0.2639
 1860poe    c23 9355   0.287   6.391   2.752 -0.2872  0.3827 -0.6299
 1860poe     o2 9356   0.256   6.519   2.802  0.5133  0.4906 -0.3884
 1860poe    c23 9357   0.202   6.512   2.932  0.2756  0.2509 -0.5003
 1860poe    c23 9358   0.159   6.648   2.990 -0.2638  0.0380 -0.3970
 1860poe     o2 9359   0.075   6.720   2.902  0.1548  0.5065 -0.4178
 1860poe    c31 9360   0.033   6.842   2.959  0.1049  0.2828  0.0317
 1861poe    c31 9361   4.349   1.940   6.310 -0.5244 -0.3181 -0.4885
 1861poe     o2 9362   4.443   1.910   6.209  0.2044 -0.7790  0.3103
 1861poe    c23 9363   4.558   1.989   6.224 -0.4490  0.3496 -0.5279
 1861poe    c23 9364   4.669   1.917   6.144  0.2427  0.5524  0.2307
 1861poe     o2 9365   4.608   1.925   6.017 -0.1356 -0.2282  0.3568
 1861poe    c23 9366   4.698   1.889   5.915 -0.3648  0.1829  0.0041
 1861poe    c23 9367   4.626   1.872   5.781 -0.3770  0.4020 -0.0181
 1861poe     o2 9368   4.503   1.804   5.792 -0.4508  0.5066 -0.1914
 1861poe    c23 9369   4.445   1.805   5.663  0.3136  0.3765 -0.5428
 1861poe    c23 9370   4.311   1.730   5.655  0.2315  0.5055 -0.3747
 1861poe     o2 9371   4.212   1.803   5.725  0.3197  0.4540 -0.1941
 1861poe    c31 9372   4.086   1.799   5.661  0.4650  0.6055 -0.4922
 1862poe    c31 9373   3.040   2.191   0.168  0.3182 -0.0268 -0.3067
 1862poe     o2 9374   2.957   2.302   0.140 -0.4833 -0.4435  0.3706
 1862poe    c23 9375   3.005   2.416   0.209  0.1626 -0.1883 -0.4820
 1862poe    c23 9376   2.943   2.542   0.146 -0.0313  0.4629  0.9687
 1862poe     o2 9377   2.810   2.499   0.129  0.0702  0.5935 -0.2438
 1862poe    c23 9378   2.722   2.608   0.114 -0.0019  0.5272 -0.3115
 1862poe    c23 9379   2.590   2.561   0.050 -0.0509  0.2194  0.0098
 1862poe     o2 9380   2.547   2.454   0.131  0.1926  0.0712 -0.0531
 1862poe    c23 9381   2.417   2.407   0.102  0.5246 -0.7322 -0.2588
 1862poe    c23 9382   2.369   2.296   0.197 -0.2294  0.0632  0.3069
 1862poe     o2 9383   2.462   2.197   0.160 -0.4629 -0.1692  0.3432
 1862poe    c31 9384   2.407   2.077   0.210 -0.4550 -0.0631  0.6074
 1863poe    c31 9385   1.479   6.264   3.184  0.1688 -0.1450  0.4317
 1863poe     o2 9386   1.418   6.359   3.269  0.1126  0.0860  0.1334
 1863poe    c23 9387   1.291   6.394   3.219  0.3533  0.7098 -0.0541
 1863poe    c23 9388   1.226   6.493   3.317 -0.7472  0.3629 -0.4227
 1863poe     o2 9389   1.238   6.439   3.447 -0.2610 -0.3300 -0.7568
 1863poe    c23 9390   1.196   6.528   3.547  0.9280  0.0712 -0.5991
 1863poe    c23 9391   1.239   6.480   3.687 -0.0451  0.0153 -0.3169
 1863poe     o2 9392   1.370   6.431   3.695  0.1756  0.6905  0.3567
 1863poe    c23 9393   1.413   6.417   3.829  0.0277 -1.0389  0.2548
 1863poe    c23 9394   1.564   6.436   3.850  0.0420 -0.4564 -0.3045
 1863poe     o2 9395   1.613   6.544   3.775  0.0465 -0.0924  0.2200
 1863poe    c31 9396   1.736   6.592   3.826  0.2311 -0.3571  0.0264
 1864poe    c31 9397   1.109   6.556   2.243 -0.4714  0.2110 -0.1336
 1864poe     o2 9398   1.058   6.566   2.374  0.1934  0.4911  0.1108
 1864poe    c23 9399   0.965   6.670   2.390 -0.6468 -0.2318  0.0040
 1864poe    c23 9400   0.943   6.701   2.539 -0.3775  0.0877 -0.0203
 1864poe     o2 9401   0.888   6.591   2.609  0.1952 -0.3517 -0.2562
 1864poe    c23 9402   0.802   6.648   2.705  0.5157 -0.1873 -0.0685
 1864poe    c23 9403   0.808   6.559   2.831 -0.0446  0.1995  0.2349
 1864poe     o2 9404   0.818   6.426   2.783 -0.1021  0.0833  0.5394
 1864poe    c23 9405   0.836   6.330   2.884 -0.2337  0.1054  0.5846
 1864poe    c23 9406   0.853   6.201   2.801  0.4162  0.3185  0.3744
 1864poe     o2 9407   0.942   6.218   2.694  0.1426 -0.2734  0.0442
 1864poe    c31 9408   0.960   6.093   2.631  0.3679 -0.0890 -0.2647
 1865poe    c31 9409   3.953   2.107   5.920 -0.5928  1.1203 -0.0606
 1865poe     o2 9410   3.946   2.177   6.042  0.5243  0.2077  0.5485
 1865poe    c23 9411   3.836   2.265   6.052  0.1329 -0.2061 -0.0288
 1865poe    c23 9412   3.885   2.360   6.164 -0.2592 -0.1214  0.0742
 1865poe     o2 9413   3.889   2.291   6.287  0.5040  0.5528  0.4336
 1865poe    c23 9414   3.896   2.378   6.398  0.3463  0.5472  0.4486
 1865poe    c23 9415   3.789   2.340   6.502  0.2150  0.2056  0.1918
 1865poe     o2 9416   3.814   2.203   6.524 -0.2245  0.1500  0.3403
 1865poe    c23 9417   3.759   2.153   6.644 -0.5806 -0.2220  0.0276
 1865poe    c23 9418   3.813   2.010   6.659 -0.3923 -0.1463  0.0826
 1865poe     o2 9419   3.836   1.952   6.533 -0.0425  0.5431 -0.1748
 1865poe    c31 9420   3.803   1.815   6.542  0.4771  0.4136 -0.2400
 1866poe    c31 9421   4.382   5.070   4.059  0.1724 -0.6298 -0.4690
 1866poe     o2 9422   4.455   4.981   4.139 -0.2719 -0.3912  0.2067
 1866poe    c23 9423   4.494   5.033   4.265 -0.0016  0.7300 -0.3294
 1866poe    c23 9424   4.619   4.951   4.305 -0.4589  0.2172  0.0636
 1866poe     o2 9425   4.570   4.819   4.313 -0.1610  0.1051  0.0367
 1866poe    c23 9426   4.646   4.749   4.408  0.1134  0.4867  0.1020
 1866poe    c23 9427   4.578   4.611   4.426  0.2436  0.3833 -0.1934
 1866poe     o2 9428   4.438   4.619   4.413  0.1870 -0.2374  0.0095
 1866poe    c23 9429   4.365   4.508   4.460 -0.1340  0.3125  0.8448
 1866poe    c23 9430   4.211   4.512   4.470 -0.1434  0.7351  0.5882
 1866poe     o2 9431   4.164   4.566   4.349  0.2525 -0.2618 -0.0238
 1866poe    c31 9432   4.024   4.562   4.331  0.3068  0.1483 -0.5668
 1867poe    c31 9433   5.746   6.656   3.008 -0.6666  0.0313 -0.1532
 1867poe     o2 9434   5.796   6.786   2.986 -0.3902 -0.0263  0.1382
 1867poe    c23 9435   5.702   6.846   2.899  0.0312  0.1995 -0.1653
 1867poe    c23 9436   5.740   6.989   2.858 -0.4234  0.4086  0.1373
 1867poe     o2 9437   5.873   6.992   2.809 -0.2981  0.1603  0.4560
 1867poe    c23 9438   5.900   7.113   2.741 -0.3073  0.1993  0.5216
 1867poe    c23 9439   5.860   7.251   2.796 -0.3123  0.3768  0.0715
 1867poe     o2 9440   5.912   7.276   2.925 -0.7161  0.4015  0.2293
 1867poe    c23 9441   5.896   7.410   2.965  0.8440  0.6474  0.0875
 1867poe    c23 9442   5.924   7.449   3.111  0.2725  1.0573  0.0927
 1867poe     o2 9443   6.062   7.438   3.135  0.2018 -0.3167 -0.0544
 1867poe    c31 9444   6.107   7.534   3.229 -0.2588  0.3511 -0.5076
 1868poe    c31 9445   4.602   5.927   1.966 -0.1426 -0.5830  0.1298
 1868poe     o2 9446   4.708   6.009   2.009 -0.2828 -0.2148 -0.2266
 1868poe    c23 9447   4.659   6.067   2.128 -0.3905  0.0065 -0.3767
 1868poe    c23 9448   4.750   6.173   2.194 -0.0694 -0.0009 -0.8047
 1868poe     o2 9449   4.777   6.276   2.102  0.1143  0.6911  0.0149
 1868poe    c23 9450   4.889   6.357   2.129  0.0537  0.6551  0.3721
 1868poe    c23 9451   4.941   6.422   2.000  0.1312  0.1461  0.1477
 1868poe     o2 9452   5.010   6.342   1.906 -0.0126 -0.3555  0.4660
 1868poe    c23 9453   5.089   6.436   1.837 -0.6248 -0.7055 -0.7317
 1868poe    c23 9454   5.195   6.401   1.730 -0.0734 -0.3753 -0.2984
 1868poe     o2 9455   5.320   6.371   1.788  0.1158  0.3166 -0.3373
 1868poe    c31 9456   5.404   6.307   1.696  0.6741 -0.2973  0.5822
 1869poe    c31 9457   6.649   0.432   0.584 -0.2437  0.2373  0.3086
 1869poe     o2 9458   6.767   0.499   0.545 -0.4646  0.3198 -0.2287
 1869poe    c23 9459   6.843   0.557   0.649 -0.2920 -0.2313 -0.0390
 1869poe    c23 9460   6.981   0.613   0.611 -0.3603  0.0163  0.0742
 1869poe     o2 9461   7.083   0.518   0.591 -0.2274  0.2134 -0.1984
 1869poe    c23 9462   7.192   0.592   0.539  0.3586 -0.3209  0.2507
 1869poe    c23 9463   7.324   0.520   0.505  0.4473 -0.1262  0.1829
 1869poe     o2 9464   7.303   0.405   0.425  0.0314 -0.2910  0.5200
 1869poe    c23 9465   7.426   0.338   0.407  0.0796 -0.0962  0.0964
 1869poe    c23 9466   7.443   0.254   0.279  0.5435 -0.1015  0.1600
 1869poe     o2 9467   7.351   0.156   0.235 -0.0761  0.5533 -0.0123
 1869poe    c31 9468   7.395   0.102   0.113  0.0237 -0.3688  0.4226
 1870poe    c31 9469   6.619   1.443   5.458  0.3206  0.2946  0.1654
 1870poe     o2 9470   6.583   1.552   5.376  0.0935  0.1324  0.0510
 1870poe    c23 9471   6.485   1.516   5.281 -0.7826  0.3374  0.8680
 1870poe    c23 9472   6.415   1.630   5.204 -0.2677  0.2243  0.2282
 1870poe     o2 9473   6.508   1.730   5.172 -0.1246 -0.1176 -0.4418
 1870poe    c23 9474   6.443   1.828   5.093 -0.5369 -0.1836 -0.1842
 1870poe    c23 9475   6.518   1.961   5.078 -0.4025 -0.3167 -0.7230
 1870poe     o2 9476   6.508   2.029   5.201 -0.2131 -0.4674 -0.6240
 1870poe    c23 9477   6.597   2.137   5.218 -0.2220 -0.5356 -0.1114
 1870poe    c23 9478   6.636   2.175   5.362 -0.2755  0.4423 -0.3451
 1870poe     o2 9479   6.694   2.077   5.445 -0.1387  0.8843  0.0861
 1870poe    c31 9480   6.773   2.144   5.541 -0.1293  0.8488  0.1030
 1871poe    c31 9481   6.679   0.730   6.330  0.1396  0.6169 -0.0954
 1871poe     o2 9482   6.764   0.628   6.282 -0.0616  0.3594  0.0911
 1871poe    c23 9483   6.695   0.506   6.294 -0.2350  0.4713  0.2351
 1871poe    c23 9484   6.804   0.397   6.295 -0.5247  0.1748 -0.0985
 1871poe     o2 9485   6.883   0.398   6.178 -0.0318  0.0219  0.2307
 1871poe    c23 9486   6.969   0.287   6.192  0.0042 -0.0491 -0.5468
 1871poe    c23 9487   7.064   0.294   6.071  0.0763  0.4051 -0.4675
 1871poe     o2 9488   7.142   0.409   6.090 -0.0031  0.3383  0.2836
 1871poe    c23 9489   7.221   0.452   5.980 -0.3089 -0.3860 -0.2232
 1871poe    c23 9490   7.154   0.554   5.887 -0.0136  0.0333  0.0235
 1871poe     o2 9491   7.121   0.676   5.949 -0.5496  0.2314 -0.6375
 1871poe    c31 9492   7.033   0.744   5.862 -0.2395  0.4895 -0.7521
 1872poe    c31 9493   0.180   3.983   6.309  0.2352  0.1837 -0.9999
 1872poe     o2 9494   0.273   4.086   6.284  0.0768  0.6001  0.0610
 1872poe    c23 9495   0.238   4.185   6.378  0.1990  0.0134  0.7302
 1872poe    c23 9496   0.311   4.319   6.370 -0.2266  0.1770 -0.5026
 1872poe     o2 9497   0.282   4.390   6.251  0.0742  0.4451 -0.4181
 1872poe    c23 9498   0.352   4.512   6.239  0.6269  0.1310 -0.3942
 1872poe    c23 9499   0.308   4.567   6.102  0.2788  0.4145 -0.1708
 1872poe     o2 9500   0.368   4.489   6.001  0.0595  0.2533 -0.1792
 1872poe    c23 9501   0.326   4.524   5.871  0.5595  0.7707 -0.2075
 1872poe    c23 9502   0.423   4.457   5.772  0.6693 -0.2098  0.5501
 1872poe     o2 9503   0.443   4.327   5.823 -0.2803 -0.4706  0.2770
 1872poe    c31 9504   0.522   4.249   5.736  0.4117  0.5274  0.0013
 1873poe    c31 9505   3.434   3.904   5.660  0.4709 -0.3379 -0.4427
 1873poe     o2 9506   3.396   3.769   5.645 -0.2378 -0.1478 -0.4165
 1873poe    c23 9507   3.299   3.726   5.737  0.1932  0.3461  0.2741
 1873poe    c23 9508   3.322   3.575   5.758  0.4914  0.3589  0.0385
 1873poe     o2 9509   3.351   3.524   5.630  0.1522 -0.2115  0.1875
 1873poe    c23 9510   3.384   3.387   5.628 -0.1734 -0.2832 -0.4213
 1873poe    c23 9511   3.401   3.347   5.480 -0.3146 -0.3185 -0.4277
 1873poe     o2 9512   3.490   3.444   5.430 -0.2223 -0.1249  0.1005
 1873poe    c23 9513   3.503   3.413   5.293  0.1709  0.8431 -0.0935
 1873poe    c23 9514   3.611   3.496   5.222  0.9299  0.4972  0.6494
 1873poe     o2 9515   3.581   3.632   5.207  0.1043  0.2395 -0.1400
 1873poe    c31 9516   3.683   3.711   5.149  0.4063 -0.3665 -0.4348
 1874poe    c31 9517   0.583   5.148   3.366  0.0731  0.5877  0.5382
 1874poe     o2 9518   0.585   5.208   3.493 -0.0877  0.0885  0.7806
 1874poe    c23 9519   0.482   5.160   3.576 -0.4075 -0.0383  0.3135
 1874poe    c23 9520   0.484   5.237   3.709  0.5138  0.1582  0.1922
 1874poe     o2 9521   0.474   5.376   3.689 -0.0497  0.0918  0.0109
 1874poe    c23 9522   0.447   5.451   3.805  0.3930  0.1124  0.1026
 1874poe    c23 9523   0.459   5.602   3.780 -0.5088  0.1671 -0.0468
 1874poe     o2 9524   0.588   5.624   3.727 -0.0599 -0.3313  0.8138
 1874poe    c23 9525   0.644   5.750   3.756  0.0991  0.0431 -0.9624
 1874poe    c23 9526   0.775   5.761   3.676  0.5064  0.0911 -0.2948
 1874poe     o2 9527   0.855   5.649   3.707  0.2444  0.1214  0.5172
 1874poe    c31 9528   0.987   5.676   3.665  0.2896  0.2811  0.7570
 1875poe    c31 9529   6.381   6.350   1.266  0.3838  0.0806 -0.3471
 1875poe     o2 9530   6.474   6.401   1.173  0.4979  0.2764 -0.1259
 1875poe    c23 9531   6.394   6.416   1.058  0.2877 -0.2686 -0.0527
 1875poe    c23 9532   6.469   6.467   0.934 -0.2693 -0.1117 -0.3272
 1875poe     o2 9533   6.538   6.590   0.948  0.2897 -0.4595 -0.0101
 1875poe    c23 9534   6.635   6.592   0.845  0.0261 -0.0581 -0.2542
 1875poe    c23 9535   6.701   6.730   0.830  0.2134 -0.1281 -0.0845
 1875poe     o2 9536   6.727   6.786   0.956 -0.0478  0.1623 -0.1582
 1875poe    c23 9537   6.831   6.880   0.968 -0.0899  0.2036 -0.1074
 1875poe    c23 9538   6.819   6.942   1.108  0.0171 -0.1815  0.0732
 1875poe     o2 9539   6.797   6.834   1.197 -0.4152  0.0841  0.2921
 1875poe    c31 9540   6.826   6.874   1.329 -0.0519  0.4131  0.1170
 1876poe    c31 9541   6.167   3.177   2.988  0.0368 -0.0861 -0.2922
 1876poe     o2 9542   6.151   3.317   2.983 -0.1940 -0.0925  0.2441
 1876poe    c23 9543   6.183   3.361   2.853  0.5219  0.1400  0.4921
 1876poe    c23 9544   6.150   3.511   2.846  0.1182  0.0337  0.0206
 1876poe     o2 9545   6.016   3.545   2.871  0.1864 -0.2231  0.7433
 1876poe    c23 9546   6.010   3.682   2.841 -1.0620 -0.5729 -0.7327
 1876poe    c23 9547   5.863   3.728   2.845 -0.8401  0.0830 -0.0996
 1876poe     o2 9548   5.805   3.680   2.964 -0.1729  0.3857  0.3615
 1876poe    c23 9549   5.682   3.741   2.995  0.0060  0.8951  0.0707
 1876poe    c23 9550   5.641   3.699   3.137 -0.5766 -0.1215 -0.3819
 1876poe     o2 9551   5.660   3.561   3.156 -0.0421  0.0914  0.7321
 1876poe    c31 9552   5.657   3.522   3.292  0.0679 -0.4226  0.5880
 1877poe    c31 9553   1.484   2.938   2.529 -0.0587  0.5598 -0.3036
 1877poe     o2 9554   1.445   2.934   2.393 -0.2478 -0.1889 -0.2340
 1877poe    c23 9555   1.454   2.809   2.329 -0.0019 -0.3061  0.0266
 1877poe    c23 9556   1.409   2.806   2.182 -0.3320  0.7965  0.0956
 1877poe     o2 9557   1.287   2.877   2.178 -0.9255 -0.2080 -0.1722
 1877poe    c23 9558   1.214   2.873   2.058  0.0034 -0.2709 -0.7468
 1877poe    c23 9559   1.071   2.912   2.101  0.2543 -0.1746  0.0120
 1877poe     o2 9560   1.080   3.035   2.169 -0.3916 -0.3212  0.3670
 1877poe    c23 9561   0.945   3.072   2.188 -0.2842  0.2318  0.0722
 1877poe    c23 9562   0.944   3.216   2.242 -0.4836  0.3055 -0.1246
 1877poe     o2 9563   1.007   3.223   2.367 -0.1787 -0.0126 -0.2589
 1877poe    c31 9564   1.003   3.358   2.408  0.1302 -0.1949  0.3903
 1878poe    c31 9565   4.444   5.939   2.442 -0.3553 -0.3031 -0.4622
 1878poe     o2 9566   4.372   5.951   2.322 -0.0872 -0.2881 -0.6226
 1878poe    c23 9567   4.259   6.035   2.331  0.3723  0.2689  0.0179
 1878poe    c23 9568   4.206   6.068   2.190  0.5639 -0.4484 -0.2267
 1878poe     o2 9569   4.148   5.958   2.123 -0.1005 -0.0950 -0.2373
 1878poe    c23 9570   4.097   6.011   2.003  0.1512  0.0608 -0.2777
 1878poe    c23 9571   4.060   5.902   1.901 -0.1118 -0.2642  0.1624
 1878poe     o2 9572   4.151   5.794   1.901  0.1030 -0.0851  0.7459
 1878poe    c23 9573   4.104   5.690   1.819 -0.1293  0.0881  0.6581
 1878poe    c23 9574   4.192   5.568   1.853 -0.0948 -0.1052 -0.1019
 1878poe     o2 9575   4.199   5.552   1.993  0.2850 -0.1941 -0.1298
 1878poe    c31 9576   4.239   5.422   2.029 -0.1831  0.0115  1.1788
 1879poe    c31 9577   0.326   2.011   6.701 -0.1563  0.4067  0.7010
 1879poe     o2 9578   0.191   1.974   6.719 -0.2573  0.2991 -0.2122
 1879poe    c23 9579   0.167   1.903   6.839  0.7131  0.7473  0.2601
 1879poe    c23 9580   0.017   1.895   6.871  0.8213 -0.5287  0.4807
 1879poe     o2 9581  -0.066   1.871   6.760  0.2545 -0.0112  0.7875
 1879poe    c23 9582  -0.195   1.835   6.804 -0.0346 -0.4002 -0.3392
 1879poe    c23 9583  -0.285   1.788   6.688 -0.9768  0.0754  0.1764
 1879poe     o2 9584  -0.327   1.904   6.620  0.0003  0.2802 -0.0947
 1879poe    c23 9585  -0.389   1.844   6.509  0.9471  0.0994 -0.5438
 1879poe    c23 9586  -0.447   1.937   6.401 -0.3576 -0.0891 -0.0377
 1879poe     o2 9587  -0.553   2.019   6.443 -0.5770 -0.0726 -0.6234
 1879poe    c31 9588  -0.595   2.094   6.331 -0.0406  0.3194 -0.5617
 1880poe    c31 9589   1.013   6.484   6.324  0.2368  0.1246 -0.4603
 1880poe     o2 9590   0.911   6.407   6.266  0.0453 -0.1789  0.2657
 1880poe    c23 9591   0.976   6.326   6.170  0.2790 -0.0883  0.3468
 1880poe    c23 9592   0.849   6.268   6.104  0.5657 -0.3410  0.0171
 1880poe     o2 9593   0.771   6.211   6.206  0.2687 -0.0507 -0.0477
 1880poe    c23 9594   0.702   6.094   6.167  0.0620 -0.0774  0.3866
 1880poe    c23 9595   0.578   6.055   6.250  0.0610  0.5006  0.6640
 1880poe     o2 9596   0.475   6.151   6.260  0.5568  1.0662  0.4303
 1880poe    c23 9597   0.387   6.138   6.369  0.0126  0.2357 -0.1001
 1880poe    c23 9598   0.432   6.193   6.505  0.2022 -0.2374  0.0318
 1880poe     o2 9599   0.547   6.135   6.561  0.2010  0.2715  0.5656
 1880poe    c31 9600   0.525   6.087   6.692 -0.1228 -0.2552  0.3201
 1881poe    c31 9601   1.609   4.543   5.467  0.5201 -0.0642  0.1370
 1881poe     o2 9602   1.700   4.478   5.381  0.2878 -0.2773  0.0514
 1881poe    c23 9603   1.724   4.341   5.406 -0.2295 -0.4922 -0.5967
 1881poe    c23 9604   1.847   4.282   5.335 -0.0288 -0.7257 -0.0615
 1881poe     o2 9605   1.971   4.343   5.365  0.0995 -0.5315 -0.9632
 1881poe    c23 9606   2.079   4.252   5.363  0.5371 -0.0256 -0.4096
 1881poe    c23 9607   2.220   4.312   5.348  0.6385 -0.1260  0.1244
 1881poe     o2 9608   2.242   4.393   5.235 -0.0507 -0.1955 -0.0644
 1881poe    c23 9609   2.373   4.441   5.258 -0.4829  0.3748  1.2891
 1881poe    c23 9610   2.424   4.539   5.151 -0.1802 -0.0933  1.0028
 1881poe     o2 9611   2.341   4.652   5.138 -0.3368 -0.3091  0.0642
 1881poe    c31 9612   2.381   4.729   5.027 -0.3084  0.0996  0.3550
 1882poe    c31 9613   6.614   5.370   5.143  0.4612  0.0214 -0.4442
 1882poe     o2 9614   6.662   5.453   5.246 -0.0552  0.2131 -0.3559
 1882poe    c23 9615   6.588   5.574   5.239 -0.0003  0.2676 -0.0010
 1882poe    c23 9616   6.565   5.649   5.372 -0.3557  0.3928 -0.1328
 1882poe     o2 9617   6.667   5.745   5.390 -0.2637  0.4671 -0.9867
 1882poe    c23 9618   6.626   5.831   5.494  0.3458 -0.3284 -0.0788
 1882poe    c23 9619   6.729   5.944   5.512 -0.0912  0.0556  0.0435
 1882poe     o2 9620   6.857   5.899   5.551 -0.0027  0.1361 -0.1504
 1882poe    c23 9621   6.953   5.998   5.523  0.2014  0.0741  0.3153
 1882poe    c23 9622   7.000   6.093   5.635 -0.1080  0.2919  0.2620
 1882poe     o2 9623   7.057   6.020   5.741  0.7314  0.0559 -0.3407
 1882poe    c31 9624   7.099   6.106   5.845  0.8009  0.2828 -0.5543
 1883poe    c31 9625   5.199   0.118   4.399  0.3044 -0.2454 -0.3231
 1883poe     o2 9626   5.312   0.135   4.481 -0.4371 -0.3288  0.7378
 1883poe    c23 9627   5.397   0.237   4.434 -0.5349 -0.1521  0.9455
 1883poe    c23 9628   5.499   0.289   4.538 -0.4501  0.9782  0.3159
 1883poe     o2 9629   5.591   0.191   4.580 -0.3739  0.8504 -0.1451
 1883poe    c23 9630   5.674   0.244   4.681  0.3888 -0.3593 -0.1142
 1883poe    c23 9631   5.780   0.150   4.741  0.1441 -0.4295  0.2118
 1883poe     o2 9632   5.708   0.047   4.805 -0.3933 -0.4808 -0.4616
 1883poe    c23 9633   5.785  -0.022   4.902 -0.4272  0.4142  0.2139
 1883poe    c23 9634   5.676  -0.101   4.977 -0.2058  0.1196  0.2281
 1883poe     o2 9635   5.596  -0.177   4.889  0.3099 -0.0798 -0.0733
 1883poe    c31 9636   5.505  -0.266   4.951 -0.2152 -0.1130 -0.8781
 1884poe    c31 9637   6.824   5.603   2.067  0.4953  0.0675  0.1349
 1884poe     o2 9638   6.691   5.592   2.112  0.5149  0.0605  0.1920
 1884poe    c23 9639   6.663   5.663   2.231  0.3290 -0.4996  0.4883
 1884poe    c23 9640   6.516   5.654   2.276  0.1894 -0.2310  0.0959
 1884poe     o2 9641   6.471   5.527   2.317 -0.0767 -0.2019 -0.1034
 1884poe    c23 9642   6.443   5.524   2.455  0.8956 -0.6779  0.0951
 1884poe    c23 9643   6.369   5.401   2.510 -0.0048 -0.4371 -0.5591
 1884poe     o2 9644   6.237   5.379   2.463 -0.3009  0.3791 -0.1399
 1884poe    c23 9645   6.181   5.263   2.522 -0.1303  0.4164  0.0988
 1884poe    c23 9646   6.128   5.267   2.666  0.3068  0.1845  0.2696
 1884poe     o2 9647   6.011   5.347   2.673 -0.2630 -0.5774 -0.3968
 1884poe    c31 9648   5.972   5.382   2.803 -0.4242 -1.1648 -0.2841
 1885poe    c31 9649   0.609   2.454   5.029 -0.3039  0.4024  0.0926
 1885poe     o2 9650   0.538   2.544   4.946 -0.0535  0.7084  0.2080
 1885poe    c23 9651   0.497   2.655   5.022 -0.2853  0.7938 -0.0384
 1885poe    c23 9652   0.441   2.770   4.936 -0.6191  0.2473 -0.5587
 1885poe     o2 9653   0.550   2.842   4.882 -0.0648 -0.2141 -0.0803
 1885poe    c23 9654   0.519   2.937   4.782  0.1896 -0.1804 -0.1256
 1885poe    c23 9655   0.645   2.987   4.709  0.4254 -0.3719  0.1475
 1885poe     o2 9656   0.721   2.906   4.622 -0.0598 -0.2371 -0.4011
 1885poe    c23 9657   0.789   2.807   4.696  0.0467  0.5337  0.5382
 1885poe    c23 9658   0.938   2.790   4.662 -0.2605 -0.7060 -0.2094
 1885poe     o2 9659   0.963   2.826   4.528  0.4774  0.0410  0.1233
 1885poe    c31 9660   1.093   2.787   4.490  0.5516  0.0786  0.3373
 1886poe    c31 9661   5.698   6.094   0.452 -0.2173  0.5871 -0.0830
 1886poe     o2 9662   5.622   6.095   0.333  0.1080 -0.3487 -0.3133
 1886poe    c23 9663   5.577   6.228   0.316  0.5842 -0.1678 -0.1594
 1886poe    c23 9664   5.514   6.257   0.178 -0.2874 -0.4437  0.1789
 1886poe     o2 9665   5.593   6.291   0.067 -0.3455  0.0836  0.2966
 1886poe    c23 9666   5.524   6.296  -0.056  0.6235  0.0710 -0.2578
 1886poe    c23 9667   5.519   6.167  -0.140  0.1337 -0.2302  0.2230
 1886poe     o2 9668   5.637   6.091  -0.157 -0.2522 -0.8635  0.3578
 1886poe    c23 9669   5.619   5.976  -0.237 -0.0674 -0.3742 -0.3995
 1886poe    c23 9670   5.757   5.909  -0.234  0.3695  0.5063 -0.3923
 1886poe     o2 9671   5.803   5.891  -0.101  0.2238 -0.2061 -0.4336
 1886poe    c31 9672   5.887   5.779  -0.087  0.0594 -0.2612  0.1287
 1887poe    c31 9673   6.799   2.567   5.890  0.2328  0.1725 -0.0602
 1887poe     o2 9674   6.774   2.678   5.807 -0.1749 -0.0540 -0.2460
 1887poe    c23 9675   6.849   2.676   5.687  0.2520 -0.2248  0.0196
 1887poe    c23 9676   6.825   2.784   5.580 -0.3338 -0.5032 -0.1383
 1887poe     o2 9677   6.690   2.799   5.543 -0.2553 -0.0242 -0.2435
 1887poe    c23 9678   6.678   2.862   5.417 -0.4387  0.4592  0.0151
 1887poe    c23 9679   6.529   2.894   5.392 -0.6411  0.0471  0.6640
 1887poe     o2 9680   6.462   2.775   5.356 -0.2069  0.0058 -0.0341
 1887poe    c23 9681   6.330   2.803   5.313 -0.0960 -0.2231 -0.5234
 1887poe    c23 9682   6.258   2.674   5.272 -0.4617 -0.1795 -0.0227
 1887poe     o2 9683   6.277   2.564   5.359  0.2720 -0.3599 -0.4075
 1887poe    c31 9684   6.215   2.442   5.323  0.0349 -0.1652 -0.6658
 1888poe    c31 9685   3.408   4.662   6.088 -0.4646  0.1394 -0.1400
 1888poe     o2 9686   3.270   4.688   6.098 -0.4310  0.0529  0.6536
 1888poe    c23 9687   3.246   4.825   6.119 -0.3165  0.1792  0.0069
 1888poe    c23 9688   3.094   4.849   6.111 -0.3407  0.0317  0.0164
 1888poe     o2 9689   3.011   4.861   6.224 -0.4081 -0.7660  0.0547
 1888poe    c23 9690   2.882   4.893   6.179 -0.1497  0.0298 -0.1430
 1888poe    c23 9691   2.771   4.868   6.283  0.1722  0.1242  0.2258
 1888poe     o2 9692   2.762   4.732   6.320  0.4729  0.0605  0.0622
 1888poe    c23 9693   2.809   4.701   6.449 -0.2035 -0.4773  0.1829
 1888poe    c23 9694   2.786   4.555   6.495  0.3693 -0.5993  0.0916
 1888poe     o2 9695   2.646   4.537   6.502  0.2565 -0.0030 -0.4792
 1888poe    c31 9696   2.617   4.407   6.548  0.3154  0.3421  0.5517
 1889poe    c31 9697   4.592   5.154   5.636  0.0474  0.0072  0.4375
 1889poe     o2 9698   4.642   5.239   5.737 -0.3000  0.1079  0.5276
 1889poe    c23 9699   4.711   5.158   5.830 -0.2842  0.1751  0.5742
 1889poe    c23 9700   4.737   5.234   5.961  0.2041 -0.1012  0.6413
 1889poe     o2 9701   4.621   5.256   6.040  0.1647  0.5322  0.4153
 1889poe    c23 9702   4.553   5.373   6.003  0.1311  0.5039  0.3885
 1889poe    c23 9703   4.410   5.401   6.055 -0.1778  0.4893 -0.4377
 1889poe     o2 9704   4.402   5.404   6.196 -0.0471 -0.3054 -0.4081
 1889poe    c23 9705   4.275   5.450   6.236 -0.0139  0.1413 -0.8017
 1889poe    c23 9706   4.284   5.497   6.382  0.1787 -0.2897 -0.6745
 1889poe     o2 9707   4.339   5.372   6.419  0.0126 -0.1819 -0.0456
 1889poe    c31 9708   4.373   5.369   6.556  0.8824  0.1292 -0.2485
 1890poe    c31 9709   3.266   2.743   2.391 -0.6936 -0.0589 -0.4673
 1890poe     o2 9710   3.243   2.621   2.458  0.3400  0.0436  0.0841
 1890poe    c23 9711   3.318   2.510   2.414 -0.1723 -0.1466 -0.3179
 1890poe    c23 9712   3.247   2.380   2.457  0.0974 -0.2386 -0.1530
 1890poe     o2 9713   3.199   2.404   2.588  0.0027  0.0121 -0.2334
 1890poe    c23 9714   3.141   2.287   2.641 -0.1812  0.1073 -0.2236
 1890poe    c23 9715   3.076   2.307   2.779 -0.5970 -0.5656 -0.3214
 1890poe     o2 9716   2.997   2.422   2.756 -0.0919 -0.1238  0.1434
 1890poe    c23 9717   2.896   2.439   2.853 -0.2744 -0.5224  0.0273
 1890poe    c23 9718   2.788   2.541   2.810 -0.2724 -0.5277  0.0091
 1890poe     o2 9719   2.740   2.514   2.681 -0.2797 -0.3317 -0.0295
 1890poe    c31 9720   2.643   2.607   2.639 -0.0187  0.1727  0.4794
 1891poe    c31 9721   4.947   2.351   5.552 -0.1388  0.1866 -0.2170
 1891poe     o2 9722   4.929   2.490   5.564 -0.5688  0.0467  0.9054
 1891poe    c23 9723   4.833   2.546   5.476 -0.2394 -0.1838  0.3953
 1891poe    c23 9724   4.722   2.639   5.527 -0.0374  0.3800 -0.1814
 1891poe     o2 9725   4.771   2.764   5.572 -0.4112  0.3262  0.3840
 1891poe    c23 9726   4.664   2.816   5.648  0.0413  0.4413  0.9501
 1891poe    c23 9727   4.701   2.950   5.713  0.6829  0.6681  0.1305
 1891poe     o2 9728   4.663   3.059   5.632 -0.6669  0.0327 -0.1111
 1891poe    c23 9729   4.689   3.173   5.711  0.5166 -0.2803 -0.0330
 1891poe    c23 9730   4.756   3.291   5.639 -0.2896  0.3941  0.3194
 1891poe     o2 9731   4.874   3.269   5.566 -0.7238 -0.4634 -0.1326
 1891poe    c31 9732   4.897   3.376   5.478  0.5598 -0.4208  0.2281
 1892poe    c31 9733   1.752   4.038   6.435  0.1624  0.2269 -0.8841
 1892poe     o2 9734   1.858   4.127   6.464  0.3336 -0.2715  0.0572
 1892poe    c23 9735   1.829   4.244   6.537  0.2190  0.0425 -0.4852
 1892poe    c23 9736   1.963   4.318   6.551  0.2097 -0.0624  0.1736
 1892poe     o2 9737   2.063   4.241   6.614  0.2497  0.0206  0.2127
 1892poe    c23 9738   2.179   4.298   6.670  0.2831  0.1647 -0.0028
 1892poe    c23 9739   2.156   4.392   6.790 -0.0631 -0.1510  0.1832
 1892poe     o2 9740   2.112   4.316   6.901 -0.1540 -0.1483  0.1480
 1892poe    c23 9741   2.091   4.398   7.013  0.4135 -0.1523  0.2596
 1892poe    c23 9742   2.039   4.305   7.125 -0.0676 -0.2057 -0.0045
 1892poe     o2 9743   2.128   4.199   7.149 -0.5803 -0.5611  0.3319
 1892poe    c31 9744   2.185   4.212   7.277 -0.1803 -0.5493  0.1555
 1893poe    c31 9745   0.636   4.335   3.196 -0.0026 -0.0996  0.4026
 1893poe     o2 9746   0.579   4.424   3.103  0.0815 -0.1174  0.3335
 1893poe    c23 9747   0.563   4.367   2.975  0.6856  0.8477 -0.1797
 1893poe    c23 9748   0.546   4.457   2.851  0.2328  0.1978 -0.5931
 1893poe     o2 9749   0.641   4.561   2.854  0.5762 -0.1328  0.0751
 1893poe    c23 9750   0.641   4.624   2.728  0.0403 -0.4110 -0.0662
 1893poe    c23 9751   0.764   4.712   2.702 -0.0419 -0.1451  0.4210
 1893poe     o2 9752   0.778   4.824   2.786 -0.2190  0.2647 -0.0865
 1893poe    c23 9753   0.852   4.928   2.727  0.1021 -0.0377 -0.2170
 1893poe    c23 9754   0.811   5.057   2.800 -0.3857 -0.0488 -0.4649
 1893poe     o2 9755   0.859   5.052   2.932 -0.8787 -0.3302 -0.2943
 1893poe    c31 9756   0.775   5.140   3.003  0.0859  0.6003 -0.2734
 1894poe    c31 9757   1.584   5.598   5.470  0.8312  0.7753  0.7891
 1894poe     o2 9758   1.697   5.514   5.459 -0.0332 -0.3157  0.0224
 1894poe    c23 9759   1.788   5.561   5.362 -0.5268  0.2039 -0.1988
 1894poe    c23 9760   1.900   5.465   5.317 -0.3596  0.1849  0.2527
 1894poe     o2 9761   1.839   5.366   5.238 -0.2423 -0.3699  0.8470
 1894poe    c23 9762   1.927   5.268   5.188 -0.2000  0.2053 -0.2501
 1894poe    c23 9763   1.863   5.207   5.062 -0.0104  0.0781 -0.2849
 1894poe     o2 9764   1.760   5.113   5.084  0.0319  0.1229  0.1287
 1894poe    c23 9765   1.809   4.991   5.134 -0.6135 -0.1144  0.1918
 1894poe    c23 9766   1.688   4.903   5.095 -0.5564  0.1395 -0.5551
 1894poe     o2 9767   1.579   4.954   5.168 -0.0201  0.0292  0.3348
 1894poe    c31 9768   1.484   4.850   5.178 -0.0990  0.0090 -0.5666
 1895poe    c31 9769   4.660   0.677   4.148 -0.3142  0.0242 -0.4100
 1895poe     o2 9770   4.559   0.589   4.192 -0.4382  0.4098  0.0907
 1895poe    c23 9771   4.602   0.508   4.298 -0.1429  0.2048 -0.1849
 1895poe    c23 9772   4.478   0.428   4.342  0.2387 -0.5444 -0.4546
 1895poe     o2 9773   4.413   0.352   4.243 -0.1214 -0.3124 -0.3966
 1895poe    c23 9774   4.318   0.253   4.278  0.3719 -0.7151 -0.1872
 1895poe    c23 9775   4.289   0.163   4.157  0.0327 -0.8626  0.0035
 1895poe     o2 9776   4.258   0.245   4.047 -0.4183 -0.5364  0.3709
 1895poe    c23 9777   4.281   0.167   3.932 -0.4142  0.0407 -0.0260
 1895poe    c23 9778   4.324   0.265   3.821  0.4921 -0.4667 -0.1260
 1895poe     o2 9779   4.406   0.366   3.874 -0.4403  0.1032  0.2454
 1895poe    c31 9780   4.447   0.445   3.765  0.4604 -0.6237  0.0520
 1896poe    c31 9781   5.048   4.523   6.063  0.1035 -0.4053  0.1141
 1896poe     o2 9782   5.092   4.485   5.935  0.2622  0.1163  0.0123
 1896poe    c23 9783   5.042   4.562   5.829 -0.0099  0.0760  0.1109
 1896poe    c23 9784   5.056   4.481   5.698 -0.1866 -0.0616  0.1777
 1896poe     o2 9785   5.180   4.485   5.631 -0.0083  0.0231  0.5085
 1896poe    c23 9786   5.220   4.613   5.586 -0.1884 -0.0712  0.0757
 1896poe    c23 9787   5.362   4.592   5.532 -0.3560 -0.6220 -0.1648
 1896poe     o2 9788   5.473   4.573   5.617  0.1614  0.6572 -0.5208
 1896poe    c23 9789   5.515   4.668   5.712 -0.1641 -0.0608  0.3520
 1896poe    c23 9790   5.633   4.630   5.803  0.6234  0.6780 -0.3471
 1896poe     o2 9791   5.763   4.612   5.750  0.6177 -0.2371 -0.0632
 1896poe    c31 9792   5.854   4.578   5.852 -0.1380  0.2806  0.8028
 1897poe    c31 9793   6.299   1.560   4.605 -0.2335 -0.0812  0.5148
 1897poe     o2 9794   6.349   1.429   4.619  0.2157  0.0794  0.4346
 1897poe    c23 9795   6.436   1.416   4.729  0.1473  0.3524  0.5232
 1897poe    c23 9796   6.525   1.291   4.709 -0.1137  0.1625  0.5453
 1897poe     o2 9797   6.445   1.178   4.679  0.4143  0.0607 -0.5165
 1897poe    c23 9798   6.517   1.059   4.699  0.2361 -0.0634 -0.6161
 1897poe    c23 9799   6.436   0.946   4.633  0.1065 -0.1603 -0.2939
 1897poe     o2 9800   6.322   0.927   4.712  0.5775 -0.0131  0.4280
 1897poe    c23 9801   6.233   0.825   4.673  0.3068  0.2111  0.4488
 1897poe    c23 9802   6.271   0.690   4.736 -0.0311 -0.3236 -0.4716
 1897poe     o2 9803   6.258   0.686   4.877 -0.5542  0.2886 -0.5003
 1897poe    c31 9804   6.279   0.554   4.924  0.2971  0.4889 -0.3013
 1898poe    c31 9805   2.147   2.135   1.505 -0.2282 -0.1282  0.2282
 1898poe     o2 9806   2.100   2.105   1.375 -0.3655 -0.1165  0.2747
 1898poe    c23 9807   2.019   2.202   1.312  0.0347 -0.1773 -0.3458
 1898poe    c23 9808   1.917   2.134   1.219 -0.0411  0.6391 -0.8659
 1898poe     o2 9809   1.963   2.010   1.171 -0.0371  0.1990  0.2384
 1898poe    c23 9810   1.879   1.973   1.064 -0.1354 -0.0717  0.4080
 1898poe    c23 9811   1.935   1.863   0.972  0.3491  0.2160  0.3562
 1898poe     o2 9812   1.953   1.749   1.052 -0.0868 -0.2208 -0.1551
 1898poe    c23 9813   2.049   1.662   0.996  0.0559 -0.3267  0.2466
 1898poe    c23 9814   2.197   1.697   0.970 -0.2169  0.3393 -0.4760
 1898poe     o2 9815   2.271   1.726   1.086 -0.6707  0.8264 -0.3054
 1898poe    c31 9816   2.406   1.699   1.058 -0.5734  0.7551  0.2116
 1899poe    c31 9817   6.539   1.577   1.012 -0.3127 -0.8487 -0.2253
 1899poe     o2 9818   6.450   1.473   1.044 -0.0819 -0.8833  0.3165
 1899poe    c23 9819   6.477   1.390   1.155 -0.0307 -0.3184  0.7293
 1899poe    c23 9820   6.367   1.282   1.142  0.1255 -0.2840 -1.1054
 1899poe     o2 9821   6.244   1.345   1.118 -0.1550 -0.4551 -0.1448
 1899poe    c23 9822   6.145   1.250   1.150 -0.4126 -0.1054  0.1131
 1899poe    c23 9823   6.008   1.320   1.137 -0.2123  0.4353  0.8736
 1899poe     o2 9824   6.014   1.383   1.011 -0.4588  0.6140  0.9516
 1899poe    c23 9825   5.891   1.390   0.943 -0.0406  0.0687  0.1287
 1899poe    c23 9826   5.911   1.473   0.815 -0.3681  0.0558  0.0672
 1899poe     o2 9827   5.939   1.605   0.857  0.0129  0.0299 -0.1000
 1899poe    c31 9828   5.864   1.698   0.783  0.4075  0.2102 -0.2743
 1900poe    c31 9829   0.851   3.475   0.769  0.1233 -0.0723  0.4973
 1900poe     o2 9830   0.957   3.520   0.850  0.4249  0.0851  0.0226
 1900poe    c23 9831   1.057   3.575   0.768  0.1099  0.0231 -0.4038
 1900poe    c23 9832   1.178   3.479   0.762  0.2310  0.1456  0.0483
 1900poe     o2 9833   1.246   3.497   0.884 -0.0366  1.0482  0.0745
 1900poe    c23 9834   1.362   3.417   0.879 -0.6683  0.0955  0.4068
 1900poe    c23 9835   1.434   3.465   1.007 -0.1991  0.2131  0.1038
 1900poe     o2 9836   1.334   3.463   1.107  0.5949  0.7883  0.9214
 1900poe    c23 9837   1.371   3.461   1.244  0.7765 -1.0712  0.8752
 1900poe    c23 9838   1.257   3.472   1.346 -0.2770 -0.8467 -0.2936
 1900poe     o2 9839   1.212   3.605   1.348  0.6195 -0.5412  0.1975
 1900poe    c31 9840   1.178   3.609   1.485  0.0594 -0.0514  0.0518
 1901poe    c31 9841   2.383   1.043   1.771  0.2057 -0.6306  0.4137
 1901poe     o2 9842   2.249   1.001   1.771 -0.0031  0.0206  0.0455
 1901poe    c23 9843   2.160   1.107   1.746  0.3298  0.3324  0.1743
 1901poe    c23 9844   2.019   1.054   1.777  0.3129 -0.0716 -0.5791
 1901poe     o2 9845   2.007   0.922   1.729  0.3881 -0.0400 -0.6835
 1901poe    c23 9846   1.881   0.873   1.767  0.4837  0.0897 -0.1902
 1901poe    c23 9847   1.842   0.739   1.700  0.3144 -0.0310  0.1447
 1901poe     o2 9848   1.926   0.636   1.747  0.2923 -0.0676  0.1042
 1901poe    c23 9849   1.890   0.520   1.677  0.3740 -0.1389  0.1794
 1901poe    c23 9850   2.007   0.421   1.674 -0.2218 -0.8466 -0.2709
 1901poe     o2 9851   2.016   0.348   1.795  0.2227 -0.0623  0.1788
 1901poe    c31 9852   2.146   0.344   1.849  0.4561 -0.0247 -0.3661
 1902poe    c31 9853   5.797   4.143   0.038 -0.0866  0.6738 -0.0728
 1902poe     o2 9854   5.911   4.224   0.057 -0.0206  0.4641  0.4633
 1902poe    c23 9855   5.983   4.243  -0.063  0.0801  0.3302  0.5022
 1902poe    c23 9856   6.063   4.375  -0.056  0.7066  0.0045 -0.3066
 1902poe     o2 9857   6.127   4.380   0.070  0.0133 -0.2368  0.0634
 1902poe    c23 9858   6.198   4.501   0.086 -0.1640 -0.0832 -0.3014
 1902poe    c23 9859   6.293   4.487   0.206 -0.3562 -0.6665 -0.2132
 1902poe     o2 9860   6.211   4.409   0.290 -0.5419 -0.0078  0.2227
 1902poe    c23 9861   6.287   4.375   0.404  0.2096  0.0388 -0.2566
 1902poe    c23 9862   6.211   4.287   0.504  0.9446 -0.3036  0.0078
 1902poe     o2 9863   6.182   4.155   0.462  0.3220  0.0006 -0.5382
 1902poe    c31 9864   6.095   4.095   0.554 -0.3218  0.3530 -0.9083
 1903poe    c31 9865   2.787   6.391   6.274 -0.0180 -0.9769  0.9716
 1903poe     o2 9866   2.662   6.348   6.224 -0.1162 -0.1829  0.5201
 1903poe    c23 9867   2.688   6.230   6.150  0.1017  0.2115 -0.0431
 1903poe    c23 9868   2.576   6.153   6.079  0.1473  0.0360  0.0748
 1903poe     o2 9869   2.545   6.214   5.955  0.4020 -0.0303 -0.0229
 1903poe    c23 9870   2.511   6.121   5.855  0.2845  0.0625 -0.0700
 1903poe    c23 9871   2.433   6.201   5.749  0.0866 -0.3854 -0.2668
 1903poe     o2 9872   2.306   6.237   5.800  0.3790  0.4367 -0.0971
 1903poe    c23 9873   2.214   6.261   5.695  0.2905  0.6777  0.0347
 1903poe    c23 9874   2.096   6.340   5.753 -0.1011 -0.0001  0.1755
 1903poe     o2 9875   2.054   6.298   5.881 -0.3614  0.1013  0.1250
 1903poe    c31 9876   1.951   6.389   5.913 -0.2070  0.3927 -0.1896
 1904poe    c31 9877   6.752   2.979   3.630 -0.0786 -0.3377  0.9592
 1904poe     o2 9878   6.723   3.116   3.644  0.0013 -0.2093 -0.0584
 1904poe    c23 9879   6.744   3.182   3.521  0.3176  0.0117  0.1119
 1904poe    c23 9880   6.664   3.313   3.507 -0.3448 -0.4101 -0.0728
 1904poe     o2 9881   6.527   3.286   3.487 -0.3031 -0.5886 -0.1243
 1904poe    c23 9882   6.449   3.396   3.445 -0.2282 -0.2979  0.4835
 1904poe    c23 9883   6.320   3.371   3.364  0.0967 -0.2139 -0.0665
 1904poe     o2 9884   6.250   3.273   3.438 -0.1897  0.4281  0.5149
 1904poe    c23 9885   6.116   3.253   3.399  0.0604  0.1416 -0.2010
 1904poe    c23 9886   6.044   3.186   3.517 -0.0932 -0.1671 -0.4703
 1904poe     o2 9887   6.100   3.065   3.565  0.3210  0.0369 -0.4356
 1904poe    c31 9888   6.002   2.972   3.605 -0.2374  0.4766 -0.7592
 1905poe    c31 9889   3.599   5.120   0.248  0.1501 -1.3379  0.6944
 1905poe     o2 9890   3.498   5.136   0.345 -0.3113 -0.7043  0.1131
 1905poe    c23 9891   3.570   5.150   0.465 -0.1781 -0.0573 -0.0360
 1905poe    c23 9892   3.479   5.207   0.576 -0.2717 -0.0959 -0.0932
 1905poe     o2 9893   3.474   5.346   0.553 -0.3042 -0.0905 -0.0517
 1905poe    c23 9894   3.573   5.426   0.613 -0.3797 -0.3084  0.3680
 1905poe    c23 9895   3.561   5.573   0.571  0.0427 -0.2389  0.4890
 1905poe     o2 9896   3.607   5.584   0.438 -0.4285  0.1151  0.3533
 1905poe    c23 9897   3.587   5.713   0.383 -0.1218  0.0723  0.1397
 1905poe    c23 9898   3.574   5.701   0.230 -0.1798 -0.2778  0.1702
 1905poe     o2 9899   3.478   5.611   0.181 -0.2735 -0.1302  0.0812
 1905poe    c31 9900   3.420   5.637   0.055 -0.1516  0.6357  0.1796
 1906poe    c31 9901   6.916   1.028   2.920 -0.5985  0.1543 -0.1563
 1906poe     o2 9902   7.010   0.923   2.908  0.0074  0.6558  0.2093
 1906poe    c23 9903   7.115   0.939   3.001  0.1670 -0.3907  0.2219
 1906poe    c23 9904   7.248   0.937   2.924  0.3018 -0.4104  0.4548
 1906poe     o2 9905   7.234   0.810   2.864 -0.2534 -0.4248  0.6121
 1906poe    c23 9906   7.350   0.785   2.788 -0.3873  0.0010  0.2598
 1906poe    c23 9907   7.338   0.646   2.724 -0.0355  0.3935 -0.6814
 1906poe     o2 9908   7.208   0.641   2.669 -0.2559  0.1442 -0.1467
 1906poe    c23 9909   7.184   0.536   2.578 -0.2180  0.1432 -0.1552
 1906poe    c23 9910   7.041   0.545   2.523 -0.2158 -0.1917 -0.2149
 1906poe     o2 9911   6.939   0.503   2.611 -0.0379 -0.3753 -0.0943
 1906poe    c31 9912   6.845   0.430   2.536 -0.5897  0.2074  0.0184
 1907poe    c31 9913   0.996   2.106   5.235  0.0324 -0.1017 -0.4115
 1907poe     o2 9914   1.095   2.205   5.221  0.0281 -0.0892 -0.3583
 1907poe    c23 9915   1.080   2.304   5.319 -0.1141 -0.0221 -0.4482
 1907poe    c23 9916   1.191   2.409   5.302 -0.3454  0.3466  0.2591
 1907poe     o2 9917   1.194   2.435   5.163  0.0952  0.2486  0.2464
 1907poe    c23 9918   1.300   2.520   5.128 -0.0585  0.3548  0.0392
 1907poe    c23 9919   1.259   2.550   4.982  0.5728 -0.4153 -0.3046
 1907poe     o2 9920   1.261   2.439   4.896 -0.4454 -0.4826 -0.2508
 1907poe    c23 9921   1.210   2.475   4.770  0.7575  0.1271 -0.5771
 1907poe    c23 9922   1.258   2.365   4.674  0.7302 -0.3440 -0.0518
 1907poe     o2 9923   1.202   2.240   4.711 -0.1443 -0.0819 -0.4694
 1907poe    c31 9924   1.240   2.127   4.636 -0.0457 -0.2884 -0.1087
 1908poe    c31 9925   0.893   6.491   6.907 -0.2713 -0.1807  0.3133
 1908poe     o2 9926   0.791   6.550   6.829 -0.1044 -0.3195 -0.0098
 1908poe    c23 9927   0.658   6.527   6.871 -0.0825  0.4119  0.4734
 1908poe    c23 9928   0.555   6.605   6.787  0.2070  0.0844 -0.1942
 1908poe     o2 9929   0.526   6.545   6.662  0.1681 -0.3081  0.0017
 1908poe    c23 9930   0.391   6.560   6.623  0.1341  0.5047  0.4032
 1908poe    c23 9931   0.361   6.676   6.527  0.3291  0.2513  0.0320
 1908poe     o2 9932   0.440   6.670   6.411 -0.1805 -0.1086 -0.3031
 1908poe    c23 9933   0.374   6.732   6.303 -0.7318 -0.0374  0.0687
 1908poe    c23 9934   0.466   6.741   6.180 -0.0554  0.2880  0.5923
 1908poe     o2 9935   0.511   6.618   6.126  0.2316  0.5989  0.1111
 1908poe    c31 9936   0.559   6.634   5.994 -0.1790 -0.1320 -0.1339
 1909poe    c31 9937   0.275   6.260   3.580 -0.2026  0.2416 -0.4568
 1909poe     o2 9938   0.367   6.215   3.677 -0.1133  0.6651 -0.3403
 1909poe    c23 9939   0.283   6.200   3.789  0.0502  0.6766 -0.2172
 1909poe    c23 9940   0.357   6.175   3.922 -0.8082  0.6379  0.2624
 1909poe     o2 9941   0.466   6.266   3.921 -0.1796 -0.1053 -0.1074
 1909poe    c23 9942   0.554   6.241   4.028 -0.0409  0.6804 -0.0378
 1909poe    c23 9943   0.683   6.313   3.982  0.5364 -0.3985 -0.1317
 1909poe     o2 9944   0.717   6.268   3.852 -0.0683 -0.0608 -0.4126
 1909poe    c23 9945   0.841   6.331   3.825 -0.3475  0.5449 -0.2962
 1909poe    c23 9946   0.907   6.294   3.691  0.3612  0.6085  0.0321
 1909poe     o2 9947   0.919   6.155   3.667  0.6842  0.6026  0.2242
 1909poe    c31 9948   1.047   6.113   3.707  0.5623 -0.1518 -0.1735
 1910poe    c31 9949   1.114   5.066   2.239 -0.2830 -0.0324 -1.1020
 1910poe     o2 9950   1.241   5.109   2.195 -0.1759  0.3448 -0.4401
 1910poe    c23 9951   1.315   4.989   2.185 -0.2940  0.2377 -0.0459
 1910poe    c23 9952   1.436   5.016   2.094 -0.1406 -0.3007 -0.0052
 1910poe     o2 9953   1.496   5.135   2.141 -0.0297 -0.4155  0.1462
 1910poe    c23 9954   1.596   5.173   2.049 -0.4257 -0.1497 -0.1788
 1910poe    c23 9955   1.651   5.311   2.090 -0.4311 -0.1143 -0.2908
 1910poe     o2 9956   1.536   5.393   2.094 -0.3044  0.0705 -0.3911
 1910poe    c23 9957   1.582   5.524   2.116  0.0220 -0.0477 -0.3681
 1910poe    c23 9958   1.458   5.614   2.124  0.1309  0.1329 -0.7048
 1910poe     o2 9959   1.392   5.594   2.247 -0.1007  0.6050 -0.7462
 1910poe    c31 9960   1.314   5.705   2.285  0.6214  0.9073 -0.1235
 1911poe    c31 9961   1.856   1.241   4.335 -0.0906  0.5477  0.3022
 1911poe     o2 9962   1.771   1.159   4.259  0.2071  0.2773  0.2639
 1911poe    c23 9963   1.683   1.090   4.344 -0.0586 -0.3006 -0.4638
 1911poe    c23 9964   1.600   0.985   4.268 -0.4826  0.0232 -0.4530
 1911poe     o2 9965   1.683   0.883   4.217 -0.2766 -0.0556  0.0325
 1911poe    c23 9966   1.619   0.773   4.156 -0.3330  0.4730 -0.8880
 1911poe    c23 9967   1.697   0.689   4.052 -0.8862 -0.5610 -0.4816
 1911poe     o2 9968   1.786   0.613   4.131 -0.3823  0.3554 -0.1440
 1911poe    c23 9969   1.857   0.515   4.060 -0.7273 -0.4292  0.5787
 1911poe    c23 9970   1.964   0.466   4.160 -0.0879 -0.3320 -0.0508
 1911poe     o2 9971   2.014   0.579   4.227 -0.4086 -0.4016  0.3085
 1911poe    c31 9972   2.127   0.565   4.310  0.2701  0.7945 -0.3785
 1912poe    c31 9973   4.748   6.319   5.762 -0.3559  0.4746  0.2022
 1912poe     o2 9974   4.799   6.439   5.709 -0.0600  0.2462 -0.0290
 1912poe    c23 9975   4.830   6.527   5.814 -0.5900 -0.0293  0.3623
 1912poe    c23 9976   4.900   6.663   5.797 -0.2793 -0.0460  1.4280
 1912poe     o2 9977   4.814   6.764   5.746  0.5388 -0.2539 -0.4519
 1912poe    c23 9978   4.827   6.893   5.802 -0.0350 -0.2896 -0.2315
 1912poe    c23 9979   4.745   7.006   5.738 -0.1284 -0.3123 -0.1512
 1912poe     o2 9980   4.782   7.047   5.608  0.1234 -0.2783 -0.0693
 1912poe    c23 9981   4.692   7.142   5.557  0.3074  0.2852  0.6384
 1912poe    c23 9982   4.742   7.182   5.417 -0.2833 -0.4156  0.2212
 1912poe     o2 9983   4.712   7.080   5.324  0.0076  0.0066 -0.3383
 1912poe    c31 9984   4.809   7.074   5.221 -0.0258 -0.5313 -0.3390
 1913poe    c31 9985   2.410   1.273   6.831  0.7119 -0.4540 -0.2137
 1913poe     o2 9986   2.385   1.241   6.966  0.2423  0.6894 -0.0231
 1913poe    c23 9987   2.461   1.133   7.015 -0.0209  0.6287  0.2539
 1913poe    c23 9988   2.409   1.107   7.158 -0.1067 -0.2615  0.0684
 1913poe     o2 9989   2.429   1.233   7.218 -0.0507 -0.1109 -0.2627
 1913poe    c23 9990   2.376   1.224   7.348 -0.4824 -0.3090 -0.4482
 1913poe    c23 9991   2.372   1.369   7.401  0.1542 -0.1577 -0.8006
 1913poe     o2 9992   2.322   1.457   7.303  0.2557  0.5564 -0.2192
 1913poe    c23 9993   2.244   1.568   7.340 -0.1549  0.0729  0.4087
 1913poe    c23 9994   2.095   1.540   7.367 -0.4205  0.5767 -0.4599
 1913poe     o2 9995   2.041   1.480   7.252 -0.1563 -0.2240 -0.1759
 1913poe    c31 9996   1.904   1.447   7.268 -0.1211 -0.1235  0.3594
 1914poe    c31 9997   4.434   5.875   0.393 -0.3948  0.1346  0.5683
 1914poe     o2 9998   4.376   5.979   0.316 -0.3299 -0.1700  0.1056
 1914poe    c23 9999   4.440   6.009   0.194 -0.5358  0.0522  0.0540
 1914poe    c2310000   4.342   6.093   0.109 -0.3030 -0.0977 -0.3678
 1914poe     o210001   4.323   6.228   0.147  0.1268 -0.3017  0.6178
 1914poe    c2310002   4.243   6.296   0.052  0.5585  0.2233  0.6287
 1914poe    c2310003   4.193   6.436   0.091  0.2908  0.2487  0.1933
 1914poe     o210004   4.121   6.420   0.210  0.6090 -0.0109  0.3527
 1914poe    c2310005   4.021   6.518   0.224  0.8172  0.2548 -0.0225
 1914poe    c2310006   3.923   6.466   0.330  0.7117  0.5248  0.0140
 1914poe     o210007   3.996   6.418   0.441  0.5971  0.2457 -0.0301
 1914poe    c3110008   3.911   6.435   0.551  0.5177  0.3590 -0.1087
 1915poe    c3110009   2.035   0.200   2.179 -0.0613  0.1830  0.3557
 1915poe     o210010   1.913   0.144   2.137  0.1576 -0.0154 -0.0218
 1915poe    c2310011   1.895   0.033   2.222 -0.1588 -0.1910 -0.3159
 1915poe    c2310012   1.752  -0.023   2.213  0.0707 -0.7856 -0.3022
 1915poe     o210013   1.718  -0.049   2.079  0.2266  0.2609 -0.5478
 1915poe    c2310014   1.765  -0.176   2.040 -0.2845 -0.2088  0.3255
 1915poe    c2310015   1.713  -0.215   1.900  0.5183 -0.1656  0.0078
 1915poe     o210016   1.759  -0.116   1.811 -0.2036  0.1736  0.0065
 1915poe    c2310017   1.743  -0.170   1.682 -0.1775 -0.4660  0.2638
 1915poe    c2310018   1.752  -0.043   1.594  0.8995  0.0325  1.0725
 1915poe     o210019   1.699   0.067   1.663  0.4026  0.2644  0.3354
 1915poe    c3110020   1.725   0.185   1.590 -0.3176  0.4409  0.3611
 1916poe    c3110021   6.858   3.090   5.818 -0.2555 -0.4074  0.1200
 1916poe     o210022   6.895   3.088   5.954  0.5086  0.1877 -0.0722
 1916poe    c2310023   6.945   3.212   5.998  0.0582  0.2136  0.3885
 1916poe    c2310024   7.025   3.198   6.129  0.3260 -0.1849  0.1877
 1916poe     o210025   6.955   3.142   6.237 -0.0355 -0.1400 -0.0212
 1916poe    c2310026   7.026   3.171   6.356 -0.2663 -0.1080  0.1106
 1916poe    c2310027   6.977   3.074   6.465 -0.4831  0.0073  0.1176
 1916poe     o210028   6.978   2.940   6.422  0.0181  0.2301 -0.5935
 1916poe    c2310029   6.888   2.866   6.502  0.2657  0.0742 -0.4583
 1916poe    c2310030   6.819   2.741   6.445 -0.3561  0.1857  0.0421
 1916poe     o210031   6.724   2.790   6.354  0.1892  0.2232 -0.5102
 1916poe    c3110032   6.642   2.685   6.308  0.5103 -0.4391  0.4169
 1917poe    c3110033   0.985   3.062   3.227  0.2021  0.0627 -0.0741
 1917poe     o210034   0.891   3.006   3.316  0.0424 -0.2375 -0.4265
 1917poe    c2310035   0.909   2.870   3.347 -0.3770 -0.2717 -0.3282
 1917poe    c2310036   0.778   2.804   3.395 -0.4197  0.1238  0.1059
 1917poe     o210037   0.690   2.798   3.285 -0.0314 -0.1987 -0.1903
 1917poe    c2310038   0.560   2.761   3.325 -0.0034 -0.1816 -0.0818
 1917poe    c2310039   0.451   2.819   3.233 -0.0536  0.2136  0.2246
 1917poe     o210040   0.456   2.959   3.231 -0.1450  0.2112 -0.1979
 1917poe    c2310041   0.330   3.016   3.203 -0.4305 -0.2700  0.0989
 1917poe    c2310042   0.335   3.169   3.218 -0.0408 -0.2812  0.0928
 1917poe     o210043   0.447   3.210   3.142 -0.1111 -0.0065  0.1337
 1917poe    c3110044   0.455   3.350   3.150 -0.4428  0.0019  0.3260
 1918poe    c3110045   0.756   1.118   4.224 -0.1103 -0.5732  0.2422
 1918poe     o210046   0.767   1.193   4.343  0.3207 -0.1086 -0.0862
 1918poe    c2310047   0.760   1.333   4.324  0.0600 -0.0719  0.2657
 1918poe    c2310048   0.751   1.397   4.464  0.0718  0.1827  0.1516
 1918poe     o210049   0.804   1.309   4.561 -0.4175 -0.2429  0.0360
 1918poe    c2310050   0.765   1.359   4.686 -0.0800 -0.0808  0.0750
 1918poe    c2310051   0.854   1.310   4.803  0.2705  0.5607  0.0829
 1918poe     o210052   0.859   1.170   4.794  0.0302  0.5579 -0.0248
 1918poe    c2310053   0.905   1.101   4.908  0.0997  0.1024 -0.3234
 1918poe    c2310054   0.885   0.952   4.876 -0.0074  0.1699 -0.5725
 1918poe     o210055   0.925   0.906   4.749 -0.6486  0.3763 -0.8501
 1918poe    c3110056   0.915   0.766   4.756 -0.5149  0.4179  0.2282
 1919poe    c3110057   0.856   6.819   6.122  0.7168 -0.3458  0.5890
 1919poe     o210058   0.823   6.896   6.236 -0.4135  0.2666 -0.1299
 1919poe    c2310059   0.822   7.035   6.213 -0.2801  0.2782 -0.0653
 1919poe    c2310060   0.720   7.118   6.293 -0.0445  0.1876  0.3320
 1919poe     o210061   0.773   7.139   6.422 -0.1939  0.1955  0.3927
 1919poe    c2310062   0.692   7.220   6.504 -0.4252  0.0384  0.3231
 1919poe    c2310063   0.778   7.300   6.604  0.0943  0.0467 -0.1245
 1919poe     o210064   0.787   7.253   6.737 -0.3483  0.4377  0.0462
 1919poe    c2310065   0.670   7.273   6.813 -0.3713 -0.4973  0.2685
 1919poe    c2310066   0.718   7.252   6.958  0.0755 -0.1654  0.1731
 1919poe     o210067   0.779   7.125   6.962 -0.0723 -0.2349  0.2344
 1919poe    c3110068   0.780   7.085   7.098 -0.5884  0.0578  0.3263
 1920poe    c3110069   1.129   5.308   6.361 -0.1024 -0.3336  0.3271
 1920poe     o210070   1.047   5.223   6.285 -0.1575 -0.0485  0.0628
 1920poe    c2310071   1.115   5.206   6.163 -0.6226 -0.0126 -0.2048
 1920poe    c2310072   1.051   5.097   6.075 -0.1943 -0.4783  0.0536
 1920poe     o210073   0.912   5.110   6.088 -0.1951 -0.0371 -0.3624
 1920poe    c2310074   0.839   5.052   5.982 -0.4085  0.2410 -0.3690
 1920poe    c2310075   0.694   5.020   6.023 -0.1298 -0.0380  0.4334
 1920poe     o210076   0.691   4.945   6.142 -0.1851 -0.3935  0.2092
 1920poe    c2310077   0.555   4.943   6.180 -0.2279 -0.3043  0.0633
 1920poe    c2310078   0.530   4.894   6.324 -0.5248  0.2674  0.2124
 1920poe     o210079   0.613   4.926   6.433  0.2913 -0.4312 -0.1879
 1920poe    c3110080   0.568   4.856   6.546  0.2263  0.0738  0.1025
 1921poe    c3110081   6.352   5.436   2.923 -0.3446 -0.3300  0.1253
 1921poe     o210082   6.470   5.445   2.846 -0.1402  0.0023  0.4749
 1921poe    c2310083   6.508   5.576   2.813 -0.3322 -0.1951 -0.5564
 1921poe    c2310084   6.654   5.586   2.766 -0.3133  0.2521 -0.4095
 1921poe     o210085   6.695   5.506   2.657  0.0184 -0.2467  0.0772
 1921poe    c2310086   6.825   5.549   2.623 -0.0142 -0.2113 -0.0020
 1921poe    c2310087   6.895   5.447   2.531  0.0397 -0.2487  0.0797
 1921poe     o210088   6.889   5.320   2.592 -0.1505 -0.2347  0.0909
 1921poe    c2310089   7.000   5.234   2.575 -0.0178 -0.0485  0.0051
 1921poe    c2310090   6.945   5.094   2.606 -0.2178  0.0720  0.2048
 1921poe     o210091   6.819   5.071   2.547 -0.3022  0.8320  0.0908
 1921poe    c3110092   6.764   4.946   2.580 -0.5387  0.7533 -0.5992
 1922poe    c3110093   3.642   0.809   5.169 -0.3446  0.3585 -0.2685
 1922poe     o210094   3.694   0.866   5.051 -0.4286  0.5279 -0.2239
 1922poe    c2310095   3.780   0.772   4.991  0.1619  1.0551 -0.2156
 1922poe    c2310096   3.739   0.696   4.863 -0.3709  0.2411  0.4221
 1922poe     o210097   3.770   0.785   4.758 -0.6070  0.2094  0.3263
 1922poe    c2310098   3.680   0.795   4.650  0.5413 -1.3000 -0.8109
 1922poe    c2310099   3.743   0.894   4.550 -0.4273 -0.0392 -0.2101
 1922poe     o210100   3.737   1.025   4.602  0.6327 -0.0443 -0.0546
 1922poe    c2310101   3.778   1.120   4.506 -0.2098 -0.4841 -0.8619
 1922poe    c2310102   3.677   1.233   4.480  0.2778  0.2233  0.2181
 1922poe     o210103   3.642   1.311   4.592 -0.1170  0.0712  0.2021
 1922poe    c3110104   3.675   1.446   4.568  0.3055 -0.0429  0.1354
 1923poe    c3110105   3.604   1.179   6.987 -0.3374 -0.0202 -0.0149
 1923poe     o210106   3.717   1.241   7.044 -0.3748  0.0408 -0.0060
 1923poe    c2310107   3.804   1.148   7.105  0.0055  0.1633 -0.3565
 1923poe    c2310108   3.947   1.205   7.101  0.0951 -0.0320 -0.0128
 1923poe     o210109   3.997   1.238   6.973  0.0074 -0.4106 -0.1434
 1923poe    c2310110   4.137   1.222   6.966  0.0740 -0.0950  0.4036
 1923poe    c2310111   4.178   1.291   6.834 -0.9254  0.0150  0.1357
 1923poe     o210112   4.105   1.235   6.727 -0.2070 -0.4937 -0.0941
 1923poe    c2310113   4.160   1.274   6.603  0.1004 -0.0905  0.1640
 1923poe    c2310114   4.077   1.225   6.483 -0.0948  0.4065  0.0927
 1923poe     o210115   4.040   1.095   6.525  0.7028  0.0724 -0.2083
 1923poe    c3110116   3.982   1.017   6.422 -0.1955  0.3945  0.0403
 1924poe    c3110117   6.750   2.083   0.998  0.1287 -0.1726 -0.3933
 1924poe     o210118   6.870   2.039   1.059 -0.0804  0.6809  0.6480
 1924poe    c2310119   6.823   1.983   1.180 -0.2431  0.2089  0.3659
 1924poe    c2310120   6.937   1.977   1.283  0.2186  0.4400 -0.1276
 1924poe     o210121   7.060   1.972   1.214  0.2372 -0.0960 -0.0589
 1924poe    c2310122   7.172   1.992   1.298 -0.1461  0.3900  0.3368
 1924poe    c2310123   7.296   1.962   1.213 -0.1248  0.3636  0.3769
 1924poe     o210124   7.309   2.067   1.120 -0.0127  0.2095  0.2167
 1924poe    c2310125   7.444   2.108   1.125  0.1304 -0.1310 -0.7359
 1924poe    c2310126   7.459   2.250   1.069 -0.8432  0.1461 -0.3015
 1924poe     o210127   7.432   2.350   1.165  0.8764 -0.1590  0.5286
 1924poe    c3110128   7.371   2.461   1.102 -0.2153 -0.5785  0.8239
 1925poe    c3110129   5.587   6.563   1.894 -0.9511  0.4094  0.7548
 1925poe     o210130   5.614   6.448   1.970  0.1949  0.0917 -0.1138
 1925poe    c2310131   5.714   6.357   1.928 -0.0876 -0.1084 -0.3554
 1925poe    c2310132   5.764   6.283   2.053  0.3238  0.4714 -0.1724
 1925poe     o210133   5.643   6.260   2.123  0.5549 -0.4191 -0.0473
 1925poe    c2310134   5.660   6.171   2.231 -0.1124 -0.5434 -0.0441
 1925poe    c2310135   5.523   6.161   2.302 -0.1118 -0.0466  0.0332
 1925poe     o210136   5.464   6.287   2.321 -0.2277  0.0234 -0.7660
 1925poe    c2310137   5.337   6.281   2.382 -0.1581  0.0468 -0.6190
 1925poe    c2310138   5.278   6.423   2.387  0.3610  0.2606 -0.4240
 1925poe     o210139   5.253   6.496   2.269  0.1684 -0.2478 -0.7024
 1925poe    c3110140   5.219   6.627   2.309 -0.0661 -0.5549  0.1125
 1926poe    c3110141   3.080   3.042   2.630  0.7050  0.2114 -0.1703
 1926poe     o210142   3.141   3.054   2.757  0.3051 -0.4140  0.0820
 1926poe    c2310143   3.036   3.036   2.849  0.6578 -0.1801  0.5327
 1926poe    c2310144   3.059   3.082   2.995  0.3662 -0.0047  0.5253
 1926poe     o210145   3.173   3.010   3.036  0.5675 -0.1859 -0.3164
 1926poe    c2310146   3.211   3.034   3.170 -0.1039 -0.6551 -0.0372
 1926poe    c2310147   3.361   2.998   3.171 -0.1280 -0.7545  0.4018
 1926poe     o210148   3.403   2.874   3.120 -0.2671 -0.5477 -0.2248
 1926poe    c2310149   3.342   2.764   3.184  0.3354 -0.4324  0.5519
 1926poe    c2310150   3.348   2.640   3.093 -0.3894  0.4069 -0.6534
 1926poe     o210151   3.227   2.591   3.038 -0.2164 -0.4598 -0.2663
 1926poe    c3110152   3.181   2.491   3.127 -0.9977  0.5944  0.5299
 1927poe    c3110153   2.108   5.954   4.123  0.1471 -0.0229  0.5221
 1927poe     o210154   2.196   6.062   4.103  0.1277 -0.1262 -0.1531
 1927poe    c2310155   2.133   6.171   4.039 -0.4030 -0.3276  0.0219
 1927poe    c2310156   2.231   6.275   3.983 -0.5501 -0.4411 -0.4450
 1927poe     o210157   2.272   6.361   4.086  0.1253 -0.4133 -0.7256
 1927poe    c2310158   2.333   6.486   4.059  0.2764 -0.3956 -0.3053
 1927poe    c2310159   2.406   6.555   4.176  0.1628 -0.3261 -0.2754
 1927poe     o210160   2.531   6.497   4.204  0.2296 -0.0118  0.0860
 1927poe    c2310161   2.590   6.542   4.324  0.2118  0.6747 -0.1619
 1927poe    c2310162   2.736   6.492   4.335 -0.1102 -0.0704  0.8460
 1927poe     o210163   2.734   6.353   4.311 -0.0859  0.0965 -0.1637
 1927poe    c3110164   2.858   6.290   4.332 -0.1376 -0.2024 -0.7292
 1928poe    c3110165   4.371   4.776   1.407  0.2750  0.6048  0.0516
 1928poe     o210166   4.368   4.916   1.427 -0.4146  0.5850  0.1305
 1928poe    c2310167   4.232   4.949   1.440 -0.6301 -0.0069 -0.5734
 1928poe    c2310168   4.222   5.097   1.479  0.1310 -0.2092  0.4201
 1928poe     o210169   4.238   5.200   1.383  0.1256 -0.2740  0.3503
 1928poe    c2310170   4.122   5.221   1.306 -0.0578 -0.4130  0.5845
 1928poe    c2310171   4.150   5.333   1.203  0.5141 -0.3802  0.7715
 1928poe     o210172   4.263   5.306   1.124 -0.3434 -0.1948 -0.5449
 1928poe    c2310173   4.293   5.399   1.023 -0.4019 -0.4953 -0.8418
 1928poe    c2310174   4.424   5.348   0.959  0.0849  0.0735 -0.3128
 1928poe     o210175   4.508   5.308   1.065 -0.2124 -0.3250 -0.2243
 1928poe    c3110176   4.632   5.266   1.013 -0.1892  0.1452 -0.5501
 1929poe    c3110177   2.922   2.412   5.792 -0.2783  0.2720  0.3347
 1929poe     o210178   2.874   2.525   5.860 -0.7178  0.2348  0.0917
 1929poe    c2310179   2.894   2.635   5.774  0.3340  0.0065  0.0382
 1929poe    c2310180   2.811   2.742   5.847  0.2169 -0.0117 -0.0678
 1929poe     o210181   2.866   2.739   5.977  0.1159 -0.2406 -0.0307
 1929poe    c2310182   2.802   2.848   6.040  0.2668  0.0066 -0.3056
 1929poe    c2310183   2.856   2.840   6.184 -0.1210  0.1871 -0.1501
 1929poe     o210184   2.831   2.705   6.219 -0.0591  0.1971 -0.0687
 1929poe    c2310185   2.904   2.667   6.334  0.1988  0.9021  0.0076
 1929poe    c2310186   2.886   2.514   6.328  0.1679  0.9138 -0.2355
 1929poe     o210187   2.883   2.472   6.194  0.3200  0.1658 -0.0051
 1929poe    c3110188   2.848   2.335   6.191 -0.0723  0.2631  0.1133
 1930poe    c3110189   2.649   6.751   6.319 -0.5513  0.0185  0.0629
 1930poe     o210190   2.625   6.885   6.356  0.7399  0.1798  0.3839
 1930poe    c2310191   2.710   6.978   6.293 -0.0275  0.2726 -0.5459
 1930poe    c2310192   2.726   7.097   6.389 -0.2892 -0.1925  0.0818
 1930poe     o210193   2.590   7.124   6.414 -0.2453 -0.1763  0.3075
 1930poe    c2310194   2.585   7.240   6.494  0.1354  0.1064 -0.0778
 1930poe    c2310195   2.441   7.289   6.475  0.2023  0.2011 -0.3388
 1930poe     o210196   2.345   7.185   6.476 -0.6863  1.0049  1.3214
 1930poe    c2310197   2.218   7.245   6.482 -0.9670  0.5294  0.2897
 1930poe    c2310198   2.117   7.152   6.553 -0.3719 -0.1318  0.2787
 1930poe     o210199   2.108   7.030   6.482  0.2598 -0.1108  0.1585
 1930poe    c3110200   2.033   6.931   6.549 -0.4684  0.1210 -0.3047
 1931poe    c3110201   3.220   6.027   2.281  0.2620  0.2126 -0.3520
 1931poe     o210202   3.104   6.037   2.200 -0.2101 -0.0013  0.2946
 1931poe    c2310203   2.990   5.974   2.253 -0.3523 -0.1250 -0.1573
 1931poe    c2310204   2.861   6.036   2.195  0.0457  0.7931 -0.0770
 1931poe     o210205   2.883   6.033   2.056 -0.0704  0.3997 -0.0880
 1931poe    c2310206   2.799   6.128   1.995 -0.8007 -0.1168  0.0886
 1931poe    c2310207   2.798   6.112   1.842 -0.3721  0.3225  0.0383
 1931poe     o210208   2.925   6.126   1.781 -0.3409  0.7981  0.2003
 1931poe    c2310209   2.943   6.145   1.642  0.0546  0.1431  0.1561
 1931poe    c2310210   3.091   6.112   1.617 -0.1067 -0.3990 -0.1044
 1931poe     o210211   3.179   6.202   1.680 -0.1244 -0.7646  0.4403
 1931poe    c3110212   3.290   6.204   1.592 -0.0740 -0.3123  0.5119
 1932poe    c3110213   2.446   0.202   3.358 -0.2715 -0.2128 -0.0794
 1932poe     o210214   2.310   0.167   3.370 -0.4289  0.3695 -0.1471
 1932poe    c2310215   2.231   0.242   3.280 -0.1100  0.9252  0.0295
 1932poe    c2310216   2.085   0.236   3.330 -0.1647 -0.1293 -0.2406
 1932poe     o210217   2.072   0.095   3.324  0.0131 -0.1499 -0.1590
 1932poe    c2310218   1.944   0.067   3.375  0.1451 -0.1836  0.1548
 1932poe    c2310219   1.952  -0.077   3.429 -0.0716 -0.0838  0.4532
 1932poe     o210220   2.078  -0.084   3.492  0.0438  0.6938  0.3144
 1932poe    c2310221   2.110  -0.204   3.558 -0.2971  0.1247 -0.5306
 1932poe    c2310222   2.240  -0.164   3.630 -0.2002 -0.6512 -0.2605
 1932poe     o210223   2.325  -0.120   3.526 -0.3579 -0.4329 -0.2988
 1932poe    c3110224   2.446  -0.088   3.592 -0.6510  0.0995 -0.0166
 1933poe    c3110225   0.290   2.910   1.959 -0.2167 -0.6108 -0.4285
 1933poe     o210226   0.185   2.825   2.000 -0.7840  0.3304  0.1238
 1933poe    c2310227   0.136   2.818   2.131  0.4684 -0.4615  0.5714
 1933poe    c2310228   0.102   2.672   2.169 -0.0324 -0.4894  0.0305
 1933poe     o210229   0.041   2.610   2.059  0.2199 -0.2823 -0.2271
 1933poe    c2310230   0.041   2.471   2.082  0.2454 -0.3142 -0.4147
 1933poe    c2310231  -0.019   2.399   1.960 -0.0870 -0.0322 -0.4156
 1933poe     o210232  -0.011   2.492   1.854 -0.1716 -0.0963 -0.4786
 1933poe    c2310233  -0.093   2.453   1.746 -0.0463  0.1351 -0.6581
 1933poe    c2310234  -0.227   2.527   1.761  0.0661  0.1884  0.1183
 1933poe     o210235  -0.218   2.667   1.774 -0.1730  0.2345 -0.1895
 1933poe    c3110236  -0.341   2.730   1.804 -0.1827 -0.0871  0.4649
 1934poe    c3110237   6.247   2.832   3.129  0.9190  0.4878 -0.1091
 1934poe     o210238   6.352   2.795   3.215  0.2105  0.2753  0.6874
 1934poe    c2310239   6.336   2.838   3.348 -0.4107  0.5767  0.5176
 1934poe    c2310240   6.435   2.780   3.450 -0.4874  0.0120  0.2731
 1934poe     o210241   6.412   2.643   3.473  0.2117 -0.1293  0.1596
 1934poe    c2310242   6.517   2.574   3.536 -0.2513  0.0650  1.1609
 1934poe    c2310243   6.477   2.448   3.616 -0.4097 -0.6723 -0.0589
 1934poe     o210244   6.457   2.329   3.543 -0.4409 -0.6330 -0.1147
 1934poe    c2310245   6.406   2.231   3.631  0.0699 -0.4169  0.4265
 1934poe    c2310246   6.412   2.094   3.562 -0.6231 -0.4192  0.3681
 1934poe     o210247   6.324   2.086   3.452 -0.5827  0.3547  0.2703
 1934poe    c3110248   6.314   1.962   3.386 -0.0177  0.8803 -0.8177
 1935poe    c3110249   4.414   1.943   4.551  0.2238 -0.3984 -0.1135
 1935poe     o210250   4.292   1.883   4.516 -0.1233 -0.0136  0.4287
 1935poe    c2310251   4.303   1.826   4.388  0.0456  0.8659  0.0514
 1935poe    c2310252   4.157   1.808   4.343  0.1008 -0.2552  0.2961
 1935poe     o210253   4.078   1.812   4.460  0.1435  0.7861  0.2954
 1935poe    c2310254   3.940   1.825   4.437  0.1331 -0.1605 -0.1895
 1935poe    c2310255   3.880   1.821   4.578  0.2819  0.1480 -0.1176
 1935poe     o210256   3.946   1.907   4.668  0.8570 -0.2476 -0.1548
 1935poe    c2310257   3.858   1.938   4.774  0.6349 -0.3180 -0.3183
 1935poe    c2310258   3.912   2.049   4.866  0.5525 -0.4390 -0.1236
 1935poe     o210259   4.032   2.010   4.930  0.3250 -0.2378  0.4382
 1935poe    c3110260   4.048   2.067   5.057 -0.5916 -0.0310  0.4692
 1936poe    c3110261   4.035   4.034   5.231 -0.3928  0.1138  1.1034
 1936poe     o210262   4.013   4.094   5.356  0.3541  0.5773  1.0186
 1936poe    c2310263   3.971   4.228   5.342  0.4811  0.4934 -0.3027
 1936poe    c2310264   3.995   4.296   5.479  0.1040  0.2778 -0.1305
 1936poe     o210265   3.943   4.201   5.569  0.0428  0.4167 -0.0193
 1936poe    c2310266   3.978   4.241   5.700 -0.0129  0.3323  0.0216
 1936poe    c2310267   3.910   4.148   5.802  0.2721 -0.1003 -0.1788
 1936poe     o210268   3.977   4.034   5.850 -0.3262 -0.3263  0.1263
 1936poe    c2310269   4.055   4.068   5.963  0.0882 -0.6550 -0.0613
 1936poe    c2310270   4.110   3.949   6.043  0.7491 -0.2641  0.0740
 1936poe     o210271   4.213   3.893   5.965  0.5145 -0.0227 -0.4105
 1936poe    c3110272   4.241   3.762   6.011  0.3258 -0.0056 -0.2458
 1937poe    c3110273   5.138   0.487   6.386 -0.3700 -0.6283  0.6475
 1937poe     o210274   5.037   0.583   6.366  0.2831  0.0517  0.5630
 1937poe    c2310275   5.072   0.681   6.270 -0.8694 -0.3681 -0.3117
 1937poe    c2310276   4.996   0.813   6.291 -0.1261 -0.0046  0.1118
 1937poe     o210277   4.856   0.811   6.273 -0.1273 -0.6649  0.1670
 1937poe    c2310278   4.794   0.915   6.345 -0.0632  0.1207 -0.8858
 1937poe    c2310279   4.641   0.906   6.343 -0.0562 -0.3411  0.0922
 1937poe     o210280   4.604   0.775   6.382  0.1310 -0.4360 -0.0463
 1937poe    c2310281   4.467   0.771   6.414  0.0353 -0.1704 -0.4058
 1937poe    c2310282   4.434   0.658   6.514 -0.3855  0.2819 -0.0288
 1937poe     o210283   4.497   0.544   6.459 -0.1144  0.2923  0.2606
 1937poe    c3110284   4.461   0.427   6.529 -0.0424  0.2108  0.1617
 1938poe    c3110285   0.674   2.080   6.710  0.3423  0.3584  0.3384
 1938poe     o210286   0.768   2.008   6.788 -0.1581 -0.2748  0.3617
 1938poe    c2310287   0.799   1.879   6.741 -0.0889 -0.1229 -0.0142
 1938poe    c2310288   0.917   1.809   6.811 -0.0122  0.0647  0.0448
 1938poe     o210289   0.896   1.779   6.947 -0.1767  0.4111  0.0970
 1938poe    c2310290   1.010   1.707   6.991 -0.1528  0.7199  0.5443
 1938poe    c2310291   0.987   1.655   7.135  0.1542 -0.5107  0.1581
 1938poe     o210292   0.910   1.537   7.131  0.3064 -0.6048  0.0048
 1938poe    c2310293   0.871   1.490   7.257  0.0948 -0.6021 -0.0593
 1938poe    c2310294   0.746   1.401   7.246 -0.4405  0.2100 -0.6038
 1938poe     o210295   0.771   1.271   7.197  0.2775  0.0703  0.1256
 1938poe    c3110296   0.655   1.193   7.211  0.1980  0.0140 -0.8296
 1939poe    c3110297   4.904   6.370   0.930  0.1549 -0.5421 -0.6049
 1939poe     o210298   4.832   6.284   1.016 -0.0007  0.3047  0.1259
 1939poe    c2310299   4.914   6.172   1.040 -0.7027 -0.2618 -0.0893
 1939poe    c2310300   4.853   6.080   1.147  0.1528  0.0351  0.6637
 1939poe     o210301   4.786   6.162   1.239 -0.2216 -0.0043  0.4281
 1939poe    c2310302   4.678   6.092   1.297 -0.1188 -0.0381  0.5798
 1939poe    c2310303   4.553   6.103   1.208  0.2183 -0.3463  0.0566
 1939poe     o210304   4.549   6.234   1.156  0.0558 -0.3327  0.1003
 1939poe    c2310305   4.476   6.254   1.037 -0.6688 -0.3199  0.5470
 1939poe    c2310306   4.474   6.407   1.019  0.2895 -0.4787 -0.9860
 1939poe     o210307   4.599   6.455   1.064 -0.0474 -0.4616 -0.0606
 1939poe    c3110308   4.601   6.593   1.033  0.2046 -0.5521 -0.4454
 1940poe    c3110309   0.971   6.746   5.186  0.6862  0.5299  0.1719
 1940poe     o210310   0.952   6.856   5.271 -0.3427 -0.0550  0.7228
 1940poe    c2310311   0.915   6.972   5.199 -0.0944 -0.1443  0.4467
 1940poe    c2310312   0.906   7.103   5.281  0.0821  0.4157 -0.4208
 1940poe     o210313   1.032   7.099   5.344 -0.3674 -0.4216  0.4614
 1940poe    c2310314   1.040   7.189   5.452 -0.1609 -0.5538  0.5576
 1940poe    c2310315   1.188   7.211   5.486 -0.1952 -0.3931  0.6033
 1940poe     o210316   1.245   7.082   5.486  0.0478 -0.2880 -0.2526
 1940poe    c2310317   1.372   7.082   5.547 -0.1527 -0.2606  0.1635
 1940poe    c2310318   1.448   6.949   5.539 -0.1689 -0.2449 -0.2699
 1940poe     o210319   1.386   6.845   5.612 -0.3820  0.0960  0.0373
 1940poe    c3110320   1.394   6.722   5.543  0.4572  0.4357 -0.4935
 1941poe    c3110321   0.420   6.759   0.160 -0.2458 -0.1630  0.1071
 1941poe     o210322   0.305   6.776   0.241 -0.0377  0.2600  0.3142
 1941poe    c2310323   0.222   6.666   0.211 -0.4312  0.6627 -0.0912
 1941poe    c2310324   0.092   6.680   0.292 -0.3874  0.4880  0.0076
 1941poe     o210325   0.127   6.667   0.428  0.3385  0.5161 -0.1731
 1941poe    c2310326   0.008   6.704   0.495  0.2223  0.3826 -0.3056
 1941poe    c2310327   0.023   6.732   0.646  0.2580  0.2835 -0.2910
 1941poe     o210328   0.095   6.850   0.671 -0.1158  0.4898 -0.1892
 1941poe    c2310329   0.082   6.884   0.808 -0.7109 -0.1979 -0.0694
 1941poe    c2310330   0.146   7.016   0.855 -0.2028 -0.4702  0.0142
 1941poe     o210331   0.285   7.022   0.836 -0.2133 -0.0340  0.0754
 1941poe    c3110332   0.341   7.151   0.850 -0.2189 -0.0194 -0.0373
 1942poe    c3110333   2.484   2.213   3.056 -0.5287 -0.4653 -0.6484
 1942poe     o210334   2.386   2.304   3.101  0.2798  0.0188  0.1660
 1942poe    c2310335   2.446   2.430   3.118  0.4842 -0.0798  0.1730
 1942poe    c2310336   2.450   2.484   3.262 -0.0097  0.3559  0.0262
 1942poe     o210337   2.556   2.431   3.338  0.2722  0.1045 -0.5351
 1942poe    c2310338   2.519   2.459   3.471  0.6577 -0.7885 -0.2292
 1942poe    c2310339   2.635   2.447   3.572  0.4210 -0.5801  0.0700
 1942poe     o210340   2.717   2.562   3.565 -0.2130 -0.1200  0.1227
 1942poe    c2310341   2.782   2.574   3.690  0.3682  0.0297 -0.1894
 1942poe    c2310342   2.793   2.722   3.732  0.0854 -0.0164  0.0552
 1942poe     o210343   2.895   2.796   3.669  0.1309  0.3565  0.5570
 1942poe    c3110344   3.030   2.763   3.696  0.1534 -0.3784 -0.3749
 1943poe    c3110345   0.482   3.848   1.927  0.4429 -0.1618 -0.1189
 1943poe     o210346   0.463   3.715   1.969 -0.7963  0.1162  0.2569
 1943poe    c2310347   0.421   3.697   2.102  0.1329  0.0895  0.5518
 1943poe    c2310348   0.399   3.547   2.127 -1.0257  0.1292 -0.1920
 1943poe     o210349   0.508   3.476   2.073 -0.8598  0.1249  0.1479
 1943poe    c2310350   0.509   3.338   2.101  0.0068  0.0907 -0.0120
 1943poe    c2310351   0.612   3.267   2.011  0.3595  0.7395 -0.1259
 1943poe     o210352   0.631   3.315   1.880  0.1655  0.1207 -0.3831
 1943poe    c2310353   0.707   3.223   1.805 -0.2981 -0.3925 -0.2260
 1943poe    c2310354   0.703   3.239   1.652  0.2853  0.0553 -0.1966
 1943poe     o210355   0.585   3.201   1.585  0.1611  0.0139  0.0441
 1943poe    c3110356   0.573   3.067   1.542  0.6214  0.0686 -0.2640
 1944poe    c3110357   4.302   0.163   6.839 -0.2626 -0.0711  0.0319
 1944poe     o210358   4.374   0.043   6.826 -0.0409  0.0070  0.5212
 1944poe    c2310359   4.464   0.015   6.932  0.3356  0.2827  0.2757
 1944poe    c2310360   4.542  -0.117   6.927 -0.4150 -0.1592  0.0246
 1944poe     o210361   4.608  -0.146   6.805  0.1725 -0.1648  0.3388
 1944poe    c2310362   4.699  -0.253   6.804 -0.1320 -0.4254  0.2411
 1944poe    c2310363   4.707  -0.312   6.662 -0.1169 -0.0498  0.0855
 1944poe     o210364   4.586  -0.376   6.626 -0.0516 -0.4791  0.6094
 1944poe    c2310365   4.603  -0.513   6.597 -0.2551 -0.3324 -0.2074
 1944poe    c2310366   4.598  -0.607   6.718 -0.5186 -0.3724 -0.2486
 1944poe     o210367   4.478  -0.592   6.791 -0.2480 -0.1707  0.1528
 1944poe    c3110368   4.490  -0.625   6.928  0.3504  0.4047  0.2469
 1945poe    c3110369   1.204   0.235   1.184 -0.0500  0.1815  0.2628
 1945poe     o210370   1.108   0.192   1.278  0.0719 -0.2674  0.1869
 1945poe    c2310371   1.181   0.183   1.399  0.6291  0.6226 -0.0691
 1945poe    c2310372   1.097   0.099   1.497  0.8526  0.7654  0.2459
 1945poe     o210373   0.972   0.154   1.532  0.1373 -0.4820 -0.2685
 1945poe    c2310374   0.918   0.093   1.646  0.0806 -0.1639 -0.1231
 1945poe    c2310375   0.765   0.115   1.648  0.0276 -0.5420  0.2061
 1945poe     o210376   0.731   0.251   1.636  0.4263 -0.4824 -0.3111
 1945poe    c2310377   0.591   0.257   1.618  0.4742 -0.0772 -0.5565
 1945poe    c2310378   0.565   0.407   1.597 -0.2059 -0.0947  0.1289
 1945poe     o210379   0.666   0.467   1.519  0.4843 -0.2052  0.9255
 1945poe    c3110380   0.629   0.595   1.474 -0.6311 -0.6603  0.5091
 1946poe    c3110381   5.596   3.062   4.916  0.3343  0.0800 -1.1086
 1946poe     o210382   5.690   3.142   4.847  0.1505  0.0893 -1.3473
 1946poe    c2310383   5.702   3.278   4.882  0.4693 -0.3676  0.3959
 1946poe    c2310384   5.580   3.364   4.920  0.6608  0.0330  0.1085
 1946poe     o210385   5.588   3.498   4.877 -0.3938  0.2998  0.7019
 1946poe    c2310386   5.463   3.560   4.900 -0.7429  0.0219 -0.3453
 1946poe    c2310387   5.468   3.712   4.925  0.0190 -0.0063 -0.2925
 1946poe     o210388   5.505   3.771   4.802  0.0408  0.3573 -0.1123
 1946poe    c2310389   5.456   3.903   4.785 -0.2039  0.2447 -0.2962
 1946poe    c2310390   5.521   3.990   4.676  0.4018  0.3449  0.1384
 1946poe     o210391   5.451   3.969   4.556 -0.1693 -0.2752  0.5710
 1946poe    c3110392   5.490   3.856   4.481  0.5020 -0.1554  0.7321
 1947poe    c3110393   3.377   4.846   0.016  0.1960 -0.5207  0.4318
 1947poe     o210394   3.286   4.791   0.109 -0.4705  0.1089  0.1621
 1947poe    c2310395   3.291   4.650   0.111  0.4338  0.1176 -0.3764
 1947poe    c2310396   3.184   4.565   0.184  0.4305  0.4401 -0.0041
 1947poe     o210397   3.178   4.600   0.321 -0.3068 -0.2161  0.1326
 1947poe    c2310398   3.064   4.546   0.386 -0.4912  0.2420  0.1935
 1947poe    c2310399   3.090   4.509   0.533 -0.0786  0.9140  0.2929
 1947poe     o210400   3.170   4.394   0.549 -0.4606  0.5822 -0.1769
 1947poe    c2310401   3.115   4.281   0.484  0.3524  0.1240 -0.0750
 1947poe    c2310402   3.041   4.187   0.580 -0.2293  0.6249 -0.0307
 1947poe     o210403   2.909   4.238   0.590 -0.4444  0.0610  0.0327
 1947poe    c3110404   2.825   4.152   0.664 -0.1573  0.0160  0.3150
 1948poe    c3110405   4.142   6.186   0.771 -0.4965  0.7497 -0.1228
 1948poe     o210406   4.047   6.107   0.703 -0.4829  0.4776  0.1780
 1948poe    c2310407   4.077   5.971   0.677 -0.4687  0.5058  0.0465
 1948poe    c2310408   4.004   5.914   0.554 -0.2508 -0.0349  0.1662
 1948poe     o210409   3.993   5.995   0.439 -0.0651 -0.3323 -0.0642
 1948poe    c2310410   3.887   5.937   0.367 -0.0345 -0.4622 -0.0044
 1948poe    c2310411   3.768   6.032   0.349  0.3210 -0.0028  0.0611
 1948poe     o210412   3.702   6.083   0.463  0.0720 -0.1911  0.0009
 1948poe    c2310413   3.574   6.140   0.447  0.1123  0.0405  0.4812
 1948poe    c2310414   3.448   6.072   0.505  0.2791 -0.7484 -0.0731
 1948poe     o210415   3.481   6.040   0.638 -0.0240  0.0902  0.2072
 1948poe    c3110416   3.386   5.954   0.695 -0.3608  0.1370 -0.2776
 1949poe    c3110417   1.915   6.690   2.542  0.1599 -0.3471 -0.8199
 1949poe     o210418   1.820   6.659   2.443 -0.2714  0.4399 -0.6543
 1949poe    c2310419   1.693   6.624   2.494  0.0578 -0.4976 -0.4589
 1949poe    c2310420   1.597   6.609   2.374 -0.2838 -0.1590 -0.2302
 1949poe     o210421   1.533   6.730   2.338 -0.6617 -0.1817  0.3506
 1949poe    c2310422   1.475   6.713   2.211 -0.2394  0.2318  0.1018
 1949poe    c2310423   1.412   6.846   2.166 -0.1550  0.1139 -0.3744
 1949poe     o210424   1.308   6.888   2.252  0.2547 -0.0423  0.2037
 1949poe    c2310425   1.268   7.013   2.200 -0.6009 -0.4389 -0.1231
 1949poe    c2310426   1.175   7.083   2.301 -0.4359  0.0306 -0.2915
 1949poe     o210427   1.252   7.120   2.413  0.0124  0.0799 -0.6171
 1949poe    c3110428   1.175   7.211   2.487 -0.0267 -0.5787  0.1634
 1950poe    c3110429   5.624   3.170   1.655  0.6634 -0.3835 -0.0791
 1950poe     o210430   5.702   3.183   1.538  0.5053  0.1808 -0.1287
 1950poe    c2310431   5.674   3.310   1.486 -0.2822 -0.1193 -0.4565
 1950poe    c2310432   5.766   3.332   1.364 -0.2109  0.1870 -0.3495
 1950poe     o210433   5.735   3.224   1.278  0.3691 -0.2156 -0.0606
 1950poe    c2310434   5.799   3.247   1.155  0.0865 -0.4182 -0.2464
 1950poe    c2310435   5.772   3.125   1.064 -0.0427 -0.3483 -0.3010
 1950poe     o210436   5.853   3.020   1.112  0.2031 -0.0589 -0.0691
 1950poe    c2310437   5.820   2.898   1.048 -0.3016  0.0512 -0.0264
 1950poe    c2310438   5.928   2.794   1.086 -0.6104 -0.3168 -0.1552
 1950poe     o210439   5.932   2.785   1.227  0.2653  0.6344 -0.1094
 1950poe    c3110440   5.990   2.667   1.277 -0.0364  0.5306 -0.0029
 1951poe    c3110441   1.821   5.989   1.995 -0.2706 -0.2368 -0.0616
 1951poe     o210442   1.764   6.064   1.890  0.1956  0.2427  0.0273
 1951poe    c2310443   1.667   5.991   1.819  0.1451  0.1702  0.1704
 1951poe    c2310444   1.566   6.086   1.750 -0.0816 -0.2455 -0.0771
 1951poe     o210445   1.645   6.144   1.648  0.1502  0.4013  0.4571
 1951poe    c2310446   1.574   6.199   1.540 -0.4962 -0.1118  0.6081
 1951poe    c2310447   1.648   6.176   1.407 -0.0245  0.1095  0.8291
 1951poe     o210448   1.780   6.220   1.387 -0.0617 -0.0899  0.0829
 1951poe    c2310449   1.830   6.173   1.264 -0.1073  0.6208 -0.2110
 1951poe    c2310450   1.966   6.244   1.254  0.0633  0.2586 -0.4784
 1951poe     o210451   2.022   6.250   1.383  0.0783 -0.1389 -0.4643
 1951poe    c3110452   2.160   6.280   1.392  0.0816 -0.2546 -0.0835
 1952poe    c3110453   6.982   4.255   6.209  0.5929 -0.0954  0.2280
 1952poe     o210454   7.054   4.287   6.092 -0.3507 -0.2894 -0.4172
 1952poe    c2310455   6.972   4.341   5.991 -0.3277  0.2025 -0.1779
 1952poe    c2310456   7.005   4.275   5.856 -0.1090 -0.2786  0.1074
 1952poe     o210457   7.001   4.135   5.846 -0.4733 -0.2571 -0.0626
 1952poe    c2310458   7.125   4.069   5.861 -0.3810 -0.1372 -0.2972
 1952poe    c2310459   7.119   3.916   5.879  0.6527 -0.1777 -0.2312
 1952poe     o210460   7.090   3.829   5.771 -0.2321 -0.2558  0.0615
 1952poe    c2310461   7.142   3.700   5.798  0.0270 -0.1346  0.1476
 1952poe    c2310462   7.098   3.608   5.683  0.1638  0.3262 -0.2748
 1952poe     o210463   6.959   3.614   5.662  0.0478 -0.0110  0.4034
 1952poe    c3110464   6.886   3.517   5.734 -0.0698 -0.0287  0.2607
 1953poe    c3110465   3.591   4.336   2.257  0.3037  0.1387  0.1806
 1953poe     o210466   3.571   4.463   2.198 -0.0800  0.0065  0.0222
 1953poe    c2310467   3.658   4.484   2.088  0.1397 -0.2358  0.1477
 1953poe    c2310468   3.635   4.412   1.954 -0.1687 -0.1361  0.1449
 1953poe     o210469   3.522   4.477   1.902 -0.0772  0.0558  0.1868
 1953poe    c2310470   3.482   4.391   1.798  0.2787  0.3473 -0.1974
 1953poe    c2310471   3.344   4.437   1.747  0.0465 -0.1323 -0.0179
 1953poe     o210472   3.347   4.574   1.711  0.3480  0.0092  0.5381
 1953poe    c2310473   3.213   4.608   1.682  0.3979  0.1651  0.4899
 1953poe    c2310474   3.191   4.755   1.643 -0.4143 -0.0005  0.3230
 1953poe     o210475   3.208   4.827   1.762  0.5766  0.2155  0.0582
 1953poe    c3110476   3.173   4.964   1.769 -0.0905  0.0555 -0.0295
 1954poe    c3110477   0.602   5.870   5.074  0.2744 -0.5498  0.5605
 1954poe     o210478   0.711   5.945   5.026 -0.3243  0.3700  0.6043
 1954poe    c2310479   0.671   6.050   4.942 -0.0637 -0.1340 -0.1545
 1954poe    c2310480   0.788   6.149   4.926 -0.3372  0.1544 -0.3935
 1954poe     o210481   0.908   6.080   4.900 -0.3087 -0.0615  0.3009
 1954poe    c2310482   1.012   6.164   4.856 -0.0314 -0.4251  0.2512
 1954poe    c2310483   1.144   6.095   4.819 -0.1141 -0.6541  0.3844
 1954poe     o210484   1.135   5.984   4.732 -0.0027 -0.2635 -0.1317
 1954poe    c2310485   1.259   5.918   4.721  0.2959  0.0598  1.0831
 1954poe    c2310486   1.228   5.770   4.692 -0.1510  0.2531  0.5489
 1954poe     o210487   1.128   5.753   4.594  0.6086 -0.4612 -0.1106
 1954poe    c3110488   1.058   5.631   4.600 -0.5011  0.1536 -0.2873
 1955poe    c3110489   3.789   6.694   2.504  0.1118  0.4994  0.0701
 1955poe     o210490   3.684   6.786   2.482 -0.0386  0.3380  0.1142
 1955poe    c2310491   3.558   6.728   2.506 -0.0592  0.1790 -0.3859
 1955poe    c2310492   3.459   6.843   2.535  0.0283  0.0552  0.4118
 1955poe     o210493   3.469   6.939   2.433 -0.2592 -0.5534 -0.1998
 1955poe    c2310494   3.379   7.047   2.421 -0.0782 -0.3545  0.2143
 1955poe    c2310495   3.433   7.126   2.300 -0.4689 -0.1084  0.1962
 1955poe     o210496   3.573   7.139   2.304 -0.4252 -0.4767 -0.0308
 1955poe    c2310497   3.606   7.256   2.233 -0.3917 -0.4147  0.0857
 1955poe    c2310498   3.747   7.240   2.174 -0.4747  0.3634 -0.3528
 1955poe     o210499   3.750   7.133   2.082  0.0834  0.0246  0.0494
 1955poe    c3110500   3.800   7.166   1.954 -0.4791  0.9396  0.0587
 1956poe    c3110501   5.239   6.998   5.636 -0.1291 -0.3162 -0.4610
 1956poe     o210502   5.290   7.123   5.674 -0.1606 -0.4588  0.0575
 1956poe    c2310503   5.419   7.124   5.732 -0.2350  0.3809  0.2164
 1956poe    c2310504   5.450   7.274   5.712  0.5443  0.2905  0.7050
 1956poe     o210505   5.334   7.346   5.748  0.2340 -0.0120  0.3136
 1956poe    c2310506   5.371   7.482   5.753 -0.6614  0.2727 -0.4538
 1956poe    c2310507   5.265   7.551   5.840 -0.6278  0.0037 -0.1953
 1956poe     o210508   5.144   7.501   5.787 -0.5491 -0.2199 -0.1631
 1956poe    c2310509   5.048   7.563   5.870 -0.4093  0.5053 -0.5340
 1956poe    c2310510   4.910   7.495   5.877 -0.0405 -0.1938  0.0725
 1956poe     o210511   4.910   7.371   5.944 -0.1078  0.0012  0.4394
 1956poe    c3110512   4.782   7.311   5.951 -0.1189 -0.0534 -0.1478
 1957poe    c3110513   3.313   2.738   4.069  0.7557  0.0448 -0.1411
 1957poe     o210514   3.419   2.829   4.082  0.4614  0.3195  0.3856
 1957poe    c2310515   3.431   2.894   3.957  0.1705 -0.1146  0.1298
 1957poe    c2310516   3.562   2.974   3.943  0.3110 -0.3828 -0.1028
 1957poe     o210517   3.561   3.069   4.048  0.0998 -1.0308  0.4874
 1957poe    c2310518   3.691   3.123   4.059 -0.3817  0.2653 -0.0729
 1957poe    c2310519   3.701   3.214   4.183  0.1974  0.0488  0.0414
 1957poe     o210520   3.660   3.144   4.298 -0.4680  0.2091 -0.0944
 1957poe    c2310521   3.698   3.204   4.420  0.5352 -0.1507 -0.2207
 1957poe    c2310522   3.664   3.114   4.540  0.4935  0.2142  0.0431
 1957poe     o210523   3.526   3.088   4.561  0.4421  0.1495 -0.3723
 1957poe    c3110524   3.514   3.059   4.698 -0.2976 -0.2316 -0.5147
 1958poe    c3110525   1.261   0.641   4.649  0.3885  0.1382  0.1166
 1958poe     o210526   1.182   0.592   4.542  0.0462  0.0748  0.3935
 1958poe    c2310527   1.161   0.700   4.453 -0.9755 -0.1183  0.3917
 1958poe    c2310528   1.147   0.656   4.306 -0.3640 -0.0482  0.3105
 1958poe     o210529   1.072   0.537   4.320 -0.3527 -0.1045 -0.0931
 1958poe    c2310530   1.073   0.474   4.194  0.4574 -0.3025  0.0017
 1958poe    c2310531   1.007   0.335   4.179 -0.5687  0.1541  0.1904
 1958poe     o210532   1.078   0.234   4.246  0.1090  0.5237  0.0420
 1958poe    c2310533   1.050   0.104   4.198  0.3228  0.4069  0.2321
 1958poe    c2310534   1.134  -0.014   4.250  0.6066  0.7442  0.5468
 1958poe     o210535   1.116  -0.033   4.389 -0.4528  0.2418  0.3558
 1958poe    c3110536   1.207  -0.130   4.435 -0.0595  0.1163 -0.6466
 1959poe    c3110537   1.246   4.233   0.821 -0.2342 -0.1548  0.1351
 1959poe     o210538   1.131   4.236   0.739  0.0879 -0.5151 -0.3261
 1959poe    c2310539   1.149   4.212   0.601 -0.3244 -1.0928 -0.2859
 1959poe    c2310540   1.021   4.207   0.516 -0.1488 -0.3464 -0.6090
 1959poe     o210541   0.941   4.309   0.571  0.5569 -0.0346 -0.1516
 1959poe    c2310542   0.824   4.331   0.495  0.3814  0.3316  0.2151
 1959poe    c2310543   0.736   4.450   0.535 -0.2557  0.0332 -0.2859
 1959poe     o210544   0.750   4.458   0.675 -0.4103  0.2933 -0.2852
 1959poe    c2310545   0.796   4.589   0.699 -0.1206  0.1141  0.1448
 1959poe    c2310546   0.894   4.569   0.817  0.3174  0.4048 -0.1651
 1959poe     o210547   0.996   4.482   0.776 -0.1968 -0.1548 -0.2792
 1959poe    c3110548   1.107   4.569   0.770 -0.4511  0.1821 -0.0940
 1960poe    c3110549   1.945   0.786   1.323 -0.1831  0.0516  0.1652
 1960poe     o210550   2.043   0.693   1.362 -0.0528  0.0376 -0.1927
 1960poe    c2310551   2.042   0.577   1.282 -0.0228  0.0297 -0.1816
 1960poe    c2310552   2.182   0.514   1.294  0.2307  0.6605  0.2316
 1960poe     o210553   2.211   0.494   1.431  0.5862  0.1697  0.0857
 1960poe    c2310554   2.298   0.383   1.441 -0.2747 -0.5465 -0.2382
 1960poe    c2310555   2.381   0.398   1.570 -0.0284 -0.0662 -0.4506
 1960poe     o210556   2.441   0.522   1.599  0.2450 -0.3726  0.3201
 1960poe    c2310557   2.567   0.523   1.535 -0.0626  0.0854 -0.2862
 1960poe    c2310558   2.637   0.659   1.539 -0.1294  0.1212 -0.3269
 1960poe     o210559   2.663   0.682   1.676 -0.2926 -0.5315 -0.1845
 1960poe    c3110560   2.751   0.792   1.676 -0.6765 -0.2219 -0.4104
 1961poe    c3110561   0.675   4.464   4.723  0.5371  0.2877 -0.4443
 1961poe     o210562   0.690   4.328   4.758  0.1691  0.3679  0.0421
 1961poe    c2310563   0.614   4.268   4.861  0.1346 -0.3659 -0.4042
 1961poe    c2310564   0.670   4.139   4.921  0.1118 -0.2771 -0.1919
 1961poe     o210565   0.650   4.030   4.834 -0.1853 -0.2498 -0.1576
 1961poe    c2310566   0.716   3.927   4.903 -0.1568 -0.0874  0.0589
 1961poe    c2310567   0.684   3.799   4.822 -0.4315  0.1871 -0.2720
 1961poe     o210568   0.726   3.821   4.689  0.0675 -0.6972 -0.2672
 1961poe    c2310569   0.783   3.707   4.629  0.5696 -0.4396 -0.2846
 1961poe    c2310570   0.761   3.712   4.476 -0.6309  0.2604 -0.1081
 1961poe     o210571   0.774   3.847   4.440  0.2669  0.2708  0.2243
 1961poe    c3110572   0.761   3.874   4.302 -0.2079 -0.1174  0.1885
 1962poe    c3110573   4.536   3.807   1.044  0.3058 -0.4133  0.5624
 1962poe     o210574   4.524   3.797   1.185  0.1182 -0.4520  0.5441
 1962poe    c2310575   4.621   3.704   1.226  0.5061 -0.1075  0.4193
 1962poe    c2310576   4.631   3.712   1.380 -1.1416  0.4232  0.5147
 1962poe     o210577   4.705   3.827   1.413  0.0501 -0.1418 -0.1359
 1962poe    c2310578   4.764   3.835   1.540 -0.3721  0.0161  0.0500
 1962poe    c2310579   4.853   3.959   1.520 -0.3973  0.0759  0.2953
 1962poe     o210580   4.777   4.064   1.464 -0.2127  0.2265  0.3252
 1962poe    c2310581   4.833   4.192   1.484  0.1429  0.2255 -0.6392
 1962poe    c2310582   4.748   4.314   1.444  0.2273  0.5485  0.1550
 1962poe     o210583   4.734   4.319   1.304  0.2760  0.1908  0.1352
 1962poe    c3110584   4.661   4.426   1.249 -0.4758  0.2458  1.2127
 1963poe    c3110585   4.461   6.101   6.167 -0.0203  0.4925 -0.1459
 1963poe     o210586   4.338   6.057   6.113 -0.1686  0.5683  0.1278
 1963poe    c2310587   4.342   6.038   5.973 -0.0163 -0.7432  0.3001
 1963poe    c2310588   4.200   6.008   5.921  0.0708 -0.1608 -0.2784
 1963poe     o210589   4.167   5.878   5.964  0.6025 -0.0511  0.4870
 1963poe    c2310590   4.037   5.835   5.930  0.4357  0.4748  0.4617
 1963poe    c2310591   3.986   5.709   6.002 -0.2331  0.4105 -0.1161
 1963poe     o210592   3.993   5.724   6.142  0.1917  0.2364 -0.1165
 1963poe    c2310593   3.917   5.621   6.202  0.0606  0.5852  0.3249
 1963poe    c2310594   3.903   5.615   6.355 -0.2711 -0.5850  0.2610
 1963poe     o210595   3.811   5.532   6.421 -0.6447 -0.2542  0.1584
 1963poe    c3110596   3.831   5.393   6.426  0.6569 -0.1062 -0.6308
 1964poe    c3110597   4.974   4.452   5.280  0.2213 -0.3004  0.1931
 1964poe     o210598   4.835   4.466   5.304  0.2068  0.5460 -0.3411
 1964poe    c2310599   4.809   4.400   5.426 -0.1631  0.9212 -0.2151
 1964poe    c2310600   4.665   4.413   5.478 -0.1768 -0.5379  0.1479
 1964poe     o210601   4.668   4.362   5.609 -0.3833 -0.9202  0.0077
 1964poe    c2310602   4.556   4.411   5.681 -0.1309  0.1116 -0.2750
 1964poe    c2310603   4.552   4.390   5.834  0.1212 -0.4015 -0.3352
 1964poe     o210604   4.526   4.258   5.876 -0.0355 -0.3982 -0.4205
 1964poe    c2310605   4.465   4.268   6.003  0.1930  0.0605 -0.3477
 1964poe    c2310606   4.450   4.131   6.071 -0.1142  0.2928  0.0596
 1964poe     o210607   4.567   4.078   6.130  0.0566  0.1088 -0.4357
 1964poe    c3110608   4.576   3.941   6.099  0.0712 -0.0178  0.1334
 1965poe    c3110609   3.039   3.965   5.549 -0.3877 -0.3515 -0.1152
 1965poe     o210610   3.045   3.870   5.445 -0.2099 -0.3807 -0.0800
 1965poe    c2310611   2.971   3.910   5.332 -0.0423  0.2144  0.0196
 1965poe    c2310612   2.819   3.885   5.338  0.0359 -0.1693  0.5013
 1965poe     o210613   2.795   3.747   5.341  0.0572 -0.1896 -0.1152
 1965poe    c2310614   2.658   3.713   5.331 -0.0563  0.0262  0.6500
 1965poe    c2310615   2.654   3.607   5.220 -0.2886  0.0070  0.6765
 1965poe     o210616   2.748   3.503   5.240 -0.1596 -0.0221 -0.0425
 1965poe    c2310617   2.729   3.386   5.165 -0.4986 -0.1498  0.2399
 1965poe    c2310618   2.850   3.298   5.202 -0.1304  0.2408 -0.0362
 1965poe     o210619   2.952   3.393   5.226 -0.0728  0.1140  0.2246
 1965poe    c3110620   3.077   3.328   5.224  0.1062  0.4582  0.0562
 1966poe    c3110621   2.580   0.625   6.340  0.3137 -0.1217 -0.0625
 1966poe     o210622   2.619   0.533   6.241 -0.5844 -0.5520 -0.0283
 1966poe    c2310623   2.527   0.433   6.203 -0.6899 -0.4273 -0.1009
 1966poe    c2310624   2.543   0.401   6.054 -0.3725  0.2530 -0.2166
 1966poe     o210625   2.676   0.421   6.013 -0.4075  0.0326 -0.4428
 1966poe    c2310626   2.697   0.346   5.895  0.3080  0.3650 -0.5374
 1966poe    c2310627   2.832   0.375   5.829  0.6404 -0.1924 -0.1085
 1966poe     o210628   2.847   0.512   5.802  0.6050 -0.1364  0.1565
 1966poe    c2310629   2.984   0.546   5.805  0.5056  0.2792  0.0078
 1966poe    c2310630   2.994   0.699   5.827 -0.5611  0.3544  0.0212
 1966poe     o210631   2.972   0.728   5.963 -0.1251  0.5184  0.0568
 1966poe    c3110632   3.067   0.816   6.020 -0.1879  0.2293  0.6160
 1967poe    c3110633   4.761   0.351   2.291  0.6243 -0.5361  0.2222
 1967poe     o210634   4.731   0.275   2.406 -0.0504 -0.2263  0.2506
 1967poe    c2310635   4.698   0.139   2.390  0.1739 -0.2490 -0.0188
 1967poe    c2310636   4.651   0.083   2.526 -0.4348  0.3381  0.0170
 1967poe     o210637   4.526   0.134   2.566 -0.2551  0.5696  0.2833
 1967poe    c2310638   4.486   0.074   2.687 -0.0080  0.0599  0.1140
 1967poe    c2310639   4.356   0.136   2.742 -0.0247 -0.1397  0.3040
 1967poe     o210640   4.393   0.270   2.718 -0.4494 -0.1653 -0.5364
 1967poe    c2310641   4.310   0.367   2.780  0.5649  0.2935  0.1333
 1967poe    c2310642   4.364   0.506   2.744  0.4706  0.2261 -0.2733
 1967poe     o210643   4.396   0.503   2.607 -0.4988 -0.7589 -0.4910
 1967poe    c3110644   4.415   0.632   2.553  0.3338 -0.4436  0.5336
 1968poe    c3110645   3.394   3.676   6.406 -0.2934  0.0972 -0.3299
 1968poe     o210646   3.317   3.560   6.427  0.0812 -0.0966 -0.0164
 1968poe    c2310647   3.184   3.594   6.395  0.0497  0.1164  0.3354
 1968poe    c2310648   3.095   3.478   6.444 -0.3934  0.1193 -0.4436
 1968poe     o210649   3.115   3.444   6.579 -0.0940  0.2367 -0.4583
 1968poe    c2310650   3.070   3.314   6.609 -0.1221  0.3133 -0.1576
 1968poe    c2310651   3.130   3.246   6.733 -0.2455  0.2744 -0.1193
 1968poe     o210652   3.271   3.249   6.740 -0.2304 -0.4947  0.0186
 1968poe    c2310653   3.323   3.203   6.863  0.3219  0.0012 -0.0258
 1968poe    c2310654   3.475   3.187   6.848  0.3528  0.0750  0.2118
 1968poe     o210655   3.519   3.082   6.765 -0.1647  0.0535 -0.0393
 1968poe    c3110656   3.509   2.961   6.837  0.0415 -0.0686 -0.2151
 1969poe    c3110657   2.194   2.679   4.614  0.1765 -0.0410  0.1976
 1969poe     o210658   2.247   2.797   4.558 -0.0769  0.3545  0.7838
 1969poe    c2310659   2.153   2.857   4.472  0.0543 -0.4228  0.0922
 1969poe    c2310660   2.240   2.969   4.411 -0.6083 -0.0471 -0.1780
 1969poe     o210661   2.318   3.026   4.514  0.0124 -0.1934 -0.5603
 1969poe    c2310662   2.393   3.140   4.479  0.3474 -0.2808 -0.1463
 1969poe    c2310663   2.473   3.196   4.598 -0.0695 -0.1264  0.0636
 1969poe     o210664   2.523   3.080   4.661 -0.2812 -0.1708  0.1507
 1969poe    c2310665   2.646   3.102   4.725 -0.0504  0.0430 -0.3610
 1969poe    c2310666   2.710   2.974   4.784  0.2396  0.1524 -0.4345
 1969poe     o210667   2.721   2.872   4.688 -0.4975 -0.2720 -0.0801
 1969poe    c3110668   2.817   2.774   4.725 -0.4778 -0.4249 -0.5262
 1970poe    c3110669   3.708   1.511   0.768 -0.6727 -0.0009 -0.1444
 1970poe     o210670   3.728   1.641   0.819  0.1452 -0.2372  0.1608
 1970poe    c2310671   3.635   1.664   0.923 -0.0527  0.0540 -0.0828
 1970poe    c2310672   3.711   1.775   0.998 -0.4257  0.4506 -0.2830
 1970poe     o210673   3.757   1.868   0.902 -0.0869  0.0339 -0.5289
 1970poe    c2310674   3.797   1.984   0.970 -0.8779  0.1974 -0.3332
 1970poe    c2310675   3.852   2.089   0.872  0.1711  0.3970  0.4452
 1970poe     o210676   3.963   2.031   0.806 -0.6145 -0.4065 -0.1950
 1970poe    c2310677   4.037   2.123   0.730 -0.3375 -0.4402  0.0331
 1970poe    c2310678   4.141   2.031   0.662  0.2343  0.0985  0.1761
 1970poe     o210679   4.082   1.932   0.582  0.0759  0.4057 -0.0895
 1970poe    c3110680   4.169   1.860   0.497  0.5704  0.5299  0.3079
 1971poe    c3110681   0.071   6.733   5.466  0.2461 -0.0335 -0.3395
 1971poe     o210682   0.074   6.690   5.600 -0.5105  0.0801 -0.2819
 1971poe    c2310683  -0.034   6.748   5.669 -0.6074 -0.5402  0.0995
 1971poe    c2310684   0.003   6.773   5.816  0.3102 -0.6402 -0.1120
 1971poe     o210685   0.035   6.653   5.883 -0.0760 -0.5856  0.1710
 1971poe    c2310686   0.020   6.677   6.021  1.0899  0.1950  0.1803
 1971poe    c2310687   0.064   6.562   6.114  0.2519 -0.1099  0.2065
 1971poe     o210688   0.185   6.500   6.077  0.5958  0.8619 -0.3410
 1971poe    c2310689   0.167   6.364   6.045  0.4175  0.7079  0.3906
 1971poe    c2310690   0.293   6.291   5.994 -0.1730  0.1293 -0.2749
 1971poe     o210691   0.347   6.361   5.885 -0.1484  0.1043 -0.2783
 1971poe    c3110692   0.451   6.290   5.821 -0.1100  0.2686 -0.4011
 1972poe    c3110693   1.357   1.653   2.844 -0.0671 -0.4751 -0.1857
 1972poe     o210694   1.305   1.596   2.961  0.2598 -0.0136  0.1881
 1972poe    c2310695   1.275   1.459   2.944 -0.0447  0.0683  0.0556
 1972poe    c2310696   1.127   1.426   2.916  0.1729 -0.4739 -0.4981
 1972poe     o210697   1.092   1.291   2.934  0.6107 -0.5004  0.2234
 1972poe    c2310698   0.961   1.275   2.983  0.3378  0.0564 -0.3115
 1972poe    c2310699   0.931   1.129   3.022  0.5318  0.0402 -0.2221
 1972poe     o210700   1.011   1.100   3.134  0.4493  0.2609 -0.1047
 1972poe    c2310701   0.999   0.965   3.174 -0.0664  0.3245 -0.0445
 1972poe    c2310702   1.102   0.949   3.287 -0.6371  0.0015  0.4412
 1972poe     o210703   1.231   1.004   3.270 -0.3877 -0.6758  0.1133
 1972poe    c3110704   1.344   0.930   3.313  0.4040  0.2603 -0.3093
 1973poe    c3110705   3.775   4.618   5.483  0.2912  0.3030  0.0164
 1973poe     o210706   3.666   4.701   5.450 -0.0422 -0.0949  0.1086
 1973poe    c2310707   3.699   4.828   5.399 -0.3479 -0.0298  0.0695
 1973poe    c2310708   3.726   4.802   5.249  0.2558 -0.1877  0.2019
 1973poe     o210709   3.619   4.742   5.180  0.2595  0.1957 -0.1445
 1973poe    c2310710   3.638   4.744   5.040  0.2351  0.9520 -0.1393
 1973poe    c2310711   3.553   4.636   4.970  0.4005  0.4445  0.4294
 1973poe     o210712   3.426   4.639   5.031  0.2073 -0.8307  0.1086
 1973poe    c2310713   3.323   4.569   4.965  0.2160 -0.1083 -0.6859
 1973poe    c2310714   3.190   4.626   5.019  0.4066 -0.1182 -0.1933
 1973poe     o210715   3.202   4.610   5.158  0.3650  0.0037 -0.1761
 1973poe    c3110716   3.125   4.710   5.220  0.5789  0.1414 -0.1314
 1974poe    c3110717   0.787   3.850   3.890  0.0837 -0.4925  0.1381
 1974poe     o210718   0.689   3.807   3.798 -0.1967  0.5423 -0.0622
 1974poe    c2310719   0.638   3.688   3.855 -0.0803  0.2586 -0.5451
 1974poe    c2310720   0.572   3.603   3.745 -0.4050  0.2652 -0.3589
 1974poe     o210721   0.498   3.678   3.651 -0.4570  0.3573 -0.2434
 1974poe    c2310722   0.487   3.614   3.526 -0.4363 -0.0567 -0.0350
 1974poe    c2310723   0.409   3.700   3.424 -0.4480 -0.3066 -0.2370
 1974poe     o210724   0.482   3.820   3.411 -0.1360 -0.5191 -0.4670
 1974poe    c2310725   0.440   3.911   3.312 -0.3468 -0.1953 -0.0815
 1974poe    c2310726   0.554   3.918   3.209  0.0076  0.3511  0.3460
 1974poe     o210727   0.669   3.955   3.282  0.0882  0.0874  0.3504
 1974poe    c3110728   0.789   3.944   3.207 -0.1139  0.2135  0.0054
 1975poe    c3110729   2.118   4.048   5.734 -0.5023 -0.3155  0.0505
 1975poe     o210730   2.155   3.954   5.635  0.6727 -0.1527  0.3186
 1975poe    c2310731   2.050   3.861   5.625  0.4592  0.0909  0.2836
 1975poe    c2310732   2.084   3.735   5.544 -0.2863  0.0061  0.0906
 1975poe     o210733   2.214   3.689   5.574 -0.4445 -0.0571  0.6892
 1975poe    c2310734   2.243   3.602   5.467  0.5881  0.9855  0.0970
 1975poe    c2310735   2.340   3.488   5.505 -0.0915  0.1250 -0.6755
 1975poe     o210736   2.467   3.544   5.531 -0.2027 -0.0758  0.3517
 1975poe    c2310737   2.547   3.467   5.618 -0.6311  0.1146  0.9235
 1975poe    c2310738   2.676   3.543   5.656 -0.1568  0.1504 -0.6833
 1975poe     o210739   2.638   3.664   5.719 -0.0638 -0.2416  0.1284
 1975poe    c3110740   2.764   3.709   5.762  0.1864 -0.6956 -0.1231
 1976poe    c3110741   3.512   0.007   6.885 -0.0707  0.4378 -0.2068
 1976poe     o210742   3.382   0.046   6.850 -0.3530 -0.8928 -0.6900
 1976poe    c2310743   3.352  -0.000   6.720  0.3333 -0.9511 -0.8288
 1976poe    c2310744   3.239   0.083   6.656  0.4698  0.2422  0.4381
 1976poe     o210745   3.114   0.050   6.711  0.3066  0.1938  0.0386
 1976poe    c2310746   3.003   0.120   6.660  0.0948 -0.1774 -0.0189
 1976poe    c2310747   2.877   0.091   6.744  0.3250 -0.5019  0.2152
 1976poe     o210748   2.865   0.154   6.869  0.4037  0.0630 -0.0570
 1976poe    c2310749   2.937   0.101   6.978  0.2383  0.2647  0.1529
 1976poe    c2310750   2.854  -0.003   7.055  0.4962 -0.3408 -0.3719
 1976poe     o210751   2.752   0.049   7.138  0.3858 -0.4185 -0.4602
 1976poe    c3110752   2.639   0.052   7.053  0.0124  0.1215  0.0561
 1977poe    c3110753   1.261   0.668   0.906  0.4136  0.7596  0.3190
 1977poe     o210754   1.140   0.717   0.960 -0.0481  0.3868 -0.3607
 1977poe    c2310755   1.031   0.634   0.929  0.3952 -0.1226 -0.5759
 1977poe    c2310756   0.904   0.717   0.900  0.2936  0.0399  0.3136
 1977poe     o210757   0.862   0.774   1.022  0.0815  0.6778 -0.0531
 1977poe    c2310758   0.767   0.877   1.007  0.0142  0.5845 -0.2692
 1977poe    c2310759   0.687   0.889   1.138 -0.1715  0.1665 -0.3419
 1977poe     o210760   0.781   0.884   1.243  0.3790  0.6589 -0.8033
 1977poe    c2310761   0.766   0.968   1.355  0.2176 -0.2618 -0.1248
 1977poe    c2310762   0.860   0.938   1.474  0.3074  0.5473  0.0152
 1977poe     o210763   0.995   0.949   1.435  0.2734 -0.3025 -0.3749
 1977poe    c3110764   1.086   0.934   1.541  0.0067 -0.5188 -0.1746
 1978poe    c3110765   5.301   0.076   3.451 -0.3117  0.2926 -0.4587
 1978poe     o210766   5.170   0.113   3.488 -0.4903 -0.3749 -0.4048
 1978poe    c2310767   5.148   0.124   3.627  0.4098  0.2274 -0.2961
 1978poe    c2310768   5.135   0.270   3.673 -0.0831  0.1037 -0.0377
 1978poe     o210769   5.020   0.335   3.624  0.0730  0.1666 -0.3166
 1978poe    c2310770   5.033   0.476   3.618  0.1365  0.1861  0.2880
 1978poe    c2310771   4.897   0.545   3.597  0.4946  0.7386 -0.2166
 1978poe     o210772   4.873   0.548   3.458 -0.5468  0.5094 -0.0508
 1978poe    c2310773   4.739   0.553   3.415 -0.5978 -0.7926 -0.0792
 1978poe    c2310774   4.719   0.517   3.267 -0.7028 -0.4477 -0.1495
 1978poe     o210775   4.761   0.387   3.231 -0.0873 -0.2265 -0.2559
 1978poe    c3110776   4.755   0.371   3.091 -0.0388 -0.1352 -0.2680
 1979poe    c3110777   4.883   5.595   5.731  0.6049 -0.6409  0.0969
 1979poe     o210778   4.900   5.600   5.871  0.1644 -0.1307  0.1393
 1979poe    c2310779   4.861   5.727   5.918 -0.3409 -0.3819  0.4102
 1979poe    c2310780   4.867   5.754   6.070 -0.5919 -0.1226  0.3734
 1979poe     o210781   4.998   5.746   6.120 -0.4039 -0.5927 -0.1858
 1979poe    c2310782   4.993   5.744   6.260 -0.1410  0.2683 -0.1578
 1979poe    c2310783   5.133   5.764   6.321 -0.0263  0.3645 -0.4511
 1979poe     o210784   5.235   5.691   6.254  0.0971  0.1000  0.0169
 1979poe    c2310785   5.329   5.631   6.340 -0.2255 -0.4716 -0.0241
 1979poe    c2310786   5.419   5.541   6.254  0.2868 -0.0506  0.0633
 1979poe     o210787   5.430   5.620   6.138 -0.1515 -0.3023 -0.1538
 1979poe    c3110788   5.511   5.559   6.040 -0.3149 -0.1470 -0.3856
 1980poe    c3110789   0.792   4.045   6.237 -0.4013 -0.7052 -0.2443
 1980poe     o210790   0.917   3.981   6.225  0.0580  0.1183  0.1414
 1980poe    c2310791   0.883   3.847   6.252 -0.1599  0.1133 -0.1599
 1980poe    c2310792   1.004   3.773   6.191  0.1396 -0.2833  0.8888
 1980poe     o210793   1.122   3.839   6.228  0.1971  0.1746 -0.0704
 1980poe    c2310794   1.233   3.758   6.196  0.0853 -0.2726  0.6451
 1980poe    c2310795   1.350   3.856   6.212  0.0988 -0.2019  0.1334
 1980poe     o210796   1.306   3.965   6.133  0.2974 -0.1068  0.1522
 1980poe    c2310797   1.421   4.039   6.100  0.1542 -0.0575 -0.2410
 1980poe    c2310798   1.430   4.085   5.953 -0.6141 -0.0103 -0.2767
 1980poe     o210799   1.340   4.190   5.927 -0.4727  0.2764  0.3598
 1980poe    c3110800   1.397   4.308   5.979 -0.1873  0.3593 -0.1370
 1981poe    c3110801   0.566   0.578   3.069  0.0213  0.4817  0.2727
 1981poe     o210802   0.450   0.499   3.058  0.1569  0.2469  0.5191
 1981poe    c2310803   0.457   0.454   2.925 -0.5358  0.2003  0.4912
 1981poe    c2310804   0.375   0.324   2.920  0.0311 -0.1463 -0.0475
 1981poe     o210805   0.237   0.342   2.943  0.0286  0.6024 -0.6580
 1981poe    c2310806   0.168   0.231   2.892  0.6422  0.1916 -0.6015
 1981poe    c2310807   0.019   0.260   2.864  0.4540 -0.3526 -0.1822
 1981poe     o210808  -0.019   0.335   2.976 -0.0736 -0.4282 -0.3096
 1981poe    c2310809  -0.154   0.372   2.954 -0.1050 -0.4401 -0.1395
 1981poe    c2310810  -0.185   0.453   3.081 -0.1853 -0.0447 -0.4101
 1981poe     o210811  -0.066   0.489   3.148 -0.5532  0.1604  0.1430
 1981poe    c3110812  -0.077   0.501   3.288  0.3968  0.7099  0.1807
 1982poe    c3110813   3.929   7.065   4.063 -0.4541 -0.0653  0.6158
 1982poe     o210814   3.877   7.194   4.043  0.3880  0.1679 -0.0952
 1982poe    c2310815   3.821   7.213   3.915  0.0513 -0.3831 -0.0329
 1982poe    c2310816   3.771   7.357   3.892 -0.3211 -0.3696  0.8258
 1982poe     o210817   3.651   7.389   3.958 -0.9130 -0.7564 -0.0369
 1982poe    c2310818   3.598   7.511   3.911 -0.0109 -0.3569 -0.0255
 1982poe    c2310819   3.498   7.547   4.022  0.2624 -0.1849  0.1672
 1982poe     o210820   3.416   7.434   4.043 -0.1993 -0.0101 -0.6261
 1982poe    c2310821   3.339   7.453   4.160  0.0430 -0.4163 -0.3953
 1982poe    c2310822   3.257   7.328   4.196  0.1916 -0.3246  0.2628
 1982poe     o210823   3.335   7.214   4.166  0.0567 -0.3035 -0.1715
 1982poe    c3110824   3.250   7.102   4.159 -0.4428  0.0712 -0.2090
 1983poe    c3110825   5.887   5.418   4.633  0.3360  0.4393  0.1640
 1983poe     o210826   5.909   5.298   4.563  0.0018  0.6278 -0.2669
 1983poe    c2310827   6.032   5.292   4.494 -0.1630  0.7395 -0.5718
 1983poe    c2310828   6.001   5.266   4.345  0.8407 -0.5866 -0.5641
 1983poe     o210829   5.927   5.151   4.310 -0.2859 -0.0216 -0.0676
 1983poe    c2310830   6.009   5.037   4.321 -0.0997  0.0653 -0.5517
 1983poe    c2310831   5.932   4.911   4.275  0.2981 -0.6166  0.6017
 1983poe     o210832   5.798   4.939   4.308  0.3571  0.0185  0.3392
 1983poe    c2310833   5.728   4.817   4.323  0.0273  0.1480 -0.1306
 1983poe    c2310834   5.575   4.834   4.325 -0.0547 -0.6016  0.3798
 1983poe     o210835   5.541   4.918   4.432 -0.2517 -0.2675  0.0553
 1983poe    c3110836   5.408   4.963   4.415 -0.1382  0.0478 -0.0100
 1984poe    c3110837   2.490   2.452   5.578  0.7109 -0.6841 -0.1588
 1984poe     o210838   2.490   2.475   5.438 -0.0332  0.6135  0.0390
 1984poe    c2310839   2.534   2.604   5.403 -0.1001  0.4483 -0.6697
 1984poe    c2310840   2.550   2.614   5.251  0.0621 -0.6234 -0.7316
 1984poe     o210841   2.437   2.550   5.196 -0.5530 -0.4778  0.3399
 1984poe    c2310842   2.430   2.553   5.055  0.1425 -0.2439  0.3087
 1984poe    c2310843   2.286   2.508   5.025  0.5277 -0.8037 -0.7594
 1984poe     o210844   2.251   2.399   5.107 -0.1363  0.2349  0.3833
 1984poe    c2310845   2.135   2.339   5.053  0.2832 -0.2243 -0.0267
 1984poe    c2310846   2.082   2.218   5.132  0.6227 -0.2434  0.1738
 1984poe     o210847   2.059   2.262   5.265 -0.1928 -0.4352  0.1032
 1984poe    c3110848   1.971   2.177   5.335  0.2569 -1.0886 -0.1055
 1985poe    c3110849   6.791   2.452   0.716 -0.2399  0.3789  0.4108
 1985poe     o210850   6.720   2.330   0.726  0.5002 -0.1181 -0.2783
 1985poe    c2310851   6.679   2.280   0.601 -0.3527 -0.0766 -0.0191
 1985poe    c2310852   6.591   2.153   0.601 -0.8156  0.2403 -0.1247
 1985poe     o210853   6.489   2.167   0.697 -0.7467 -0.3504  0.0374
 1985poe    c2310854   6.405   2.057   0.724 -0.4208 -0.6139 -0.0154
 1985poe    c2310855   6.290   2.100   0.817 -0.1479 -0.2992  0.1800
 1985poe     o210856   6.324   2.174   0.931 -0.1100 -0.4273  0.2524
 1985poe    c2310857   6.334   2.094   1.047 -0.5540 -0.5910  0.1792
 1985poe    c2310858   6.283   2.186   1.159 -0.3253  0.1621 -0.3293
 1985poe     o210859   6.358   2.306   1.149 -0.3125  0.2679  0.8530
 1985poe    c3110860   6.369   2.376   1.271  0.2787 -0.1674  1.0571
 1986poe    c3110861   6.115   5.282   5.661  0.0711  0.0118 -0.2608
 1986poe     o210862   6.235   5.233   5.717 -0.4704 -0.3013  0.6410
 1986poe    c2310863   6.278   5.326   5.813 -0.0945 -0.1696  0.3445
 1986poe    c2310864   6.365   5.228   5.893 -0.3369 -0.4376  0.2780
 1986poe     o210865   6.429   5.148   5.796  0.7120  0.5945  0.1021
 1986poe    c2310866   6.499   5.048   5.867 -0.2560 -0.2257 -0.0853
 1986poe    c2310867   6.529   4.922   5.784  0.0171 -0.3217  0.1575
 1986poe     o210868   6.424   4.903   5.692  0.0856  0.5895 -0.1248
 1986poe    c2310869   6.450   4.776   5.636  0.4090  0.5686  0.0663
 1986poe    c2310870   6.329   4.682   5.657  0.1988  0.9560  0.6024
 1986poe     o210871   6.212   4.748   5.615 -0.2069 -0.0700  0.0844
 1986poe    c3110872   6.102   4.661   5.619 -0.1063 -0.2004  0.0145
 1987poe    c3110873   5.135   3.637   6.033 -0.0431  0.4049  0.5898
 1987poe     o210874   5.020   3.659   5.955 -0.1385  0.0627  0.6333
 1987poe    c2310875   4.966   3.532   5.926  0.0950 -0.0142  0.5327
 1987poe    c2310876   4.840   3.550   5.839  0.4976  0.8092  0.1052
 1987poe     o210877   4.732   3.605   5.913  0.1702  0.1855  0.0939
 1987poe    c2310878   4.644   3.510   5.970 -0.5299  0.7882  0.0244
 1987poe    c2310879   4.509   3.529   5.898 -0.4330  0.2423 -0.3130
 1987poe     o210880   4.523   3.485   5.765  0.3022 -0.4319 -0.0198
 1987poe    c2310881   4.429   3.549   5.682  0.4955  0.0575  0.1346
 1987poe    c2310882   4.449   3.535   5.530 -0.5328  0.6550 -0.0630
 1987poe     o210883   4.555   3.615   5.482 -0.1338  0.0915 -0.1319
 1987poe    c3110884   4.603   3.565   5.359 -0.3942  0.0169 -0.2057
 1988poe    c3110885   0.762   6.814   3.656  0.1973  0.2242 -0.4039
 1988poe     o210886   0.748   6.898   3.544  0.6085  0.5998 -0.1818
 1988poe    c2310887   0.623   6.963   3.539  0.1082 -0.3331 -0.0305
 1988poe    c2310888   0.606   7.088   3.450  0.0300 -0.1553  0.2340
 1988poe     o210889   0.698   7.190   3.482 -0.4505  0.3062  0.1582
 1988poe    c2310890   0.677   7.306   3.405 -0.0547  0.0117 -0.3958
 1988poe    c2310891   0.749   7.317   3.269  0.5638 -0.1207 -0.0798
 1988poe     o210892   0.888   7.345   3.273  0.5935 -0.2958  0.2045
 1988poe    c2310893   0.945   7.386   3.151 -0.2072  0.5103  0.0874
 1988poe    c2310894   1.018   7.520   3.170  0.7099  0.0116  0.1546
 1988poe     o210895   1.149   7.507   3.221  0.5860 -0.3958  0.3695
 1988poe    c3110896   1.198   7.638   3.237 -0.6325  0.0907  0.2769
 1989poe    c3110897   6.593   2.988   2.066  0.2297 -0.3773 -0.0438
 1989poe     o210898   6.616   3.059   2.186  0.5346 -0.4269 -0.0736
 1989poe    c2310899   6.500   3.109   2.248  0.9048  0.5891 -0.1787
 1989poe    c2310900   6.503   3.260   2.278 -0.8978  0.5089  0.5202
 1989poe     o210901   6.590   3.315   2.374 -0.2262  0.3574  0.0024
 1989poe    c2310902   6.545   3.301   2.507  0.3013  0.4489  0.1924
 1989poe    c2310903   6.651   3.318   2.618  0.0347  0.4696  0.4444
 1989poe     o210904   6.758   3.226   2.620 -0.1762  0.2093  0.0085
 1989poe    c2310905   6.852   3.252   2.722  0.3071  0.4416 -0.4932
 1989poe    c2310906   6.933   3.122   2.739 -0.5569 -0.0312  0.0744
 1989poe     o210907   6.971   3.068   2.614 -0.2809  0.1437  0.0830
 1989poe    c3110908   7.041   2.949   2.642  0.1066  0.4032  0.2270
 1990poe    c3110909   6.455   3.151   4.254 -0.2513 -0.6604 -0.6071
 1990poe     o210910   6.576   3.095   4.301 -0.7168 -1.0543  0.1291
 1990poe    c2310911   6.556   3.041   4.430  0.4551  0.0588  0.7980
 1990poe    c2310912   6.667   2.935   4.450  0.6671  0.2795  0.8001
 1990poe     o210913   6.777   3.006   4.398 -0.0135  0.4014 -0.5175
 1990poe    c2310914   6.892   2.926   4.416 -0.3047  0.0453 -0.2255
 1990poe    c2310915   7.013   2.999   4.355 -0.2573 -0.0940 -0.2959
 1990poe     o210916   6.974   3.082   4.248 -0.4118 -0.0161 -0.1786
 1990poe    c2310917   7.087   3.103   4.167 -0.2474  0.2995  0.1280
 1990poe    c2310918   7.161   3.234   4.201 -0.2413  0.3137  0.0597
 1990poe     o210919   7.070   3.341   4.197 -0.2775  0.2654 -0.6172
 1990poe    c3110920   7.127   3.456   4.255  0.0010 -0.3699  0.3925
 1991poe    c3110921   0.557   3.460   0.337 -0.1253  0.5740 -0.2249
 1991poe     o210922   0.462   3.519   0.422 -0.0048  0.4860 -0.0304
 1991poe    c2310923   0.512   3.616   0.512 -0.0104  0.5534 -0.0997
 1991poe    c2310924   0.406   3.680   0.603 -0.0881  0.7544 -0.3292
 1991poe     o210925   0.383   3.610   0.724  0.6989  0.4339 -0.3599
 1991poe    c2310926   0.272   3.655   0.797  0.7153 -0.4378  0.2196
 1991poe    c2310927   0.222   3.550   0.898  0.1250  0.0557  0.4483
 1991poe     o210928   0.184   3.430   0.834  0.4802 -0.0982  0.5237
 1991poe    c2310929   0.123   3.345   0.928 -0.1188 -0.6882 -0.3779
 1991poe    c2310930   0.088   3.225   0.839 -0.2343 -1.0061  0.0928
 1991poe     o210931   0.201   3.200   0.759 -0.1021  0.3529 -0.1739
 1991poe    c3110932   0.182   3.079   0.689  0.7868 -0.1944  0.5113
 1992poe    c3110933   2.596   1.662   1.758  0.9431 -0.3147  0.7143
 1992poe     o210934   2.528   1.543   1.791 -0.1298  0.0169 -0.2353
 1992poe    c2310935   2.472   1.556   1.919 -0.1996  0.3951 -0.3030
 1992poe    c2310936   2.386   1.440   1.973  0.4595  0.1320  0.2011
 1992poe     o210937   2.321   1.465   2.096  0.1050  0.2059  0.0013
 1992poe    c2310938   2.254   1.350   2.142  0.6772  0.2993  1.0910
 1992poe    c2310939   2.208   1.361   2.289 -0.2577  0.0701  0.8244
 1992poe     o210940   2.313   1.397   2.377  0.4966 -0.9588  0.3626
 1992poe    c2310941   2.346   1.280   2.449 -0.1314 -0.8623  0.8190
 1992poe    c2310942   2.423   1.320   2.576  0.1926 -0.4286  0.4904
 1992poe     o210943   2.527   1.406   2.538 -0.1457 -0.3772 -0.3388
 1992poe    c3110944   2.635   1.381   2.625  0.0224 -0.4065 -0.5532
 1993poe    c3110945   0.395   6.336   2.024 -0.0423  0.1176 -0.0144
 1993poe     o210946   0.362   6.338   1.887 -0.3085 -0.7234  0.0316
 1993poe    c2310947   0.449   6.405   1.799 -0.5890  0.0401  0.3254
 1993poe    c2310948   0.383   6.409   1.660 -0.4719  0.2796  0.2768
 1993poe     o210949   0.325   6.291   1.611 -0.1688  0.0289  0.5174
 1993poe    c2310950   0.201   6.325   1.551  0.3104 -0.2985 -0.6857
 1993poe    c2310951   0.144   6.219   1.455  0.6719 -0.6910 -0.4752
 1993poe     o210952   0.146   6.095   1.521  0.6180 -0.2703  0.3308
 1993poe    c2310953   0.123   5.994   1.425 -0.2917 -0.1530  0.4163
 1993poe    c2310954   0.128   5.857   1.493 -0.2770 -0.6773 -0.6137
 1993poe     o210955   0.231   5.865   1.588 -0.6764 -0.0257 -0.2264
 1993poe    c3110956   0.216   5.769   1.690  0.2506  0.3248  0.2599
 1994poe    c3110957   3.384   1.094   2.374 -0.5300 -0.3009 -0.4726
 1994poe     o210958   3.344   1.125   2.506 -0.6967 -0.2008 -0.5458
 1994poe    c2310959   3.427   1.226   2.559 -0.0959 -0.9952  0.0573
 1994poe    c2310960   3.441   1.218   2.712  0.1390  0.8239  0.1573
 1994poe     o210961   3.529   1.118   2.759 -0.2803  0.3514 -0.0511
 1994poe    c2310962   3.565   1.148   2.892 -0.1999  0.5522 -0.1168
 1994poe    c2310963   3.686   1.059   2.928 -0.1139  0.7881  0.1777
 1994poe     o210964   3.808   1.063   2.859 -0.4746  0.0648 -0.5161
 1994poe    c2310965   3.875   1.181   2.898 -0.0488 -0.2678 -0.2316
 1994poe    c2310966   4.003   1.223   2.822 -0.0923  0.2601 -0.0186
 1994poe     o210967   3.952   1.293   2.710  0.0506  0.1082 -0.1791
 1994poe    c3110968   4.051   1.371   2.646  0.4153 -0.0801  0.1486
 1995poe    c3110969   0.031   3.358   3.351  0.1247  0.3142  0.0238
 1995poe     o210970  -0.048   3.449   3.279 -0.1310 -0.1439 -0.2760
 1995poe    c2310971  -0.065   3.406   3.145  0.3146  0.0565 -0.3978
 1995poe    c2310972  -0.188   3.473   3.081 -0.2133 -0.3528  0.1715
 1995poe     o210973  -0.310   3.440   3.144 -0.2628 -0.3766  0.0628
 1995poe    c2310974  -0.413   3.477   3.055 -0.3149 -0.4874  0.0767
 1995poe    c2310975  -0.530   3.380   3.037 -0.6289 -0.0826 -0.0846
 1995poe     o210976  -0.505   3.263   2.962 -0.7153 -0.0873 -0.1067
 1995poe    c2310977  -0.463   3.146   3.029  0.3577  0.0776 -0.4729
 1995poe    c2310978  -0.503   3.023   2.945  0.1380  0.1033 -0.4058
 1995poe     o210979  -0.428   3.010   2.826  0.9191 -0.1149  0.1113
 1995poe    c3110980  -0.452   2.889   2.758  0.4868  0.2944 -0.4664
 1996poe    c3110981   5.179   5.211   4.920 -0.3889 -0.0398 -0.3365
 1996poe     o210982   5.176   5.077   4.876  0.9713 -0.2335  0.1082
 1996poe    c2310983   5.177   5.080   4.735 -0.7134 -0.3265  0.0690
 1996poe    c2310984   5.146   4.933   4.703  0.2232 -0.4633 -0.2474
 1996poe     o210985   5.013   4.916   4.748  0.3811 -0.1209  0.3615
 1996poe    c2310986   4.974   4.782   4.730 -0.5626  0.1359  0.4505
 1996poe    c2310987   4.824   4.788   4.764 -0.6311 -0.5674  0.2828
 1996poe     o210988   4.818   4.821   4.901 -0.2021  0.2655  0.1073
 1996poe    c2310989   4.688   4.794   4.949 -0.3857  0.8843 -0.0269
 1996poe    c2310990   4.706   4.743   5.093 -0.3096  0.2430 -0.2590
 1996poe     o210991   4.758   4.846   5.174  0.1756  0.0125 -0.2720
 1996poe    c3110992   4.715   4.811   5.304 -0.0512  0.3138 -0.2640
 1997poe    c3110993   6.293   3.621   2.384  0.1937 -0.0279  0.1549
 1997poe     o210994   6.434   3.623   2.382  0.1941 -0.2771 -0.6388
 1997poe    c2310995   6.485   3.729   2.461 -0.1558 -0.1705 -0.5535
 1997poe    c2310996   6.636   3.738   2.490 -0.2697  0.6742 -0.2045
 1997poe     o210997   6.716   3.765   2.377 -0.0675  0.9343  0.0014
 1997poe    c2310998   6.855   3.751   2.401 -0.1536  0.3408  0.1585
 1997poe    c2310999   6.930   3.705   2.275 -0.8406  0.0663 -0.1584
 1997poe     o211000   6.906   3.575   2.226 -0.0484  0.1305 -0.7331
 1997poe    c2311001   7.010   3.555   2.133  0.9056  0.0706  0.3246
 1997poe    c2311002   6.978   3.439   2.037 -0.6107  0.3879  0.4262
 1997poe     o211003   6.992   3.313   2.098  0.3912  0.4424  0.3232
 1997poe    c3111004   7.003   3.217   1.996 -0.7790 -0.3892  0.9518
 1998poe    c3111005   2.373   5.064   3.769  0.0994 -0.1416  0.2229
 1998poe     o211006   2.401   5.201   3.785 -0.0311 -0.1115  0.1998
 1998poe    c2311007   2.419   5.248   3.653 -0.1548 -0.6834 -0.0233
 1998poe    c2311008   2.433   5.400   3.669 -0.0012 -0.7225  0.2278
 1998poe     o211009   2.524   5.416   3.776  0.3643  0.4392 -0.2388
 1998poe    c2311010   2.576   5.546   3.762  0.1325  0.5350 -0.2190
 1998poe    c2311011   2.673   5.580   3.877 -0.2006  0.2696  0.1424
 1998poe     o211012   2.621   5.582   4.008 -0.4289  0.5479  0.0478
 1998poe    c2311013   2.692   5.682   4.077 -0.0062  0.7887 -0.7154
 1998poe    c2311014   2.642   5.698   4.222  0.7288 -0.4239 -0.3107
 1998poe     o211015   2.505   5.732   4.219  0.6069 -0.8885 -0.1120
 1998poe    c3111016   2.448   5.729   4.347  0.6034 -0.1319 -0.0912
 1999poe    c3111017   6.455   1.133   6.510 -0.1892 -0.4700 -0.0323
 1999poe     o211018   6.410   1.006   6.468 -0.0847 -0.5052 -0.0359
 1999poe    c2311019   6.342   0.951   6.579  0.3322  0.4173  0.6924
 1999poe    c2311020   6.335   0.799   6.554  0.3299  0.4971  0.1906
 1999poe     o211021   6.269   0.773   6.432  0.3543  0.0493  0.2727
 1999poe    c2311022   6.137   0.730   6.458  0.4713 -0.4337  0.0864
 1999poe    c2311023   6.077   0.651   6.340  0.6688  0.0891 -0.3714
 1999poe     o211024   6.090   0.726   6.221  0.2486  0.1266 -0.3946
 1999poe    c2311025   5.987   0.685   6.135  0.1530 -0.1218 -0.1632
 1999poe    c2311026   5.978   0.792   6.025 -0.3865 -0.0126 -0.0161
 1999poe     o211027   6.113   0.815   5.991 -0.3279 -0.2983  0.0245
 1999poe    c3111028   6.119   0.902   5.881  0.2517 -0.0184  0.2702
 2000poe    c3111029   0.234   3.646   1.244  0.5450 -0.2921  0.1595
 2000poe     o211030   0.249   3.776   1.191  0.5010 -0.5093 -0.3939
 2000poe    c2311031   0.330   3.856   1.274  0.1414 -0.5679  0.0127
 2000poe    c2311032   0.251   3.936   1.380  0.4148  0.0294 -0.2297
 2000poe     o211033   0.159   4.023   1.318  0.2367  0.0677  0.0890
 2000poe    c2311034   0.044   4.053   1.395  0.3240  0.3813  0.1009
 2000poe    c2311035  -0.051   4.162   1.344  0.7185  0.5160 -0.3596
 2000poe     o211036  -0.083   4.129   1.211  0.0083  0.4277 -0.1715
 2000poe    c2311037  -0.169   4.225   1.154 -0.1799  0.4660  0.1752
 2000poe    c2311038  -0.193   4.181   1.009  0.0665  1.2336 -0.1016
 2000poe     o211039  -0.062   4.158   0.962 -0.1337 -0.2436  0.0178
 2000poe    c3111040  -0.045   4.147   0.822 -0.0152 -0.1935  0.0285
 2001poe    c3111041   5.958   1.602   2.704  0.0242  0.7257  0.2008
 2001poe     o211042   5.984   1.465   2.682 -0.2687  0.6907  0.0569
 2001poe    c2311043   5.872   1.383   2.659  0.7862 -0.7159 -0.2494
 2001poe    c2311044   5.785   1.421   2.538  0.3627 -0.1391  0.2270
 2001poe     o211045   5.714   1.311   2.487  0.0421  0.2953 -0.2834
 2001poe    c2311046   5.583   1.344   2.448 -0.1212  0.1274  0.1233
 2001poe    c2311047   5.503   1.214   2.471 -0.2223  0.2275  0.3458
 2001poe     o211048   5.560   1.109   2.395  0.0626  0.2873  0.4749
 2001poe    c2311049   5.507   0.983   2.432  0.1196  0.2455  0.4136
 2001poe    c2311050   5.578   0.868   2.360  0.2176  0.3969  0.2684
 2001poe     o211051   5.713   0.904   2.339  0.3237 -0.2000 -0.1064
 2001poe    c3111052   5.800   0.799   2.301  0.4678 -0.1728  0.1430
 2002poe    c3111053   0.127   4.830   4.936  0.6498 -0.0912 -0.1330
 2002poe     o211054  -0.000   4.771   4.954  0.7276 -0.1323  0.2794
 2002poe    c2311055  -0.112   4.849   4.921 -0.1369 -1.4083  0.0995
 2002poe    c2311056  -0.242   4.823   5.000 -0.4649 -0.2287 -0.0207
 2002poe     o211057  -0.289   4.691   5.016 -0.4181 -0.1689  0.6033
 2002poe    c2311058  -0.348   4.625   4.906  0.7985 -0.4238  0.0988
 2002poe    c2311059  -0.442   4.516   4.961  0.5371 -0.4346 -0.3642
 2002poe     o211060  -0.381   4.440   5.064  0.3776 -0.4021 -0.2454
 2002poe    c2311061  -0.458   4.343   5.131 -0.3423  0.4360  0.1629
 2002poe    c2311062  -0.356   4.268   5.220 -0.3626  0.5457  0.2787
 2002poe     o211063  -0.280   4.356   5.300  0.3488  0.5345 -0.3750
 2002poe    c3111064  -0.185   4.276   5.368  0.0719  1.2253  0.8543
 2003poe    c3111065   1.137   3.916   5.733 -0.3282 -0.3548  0.0777
 2003poe     o211066   1.044   4.004   5.792  0.0209 -0.2102  0.4238
 2003poe    c2311067   0.961   4.058   5.691  0.2403  0.0584  0.3854
 2003poe    c2311068   0.891   4.189   5.734  0.0500  0.0672  0.0532
 2003poe     o211069   0.978   4.299   5.742  0.2972 -0.1281  0.0946
 2003poe    c2311070   0.907   4.386   5.827  0.0999  0.6076 -0.7980
 2003poe    c2311071   1.005   4.499   5.865  0.0822  0.1908  0.5323
 2003poe     o211072   1.064   4.538   5.743 -0.3018 -0.4428  0.1414
 2003poe    c2311073   1.115   4.669   5.741 -0.2496 -0.4658 -0.0071
 2003poe    c2311074   1.181   4.689   5.603 -0.1949 -0.2772  0.0467
 2003poe     o211075   1.105   4.625   5.504 -0.3536 -0.2603  0.1566
 2003poe    c3111076   1.105   4.681   5.374  0.3208 -0.2200  0.1702
 2004poe    c3111077   4.896   6.657   2.802  1.1984 -0.5408  0.1088
 2004poe     o211078   4.851   6.555   2.715 -0.3264  0.1558  0.0579
 2004poe    c2311079   4.710   6.559   2.716 -0.3198  0.4588 -0.1748
 2004poe    c2311080   4.648   6.434   2.652 -0.2914  0.1436  0.4063
 2004poe     o211081   4.630   6.327   2.742  0.3129  0.0794  0.4577
 2004poe    c2311082   4.522   6.248   2.696  0.4509  0.2430 -0.1587
 2004poe    c2311083   4.491   6.113   2.762  0.7019  0.5696  0.6381
 2004poe     o211084   4.600   6.028   2.737 -0.2791 -0.4050 -0.4308
 2004poe    c2311085   4.584   5.905   2.805 -0.2155 -0.2609 -0.1522
 2004poe    c2311086   4.692   5.809   2.751 -0.3394 -0.3710 -0.2050
 2004poe     o211087   4.813   5.805   2.823 -0.3010 -0.1220 -0.2554
 2004poe    c3111088   4.894   5.705   2.766 -0.0095 -0.4354  0.6820
 2005poe    c3111089   4.815   6.646   4.190 -0.1590 -0.0239 -0.0738
 2005poe     o211090   4.813   6.711   4.315 -0.4533  0.2835 -0.2353
 2005poe    c2311091   4.941   6.764   4.338 -0.2121 -0.4936  0.2543
 2005poe    c2311092   4.952   6.835   4.475 -0.0916  0.3122 -0.1643
 2005poe     o211093   4.853   6.934   4.462 -0.1638  0.2337 -0.2211
 2005poe    c2311094   4.852   7.018   4.575 -0.1691 -0.1369  0.0548
 2005poe    c2311095   4.764   7.144   4.559 -0.1006 -0.1550 -0.4733
 2005poe     o211096   4.839   7.218   4.464 -0.2093 -0.2874 -0.6633
 2005poe    c2311097   4.850   7.347   4.521 -0.4504 -0.6806  0.2983
 2005poe    c2311098   4.954   7.425   4.439 -0.5618 -0.2218  0.5964
 2005poe     o211099   4.911   7.450   4.307 -0.1699 -0.2332  0.4660
 2005poe    c3111100   5.019   7.451   4.216 -0.5938  0.5209 -0.0375
 2006poe    c3111101   3.217   6.369   5.330  0.1305  0.5822  0.1582
 2006poe     o211102   3.212   6.344   5.468 -0.1829 -0.0709  0.0345
 2006poe    c2311103   3.176   6.212   5.501  0.2029 -0.2371 -0.2019
 2006poe    c2311104   3.199   6.179   5.650 -0.4612  0.4251  0.0541
 2006poe     o211105   3.154   6.280   5.737 -0.2413  0.5937 -0.0279
 2006poe    c2311106   3.213   6.250   5.862 -0.0023  0.2704 -0.2159
 2006poe    c2311107   3.351   6.315   5.881  0.0207  0.2237 -0.2245
 2006poe     o211108   3.356   6.454   5.860  0.4595  0.1852 -0.3907
 2006poe    c2311109   3.482   6.508   5.893  0.5988 -0.4766  0.1726
 2006poe    c2311110   3.470   6.661   5.896 -0.9571 -0.5845  0.2891
 2006poe     o211111   3.363   6.700   5.812 -0.6975 -0.2868  0.0926
 2006poe    c3111112   3.350   6.840   5.818  0.2975 -0.1529 -0.6356
 2007poe    c3111113   6.155   1.305   0.496 -0.1244 -0.2539 -0.2092
 2007poe     o211114   6.265   1.298   0.407  0.0582  1.0158 -0.0933
 2007poe    c2311115   6.369   1.240   0.482 -0.3238  0.2051 -0.1798
 2007poe    c2311116   6.495   1.274   0.400  0.3674 -0.5519  0.5435
 2007poe     o211117   6.460   1.252   0.265  0.6342 -0.1783  0.4088
 2007poe    c2311118   6.569   1.280   0.180  0.1223 -0.0532 -0.2133
 2007poe    c2311119   6.569   1.195   0.051  0.2569  0.0138 -0.2565
 2007poe     o211120   6.443   1.216  -0.007  0.4262  0.0942 -0.5982
 2007poe    c2311121   6.411   1.102  -0.084  0.2679 -0.2043 -0.0947
 2007poe    c2311122   6.271   1.120  -0.146 -0.0166 -0.8025  0.3600
 2007poe     o211123   6.172   1.118  -0.046 -0.0066 -0.8705  0.3687
 2007poe    c3111124   6.042   1.116  -0.101  0.3468  0.2858 -0.5320
 2008poe    c3111125   0.907   6.089   0.802 -0.5364 -0.4599 -0.5160
 2008poe     o211126   0.774   6.116   0.841 -0.2523  0.7707 -0.3727
 2008poe    c2311127   0.767   6.108   0.982  0.4165 -1.0247 -0.4150
 2008poe    c2311128   0.618   6.118   1.021  0.6778  0.0860  0.3369
 2008poe     o211129   0.583   6.245   0.972  0.4600 -0.1221 -0.0505
 2008poe    c2311130   0.461   6.294   1.023  0.7770 -0.0967  0.6899
 2008poe    c2311131   0.399   6.418   0.956  0.0128 -1.0118 -0.3302
 2008poe     o211132   0.362   6.387   0.824  0.1069 -0.3671 -0.5117
 2008poe    c2311133   0.305   6.496   0.755  0.2158 -0.0537 -0.1082
 2008poe    c2311134   0.342   6.476   0.607  0.6781  0.3490 -0.0493
 2008poe     o211135   0.333   6.338   0.579  1.0058  0.3314 -0.0771
 2008poe    c3111136   0.296   6.315   0.445 -0.2316  0.5369  0.2152
 2009poe    c3111137   6.542   1.544   3.799 -0.3183 -0.7702  0.1035
 2009poe     o211138   6.641   1.472   3.730 -0.4953 -0.8136 -0.1090
 2009poe    c2311139   6.653   1.498   3.592  0.2043 -0.2573  0.0485
 2009poe    c2311140   6.629   1.365   3.519 -0.1892  0.1359 -0.5503
 2009poe     o211141   6.754   1.300   3.510 -0.2467  0.0134 -0.4650
 2009poe    c2311142   6.745   1.180   3.435  0.0061 -0.5977  0.4611
 2009poe    c2311143   6.673   1.060   3.499 -0.0757 -0.9252 -0.2418
 2009poe     o211144   6.726   1.027   3.625  0.9174  0.1266 -0.3728
 2009poe    c2311145   6.671   0.904   3.667 -0.1503  0.4483 -0.8103
 2009poe    c2311146   6.768   0.875   3.782 -1.1518  0.4387  0.0493
 2009poe     o211147   6.803   0.986   3.861 -0.5742  0.1773  0.1669
 2009poe    c3111148   6.861   0.937   3.980 -0.3905  0.1424  0.0627
 2010poe    c3111149   5.697   6.509   6.797 -0.2056 -0.0235 -0.1733
 2010poe     o211150   5.654   6.632   6.742 -0.7961 -0.3301 -0.4043
 2010poe    c2311151   5.660   6.720   6.852 -0.2525 -0.5192 -0.2818
 2010poe    c2311152   5.623   6.862   6.806  0.1455 -0.2282  0.2848
 2010poe     o211153   5.723   6.923   6.728 -0.4094  0.2043 -0.0963
 2010poe    c2311154   5.679   7.015   6.630 -0.7313  0.2823  0.1214
 2010poe    c2311155   5.644   7.148   6.699  0.0470  0.0931  0.9084
 2010poe     o211156   5.752   7.207   6.767  0.3851 -0.1467  0.5792
 2010poe    c2311157   5.715   7.277   6.883  0.0880 -0.8578  0.9158
 2010poe    c2311158   5.843   7.353   6.923 -0.1172  0.0602 -0.1260
 2010poe     o211159   5.958   7.273   6.906 -0.0181  0.1804 -0.0205
 2010poe    c3111160   6.079   7.344   6.902 -0.2057  0.5256  0.3746
 2011poe    c3111161   5.319   0.374   4.845 -0.0136  0.6170  0.1648
 2011poe     o211162   5.217   0.468   4.872 -0.1413  0.4435  0.2897
 2011poe    c2311163   5.167   0.516   4.750  0.1867  0.4351  0.1493
 2011poe    c2311164   5.138   0.667   4.734 -0.2871  0.3495  0.1919
 2011poe     o211165   5.025   0.673   4.649 -0.0695  0.3735 -0.0942
 2011poe    c2311166   4.999   0.809   4.620 -0.0302  0.3737 -0.1287
 2011poe    c2311167   4.875   0.830   4.532  0.1597  0.5874 -0.3458
 2011poe     o211168   4.755   0.770   4.575  0.5003  0.1188 -0.0403
 2011poe    c2311169   4.640   0.839   4.530  0.1462 -0.4700 -0.0465
 2011poe    c2311170   4.514   0.779   4.596 -0.1182 -0.5688 -0.6429
 2011poe     o211171   4.517   0.762   4.735  0.1985  0.3970 -0.5241
 2011poe    c3111172   4.393   0.703   4.766  0.3023  0.4719  0.0458
 2012poe    c3111173   3.465   6.504   4.415  0.3479  0.2511 -0.3751
 2012poe     o211174   3.566   6.504   4.317  0.5029 -0.0317 -0.2164
 2012poe    c2311175   3.627   6.377   4.305  0.3035 -0.1659  0.1896
 2012poe    c2311176   3.725   6.407   4.190  0.0778  0.0346  0.0490
 2012poe     o211177   3.804   6.516   4.233  0.4277 -0.0623 -0.3420
 2012poe    c2311178   3.878   6.563   4.123 -0.0177 -0.4753 -0.8293
 2012poe    c2311179   4.005   6.632   4.176 -0.4608 -0.2415 -0.0479
 2012poe     o211180   3.975   6.737   4.265 -0.4310 -0.0904 -0.2156
 2012poe    c2311181   4.085   6.788   4.338 -0.4642 -0.4372  0.0767
 2012poe    c2311182   4.052   6.909   4.428 -0.1744 -0.2450 -0.0774
 2012poe     o211183   3.950   6.868   4.516 -0.4309  0.4769 -0.0313
 2012poe    c3111184   3.918   6.979   4.596  0.0063  0.6430 -0.0831
 2013poe    c3111185   0.361   0.592   5.090 -0.4064  0.0951  0.1216
 2013poe     o211186   0.420   0.497   5.177  0.2311  0.0842 -0.3108
 2013poe    c2311187   0.323   0.395   5.186  0.3468 -0.0189 -0.2412
 2013poe    c2311188   0.392   0.295   5.281 -0.3726 -0.3143 -0.0210
 2013poe     o211189   0.413   0.370   5.399 -0.0868 -0.0160 -0.2587
 2013poe    c2311190   0.487   0.283   5.482 -0.6064 -0.2706 -0.0562
 2013poe    c2311191   0.542   0.367   5.598 -0.2937  0.0580 -0.4364
 2013poe     o211192   0.595   0.487   5.547  0.2014 -0.0680 -0.2189
 2013poe    c2311193   0.683   0.542   5.643  0.1245  0.2330 -0.3213
 2013poe    c2311194   0.741   0.682   5.616  0.0707  0.2808 -0.1895
 2013poe     o211195   0.643   0.777   5.579 -0.4953 -0.1584  0.1598
 2013poe    c3111196   0.693   0.909   5.572 -0.0032 -0.3582 -0.1589
 2014poe    c3111197   1.008   5.148   4.234  0.4565  0.3521 -0.0803
 2014poe     o211198   0.922   5.216   4.323  0.1203  0.3094 -0.3721
 2014poe    c2311199   0.905   5.354   4.298 -0.3698  0.4473  0.6923
 2014poe    c2311200   0.762   5.397   4.335 -0.7439  0.0705 -0.2977
 2014poe     o211201   0.754   5.391   4.475 -0.6076  0.3353 -0.2779
 2014poe    c2311202   0.672   5.492   4.530 -0.7606  0.0486  0.0217
 2014poe    c2311203   0.690   5.486   4.683 -0.1977  0.0931 -0.0383
 2014poe     o211204   0.695   5.354   4.733 -0.1774  0.1057 -0.0068
 2014poe    c2311205   0.568   5.304   4.770 -0.1419 -0.3549 -0.4954
 2014poe    c2311206   0.595   5.168   4.837 -0.4059 -0.2487 -0.1736
 2014poe     o211207   0.699   5.101   4.768 -0.2634  0.0830 -0.2848
 2014poe    c3111208   0.709   4.971   4.822 -0.1558  0.3115  0.2529
 2015poe    c3111209   1.935   2.336   2.852  0.3398  0.4325  0.8300
 2015poe     o211210   1.903   2.204   2.889 -0.1425  0.3202  0.0331
 2015poe    c2311211   1.763   2.185   2.886 -0.1623  0.4746 -0.0266
 2015poe    c2311212   1.713   2.040   2.897  0.0887  0.3974  0.0968
 2015poe     o211213   1.753   1.969   2.782  0.2554 -0.5595  0.7360
 2015poe    c2311214   1.652   1.875   2.751  0.0578 -0.0763 -0.1400
 2015poe    c2311215   1.687   1.825   2.610  0.9807  0.4597 -0.1059
 2015poe     o211216   1.827   1.803   2.606  0.8621 -0.3318 -0.0401
 2015poe    c2311217   1.870   1.718   2.502  0.0634 -0.4229 -0.3032
 2015poe    c2311218   2.016   1.683   2.535  0.0308 -0.1828  0.0951
 2015poe     o211219   2.097   1.796   2.514  0.4455 -0.5517 -0.3065
 2015poe    c3111220   2.237   1.788   2.526  0.4759  0.5625  0.2335
 2016poe    c3111221   3.431   3.443   0.608 -0.4503  0.0452 -0.3941
 2016poe     o211222   3.502   3.564   0.615 -0.7777  0.2025  0.2586
 2016poe    c2311223   3.544   3.605   0.487  0.0301 -0.7430  0.2087
 2016poe    c2311224   3.635   3.729   0.485 -0.3643 -0.4569 -0.0345
 2016poe     o211225   3.563   3.849   0.504  0.5718  0.0099  0.6534
 2016poe    c2311226   3.631   3.961   0.452 -0.2346  0.1414 -0.1484
 2016poe    c2311227   3.537   4.080   0.479 -0.2742  0.1311 -0.2409
 2016poe     o211228   3.550   4.121   0.613 -0.5584 -0.0913 -0.1446
 2016poe    c2311229   3.435   4.189   0.657 -0.3794 -0.0840  0.3239
 2016poe    c2311230   3.462   4.286   0.773 -0.6613  0.8425 -0.3654
 2016poe     o211231   3.556   4.389   0.750  0.3314  0.1502  0.4815
 2016poe    c3111232   3.548   4.474   0.862  0.2257  0.5935  0.1396
 2017poe    c3111233   5.857   2.598   4.824  0.6210 -0.1444  0.0264
 2017poe     o211234   5.869   2.652   4.695 -0.0433 -0.3686 -0.1317
 2017poe    c2311235   5.765   2.608   4.611 -0.1692  0.0318 -0.1932
 2017poe    c2311236   5.674   2.730   4.590 -0.5212 -0.2554 -0.3449
 2017poe     o211237   5.744   2.838   4.534 -0.3812 -0.1503  0.0329
 2017poe    c2311238   5.677   2.960   4.555 -0.4307 -0.1775  0.0321
 2017poe    c2311239   5.739   3.080   4.481  0.1421 -0.3608  0.2082
 2017poe     o211240   5.863   3.112   4.540  0.3868 -0.1131 -0.4293
 2017poe    c2311241   5.940   3.184   4.447  0.3680 -0.0763 -0.4156
 2017poe    c2311242   6.061   3.238   4.527  0.0561  0.0403 -0.0178
 2017poe     o211243   6.125   3.130   4.592 -0.0901  0.3839  0.7077
 2017poe    c3111244   6.256   3.170   4.623 -0.1177  0.2410  1.0096
 2018poe    c3111245   1.822   6.109   3.012 -0.1316 -0.3185  0.3117
 2018poe     o211246   1.790   5.975   2.982  0.5086 -0.4400  0.1519
 2018poe    c2311247   1.868   5.929   2.874 -0.1665  0.1946 -0.6179
 2018poe    c2311248   1.832   5.780   2.853  0.1773 -0.0916  0.7435
 2018poe     o211249   1.692   5.767   2.848  0.1893  0.1177 -0.5263
 2018poe    c2311250   1.655   5.633   2.823 -0.0612  0.1429 -0.2989
 2018poe    c2311251   1.508   5.628   2.778 -0.0225 -0.2662 -0.3844
 2018poe     o211252   1.426   5.683   2.878 -0.0672 -0.4016 -0.3473
 2018poe    c2311253   1.294   5.671   2.830 -0.2013 -0.0652 -0.0668
 2018poe    c2311254   1.196   5.738   2.928 -0.5547 -0.2767 -0.2755
 2018poe     o211255   1.221   5.877   2.929  0.3992 -0.4404  0.5373
 2018poe    c3111256   1.121   5.935   3.011  0.0305 -0.4799  0.1232
 2019poe    c3111257   6.381   5.581   3.356 -0.4596 -0.2883  0.8053
 2019poe     o211258   6.289   5.540   3.455 -0.6043 -0.2119  0.7046
 2019poe    c2311259   6.244   5.409   3.427 -0.1251 -0.1976 -0.1656
 2019poe    c2311260   6.130   5.375   3.524  0.0824  0.1374  0.2004
 2019poe     o211261   6.015   5.454   3.503 -0.4204 -0.5544  0.3310
 2019poe    c2311262   5.910   5.415   3.589 -0.8682  0.4323  0.2436
 2019poe    c2311263   5.783   5.418   3.503 -0.3541 -0.3383 -0.5574
 2019poe     o211264   5.789   5.528   3.415 -0.0293  0.3328  0.2928
 2019poe    c2311265   5.670   5.547   3.342  0.2908 -0.2481 -0.3957
 2019poe    c2311266   5.690   5.658   3.238  0.0018  0.0883 -0.0982
 2019poe     o211267   5.779   5.624   3.133  0.0386 -0.3775  0.0805
 2019poe    c3111268   5.806   5.746   3.066 -0.3128 -0.2446  0.1791
 2020poe    c3111269   4.076   4.972   6.114 -0.6830  0.4945 -0.1777
 2020poe     o211270   4.123   5.012   5.987  0.4385 -0.2343 -0.0088
 2020poe    c2311271   4.264   5.012   5.992  0.4424 -0.5938 -0.1054
 2020poe    c2311272   4.297   5.059   5.849 -0.2730 -0.0702 -0.1039
 2020poe     o211273   4.225   5.178   5.825 -0.4103 -0.1112  0.1012
 2020poe    c2311274   4.250   5.220   5.693  0.8582  0.3019  0.4546
 2020poe    c2311275   4.190   5.360   5.673 -0.1417 -0.0999  0.5800
 2020poe     o211276   4.049   5.352   5.675 -0.1285 -0.7939 -0.3348
 2020poe    c2311277   3.993   5.481   5.670  0.0804 -0.6933 -0.1374
 2020poe    c2311278   3.841   5.454   5.679  0.0070 -0.3020 -0.1698
 2020poe     o211279   3.808   5.415   5.810  0.7493 -0.1395  0.0702
 2020poe    c3111280   3.698   5.468   5.880  0.0339 -0.1505 -1.0333
 2021poe    c3111281   0.105   1.835   0.850  0.0601 -0.1386 -0.8905
 2021poe     o211282   0.045   1.954   0.898 -0.0531 -0.6976  0.3974
 2021poe    c2311283   0.094   2.050   0.807 -0.1673 -0.6924  0.3403
 2021poe    c2311284   0.029   2.188   0.825 -0.0597 -0.6536  0.4301
 2021poe     o211285   0.014   2.204   0.965 -0.2128 -0.1715  0.3623
 2021poe    c2311286  -0.040   2.331   0.991 -0.5183 -0.1978 -0.1293
 2021poe    c2311287  -0.067   2.384   1.133 -0.3526  0.2130 -0.2475
 2021poe     o211288  -0.176   2.320   1.197  0.3310 -0.2189  0.4969
 2021poe    c2311289  -0.264   2.409   1.262 -0.3408 -0.3190 -0.2653
 2021poe    c2311290  -0.353   2.343   1.370  0.1650 -0.5135  0.0376
 2021poe     o211291  -0.287   2.311   1.490  0.3494  0.0532  0.0911
 2021poe    c3111292  -0.353   2.201   1.549 -0.1108  0.1023 -0.3201
 2022poe    c3111293   1.231   0.601   5.925  0.2369  0.1612 -0.0934
 2022poe     o211294   1.240   0.581   6.064 -0.3579  0.1750 -0.0485
 2022poe    c2311295   1.116   0.523   6.099 -0.1465 -0.3287 -0.1243
 2022poe    c2311296   1.124   0.425   6.218 -0.2725 -0.3109 -0.1014
 2022poe     o211297   1.140   0.510   6.330  0.1244 -0.2149 -0.2292
 2022poe    c2311298   1.113   0.442   6.450  0.1103  0.1056 -0.0489
 2022poe    c2311299   1.072   0.540   6.561 -0.2727  0.3228 -0.3799
 2022poe     o211300   1.182   0.616   6.607 -0.3403 -0.1228  0.5405
 2022poe    c2311301   1.147   0.684   6.725 -0.5794  0.4939  0.1199
 2022poe    c2311302   1.251   0.778   6.787 -0.2053  0.1047  0.0903
 2022poe     o211303   1.372   0.710   6.811 -0.2933 -0.0909 -0.0182
 2022poe    c3111304   1.475   0.794   6.859 -0.0058 -0.2813 -0.2930
 2023poe    c3111305   3.448   5.693   5.681 -0.0821  0.1306 -0.7181
 2023poe     o211306   3.363   5.617   5.598 -0.4384  0.0456 -0.2812
 2023poe    c2311307   3.300   5.701   5.504 -1.0817  0.4149  0.4752
 2023poe    c2311308   3.214   5.607   5.419  0.1994  0.0603 -0.4629
 2023poe     o211309   3.131   5.539   5.510  0.6191  0.1741  0.0075
 2023poe    c2311310   3.049   5.439   5.453  0.2022  0.2868  0.4013
 2023poe    c2311311   2.900   5.452   5.492  0.0525 -0.0727 -0.0482
 2023poe     o211312   2.883   5.418   5.628 -0.0791 -0.1907 -0.0937
 2023poe    c2311313   2.847   5.286   5.659  0.0170 -0.2430 -0.2074
 2023poe    c2311314   2.865   5.286   5.812  0.3724  0.7598 -0.2474
 2023poe     o211315   2.998   5.276   5.856  0.2740 -0.4038 -0.1938
 2023poe    c3111316   3.007   5.227   5.988  0.5875  0.2044  0.0156
 2024poe    c3111317   4.413   1.063   4.254  0.0056 -0.4696 -0.1708
 2024poe     o211318   4.461   1.107   4.379  0.4201  0.2513 -0.5748
 2024poe    c2311319   4.469   1.247   4.380  0.3308  0.2564 -0.6117
 2024poe    c2311320   4.537   1.281   4.514 -0.3096 -0.0796 -0.1968
 2024poe     o211321   4.435   1.265   4.609 -0.0771  0.0973  0.0849
 2024poe    c2311322   4.486   1.322   4.727  0.4121 -0.1798  0.0105
 2024poe    c2311323   4.471   1.233   4.852 -0.1956 -0.3454 -0.1748
 2024poe     o211324   4.333   1.208   4.866 -0.1845 -0.0622  0.4907
 2024poe    c2311325   4.313   1.133   4.984 -0.1304 -0.0455  0.5112
 2024poe    c2311326   4.165   1.093   4.966 -0.0963 -0.1289  0.4152
 2024poe     o211327   4.171   1.040   4.835 -0.0495 -0.0225  0.3742
 2024poe    c3111328   4.057   0.958   4.826  0.1169 -0.1784 -0.3499
 2025poe    c3111329   2.586   1.874   1.362 -0.1926  0.0347  0.3092
 2025poe     o211330   2.670   1.953   1.281  0.1092 -0.5170  0.0777
 2025poe    c2311331   2.705   1.891   1.159 -0.9884  0.1540 -0.5991
 2025poe    c2311332   2.772   2.001   1.075 -0.0433 -0.1457 -0.2622
 2025poe     o211333   2.849   2.075   1.167 -0.3254 -0.4213  0.1971
 2025poe    c2311334   2.879   2.195   1.099  0.1566 -0.5801  0.1304
 2025poe    c2311335   2.981   2.267   1.189 -0.1202 -0.3422  0.2561
 2025poe     o211336   2.943   2.266   1.325  0.3117  0.2856  0.3845
 2025poe    c2311337   3.060   2.285   1.401  0.7849  0.7077 -0.4269
 2025poe    c2311338   3.019   2.357   1.531  0.0342 -0.4288 -0.0172
 2025poe     o211339   2.987   2.494   1.543  0.1068 -0.3564 -0.6023
 2025poe    c3111340   2.893   2.554   1.457  0.0644  0.4387 -0.0110
 2026poe    c3111341   4.073   0.185   0.830 -0.7449 -0.1850  0.3105
 2026poe     o211342   3.998   0.303   0.811 -0.3574  0.1049  0.5748
 2026poe    c2311343   3.867   0.259   0.838 -0.5092  0.4965  0.4752
 2026poe    c2311344   3.750   0.351   0.798 -0.6942  0.3807  0.7482
 2026poe     o211345   3.769   0.479   0.853  0.0685  0.4799  0.2727
 2026poe    c2311346   3.675   0.575   0.810 -0.3331 -0.1335 -0.2310
 2026poe    c2311347   3.702   0.702   0.892  0.0317 -0.3817  0.0371
 2026poe     o211348   3.830   0.752   0.860  0.2210 -0.8101  0.1112
 2026poe    c2311349   3.852   0.862   0.946 -0.2263 -0.4064 -0.2853
 2026poe    c2311350   3.995   0.913   0.921 -0.2486 -0.2729 -0.1407
 2026poe     o211351   4.067   0.800   0.877 -0.1426 -0.3706  0.2754
 2026poe    c3111352   4.200   0.840   0.854 -0.4395  0.4290 -0.0596
 2027poe    c3111353   5.518   2.546   6.628 -1.1026  0.1309  0.4260
 2027poe     o211354   5.513   2.661   6.546 -0.7789  0.3589  0.7256
 2027poe    c2311355   5.602   2.756   6.601  0.1320 -0.0321 -0.0318
 2027poe    c2311356   5.579   2.885   6.521  0.1590  0.2491  0.4089
 2027poe     o211357   5.447   2.933   6.534 -0.0450 -0.2529  0.2284
 2027poe    c2311358   5.463   3.073   6.534  0.0640 -0.2654  0.1719
 2027poe    c2311359   5.323   3.131   6.505  0.0469 -0.3954 -0.0062
 2027poe     o211360   5.240   3.050   6.585  0.1594 -0.5232 -0.0182
 2027poe    c2311361   5.110   3.094   6.552  0.3484 -0.3443 -0.5346
 2027poe    c2311362   5.007   2.982   6.577 -0.0214  0.1193  0.0345
 2027poe     o211363   5.065   2.865   6.525  0.4750  0.3412  0.0810
 2027poe    c3111364   4.968   2.771   6.483  0.6027  0.4429 -0.4455
 2028poe    c3111365   4.936   5.498   3.139 -0.1748  0.4512 -0.1595
 2028poe     o211366   4.869   5.405   3.057  0.0704 -0.2353  0.4079
 2028poe    c2311367   4.967   5.333   2.985 -0.3419 -0.1213 -0.2764
 2028poe    c2311368   4.923   5.303   2.840  0.1272  0.0661 -0.4577
 2028poe     o211369   4.794   5.256   2.809  0.2384 -0.0253 -0.7808
 2028poe    c2311370   4.796   5.119   2.776  0.3652 -0.2226  0.0210
 2028poe    c2311371   4.797   5.013   2.887 -0.3877 -0.0631  0.1879
 2028poe     o211372   4.683   5.022   2.969 -0.3955  0.4015  0.1237
 2028poe    c2311373   4.726   4.973   3.094 -0.0554 -0.2634 -0.2520
 2028poe    c2311374   4.620   4.980   3.206 -0.1046 -0.1807 -0.3037
 2028poe     o211375   4.591   5.116   3.229 -0.0968 -0.2009 -0.1764
 2028poe    c3111376   4.473   5.123   3.306  0.0994  0.1951  0.0960
 2029poe    c3111377   1.505   3.962   3.073  0.3439 -0.4211  0.6051
 2029poe     o211378   1.441   3.856   3.005  0.4958 -0.0052 -0.1912
 2029poe    c2311379   1.524   3.749   2.964 -0.2270 -0.5627 -0.2203
 2029poe    c2311380   1.443   3.622   2.931 -0.5901 -0.6298  0.8846
 2029poe     o211381   1.330   3.666   2.859  0.0263 -0.4143  0.0227
 2029poe    c2311382   1.261   3.545   2.834  0.5454 -0.5872 -0.5906
 2029poe    c2311383   1.159   3.588   2.727  0.4672  0.5058 -0.0920
 2029poe     o211384   1.074   3.688   2.778 -0.1803 -0.0900  0.0031
 2029poe    c2311385   0.975   3.731   2.687  0.0780 -0.0048 -0.2390
 2029poe    c2311386   0.856   3.800   2.756  0.1269 -0.5617  0.4076
 2029poe     o211387   0.760   3.716   2.817 -0.4128  0.2101  0.6369
 2029poe    c3111388   0.681   3.812   2.884 -0.2402  0.1220  0.9649
 2030poe    c3111389   1.605   2.256   3.229 -0.5737  0.5156  0.3126
 2030poe     o211390   1.591   2.353   3.128  0.0340 -0.3041 -0.5870
 2030poe    c2311391   1.652   2.474   3.170  0.2917 -0.6187 -0.0470
 2030poe    c2311392   1.686   2.534   3.032  0.3209  0.2404  0.3298
 2030poe     o211393   1.561   2.548   2.968  0.3616 -0.0214  0.1908
 2030poe    c2311394   1.545   2.658   2.882 -0.1794 -0.0009  0.3156
 2030poe    c2311395   1.415   2.663   2.800  0.0814  0.0833 -0.0945
 2030poe     o211396   1.324   2.691   2.904  0.0119 -0.0261 -0.1259
 2030poe    c2311397   1.196   2.725   2.856 -0.1276 -0.5589 -0.1355
 2030poe    c2311398   1.078   2.752   2.952  0.5660  0.2202  0.5089
 2030poe     o211399   1.049   2.641   3.033 -0.2397  0.1261  0.0973
 2030poe    c3111400   0.916   2.628   3.080 -0.1607  0.3637  0.3893
 2031poe    c3111401   3.479   6.016   1.209  0.7108 -0.2656  0.0913
 2031poe     o211402   3.588   6.103   1.225  0.7572 -0.3502  0.2366
 2031poe    c2311403   3.570   6.168   1.349  0.3866  0.5473 -0.2714
 2031poe    c2311404   3.686   6.268   1.367  0.4796  0.3032  0.5550
 2031poe     o211405   3.801   6.196   1.330  0.0215 -0.3761  0.4158
 2031poe    c2311406   3.913   6.283   1.330 -0.0782 -0.2247 -1.0452
 2031poe    c2311407   4.038   6.208   1.281  0.5224 -0.1529  0.3443
 2031poe     o211408   4.046   6.080   1.339 -0.6089 -0.4209 -0.0667
 2031poe    c2311409   4.157   6.000   1.304 -0.3899 -0.1793  0.0677
 2031poe    c2311410   4.140   5.860   1.365  0.2025 -0.4101 -0.2935
 2031poe     o211411   4.025   5.788   1.328  0.2745 -0.6726 -0.0125
 2031poe    c3111412   4.003   5.668   1.398 -0.0568 -0.5366  0.1199
 2032poe    c3111413   0.074   5.341   4.181  0.2134 -0.0542  0.2579
 2032poe     o211414  -0.039   5.275   4.233  0.0562 -0.1230 -0.1611
 2032poe    c2311415  -0.080   5.163   4.159 -0.4623  0.4904 -0.8147
 2032poe    c2311416  -0.205   5.097   4.221  0.5519 -0.3298  0.4004
 2032poe     o211417  -0.296   5.199   4.256  0.5759 -0.5229  1.0318
 2032poe    c2311418  -0.416   5.160   4.318 -0.1837  0.2043  0.0401
 2032poe    c2311419  -0.531   5.262   4.303 -0.0008  0.3691 -0.2525
 2032poe     o211420  -0.497   5.390   4.349  0.0243  0.1048  0.4786
 2032poe    c2311421  -0.613   5.468   4.334 -0.3231 -0.5574 -0.3350
 2032poe    c2311422  -0.584   5.576   4.228  0.6684 -0.1298  0.3574
 2032poe     o211423  -0.466   5.633   4.281  0.7070 -0.5074  0.6874
 2032poe    c3111424  -0.436   5.760   4.226 -0.0944 -0.5308  0.1786
 2033poe    c3111425   6.224   4.799   3.551 -0.4583  0.0481  0.3601
 2033poe     o211426   6.201   4.662   3.529  0.3756  0.0032 -0.2654
 2033poe    c2311427   6.171   4.590   3.647  0.0235 -0.1979 -0.4756
 2033poe    c2311428   6.120   4.457   3.590 -0.2131 -0.1476 -0.3832
 2033poe     o211429   6.023   4.479   3.490 -0.3285  0.2957 -0.1723
 2033poe    c2311430   5.958   4.369   3.431  0.5101 -0.1670 -0.2384
 2033poe    c2311431   5.851   4.432   3.341  0.1278 -0.1993  0.1880
 2033poe     o211432   5.908   4.541   3.272  0.0351 -0.4308 -0.2558
 2033poe    c2311433   5.863   4.540   3.138 -0.6403  0.0082 -0.0377
 2033poe    c2311434   5.957   4.478   3.034  0.0354  0.5190  0.2652
 2033poe     o211435   6.069   4.562   3.014 -0.2793  0.8745 -0.0110
 2033poe    c3111436   6.137   4.529   2.895 -0.0595  0.6026  0.1894
 2034poe    c3111437   5.420   4.872   0.379  0.3907 -0.4593  0.1336
 2034poe     o211438   5.393   4.983   0.461  0.1034 -0.4732  0.0593
 2034poe    c2311439   5.471   5.000   0.578  0.2431 -0.1315 -0.0819
 2034poe    c2311440   5.514   5.144   0.612  0.1778  0.0000 -0.5421
 2034poe     o211441   5.410   5.238   0.622 -0.0829 -0.3389  0.0085
 2034poe    c2311442   5.455   5.369   0.646  0.1900 -0.3769 -0.2833
 2034poe    c2311443   5.330   5.454   0.614  0.1947 -0.1407  0.3104
 2034poe     o211444   5.216   5.393   0.669 -0.0293  0.2542  0.2862
 2034poe    c2311445   5.099   5.458   0.623 -0.3323 -0.1865  0.4211
 2034poe    c2311446   4.984   5.387   0.696  0.2780 -0.6417  0.9427
 2034poe     o211447   4.991   5.250   0.661 -0.0343 -0.4522  0.1139
 2034poe    c3111448   4.876   5.189   0.715 -0.2910 -0.1892 -0.1303
 2035poe    c3111449   1.972   2.245   5.689  0.3295 -0.0744 -0.1192
 2035poe     o211450   1.974   2.381   5.726  0.3242 -0.1784  0.2609
 2035poe    c2311451   2.081   2.455   5.672  0.1287 -0.1627 -0.1077
 2035poe    c2311452   2.086   2.601   5.722 -0.0073 -0.1741 -0.0602
 2035poe     o211453   2.081   2.583   5.861  0.5497 -0.3786 -0.0643
 2035poe    c2311454   2.054   2.704   5.927 -0.1542 -0.1591 -0.7455
 2035poe    c2311455   1.993   2.687   6.068 -0.0441  0.2733 -0.6433
 2035poe     o211456   1.874   2.615   6.093  0.0225  0.4180  0.1110
 2035poe    c2311457   1.849   2.584   6.228 -0.5072 -0.0743 -0.0992
 2035poe    c2311458   1.698   2.568   6.256 -0.4409 -0.2320  0.1741
 2035poe     o211459   1.650   2.445   6.206  0.4959 -0.4182 -0.2895
 2035poe    c3111460   1.512   2.451   6.179  0.3760  0.7972  0.4871
 2036poe    c3111461   2.648   3.333   2.591 -0.0902 -0.3171  0.5252
 2036poe     o211462   2.756   3.410   2.544 -0.5850  0.1055  0.0616
 2036poe    c2311463   2.857   3.318   2.510 -0.4164  0.3101  0.0015
 2036poe    c2311464   2.976   3.381   2.435 -0.0622 -0.0915  0.2216
 2036poe     o211465   2.921   3.464   2.336  0.5705  0.0023 -0.0495
 2036poe    c2311466   3.008   3.568   2.295  0.1216  0.4248  0.0585
 2036poe    c2311467   2.944   3.663   2.191 -0.1106 -0.2021 -0.3825
 2036poe     o211468   2.830   3.728   2.242  0.5389  0.4198  0.3213
 2036poe    c2311469   2.795   3.850   2.181 -0.3637  0.1135  0.2125
 2036poe    c2311470   2.660   3.890   2.245 -0.0979  0.2485  0.6960
 2036poe     o211471   2.665   3.897   2.386 -0.1958 -0.1164  0.7183
 2036poe    c3111472   2.541   3.948   2.429 -0.4995 -0.1085 -0.1416
 2037poe    c3111473   4.999   3.073   3.051 -0.0652  0.4641  0.2419
 2037poe     o211474   5.005   2.982   3.158 -0.2512 -0.2010 -0.3066
 2037poe    c2311475   4.885   2.908   3.161 -0.4005  0.0630  0.7047
 2037poe    c2311476   4.910   2.789   3.255  0.0707 -0.2372  0.2025
 2037poe     o211477   4.968   2.860   3.362 -0.2773  0.0341  0.2122
 2037poe    c2311478   5.001   2.785   3.476 -0.3408  0.0222  0.2225
 2037poe    c2311479   5.008   2.870   3.604 -0.2916  0.7856 -0.2820
 2037poe     o211480   5.111   2.966   3.592  0.5328 -0.0394  0.0625
 2037poe    c2311481   5.125   3.029   3.718 -0.4594  0.3476 -0.0077
 2037poe    c2311482   5.221   3.149   3.705  0.1978 -0.1887 -0.1948
 2037poe     o211483   5.150   3.254   3.643 -0.2774 -0.5031 -0.1934
 2037poe    c3111484   5.249   3.355   3.647 -0.3180 -0.4724  0.0471
 2038poe    c3111485   2.245   6.492   0.734  0.3933 -0.2346 -0.0419
 2038poe     o211486   2.188   6.562   0.626  0.1859  0.0413  0.2441
 2038poe    c2311487   2.099   6.471   0.566 -0.2914  0.4675  0.2993
 2038poe    c2311488   2.062   6.527   0.427  0.0470  0.0636  0.0428
 2038poe     o211489   2.180   6.529   0.350  0.3938 -0.5943  0.5527
 2038poe    c2311490   2.150   6.565   0.217 -0.1714 -0.2034  0.7837
 2038poe    c2311491   2.276   6.569   0.128 -0.4659  0.2533  0.3847
 2038poe     o211492   2.388   6.604   0.207  0.0137  0.2619 -0.2935
 2038poe    c2311493   2.489   6.633   0.114 -0.1655 -0.3309 -0.6775
 2038poe    c2311494   2.620   6.671   0.185 -0.4546 -0.1979 -0.2132
 2038poe     o211495   2.607   6.759   0.294  0.0260  0.1876 -0.4650
 2038poe    c3111496   2.733   6.749   0.356 -0.1331 -0.1395 -0.1957
 2039poe    c3111497   0.802   2.970   6.041  0.1182 -0.0028  0.0467
 2039poe     o211498   0.802   3.102   5.993 -0.3319  0.1347  0.4157
 2039poe    c2311499   0.711   3.119   5.887  0.2220 -0.1607 -0.1095
 2039poe    c2311500   0.735   3.263   5.839  0.1394 -0.1209 -0.0305
 2039poe     o211501   0.873   3.291   5.844  0.0992  0.1622 -0.4133
 2039poe    c2311502   0.893   3.430   5.845  0.0834  0.1639 -0.2258
 2039poe    c2311503   1.040   3.475   5.835  0.2743 -0.1585  1.0100
 2039poe     o211504   1.126   3.387   5.903  0.3425 -0.6829  0.2590
 2039poe    c2311505   1.258   3.435   5.910  0.1751 -0.1013 -0.5072
 2039poe    c2311506   1.309   3.362   6.035 -0.1464  0.3309 -0.1194
 2039poe     o211507   1.229   3.360   6.151  0.0879 -0.0488  0.0385
 2039poe    c3111508   1.310   3.306   6.253  0.1386 -0.2748 -0.1191
 2040poe    c3111509   5.379   7.062   0.297  0.3665  0.2142 -0.0617
 2040poe     o211510   5.395   7.181   0.370 -0.0786  0.0133  0.3778
 2040poe    c2311511   5.290   7.230   0.450 -0.5752 -0.1295 -0.1803
 2040poe    c2311512   5.327   7.360   0.525  0.0623 -0.0584 -0.6130
 2040poe     o211513   5.452   7.332   0.584 -0.2699 -0.2888 -0.0132
 2040poe    c2311514   5.506   7.438   0.660 -0.0962 -0.0191 -0.5089
 2040poe    c2311515   5.642   7.398   0.722 -0.4333  0.2691  0.4297
 2040poe     o211516   5.730   7.365   0.618 -0.5790  0.0124  0.3869
 2040poe    c2311517   5.849   7.309   0.668 -0.5016 -0.1254  0.0568
 2040poe    c2311518   5.963   7.263   0.575 -0.3550 -0.0435  0.1946
 2040poe     o211519   6.017   7.372   0.505  0.3255 -0.5141 -0.0226
 2040poe    c3111520   5.949   7.419   0.390  0.3806 -0.1935  0.0752
 2041poe    c3111521   2.717   1.950   6.298  0.3067 -0.3599 -0.0902
 2041poe     o211522   2.599   1.916   6.228  0.2369 -0.6286  0.1564
 2041poe    c2311523   2.633   1.948   6.095  0.2149 -0.0516  0.2882
 2041poe    c2311524   2.506   1.969   6.011  0.3789 -0.2382 -0.0071
 2041poe     o211525   2.433   2.085   6.042 -0.1269 -0.3268 -0.8288
 2041poe    c2311526   2.331   2.098   5.945 -0.1056  0.5596 -0.7452
 2041poe    c2311527   2.256   2.228   5.978  0.0557  0.4662  0.0176
 2041poe     o211528   2.213   2.215   6.111  0.5465 -0.3392  0.1030
 2041poe    c2311529   2.132   2.320   6.160  0.8203 -0.0961  0.0368
 2041poe    c2311530   2.090   2.297   6.306  0.2659  0.0269 -0.1021
 2041poe     o211531   2.205   2.235   6.359 -0.1637 -0.3469  0.4132
 2041poe    c3111532   2.207   2.259   6.498 -0.0359  0.1784  0.3244
 2042poe    c3111533   3.909   2.798   4.054  0.1820  0.0806 -0.0183
 2042poe     o211534   3.810   2.750   4.143  0.4407 -0.5398 -0.0602
 2042poe    c2311535   3.840   2.789   4.275  0.3590 -0.3205 -0.1050
 2042poe    c2311536   3.710   2.779   4.357  0.2541 -0.1834 -0.2533
 2042poe     o211537   3.672   2.644   4.343  0.0474 -0.0922 -0.5832
 2042poe    c2311538   3.533   2.636   4.368  0.2260  0.1136  0.5200
 2042poe    c2311539   3.481   2.496   4.331  0.5366  0.1199  0.0589
 2042poe     o211540   3.485   2.472   4.192  0.2285  0.5821 -0.0300
 2042poe    c2311541   3.435   2.342   4.169  1.0489  0.2631 -0.0294
 2042poe    c2311542   3.518   2.262   4.067  0.2413 -0.1973 -0.3397
 2042poe     o211543   3.643   2.246   4.131 -0.0341  0.1011  0.2797
 2042poe    c3111544   3.721   2.143   4.075 -0.8788 -0.0376 -0.6640
 2043poe    c3111545   6.859   4.515   2.560  0.3723  0.5746 -0.0015
 2043poe     o211546   6.991   4.474   2.535  0.0845 -0.1675 -0.3175
 2043poe    c2311547   7.056   4.450   2.658 -0.2236 -0.7323 -0.2621
 2043poe    c2311548   7.193   4.397   2.613 -0.2597 -0.9460 -0.1244
 2043poe     o211549   7.222   4.450   2.486 -0.4828 -0.0922  0.1747
 2043poe    c2311550   7.334   4.388   2.429 -0.2790  0.2511  0.1969
 2043poe    c2311551   7.374   4.481   2.313 -0.2905  0.4960  0.3908
 2043poe     o211552   7.261   4.492   2.230 -0.1598 -0.1441  0.1225
 2043poe    c2311553   7.291   4.527   2.096  0.3100  0.0515  0.2770
 2043poe    c2311554   7.183   4.620   2.038  0.1949 -0.2597 -0.0091
 2043poe     o211555   7.163   4.735   2.118  0.2247 -0.1469 -0.1646
 2043poe    c3111556   7.234   4.847   2.071 -0.1284  0.1980  0.1213
 2044poe    c3111557   2.974   4.002   3.729 -0.2360 -0.0860  0.0709
 2044poe     o211558   2.931   3.868   3.721  0.6842 -0.3882  0.0834
 2044poe    c2311559   2.877   3.826   3.597  0.4063 -0.0672  0.0948
 2044poe    c2311560   2.870   3.673   3.588  0.0010 -0.0461  0.0348
 2044poe     o211561   2.985   3.609   3.639  0.3938  0.2870 -0.4192
 2044poe    c2311562   2.987   3.469   3.620  0.0443  0.2699 -0.3431
 2044poe    c2311563   3.135   3.430   3.633 -0.0106  0.2180  0.1345
 2044poe     o211564   3.189   3.506   3.740  0.1006  0.4264 -0.0674
 2044poe    c2311565   3.315   3.471   3.792 -0.1193 -0.9162 -0.3900
 2044poe    c2311566   3.367   3.554   3.911  0.3947 -0.9049 -0.6228
 2044poe     o211567   3.435   3.668   3.863  0.0487 -0.3754  0.1309
 2044poe    c3111568   3.481   3.755   3.965  0.7208  0.0823 -0.5491
 2045poe    c3111569   0.908   1.283   3.903 -0.3014  0.1105 -0.8006
 2045poe     o211570   0.826   1.190   3.835 -0.5040 -0.0886 -0.2850
 2045poe    c2311571   0.848   1.054   3.863 -0.3804 -0.0008  0.0526
 2045poe    c2311572   0.736   0.953   3.830 -0.4548  0.2005 -0.3110
 2045poe     o211573   0.618   0.992   3.896 -0.2587  0.7092 -0.2538
 2045poe    c2311574   0.508   0.917   3.848  0.4448 -0.5174  0.0063
 2045poe    c2311575   0.375   0.966   3.908  0.3062  0.1346 -0.8216
 2045poe     o211576   0.324   1.081   3.843 -0.2285 -0.1785 -0.9591
 2045poe    c2311577   0.210   1.134   3.907  0.3790  0.0758 -0.0733
 2045poe    c2311578   0.155   1.252   3.826 -0.0291  0.4877  0.7897
 2045poe     o211579   0.261   1.331   3.778 -0.0815  0.1352  0.0662
 2045poe    c3111580   0.206   1.450   3.726  0.6319  0.3615 -0.1929
 2046poe    c3111581   0.185   2.474   5.727  0.4018 -0.1631  0.2756
 2046poe     o211582   0.238   2.344   5.731 -0.1174 -0.4036 -0.3414
 2046poe    c2311583   0.314   2.316   5.847 -0.1926  0.3353 -0.1133
 2046poe    c2311584   0.295   2.164   5.862  0.4916  0.2381 -0.1794
 2046poe     o211585   0.319   2.097   5.741 -0.9833 -0.4248 -0.1305
 2046poe    c2311586   0.363   1.966   5.769 -0.7922 -0.3700 -0.1708
 2046poe    c2311587   0.414   1.901   5.639 -0.1858 -0.1135 -0.0634
 2046poe     o211588   0.318   1.895   5.535 -0.0658  0.5598 -0.2222
 2046poe    c2311589   0.299   1.760   5.498  0.3949  0.4197  0.0335
 2046poe    c2311590   0.232   1.756   5.359  0.4706  0.0533  0.0064
 2046poe     o211591   0.117   1.838   5.365  0.0551 -0.5390  0.1868
 2046poe    c3111592   0.088   1.884   5.235  0.1324 -0.1680  0.3010
 2047poe    c3111593   1.198   5.784   6.102  0.1595  0.3598 -0.5373
 2047poe     o211594   1.115   5.673   6.126  0.2693  0.4523  0.2682
 2047poe    c2311595   0.983   5.709   6.160  0.2090  0.3706  0.1176
 2047poe    c2311596   0.891   5.754   6.045  0.4892 -0.7764 -0.5685
 2047poe     o211597   0.914   5.882   5.990 -0.5508 -0.4500 -0.2739
 2047poe    c2311598   0.877   5.904   5.856 -0.2386 -0.0665 -0.2998
 2047poe    c2311599   0.926   6.042   5.811 -0.5224  0.0952 -0.1201
 2047poe     o211600   1.059   6.060   5.768 -0.5053 -0.5474 -0.3488
 2047poe    c2311601   1.160   6.066   5.867 -0.0012  0.0923 -0.8922
 2047poe    c2311602   1.298   6.111   5.814  0.2131  0.4159 -0.0683
 2047poe     o211603   1.367   6.008   5.748  0.0322  0.1468  0.1574
 2047poe    c3111604   1.482   6.060   5.684 -0.0971  0.1948 -0.0344
 2048poe    c3111605   1.698   0.900   2.979 -0.1324 -0.2712  0.2504
 2048poe     o211606   1.839   0.903   2.980 -0.1383  0.5743 -0.4485
 2048poe    c2311607   1.902   1.002   3.058 -0.1674  0.6569 -0.5282
 2048poe    c2311608   2.051   1.007   3.018 -0.0940  0.0468 -0.3538
 2048poe     o211609   2.088   0.871   3.019  0.2741  0.1475  0.0527
 2048poe    c2311610   2.224   0.839   2.998  0.1922  0.3083 -0.7577
 2048poe    c2311611   2.205   0.688   2.974 -0.5824  0.3239 -0.2851
 2048poe     o211612   2.104   0.657   2.882 -0.2075 -0.0601 -0.5724
 2048poe    c2311613   2.047   0.528   2.892 -0.2422  0.0397  0.6144
 2048poe    c2311614   1.914   0.525   2.815  0.1765 -0.1575 -0.1038
 2048poe     o211615   1.827   0.631   2.848  0.3732 -0.0571  0.0903
 2048poe    c3111616   1.692   0.599   2.825  0.3905 -0.4302  0.4822
 2049poe    c3111617   0.899   3.038   3.769  0.0078  0.1817 -0.1079
 2049poe     o211618   0.990   3.034   3.876 -0.0767 -0.4671 -0.0554
 2049poe    c2311619   0.938   3.089   3.995  0.1913  0.1281 -0.2063
 2049poe    c2311620   1.022   3.034   4.112 -0.0335  0.0038 -0.1023
 2049poe     o211621   1.158   3.039   4.076  0.0713 -0.3477  0.2369
 2049poe    c2311622   1.240   3.020   4.190  0.0345  0.1302  0.3472
 2049poe    c2311623   1.255   3.134   4.292 -0.3777  0.6612 -0.1830
 2049poe     o211624   1.142   3.149   4.375 -0.8211 -0.4263 -0.5702
 2049poe    c2311625   1.123   3.281   4.420  0.0815 -0.6462  0.5037
 2049poe    c2311626   0.998   3.279   4.510 -0.4243 -0.1510 -0.1814
 2049poe     o211627   0.872   3.294   4.448 -0.3809  0.6258 -0.0918
 2049poe    c3111628   0.770   3.332   4.538 -0.1123  0.2147  0.3912
 2050poe    c3111629   2.554   0.475   0.275  0.0447  0.4262  0.2699
 2050poe     o211630   2.651   0.568   0.319  0.0209  0.4893  0.1901
 2050poe    c2311631   2.663   0.566   0.459 -0.1889 -0.0001  0.2034
 2050poe    c2311632   2.736   0.691   0.512 -0.6528  0.0126  0.8328
 2050poe     o211633   2.649   0.798   0.484 -0.0742  0.2245 -0.2390
 2050poe    c2311634   2.678   0.910   0.563  0.1189  0.1740 -0.2389
 2050poe    c2311635   2.629   0.911   0.709  0.5870  0.1949 -0.0783
 2050poe     o211636   2.491   0.928   0.733  0.5930  0.0586  0.0538
 2050poe    c2311637   2.455   0.875   0.859  0.3539  0.5219  0.1833
 2050poe    c2311638   2.318   0.914   0.918  0.0983  0.2219 -0.2119
 2050poe     o211639   2.216   0.843   0.850  0.3558  0.0054 -0.3769
 2050poe    c3111640   2.090   0.852   0.913  0.3419 -0.0205 -0.4010
 2051poe    c3111641   1.210   1.915   1.968 -0.4544  0.6364  0.4851
 2051poe     o211642   1.077   1.878   1.940 -0.1658  0.2166 -0.3501
 2051poe    c2311643   0.998   1.991   1.970  0.0391  0.3241 -0.2187
 2051poe    c2311644   0.855   1.953   1.930 -0.1780  0.5051  0.3783
 2051poe     o211645   0.827   1.833   1.998 -0.0014  0.4518  0.3557
 2051poe    c2311646   0.696   1.794   1.965  0.0801 -0.0087  0.5695
 2051poe    c2311647   0.686   1.649   2.018  0.3214 -0.1047  0.3516
 2051poe     o211648   0.799   1.576   1.977  0.3090 -0.1908  0.4697
 2051poe    c2311649   0.788   1.438   2.005 -0.7045 -0.1210  0.4458
 2051poe    c2311650   0.909   1.374   2.076 -0.1277  0.0061 -0.4156
 2051poe     o211651   1.021   1.391   1.992  0.4063 -0.2693  0.2357
 2051poe    c3111652   1.141   1.337   2.043  0.4908 -0.1136  0.2046
 2052poe    c3111653   4.554   3.552   0.736  0.2502  0.1966  0.0030
 2052poe     o211654   4.470   3.581   0.846 -0.5589  0.0031 -0.5582
 2052poe    c2311655   4.431   3.459   0.906 -0.7142  0.1020 -0.4603
 2052poe    c2311656   4.370   3.465   1.047 -0.5782 -0.6443 -0.3673
 2052poe     o211657   4.263   3.557   1.056  0.0774  0.0992 -0.0020
 2052poe    c2311658   4.223   3.573   1.190  0.0134 -0.1833  0.0140
 2052poe    c2311659   4.154   3.710   1.199  0.2639 -0.0712  0.2410
 2052poe     o211660   4.064   3.704   1.091 -0.2964 -0.1678  0.7123
 2052poe    c2311661   3.982   3.819   1.087 -0.2312 -0.1535 -0.5849
 2052poe    c2311662   3.887   3.779   0.972 -0.4986 -0.0537 -0.4004
 2052poe     o211663   3.968   3.736   0.865  0.0749 -0.0275  0.0158
 2052poe    c3111664   3.909   3.786   0.747 -0.8436 -0.6115  0.2193
 2053poe    c3111665   5.672   0.314   5.163  0.5786 -0.2824  0.2045
 2053poe     o211666   5.743   0.418   5.100 -0.1348  0.2377  0.2549
 2053poe    c2311667   5.663   0.509   5.028  0.3609  0.0581 -0.5321
 2053poe    c2311668   5.746   0.637   5.011 -0.3824  0.6593  0.2592
 2053poe     o211669   5.789   0.678   5.139 -0.6613  0.0975  0.5316
 2053poe    c2311670   5.860   0.798   5.125 -0.2127 -0.2454 -0.1561
 2053poe    c2311671   5.936   0.835   5.253  0.9504  0.3354 -0.9912
 2053poe     o211672   6.004   0.718   5.293  0.0730  0.2019  0.1722
 2053poe    c2311673   6.110   0.730   5.385  0.5071  0.2027 -0.3217
 2053poe    c2311674   6.184   0.599   5.419  0.1068  0.1760  0.4729
 2053poe     o211675   6.211   0.508   5.315 -0.0657  0.3564  0.2696
 2053poe    c3111676   6.337   0.452   5.343 -0.4326 -0.3544  0.5157
 2054poe    c3111677   0.818   1.194   6.497  0.2309 -0.7825 -0.5229
 2054poe     o211678   0.951   1.150   6.479  0.4552 -0.1332 -0.4861
 2054poe    c2311679   1.018   1.150   6.603  0.3199 -0.8425 -0.4112
 2054poe    c2311680   1.158   1.104   6.559  0.5482  0.1044 -0.6818
 2054poe     o211681   1.153   1.001   6.463 -0.1240 -0.2581 -0.2681
 2054poe    c2311682   1.276   0.957   6.410  0.1150  0.0216  0.0444
 2054poe    c2311683   1.241   0.886   6.277 -0.4439  0.0250  0.1883
 2054poe     o211684   1.166   0.969   6.191  0.1976  0.3298 -0.0805
 2054poe    c2311685   1.157   0.916   6.061 -0.3910 -0.2615  0.1945
 2054poe    c2311686   1.087   0.996   5.949  0.2046 -0.4582 -0.3310
 2054poe     o211687   0.954   1.023   5.988  0.1132  0.1655 -1.0693
 2054poe    c3111688   0.898   1.088   5.875 -0.4650  0.6118 -0.5306
 2055poe    c3111689   6.044   6.333   5.542 -0.7869 -0.3804  0.2506
 2055poe     o211690   6.024   6.419   5.653  0.1320  0.3359 -0.1285
 2055poe    c2311691   6.070   6.357   5.771 -0.0865 -0.0679 -0.2532
 2055poe    c2311692   6.074   6.463   5.883  0.1739 -0.2834 -0.0571
 2055poe     o211693   5.944   6.497   5.925  0.2349 -0.3342  0.1753
 2055poe    c2311694   5.946   6.547   6.056  0.2554 -0.1170  0.0920
 2055poe    c2311695   5.804   6.563   6.113 -0.0355  0.3664 -0.7601
 2055poe     o211696   5.722   6.590   6.001 -0.0934  0.2255 -0.7510
 2055poe    c2311697   5.597   6.618   6.059  0.5543  0.2864  0.6650
 2055poe    c2311698   5.506   6.668   5.945  0.9199  0.0678  0.2690
 2055poe     o211699   5.513   6.571   5.843  0.0641 -0.0854  0.3449
 2055poe    c3111700   5.400   6.585   5.759 -0.0137  0.8742  0.5984
 2056poe    c3111701   3.774   5.776   3.559  0.6214  0.2982 -0.1258
 2056poe     o211702   3.901   5.821   3.601  0.4861  0.1699  0.4205
 2056poe    c2311703   3.944   5.748   3.714 -0.5254 -0.4336  0.4251
 2056poe    c2311704   4.050   5.807   3.808 -0.2715 -0.3513  0.0875
 2056poe     o211705   4.165   5.850   3.739 -0.4803 -0.2921 -0.2260
 2056poe    c2311706   4.243   5.936   3.819  0.0980 -0.5118 -0.5475
 2056poe    c2311707   4.372   5.959   3.738  0.3375 -0.8677 -0.2754
 2056poe     o211708   4.342   6.025   3.616  0.1466 -0.1403  0.1577
 2056poe    c2311709   4.444   5.998   3.522  0.1595  0.1483  0.0918
 2056poe    c2311710   4.447   6.097   3.404 -0.6848  0.5936  0.4290
 2056poe     o211711   4.370   6.084   3.286 -0.7064  0.5234  0.4507
 2056poe    c3111712   4.406   6.177   3.186 -0.1974  0.4635  0.5760
 2057poe    c3111713   5.726   5.664   0.553  0.3357 -0.2339 -0.4894
 2057poe     o211714   5.724   5.583   0.438 -0.7505 -0.3852 -0.3810
 2057poe    c2311715   5.670   5.649   0.327  0.2013  0.7790 -0.1709
 2057poe    c2311716   5.623   5.559   0.211  0.1342 -0.0584  0.5003
 2057poe     o211717   5.730   5.487   0.154 -0.3139 -0.2453 -0.1125
 2057poe    c2311718   5.685   5.399   0.053  0.1731  0.2582 -0.7816
 2057poe    c2311719   5.802   5.329  -0.019  0.0024 -0.3582 -0.4724
 2057poe     o211720   5.875   5.263   0.081 -0.3235 -0.2672 -0.1691
 2057poe    c2311721   5.983   5.193   0.022 -0.2922 -0.0744 -0.3424
 2057poe    c2311722   6.052   5.129   0.144  0.2007  0.6293 -0.2469
 2057poe     o211723   6.045   5.229   0.243 -1.2447  0.1141  0.1910
 2057poe    c3111724   6.130   5.190   0.349 -0.4857  0.3622 -0.3264
 2058poe    c3111725   2.341   1.863   2.935 -0.1920  0.3560 -0.1799
 2058poe     o211726   2.275   1.887   3.057  0.2974 -0.2369  0.2050
 2058poe    c2311727   2.322   1.790   3.148 -0.3434 -0.4610  0.2984
 2058poe    c2311728   2.289   1.822   3.295 -0.1307  0.4053  0.1647
 2058poe     o211729   2.152   1.834   3.325 -0.2104  0.4915 -0.2276
 2058poe    c2311730   2.143   1.907   3.446 -0.3514  0.0770  0.0180
 2058poe    c2311731   2.000   1.881   3.495 -0.2318 -0.3977  0.1212
 2058poe     o211732   1.923   1.901   3.378  0.3333  0.1154 -0.1689
 2058poe    c2311733   1.787   1.918   3.413  0.2535 -0.2186 -0.3139
 2058poe    c2311734   1.687   1.862   3.311 -0.6609  0.2133  0.3306
 2058poe     o211735   1.680   1.728   3.268 -0.3664  0.2737  0.0889
 2058poe    c3111736   1.622   1.723   3.139  0.7390  0.0670 -0.4118
 2059poe    c3111737   3.252   3.564   4.894 -0.0543  0.0184 -1.1152
 2059poe     o211738   3.232   3.680   4.971  0.2132 -0.5225 -0.2186
 2059poe    c2311739   3.324   3.778   4.930  0.1164 -0.6475 -0.7427
 2059poe    c2311740   3.302   3.920   4.984 -0.2405 -0.5360 -1.1737
 2059poe     o211741   3.173   3.968   4.953 -0.3830  0.2661  0.4866
 2059poe    c2311742   3.152   4.104   4.984 -0.2109  0.4629 -0.2354
 2059poe    c2311743   3.024   4.173   4.933 -0.2198  0.3703 -0.3394
 2059poe     o211744   2.904   4.110   4.971  0.3939 -0.5754  0.0789
 2059poe    c2311745   2.791   4.194   4.961  0.2233 -0.8701 -0.5582
 2059poe    c2311746   2.658   4.131   5.005 -0.2179  0.2040 -0.3344
 2059poe     o211747   2.618   4.024   4.923  0.0057 -0.5060  0.4713
 2059poe    c3111748   2.482   3.988   4.938 -0.1480 -0.1418 -0.0272
 2060poe    c3111749   0.180   1.576   6.519  0.3050 -0.3445  0.5613
 2060poe     o211750   0.181   1.715   6.497 -0.1251 -0.4934 -0.4543
 2060poe    c2311751   0.058   1.768   6.455  0.0044 -0.0152 -0.2346
 2060poe    c2311752   0.062   1.880   6.349  0.0372 -0.2115 -0.4401
 2060poe     o211753   0.109   1.984   6.432 -0.7927 -0.1499 -0.0419
 2060poe    c2311754   0.146   2.088   6.345 -0.3654  0.0847  0.4119
 2060poe    c2311755   0.232   2.186   6.426  0.0213  0.1427 -0.0610
 2060poe     o211756   0.147   2.227   6.531  0.0035 -0.0995  0.0193
 2060poe    c2311757   0.198   2.332   6.610  0.2586 -0.7268  0.6959
 2060poe    c2311758   0.094   2.359   6.721 -0.3200 -0.2582  0.0473
 2060poe     o211759   0.041   2.241   6.776  1.1017 -0.5701  0.7790
 2060poe    c3111760  -0.043   2.261   6.888 -0.2850  0.1558 -0.3658
 2061poe    c3111761   1.939   2.700   0.490  0.1323  0.1112 -0.0577
 2061poe     o211762   2.022   2.744   0.595  0.0325  0.2270 -0.0266
 2061poe    c2311763   1.974   2.843   0.682  0.1209  0.0439  0.2343
 2061poe    c2311764   2.056   2.849   0.812 -0.2215  0.0870  0.4486
 2061poe     o211765   2.192   2.859   0.776 -0.2546 -0.8184  0.0318
 2061poe    c2311766   2.278   2.856   0.888  0.1027  0.2383 -0.2036
 2061poe    c2311767   2.426   2.860   0.844  0.2342 -0.0527  0.2029
 2061poe     o211768   2.440   2.773   0.734 -0.1746 -0.0648  0.1568
 2061poe    c2311769   2.576   2.765   0.697 -0.2560 -0.1171 -0.1370
 2061poe    c2311770   2.587   2.672   0.575  0.8665  0.0274 -0.1601
 2061poe     o211771   2.544   2.736   0.457 -0.6818 -0.4955  0.0963
 2061poe    c3111772   2.643   2.805   0.384 -0.4620 -0.6911  0.2095
 2062poe    c3111773   6.133   0.821   3.920  0.6615 -0.3854 -0.7802
 2062poe     o211774   6.103   0.685   3.941  0.5903 -0.2395  0.0990
 2062poe    c2311775   6.080   0.614   3.821 -0.3322 -0.1220  0.1948
 2062poe    c2311776   6.172   0.493   3.793 -0.6809 -0.3268 -0.0606
 2062poe     o211777   6.161   0.393   3.892 -0.3039 -0.3523 -0.0446
 2062poe    c2311778   6.292   0.361   3.934 -0.1299  0.5375  0.1179
 2062poe    c2311779   6.282   0.267   4.056 -0.3717  0.3220 -0.0667
 2062poe     o211780   6.197   0.313   4.159  0.5590 -0.0708  0.8941
 2062poe    c2311781   6.138   0.203   4.226  0.0215 -0.0662  0.4370
 2062poe    c2311782   6.028   0.243   4.325 -0.1790  0.2038  0.1076
 2062poe     o211783   5.916   0.306   4.266  0.0605  0.3728 -0.1711
 2062poe    c3111784   5.803   0.221   4.268  0.2906  0.0746  0.7175
 2063poe    c3111785   4.000   0.132   7.067 -0.1757 -0.6840  0.2445
 2063poe     o211786   3.897   0.184   7.148  0.0784  0.3715 -0.0875
 2063poe    c2311787   3.852   0.085   7.238  0.1646  0.5284  0.1292
 2063poe    c2311788   3.726   0.145   7.304 -0.3560 -0.7295  0.3216
 2063poe     o211789   3.638   0.185   7.201  0.1296  0.1406  0.2366
 2063poe    c2311790   3.539   0.268   7.258 -0.0085  0.2689 -0.1899
 2063poe    c2311791   3.458   0.319   7.137  0.0108  0.0564 -0.2931
 2063poe     o211792   3.537   0.377   7.036  0.4796  0.3389  0.2310
 2063poe    c2311793   3.453   0.437   6.939 -0.0567 -0.4952  0.1740
 2063poe    c2311794   3.534   0.503   6.826  0.0111 -0.4029  0.2763
 2063poe     o211795   3.588   0.409   6.735  0.2629  0.1123 -0.1099
 2063poe    c3111796   3.520   0.423   6.613 -0.1332  0.6916  0.1692
 2064poe    c3111797   6.814   4.938   1.226  0.2136  0.3012  0.3254
 2064poe     o211798   6.696   4.963   1.153  0.3826 -0.4622 -0.2215
 2064poe    c2311799   6.576   4.909   1.206  0.2452 -0.1355 -0.1948
 2064poe    c2311800   6.459   4.943   1.112  0.1706 -0.5104 -0.2373
 2064poe     o211801   6.441   4.852   1.006 -0.0543 -0.1992 -0.4667
 2064poe    c2311802   6.507   4.902   0.892  0.3019 -0.5688 -0.4260
 2064poe    c2311803   6.487   4.819   0.764 -0.4564 -0.5975 -0.2926
 2064poe     o211804   6.353   4.833   0.722 -0.5104  0.0165  0.0642
 2064poe    c2311805   6.340   4.798   0.586 -0.2084 -0.4666  0.1580
 2064poe    c2311806   6.194   4.769   0.549 -0.1772  0.1528 -0.4667
 2064poe     o211807   6.134   4.667   0.626 -0.0095  0.2158 -0.2536
 2064poe    c3111808   5.998   4.640   0.600  0.0622  0.2285 -0.6537
 2065poe    c3111809   4.647   2.696   5.021  0.2696  0.9535  0.6669
 2065poe     o211810   4.627   2.663   5.157  0.2186  0.0651  0.4505
 2065poe    c2311811   4.488   2.678   5.178  0.2071  0.2689  0.2239
 2065poe    c2311812   4.434   2.645   5.318  0.7759  0.0733  0.4026
 2065poe     o211813   4.425   2.505   5.337  0.0910  0.0061 -0.3625
 2065poe    c2311814   4.338   2.476   5.443 -0.3257 -0.0280 -0.7089
 2065poe    c2311815   4.302   2.331   5.406 -0.7501 -0.1541  0.1633
 2065poe     o211816   4.414   2.248   5.387 -0.2982  0.3789  0.4902
 2065poe    c2311817   4.446   2.166   5.497 -0.2422 -0.0558  0.1535
 2065poe    c2311818   4.587   2.103   5.494 -0.1768  0.0992 -0.0696
 2065poe     o211819   4.624   2.076   5.361 -0.1024 -0.3051  0.0303
 2065poe    c3111820   4.758   2.035   5.358  0.0784  0.2483  0.3983
 2066poe    c3111821   0.483   2.042   0.705 -0.2777  0.6062  0.0276
 2066poe     o211822   0.589   2.060   0.796  0.2344 -0.6761 -0.2972
 2066poe    c2311823   0.690   2.146   0.748 -0.0843  0.0848  0.3721
 2066poe    c2311824   0.781   2.218   0.848  0.7581 -0.0548 -0.2824
 2066poe     o211825   0.857   2.124   0.920  0.4417  0.0127  0.1414
 2066poe    c2311826   0.959   2.186   0.994  0.3010 -0.0441  0.3849
 2066poe    c2311827   0.984   2.109   1.125  0.7524  0.2306  0.4649
 2066poe     o211828   0.995   1.969   1.107 -0.3384  0.2007 -0.0492
 2066poe    c2311829   0.975   1.901   1.229  0.2279  0.2712  0.0849
 2066poe    c2311830   0.979   1.750   1.202 -0.2338  0.2587  0.0801
 2066poe     o211831   0.896   1.730   1.089  0.2990 -0.5307 -0.1845
 2066poe    c3111832   0.893   1.596   1.047  0.3457 -0.6962  0.3327
 2067poe    c3111833   1.900   5.791   6.366  0.5906 -0.1249 -0.1852
 2067poe     o211834   1.930   5.920   6.413 -0.5482  0.0176  0.1727
 2067poe    c2311835   2.052   5.898   6.481 -0.2112 -0.1935 -0.4904
 2067poe    c2311836   2.127   6.026   6.522 -0.7298  0.0354 -0.2464
 2067poe     o211837   2.058   6.071   6.637  0.3938  0.5442  0.2426
 2067poe    c2311838   2.134   6.160   6.716 -0.0516  0.9910  0.1764
 2067poe    c2311839   2.117   6.153   6.869  0.1083  0.4725  0.1725
 2067poe     o211840   2.153   6.031   6.931 -0.2804  0.1730 -0.1826
 2067poe    c2311841   2.048   5.938   6.940  0.1466 -0.3760 -0.8528
 2067poe    c2311842   2.117   5.800   6.933  0.2038 -0.4190  0.4350
 2067poe     o211843   2.189   5.771   7.051  0.4521  0.2104  0.4455
 2067poe    c3111844   2.218   5.633   7.053 -0.0178  0.1064  0.2122
 2068poe    c3111845   2.687   1.843   2.184 -0.1368  0.0927 -0.0705
 2068poe     o211846   2.546   1.849   2.183 -0.1503 -0.1820 -0.7428
 2068poe    c2311847   2.494   1.976   2.151 -0.0439  0.2907  0.8537
 2068poe    c2311848   2.352   2.006   2.202 -0.1935  0.3133  0.4276
 2068poe     o211849   2.258   1.934   2.125  0.4518 -0.4654  0.3548
 2068poe    c2311850   2.127   1.965   2.165  0.2765  0.5585 -0.9331
 2068poe    c2311851   2.016   1.895   2.086  0.2511 -0.1564 -0.2708
 2068poe     o211852   2.002   1.943   1.954 -0.1935  0.6368  0.0609
 2068poe    c2311853   1.914   1.869   1.873  0.0159  0.4744 -0.0187
 2068poe    c2311854   1.862   1.949   1.752 -0.2899 -0.0332 -0.2264
 2068poe     o211855   1.819   2.063   1.824 -0.3307 -0.1479 -0.0667
 2068poe    c3111856   1.725   2.136   1.748  0.1289  0.5812  0.0604
 2069poe    c3111857   4.854   3.624   7.035  0.5065  0.0374 -0.4230
 2069poe     o211858   4.809   3.507   6.970  0.3792 -0.0224 -0.2266
 2069poe    c2311859   4.869   3.398   7.036  0.0137 -0.3577 -0.4478
 2069poe    c2311860   4.807   3.277   6.963 -0.5403 -0.1088 -0.3974
 2069poe     o211861   4.668   3.300   6.964 -0.5044  0.0980 -0.0466
 2069poe    c2311862   4.603   3.195   6.897  0.0929 -0.2206 -0.1360
 2069poe    c2311863   4.454   3.231   6.915  0.2805 -0.0912  1.2722
 2069poe     o211864   4.441   3.361   6.861 -0.2931 -0.5228  0.3504
 2069poe    c2311865   4.305   3.394   6.843 -0.1386 -0.2879 -0.4109
 2069poe    c2311866   4.291   3.510   6.743 -0.3576  0.2172  0.1949
 2069poe     o211867   4.356   3.627   6.787  0.0334  0.2368 -0.4178
 2069poe    c3111868   4.367   3.730   6.692 -0.1762  0.2807 -0.3946
 2070poe    c3111869   5.722   3.496   1.922 -0.0829  0.3992  0.2748
 2070poe     o211870   5.685   3.630   1.942  0.2017  0.5702 -0.3199
 2070poe    c2311871   5.716   3.666   2.075 -0.6702 -0.1006  0.0728
 2070poe    c2311872   5.781   3.805   2.089 -0.2576 -0.3613  0.7677
 2070poe     o211873   5.688   3.899   2.040  0.2945 -0.1326  0.1472
 2070poe    c2311874   5.744   4.028   2.048 -0.2978  0.1439 -0.0764
 2070poe    c2311875   5.645   4.145   2.037  0.2715  0.6110 -0.2474
 2070poe     o211876   5.559   4.097   1.935  0.0880  0.2620  0.0697
 2070poe    c2311877   5.460   4.193   1.905 -0.0585  0.1500  0.1951
 2070poe    c2311878   5.368   4.116   1.809  0.2886 -0.4346  0.3274
 2070poe     o211879   5.338   3.992   1.870 -0.3186 -0.2801  0.3460
 2070poe    c3111880   5.245   3.924   1.789  0.6725 -0.4723 -0.6380
 2071poe    c3111881   4.695   3.868   3.080  0.5942  0.3228 -0.0071
 2071poe     o211882   4.750   3.949   2.978 -0.3351  1.0311  0.0422
 2071poe    c2311883   4.712   3.918   2.846  0.3669  0.1709  0.0383
 2071poe    c2311884   4.582   3.977   2.789  0.0125 -0.0321  0.6181
 2071poe     o211885   4.602   4.116   2.767  0.0898 -0.1189  0.1116
 2071poe    c2311886   4.494   4.202   2.796  0.1966  0.0204  0.0907
 2071poe    c2311887   4.506   4.319   2.696  0.0911  0.4298  0.5505
 2071poe     o211888   4.622   4.399   2.711  0.2272  0.2800  0.3135
 2071poe    c2311889   4.636   4.484   2.600 -0.1453  0.0657  0.0982
 2071poe    c2311890   4.722   4.608   2.633  0.0334  0.0837 -0.4159
 2071poe     o211891   4.857   4.580   2.660 -0.2669 -0.6746  0.3845
 2071poe    c3111892   4.919   4.684   2.732 -0.3253  0.2309 -0.8390
 2072poe    c3111893   3.770   1.431   6.736  0.0887 -0.7592 -0.2277
 2072poe     o211894   3.640   1.377   6.730 -0.1963 -0.0812 -0.1774
 2072poe    c2311895   3.539   1.468   6.768 -0.0082  0.3337 -0.6640
 2072poe    c2311896   3.398   1.424   6.725 -0.1850  0.1646  0.0687
 2072poe     o211897   3.379   1.412   6.585  0.2439  0.0220  0.0202
 2072poe    c2311898   3.290   1.306   6.557  0.0900  0.1155  0.1506
 2072poe    c2311899   3.248   1.308   6.409  0.2244  0.0138  0.1108
 2072poe     o211900   3.363   1.276   6.335 -0.0457 -0.0885 -0.2708
 2072poe    c2311901   3.352   1.246   6.198 -0.1618  0.0385 -0.2884
 2072poe    c2311902   3.494   1.218   6.146  0.1443  0.5027  0.2942
 2072poe     o211903   3.588   1.301   6.211  0.5835  0.1103  0.1642
 2072poe    c3111904   3.720   1.262   6.179  0.5082 -0.1297  0.1399
 2073poe    c3111905   1.099   2.506   1.573  0.2066  0.4016  0.1581
 2073poe     o211906   1.010   2.415   1.634 -0.0855 -0.0873 -0.9792
 2073poe    c2311907   1.048   2.280   1.643 -0.3631 -0.0885  0.3673
 2073poe    c2311908   0.972   2.180   1.553  0.2380  0.2617 -0.5444
 2073poe     o211909   0.835   2.177   1.585  0.4081  0.0233  0.1809
 2073poe    c2311910   0.758   2.091   1.505  0.2399  0.4987 -0.1727
 2073poe    c2311911   0.610   2.110   1.543  0.3131 -0.5423  0.6941
 2073poe     o211912   0.572   2.226   1.472  0.5421 -0.4000  0.8042
 2073poe    c2311913   0.436   2.254   1.497  0.4887  0.1318 -0.0383
 2073poe    c2311914   0.402   2.402   1.469 -0.0815 -0.0028 -0.0702
 2073poe     o211915   0.506   2.485   1.517 -0.0839 -0.0156 -0.0425
 2073poe    c3111916   0.468   2.619   1.497 -0.2812 -0.0343  0.1963
 2074poe    c3111917   1.964   3.820   2.887  0.2602 -0.6528  0.2561
 2074poe     o211918   1.985   3.692   2.831 -0.1334 -0.6742  0.1541
 2074poe    c2311919   2.051   3.717   2.708  0.3159 -0.2120  0.4833
 2074poe    c2311920   2.061   3.582   2.635 -0.1845 -0.0651  0.1335
 2074poe     o211921   2.151   3.495   2.701  0.0047 -0.0054 -0.0442
 2074poe    c2311922   2.167   3.381   2.619  0.3464 -0.1206  0.1809
 2074poe    c2311923   2.248   3.283   2.706 -0.1067 -0.2259  0.4871
 2074poe     o211924   2.171   3.283   2.824 -0.1882 -0.5541  0.4337
 2074poe    c2311925   2.242   3.195   2.910  0.2345 -0.1101  0.5429
 2074poe    c2311926   2.166   3.126   3.024 -0.0025 -0.2374  0.3096
 2074poe     o211927   2.100   3.198   3.126  0.4046  0.4858  0.0655
 2074poe    c3111928   2.008   3.130   3.208  0.4727  0.1936 -0.0993
 2075poe    c3111929   3.445   6.286   2.537 -0.3165 -0.4631  0.6204
 2075poe     o211930   3.557   6.201   2.544 -0.4388 -0.7074 -0.2499
 2075poe    c2311931   3.612   6.190   2.415 -0.1713 -0.0489 -0.1940
 2075poe    c2311932   3.754   6.130   2.414 -0.0540  0.2253 -0.0674
 2075poe     o211933   3.767   6.014   2.492  0.4238  0.3220 -0.0048
 2075poe    c2311934   3.905   5.982   2.488  0.5071  0.4558  1.1814
 2075poe    c2311935   3.927   5.847   2.559  0.3021 -0.2676 -0.0859
 2075poe     o211936   3.803   5.779   2.564 -0.1159  0.4465 -0.4759
 2075poe    c2311937   3.807   5.655   2.631 -0.2872  0.5032 -0.3589
 2075poe    c2311938   3.660   5.614   2.653 -0.1780  0.0976 -0.3795
 2075poe     o211939   3.591   5.731   2.691 -0.4449 -0.1999  0.0564
 2075poe    c3111940   3.503   5.689   2.793 -0.2455  0.0206  0.3176
 2076poe    c3111941   1.014   4.424   2.339  0.1318 -1.3834 -0.2459
 2076poe     o211942   1.109   4.454   2.439 -0.8914 -0.3860  0.4537
 2076poe    c2311943   1.209   4.356   2.455 -0.3277  0.1345  0.1626
 2076poe    c2311944   1.324   4.394   2.550  0.1241 -0.0469 -0.3097
 2076poe     o211945   1.370   4.521   2.506  0.3153 -0.0501 -0.1229
 2076poe    c2311946   1.494   4.541   2.569  0.1942  0.1343  0.0561
 2076poe    c2311947   1.534   4.688   2.546 -0.3692  0.2666 -0.0886
 2076poe     o211948   1.442   4.782   2.597 -0.3946  0.1854  0.0140
 2076poe    c2311949   1.483   4.910   2.554  0.0365  0.2300  0.5414
 2076poe    c2311950   1.381   5.020   2.586 -0.3718  0.1094 -0.3060
 2076poe     o211951   1.376   5.020   2.727  0.0105 -0.0043 -0.2902
 2076poe    c3111952   1.277   5.110   2.771 -0.0865 -0.3765  0.2587
 2077poe    c3111953   5.976   4.660   2.254  0.2212  0.3855 -0.2926
 2077poe     o211954   5.836   4.651   2.273  0.2111  0.5401 -0.2957
 2077poe    c2311955   5.800   4.676   2.407 -0.0291  0.1092 -0.2798
 2077poe    c2311956   5.654   4.634   2.430  0.0275  0.0549 -0.0112
 2077poe     o211957   5.642   4.500   2.387  0.1111  0.0822 -0.1167
 2077poe    c2311958   5.559   4.429   2.475 -0.0444  0.0894 -0.2567
 2077poe    c2311959   5.565   4.279   2.437 -0.9124  0.0254 -0.1659
 2077poe     o211960   5.482   4.193   2.511 -0.0927 -0.1732  0.5392
 2077poe    c2311961   5.467   4.071   2.442 -0.4113  0.0488  0.2103
 2077poe    c2311962   5.335   4.006   2.487 -0.3110 -0.0100  0.4166
 2077poe     o211963   5.218   4.073   2.449 -0.2519 -0.1889 -0.0851
 2077poe    c3111964   5.098   4.019   2.500 -0.2599 -0.2280 -0.1451
 2078poe    c3111965   1.630   6.717   4.230 -0.3652 -0.2050 -0.0337
 2078poe     o211966   1.743   6.658   4.291 -0.2346  0.1881  0.1064
 2078poe    c2311967   1.848   6.648   4.197 -0.4510 -0.7094 -0.0481
 2078poe    c2311968   1.967   6.573   4.261  0.2994  0.0588 -0.5268
 2078poe     o211969   1.964   6.433   4.243 -0.2630  0.0251 -0.1764
 2078poe    c2311970   2.043   6.377   4.344  0.1150  0.3488 -0.2896
 2078poe    c2311971   2.042   6.223   4.358 -0.1377  0.4482  0.9057
 2078poe     o211972   1.920   6.178   4.412 -0.2519  0.1023  0.3691
 2078poe    c2311973   1.934   6.063   4.492 -0.0697 -0.0382  0.1351
 2078poe    c2311974   1.817   6.000   4.569  0.4243 -0.2260  0.7447
 2078poe     o211975   1.763   6.067   4.681 -0.4071 -0.2117  0.3414
 2078poe    c3111976   1.665   6.162   4.644  0.1249 -0.0452 -0.6924
 2079poe    c3111977   5.879   1.655   5.449  0.0720 -0.2643  0.3548
 2079poe     o211978   5.880   1.722   5.325 -0.4246 -0.4184  0.2650
 2079poe    c2311979   5.938   1.648   5.221 -0.3417 -0.4669  0.3456
 2079poe    c2311980   5.953   1.711   5.081 -0.2010 -0.2903  0.4408
 2079poe     o211981   6.035   1.826   5.084 -0.6264  0.0165  0.5782
 2079poe    c2311982   5.958   1.944   5.082 -0.3225  0.2087  0.1946
 2079poe    c2311983   6.052   2.064   5.098  0.2438 -0.2705  0.5229
 2079poe     o211984   6.115   2.092   5.221  0.3920 -0.0706  0.4029
 2079poe    c2311985   6.029   2.126   5.328 -0.0349  0.3203 -0.0573
 2079poe    c2311986   6.108   2.120   5.460  0.0589 -0.2657 -0.1405
 2079poe     o211987   6.147   1.996   5.515  0.6936  0.0005  0.0282
 2079poe    c3111988   6.243   1.929   5.438 -0.2261 -0.6315 -0.5935
 2080poe    c3111989   1.783   2.114   6.264 -0.2697 -0.4686 -0.4711
 2080poe     o211990   1.767   2.002   6.349 -0.6720 -0.0127  0.0618
 2080poe    c2311991   1.709   2.051   6.468  0.2839  0.0119  0.5277
 2080poe    c2311992   1.679   1.945   6.575 -0.2206  0.3999  0.7755
 2080poe     o211993   1.568   1.861   6.551 -0.5151  0.8112  0.7001
 2080poe    c2311994   1.525   1.779   6.657  0.1597 -0.1980  0.2041
 2080poe    c2311995   1.483   1.647   6.590  0.2372  0.0807 -0.4033
 2080poe     o211996   1.393   1.672   6.485 -0.2160  0.2021  0.0083
 2080poe    c2311997   1.327   1.551   6.452  0.4786  0.0201 -0.7538
 2080poe    c2311998   1.174   1.555   6.430  0.2851 -0.1926  0.4969
 2080poe     o211999   1.109   1.548   6.555 -0.4544 -0.0390  0.1217
 2080poe    c3112000   0.972   1.524   6.531 -0.4571 -0.6729  0.7277
 2081poe    c3112001   4.367   3.213   3.771  0.5761  0.3430 -0.3797
 2081poe     o212002   4.242   3.271   3.803  0.4342 -0.3299  0.3357
 2081poe    c2312003   4.270   3.408   3.824  0.5119 -0.1938 -0.6035
 2081poe    c2312004   4.149   3.488   3.874  1.0429  0.1436  0.1695
 2081poe     o212005   4.031   3.503   3.798  0.8553  0.3856  0.5058
 2081poe    c2312006   3.925   3.540   3.884  0.6044  0.1753  0.2887
 2081poe    c2312007   3.846   3.650   3.810  0.0199 -0.4620 -0.0427
 2081poe     o212008   3.832   3.594   3.681  0.1902  0.0141 -0.2684
 2081poe    c2312009   3.785   3.696   3.595 -0.5724  0.0155  0.1325
 2081poe    c2312010   3.785   3.625   3.458  0.6314  0.4986 -0.1351
 2081poe     o212011   3.892   3.534   3.443  0.3156  0.1357 -0.2017
 2081poe    c3112012   3.895   3.442   3.337  0.6619  0.1499 -0.2040
 2082poe    c3112013   5.108   0.907   5.689  0.0213 -0.0294  0.2093
 2082poe     o212014   5.072   0.919   5.554  0.2372  0.0606  0.1588
 2082poe    c2312015   5.180   0.881   5.470  0.1288 -0.0757  0.0793
 2082poe    c2312016   5.162   0.919   5.322  0.6236 -0.3584 -0.0532
 2082poe     o212017   5.057   0.862   5.249  0.1472  0.3793  0.0464
 2082poe    c2312018   5.039   0.936   5.130  0.0368 -0.2518 -0.3383
 2082poe    c2312019   4.915   0.907   5.044 -0.1660  0.1945 -0.1989
 2082poe     o212020   4.900   0.769   5.017 -0.1757  0.0317  0.5886
 2082poe    c2312021   4.782   0.745   4.943  0.3303 -0.7763  0.0278
 2082poe    c2312022   4.785   0.602   4.885 -0.3548 -0.7588 -0.0605
 2082poe     o212023   4.822   0.512   4.986  0.8142 -0.0205  0.1811
 2082poe    c3112024   4.796   0.382   4.941  0.1689  0.1598  0.0288
 2083poe    c3112025   5.572   3.022   5.588  0.1876  0.4223  0.4699
 2083poe     o212026   5.466   2.935   5.554  0.2191  0.6451 -0.2129
 2083poe    c2312027   5.462   2.828   5.646 -0.2740  0.3441 -0.5732
 2083poe    c2312028   5.344   2.733   5.623 -0.1884 -0.0008  0.3434
 2083poe     o212029   5.346   2.678   5.493 -0.0149 -0.2943  0.4682
 2083poe    c2312030   5.274   2.558   5.504  0.0128 -0.3847 -0.2583
 2083poe    c2312031   5.222   2.527   5.363 -0.3968 -0.1208 -0.1670
 2083poe     o212032   5.185   2.648   5.302 -0.3478 -0.0633 -0.0821
 2083poe    c2312033   5.099   2.631   5.191  0.1644 -0.1706 -0.4631
 2083poe    c2312034   5.071   2.774   5.141 -0.5174 -0.0988  0.1175
 2083poe     o212035   5.188   2.852   5.137 -0.7571  0.2897  0.5513
 2083poe    c3112036   5.178   2.975   5.068 -1.3883 -0.2828 -0.3978
 2084poe    c3112037   4.361   1.549   3.172  0.1866  0.1600 -0.1851
 2084poe     o212038   4.416   1.498   3.292  0.3537  0.1646 -0.2589
 2084poe    c2312039   4.467   1.587   3.388 -0.0993 -0.1882  0.3199
 2084poe    c2312040   4.534   1.520   3.510 -0.1970 -0.5629  0.1698
 2084poe     o212041   4.654   1.459   3.469  0.1874  0.3917 -0.1585
 2084poe    c2312042   4.722   1.389   3.571  0.8526  0.6533 -0.4168
 2084poe    c2312043   4.856   1.327   3.526  0.6771 -0.3247  0.3702
 2084poe     o212044   4.820   1.241   3.420 -0.0015 -0.1193  0.4266
 2084poe    c2312045   4.926   1.153   3.390 -0.1899 -0.3318  0.3867
 2084poe    c2312046   4.864   1.063   3.281  0.4898  0.3573 -0.5833
 2084poe     o212047   4.798   1.145   3.187 -0.3983  0.4501  0.1069
 2084poe    c3112048   4.807   1.128   3.047 -0.1552 -0.1187  0.1882
 2085poe    c3112049   3.200   0.606   3.113 -1.0987 -0.2636 -0.3557
 2085poe     o212050   3.179   0.720   3.033  0.7057  0.3658  0.0305
 2085poe    c2312051   3.295   0.786   2.988  0.5133  0.3320 -0.5166
 2085poe    c2312052   3.279   0.816   2.838  0.6210  0.5437 -0.4864
 2085poe     o212053   3.168   0.903   2.830  0.3925  0.2765 -0.2361
 2085poe    c2312054   3.149   0.938   2.694  0.1193  0.1205 -0.2381
 2085poe    c2312055   3.027   1.029   2.672 -0.0665  0.1703  0.9122
 2085poe     o212056   2.913   0.961   2.719  0.2304 -0.5374  0.6221
 2085poe    c2312057   2.800   1.041   2.746  0.2065 -0.1967 -0.4403
 2085poe    c2312058   2.674   0.953   2.760 -0.0046  0.1304 -0.2549
 2085poe     o212059   2.640   0.863   2.657 -0.3766 -0.4022  0.3233
 2085poe    c3112060   2.576   0.918   2.544  0.0726 -0.5041  0.0167
 2086poe    c3112061   4.208   2.163   6.897  0.2418  0.4247  0.0852
 2086poe     o212062   4.307   2.175   6.797  0.1524 -0.5983 -0.1390
 2086poe    c2312063   4.247   2.195   6.671  0.0291  0.1172  0.0317
 2086poe    c2312064   4.349   2.261   6.575  0.2548 -0.1794  0.0685
 2086poe     o212065   4.422   2.363   6.639  0.0141  0.1778 -0.2267
 2086poe    c2312066   4.513   2.410   6.542  0.3599 -0.6065 -0.2915
 2086poe    c2312067   4.565   2.542   6.601 -0.1778 -0.6054  0.1901
 2086poe     o212068   4.609   2.528   6.735  0.6005  0.0860  0.0157
 2086poe    c2312069   4.654   2.659   6.762 -0.0258  0.2149  0.4802
 2086poe    c2312070   4.673   2.685   6.912  0.0305  0.8604  0.3639
 2086poe     o212071   4.555   2.646   6.979 -0.3705  0.7039 -0.4184
 2086poe    c3112072   4.539   2.734   7.088 -0.1225 -0.0371  0.2242
 2087poe    c3112073   0.818   0.385   2.214 -0.2944 -0.0710 -0.2501
 2087poe     o212074   0.677   0.378   2.216 -0.3067  0.3141  0.4998
 2087poe    c2312075   0.627   0.474   2.126  0.5936  0.5388  0.2274
 2087poe    c2312076   0.473   0.468   2.129  0.6306 -0.7538  0.2631
 2087poe     o212077   0.421   0.497   2.257 -0.1546  0.0953 -0.2358
 2087poe    c2312078   0.283   0.525   2.270 -0.1613 -0.0736  0.0526
 2087poe    c2312079   0.216   0.387   2.264 -0.1873 -0.0591  0.0160
 2087poe     o212080   0.262   0.289   2.354 -0.0560  0.2220  0.2538
 2087poe    c2312081   0.189   0.169   2.336  0.3700 -0.0308  0.2141
 2087poe    c2312082   0.233   0.047   2.419  0.1541 -0.2621 -0.0107
 2087poe     o212083   0.197   0.074   2.553 -0.9132 -0.4561 -0.2469
 2087poe    c3112084   0.188  -0.041   2.635  0.1759 -0.5457 -0.2305
 2088poe    c3112085   5.351   5.097   0.090  0.5152 -0.1465 -0.0884
 2088poe     o212086   5.213   5.088   0.066  0.3332 -0.3215  0.9728
 2088poe    c2312087   5.130   5.196   0.104 -0.1451 -0.2885 -0.1322
 2088poe    c2312088   4.989   5.194   0.042 -0.0341  0.2489 -0.4126
 2088poe     o212089   4.901   5.115   0.119  0.4599  0.0643 -0.0306
 2088poe    c2312090   4.775   5.151   0.067  0.2573 -0.4700  0.0850
 2088poe    c2312091   4.702   5.282   0.102 -0.9764 -0.9981 -0.4453
 2088poe     o212092   4.654   5.277   0.235  0.3696  0.0261  0.1103
 2088poe    c2312093   4.599   5.403   0.263 -0.4525 -0.3853  0.3896
 2088poe    c2312094   4.581   5.443   0.410 -0.0725  0.1206  0.3034
 2088poe     o212095   4.493   5.356   0.480 -0.5809  0.1352 -0.3075
 2088poe    c3112096   4.504   5.374   0.619 -0.0461  0.5849 -0.4014
 2089poe    c3112097   4.706   0.810   0.875  0.3359 -0.0603 -0.1950
 2089poe     o212098   4.720   0.759   0.744 -0.2230  0.3178 -0.4038
 2089poe    c2312099   4.812   0.826   0.662  0.3100  0.0112 -0.0640
 2089poe    c2312100   4.826   0.750   0.529  0.2716  0.6340 -0.4285
 2089poe     o212101   4.706   0.753   0.455  0.3085  1.1991 -0.4678
 2089poe    c2312102   4.714   0.680   0.335 -0.2106  0.2622  0.0554
 2089poe    c2312103   4.599   0.730   0.245 -0.1075  0.2288 -0.0955
 2089poe     o212104   4.481   0.741   0.320 -0.2569 -0.4418 -0.2305
 2089poe    c2312105   4.372   0.771   0.235 -0.2279 -0.7905 -0.3929
 2089poe    c2312106   4.241   0.787   0.314  0.0017  0.2127 -0.1897
 2089poe     o212107   4.275   0.845   0.438  0.1236 -0.5753  0.1540
 2089poe    c3112108   4.154   0.836   0.510  0.0464  0.0780  0.1098
 2090poe    c3112109   5.657   6.460   0.820 -0.6379  0.4655  0.7199
 2090poe     o212110   5.772   6.539   0.840 -0.1613 -0.1491  0.4484
 2090poe    c2312111   5.815   6.590   0.716  0.2223  0.3085  0.7617
 2090poe    c2312112   5.910   6.708   0.739  0.2270  0.3939  0.3185
 2090poe     o212113   6.003   6.646   0.825  0.2347 -0.6211 -0.4147
 2090poe    c2312114   6.135   6.694   0.831 -0.1164  0.3128 -0.0578
 2090poe    c2312115   6.171   6.806   0.931  0.3055 -0.1205  0.2841
 2090poe     o212116   6.117   6.932   0.896 -0.7681 -0.7395 -0.3270
 2090poe    c2312117   6.075   7.021   0.997  0.0061 -0.9099  0.1510
 2090poe    c2312118   5.923   7.043   0.992  0.1293 -0.0859 -0.2318
 2090poe     o212119   5.846   6.939   1.048 -0.2275 -0.0497 -0.6494
 2090poe    c3112120   5.719   6.915   0.992 -0.3766 -0.4696 -0.1382
 2091poe    c3112121   6.128   1.412   1.682 -0.4535  0.0407  0.6575
 2091poe     o212122   5.992   1.375   1.683 -0.1564 -1.0904 -0.1229
 2091poe    c2312123   5.934   1.410   1.806 -0.0744 -0.0981 -0.3620
 2091poe    c2312124   5.782   1.385   1.795 -0.1498  0.0868  0.2464
 2091poe     o212125   5.717   1.482   1.717  0.1758  0.2724  0.2039
 2091poe    c2312126   5.581   1.443   1.723  0.1181  0.5064  0.4350
 2091poe    c2312127   5.497   1.558   1.664 -0.0448  0.1275 -0.0680
 2091poe     o212128   5.568   1.596   1.548  0.0990 -0.3533 -0.1414
 2091poe    c2312129   5.488   1.688   1.479  0.5779  0.3298  0.1978
 2091poe    c2312130   5.555   1.719   1.344 -0.2274 -0.4742 -0.4010
 2091poe     o212131   5.689   1.736   1.384 -0.4123  0.1435 -0.0261
 2091poe    c3112132   5.776   1.781   1.282 -0.4435 -0.1106 -0.1647
 2092poe    c3112133   6.970   5.448   6.787 -0.1544  0.0542 -0.1821
 2092poe     o212134   6.957   5.464   6.927 -0.1356 -0.7566 -0.0784
 2092poe    c2312135   6.845   5.542   6.964  0.5512  0.3135 -0.1997
 2092poe    c2312136   6.869   5.606   7.102  0.0324 -0.5678  0.3077
 2092poe     o212137   6.922   5.502   7.181  0.6201 -0.4170  0.1175
 2092poe    c2312138   6.985   5.564   7.290  0.2586  0.0451  0.0668
 2092poe    c2312139   6.919   5.519   7.422 -0.0070 -0.2506 -0.1675
 2092poe     o212140   6.791   5.576   7.439  0.5578  1.0047 -0.0594
 2092poe    c2312141   6.703   5.488   7.505  0.6389  0.6918 -0.3661
 2092poe    c2312142   6.583   5.577   7.543  0.1052 -0.3665  0.4845
 2092poe     o212143   6.612   5.683   7.631 -0.0837  0.3702 -0.3171
 2092poe    c3112144   6.491   5.752   7.645 -0.4903 -0.3135 -0.4089
 2093poe    c3112145   3.458   3.365   2.693 -0.1848  0.0500  0.7433
 2093poe     o212146   3.472   3.232   2.737  0.1331 -0.0945  0.2144
 2093poe    c2312147   3.525   3.223   2.868  0.2522  0.4817  0.2090
 2093poe    c2312148   3.677   3.236   2.886  0.2150  0.1470  0.7805
 2093poe     o212149   3.732   3.108   2.864  0.1838  0.0784  1.0980
 2093poe    c2312150   3.873   3.100   2.874  0.3188  0.3770 -0.2979
 2093poe    c2312151   3.923   2.957   2.851 -0.5737  0.1064 -0.5896
 2093poe     o212152   3.860   2.940   2.726 -0.3561 -0.2656 -0.6502
 2093poe    c2312153   3.908   2.815   2.681  0.1537 -0.3245  0.0422
 2093poe    c2312154   3.842   2.778   2.546  0.0476  0.7588 -0.2120
 2093poe     o212155   3.703   2.781   2.568  0.0651  0.5544 -0.0707
 2093poe    c3112156   3.641   2.762   2.443  0.0818  0.2828 -0.0379
 2094poe    c3112157   2.045   5.870   0.582  0.3676 -0.2971 -0.3248
 2094poe     o212158   2.025   5.737   0.540 -0.3991 -0.2060 -0.2704
 2094poe    c2312159   1.943   5.737   0.425 -0.3499  0.2314 -0.3065
 2094poe    c2312160   1.944   5.592   0.373  0.4289 -0.1701  0.7803
 2094poe     o212161   2.074   5.549   0.339  0.4079  0.3053  0.0783
 2094poe    c2312162   2.083   5.424   0.273 -0.5631  0.3276 -0.1125
 2094poe    c2312163   2.234   5.397   0.266 -0.5831  0.0979  0.3081
 2094poe     o212164   2.286   5.421   0.395 -0.0252  0.2393  0.0606
 2094poe    c2312165   2.396   5.336   0.417 -0.2049  0.0032  0.0438
 2094poe    c2312166   2.496   5.411   0.507  0.2165 -0.4835 -0.0120
 2094poe     o212167   2.517   5.538   0.451 -0.1076 -0.4772 -0.1234
 2094poe    c3112168   2.618   5.614   0.514 -0.3730 -0.6076  0.4622
 2095poe    c3112169   5.474   2.926   1.192 -0.0838 -0.2070  0.3675
 2095poe     o212170   5.395   2.981   1.295  0.1817  0.3867  0.2580
 2095poe    c2312171   5.393   2.888   1.401  0.2331  0.1838  0.0821
 2095poe    c2312172   5.294   2.919   1.515 -0.2989  0.7092 -0.5086
 2095poe     o212173   5.165   2.934   1.462 -0.3368  0.2626 -0.5500
 2095poe    c2312174   5.070   2.967   1.562 -0.2616 -0.0261 -0.3830
 2095poe    c2312175   4.926   2.969   1.509 -0.2519 -0.0588 -0.4110
 2095poe     o212176   4.910   3.066   1.408  0.3387  0.1672 -0.2877
 2095poe    c2312177   4.798   3.040   1.327 -0.2545  0.3676  0.4545
 2095poe    c2312178   4.791   3.157   1.226 -0.2636 -0.1981 -0.2117
 2095poe     o212179   4.919   3.172   1.168 -0.1308 -0.2666  0.0600
 2095poe    c3112180   4.906   3.293   1.098  0.4790  0.2811  0.8810
 2096poe    c3112181   4.544   2.100   2.794  0.1978 -0.2398 -0.0914
 2096poe     o212182   4.425   2.101   2.718  0.1367 -0.1320  0.0056
 2096poe    c2312183   4.327   2.187   2.771 -0.2426 -0.6247  0.1146
 2096poe    c2312184   4.222   2.212   2.661 -0.4626 -0.2720  0.4021
 2096poe     o212185   4.219   2.086   2.599 -0.3545 -0.2178  0.2858
 2096poe    c2312186   4.127   2.101   2.494  0.0956 -0.4776 -0.1537
 2096poe    c2312187   4.105   1.985   2.396 -0.2851 -0.1885 -0.4143
 2096poe     o212188   4.216   1.958   2.313 -0.1579 -0.1168 -0.2664
 2096poe    c2312189   4.222   1.824   2.271 -0.0368 -0.3241  0.3953
 2096poe    c2312190   4.339   1.812   2.171  0.1628 -0.3670  0.6356
 2096poe     o212191   4.464   1.810   2.237  0.3952 -0.1870  0.2047
 2096poe    c3112192   4.500   1.674   2.241 -0.3069 -0.3874 -0.0025
 2097poe    c3112193   4.584   3.284   2.086  0.3663  0.0347 -0.7430
 2097poe     o212194   4.535   3.153   2.106  0.3772  0.1266 -0.0920
 2097poe    c2312195   4.579   3.059   2.010  0.0332 -0.2833  0.1490
 2097poe    c2312196   4.514   2.923   2.042  0.2317 -0.2774  0.5752
 2097poe     o212197   4.378   2.945   2.073  0.1884 -0.0459  0.2345
 2097poe    c2312198   4.310   2.823   2.094  0.1282 -0.0271  0.1467
 2097poe    c2312199   4.161   2.862   2.102  0.2591  0.5183 -0.0540
 2097poe     o212200   4.138   2.935   1.984 -0.4132 -0.0228 -0.2599
 2097poe    c2312201   4.005   2.912   1.942 -0.3716 -0.8260  0.0416
 2097poe    c2312202   3.937   3.024   1.863  0.5548 -0.0539  0.3157
 2097poe     o212203   4.011   3.030   1.743 -0.0722  0.0872 -0.0717
 2097poe    c3112204   3.964   3.126   1.651 -0.6460  0.2289  0.3598
 2098poe    c3112205   3.991   0.505   5.385 -0.2862 -0.3088  0.0561
 2098poe     o212206   3.985   0.514   5.244 -0.2546 -0.2251  0.0599
 2098poe    c2312207   4.111   0.527   5.184 -0.4071 -0.3568 -0.2893
 2098poe    c2312208   4.101   0.556   5.033  0.1318 -0.1122 -0.2816
 2098poe     o212209   4.034   0.438   4.994  0.3749 -0.3684  0.0733
 2098poe    c2312210   4.001   0.438   4.857 -0.4455 -0.3893  0.2641
 2098poe    c2312211   3.948   0.297   4.824 -0.0849 -0.4535 -0.0516
 2098poe     o212212   3.859   0.262   4.928  0.4952 -0.4038  0.4626
 2098poe    c2312213   3.775   0.156   4.891 -0.0969  0.1136  0.3051
 2098poe    c2312214   3.673   0.129   5.003 -0.5781  0.7739  0.0357
 2098poe     o212215   3.586   0.238   5.022 -0.6710  0.6545  0.3082
 2098poe    c3112216   3.481   0.184   5.099 -0.3390  0.2407  0.4709
 2099poe    c3112217   2.490   4.476   4.284 -0.1841  0.2162 -0.9306
 2099poe     o212218   2.598   4.394   4.243  0.4094 -0.0650  1.1067
 2099poe    c2312219   2.672   4.470   4.150  0.0912 -0.7747  0.2615
 2099poe    c2312220   2.808   4.402   4.126  0.4685  0.0086  0.1293
 2099poe     o212221   2.789   4.263   4.112 -0.1400  0.1394 -0.3914
 2099poe    c2312222   2.916   4.204   4.119 -0.2141 -0.0857 -0.8785
 2099poe    c2312223   2.903   4.051   4.109 -0.5704 -0.1282  0.1266
 2099poe     o212224   2.795   4.030   4.020 -0.9750  0.0708  0.5631
 2099poe    c2312225   2.757   3.894   4.011 -0.0015 -0.2390  0.9037
 2099poe    c2312226   2.635   3.879   3.918  0.1738 -0.4668  0.7123
 2099poe     o212227   2.528   3.967   3.944  0.0489 -0.4193  0.0448
 2099poe    c3112228   2.425   3.945   3.850  0.3440 -0.0494 -0.3687
 2100poe    c3112229   1.827   1.419   4.032 -0.1726  0.1658 -0.5797
 2100poe     o212230   1.744   1.319   3.977 -0.1297  0.1271 -0.5747
 2100poe    c2312231   1.611   1.347   4.013 -0.0032  0.8492 -0.6451
 2100poe    c2312232   1.509   1.234   3.989  0.1786  0.4908  0.2146
 2100poe     o212233   1.576   1.148   3.900  0.1637  0.1730  0.5075
 2100poe    c2312234   1.508   1.069   3.805 -0.3265  0.2500  0.7928
 2100poe    c2312235   1.584   0.938   3.776 -0.1830  0.5593 -0.2623
 2100poe     o212236   1.723   0.959   3.760 -0.1022  0.6026  0.4536
 2100poe    c2312237   1.796   0.841   3.736 -0.5480  0.3896  0.1222
 2100poe    c2312238   1.946   0.863   3.765 -0.4413 -0.4432  0.2449
 2100poe     o212239   1.964   0.871   3.905  0.1772 -0.2591  0.1569
 2100poe    c3112240   2.099   0.858   3.941  0.0853  0.0942  0.6464
 2101poe    c3112241   1.192   3.867   2.203 -0.0620 -0.4830 -0.7095
 2101poe     o212242   1.058   3.911   2.209  0.1159 -0.0480  0.1857
 2101poe    c2312243   1.036   3.962   2.339 -0.8301 -0.3589  0.1482
 2101poe    c2312244   0.899   4.024   2.374 -0.7702 -0.2737  0.2320
 2101poe     o212245   0.797   3.927   2.366 -0.4764 -0.6006  0.4133
 2101poe    c2312246   0.702   3.991   2.449  0.0193  0.1662  0.4065
 2101poe    c2312247   0.567   3.916   2.456 -0.0445  0.2315 -0.0402
 2101poe     o212248   0.591   3.789   2.512  0.2543  0.0972 -0.4681
 2101poe    c2312249   0.496   3.691   2.475 -0.0976  0.2694 -0.0356
 2101poe    c2312250   0.514   3.559   2.552 -0.1380  0.1792 -0.1793
 2101poe     o212251   0.646   3.510   2.542 -0.3873 -0.5990  0.2407
 2101poe    c3112252   0.670   3.392   2.614  0.2557 -0.0487  0.9546
 2102poe    c3112253   2.545   5.830   3.474 -0.0814 -0.1246 -0.0742
 2102poe     o212254   2.426   5.878   3.533  0.0823 -0.5072  0.5743
 2102poe    c2312255   2.372   5.963   3.434  0.2948 -0.1152  0.7914
 2102poe    c2312256   2.233   6.016   3.474  0.1650  0.3458 -0.2374
 2102poe     o212257   2.169   5.919   3.553 -0.0304  0.7082  0.0554
 2102poe    c2312258   2.029   5.928   3.570 -0.1445  0.0247 -0.4808
 2102poe    c2312259   1.989   5.981   3.709  0.1138 -0.1450 -0.3404
 2102poe     o212260   2.018   5.880   3.803 -0.0910  0.2902  0.1929
 2102poe    c2312261   1.925   5.776   3.823  0.0674  0.2104  0.5202
 2102poe    c2312262   1.978   5.680   3.931 -0.0524  0.1563  0.5310
 2102poe     o212263   2.096   5.613   3.894  0.1556  0.4065  0.7387
 2102poe    c3112264   2.187   5.585   3.998 -0.0295 -0.2347  0.7259
 2103poe    c3112265   5.867   3.814   6.003  0.4479  0.1413  0.2175
 2103poe     o212266   5.817   3.941   6.039 -0.0336  0.0706 -0.2000
 2103poe    c2312267   5.724   3.935   6.145 -0.1926  0.2920 -0.3278
 2103poe    c2312268   5.682   4.077   6.189  0.0321  0.0846  0.5640
 2103poe     o212269   5.616   4.141   6.083 -0.2078 -0.6557  0.2643
 2103poe    c2312270   5.598   4.276   6.118 -0.4019 -0.6723  0.2311
 2103poe    c2312271   5.461   4.327   6.070 -0.4383 -0.9042  0.0851
 2103poe     o212272   5.474   4.293   5.934  0.3456  0.2208 -0.1395
 2103poe    c2312273   5.349   4.293   5.868  0.0717  0.1900  0.3689
 2103poe    c2312274   5.385   4.267   5.720 -0.5290  0.0176  0.2500
 2103poe     o212275   5.443   4.138   5.722 -0.3908  0.0722 -0.1438
 2103poe    c3112276   5.471   4.095   5.591 -0.1436 -0.4222  0.0656
 2104poe    c3112277   6.294   2.055   2.504  0.6032 -0.0439  0.3217
 2104poe     o212278   6.426   2.077   2.458  0.3449 -0.0914 -0.4646
 2104poe    c2312279   6.414   2.035   2.324 -0.6676  0.0323 -0.4175
 2104poe    c2312280   6.554   2.065   2.269 -0.3112  0.5794  0.7576
 2104poe     o212281   6.659   2.040   2.360  0.2203 -0.2072 -0.0608
 2104poe    c2312282   6.775   2.098   2.304  0.1622  0.1693  0.2069
 2104poe    c2312283   6.872   2.097   2.424  0.2331 -0.0738  0.1489
 2104poe     o212284   6.808   2.155   2.535 -0.4107 -0.0363 -0.2344
 2104poe    c2312285   6.909   2.186   2.629 -0.7930 -0.2437  0.2467
 2104poe    c2312286   6.851   2.251   2.756 -0.4627 -0.2652  0.4092
 2104poe     o212287   6.764   2.357   2.726 -0.1078 -0.1920 -0.3863
 2104poe    c3112288   6.731   2.416   2.850 -0.1964  0.2226 -0.6072
 2105poe    c3112289   0.500   2.985   6.262 -0.0496 -0.1500  0.2942
 2105poe     o212290   0.420   2.945   6.371 -0.2356 -0.3382  0.0892
 2105poe    c2312291   0.305   2.873   6.332 -0.6047  0.0273  0.4805
 2105poe    c2312292   0.256   2.814   6.466 -0.3702 -0.4971  0.3406
 2105poe     o212293   0.238   2.923   6.554  0.1887  0.0218 -0.1813
 2105poe    c2312294   0.179   2.875   6.673  0.8451 -0.3449  0.0007
 2105poe    c2312295   0.196   2.997   6.765 -0.5552  0.2609 -0.5303
 2105poe     o212296   0.329   3.038   6.745 -0.5404  0.4203 -0.1170
 2105poe    c2312297   0.347   3.132   6.849 -0.4415  0.0719  0.1788
 2105poe    c2312298   0.481   3.108   6.922 -0.4266  0.5135  0.3001
 2105poe     o212299   0.579   3.110   6.821 -0.1888 -0.6269  0.4910
 2105poe    c3112300   0.698   3.090   6.894 -0.1585 -0.6932  0.4232
 2106poe    c3112301   6.051   3.167   0.216 -0.2153 -0.1252  0.1476
 2106poe     o212302   6.073   3.145   0.079 -0.1421 -0.1007  0.1555
 2106poe    c2312303   6.133   3.258   0.019 -0.2187  0.1762  0.6017
 2106poe    c2312304   6.124   3.258  -0.135  0.8409 -0.1490  0.5357
 2106poe     o212305   6.222   3.173  -0.189  0.1651 -0.4019 -0.3162
 2106poe    c2312306   6.291   3.244  -0.289  0.2907  0.2966  0.2568
 2106poe    c2312307   6.332   3.137  -0.392  0.3846  0.1716  0.4224
 2106poe     o212308   6.365   3.018  -0.324  0.1878 -0.4575 -0.5457
 2106poe    c2312309   6.438   2.928  -0.404  0.5609 -0.0104 -0.7140
 2106poe    c2312310   6.376   2.792  -0.365  0.1693  0.2756 -0.3166
 2106poe     o212311   6.369   2.787  -0.225 -0.6166 -0.1892 -0.3704
 2106poe    c3112312   6.329   2.660  -0.178 -0.2968 -0.0527  0.2880
 2107poe    c3112313   3.898   7.035   5.881  0.2081  0.0180  0.4642
 2107poe     o212314   3.795   7.051   5.976 -0.6730 -0.3376 -0.4158
 2107poe    c2312315   3.744   6.921   5.996 -0.2617 -0.5059 -0.4604
 2107poe    c2312316   3.622   6.936   6.089  0.0771  0.2201 -0.1229
 2107poe     o212317   3.667   6.981   6.215 -0.5971 -0.3350  0.3260
 2107poe    c2312318   3.562   6.993   6.308 -0.6982  0.7254  0.0925
 2107poe    c2312319   3.624   7.017   6.447 -0.0070 -0.5494  0.0208
 2107poe     o212320   3.716   7.122   6.428 -0.0044 -0.5459  0.0511
 2107poe    c2312321   3.738   7.200   6.544 -0.1306 -0.2030 -0.1526
 2107poe    c2312322   3.840   7.307   6.500 -0.2162  0.0054  0.1608
 2107poe     o212323   3.940   7.258   6.415 -0.2212  0.0575  0.1253
 2107poe    c3112324   4.020   7.368   6.379 -0.1969  0.0551  0.1714
 2108poe    c3112325   6.437   4.232   3.765 -0.0831 -0.4815 -0.3186
 2108poe     o212326   6.554   4.187   3.830  0.3549  0.7413 -0.2290
 2108poe    c2312327   6.649   4.164   3.729  0.3360  0.2102 -0.1271
 2108poe    c2312328   6.710   4.023   3.738 -0.4075 -0.1413 -0.4148
 2108poe     o212329   6.810   4.026   3.838 -0.6131  0.0520 -0.2144
 2108poe    c2312330   6.852   3.894   3.867 -0.5905  0.2070  0.4790
 2108poe    c2312331   6.904   3.856   4.007 -0.3698  0.0390  0.3519
 2108poe     o212332   6.800   3.882   4.098 -0.4826 -0.1144  0.2682
 2108poe    c2312333   6.855   3.888   4.228  0.8571 -0.2735 -0.2774
 2108poe    c2312334   6.760   3.887   4.349  0.2580 -0.1033 -0.7455
 2108poe     o212335   6.678   4.001   4.347 -0.2093 -0.3995  0.4941
 2108poe    c3112336   6.636   4.020   4.480 -0.2510  0.0100  0.4238
 2109poe    c3112337   3.179   1.270   2.978  0.4681  0.2639 -0.4345
 2109poe     o212338   3.114   1.211   3.088  0.7028  0.2002 -0.3294
 2109poe    c2312339   3.155   1.265   3.211  0.2433 -0.5971  0.1883
 2109poe    c2312340   3.051   1.219   3.315 -0.2109 -0.0976 -0.0412
 2109poe     o212341   3.075   1.081   3.333 -0.0374 -0.1036 -0.3044
 2109poe    c2312342   3.000   1.032   3.442 -0.1680 -0.4206 -0.5371
 2109poe    c2312343   2.973   0.881   3.432 -0.1302 -0.4840  0.2710
 2109poe     o212344   2.904   0.839   3.316 -0.3034 -0.3232  0.3165
 2109poe    c2312345   2.891   0.699   3.327  0.4728 -0.3915  0.4797
 2109poe    c2312346   2.815   0.654   3.201  0.0014 -0.4891  0.7942
 2109poe     o212347   2.681   0.697   3.192  0.0573 -0.4499  0.0647
 2109poe    c3112348   2.611   0.635   3.087 -0.5024 -0.3861  0.3937
 2110poe    c3112349   6.194   6.484   4.814 -0.2449 -0.1447  0.4308
 2110poe     o212350   6.129   6.418   4.708  0.1536 -0.0730  0.1414
 2110poe    c2312351   6.216   6.331   4.640  0.5031  0.2757  0.1361
 2110poe    c2312352   6.169   6.268   4.507  0.3294 -0.4439  0.5311
 2110poe     o212353   6.061   6.177   4.504 -0.0119 -0.0258 -0.1197
 2110poe    c2312354   5.936   6.226   4.547  0.1093 -0.2427  0.4935
 2110poe    c2312355   5.822   6.123   4.555 -0.1028 -0.0790 -0.2580
 2110poe     o212356   5.787   6.065   4.431  0.7711 -0.1511 -0.4785
 2110poe    c2312357   5.707   5.953   4.458  0.1789  0.4999  0.5707
 2110poe    c2312358   5.648   5.916   4.320  0.4195 -0.6087  0.7527
 2110poe     o212359   5.728   5.951   4.209 -0.2690 -0.1799  0.3823
 2110poe    c3112360   5.711   5.879   4.089  0.1547  0.1433  0.1252
 2111poe    c3112361   1.291   2.845   3.370 -0.2429 -0.0423 -0.2307
 2111poe     o212362   1.365   2.828   3.489 -0.5324  0.2740 -0.0037
 2111poe    c2312363   1.382   2.956   3.545 -0.4654  0.1689  0.2207
 2111poe    c2312364   1.532   2.988   3.554 -0.5450  0.3571  0.9401
 2111poe     o212365   1.597   2.907   3.649  0.0880  0.1257  0.3170
 2111poe    c2312366   1.730   2.952   3.656 -0.0046  0.5395 -0.4577
 2111poe    c2312367   1.829   2.840   3.692 -0.7670  0.0660  0.2151
 2111poe     o212368   1.774   2.773   3.803 -0.0965 -0.3696  0.2946
 2111poe    c2312369   1.864   2.670   3.836  0.7541  0.3921  0.3851
 2111poe    c2312370   1.781   2.586   3.935 -0.1620  0.8799  0.0384
 2111poe     o212371   1.667   2.558   3.857  0.2942 -0.1881 -0.2538
 2111poe    c3112372   1.595   2.453   3.918  0.3840 -0.4752 -0.6407
 2112poe    c3112373   3.541   6.092   6.253  0.5216  0.1633 -0.6723
 2112poe     o212374   3.681   6.076   6.246  0.5274 -0.0104 -0.1986
 2112poe    c2312375   3.725   6.150   6.135  0.3375 -0.7286 -0.7600
 2112poe    c2312376   3.878   6.164   6.124  0.3359  0.0162  0.1389
 2112poe     o212377   3.940   6.228   6.234 -0.1701  0.7557  0.0008
 2112poe    c2312378   4.064   6.280   6.193  0.0573 -0.2920 -0.6856
 2112poe    c2312379   4.157   6.308   6.312 -1.0054  0.1235  0.0605
 2112poe     o212380   4.173   6.185   6.379  0.1542 -0.0806 -0.5575
 2112poe    c2312381   4.218   6.218   6.509 -0.3450 -0.2179 -0.3435
 2112poe    c2312382   4.253   6.080   6.568  0.2581  0.0741 -0.0079
 2112poe     o212383   4.132   6.008   6.564  0.5919 -0.4678 -0.5344
 2112poe    c3112384   4.136   5.893   6.646  0.0316  0.0901  0.3000
 2113poe    c3112385   7.045   3.879   0.559 -0.2229 -0.8820 -0.5836
 2113poe     o212386   6.986   3.951   0.453 -0.3863 -0.3792 -0.1568
 2113poe    c2312387   6.896   3.877   0.373 -0.7134 -0.8584  0.6425
 2113poe    c2312388   6.827   3.985   0.288  0.1988 -0.8854 -0.1433
 2113poe     o212389   6.932   4.053   0.222 -0.0478 -0.8604 -0.5122
 2113poe    c2312390   6.889   4.112   0.101 -0.0225 -0.5390 -0.3648
 2113poe    c2312391   7.014   4.172   0.033 -0.4715  0.5221 -0.2855
 2113poe     o212392   7.079   4.274   0.105 -0.0717  0.2694 -0.2822
 2113poe    c2312393   7.186   4.317   0.024 -0.0182  0.3009 -0.1954
 2113poe    c2312394   7.306   4.361   0.109 -0.4389  0.2623  0.4256
 2113poe     o212395   7.372   4.254   0.172  0.3364  0.4688 -0.0141
 2113poe    c3112396   7.473   4.299   0.260  0.2427 -0.3067  0.4993
 2114poe    c3112397   3.026   3.975   4.555  0.6730  0.2121  0.3148
 2114poe     o212398   2.895   4.025   4.572  0.4324 -0.2387 -0.1720
 2114poe    c2312399   2.872   4.155   4.522  0.5543 -0.0650  0.2190
 2114poe    c2312400   2.720   4.178   4.526  0.5823  0.3938 -0.8724
 2114poe     o212401   2.665   4.065   4.461  0.2022  0.3667 -0.5098
 2114poe    c2312402   2.526   4.059   4.483  0.4438  0.2845  1.2023
 2114poe    c2312403   2.478   3.913   4.470  0.3715  0.4220 -0.3364
 2114poe     o212404   2.569   3.838   4.548  0.1453  0.1324 -0.3518
 2114poe    c2312405   2.500   3.724   4.595  0.0942  0.4550  0.3648
 2114poe    c2312406   2.585   3.624   4.675  0.1311  0.4613  0.3344
 2114poe     o212407   2.671   3.555   4.588 -0.4141 -0.2795  0.3742
 2114poe    c3112408   2.798   3.581   4.643 -0.3566  0.6516 -0.1794
 2115poe    c3112409   1.555   3.947   1.931  0.7885 -0.5226 -0.2028
 2115poe     o212410   1.654   3.863   1.876  0.9383  0.1586 -1.0099
 2115poe    c2312411   1.681   3.779   1.986 -0.0130  1.0216 -0.0938
 2115poe    c2312412   1.780   3.668   1.945 -0.5695  0.4397  0.1218
 2115poe     o212413   1.740   3.628   1.816  0.1225  0.4181 -0.0889
 2115poe    c2312414   1.837   3.543   1.760  0.1630  0.3039  0.1548
 2115poe    c2312415   1.795   3.518   1.614 -0.3847 -0.4705  0.4355
 2115poe     o212416   1.762   3.645   1.561  0.6638 -0.2080  0.3905
 2115poe    c2312417   1.739   3.650   1.422  0.3128 -0.1692  0.4481
 2115poe    c2312418   1.669   3.775   1.367  0.1680 -0.0482  0.9014
 2115poe     o212419   1.528   3.785   1.375  0.0725 -0.3227 -0.2013
 2115poe    c3112420   1.467   3.877   1.288  0.6123  0.3157  0.0846
 2116poe    c3112421   6.447   0.614   1.939  0.2159  0.4005  0.4692
 2116poe     o212422   6.429   0.587   1.802  0.1797  0.2429  0.5056
 2116poe    c2312423   6.544   0.519   1.756  0.1853  0.2846  0.4574
 2116poe    c2312424   6.540   0.486   1.606 -0.4679  0.0475  0.5227
 2116poe     o212425   6.483   0.363   1.569  0.1483  0.0131 -0.3720
 2116poe    c2312426   6.474   0.345   1.430  0.4780 -0.1921 -0.3683
 2116poe    c2312427   6.433   0.197   1.410  0.3573 -0.1713 -0.2757
 2116poe     o212428   6.504   0.117   1.501 -0.2592 -0.2709  0.1278
 2116poe    c2312429   6.468  -0.018   1.484  0.1150 -0.4241  0.5216
 2116poe    c2312430   6.536  -0.101   1.594  0.7868  0.2038  0.5860
 2116poe     o212431   6.513  -0.020   1.708 -0.1185  0.5190  0.1832
 2116poe    c3112432   6.572  -0.075   1.823  0.1193  0.0070 -0.1789
 2117poe    c3112433   1.431   6.935   1.120  0.1996  0.6485  0.0123
 2117poe     o212434   1.305   6.887   1.160  0.4317  0.3055  0.3483
 2117poe    c2312435   1.199   6.952   1.093  0.1385 -0.1175  0.3989
 2117poe    c2312436   1.066   6.877   1.115 -0.0611  0.1137 -0.0184
 2117poe     o212437   1.088   6.748   1.063  0.2711  0.0469  0.2886
 2117poe    c2312438   0.973   6.668   1.083  0.1361  0.1865  0.0650
 2117poe    c2312439   1.002   6.530   1.021  0.2592  0.1724  0.1537
 2117poe     o212440   1.054   6.532   0.890 -0.2811 -0.4045 -0.0758
 2117poe    c2312441   1.081   6.402   0.844  0.3915 -0.2772 -0.0514
 2117poe    c2312442   1.155   6.396   0.710  0.0013  0.1915 -0.2885
 2117poe     o212443   1.273   6.473   0.701  0.0743  0.0639 -0.4348
 2117poe    c3112444   1.363   6.407   0.616  0.5687 -0.0654  0.1780
 2118poe    c3112445   5.913   6.022   1.553 -0.2912 -0.4242  0.4384
 2118poe     o212446   6.014   5.949   1.488 -0.0841  0.9040 -0.7787
 2118poe    c2312447   6.135   5.977   1.556 -0.3904  0.0696  0.1379
 2118poe    c2312448   6.250   5.924   1.469 -0.3648  0.3959 -0.0295
 2118poe     o212449   6.202   5.798   1.428 -0.3845  0.5356 -0.4358
 2118poe    c2312450   6.303   5.703   1.404 -0.2821  0.6112 -0.2996
 2118poe    c2312451   6.255   5.569   1.346 -0.1454  0.1451  0.6504
 2118poe     o212452   6.193   5.606   1.226  0.2204 -0.2042  0.3514
 2118poe    c2312453   6.174   5.485   1.155 -0.8120 -0.1828  0.5778
 2118poe    c2312454   6.081   5.524   1.038 -0.0003 -0.2904 -0.1161
 2118poe     o212455   5.950   5.546   1.086 -0.2365 -0.6156 -0.5948
 2118poe    c3112456   5.873   5.572   0.971 -0.2836 -0.1782 -0.4651
 2119poe    c3112457   4.830   3.097   3.940 -0.2088  0.3522 -0.1768
 2119poe     o212458   4.941   3.171   3.986  0.1708 -0.2727 -0.0747
 2119poe    c2312459   4.918   3.309   3.971  0.0359 -0.2826  0.0304
 2119poe    c2312460   5.031   3.395   4.031 -0.1885 -0.0798  0.1646
 2119poe     o212461   5.036   3.372   4.171 -0.6956 -0.1026  0.1790
 2119poe    c2312462   5.125   3.465   4.229 -0.1040 -0.3608 -0.2971
 2119poe    c2312463   5.099   3.438   4.379  0.3067  0.1813 -0.1272
 2119poe     o212464   5.125   3.302   4.405 -0.4979  0.0692  0.1033
 2119poe    c2312465   5.113   3.263   4.540  1.5636 -0.0266  0.2884
 2119poe    c2312466   5.133   3.110   4.537 -0.5847 -0.3435  0.2260
 2119poe     o212467   5.038   3.070   4.441 -0.3544 -0.1957 -0.0679
 2119poe    c3112468   5.031   2.929   4.444  0.6759 -0.2557  0.0448
 2120poe    c3112469   0.375   2.191   4.078  0.0272 -0.6085 -0.3780
 2120poe     o212470   0.328   2.312   4.022  0.5160 -0.2616 -0.0431
 2120poe    c2312471   0.436   2.392   3.981  0.3412  0.1153  0.2231
 2120poe    c2312472   0.382   2.524   3.924  0.1605 -0.1347 -0.1905
 2120poe     o212473   0.315   2.507   3.801  0.0786  0.0970 -0.1796
 2120poe    c2312474   0.253   2.626   3.758 -0.5162 -0.1351  0.0347
 2120poe    c2312475   0.140   2.605   3.655 -0.2524  0.2990 -0.3439
 2120poe     o212476   0.051   2.507   3.702  0.5205 -0.6201 -0.7497
 2120poe    c2312477  -0.059   2.487   3.615 -0.3674 -0.0586  0.2180
 2120poe    c2312478  -0.140   2.378   3.688 -0.1900 -0.2696  0.1011
 2120poe     o212479  -0.050   2.278   3.732  0.3271  0.0207 -0.2808
 2120poe    c3112480  -0.105   2.160   3.679 -0.1081 -0.1912  0.6149
 2121poe    c3112481   6.412   6.903   3.998  0.5259 -0.3897  0.2247
 2121poe     o212482   6.523   6.983   4.030  0.3004 -0.0012  0.0370
 2121poe    c2312483   6.617   6.901   4.096  0.0829 -0.1089  0.2147
 2121poe    c2312484   6.723   6.984   4.171  0.0837  0.1844 -0.1078
 2121poe     o212485   6.820   7.045   4.089  0.2185 -0.2514 -0.2757
 2121poe    c2312486   6.901   7.130   4.168  0.3543 -0.2973 -0.3647
 2121poe    c2312487   7.024   7.184   4.093  0.3602 -0.3022 -0.3585
 2121poe     o212488   6.965   7.230   3.973 -0.3678  0.0423  0.1252
 2121poe    c2312489   7.051   7.275   3.870 -0.2039 -0.1893  0.1600
 2121poe    c2312490   6.962   7.352   3.771 -0.2340  0.4135  0.6462
 2121poe     o212491   6.845   7.277   3.751  0.2969 -0.2006 -0.2783
 2121poe    c3112492   6.760   7.349   3.664  0.7075 -0.1633 -0.6508
 2122poe    c3112493   6.501   4.695   3.749  0.7772 -0.0240 -0.3504
 2122poe     o212494   6.540   4.830   3.733 -0.4022  0.3459 -0.1473
 2122poe    c2312495   6.470   4.907   3.828 -0.0246 -0.2233  0.5966
 2122poe    c2312496   6.473   5.055   3.788 -0.6637 -0.0442  1.1885
 2122poe     o212497   6.596   5.105   3.835 -0.1784 -0.1471  0.0515
 2122poe    c2312498   6.579   5.242   3.866 -0.0513 -0.2612  0.6268
 2122poe    c2312499   6.713   5.310   3.903  0.0011  0.3403 -0.6372
 2122poe     o212500   6.796   5.318   3.790  0.2994  0.4689 -0.4083
 2122poe    c2312501   6.918   5.376   3.831  0.3534 -0.1074  0.2525
 2122poe    c2312502   7.014   5.398   3.712  0.2773 -0.0124  0.2093
 2122poe     o212503   7.030   5.279   3.638  0.6098 -0.2030  0.5852
 2122poe    c3112504   7.157   5.221   3.656  0.6998  0.0221  0.6875
 2123poe    c3112505   4.620   4.224   3.192  0.2505 -0.4736 -0.4439
 2123poe     o212506   4.608   4.186   3.327 -0.1033 -0.3096 -0.4264
 2123poe    c2312507   4.473   4.182   3.368 -0.0001 -0.2076 -0.0664
 2123poe    c2312508   4.448   4.136   3.513 -0.3878 -0.2953 -0.1592
 2123poe     o212509   4.469   4.000   3.541 -0.5671 -0.2138  0.3866
 2123poe    c2312510   4.497   3.993   3.678  0.5343 -0.2466  0.1665
 2123poe    c2312511   4.525   3.843   3.703 -0.3367 -0.3973  0.2656
 2123poe     o212512   4.657   3.816   3.662 -0.3016  0.0844  0.0515
 2123poe    c2312513   4.694   3.688   3.707  0.0538  0.2479  0.2321
 2123poe    c2312514   4.836   3.667   3.652 -0.0068  0.3414  0.0392
 2123poe     o212515   4.837   3.729   3.525 -0.1141 -0.0073 -0.1325
 2123poe    c3112516   4.959   3.728   3.454 -0.2312 -0.3190 -0.3308
 2124poe    c3112517   0.218   5.999   3.277  0.2896  0.7707 -0.8286
 2124poe     o212518   0.165   5.899   3.193 -0.0225 -0.1345  0.4050
 2124poe    c2312519   0.051   5.833   3.244 -0.2070  0.0239  0.2048
 2124poe    c2312520  -0.023   5.746   3.142 -0.0816  0.1647 -0.0071
 2124poe     o212521   0.071   5.690   3.053 -0.2017 -0.6464  0.3666
 2124poe    c2312522   0.018   5.633   2.936  0.2449  0.0972 -0.2029
 2124poe    c2312523   0.124   5.548   2.863 -0.2019 -0.1474 -0.5713
 2124poe     o212524   0.240   5.626   2.846 -0.8744  1.0001 -0.0029
 2124poe    c2312525   0.276   5.637   2.710  0.0982  0.3136  0.1904
 2124poe    c2312526   0.406   5.716   2.686  0.2514 -0.0885 -0.3364
 2124poe     o212527   0.512   5.629   2.718 -0.4225 -0.8099 -0.0385
 2124poe    c3112528   0.624   5.709   2.749 -0.2883 -0.9593 -0.1380
 2125poe    c3112529   5.021   4.815   0.692 -0.0804 -0.0949  0.2243
 2125poe     o212530   5.160   4.830   0.674 -0.1668 -0.3244 -0.6739
 2125poe    c2312531   5.226   4.727   0.743  0.0591 -0.1155 -0.5778
 2125poe    c2312532   5.249   4.620   0.634  0.0163 -0.7660  0.0447
 2125poe     o212533   5.134   4.574   0.567 -0.3760  0.1361  0.0848
 2125poe    c2312534   5.181   4.458   0.503 -0.0031  0.0842  0.4509
 2125poe    c2312535   5.075   4.348   0.484  0.0527  0.1030  0.0233
 2125poe     o212536   5.024   4.353   0.353  0.0704 -0.3835 -0.0060
 2125poe    c2312537   4.941   4.243   0.322 -0.5493  0.0451  0.1209
 2125poe    c2312538   4.951   4.179   0.183 -0.6842  0.4126 -0.0594
 2125poe     o212539   4.883   4.057   0.166 -0.4073  0.2078  0.2826
 2125poe    c3112540   4.971   3.946   0.171 -0.6273  0.0275  0.1770
 2126poe    c3112541   0.403   4.391   1.651  0.2057 -0.0394  0.1489
 2126poe     o212542   0.404   4.461   1.529  0.0673 -0.5156 -0.1264
 2126poe    c2312543   0.294   4.439   1.443 -0.1903  0.0750  0.0514
 2126poe    c2312544   0.354   4.458   1.303 -0.7681 -0.1781 -0.2358
 2126poe     o212545   0.437   4.572   1.292  0.1559 -0.7529  0.5643
 2126poe    c2312546   0.494   4.593   1.165  0.0788  0.1496  0.6710
 2126poe    c2312547   0.588   4.714   1.148  0.2449 -0.1853 -0.9792
 2126poe     o212548   0.683   4.723   1.252 -0.6701  0.1084 -0.1517
 2126poe    c2312549   0.716   4.854   1.292 -0.6396  0.0800 -0.0844
 2126poe    c2312550   0.827   4.859   1.399 -0.7724  0.1709  0.0504
 2126poe     o212551   0.804   4.784   1.517  0.1922 -0.3913 -0.1077
 2126poe    c3112552   0.926   4.785   1.588 -0.1329 -0.6194  0.4614
 2127poe    c3112553   6.142   0.901   2.502 -0.0962 -0.4105  0.1058
 2127poe     o212554   6.074   0.960   2.610 -0.2746 -0.1445 -0.1493
 2127poe    c2312555   6.156   1.035   2.696  0.1251 -0.7839  0.0363
 2127poe    c2312556   6.102   1.068   2.837  0.6329 -0.1427  0.0897
 2127poe     o212557   6.167   1.171   2.908 -0.0872  0.6423 -0.3736
 2127poe    c2312558   6.100   1.187   3.031  0.2573  0.4566 -0.1617
 2127poe    c2312559   6.199   1.256   3.127  0.0362 -0.3116  0.6298
 2127poe     o212560   6.252   1.363   3.053 -0.0768 -0.2804  0.5936
 2127poe    c2312561   6.319   1.436   3.153  0.7151 -0.2433  0.0519
 2127poe    c2312562   6.394   1.549   3.080  0.0835  0.1140 -0.0602
 2127poe     o212563   6.497   1.495   3.000  0.1042  0.0163  0.0320
 2127poe    c3112564   6.564   1.611   2.955  0.2478  0.0425  0.3082
 2128poe    c3112565   4.344   3.243   6.000  0.6026  0.1538  0.4155
 2128poe     o212566   4.260   3.134   6.032  0.1192  0.4493  0.1658
 2128poe    c2312567   4.275   3.094   6.166 -0.3118 -0.3112 -0.0121
 2128poe    c2312568   4.133   3.053   6.211 -0.3956 -0.0593 -0.0478
 2128poe     o212569   4.099   2.969   6.104  0.1319 -0.3282 -0.0089
 2128poe    c2312570   3.968   2.919   6.125 -0.0726  0.0246 -0.4240
 2128poe    c2312571   3.926   2.829   6.008  0.4616 -0.4419 -0.2600
 2128poe     o212572   3.970   2.876   5.883 -0.5535  0.4076 -0.3125
 2128poe    c2312573   3.957   2.774   5.786  0.3183  0.0263 -0.0439
 2128poe    c2312574   3.991   2.831   5.647 -0.1172  0.2391 -0.0646
 2128poe     o212575   4.128   2.829   5.616 -0.2370  0.1335 -0.6083
 2128poe    c3112576   4.143   2.836   5.476  0.5537 -0.2906 -0.5543
 2129poe    c3112577   4.081   2.226   3.133  0.1855 -0.2515  0.1453
 2129poe     o212578   4.173   2.294   3.216  0.4285  0.0199 -0.3374
 2129poe    c2312579   4.100   2.397   3.278  0.1812 -0.2431 -0.1890
 2129poe    c2312580   4.206   2.463   3.369 -0.1455  0.1342 -0.0763
 2129poe     o212581   4.267   2.364   3.449  0.3381  0.4968  0.0005
 2129poe    c2312582   4.382   2.426   3.503  0.5316 -0.0122  0.1788
 2129poe    c2312583   4.474   2.319   3.564  0.3931 -0.1647  0.1182
 2129poe     o212584   4.514   2.212   3.480 -0.3608 -0.3384 -0.0299
 2129poe    c2312585   4.644   2.160   3.497 -0.2855 -0.0754  0.2097
 2129poe    c2312586   4.666   2.047   3.395 -0.4620  0.1593 -0.0884
 2129poe     o212587   4.636   2.091   3.264  0.3018  0.4590 -0.1699
 2129poe    c3112588   4.692   2.014   3.160  0.3294  0.4428 -0.1430
 2130poe    c3112589   3.302   1.193   0.857  0.0723  0.4771  0.7798
 2130poe     o212590   3.247   1.215   0.729 -0.4500  0.5032  1.0070
 2130poe    c2312591   3.252   1.353   0.698  0.4595  0.1744 -0.3901
 2130poe    c2312592   3.228   1.392   0.551 -0.2684 -0.0568 -0.3348
 2130poe     o212593   3.348   1.371   0.480  0.0632 -0.1380  0.2448
 2130poe    c2312594   3.336   1.373   0.340  0.3452 -0.4305  0.2155
 2130poe    c2312595   3.471   1.370   0.265  0.1916 -0.4959 -0.0608
 2130poe     o212596   3.554   1.484   0.276 -0.2316 -0.1659 -0.2304
 2130poe    c2312597   3.642   1.485   0.386  0.3825 -0.5904 -0.7078
 2130poe    c2312598   3.713   1.621   0.393 -0.4076 -0.1853 -0.4103
 2130poe     o212599   3.752   1.650   0.261  0.1125  0.2746 -0.1592
 2130poe    c3112600   3.857   1.744   0.265  0.1026  0.2858 -0.1582
 2131poe    c3112601   0.118   1.915   4.278 -0.3779 -0.3126 -0.1501
 2131poe     o212602   0.132   2.023   4.367 -0.2389 -0.8562  0.4911
 2131poe    c2312603   0.010   2.084   4.402 -0.0647 -0.1987 -0.0400
 2131poe    c2312604   0.005   2.222   4.471  0.2110  0.0383 -0.4875
 2131poe     o212605   0.114   2.233   4.560 -0.1319 -0.4502 -0.0044
 2131poe    c2312606   0.073   2.299   4.678 -0.1288  0.3088 -0.4221
 2131poe    c2312607   0.165   2.238   4.786 -0.2435  0.7187 -0.0885
 2131poe     o212608   0.302   2.221   4.756 -0.2009  0.1534  0.4015
 2131poe    c2312609   0.371   2.146   4.853  0.2865  0.3203  0.1861
 2131poe    c2312610   0.524   2.150   4.837  0.3246  0.6017  0.5999
 2131poe     o212611   0.537   2.142   4.697 -0.3684 -0.1477  0.5742
 2131poe    c3112612   0.664   2.169   4.644 -0.5919 -0.0557  0.0731
 2132poe    c3112613   4.817   5.592   3.911 -0.1534 -0.2436  0.5383
 2132poe     o212614   4.771   5.685   4.006 -0.4429  0.1898 -0.0233
 2132poe    c2312615   4.636   5.713   3.979 -0.3024  0.5186 -0.3804
 2132poe    c2312616   4.578   5.770   4.110 -0.1286 -0.2517  0.0388
 2132poe     o212617   4.646   5.884   4.156 -0.0593 -0.3016  0.0591
 2132poe    c2312618   4.553   5.957   4.233 -0.5767 -0.4105 -0.4604
 2132poe    c2312619   4.627   6.066   4.312 -0.5201 -0.3624 -0.5804
 2132poe     o212620   4.715   6.149   4.239 -0.4068  0.0195 -0.0148
 2132poe    c2312621   4.774   6.234   4.334 -0.0171 -0.2096 -0.0487
 2132poe    c2312622   4.917   6.273   4.292 -0.0775  0.0573 -0.0123
 2132poe     o212623   4.956   6.168   4.206 -0.4881  0.1204 -0.2775
 2132poe    c3112624   5.083   6.206   4.157 -0.4106  0.0155 -0.1580
 2133poe    c3112625   5.689   0.435   1.726  1.2816  0.3933  0.0152
 2133poe     o212626   5.733   0.397   1.597  0.1086 -0.3935 -0.1729
 2133poe    c2312627   5.864   0.352   1.625 -0.1928 -0.6553  0.8813
 2133poe    c2312628   5.919   0.260   1.514 -0.1866 -0.3471  0.6271
 2133poe     o212629   5.816   0.178   1.465  0.0627 -0.4667  0.2978
 2133poe    c2312630   5.873   0.059   1.415  0.0789 -0.6332  0.7157
 2133poe    c2312631   5.772  -0.051   1.381 -0.1036 -0.1197 -0.4506
 2133poe     o212632   5.690  -0.075   1.494  0.2113  0.2911 -0.1332
 2133poe    c2312633   5.589  -0.172   1.483  0.3934  0.1474 -0.5657
 2133poe    c2312634   5.467  -0.124   1.401  0.3465  0.1565 -0.4909
 2133poe     o212635   5.399  -0.009   1.447  0.2994  0.0834 -0.3771
 2133poe    c3112636   5.286   0.023   1.371 -0.3144  0.1210  0.5347
 2134poe    c3112637   1.387   3.037   1.285 -0.3856 -0.5262  0.2726
 2134poe     o212638   1.403   2.897   1.284 -0.1895 -0.5026 -0.4967
 2134poe    c2312639   1.432   2.837   1.408  0.0552 -0.0300 -0.3211
 2134poe    c2312640   1.420   2.683   1.413  0.0559 -0.0172  0.1174
 2134poe     o212641   1.519   2.621   1.333 -0.5156 -0.1265 -0.5149
 2134poe    c2312642   1.507   2.482   1.346 -0.1960 -0.0950  0.1508
 2134poe    c2312643   1.629   2.449   1.259 -0.5222 -0.0312 -0.3372
 2134poe     o212644   1.618   2.498   1.128  0.0306  0.7033 -0.1156
 2134poe    c2312645   1.724   2.454   1.045 -0.3788 -0.0093 -0.2686
 2134poe    c2312646   1.750   2.533   0.916  0.2403  0.1404 -0.0563
 2134poe     o212647   1.670   2.491   0.807 -0.0004 -0.3835  0.3191
 2134poe    c3112648   1.696   2.581   0.701 -0.1554 -0.3525  0.3073
 2135poe    c3112649   6.268   2.856   0.322 -0.0127 -0.3127  0.0452
 2135poe     o212650   6.254   2.828   0.184 -0.3059  0.5485 -0.1051
 2135poe    c2312651   6.179   2.710   0.163  0.0122  0.3778 -0.2904
 2135poe    c2312652   6.241   2.571   0.185 -0.0557  0.3206 -0.4579
 2135poe     o212653   6.354   2.528   0.113 -0.3003 -0.6517 -0.2825
 2135poe    c2312654   6.390   2.402   0.164 -0.2340 -0.3644  0.3912
 2135poe    c2312655   6.527   2.354   0.112 -0.1996  0.4282 -0.2694
 2135poe     o212656   6.515   2.313  -0.022  0.2109  0.3080 -0.2699
 2135poe    c2312657   6.641   2.341  -0.077  0.5757 -0.2825  0.2460
 2135poe    c2312658   6.691   2.233  -0.175  0.1422  0.1055 -0.4136
 2135poe     o212659   6.641   2.241  -0.307  0.3620  0.7060 -0.4623
 2135poe    c3112660   6.729   2.316  -0.388  0.1571  0.1269 -1.2337
 2136poe    c3112661   5.361   2.660   3.809 -0.4100 -0.0110  0.1356
 2136poe     o212662   5.332   2.524   3.829 -0.0591 -0.1106 -0.0279
 2136poe    c2312663   5.196   2.503   3.798 -0.0316  0.3356 -0.4670
 2136poe    c2312664   5.164   2.352   3.800  0.4283  0.2387  0.4403
 2136poe     o212665   5.233   2.282   3.698  0.3770 -0.0066  0.5744
 2136poe    c2312666   5.246   2.152   3.750  0.2543 -0.3053 -0.1344
 2136poe    c2312667   5.350   2.071   3.669  0.5737  0.0632 -0.0930
 2136poe     o212668   5.483   2.115   3.687  0.2793  0.8407  0.2303
 2136poe    c2312669   5.558   1.996   3.686 -0.4240  0.3931 -0.1704
 2136poe    c2312670   5.703   2.006   3.737 -0.6233  0.7650  0.3309
 2136poe     o212671   5.800   2.067   3.655 -0.2823  0.1086  0.2367
 2136poe    c3112672   5.856   1.976   3.563  0.6394  0.4896  0.4150
 2137poe    c3112673   6.702   2.341   4.190  1.2315  0.0823  0.2969
 2137poe     o212674   6.726   2.202   4.202 -0.1498 -0.1435  0.6286
 2137poe    c2312675   6.660   2.156   4.318 -0.6454  0.2194  0.4942
 2137poe    c2312676   6.657   2.002   4.314 -0.0880  0.2152 -0.0394
 2137poe     o212677   6.663   1.965   4.178  0.7368 -0.3111  0.1379
 2137poe    c2312678   6.694   1.828   4.165 -0.2345 -0.5426  0.2066
 2137poe    c2312679   6.676   1.785   4.018 -0.3883  0.1227  0.0271
 2137poe     o212680   6.740   1.895   3.957  0.2471 -0.1245  0.2410
 2137poe    c2312681   6.788   1.866   3.827 -0.2331  0.7319 -0.1369
 2137poe    c2312682   6.928   1.803   3.821 -0.4270  0.2880 -0.0230
 2137poe     o212683   7.022   1.894   3.874  0.1989 -0.0492 -0.5357
 2137poe    c3112684   7.153   1.845   3.858  0.5408  0.5061  0.4846
 2138poe    c3112685   2.755   0.378   1.816  0.5601 -0.3682 -0.3853
 2138poe     o212686   2.723   0.351   1.951 -0.0855 -0.4848 -0.5541
 2138poe    c2312687   2.604   0.422   1.975  0.7069  0.5780  0.3822
 2138poe    c2312688   2.566   0.390   2.120 -0.0278 -0.3511 -0.0035
 2138poe     o212689   2.656   0.446   2.213  0.2807 -0.0178 -0.5020
 2138poe    c2312690   2.621   0.436   2.349  0.6939  0.5442 -0.3495
 2138poe    c2312691   2.674   0.562   2.420 -0.0200  0.5969  0.1033
 2138poe     o212692   2.811   0.579   2.390  0.0264  0.1231  0.0485
 2138poe    c2312693   2.871   0.687   2.457 -0.0243 -0.0314  0.3451
 2138poe    c2312694   3.017   0.700   2.410 -0.1984  0.1637 -0.1465
 2138poe     o212695   3.005   0.687   2.270 -0.2443  0.0277 -0.1302
 2138poe    c3112696   3.129   0.699   2.204 -0.0660  0.9664  0.3568
 2139poe    c3112697   1.629   6.137   4.254  0.2058  0.2016 -0.2604
 2139poe     o212698   1.498   6.173   4.217  0.0290  0.2488  0.4058
 2139poe    c2312699   1.453   6.264   4.315  0.0595  0.6984  0.0079
 2139poe    c2312700   1.322   6.215   4.380  0.1939  0.0549 -0.2011
 2139poe     o212701   1.214   6.211   4.290  0.3667  0.7854 -0.4470
 2139poe    c2312702   1.094   6.229   4.360  0.2140  0.8526 -0.7229
 2139poe    c2312703   0.976   6.197   4.266  0.0707  0.0377 -0.2780
 2139poe     o212704   1.004   6.063   4.231 -0.6584 -0.3628  0.6090
 2139poe    c2312705   0.909   6.028   4.133  0.1472 -0.7260 -0.0501
 2139poe    c2312706   0.931   5.880   4.098  0.2291 -0.7903  0.2697
 2139poe     o212707   1.071   5.873   4.076  0.2125 -0.1873 -0.0532
 2139poe    c3112708   1.108   5.777   3.980 -0.6555 -0.3352 -0.2554
 2140poe    c3112709   4.016   6.848   3.013 -0.2957 -0.5143 -0.1721
 2140poe     o212710   4.037   6.921   2.894 -0.4795  0.1473  0.1937
 2140poe    c2312711   4.034   6.823   2.793 -0.0671  0.1712  0.1566
 2140poe    c2312712   4.098   6.865   2.659 -0.5554  0.0546 -0.1170
 2140poe     o212713   4.072   6.998   2.622  0.4407  0.2767 -0.0574
 2140poe    c2312714   4.057   6.994   2.482  0.5897  0.0308 -0.0650
 2140poe    c2312715   4.049   7.131   2.412  0.6908  0.2142  0.2813
 2140poe     o212716   3.945   7.215   2.457  0.1459 -0.2727 -0.0561
 2140poe    c2312717   3.988   7.349   2.465 -0.4699 -0.0396 -0.5075
 2140poe    c2312718   3.896   7.428   2.559 -0.3401 -0.1072 -0.3220
 2140poe     o212719   3.877   7.369   2.686 -0.1632  0.1332 -0.1830
 2140poe    c3112720   3.808   7.469   2.758 -0.2665 -0.4917  0.5966
 2141poe    c3112721   1.982   4.310   2.249 -0.0939  0.0194 -0.1951
 2141poe     o212722   2.121   4.324   2.273 -0.2308  0.2910  0.4743
 2141poe    c2312723   2.152   4.216   2.358  0.1960 -0.0546 -0.1101
 2141poe    c2312724   2.300   4.229   2.396  0.0849 -0.3426  0.4387
 2141poe     o212725   2.333   4.352   2.457 -0.0314 -0.2116  0.2402
 2141poe    c2312726   2.461   4.362   2.516  0.4232 -0.0212 -0.7467
 2141poe    c2312727   2.507   4.508   2.533 -0.7773  0.3195 -0.2938
 2141poe     o212728   2.496   4.593   2.422 -0.0431  0.1648 -0.4920
 2141poe    c2312729   2.522   4.727   2.457 -0.4992  0.1101  0.0691
 2141poe    c2312730   2.553   4.817   2.336  0.3341 -0.6513 -0.2963
 2141poe     o212731   2.442   4.806   2.250  0.0189 -0.1310  0.0353
 2141poe    c3112732   2.453   4.889   2.136  0.7986  0.4351  0.5204
 2142poe    c3112733   5.472   1.961   6.192 -0.3151  0.2593  0.7572
 2142poe     o212734   5.580   1.895   6.254  0.0173  0.0080 -0.0742
 2142poe    c2312735   5.649   1.956   6.361 -0.0963 -0.0191  0.0152
 2142poe    c2312736   5.782   1.889   6.403  0.0616  0.3044  0.0304
 2142poe     o212737   5.886   1.929   6.317 -0.1241 -0.0150 -0.3443
 2142poe    c2312738   6.010   1.904   6.379 -0.2964 -0.1976 -0.0700
 2142poe    c2312739   6.132   1.889   6.285 -0.4501  0.0268 -0.3079
 2142poe     o212740   6.131   1.757   6.235  0.2851 -0.0799 -0.0467
 2142poe    c2312741   6.224   1.666   6.289  0.0157 -0.3476 -0.0314
 2142poe    c2312742   6.238   1.540   6.201 -0.1309  0.0438 -0.6230
 2142poe     o212743   6.118   1.467   6.193 -0.1521 -0.0436  0.2821
 2142poe    c3112744   6.141   1.338   6.141  0.0708 -0.3620  1.1592
 2143poe    c3112745   6.048   2.930   6.318 -0.0344  0.2235 -0.2270
 2143poe     o212746   6.046   2.885   6.185  0.4093 -0.4105 -0.0231
 2143poe    c2312747   6.020   2.746   6.183  0.5790 -0.4470  0.2707
 2143poe    c2312748   6.025   2.711   6.033 -0.4422  0.5045 -0.0000
 2143poe     o212749   5.946   2.808   5.968 -0.4418  0.3018 -0.3060
 2143poe    c2312750   5.965   2.794   5.829  0.1018 -0.5863 -0.1501
 2143poe    c2312751   5.897   2.913   5.759  0.8413 -0.3013 -0.3836
 2143poe     o212752   5.914   3.033   5.831 -0.0344 -0.1617 -0.3994
 2143poe    c2312753   5.900   3.135   5.735 -0.3099  0.2975  0.1227
 2143poe    c2312754   5.946   3.270   5.793 -0.1929 -0.0029  0.7349
 2143poe     o212755   6.080   3.278   5.835  0.1664 -0.0817 -0.3724
 2143poe    c3112756   6.091   3.418   5.845 -0.3507 -0.0248 -0.5784
 2144poe    c3112757   4.370   6.803   0.160  0.3901 -0.0580 -0.5871
 2144poe     o212758   4.472   6.708   0.142 -0.0053 -0.6145  0.0503
 2144poe    c2312759   4.599   6.762   0.172 -0.2909  0.4758 -0.6477
 2144poe    c2312760   4.711   6.679   0.108  0.2915  0.3859  0.4662
 2144poe     o212761   4.732   6.551   0.165  0.0777  0.1279 -0.0316
 2144poe    c2312762   4.845   6.501   0.098  0.5557  0.4242  0.5498
 2144poe    c2312763   4.832   6.348   0.104 -0.3260  0.4791  0.1304
 2144poe     o212764   4.835   6.301   0.237  0.5109 -0.0603 -0.0758
 2144poe    c2312765   4.803   6.165   0.254 -0.2531  0.1140 -0.0884
 2144poe    c2312766   4.767   6.130   0.399  0.2005 -0.6670 -0.1595
 2144poe     o212767   4.660   6.216   0.431  0.3545 -0.4525 -0.2206
 2144poe    c3112768   4.652   6.178   0.567  0.3717  0.3603  0.0110
 2145poe    c3112769   6.987   6.129   3.567  0.1028 -0.4991  0.1331
 2145poe     o212770   6.906   6.222   3.637  0.9932  0.3393  0.0747
 2145poe    c2312771   6.875   6.181   3.769 -0.1670  0.0511 -0.2707
 2145poe    c2312772   6.802   6.287   3.852 -0.1284 -0.2959  0.2123
 2145poe     o212773   6.678   6.333   3.802  0.1437  0.2195 -0.0060
 2145poe    c2312774   6.649   6.456   3.865 -0.0141  0.2167 -0.0724
 2145poe    c2312775   6.537   6.518   3.779 -0.1692 -0.5413 -0.4252
 2145poe     o212776   6.558   6.590   3.659  0.2182  0.0950  0.0169
 2145poe    c2312777   6.632   6.709   3.677  0.1539  0.0944  0.2956
 2145poe    c2312778   6.638   6.788   3.545 -0.1984 -0.4589 -0.0581
 2145poe     o212779   6.661   6.696   3.441 -0.5372 -0.5962 -0.0138
 2145poe    c3112780   6.694   6.763   3.321  0.1580 -0.1279  0.4305
 2146poe    c3112781   2.498   5.266   2.918  0.2632 -0.4722 -0.0202
 2146poe     o212782   2.612   5.229   2.844  0.5811  0.0095  0.2295
 2146poe    c2312783   2.626   5.089   2.838 -0.6133 -0.1020 -0.1636
 2146poe    c2312784   2.726   5.041   2.731 -0.4727 -0.1143 -0.0262
 2146poe     o212785   2.854   5.086   2.772 -0.3608 -0.5433  0.0973
 2146poe    c2312786   2.947   5.049   2.674  0.0079 -0.2949  0.3490
 2146poe    c2312787   3.025   5.165   2.610  0.0287 -0.2417  0.4707
 2146poe     o212788   3.077   5.232   2.723 -0.1378  0.6500  0.0302
 2146poe    c2312789   3.172   5.335   2.707  0.6685 -0.1162 -0.2235
 2146poe    c2312790   3.222   5.351   2.852 -0.0463 -0.8214  0.1096
 2146poe     o212791   3.106   5.356   2.932 -0.0836  0.5861 -0.0103
 2146poe    c3112792   3.140   5.413   3.057  0.5428  0.1994 -0.0006
 2147poe    c3112793   3.364   4.316   5.841  0.1400  0.1306  0.4892
 2147poe     o212794   3.274   4.393   5.764  0.1437 -0.3153  0.0353
 2147poe    c2312795   3.334   4.509   5.712 -0.3497 -0.1492 -0.1619
 2147poe    c2312796   3.224   4.582   5.633 -0.1210  0.1375 -0.2181
 2147poe     o212797   3.125   4.600   5.732  0.4111  0.6691  0.2184
 2147poe    c2312798   3.025   4.692   5.695 -0.3296  0.0215  0.6039
 2147poe    c2312799   2.907   4.698   5.794 -0.5474  0.3246  0.3269
 2147poe     o212800   2.871   4.567   5.833 -0.2164  0.1299 -0.0125
 2147poe    c2312801   2.756   4.575   5.914 -0.0207 -0.3356  0.3110
 2147poe    c2312802   2.742   4.449   6.001  0.1707 -0.4066  0.2390
 2147poe     o212803   2.831   4.444   6.110 -0.4848  0.4566  0.8254
 2147poe    c3112804   2.795   4.341   6.200  0.1633  0.0703  0.6503
 2148poe    c3112805   2.872   0.282   0.265  0.0941 -0.6496 -0.2431
 2148poe     o212806   2.943   0.393   0.213  0.1526 -0.3325  0.5060
 2148poe    c2312807   3.067   0.403   0.280  0.4568  0.5120 -0.1756
 2148poe    c2312808   3.130   0.539   0.247 -0.1413  0.7537 -0.3448
 2148poe     o212809   3.112   0.573   0.111 -0.8462  0.4092 -0.3367
 2148poe    c2312810   3.182   0.690   0.076  0.4787 -0.3388 -0.2444
 2148poe    c2312811   3.134   0.706  -0.069 -0.0979  0.4003  0.0233
 2148poe     o212812   2.997   0.677  -0.079  0.0647 -0.2974 -0.1899
 2148poe    c2312813   2.953   0.729  -0.203 -0.4041  0.6150  0.3502
 2148poe    c2312814   2.823   0.675  -0.265 -0.0671  0.0721  0.1084
 2148poe     o212815   2.823   0.534  -0.268 -0.3952  0.0571  0.6433
 2148poe    c3112816   2.694   0.488  -0.299 -0.0807 -0.1909 -0.3173
 2149poe    c3112817   1.146   1.814   4.503 -0.0162  0.4813 -0.2448
 2149poe     o212818   1.207   1.895   4.405  0.6579  0.4834  0.1760
 2149poe    c2312819   1.119   1.935   4.303  0.1181 -0.2293  0.3521
 2149poe    c2312820   1.181   2.053   4.226 -0.4945 -0.4501 -0.5004
 2149poe     o212821   1.305   2.011   4.174 -0.1695  0.0658 -0.1599
 2149poe    c2312822   1.379   2.127   4.142  0.0203 -0.0455 -0.1242
 2149poe    c2312823   1.495   2.071   4.057 -0.0628 -0.4549  0.0284
 2149poe     o212824   1.554   1.976   4.142 -0.4283 -0.4309  0.3110
 2149poe    c2312825   1.668   1.930   4.072 -0.0755  0.5615  0.2160
 2149poe    c2312826   1.725   1.819   4.162 -0.0514  0.3510 -0.0597
 2149poe     o212827   1.614   1.745   4.209  0.2212 -0.1888 -0.2597
 2149poe    c3112828   1.668   1.646   4.294  0.0532  0.2336  0.3404
 2150poe    c3112829   4.721   1.930   3.772  0.0680 -0.4775 -0.0092
 2150poe     o212830   4.590   1.883   3.792 -0.0820 -0.1418 -0.2060
 2150poe    c2312831   4.594   1.743   3.799  0.3253 -0.1308 -0.1902
 2150poe    c2312832   4.481   1.680   3.883  0.5642 -0.8038 -0.3661
 2150poe     o212833   4.366   1.699   3.804 -0.0422  0.2444  0.7416
 2150poe    c2312834   4.245   1.689   3.875 -0.1771  0.3180  0.5232
 2150poe    c2312835   4.113   1.719   3.802  0.1970  0.0220 -0.2794
 2150poe     o212836   4.105   1.851   3.754  0.0887  0.0251 -0.2530
 2150poe    c2312837   3.973   1.888   3.722 -0.0128 -0.6503 -0.6256
 2150poe    c2312838   3.977   2.001   3.617  0.0341 -0.0619  0.0082
 2150poe     o212839   4.028   1.947   3.498  0.0960 -0.1911  0.0932
 2150poe    c3112840   3.943   1.972   3.388 -0.1479 -0.3489  0.2460
 2151poe    c3112841   6.120   4.811   6.539  0.1663 -0.3964 -0.2047
 2151poe     o212842   6.133   4.874   6.664  0.0486 -0.0281 -0.3777
 2151poe    c2312843   6.231   4.973   6.643 -0.5309  0.5242 -0.5273
 2151poe    c2312844   6.235   5.093   6.740  0.2761 -0.0082  0.1094
 2151poe     o212845   6.139   5.194   6.726  0.3165 -0.0343 -0.3645
 2151poe    c2312846   6.201   5.319   6.744 -0.2821  0.1150  0.7316
 2151poe    c2312847   6.133   5.445   6.686 -0.1087 -0.1328 -0.0117
 2151poe     o212848   6.135   5.454   6.545 -0.1050 -0.5727 -0.0411
 2151poe    c2312849   6.116   5.583   6.494 -0.3760 -0.6015 -0.0124
 2151poe    c2312850   6.084   5.583   6.343 -0.1410 -0.6038 -0.0618
 2151poe     o212851   5.952   5.541   6.313 -0.4049 -0.0901  0.3789
 2151poe    c3112852   5.911   5.629   6.211 -0.3267  0.1543  0.5537
 2152poe    c3112853   1.121   5.844   5.482 -0.0709 -0.3159 -0.0068
 2152poe     o212854   1.051   5.782   5.588 -0.2320 -0.0424  0.0487
 2152poe    c2312855   1.146   5.702   5.655 -0.2930 -0.1989 -0.0510
 2152poe    c2312856   1.092   5.609   5.765 -0.4972  0.3361  0.3025
 2152poe     o212857   1.006   5.516   5.703 -0.0393  0.2063 -0.1418
 2152poe    c2312858   0.996   5.397   5.777 -0.5222  0.3325 -0.0011
 2152poe    c2312859   0.962   5.296   5.665  0.3246  0.1300 -0.0839
 2152poe     o212860   0.843   5.348   5.609  0.0130  0.2204  0.6507
 2152poe    c2312861   0.803   5.265   5.503 -0.1184  0.3162  0.6260
 2152poe    c2312862   0.666   5.318   5.456  0.1259  0.5289  0.1517
 2152poe     o212863   0.661   5.455   5.489  0.0192  0.5176  0.1824
 2152poe    c3112864   0.553   5.519   5.424 -0.3827 -0.3498 -0.0157
 2153poe    c3112865   1.575   3.158   5.072 -0.2529  0.0959 -0.1271
 2153poe     o212866   1.599   3.229   4.953  0.5407 -0.2623 -0.1871
 2153poe    c2312867   1.540   3.153   4.849  0.0272  0.2642 -0.2815
 2153poe    c2312868   1.568   3.237   4.723 -0.3622 -0.0300 -0.5623
 2153poe     o212869   1.540   3.374   4.743 -0.2949 -0.0028 -0.6533
 2153poe    c2312870   1.512   3.461   4.635 -0.1973  0.1971 -0.5174
 2153poe    c2312871   1.478   3.600   4.691  0.2678  0.1505 -0.1110
 2153poe     o212872   1.576   3.650   4.779  0.0546  0.3458  0.0162
 2153poe    c2312873   1.565   3.790   4.792 -0.3902  0.2751  0.4527
 2153poe    c2312874   1.615   3.821   4.934  0.5022  0.7729  0.0389
 2153poe     o212875   1.524   3.769   5.029  0.2390  0.2672 -0.4868
 2153poe    c3112876   1.561   3.837   5.146 -1.2564  0.2263  0.0311
 2154poe    c3112877   1.358   5.306   0.810 -0.3154  0.4337 -0.3005
 2154poe     o212878   1.283   5.397   0.889 -0.1469 -0.0745  0.4550
 2154poe    c2312879   1.348   5.464   0.994  0.0790 -0.0026  0.2710
 2154poe    c2312880   1.241   5.502   1.098 -0.0519  0.2751  0.0361
 2154poe     o212881   1.136   5.541   1.012  0.3809  0.1137 -0.5730
 2154poe    c2312882   1.036   5.615   1.077  0.3450 -0.2495 -0.2051
 2154poe    c2312883   0.912   5.639   0.988  0.3024 -0.0723 -0.1012
 2154poe     o212884   0.950   5.634   0.852 -0.1343 -0.4867 -0.2110
 2154poe    c2312885   0.859   5.695   0.764  0.4167  0.2397 -0.2857
 2154poe    c2312886   0.922   5.724   0.627  0.1611  0.0956 -0.4347
 2154poe     o212887   1.041   5.800   0.633  0.3624 -0.2777  0.5153
 2154poe    c3112888   1.080   5.811   0.498 -0.8630  0.8119  0.2323
 2155poe    c3112889   4.261   4.561   1.701 -0.2466 -0.1959 -0.0912
 2155poe     o212890   4.264   4.454   1.792 -0.0040 -0.0527  0.0718
 2155poe    c2312891   4.151   4.448   1.877  0.1700  0.7924  0.3716
 2155poe    c2312892   4.176   4.332   1.974  0.0690  0.4859  0.0326
 2155poe     o212893   4.225   4.210   1.922 -0.4056  0.2652  0.0918
 2155poe    c2312894   4.137   4.141   1.836  0.5221 -0.2224 -0.4851
 2155poe    c2312895   4.190   4.016   1.764  0.7749 -0.4633  0.1091
 2155poe     o212896   4.294   4.047   1.674  0.2000  0.0548 -0.3859
 2155poe    c2312897   4.334   3.941   1.590  0.0188 -0.2194 -0.1277
 2155poe    c2312898   4.400   3.823   1.663 -0.1026 -0.1771  0.0524
 2155poe     o212899   4.506   3.862   1.748 -0.0683 -0.1613  0.0033
 2155poe    c3112900   4.499   3.792   1.871 -0.3433  0.6960  0.4868
 2156poe    c3112901   6.511   4.167   4.800 -0.8160 -0.8468  0.3972
 2156poe     o212902   6.470   4.205   4.670 -0.4011 -0.8845  0.2535
 2156poe    c2312903   6.335   4.245   4.676 -0.0816  0.2970 -0.1391
 2156poe    c2312904   6.284   4.321   4.553 -0.2618  0.2272 -0.1091
 2156poe     o212905   6.295   4.265   4.423  0.9439  0.4516 -0.1178
 2156poe    c2312906   6.217   4.343   4.335 -0.1188  0.2292  0.6004
 2156poe    c2312907   6.171   4.255   4.217  0.6552 -0.1171  0.5493
 2156poe     o212908   6.094   4.145   4.262  0.3259 -0.1481 -0.0913
 2156poe    c2312909   6.082   4.040   4.169 -0.4978  0.1013 -0.2775
 2156poe    c2312910   6.032   3.908   4.231  0.1616 -0.1810 -0.3398
 2156poe     o212911   5.895   3.890   4.257  0.2473 -0.3176  0.0308
 2156poe    c3112912   5.858   3.756   4.235 -0.3508 -0.1783  0.1521
 2157poe    c3112913   5.887   1.468   4.314  0.5321  0.2419  0.0758
 2157poe     o212914   6.004   1.437   4.242  0.3576 -0.4736  0.0977
 2157poe    c2312915   6.087   1.550   4.235 -0.3766  0.0642 -0.0135
 2157poe    c2312916   6.210   1.531   4.145 -0.5669 -0.6344 -0.1295
 2157poe     o212917   6.288   1.422   4.188  0.0614 -0.3306 -0.4731
 2157poe    c2312918   6.372   1.397   4.077  0.1640 -0.0077 -0.4673
 2157poe    c2312919   6.472   1.287   4.115  0.2124  0.1354 -0.1782
 2157poe     o212920   6.394   1.185   4.173  0.2588 -0.2172 -0.7331
 2157poe    c2312921   6.474   1.071   4.191  0.3084 -0.0776 -0.0454
 2157poe    c2312922   6.373   0.956   4.171 -0.4044  0.5732 -0.2302
 2157poe     o212923   6.273   0.971   4.269 -0.0280  0.2221  0.2111
 2157poe    c3112924   6.218   0.843   4.295 -0.4458  0.4236  0.3270
 2158poe    c3112925   0.270   1.028   4.438  0.1646 -0.5678 -0.5700
 2158poe     o212926   0.261   1.168   4.455  0.1636 -0.5805 -0.4611
 2158poe    c2312927   0.301   1.220   4.330  0.5205 -0.3985 -0.2710
 2158poe    c2312928   0.290   1.373   4.317  0.1501 -0.4057 -0.0525
 2158poe     o212929   0.357   1.441   4.421  0.3098  0.1126 -0.4869
 2158poe    c2312930   0.317   1.576   4.421 -0.6748 -0.1746 -0.1349
 2158poe    c2312931   0.363   1.641   4.552  0.1598 -0.1061 -0.4597
 2158poe     o212932   0.321   1.571   4.667 -0.6536  0.4098 -0.4348
 2158poe    c2312933   0.338   1.649   4.783  0.4184 -0.6262  0.1354
 2158poe    c2312934   0.304   1.551   4.897  0.2718 -0.5009  0.1992
 2158poe     o212935   0.186   1.480   4.866  0.2578 -0.2978 -0.2274
 2158poe    c3112936   0.122   1.440   4.985  0.1720  0.3160 -0.0617
 2159poe    c3112937   6.755   6.893   0.335  0.0551 -0.7908 -0.0708
 2159poe     o212938   6.867   6.972   0.301 -0.5167  0.1954  0.2943
 2159poe    c2312939   6.865   7.007   0.164  0.2939  0.0753  0.2457
 2159poe    c2312940   6.994   7.066   0.104  0.4305 -0.2371  0.2318
 2159poe     o212941   6.986   7.206   0.105  0.2475 -0.2436 -0.0946
 2159poe    c2312942   7.082   7.266   0.020  0.2614  0.2223  0.2412
 2159poe    c2312943   7.061   7.416  -0.006  0.2933  0.2371  0.3031
 2159poe     o212944   6.939   7.426  -0.076  0.3823 -0.5285  0.0322
 2159poe    c2312945   6.933   7.537  -0.163 -0.3296 -0.4521  0.1712
 2159poe    c2312946   6.840   7.527  -0.285 -0.5112 -0.4477  0.3080
 2159poe     o212947   6.879   7.436  -0.385  0.0607  0.1211  0.0052
 2159poe    c3112948   6.845   7.305  -0.345 -0.3724  0.2735  0.1345
 2160poe    c3112949   1.240   1.661   5.671  0.0776 -0.2752 -0.2417
 2160poe     o212950   1.145   1.613   5.578 -0.5996  0.4282  0.0763
 2160poe    c2312951   1.206   1.568   5.459 -0.1890  0.9962  0.0676
 2160poe    c2312952   1.109   1.560   5.340 -0.2112  0.6900  0.1060
 2160poe     o212953   1.020   1.458   5.379  0.3925  0.2222  0.2635
 2160poe    c2312954   0.920   1.433   5.283  0.4246 -0.1155  0.3159
 2160poe    c2312955   0.817   1.356   5.367  0.5474 -0.5739  0.0516
 2160poe     o212956   0.784   1.419   5.488  0.1453  0.8403 -0.7724
 2160poe    c2312957   0.645   1.437   5.504  0.0782 -0.1903 -0.1294
 2160poe    c2312958   0.598   1.498   5.638 -0.0028  0.0961 -0.2880
 2160poe     o212959   0.624   1.634   5.664  0.2468  0.1388 -0.7462
 2160poe    c3112960   0.617   1.631   5.805  0.1402  0.0942 -0.7520
 2161lim     li12961   3.335   5.336   2.183  0.5582 -0.0743 -0.5396
 2162lim     li12962   1.492   0.540   6.353 -0.7499 -0.2196 -0.3075
 2163lim     li12963   6.439   6.663   5.166  0.4928 -0.3372  0.3649
 2164lim     li12964   1.377   3.903   3.683  0.0209 -0.3374  0.2103
 2165lim     li12965   5.433   3.884   3.846 -1.2112 -0.0492 -1.3162
 2166lim     li12966   0.115   2.358   3.764  0.7500 -0.6396  0.0225
 2167lim     li12967   3.145   6.604   3.235 -1.1565 -0.4216 -0.1685
 2168lim     li12968   1.355   6.986   2.496 -0.3339 -0.6684 -1.5501
 2169lim     li12969   2.226   0.005   3.395  0.7226  0.1127  0.4578
 2170lim     li12970   5.829   6.018   0.017  0.3153 -0.3750  0.8575
 2171lim     li12971   6.375   3.180   3.788  0.0686  0.8704  0.0980
 2172lim     li12972   4.952   4.228   2.916  0.4177  0.2744  0.3994
 2173lim     li12973   1.547   2.678   1.137 -1.4077  0.2794 -0.0217
 2174lim     li12974   2.375   2.905   4.624  0.1861  0.5625  0.2462
 2175lim     li12975   0.924   1.226   0.054  0.2387 -0.7757 -0.0731
 2176lim     li12976   5.438   2.162   4.874  0.1155  0.1217  0.1451
 2177lim     li12977   3.273   0.954   0.480  1.1399 -0.0763 -0.3087
 2178lim     li12978   4.014   0.034   2.941 -0.0029 -0.2899 -0.0425
 2179lim     li12979   0.912   5.214   7.007 -0.2405  0.1021  1.1171
 2180lim     li12980   0.596   3.527   6.914  0.7677  0.6516  0.4572
 2181lim     li12981   0.590   3.851   3.660  0.0376  1.3966  0.1804
 2182lim     li12982   3.816   1.817   0.748 -0.4684 -1.0658 -0.3579
 2183lim     li12983   4.064   6.034   6.385  0.2778  0.1081 -1.2568
 2184lim     li12984   3.626   1.753   2.749 -0.3221  0.0818  0.6948
 2185lim     li12985   0.041   5.189   5.814 -0.9678  0.7552  0.2491
 2186lim     li12986   0.423   6.243   0.717  0.5081 -0.2655  0.3456
 2187lim     li12987   3.374   2.431   5.068 -0.2671  0.0786  0.1072
 2188lim     li12988   6.117   4.748   6.781 -0.7856  1.3202  0.3321
 2189lim     li12989   6.643   6.524   3.501 -0.3890  0.8518  0.9589
 2190lim     li12990   2.070   1.939   1.288  0.0737 -0.4186 -0.3785
 2191lim     li12991   2.594   2.654   2.073  0.0937  0.1069 -1.6958
 2192lim     li12992   2.635   0.188   5.372  0.2216 -0.4538 -0.2777
 2193lim     li12993   6.926   4.595   0.163 -0.0792 -0.0561 -0.1017
 2194lim     li12994   2.309   3.845   5.607  0.3813 -0.0424  1.5847
 2195lim     li12995   1.091   0.450   4.463 -0.1852  0.6202 -0.6974
 2196lim     li12996   1.153   5.984   4.199 -0.3324  0.3251  0.4384
 2197lim     li12997   0.196   6.626   2.540 -1.4705 -0.0432  0.0149
 2198lim     li12998   6.374   2.342   0.979 -0.0153  0.0062  0.2102
 2199lim     li12999   5.085   4.103   4.608  0.7269 -0.0351 -0.9844
 2200lim     li13000   5.533   6.391   2.137 -0.1105  0.6716 -0.2492
 2201lim     li13001   5.961   2.973   6.048  0.9355  0.6830 -0.6782
 2202lim     li13002   2.222   2.370   4.263 -0.3671 -0.1501  0.8810
 2203lim     li13003   3.404   4.702   0.589 -0.2839  0.6097  0.5912
 2204lim     li13004   4.457   3.837   4.599  0.0114  0.5264  0.4696
 2205lim     li13005   3.870   0.051   6.311 -0.4996 -0.8094 -0.0075
 2206lim     li13006   5.049   1.888   1.456 -0.5870  0.1037 -0.7985
 2207lim     li13007   4.434   3.027   2.547 -0.1579 -0.3677  0.5548
 2208lim     li13008   2.699   1.299   1.519 -0.9414  0.1025  0.1712
 2209lim     li13009   3.416   1.899   3.691 -0.4695  0.3706  0.6841
 2210lim     li13010   0.523   4.574   1.447  0.9189  0.8083 -0.9118
 2211lim     li13011   4.170   6.350   0.384  1.1383  0.4671  0.7900
 2212lim     li13012   2.959   3.274   0.816  0.1797 -1.3732 -0.0711
 2213lim     li13013   3.339   4.782   2.147  0.3883  0.5803 -0.2753
 2214lim     li13014   3.115   6.398   0.116 -0.3112  0.8741  1.3619
 2215lim     li13015   2.436   3.431   6.173 -0.8396  0.1229 -0.0603
 2216lim     li13016   5.754   1.103   2.384  0.4565 -0.2295  0.8901
 2217lim     li13017   3.420   6.638   6.814 -0.4836  0.1128 -1.2104
 2218lim     li13018   5.714   6.525   5.844  1.1020 -0.7962  1.0411
 2219lim     li13019   1.450   2.417   3.033 -0.4999 -0.9606  0.0218
 2220lim     li13020   6.228   3.736   6.684  0.8664  0.1498  0.6434
 2221lim     li13021   4.102   2.965   3.305 -0.4710  0.0160 -1.2110
 2222lim     li13022   4.844   1.469   6.932  0.1289 -1.0069  0.0606
 2223lim     li13023   4.457   0.816   0.474  0.0537  0.9011  0.5971
 2224lim     li13024   3.487   0.193   4.061  0.6022  0.4099 -0.0746
 2225lim     li13025   4.438   4.972   2.085 -1.2082  0.6422  0.3949
 2226lim     li13026   2.987   1.490   4.136 -0.3077  0.4264 -0.0735
 2227lim     li13027   6.291   6.209   0.145 -0.5195 -0.2814  0.9510
 2228lim     li13028   1.756   4.364   4.182  0.7245 -0.8345 -0.4611
 2229lim     li13029   3.026   6.140   4.660  1.2641  0.9925  0.2001
 2230lim     li13030   0.251   5.719   2.998 -1.3381  1.0765 -0.0265
 2231lim     li13031   0.799   5.529   5.591  0.1017  0.2105  0.5730
 2232lim     li13032   0.885   5.904   4.959  0.7538 -0.4566 -0.7411
 2233lim     li13033   1.697   1.600   5.661  0.2487 -0.0289 -0.6823
 2234lim     li13034   5.563   0.785   3.500 -0.9179 -0.9145  0.5762
 2235lim     li13035   2.166   3.019   6.670 -0.3198 -1.0198  0.1321
 2236lim     li13036   1.820   6.568   4.791  0.1134  0.2519 -1.0283
 2237lim     li13037   1.198   4.366   6.960  0.3972 -0.6945 -0.2011
 2238lim     li13038   0.016   3.293   5.172 -0.0593  0.9097 -0.7998
 2239lim     li13039   1.599   3.405   4.905 -0.5640 -0.8807  0.8907
 2240lim     li13040   5.046   3.089   1.296 -0.4883 -0.1364  0.0185
 2241lim     li13041   0.050   4.066   1.108 -1.0937 -0.0358 -0.0055
 2242lim     li13042   3.541   1.357   6.381 -0.6831 -0.2829 -0.1098
 2243lim     li13043   0.926   6.405   2.620 -0.3132  0.7802 -0.3670
 2244lim     li13044   2.540   1.332   6.443 -0.3100 -0.3599 -0.7375
 2245lim     li13045   0.531   0.511   5.387 -0.2770 -1.0326 -0.6104
 2246lim     li13046   3.660   4.100   4.235  0.1485 -0.5435  0.4615
 2247lim     li13047   2.361   6.532   0.397 -0.5770 -0.9675 -0.2803
 2248lim     li13048   3.859   1.332   5.399  1.0716  0.1021 -0.3416
 2249lim     li13049   0.608   5.399   3.560 -1.2040 -0.8909  0.7675
 2250lim     li13050   2.902   6.925   1.365 -0.3440 -0.2322 -0.0581
 2251lim     li13051   6.672   4.395   2.085  0.8404  0.1278  0.4041
 2252lim     li13052   0.688   4.668   4.372  0.3329  0.2130 -1.0106
 2253lim     li13053   6.908   1.380   0.113 -0.2587  0.5353 -0.4863
 2254lim     li13054   5.374   4.736   6.465  0.0803  0.0678  0.0837
 2255lim     li13055   1.295   6.648   0.759  0.4725 -0.2434 -0.4206
 2256lim     li13056   7.001   5.763   4.964 -0.0400 -1.2086  0.6983
 2257lim     li13057   4.448   1.852   6.041  0.7360  0.1353 -0.0786
 2258lim     li13058   0.430   4.037   6.826 -0.6661 -0.1592  0.8758
 2259lim     li13059   3.672   6.955   2.407 -0.0687  0.5985 -0.0732
 2260lim     li13060   4.508   5.726   5.050  0.1462 -0.1571 -0.0367
 2261lim     li13061   5.911   5.161   6.365  0.9855 -0.2836 -0.9737
 2262lim     li13062   5.586   5.209   1.334 -0.2774  1.9179 -0.3930
 2263lim     li13063   5.849   4.435   5.004 -0.0746  0.4484 -0.1513
 2264lim     li13064   5.250   3.729   6.662  0.5880 -0.0662  0.7284
 2265lim     li13065   4.433   4.782   4.197 -0.0757 -0.5184  0.0994
 2266lim     li13066   0.148   7.030   1.466 -0.4688  0.8032 -0.3975
 2267lim     li13067   4.090   5.171   0.112 -0.2828 -0.5842  1.1909
 2268lim     li13068   2.074   3.439   2.868 -0.0012 -0.5764 -0.4220
 2269lim     li13069   4.481   4.750   0.493 -0.2106  0.4536  0.1441
 2270lim     li13070   4.707   2.152   0.229 -0.5765 -1.1524  0.4518
 2271lim     li13071   6.698   3.092   1.363 -1.0818  0.5509 -0.6000
 2272lim     li13072   2.141   4.135   6.969 -1.1290  0.7585 -0.5291
 2273lim     li13073   1.225   3.063   6.649 -0.3728  1.2144 -0.5820
 2274lim     li13074   5.033   4.695   0.174 -0.8541 -0.1581 -0.2305
 2275lim     li13075   2.852   0.593   2.209 -0.7740 -0.5203  0.6434
 2276lim     li13076   5.709   4.099   1.143  0.2798 -0.4792  1.3549
 2277lim     li13077   1.855   0.930   6.970  0.3286  0.0639  1.0448
 2278lim     li13078   4.307   2.223   3.315  0.1201  0.5750 -0.3947
 2279lim     li13079   6.521   0.192   1.673  0.8722  0.1090 -0.8189
 2280lim     li13080   4.035   1.080   6.698  0.5280 -0.9950  0.6251
 2281lim     li13081   1.526   1.354   1.419 -0.3348  0.5388  0.3393
 2282lim     li13082   5.165   2.086   0.782  0.6013 -0.0721  0.1076
 2283lim     li13083   6.831   4.974   3.470  0.1046 -1.0861 -0.4217
 2284lim     li13084   3.533   4.190   6.451 -1.3912  0.2101 -0.2656
 2285lim     li13085   4.045   5.136   5.867  0.6037  0.3043 -0.2274
 2286lim     li13086   5.547   4.535   3.646 -0.0504  0.6569  0.5152
 2287lim     li13087   2.483   6.749   2.625 -0.7756  0.9690  0.3228
 2288lim     li13088   6.566   4.082   4.229  0.0071  0.6990 -0.3282
 2289lim     li13089   1.466   1.844   4.208 -0.7799  0.6370  0.1997
 2290lim     li13090   2.723   4.319   1.236  0.8871 -0.3216 -0.0283
 2291lim     li13091   5.856   6.060   4.273  0.1892 -1.3341  1.4377
 2292lim     li13092   0.874   5.151   6.252 -0.2570  0.7755  0.1203
 2293lim     li13093   1.816   2.447   5.773  0.0724 -1.1058 -0.0603
 2294lim     li13094   5.881   2.219   3.660  0.9293  0.4921 -1.1165
 2295lim     li13095   0.285   6.053   1.638  0.0878 -0.0543 -0.0958
 2296lim     li13096   6.252   1.464   0.982  0.8571  0.2783 -0.3451
 2297lim     li13097   4.833   6.067   4.122 -0.6141 -0.2759  0.1939
 2298lim     li13098   7.051   0.181   0.482  0.3532 -0.6895  0.5825
 2299lim     li13099   5.251   0.991   0.600  0.1424  1.1894 -0.1533
 2300lim     li13100   2.519   7.035   0.553 -0.8660 -0.1911  0.1047
 2301lim     li13101   1.162   3.019   3.898 -0.3455 -0.3717  0.5820
 2302lim     li13102   3.066   0.074   3.073  0.1161 -0.2625 -1.3470
 2303lim     li13103   1.731   5.100   4.022  0.2862  0.9772  0.4509
 2304lim     li13104   3.976   3.506   3.614 -0.1054 -0.6818 -0.6090
 2305lim     li13105   1.385   2.454   0.160 -0.0159 -1.2182  0.2912
 2306lim     li13106   1.013   7.021   3.450  0.6831  0.0793  0.5307
 2307lim     li13107   2.776   0.556   3.716 -0.2396 -0.2211  0.5314
 2308lim     li13108   4.042   5.250   5.057 -0.5659 -0.2712 -0.2455
 2309lim     li13109   2.748   5.165   6.692  0.7178 -0.7917 -1.7039
 2310lim     li13110   1.224   6.570   1.448  0.3523 -0.4286  0.6566
 2311lim     li13111   1.950   5.019   0.089  0.4485  0.8344 -0.4737
 2312lim     li13112   6.592   3.738   2.034  0.4287 -0.0239  0.0479
 2313lim     li13113   5.256   5.706   6.088  0.0759 -0.5433  0.5899
 2314lim     li13114   6.293   3.362   0.715  0.9229 -0.0364 -0.1127
 2315lim     li13115   3.916   0.376   5.113  0.3701  0.7434 -0.2604
 2316lim     li13116   3.212   1.654   5.784  0.8144 -0.0592 -0.8239
 2317lim     li13117   1.313   1.650   0.607  0.2961 -0.2561  0.7315
 2318lim     li13118   3.376   2.881   5.487  0.0944  0.3127 -0.0443
 2319lim     li13119   3.260   3.592   1.900 -0.5845  0.2904 -0.0549
 2320lim     li13120   4.680   3.982   1.327 -0.0189 -0.2794 -1.0986
 2321lim     li13121   6.264   1.856   1.817  0.6728  0.7129 -0.6650
 2322lim     li13122   5.082   5.864   1.659 -0.0085 -0.2814  0.6241
 2323lim     li13123   4.815   0.248   3.317 -0.2517  0.0728 -0.7118
 2324lim     li13124   4.753   0.951   5.695 -0.5360  1.7083  0.2529
 2325lim     li13125   1.843   3.301   5.463 -0.8351 -0.5068 -0.2658
 2326lim     li13126   3.082   0.627   4.867  0.0007 -0.2946  0.2332
 2327lim     li13127   0.364   1.033   0.479 -0.8069  0.2676  0.3632
 2328lim     li13128   4.313   2.907   0.537 -0.0144 -0.4963  0.9130
 2329lim     li13129   2.121   0.251   4.743  0.9844 -0.2614  0.4691
 2330lim     li13130   7.009   5.384   0.011 -0.5484 -0.2618  0.6532
 2331lim     li13131   1.410   6.359   3.463 -1.0534  0.2468  0.9465
 2332lim     li13132   3.628   1.566   0.144  0.5860 -1.3797  0.6458
 2333lim     li13133   3.410   3.078   4.423 -0.1202  0.6398  0.6404
 2334lim     li13134   4.699   0.112   1.601  0.0768  0.6699  1.3278
 2335lim     li13135   3.189   3.695   6.878  1.0856 -0.4824  0.4528
 2336lim     li13136   2.958   0.515   0.067 -0.5998 -0.4350 -0.2984
 2337lim     li13137   6.594   2.097   2.526 -0.8716 -0.6919 -0.7160
 2338lim     li13138   2.158   1.236   5.709  0.8502 -1.1014 -0.0673
 2339lim     li13139   3.684   2.550   7.007 -0.1147 -0.9471 -0.9685
 2340lim     li13140   4.932   4.960   4.911 -0.8745  0.8649  0.5111
 2341lim     li13141   4.445   5.264   1.227  0.2711  0.0014  0.4604
 2342lim     li13142   5.858   2.368   2.102  0.1581 -1.2702  1.0857
 2343lim     li13143   3.433   6.963   0.846  0.6590 -0.4655 -0.7763
 2344lim     li13144   1.841   5.767   4.933 -0.6150 -0.4785  0.1895
 2345lim     li13145   5.308   2.364   3.077  0.8543 -0.9366 -0.4942
 2346lim     li13146   5.156   4.440   2.523 -1.5029  0.6287  0.0890
 2347lim     li13147   1.384   0.254   3.566 -0.0013  0.3280 -0.0243
 2348lim     li13148   2.718   4.934   3.528  0.2270 -0.4745  0.0116
 2349lim     li13149   6.850   3.138   2.487 -0.3252 -0.6982  0.0206
 2350lim     li13150   0.852   2.219   3.781  0.3381 -0.3964 -0.0113
 2351lim     li13151   0.187   2.155   2.931  0.1899 -0.1331  0.7036
 2352lim     li13152   4.674   0.330   0.795 -0.6177 -0.8562  0.3059
 2353lim     li13153   5.223   5.205   0.632  0.5656  1.1825  0.4243
 2354lim     li13154   5.740   5.104   4.300  0.1900 -0.9058 -1.1905
 2355lim     li13155   5.108   2.520   2.358 -0.3636  0.1076  0.4148
 2356lim     li13156   4.975   5.185   1.870  0.0263 -1.1885 -0.8240
 2357lim     li13157   2.085   5.770   1.243  0.4983  0.2725  0.5416
 2358lim     li13158   2.578   6.325   4.198  0.8084 -0.1774 -0.3674
 2359lim     li13159   5.125   5.914   6.814 -0.3943 -0.9069  0.4448
 2360lim     li13160   5.012   3.206   4.308  0.0582  0.8158  0.8415
 2361lim     li13161   3.179   6.801   1.958 -0.1451  0.6237 -1.3584
 2362lim     li13162   6.810   3.903   5.510  0.9398  0.1088  0.5284
 2363lim     li13163   4.165   5.705   2.075 -0.2629  0.2909  0.4717
 2364lim     li13164   4.500   4.507   6.390 -0.5111 -1.7177 -0.8692
 2365lim     li13165   7.008   5.710   6.147  0.1579  0.2142 -0.5933
 2366lim     li13166   1.376   5.264   2.133  0.4683 -0.6313 -0.8450
 2367lim     li13167   2.509   1.151   4.192 -0.8646  0.3670  0.5960
 2368lim     li13168   5.546   0.172   0.449  1.1132 -0.6574  0.3906
 2369lim     li13169   5.669   0.317   1.466 -0.3485  1.1057  0.8370
 2370lim     li13170   4.126   6.467   5.234  0.2743 -0.1229  0.1069
 2371lim     li13171   5.935   6.181   2.565 -0.4498 -0.3213  0.2682
 2372lim     li13172   3.472   3.151   6.440 -0.3468 -0.4890  0.4580
 2373lim     li13173   6.747   3.103   4.247  0.6008  0.5160  0.3377
 2374lim     li13174   4.484   5.306   6.329  1.2895 -0.5885  0.1413
 2375lim     li13175   0.892   1.894   0.982 -0.4762 -0.4378 -0.1653
 2376lim     li13176   1.041   1.063   6.338  0.3195 -0.8240  0.5247
 2377lim     li13177   4.935   0.616   5.082  0.0823  1.4126 -0.4566
 2378lim     li13178   2.322   2.163   6.241 -0.1076 -0.5590  0.3779
 2379lim     li13179   4.264   1.155   4.721 -0.6591  0.0278 -0.2883
 2380lim     li13180   5.247   2.852   6.555  0.6617 -0.4586  0.8760
 2381lim     li13181   2.075   3.899   6.250 -0.9218 -0.3322  0.6038
 2382lim     li13182   5.905   0.929   1.712  0.5600 -0.3072  0.4738
 2383lim     li13183   4.501   5.389   2.955 -1.3288 -0.1789  0.4007
 2384lim     li13184   3.651   0.834   1.696 -0.7307 -0.7987 -0.1145
 2385lim     li13185   4.956   6.136   2.788  0.3941  1.0619  0.6490
 2386lim     li13186   5.042   5.457   3.523  0.1440 -0.0486  0.8733
 2387lim     li13187   0.566   3.080   3.174 -0.7269 -0.9908  0.0461
 2388lim     li13188   2.931   2.595   6.055  0.7857 -0.3627  0.1154
 2389lim     li13189   5.715   5.326   2.419 -0.8888  1.0305 -0.8231
 2390lim     li13190   5.809   3.519   3.038  0.7879 -1.0235  0.6623
 2391lim     li13191   4.833   4.512   3.836 -1.0979 -0.3736 -0.5121
 2392lim     li13192   0.594   0.289   2.566  0.8007 -0.1902  0.1802
 2393lim     li13193   6.376   5.864   3.594  0.0053 -0.4475 -0.3890
 2394lim     li13194   2.725   6.414   5.530 -0.5433  0.6364  0.1904
 2395lim     li13195   3.064   3.952   3.053 -0.6512  0.0115  0.2388
 2396lim     li13196   5.397   5.982   5.241  0.2808 -1.4421  0.9088
 2397lim     li13197   4.365   1.993   2.608 -0.6574  0.2294  1.0710
 2398lim     li13198   0.296   1.036   6.756 -0.7340  0.3741 -0.2365
 2399lim     li13199   3.148   2.582   2.620  0.3518  0.2191  0.2504
 2400lim     li13200   1.961   6.458   2.128 -0.9942  1.0209 -1.2869
 2401lim     li13201   2.347   2.393   5.271 -0.5299 -0.4327 -0.0302
 2402lim     li13202   0.012   0.829   2.775 -1.5230  0.0104  0.9030
 2403lim     li13203   3.506   4.429   6.955 -0.6918  0.6680  0.8578
 2404lim     li13204   6.831   0.924   1.348 -0.3863 -0.9399  0.0068
 2405lim     li13205   2.342   3.217   1.759  0.2737 -0.3491  0.8706
 2406lim     li13206   1.557   0.571   2.313 -2.1123 -0.2875 -0.1852
 2407lim     li13207   0.428   0.160   4.027 -0.3243 -0.2911 -0.0885
 2408lim     li13208   6.371   0.335   0.333  0.3545  0.3386  0.1941
 2409lim     li13209   1.898   2.953   2.146 -0.3456  0.7614 -1.2334
 2410lim     li13210   6.360   4.308   6.196 -1.6146  0.4186  0.4735
 2411lim     li13211   4.961   5.739   4.574 -0.0553  0.2572  0.7658
 2412lim     li13212   0.975   4.310   0.754  0.0145 -0.7672 -0.3369
 2413lim     li13213   4.698   3.839   3.494  0.8051  0.2931 -0.1550
 2414lim     li13214   1.629   5.863   2.989 -0.5592 -0.0825 -0.2134
 2415lim     li13215   6.786   5.708   0.926  0.2266  0.0900  0.2338
 2416lim     li13216   6.213   3.674   1.274 -0.4755 -0.1392 -1.1879
 2417lim     li13217   6.289   1.283   0.228 -0.0536  0.1463 -0.7053
 2418lim     li13218   2.111   2.082   6.950  0.0074 -1.1074 -1.0416
 2419lim     li13219   4.479   0.322   2.566 -0.4048 -1.2401  0.6063
 2420lim     li13220   4.669   6.258   1.776 -1.5634  0.0068 -0.2965
 2421lim     li13221   2.234   6.908   1.049  0.4642  0.4645 -0.1551
 2422lim     li13222   5.496   5.192   5.479  0.0225 -0.6650  0.9176
 2423lim     li13223   0.028   4.493   2.362  0.0508  0.3323 -0.1943
 2424lim     li13224   3.090   3.698   3.749 -0.5299 -1.5101 -0.3175
 2425lim     li13225   1.747   1.171   3.892 -1.0881 -0.0967 -0.0298
 2426lim     li13226   1.893   1.942   2.690  0.4810  1.2754 -0.3566
 2427lim     li13227   0.196   6.555   5.641  0.6624 -0.9358 -0.4480
 2428lim     li13228   3.715   2.605   4.158  1.5006 -0.3058 -0.4025
 2429lim     li13229   7.006   3.860   3.391  0.2138 -1.0787  0.2263
 2430lim     li13230   2.829   2.916   3.559 -0.7279 -0.1833 -1.1788
 2431lim     li13231   5.182   0.210   5.703 -0.2688  1.0498  0.0601
 2432lim     li13232   6.704   5.520   4.373 -0.2880 -0.1369  0.0199
 2433lim     li13233   2.740   5.919   3.006  0.5992 -1.1794  0.3802
 2434lim     li13234   0.859   2.293   6.134 -0.4956 -0.6136 -1.1053
 2435lim     li13235   4.769   6.630   5.402 -0.1226 -0.2474  0.1228
 2436lim     li13236   1.837   4.731   0.802  0.2730  0.1337  0.1264
 2437lim     li13237   2.506   4.624   6.448  1.8920 -0.1438 -0.2514
 2438lim     li13238   3.199   5.339   0.283  0.7199  0.9108 -0.2223
 2439lim     li13239   1.681   3.741   1.684 -0.6924  0.0921 -0.7118
 2440lim     li13240   0.924   3.656   1.959 -0.0509 -1.3209 -0.3544
 2441lim     li13241   3.704   0.295   7.039  0.1141 -1.3150 -0.2216
 2442lim     li13242   4.716   1.291   3.269  0.7125 -0.1039 -0.8152
 2443lim     li13243   3.644   5.246   3.459 -0.6752  0.2458 -0.2548
 2444lim     li13244   0.406   1.207   3.760 -1.1102  0.1682  0.1629
 2445lim     li13245   3.282   1.889   1.815 -0.7769 -1.0056 -0.6895
 2446lim     li13246   1.779   0.303   0.192 -0.2900  0.5824  0.2938
 2447lim     li13247   3.642   5.873   2.591 -0.0786  0.3690  0.0053
 2448lim     li13248   5.887   4.516   1.912 -0.7375 -0.8724  0.8569
 2449lim     li13249   2.188   5.558   0.476 -0.1360  0.5392 -0.1881
 2450lim     li13250   0.948   1.509   5.561 -0.9333 -0.2932 -0.0827
 2451lim     li13251   1.831   6.065   6.481  0.6604  0.9197 -1.2429
 2452lim     li13252   3.683   6.633   4.314 -0.1053  0.4776 -0.0941
 2453lim     li13253   2.526   5.856   6.992  0.0265 -0.0698 -0.1402
 2454lim     li13254   2.376   1.372   0.057 -1.0117 -0.3061 -0.9927
 2455lim     li13255   1.282   3.011   2.297  0.3036  0.2636  1.8053
 2456lim     li13256   3.050   1.751   4.804 -0.0666  1.8698 -0.8288
 2457lim     li13257   4.130   1.927   4.596 -0.5991 -0.2392 -0.0191
 2458lim     li13258   3.820   4.387   3.457  0.4150 -0.6423 -0.0494
 2459lim     li13259   0.621   6.838   0.790 -0.2854  0.1795  1.0486
 2460lim     li13260   3.848   1.160   3.753 -0.3441 -0.3123  0.6632
 2461lim     li13261   4.108   3.811   2.392  0.2923  1.1317  0.2743
 2462lim     li13262   2.006   1.857   3.233 -0.5261 -0.1261  0.6940
 2463lim     li13263   3.822   2.059   6.379 -0.5950  0.1869 -0.1985
 2464lim     li13264   4.549   6.875   4.369  0.3912 -0.5814 -0.6385
 2465lim     li13265   0.838   1.637   3.441  0.3866 -0.3501 -0.3078
 2466lim     li13266   5.904   6.556   0.967  0.1095  0.3228  0.5544
 2467lim     li13267   2.376   4.636   2.292 -0.5019  0.2410  0.3827
 2468lim     li13268   6.925   4.582   4.103  0.2504  0.5961  0.4959
 2469lim     li13269   0.078   1.030   5.569  1.6327 -0.9720 -0.4154
 2470lim     li13270   3.472   5.710   6.530  0.9758 -0.5387  0.9974
 2471lim     li13271   6.654   1.721   5.306  1.7403  0.0285 -0.0842
 2472lim     li13272   1.724   5.018   1.402 -0.2957  0.9728 -1.1783
 2473lim     li13273   1.465   3.332   0.035 -0.1966  0.0287  1.4414
 2474lim     li13274   5.987   3.647   4.847  0.1122  0.0106 -0.0016
 2475lim     li13275   0.517   5.266   2.469 -0.3240  0.5227 -1.4352
 2476lim     li13276   0.382   3.015   6.562 -0.6364 -0.3493  0.4083
 2477lim     li13277   1.713   6.494   5.447 -0.0513 -0.7265  0.3652
 2478lim     li13278   5.996   3.020   4.649  0.2164  0.3978  0.3142
 2479lim     li13279   6.026   4.625   3.363 -0.6397 -0.9283  0.7542
 2480lim     li13280   0.245   4.969   1.164 -0.1211 -0.1177  0.0863
 2481lim     li13281   1.812   1.813   5.020  0.4130 -0.1667 -0.3048
 2482lim     li13282   6.345   5.095   5.642  0.3749  1.2174 -0.0181
 2483lim     li13283   0.194   0.465   6.543  0.6585  1.3257 -0.5236
 2484lim     li13284   1.634   4.266   0.330 -0.1468 -0.1052  0.2254
 2485lim     li13285   5.851   7.050   1.834 -0.1449  0.9905  0.2055
 2486lim     li13286   6.888   0.578   6.158  1.8691 -0.5139  0.1511
 2487lim     li13287   5.522   1.352   6.645 -1.2747 -0.5158  0.0185
 2488lim     li13288   0.282   3.345   0.704 -0.2705  0.8845  0.3306
 2489lim     li13289   4.410   0.378   4.052 -0.1133  0.8731  0.2944
 2490lim     li13290   3.045   0.831   2.953 -0.2481 -0.1725  0.0500
 2491lim     li13291   0.975   1.718   2.002  0.7802 -0.3077 -0.7410
 2492lim     li13292   5.410   6.766   4.068  0.2487 -0.4127 -0.5575
 2493lim     li13293   0.073   2.685   0.305  0.3797  0.1220  0.3130
 2494lim     li13294   0.805   2.883   4.470 -0.7201 -0.1884  0.6595
 2495lim     li13295   2.177   0.843   1.734  1.3397 -0.2353 -0.1217
 2496lim     li13296   6.291   1.311   2.887  0.1608  0.0217  0.6649
 2497lim     li13297   2.288   5.846   3.648  0.6078 -0.2420 -0.4714
 2498lim     li13298   6.256   1.189   4.283 -0.0228 -0.2932  0.3519
 2499lim     li13299   5.503   3.929   1.965 -0.1685 -1.4632  0.5371
 2500lim     li13300   6.822   2.934   6.057  1.1285  0.1105  0.0018
 2501lim     li13301   1.352   5.117   3.330  0.2997  1.5943 -0.3202
 2502lim     li13302   1.172   2.265   5.079 -1.6131 -0.3270 -1.0665
 2503lim     li13303   1.204   4.613   2.481 -0.3121 -0.1541 -0.1046
 2504lim     li13304   1.760   2.801   4.917 -0.8381  0.2177  0.1933
 2505lim     li13305   2.053   4.212   3.131 -0.3874 -0.4477  1.3337
 2506lim     li13306   5.086   2.990   3.326 -0.4725 -0.0139 -1.5737
 2507lim     li13307   3.880   0.912   2.736  0.6492 -1.2158 -0.3788
 2508lim     li13308   5.614   6.985   4.734  0.8428 -0.7852  0.6763
 2509lim     li13309   6.025   3.775   5.529  0.5544 -1.0566 -0.5522
 2510lim     li13310   0.546   6.241   3.708  0.8904 -0.0276 -1.6149
 2511lim     li13311   4.393   2.053   1.901  0.8016  0.4139  0.4511
 2512lim     li13312   5.893   2.971   1.269 -1.5885 -0.1510 -0.3097
 2513lim     li13313   3.263   5.468   5.617  0.0078 -0.2249 -0.0470
 2514lim     li13314   5.511   2.304   4.160  0.4143 -0.0389  0.0229
 2515lim     li13315   2.338   4.880   3.190 -0.7043 -0.3130  0.5054
 2516lim     li13316   5.423   1.478   3.396  0.9667  0.1072  0.7898
 2517lim     li13317   1.487   0.675   0.576 -0.1086 -0.8424 -0.4418
 2518lim     li13318   1.207   3.554   1.036  0.1261  0.1908  0.4480
 2519lim     li13319   0.875   0.001   6.824 -0.4180  0.4642 -0.8494
 2520lim     li13320   5.403   1.265   4.457  0.5217  0.3103 -0.6315
 2521lim     li13321   5.751   1.602   1.557  0.2038  0.1399 -1.1954
 2522lim     li13322   1.699   0.081   1.850 -0.9148 -0.7982  0.6887
 2523lim     li13323   1.563   6.641   6.782 -0.2001 -0.3244  0.1806
 2524lim     li13324   5.945   0.932   0.785  1.1565  1.1149 -0.7733
 2525lim     li13325   2.897   5.248   1.391 -0.5037 -0.5158 -0.7308
 2526lim     li13326   6.327   4.699   1.012 -0.9871 -0.0664 -0.2258
 2527lim     li13327   5.938   0.068   6.789  0.2641  0.2258 -0.4930
 2528lim     li13328   6.480   2.604   5.408  1.1918  0.8180  0.2999
 2529lim     li13329   1.575   4.796   4.596 -1.1955  1.3535  0.3163
 2530lim     li13330   2.745   3.542   2.412 -0.4807 -0.1934  0.4280
 2531lim     li13331   1.072   4.531   3.267  0.2007  0.1549  0.3517
 2532lim     li13332   0.286   2.218   5.620  0.0899 -0.9346 -0.8555
 2533lim     li13333   3.852   6.043   1.399  0.3151 -0.0267 -0.5973
 2534lim     li13334   1.526   0.682   5.058 -0.1180  0.4966 -0.4020
 2535lim     li13335   4.089   2.705   1.485 -0.0235 -0.1384  0.3686
 2536lim     li13336   6.081   4.279   0.211 -0.6581  0.3512  0.3560
 2537lim     li13337   0.087   2.646   1.895 -0.0396 -0.2917 -0.1787
 2538lim     li13338   4.556   4.219   1.849  0.8112 -0.0030 -0.5107
 2539lim     li13339   6.798   0.092   3.925 -0.3985  0.9261 -0.0943
 2540lim     li13340   6.718   5.222   2.574  0.3919 -0.8726 -0.1371
 2541lim     li13341   1.453   1.806   6.404 -0.4949 -0.6506  0.7178
 2542lim     li13342   6.289   2.432   3.237  0.3036 -0.0796 -1.0002
 2543lim     li13343   6.729   2.064   4.056  0.7885  0.2683 -0.2881
 2544lim     li13344   2.281   2.730   0.644 -0.2819  0.9225 -1.3074
 2545lim     li13345   6.448   0.321   3.009 -1.3403  0.1505  0.1555
 2546lim     li13346   4.637   3.472   6.915  0.5963  0.1411 -0.3585
 2547lim     li13347   2.862   5.974   1.046 -0.0687 -1.6020  0.3047
 2548lim     li13348   7.049   4.083   0.360 -0.3541 -0.5808  0.4931
 2549lim     li13349   4.796   6.652   3.421 -0.1195 -0.2028 -0.9300
 2550lim     li13350   0.749   6.364   6.343  1.4123  0.3993 -0.0418
 2551lim     li13351   5.252   0.524   2.377 -0.6663  0.0318  1.7009
 2552lim     li13352   5.480   3.013   0.249 -0.0135 -0.0592 -0.6132
 2553lim     li13353   0.787   1.141   4.515  0.9110 -0.2198 -0.5077
 2554lim     li13354   4.635   0.587   6.351 -0.2577 -0.6157  0.2678
 2555lim     li13355   3.503   5.059   4.309  0.4099 -0.0799  0.0370
 2556lim     li13356   5.918   0.442   4.147 -0.2893  1.0737 -0.5443
 2557lim     li13357   4.018   5.911   3.510  0.5679 -0.1657  0.2831
 2558lim     li13358   2.003   5.165   5.702 -0.1801 -0.8894 -0.0474
 2559lim     li13359   5.367   1.576   5.224  0.3903 -0.2445 -0.9048
 2560lim     li13360   4.005   0.547   3.668  0.1194  0.9281  0.1864
 2561lim     li13361   4.967   6.569   0.519  0.1251  0.6994  0.0482
 2562lim     li13362   5.282   2.798   5.317  0.1783  0.3598  0.7523
 2563lim     li13363   1.970   4.587   5.070  0.4387  0.2889 -0.5723
 2564lim     li13364   2.779   2.318   0.105  0.3316 -1.1004 -0.1593
 2565lim     li13365   3.099   4.452   5.821 -0.2622 -0.1872 -0.8696
 2566lim     li13366   6.312   2.059   6.785  0.5759 -0.5479 -1.4917
 2567lim     li13367   0.212   6.570   4.606  1.1358 -0.8527  0.5704
 2568lim     li13368   0.389   2.185   4.609  0.3217 -0.9258 -0.6696
 2569lim     li13369   1.218   1.163   2.390 -1.2222 -0.4505 -0.5661
 2570lim     li13370   0.441   4.546   3.196 -1.2189  1.0188 -0.4603
 2571lim     li13371   3.441   2.667   1.018  0.6015 -0.1776  0.5366
 2572lim     li13372   3.477   4.330   2.932  0.1302 -0.5602 -0.4933
 2573lim     li13373   0.787   5.215   4.659 -0.6884  0.6648 -0.5247
 2574lim     li13374   4.577   3.057   4.862  0.1841  0.8332  0.5052
 2575lim     li13375   2.512   5.288   3.906 -0.9699 -0.0952  0.6090
 2576lim     li13376   2.594   4.440   0.174  0.0789 -0.0950 -0.5292
 2577lim     li13377   4.534   2.207   5.244  0.4569  0.9497 -1.0230
 2578lim     li13378   0.972   6.468   5.619  0.4503 -0.2717 -0.8731
 2579lim     li13379   6.534   2.368   4.622  0.1619  0.3224 -1.1324
 2580lim     li13380   2.572   3.395   0.067 -0.1959 -0.3717 -0.2751
 2581lim     li13381   0.968   3.188   5.962 -0.4184  1.7354  0.2128
 2582lim     li13382   3.470   3.611   5.532 -0.3604 -0.0090 -0.6058
 2583lim     li13383   1.125   4.029   6.172 -0.9834 -0.0424 -0.8615
 2584lim     li13384   2.922   3.572   5.265 -0.3330  1.0825 -1.0433
 2585lim     li13385   4.741   1.210   2.416  0.5208 -0.0669  0.6646
 2586lim     li13386   6.802   4.561   5.151 -0.5455 -0.8216  0.7444
 2587lim     li13387   7.016   1.033   2.207  0.2402  0.4695 -0.5557
 2588lim     li13388   2.387   5.631   2.328 -0.8675  0.4204 -1.2236
 2589lim     li13389   2.260   0.849   0.481 -0.0212  0.2579  1.0931
 2590lim     li13390   5.732   3.142   2.138  0.5269 -0.1625 -0.3647
 2591lim     li13391   1.050   4.452   5.567 -0.1383  0.3480 -0.4893
 2592lim     li13392   5.007   0.930   1.408 -0.8313 -0.1018 -0.0296
 2593lim     li13393   2.764   0.542   6.127 -0.2180 -0.3764 -1.4428
 2594lim     li13394   1.119   5.533   0.844 -0.8489  0.4188  1.8115
 2595lim     li13395   5.536   4.121   5.877 -0.3383 -0.8265  0.6176
 2596lim     li13396   2.779   2.106   1.324  0.0656 -0.3350  0.9605
 2597lim     li13397   2.507   7.054   4.093 -0.1320  0.6916  0.0653
 2598lim     li13398   6.256   0.801   6.161  0.6528 -1.1639  0.1330
 2599lim     li13399   0.778   2.028   0.128 -0.8421 -1.3336  0.4348
 2600lim     li13400   4.125   6.946   1.467  0.3659 -0.0445 -0.1647
 2601lim     li13401   6.975   6.060   0.273 -0.0273 -0.2075  0.1838
 2602lim     li13402   2.706   1.355   5.289 -0.1902 -0.7045  0.4787
 2603lim     li13403   6.027   6.730   4.610 -0.7823  0.1382  0.7083
 2604lim     li13404   5.328   3.337   2.808 -0.7919  0.2966 -0.2892
 2605lim     li13405   0.090   0.424   3.085  0.0391 -0.0740 -0.6139
 2606lim     li13406   4.712   6.328   1.164 -0.0045  1.1583  0.4324
 2607lim     li13407   0.194   1.442   1.813  0.7730  1.5559  0.4638
 2608lim     li13408   1.936   2.118   1.939 -0.6463  0.0575  0.0341
 2609lim     li13409   6.669   4.519   2.911 -0.2896  0.4740 -1.1512
 2610lim     li13410   5.117   2.513   6.150 -0.3931 -0.1977  1.1369
 2611lim     li13411   4.126   3.626   0.949 -0.4401  0.5146 -0.8501
 2612lim     li13412   0.404   4.305   6.002 -0.0109  0.9840  0.1657
 2613lim     li13413   5.917   5.351   0.242 -0.2562  0.2608 -0.5489
 2614lim     li13414   0.656   3.980   4.649 -0.0685 -0.0288 -0.2784
 2615lim     li13415   4.431   6.789   6.610 -0.5159  0.0214  0.0343
 2616lim     li13416   6.049   5.837   1.364 -0.3337  1.6447  0.3048
 2617lim     li13417   3.677   6.195   0.887  0.7730 -0.8181  0.1548
 2618lim     li13418   0.879   3.019   0.906 -1.1396  0.3309 -0.5723
 2619lim     li13419   5.958   5.582   3.384  0.5884 -0.2864 -0.5107
 2620lim     li13420   1.599   2.731   3.775 -0.2471 -0.8247 -0.1105
 2621lim     li13421   6.795   5.016   6.667  0.7727 -0.9805  0.3804
 2622lim     li13422   6.717   6.863   6.494 -0.1780  0.6062  0.2719
 2623lim     li13423   1.884   0.666   4.281  0.6494  0.4208  0.1245
 2624lim     li13424   3.678   2.929   2.695  0.1045 -0.7151  0.3338
 2625lim     li13425   0.595   1.739   2.956  0.5214  0.4403 -0.5618
 2626lim     li13426   4.059   6.593   3.477  0.0528  0.4141  1.0712
 2627lim     li13427   1.890   6.275   1.514 -0.9836  0.3096 -0.1129
 2628lim     li13428   2.822   5.054   4.772  0.6882  0.2962  0.2898
 2629lim     li13429   3.548   0.489   5.961  0.7196 -0.7492  0.0538
 2630lim     li13430   1.944   0.782   2.866  1.0785  0.0412 -0.0819
 2631lim     li13431   3.832   4.756   1.373  0.0334  0.0870  0.0428
 2632lim     li13432   6.383   6.148   6.407  0.8644 -1.0901 -0.2241
 2633lim     li13433   3.938   4.021   5.498  1.1793 -1.6483 -0.6508
 2634lim     li13434   2.850   2.010   3.074 -0.2420 -0.5913 -0.1655
 2635lim     li13435   6.666   6.731   1.116  0.4055 -0.3881  0.4671
 2636lim     li13436   0.430   3.542   1.638 -0.6089  1.3836  0.3132
 2637lim     li13437   3.063   6.013   2.018 -0.2846 -0.4699  0.0431
 2638lim     li13438   2.623   5.664   5.475 -0.6478  0.0909  0.0071
 2639lim     li13439   1.343   5.939   0.217 -0.0594 -0.1737  0.3158
 2640lim     li13440   6.440   5.470   1.873 -0.6994  0.6081  0.4134
 2641lim     li13441   2.733   3.908   4.559 -0.3260  0.4722  0.3390
 2642lim     li13442   6.222   7.035   5.698 -0.3743  0.9570 -0.1222
 2643lim     li13443   3.437   4.708   5.221 -0.1221 -0.2799 -1.4906
 2644lim     li13444   1.868   0.113   5.917 -0.6857 -0.7843  0.4952
 2645lim     li13445   0.064   5.665   5.519 -1.7553 -0.4408 -0.9312
 2646lim     li13446   5.140   3.939   0.756 -0.5639 -0.3345 -0.4543
 2647lim     li13447   0.940   0.799   1.185  0.9473 -0.0915 -0.0429
 2648lim     li13448   4.302   1.478   1.058 -0.9733 -0.1603  0.6319
 2649lim     li13449   1.551   5.136   5.103 -0.1110  0.6778 -0.2178
 2650lim     li13450   3.477   3.879   0.864  0.4109  1.2805  0.1612
 2651lim     li13451   5.879   0.580   5.235 -0.3628 -0.3148  0.0325
 2652lim     li13452   6.585   6.455   2.037  0.2950  0.3042 -0.6385
 2653lim     li13453   0.653   2.384   1.493 -0.3812 -0.3631 -0.4623
 2654lim     li13454   1.260   4.196   1.627 -0.8811  0.3992 -0.1086
 2655lim     li13455   3.632   5.754   5.053 -0.3241  0.1539 -0.1273
 2656lim     li13456   6.258   1.037   4.839  0.1928 -0.2610  0.3869
 2657lim     li13457   4.494   2.377   6.795  0.3686 -1.0322 -0.9856
 2658lim     li13458   6.336   2.955   6.912  0.2444 -0.8273 -1.9372
 2659lim     li13459   1.636   1.260   3.290 -1.1303  0.0667 -1.4888
 2660lim     li13460   4.146   1.187   1.999 -0.4559 -0.1245 -0.3295
 2661lim     li13461   3.656   5.841   4.268  0.1006  0.8916  0.3423
 2662lim     li13462   2.951   6.661   4.840 -0.2149  0.1719 -0.5174
 2663lim     li13463   0.794   7.067   4.629  1.1000 -0.0720  0.9429
 2664lim     li13464   2.991   5.230   2.892 -0.6666 -0.0202 -0.1935
 2665lim     li13465   4.822   3.996   5.768 -0.4337  0.6178 -0.6596
 2666lim     li13466   2.481   6.999   6.440 -0.0740  0.5677  0.3792
 2667lim     li13467   4.274   0.035   5.620 -0.0351  1.2897 -1.3190
 2668lim     li13468   0.865   5.632   1.773  1.4502  0.4177 -0.1672
 2669lim     li13469   6.043   5.804   5.105  0.0779  0.1312 -1.0123
 2670lim     li13470   5.468   6.528   6.462 -1.0211 -0.2030  0.4642
 2671lim     li13471   3.964   0.647   0.896  0.1410  0.7617  0.1543
 2672lim     li13472   1.616   5.164   6.345 -0.7149 -0.0220 -0.5186
 2673lim     li13473   0.639   2.388   2.467 -1.2568 -0.9803 -0.7912
 2674lim     li13474   0.812   3.222   5.500  0.1068  0.1386 -0.8779
 2675lim     li13475   5.960   1.956   0.252 -0.8117  0.1145 -0.5027
 2676lim     li13476   0.827   0.352   1.518 -0.0616 -0.5424 -0.2931
 2677lim     li13477   1.142   6.962   5.387  0.7276 -1.1852 -0.8578
 2678lim     li13478   0.006   2.056   1.043 -0.7370 -1.0432  0.7840
 2679lim     li13479   4.293   4.002   0.030  0.9211  0.9524 -0.5755
 2680lim     li13480   4.491   2.241   4.053  0.1353  2.0817  0.2859
 2681lim     li13481   2.532   4.635   1.794 -0.0631  0.0318  0.4874
 2682lim     li13482   2.674   4.155   3.997  0.2356  0.6393 -0.4687
 2683lim     li13483   2.045   3.419   3.938 -0.3971 -0.6699  0.2041
 2684lim     li13484   0.193   1.451   4.692 -0.9822  0.9075 -0.2158
 2685lim     li13485   3.262   6.569   5.765  0.1212 -0.7096  0.2307
 2686lim     li13486   2.031   3.854   0.985 -1.0913  0.7587 -0.0429
 2687lim     li13487   2.877   2.047   0.658  0.3812 -0.1067 -0.6080
 2688lim     li13488   1.268   3.830   2.913 -0.5440 -0.9697  0.6993
 2689lim     li13489   2.216   6.223   5.948 -0.5416  0.1250 -0.0096
 2690lim     li13490   6.038   1.881   5.911 -0.7359  0.2453 -1.0474
 2691lim     li13491   7.057   0.520   4.796  0.6501  0.9474  0.8744
 2692lim     li13492   5.142   0.169   6.718 -0.0691  0.4613 -0.1368
 2693lim     li13493   5.709   6.571   3.548  0.1148  0.9041  0.2995
 2694lim     li13494   4.268   3.051   1.973  0.0220  0.2045 -0.0771
 2695lim     li13495   0.079   2.073   6.615 -0.0953  1.1842  0.2141
 2696lim     li13496   4.156   3.028   5.926 -0.4331 -0.8465  0.3765
 2697lim     li13497   5.518   1.642   5.967 -1.2880  0.6162 -0.1378
 2698lim     li13498   6.789   1.125   3.760 -0.1682  0.5313 -0.5293
 2699lim     li13499   6.110   6.915   3.078 -0.4124  0.6524 -0.7144
 2700lim     li13500   2.560   1.539   2.422 -0.2982 -0.7353  0.4512
 2701ntf    cn113501   0.862   5.571   3.029 -0.1976  0.2928  0.1177
 2701ntf    sn213502   0.728   5.594   3.150 -0.1093  0.0811  0.2567
 2701ntf    nn313503   0.702   5.747   3.127  0.6253  0.3638  1.2119
 2701ntf    sn213504   0.616   5.849   3.210 -0.2255  0.0388  0.7422
 2701ntf    cn113505   0.744   5.948   3.292  0.0506 -0.0372  0.4023
 2701ntf    fn413506   0.980   5.619   3.064 -0.3248  0.4601  0.3168
 2701ntf    fn413507   0.882   5.441   3.012 -0.1877  0.2997  0.0737
 2701ntf    fn413508   0.828   5.622   2.911  0.0584  0.0935 -0.0437
 2701ntf    on513509   0.628   5.509   3.091 -0.0888  0.3073 -0.1051
 2701ntf    on513510   0.794   5.549   3.270  0.5014 -0.1455 -0.1544
 2701ntf    on513511   0.542   5.779   3.313 -0.4026 -0.8003  0.0584
 2701ntf    on513512   0.552   5.942   3.120 -0.1751 -0.4648  0.1760
 2701ntf    fn413513   0.794   6.048   3.222  0.2572 -0.4967 -0.1173
 2701ntf    fn413514   0.692   6.001   3.401 -0.5583  0.4164 -0.1046
 2701ntf    fn413515   0.843   5.871   3.333  0.0117 -0.0984  0.3813
 2702ntf    cn113516   4.960   0.451   0.106 -0.3277  0.2034  0.1350
 2702ntf    sn213517   5.078   0.437   0.243 -0.3261 -0.2278  0.0909
 2702ntf    nn313518   5.131   0.585   0.241 -0.1908 -0.2736  0.2475
 2702ntf    sn213519   5.278   0.635   0.215 -0.1868 -0.3225  0.1770
 2702ntf    cn113520   5.249   0.753   0.080 -0.0437  0.0483  0.4662
 2702ntf    fn413521   4.940   0.329   0.060  0.3310 -0.1423  0.7344
 2702ntf    fn413522   4.843   0.506   0.134 -0.4212  0.2221 -0.2963
 2702ntf    fn413523   5.017   0.510   0.003 -0.0281 -0.1720  0.0828
 2702ntf    on513524   4.998   0.404   0.359  0.0249 -0.0669  0.3830
 2702ntf    on513525   5.170   0.334   0.201 -0.0341  0.2772 -0.5104
 2702ntf    on513526   5.374   0.543   0.161  0.0162 -0.1727  0.2794
 2702ntf    on513527   5.320   0.723   0.321 -0.1333 -0.4918  0.2958
 2702ntf    fn413528   5.213   0.698  -0.035  0.2222  0.0298  0.3910
 2702ntf    fn413529   5.158   0.843   0.114  0.0332  0.4182 -0.2856
 2702ntf    fn413530   5.356   0.821   0.045 -0.3152  0.3479  0.2018
 2703ntf    cn113531   0.352   4.763   2.516  0.1861  0.4231 -0.0999
 2703ntf    sn213532   0.237   4.816   2.646  0.1852 -0.0655  0.0988
 2703ntf    nn313533   0.257   4.971   2.634 -0.0481 -0.0500 -0.1165
 2703ntf    sn213534   0.258   5.070   2.757 -0.2664  0.0199 -0.1702
 2703ntf    cn113535   0.426   5.056   2.824 -0.2710  0.3463 -0.0907
 2703ntf    fn413536   0.382   4.635   2.523 -0.3872  0.3100  0.3245
 2703ntf    fn413537   0.309   4.779   2.392 -0.1000 -0.1398 -0.0748
 2703ntf    fn413538   0.471   4.821   2.528  0.0081  0.7633  0.0335
 2703ntf    on513539   0.118   4.767   2.580  0.0099  0.2116  0.2062
 2703ntf    on513540   0.290   4.744   2.758  0.1198 -0.1860  0.0524
 2703ntf    on513541   0.159   5.036   2.857 -0.3420 -0.0166 -0.2562
 2703ntf    on513542   0.247   5.207   2.714 -0.0811  0.0457 -0.1334
 2703ntf    fn413543   0.458   4.935   2.867 -0.4851  0.2355 -0.2413
 2703ntf    fn413544   0.522   5.093   2.741  0.2314  0.5053  0.5562
 2703ntf    fn413545   0.442   5.127   2.934 -0.4706 -0.0520  0.1957
 2704ntf    cn113546   5.412   2.651   4.876 -0.0468 -0.0575 -0.2170
 2704ntf    sn213547   5.343   2.604   4.714 -0.3489 -0.1968 -0.0481
 2704ntf    nn313548   5.211   2.546   4.777  0.0161 -0.1707  0.7487
 2704ntf    sn213549   5.075   2.624   4.778 -0.2696 -0.6583  0.3269
 2704ntf    cn113550   4.987   2.585   4.624 -0.2660  0.2600  0.0859
 2704ntf    fn413551   5.320   2.706   4.953 -0.2312  0.0341 -0.4988
 2704ntf    fn413552   5.468   2.548   4.938 -0.1135  0.1875  0.2527
 2704ntf    fn413553   5.508   2.741   4.868 -0.0116 -0.0937 -0.2121
 2704ntf    on513554   5.337   2.726   4.638 -0.1506 -0.2930 -0.2217
 2704ntf    on513555   5.426   2.497   4.663 -0.5001 -0.4040  0.1352
 2704ntf    on513556   5.073   2.768   4.777  0.2235 -0.6515  0.0335
 2704ntf    on513557   4.996   2.560   4.881 -0.2464  0.3206  0.9656
 2704ntf    fn413558   5.038   2.648   4.520  0.5041 -0.4051  0.0572
 2704ntf    fn413559   4.999   2.457   4.594  0.2073  0.4330 -0.4668
 2704ntf    fn413560   4.858   2.614   4.625 -0.2258  0.4507 -0.1492
 2705ntf    cn113561   2.642   5.748   4.619 -0.1266 -0.3122  0.1212
 2705ntf    sn213562   2.603   5.881   4.736  0.3588  0.0801 -0.1595
 2705ntf    nn313563   2.478   5.952   4.673  0.0358 -0.4208 -0.0897
 2705ntf    sn213564   2.479   6.062   4.561  0.2586 -0.0034  0.3205
 2705ntf    cn113565   2.482   6.206   4.672 -0.0403  0.0611  0.2477
 2705ntf    fn413566   2.535   5.670   4.616 -0.0237 -0.4949  0.9555
 2705ntf    fn413567   2.666   5.793   4.497 -0.2023  0.2605  0.3167
 2705ntf    fn413568   2.747   5.679   4.658  0.1689  0.0183 -0.0841
 2705ntf    on513569   2.576   5.802   4.854 -0.6794 -0.0229 -0.4548
 2705ntf    on513570   2.717   5.969   4.739  0.3125  0.1418 -0.2054
 2705ntf    on513571   2.350   6.074   4.496  0.6523  0.3098 -0.4129
 2705ntf    on513572   2.599   6.076   4.482  0.1603 -0.2584  0.1242
 2705ntf    fn413573   2.385   6.190   4.760 -0.2613  0.2633  0.0428
 2705ntf    fn413574   2.594   6.223   4.740  0.3054  0.1495 -0.3434
 2705ntf    fn413575   2.456   6.320   4.609 -0.4878 -0.5208 -0.6396
 2706ntf    cn113576   1.575   2.872   5.470  0.1412 -0.1395  0.3712
 2706ntf    sn213577   1.734   2.796   5.428  0.0357 -0.0764 -0.1607
 2706ntf    nn313578   1.707   2.646   5.469 -0.6581  0.0516 -0.1348
 2706ntf    sn213579   1.685   2.532   5.363  0.3035 -0.0836 -0.1995
 2706ntf    cn113580   1.856   2.500   5.309  0.2247 -0.1093 -0.4311
 2706ntf    fn413581   1.472   2.815   5.410  0.3310  0.0289 -0.1196
 2706ntf    fn413582   1.539   2.885   5.597 -0.4327 -0.2955  0.2292
 2706ntf    fn413583   1.568   2.996   5.422  0.7672 -0.3579 -0.2912
 2706ntf    on513584   1.752   2.831   5.290  0.2187 -0.0553 -0.1320
 2706ntf    on513585   1.818   2.869   5.520  0.3742 -0.4546 -0.1636
 2706ntf    on513586   1.620   2.566   5.239 -0.5593 -0.3450  0.1747
 2706ntf    on513587   1.644   2.413   5.433 -0.0378 -0.0299 -0.3095
 2706ntf    fn413588   1.922   2.443   5.407 -0.3110  0.1869  0.1123
 2706ntf    fn413589   1.858   2.418   5.206  0.0100  0.3813 -0.8333
 2706ntf    fn413590   1.936   2.600   5.275 -0.2508  0.3969 -0.0854
 2707ntf    cn113591   6.330   2.527   3.954 -0.1771 -0.0087  0.1630
 2707ntf    sn213592   6.154   2.559   3.987 -0.1141  0.3915  0.1211
 2707ntf    nn313593   6.163   2.661   4.106 -0.2609 -0.0367  0.5025
 2707ntf    sn213594   6.153   2.817   4.115 -0.2773 -0.0069  0.0273
 2707ntf    cn113595   6.023   2.853   4.237 -0.3031  0.4074 -0.1224
 2707ntf    fn413596   6.353   2.436   3.861  0.1087 -0.0184  0.2420
 2707ntf    fn413597   6.393   2.639   3.923 -0.2803 -0.2092 -0.8106
 2707ntf    fn413598   6.394   2.485   4.062 -0.5621 -0.0569  0.3744
 2707ntf    on513599   6.106   2.612   3.861  0.3576 -0.2637 -0.3418
 2707ntf    on513600   6.095   2.432   4.022  0.3179  0.1228 -0.1069
 2707ntf    on513601   6.115   2.883   3.993 -0.2427  0.5297  0.3004
 2707ntf    on513602   6.277   2.847   4.182  0.1074 -0.4856 -0.4632
 2707ntf    fn413603   6.015   2.982   4.268  0.4074  0.3185  0.4468
 2707ntf    fn413604   5.900   2.816   4.203 -0.2007 -0.4017  0.3634
 2707ntf    fn413605   6.051   2.791   4.350  0.6168  0.9168 -0.0593
 2708ntf    cn113606   0.565   1.158   5.207 -0.1336 -0.0812  0.3259
 2708ntf    sn213607   0.415   1.056   5.191 -0.1542  0.0315 -0.2201
 2708ntf    nn313608   0.373   1.062   5.040  0.5755  0.4395 -0.4115
 2708ntf    sn213609   0.430   0.984   4.916  0.0867 -0.0370 -0.3432
 2708ntf    cn113610   0.280   0.892   4.875  0.4474 -0.8402  0.1206
 2708ntf    fn413611   0.606   1.166   5.333  0.4879  0.0731  0.1122
 2708ntf    fn413612   0.662   1.103   5.137 -0.1352  0.0144  0.2490
 2708ntf    fn413613   0.555   1.280   5.159 -0.1927 -0.0345  0.4537
 2708ntf    on513614   0.462   0.926   5.232 -0.4440 -0.1035 -0.3125
 2708ntf    on513615   0.318   1.132   5.266  0.3066 -0.2652  0.6917
 2708ntf    on513616   0.536   0.892   4.949 -0.3894 -0.2350  0.6940
 2708ntf    on513617   0.450   1.073   4.804 -0.4139  0.3066 -0.1652
 2708ntf    fn413618   0.310   0.773   4.826 -0.5423 -1.1049  0.1238
 2708ntf    fn413619   0.198   0.874   4.977  0.3215 -0.6799  0.0484
 2708ntf    fn413620   0.208   0.952   4.781  0.5901 -0.1565  0.4452
 2709ntf    cn113621   6.604   1.627   6.042  0.2558  0.3445  0.1207
 2709ntf    sn213622   6.725   1.564   5.922  0.1967  0.1781  0.1486
 2709ntf    nn313623   6.826   1.679   5.889  0.4407 -0.0016  0.2674
 2709ntf    sn213624   6.816   1.795   5.784  0.1072 -0.0051  0.2927
 2709ntf    cn113625   6.841   1.938   5.893 -0.1299  0.3056 -0.0571
 2709ntf    fn413626   6.672   1.681   6.142  0.3702  0.2983  0.0691
 2709ntf    fn413627   6.529   1.720   5.985  0.0304 -0.0234 -0.1854
 2709ntf    fn413628   6.526   1.535   6.096  0.1521  0.2780 -0.1450
 2709ntf    on513629   6.790   1.456   5.992 -0.1417 -0.1383 -0.0156
 2709ntf    on513630   6.652   1.519   5.805 -0.4683  0.4363  0.4602
 2709ntf    on513631   6.686   1.827   5.731 -0.1479 -0.8495  0.3901
 2709ntf    on513632   6.930   1.797   5.695 -0.2605 -0.3654 -0.1923
 2709ntf    fn413633   6.882   2.045   5.826 -0.3352  0.5494  0.2017
 2709ntf    fn413634   6.735   1.970   5.965  0.1275 -0.0363  0.4762
 2709ntf    fn413635   6.939   1.909   5.977 -0.1478  0.1781 -0.0803
 2710ntf    cn113636   5.891   3.754   0.562  0.0143 -0.3245 -0.2118
 2710ntf    sn213637   5.926   3.775   0.739 -0.2803  0.0423 -0.1972
 2710ntf    nn313638   5.864   3.638   0.785 -0.4783  0.3035  0.3339
 2710ntf    sn213639   5.790   3.612   0.920 -0.2660 -0.1342  0.3675
 2710ntf    cn113640   5.683   3.476   0.863 -0.4101  0.0391  0.2216
 2710ntf    fn413641   5.956   3.842   0.488  0.5499 -0.3653  0.2020
 2710ntf    fn413642   5.926   3.632   0.522 -0.5875 -0.6364  0.1940
 2710ntf    fn413643   5.762   3.771   0.534  0.0496  0.2136 -0.0519
 2710ntf    on513644   6.069   3.783   0.752 -0.3653  0.6998  0.3955
 2710ntf    on513645   5.854   3.895   0.775 -0.1533 -0.1209  0.6316
 2710ntf    on513646   5.696   3.713   0.961 -0.1762 -0.0545  0.3772
 2710ntf    on513647   5.879   3.543   1.010  0.0569 -0.2551 -0.0423
 2710ntf    fn413648   5.575   3.526   0.806 -0.0393 -0.4119 -0.9181
 2710ntf    fn413649   5.737   3.388   0.780  0.6762  0.4656  0.4670
 2710ntf    fn413650   5.638   3.403   0.964 -0.8512  0.1639  0.1161
 2711ntf    cn113651   5.279   0.597   1.674  0.0020 -0.1200 -0.4363
 2711ntf    sn213652   5.317   0.543   1.505  0.0124 -0.3693 -0.3553
 2711ntf    nn313653   5.244   0.405   1.492 -0.1556 -0.3311  0.1739
 2711ntf    sn213654   5.095   0.378   1.448 -0.1780  0.0148  0.0339
 2711ntf    cn113655   5.104   0.355   1.268 -0.4156 -0.3386  0.0653
 2711ntf    fn413656   5.308   0.725   1.690 -0.4064 -0.0653 -0.1003
 2711ntf    fn413657   5.153   0.573   1.708  0.2848  0.2026  0.8757
 2711ntf    fn413658   5.352   0.522   1.754  0.2644  0.1555 -0.4180
 2711ntf    on513659   5.265   0.642   1.414 -0.3795 -0.6039 -0.3889
 2711ntf    on513660   5.459   0.517   1.500  0.0534 -0.2020 -0.0498
 2711ntf    on513661   4.993   0.477   1.467 -0.0814  0.0398  0.4456
 2711ntf    on513662   5.053   0.250   1.499 -0.1534 -0.1163 -0.2740
 2711ntf    fn413663   5.166   0.244   1.234  0.4423  0.0606  0.2927
 2711ntf    fn413664   4.987   0.350   1.207 -0.5929 -0.4558  0.4121
 2711ntf    fn413665   5.178   0.451   1.214  0.0381 -0.5537  0.2997
 2712ntf    cn113666   5.897   3.185   6.587 -0.1474 -0.6297 -0.4530
 2712ntf    sn213667   5.883   3.362   6.545 -0.3193 -0.4866  0.1978
 2712ntf    nn313668   5.873   3.368   6.388 -0.0935  0.4532  0.2161
 2712ntf    sn213669   5.755   3.364   6.284  0.0286  0.0099  0.0955
 2712ntf    cn113670   5.856   3.377   6.133 -0.2104 -0.0861 -0.0726
 2712ntf    fn413671   5.792   3.115   6.549 -0.8307 -0.3075  0.7788
 2712ntf    fn413672   6.006   3.138   6.528 -0.0012 -0.1198 -0.6025
 2712ntf    fn413673   5.910   3.174   6.718  0.0299  0.3674 -0.3711
 2712ntf    on513674   5.764   3.404   6.614  0.0035  0.5417  0.1508
 2712ntf    on513675   6.011   3.410   6.592 -0.5682 -0.0473  0.4333
 2712ntf    on513676   5.673   3.482   6.282 -0.3486 -0.2375  0.6223
 2712ntf    on513677   5.691   3.235   6.276 -0.3250  0.2147 -0.3717
 2712ntf    fn413678   5.943   3.279   6.123  0.0368  0.1104  0.1361
 2712ntf    fn413679   5.780   3.382   6.025  0.3645  0.0826 -0.4682
 2712ntf    fn413680   5.930   3.487   6.130 -0.2693 -0.0539 -0.3802
 2713ntf    cn113681   6.479   1.481   2.009 -0.2451 -0.0458 -0.1001
 2713ntf    sn213682   6.330   1.445   2.106 -0.2579 -0.2235 -0.1856
 2713ntf    nn313683   6.291   1.306   2.043  0.1947 -0.4861  0.1146
 2713ntf    sn213684   6.171   1.218   2.091 -0.0220 -0.3070 -0.0986
 2713ntf    cn113685   6.275   1.071   2.119  0.1387 -0.1241  0.2754
 2713ntf    fn413686   6.570   1.386   2.012 -0.4857 -0.2687  0.1382
 2713ntf    fn413687   6.449   1.508   1.883 -0.1043  0.3361 -0.0560
 2713ntf    fn413688   6.548   1.588   2.047 -0.3195 -0.0232 -0.0274
 2713ntf    on513689   6.374   1.439   2.243 -0.2858 -0.3178 -0.1805
 2713ntf    on513690   6.244   1.555   2.070  0.1898  0.2238  0.1089
 2713ntf    on513691   6.085   1.172   1.985 -0.3079 -0.5691  0.2399
 2713ntf    on513692   6.111   1.236   2.221  0.0480  0.3311 -0.1528
 2713ntf    fn413693   6.199   0.972   2.161 -0.3687  0.0442 -0.2290
 2713ntf    fn413694   6.334   1.036   2.006 -0.1456 -0.5494  0.2576
 2713ntf    fn413695   6.375   1.084   2.205  0.1359  0.2952  0.2172
 2714ntf    cn113696   2.917   0.244   2.832  0.1703  0.1338  0.3712
 2714ntf    sn213697   2.762   0.333   2.861 -0.0319 -0.1413  0.1374
 2714ntf    nn313698   2.665   0.217   2.819 -0.1309 -0.0284  0.0537
 2714ntf    sn213699   2.585   0.119   2.911  0.0204 -0.0810  0.1295
 2714ntf    cn113700   2.423   0.197   2.938  0.3176  0.4405  0.4206
 2714ntf    fn413701   2.924   0.135   2.906 -0.0570 -0.2178 -0.1196
 2714ntf    fn413702   2.922   0.197   2.708  0.0830  0.1427  0.3648
 2714ntf    fn413703   3.023   0.319   2.858 -0.1103  0.3139  1.0099
 2714ntf    on513704   2.770   0.380   2.997  0.2144  0.7063 -0.1592
 2714ntf    on513705   2.764   0.431   2.755 -1.2173 -0.0407  0.1954
 2714ntf    on513706   2.642   0.093   3.041  0.3227 -0.0307  0.0071
 2714ntf    on513707   2.550  -0.002   2.840 -0.2501  0.2624 -0.3324
 2714ntf    fn413708   2.337   0.124   3.007  0.1322  0.2274 -0.0290
 2714ntf    fn413709   2.438   0.310   3.005 -0.0271  0.3633  0.6292
 2714ntf    fn413710   2.359   0.224   2.825  0.0518  0.0647  0.4795
 2715ntf    cn113711   3.635   2.145   3.130  0.4024  0.0546 -0.0225
 2715ntf    sn213712   3.547   2.125   2.972 -0.2090 -0.2718  0.3548
 2715ntf    nn313713   3.662   2.098   2.869 -0.2723 -0.0209  0.2167
 2715ntf    sn213714   3.753   2.202   2.794  0.1183 -0.3919  0.1732
 2715ntf    cn113715   3.664   2.209   2.636  0.0777 -0.2024  0.2032
 2715ntf    fn413716   3.557   2.182   3.230  0.4902  0.9665 -0.2848
 2715ntf    fn413717   3.696   2.031   3.158  0.2646  0.1100  0.5090
 2715ntf    fn413718   3.728   2.237   3.116  0.0797  0.4359  0.3183
 2715ntf    on513719   3.464   2.010   3.000 -0.7248 -0.0236 -0.1182
 2715ntf    on513720   3.468   2.240   2.934  0.3333 -0.0480 -0.1066
 2715ntf    on513721   3.880   2.142   2.762  0.3839  0.2419  0.0193
 2715ntf    on513722   3.747   2.339   2.838 -1.1275 -0.4191  0.1254
 2715ntf    fn413723   3.563   2.294   2.638  0.1589 -0.0820 -0.4445
 2715ntf    fn413724   3.744   2.248   2.538 -0.0050 -0.4150  0.0483
 2715ntf    fn413725   3.621   2.091   2.593 -0.1145 -0.1630  0.2876
 2716ntf    cn113726   3.543   4.191   4.936  0.5068 -0.0265 -0.2594
 2716ntf    sn213727   3.618   4.168   5.100 -0.2549  0.1292  0.1146
 2716ntf    nn313728   3.522   4.235   5.205 -0.2658  0.1262  0.1061
 2716ntf    sn213729   3.496   4.200   5.356  0.0870  0.1720  0.1779
 2716ntf    cn113730   3.331   4.124   5.350  0.2433 -0.1504 -0.0178
 2716ntf    fn413731   3.413   4.171   4.938  0.4414  0.3901 -0.1287
 2716ntf    fn413732   3.561   4.315   4.893  0.1968 -0.0024 -0.3186
 2716ntf    fn413733   3.589   4.116   4.838  0.1068 -0.0799 -0.4074
 2716ntf    on513734   3.619   4.024   5.110 -0.4181  0.1698  0.8174
 2716ntf    on513735   3.744   4.237   5.090 -0.5456  0.6298 -0.1177
 2716ntf    on513736   3.487   4.320   5.436  0.4031  0.1695  0.2191
 2716ntf    on513737   3.581   4.100   5.416 -0.1798 -0.2634 -0.1642
 2716ntf    fn413738   3.331   3.994   5.327  0.2734 -0.1498 -0.0229
 2716ntf    fn413739   3.283   4.134   5.472 -0.0353 -0.2669 -0.1168
 2716ntf    fn413740   3.246   4.176   5.263 -0.1487  0.2545  0.6037
 2717ntf    cn113741   2.753   0.329   1.203 -0.1436  0.0700 -0.4388
 2717ntf    sn213742   2.597   0.270   1.130 -0.1688 -0.0771 -0.2664
 2717ntf    nn313743   2.596   0.352   0.996  0.1809  0.0344 -0.2031
 2717ntf    sn213744   2.531   0.312   0.859  0.2254 -0.0514 -0.1994
 2717ntf    cn113745   2.473   0.476   0.806  0.0737  0.0759  0.3548
 2717ntf    fn413746   2.773   0.282   1.325  0.5682 -0.0880 -0.6156
 2717ntf    fn413747   2.856   0.291   1.130  0.3182  0.0107  0.2390
 2717ntf    fn413748   2.751   0.461   1.204  0.2171  0.0798 -0.7227
 2717ntf    on513749   2.618   0.127   1.123 -0.1808 -0.1320  0.7244
 2717ntf    on513750   2.505   0.319   1.229 -0.4471 -0.3605 -0.3823
 2717ntf    on513751   2.415   0.227   0.872 -0.3049  0.5826 -0.6730
 2717ntf    on513752   2.630   0.281   0.758  0.6469  0.7635 -0.0428
 2717ntf    fn413753   2.562   0.572   0.824  0.4565 -0.1335 -0.3793
 2717ntf    fn413754   2.433   0.479   0.679  0.6291  0.0885  0.1785
 2717ntf    fn413755   2.371   0.515   0.880 -0.4644 -0.5362 -0.0473
 2718ntf    cn113756   1.851   1.937   0.451  0.2454  0.3447 -0.0397
 2718ntf    sn213757   2.023   1.990   0.423  0.3119  0.0337 -0.2280
 2718ntf    nn313758   2.055   2.060   0.560  0.5258 -0.2109 -0.1537
 2718ntf    sn213759   2.018   2.210   0.589  0.1040 -0.3533  0.0519
 2718ntf    cn113760   1.969   2.188   0.763 -0.1330  0.0482  0.0364
 2718ntf    fn413761   1.763   2.026   0.408  0.1071  0.1887 -0.0799
 2718ntf    fn413762   1.826   1.831   0.376  0.6396 -0.1912  0.5806
 2718ntf    fn413763   1.822   1.902   0.575 -0.0868 -0.1663 -0.2599
 2718ntf    on513764   2.089   1.862   0.413  0.1563 -0.0378 -0.3419
 2718ntf    on513765   2.035   2.077   0.308  0.4866  0.5852  0.2036
 2718ntf    on513766   1.896   2.260   0.532  0.2430  0.2603  0.2823
 2718ntf    on513767   2.129   2.303   0.589  0.2935 -0.5767  0.1790
 2718ntf    fn413768   2.070   2.133   0.828 -0.0419  0.0691 -0.0873
 2718ntf    fn413769   1.946   2.302   0.826 -0.1206 -0.0684  0.2524
 2718ntf    fn413770   1.863   2.108   0.772  0.4161 -0.7409 -0.3200
 2719ntf    cn113771   1.603   3.583   5.924  0.1524  0.1091 -0.3208
 2719ntf    sn213772   1.733   3.690   5.855  0.0908  0.0977 -0.4554
 2719ntf    nn313773   1.652   3.811   5.797 -0.1916  0.3102  0.3668
 2719ntf    sn213774   1.609   3.851   5.651 -0.3012 -0.0707  0.2928
 2719ntf    cn113775   1.670   4.023   5.654 -0.3451 -0.0450 -0.2315
 2719ntf    fn413776   1.517   3.554   5.828 -0.4490  0.2497  0.1690
 2719ntf    fn413777   1.644   3.465   5.968 -0.2866 -0.0486 -0.3379
 2719ntf    fn413778   1.537   3.638   6.025  0.7801 -0.2569  0.2999
 2719ntf    on513779   1.815   3.721   5.969  0.0326 -0.2586 -0.3154
 2719ntf    on513780   1.793   3.609   5.752  0.0630 -0.6181  0.0858
 2719ntf    on513781   1.470   3.873   5.622 -0.1617  0.4581 -0.0026
 2719ntf    on513782   1.689   3.790   5.548 -0.1103  0.6392  0.0133
 2719ntf    fn413783   1.800   4.039   5.675 -0.3104 -0.0430 -0.4390
 2719ntf    fn413784   1.643   4.083   5.539 -0.1373 -0.2763 -0.4026
 2719ntf    fn413785   1.609   4.099   5.743 -0.6232 -0.1428 -0.3359
 2720ntf    cn113786   0.804   4.555   6.840  0.1787 -0.4460 -0.1605
 2720ntf    sn213787   0.783   4.688   6.962  0.3327 -0.5718  0.0027
 2720ntf    nn313788   0.652   4.646   7.036  0.0653 -0.3645 -0.3526
 2720ntf    sn213789   0.648   4.613   7.190  0.1455  0.1248 -0.2457
 2720ntf    cn113790   0.719   4.766   7.257  0.2661  0.0741 -0.2574
 2720ntf    fn413791   0.803   4.440   6.906 -0.1986 -0.5089 -0.2785
 2720ntf    fn413792   0.701   4.539   6.759 -0.2919  0.0057  0.3395
 2720ntf    fn413793   0.918   4.567   6.774  0.2927  0.0554  0.1192
 2720ntf    on513794   0.907   4.677   7.035  0.4223 -0.0330 -0.0646
 2720ntf    on513795   0.765   4.804   6.878  0.2239 -0.3322  0.3513
 2720ntf    on513796   0.730   4.504   7.236 -0.0775  0.1780  0.2848
 2720ntf    on513797   0.510   4.621   7.233  0.2616  0.1549  0.1219
 2720ntf    fn413798   0.657   4.872   7.207  0.2828  0.2178  0.0210
 2720ntf    fn413799   0.685   4.774   7.385  0.0785 -0.0775 -0.2968
 2720ntf    fn413800   0.850   4.782   7.264  0.1623  0.7270  0.3650
 2721ntf    cn113801   3.042   3.740   6.060 -0.1816 -0.1392  0.1429
 2721ntf    sn213802   2.908   3.852   6.110 -0.2136  0.1756 -0.6374
 2721ntf    nn313803   2.990   3.945   6.207 -0.4959 -0.2255 -0.0114
 2721ntf    sn213804   2.996   3.934   6.364  0.2385 -0.0356 -0.0262
 2721ntf    cn113805   2.894   4.077   6.410  0.0384 -0.1904  0.0132
 2721ntf    fn413806   3.002   3.649   5.973 -0.0426  0.0954 -0.1695
 2721ntf    fn413807   3.139   3.804   5.997 -0.5133  0.4381  0.2129
 2721ntf    fn413808   3.097   3.671   6.159 -0.2609 -0.0639  0.2399
 2721ntf    on513809   2.898   3.931   5.990  0.3751  0.6551 -0.3746
 2721ntf    on513810   2.795   3.773   6.152 -0.0312  0.1123 -0.2601
 2721ntf    on513811   3.125   3.964   6.421 -0.1246 -0.3559  0.9799
 2721ntf    on513812   2.928   3.823   6.426  0.4163 -0.1758 -0.0807
 2721ntf    fn413813   2.784   4.084   6.337 -0.0475 -0.0377  0.1546
 2721ntf    fn413814   2.870   4.078   6.540 -0.1132 -0.0062 -0.0152
 2721ntf    fn413815   2.964   4.188   6.391  0.3950 -0.4183  0.0008
 2722ntf    cn113816   3.094   1.768   6.744 -0.1280  0.1925 -0.3207
 2722ntf    sn213817   3.026   1.819   6.904  0.1426  0.3315 -0.2492
 2722ntf    nn313818   2.910   1.910   6.850 -0.3953 -0.1759  0.0356
 2722ntf    sn213819   2.755   1.890   6.867 -0.4670  0.1507 -0.2251
 2722ntf    cn113820   2.739   1.933   7.043  0.1245 -0.3343 -0.0481
 2722ntf    fn413821   3.220   1.728   6.742 -0.1263  0.1976 -0.3283
 2722ntf    fn413822   3.029   1.668   6.688  0.2155  0.0238 -0.4195
 2722ntf    fn413823   3.081   1.868   6.658 -0.6736  0.3183 -0.0914
 2722ntf    on513824   2.984   1.696   6.966 -0.0093 -0.1139 -1.2206
 2722ntf    on513825   3.130   1.890   6.974 -0.5625  0.4973  0.6580
 2722ntf    on513826   2.702   1.757   6.856  0.4202 -0.2604  0.3548
 2722ntf    on513827   2.680   1.990   6.795  0.0629  0.3277 -0.5364
 2722ntf    fn413828   2.803   1.854   7.127  0.1739 -0.0560  0.1793
 2722ntf    fn413829   2.779   2.057   7.063 -0.2331 -0.2105 -0.0814
 2722ntf    fn413830   2.613   1.944   7.082  0.2892 -0.2383  0.4636
 2723ntf    cn113831   1.574   0.900   1.030  0.1342  0.0700  0.1369
 2723ntf    sn213832   1.500   1.005   1.159 -0.0223  0.0327  0.0784
 2723ntf    nn313833   1.591   0.950   1.276  0.4074  0.1278 -0.2097
 2723ntf    sn213834   1.619   1.023   1.412  0.0957  0.1682 -0.1655
 2723ntf    cn113835   1.536   0.917   1.534  0.1210 -0.2120 -0.4769
 2723ntf    fn413836   1.567   0.771   1.061  0.0762  0.1389  0.4170
 2723ntf    fn413837   1.509   0.917   0.916  0.6429 -0.3754 -0.2229
 2723ntf    fn413838   1.703   0.922   1.015  0.0786  0.2296 -0.1059
 2723ntf    on513839   1.521   1.143   1.124 -0.5234  0.1442  0.2127
 2723ntf    on513840   1.364   0.958   1.173 -0.0614  0.1617  0.1315
 2723ntf    on513841   1.559   1.154   1.427  0.4267  0.2822  0.1944
 2723ntf    on513842   1.757   1.026   1.452  0.0948 -0.4812 -0.1097
 2723ntf    fn413843   1.405   0.926   1.520 -0.0098 -0.1438  0.6859
 2723ntf    fn413844   1.571   0.790   1.527 -0.0564 -0.2752 -0.2032
 2723ntf    fn413845   1.569   0.960   1.654  0.0601 -0.4821 -0.3629
 2724ntf    cn113846   3.591   2.340   5.698 -0.0090 -0.1802  0.3431
 2724ntf    sn213847   3.665   2.505   5.707 -0.4998  0.0691 -0.1013
 2724ntf    nn313848   3.637   2.538   5.858  0.2746 -0.0579  0.0733
 2724ntf    sn213849   3.524   2.633   5.912  0.1151 -0.2483  0.0769
 2724ntf    cn113850   3.584   2.671   6.079  0.0069  0.2007  0.0147
 2724ntf    fn413851   3.633   2.263   5.797  0.4367  0.0492  0.3317
 2724ntf    fn413852   3.459   2.341   5.707 -0.0356 -0.1909 -0.0277
 2724ntf    fn413853   3.638   2.278   5.591 -0.1886  0.2603  0.0083
 2724ntf    on513854   3.807   2.486   5.689 -0.5404 -0.2304 -0.1102
 2724ntf    on513855   3.590   2.582   5.611 -0.5003  0.4152  0.1749
 2724ntf    on513856   3.394   2.575   5.933  0.2072 -0.3969  0.2378
 2724ntf    on513857   3.530   2.761   5.845  0.1431 -0.2920 -0.0046
 2724ntf    fn413858   3.494   2.733   6.154 -0.4929 -0.6174  0.1060
 2724ntf    fn413859   3.624   2.564   6.146 -0.8235 -0.1393 -0.0178
 2724ntf    fn413860   3.683   2.757   6.065 -0.0794  0.3727  0.4344
 2725ntf    cn113861   2.998   5.449   0.793  0.1489 -0.5386  0.3183
 2725ntf    sn213862   2.839   5.460   0.881 -0.1123 -0.3128 -0.1835
 2725ntf    nn313863   2.768   5.334   0.820 -0.1750 -0.0156 -0.7329
 2725ntf    sn213864   2.748   5.192   0.883  0.1229  0.2364 -0.0633
 2725ntf    cn113865   2.579   5.227   0.942  0.0479 -0.1671 -0.0349
 2725ntf    fn413866   3.057   5.332   0.814  0.6498 -0.2868  0.3140
 2725ntf    fn413867   2.985   5.461   0.662  0.3427  0.1009  0.3574
 2725ntf    fn413868   3.083   5.543   0.829 -0.1285 -0.2854  0.3188
 2725ntf    on513869   2.862   5.464   1.023  0.1570 -0.2575 -0.2288
 2725ntf    on513870   2.774   5.581   0.835  0.1493 -0.2509 -0.3921
 2725ntf    on513871   2.818   5.161   1.005 -0.0454 -0.0150 -0.0289
 2725ntf    on513872   2.737   5.087   0.785 -0.0164 -0.1669  0.3807
 2725ntf    fn413873   2.560   5.332   1.020 -0.5382  0.3307 -0.8367
 2725ntf    fn413874   2.492   5.247   0.845  0.0345 -0.6219 -0.1168
 2725ntf    fn413875   2.528   5.122   1.005  0.1305 -0.2386 -0.0861
 2726ntf    cn113876   6.920   6.164   6.180 -0.2347  0.2145  0.6378
 2726ntf    sn213877   6.856   6.190   6.348 -0.0873  0.2531  0.6878
 2726ntf    nn313878   6.994   6.221   6.417  0.0034  0.8365  0.2497
 2726ntf    sn213879   7.043   6.192   6.563  0.1457  0.1702  0.0766
 2726ntf    cn113880   7.150   6.336   6.595  0.1045  0.1342  0.3820
 2726ntf    fn413881   7.009   6.066   6.183 -0.4391  0.0144  0.2720
 2726ntf    fn413882   6.833   6.139   6.083 -0.6044  0.3978  0.9200
 2726ntf    fn413883   6.988   6.268   6.133  0.3864 -0.3809  0.2027
 2726ntf    on513884   6.775   6.308   6.334 -0.0543  0.1993  0.0079
 2726ntf    on513885   6.798   6.065   6.391  0.6279 -0.3929 -0.1828
 2726ntf    on513886   7.133   6.080   6.562 -0.0838 -0.0082 -0.5491
 2726ntf    on513887   6.940   6.195   6.665  0.1864  0.6948  0.1045
 2726ntf    fn413888   7.256   6.327   6.517 -0.1258 -0.2897  0.1079
 2726ntf    fn413889   7.092   6.451   6.566  0.6811  0.2748 -0.2253
 2726ntf    fn413890   7.188   6.353   6.720  0.6175  0.2182  0.2148
 2727ntf    cn113891   1.405   6.144   5.292 -0.1363 -0.1835  0.2307
 2727ntf    sn213892   1.259   6.230   5.226  0.1725  0.0011 -0.2164
 2727ntf    nn313893   1.320   6.325   5.117  0.5072  0.1236  0.0777
 2727ntf    sn213894   1.301   6.480   5.094  0.3373  0.1258  0.2298
 2727ntf    cn113895   1.191   6.468   4.950  0.2498  0.2102  0.2899
 2727ntf    fn413896   1.488   6.107   5.196 -0.6446  0.0787 -0.3189
 2727ntf    fn413897   1.473   6.228   5.368  0.5423 -0.1259 -0.4267
 2727ntf    fn413898   1.364   6.041   5.364 -0.1370 -0.3758 -0.0433
 2727ntf    on513899   1.179   6.127   5.166 -0.0393  0.0492 -0.0185
 2727ntf    on513900   1.205   6.292   5.344 -0.6827 -0.0242 -0.5887
 2727ntf    on513901   1.424   6.543   5.051  0.4443  0.0791  0.4648
 2727ntf    on513902   1.225   6.541   5.199  0.1038  0.2529 -0.0133
 2727ntf    fn413903   1.149   6.583   4.900 -0.3792 -0.3449 -0.4734
 2727ntf    fn413904   1.233   6.398   4.847 -0.4878 -0.2457  0.2860
 2727ntf    fn413905   1.080   6.404   4.985  0.1918  0.3459  0.3580
 2728ntf    cn113906   3.962   1.288   0.540  0.5042  0.1407 -0.5031
 2728ntf    sn213907   4.082   1.352   0.660  0.4451 -0.2205 -0.2515
 2728ntf    nn313908   4.196   1.399   0.564  0.2056  0.3973 -0.2352
 2728ntf    sn213909   4.346   1.360   0.537  0.1246 -0.0365 -0.0595
 2728ntf    cn113910   4.390   1.519   0.461 -0.0203  0.2509  0.4560
 2728ntf    fn413911   3.843   1.261   0.592  0.3707 -0.0093 -0.8802
 2728ntf    fn413912   3.930   1.367   0.439 -0.4441  1.2280  0.6183
 2728ntf    fn413913   4.002   1.173   0.487  0.1818 -0.0880 -0.2558
 2728ntf    on513914   4.019   1.462   0.728  0.4181 -0.1993 -0.3119
 2728ntf    on513915   4.113   1.236   0.740 -0.4588 -0.0193  0.4037
 2728ntf    on513916   4.372   1.264   0.433 -0.2865 -0.0790 -0.1243
 2728ntf    on513917   4.430   1.343   0.652  0.3063  0.6522 -0.0866
 2728ntf    fn413918   4.338   1.624   0.524 -0.0508  0.5868 -0.1227
 2728ntf    fn413919   4.520   1.541   0.465  0.0973 -0.3438 -0.0909
 2728ntf    fn413920   4.344   1.539   0.339 -0.3347  0.1024  0.5486
 2729ntf    cn113921   3.971   5.696   0.974 -0.3431 -0.1524 -0.2314
 2729ntf    sn213922   3.815   5.708   0.882 -0.1231  0.0132 -0.5848
 2729ntf    nn313923   3.737   5.584   0.938  0.0235  0.1634 -0.0400
 2729ntf    sn213924   3.655   5.570   1.071 -0.1084  0.2096 -0.1167
 2729ntf    cn113925   3.492   5.626   1.011 -0.3124  0.2717  0.4905
 2729ntf    fn413926   4.069   5.774   0.930 -0.2305 -0.0110  0.2551
 2729ntf    fn413927   3.946   5.727   1.101  0.0679 -0.4123 -0.0848
 2729ntf    fn413928   4.027   5.576   0.969 -0.1609 -0.0639 -0.3473
 2729ntf    on513929   3.761   5.838   0.912 -0.5058 -0.4463  0.8047
 2729ntf    on513930   3.858   5.681   0.747  0.5166 -0.3068 -0.3251
 2729ntf    on513931   3.686   5.663   1.177  0.9347  0.1255 -0.3418
 2729ntf    on513932   3.629   5.432   1.103 -0.0402  0.1737 -0.2157
 2729ntf    fn413933   3.495   5.744   0.950 -0.5031  0.1286  0.2048
 2729ntf    fn413934   3.440   5.538   0.928 -0.2592  0.1319  0.6039
 2729ntf    fn413935   3.408   5.634   1.113 -0.9609  0.0885 -0.0267
 2730ntf    cn113936   0.592   4.002   0.347 -0.1697  0.3647 -0.1128
 2730ntf    sn213937   0.703   3.943   0.215 -0.1151  0.4285 -0.0955
 2730ntf    nn313938   0.845   3.947   0.283 -0.3087 -0.7110  0.3961
 2730ntf    sn213939   0.967   3.856   0.248  0.1652  0.0526  0.0248
 2730ntf    cn113940   0.944   3.713   0.358  0.0885  0.0544  0.0115
 2730ntf    fn413941   0.617   4.128   0.379 -0.2598  0.1163  0.9907
 2730ntf    fn413942   0.473   4.009   0.291 -0.2046 -0.0619 -0.0951
 2730ntf    fn413943   0.578   3.927   0.455 -0.0562  0.5322  0.0201
 2730ntf    on513944   0.652   3.814   0.176  0.3234  0.0358  0.6010
 2730ntf    on513945   0.694   4.052   0.121  0.6468  0.4685 -0.1256
 2730ntf    on513946   1.090   3.911   0.298  0.0954  0.4897 -0.2792
 2730ntf    on513947   0.965   3.794   0.118  0.0645 -0.2317  0.1606
 2730ntf    fn413948   0.830   3.649   0.340 -0.0092  0.2083  0.0883
 2730ntf    fn413949   1.045   3.631   0.333 -0.1021 -0.3332  0.4918
 2730ntf    fn413950   0.950   3.750   0.485 -0.8661  0.0854  0.0533
 2731ntf    cn113951   3.394   6.688   3.836 -0.1747  0.0859 -0.0554
 2731ntf    sn213952   3.568   6.724   3.876 -0.1356  0.0556 -0.2001
 2731ntf    nn313953   3.621   6.755   3.731 -0.0489  0.0746 -0.1643
 2731ntf    sn213954   3.761   6.814   3.693  0.0768  0.0197  0.2089
 2731ntf    cn113955   3.721   6.983   3.640  0.6131  0.1145  0.0987
 2731ntf    fn413956   3.318   6.792   3.807  0.3082  0.4621  0.0047
 2731ntf    fn413957   3.383   6.601   3.738 -0.2916 -0.1748  0.1874
 2731ntf    fn413958   3.334   6.631   3.939 -0.7670  0.1062 -0.3861
 2731ntf    on513959   3.561   6.844   3.955 -0.4522 -0.2042  0.1663
 2731ntf    on513960   3.612   6.599   3.933  0.0917  0.3093  0.1831
 2731ntf    on513961   3.813   6.766   3.567 -0.5984 -0.4734  0.1168
 2731ntf    on513962   3.860   6.841   3.795  0.2385  0.1665  0.0138
 2731ntf    fn413963   3.689   7.056   3.746 -0.4088  0.2104 -0.2678
 2731ntf    fn413964   3.823   7.050   3.589  0.2408  0.3653 -0.3162
 2731ntf    fn413965   3.617   6.994   3.559  0.6408 -0.1988  0.0188
 2732ntf    cn113966   4.014   5.893   7.054  0.0001  0.1873  0.1525
 2732ntf    sn213967   3.846   5.839   7.010  0.0134  0.0826  0.2311
 2732ntf    nn313968   3.852   5.687   7.046  0.0673 -0.0300 -0.2466
 2732ntf    sn213969   3.795   5.560   6.973  0.1239 -0.1351 -0.1084
 2732ntf    cn113970   3.931   5.519   6.859  0.1321 -0.3407 -0.0250
 2732ntf    fn413971   4.113   5.822   7.002 -0.2373  0.1538 -0.2645
 2732ntf    fn413972   4.033   6.014   7.002  0.1531  0.0830 -0.0385
 2732ntf    fn413973   4.038   5.892   7.184  0.1323 -0.1827  0.1258
 2732ntf    on513974   3.756   5.917   7.091 -0.2942 -0.1642  0.1256
 2732ntf    on513975   3.855   5.868   6.869 -0.0780  0.1849  0.2459
 2732ntf    on513976   3.682   5.593   6.890 -0.1481  0.9082  0.6535
 2732ntf    on513977   3.787   5.450   7.066 -0.8307 -0.3167 -0.4015
 2732ntf    fn413978   4.048   5.538   6.918  0.0932  0.0151 -0.0612
 2732ntf    fn413979   3.933   5.391   6.825 -0.1964 -0.3515 -0.0046
 2732ntf    fn413980   3.933   5.599   6.754  0.4889 -0.3640 -0.0385
 2733ntf    cn113981   0.678   5.043   1.885  0.2051  0.1394  0.1168
 2733ntf    sn213982   0.762   5.083   2.041  0.1498 -0.1068  0.2100
 2733ntf    nn313983   0.802   4.939   2.088  0.4238 -0.1594 -0.1843
 2733ntf    sn213984   0.738   4.860   2.208  0.2646  0.2064 -0.0261
 2733ntf    cn113985   0.630   4.743   2.121  0.0981  0.0111  0.4411
 2733ntf    fn413986   0.766   4.990   1.802 -0.4393  0.3868 -0.7537
 2733ntf    fn413987   0.576   4.960   1.899  0.2628 -0.0194 -0.3654
 2733ntf    fn413988   0.633   5.149   1.819  0.3964 -0.2128 -0.5950
 2733ntf    on513989   0.871   5.164   1.994  0.2180 -0.1321  0.3253
 2733ntf    on513990   0.666   5.152   2.124  0.0269  0.0461 -0.0574
 2733ntf    on513991   0.661   4.930   2.306  0.2283 -0.3718  0.3644
 2733ntf    on513992   0.841   4.773   2.261  0.1964  0.0537 -0.1413
 2733ntf    fn413993   0.544   4.808   2.045  0.4166  0.0881  0.1395
 2733ntf    fn413994   0.697   4.668   2.035 -0.3576  0.3303 -0.2030
 2733ntf    fn413995   0.552   4.670   2.199  0.3214 -0.3539  0.3265
 2734ntf    cn113996   0.016   3.201   4.719  0.0782 -0.1750  0.0374
 2734ntf    sn213997   0.197   3.205   4.694  0.0948  0.2240  0.2099
 2734ntf    nn313998   0.220   3.314   4.584 -0.5010 -0.1797 -0.3272
 2734ntf    sn213999   0.339   3.415   4.563 -0.2858 -0.4245 -0.2869
 2734ntf    cn114000   0.286   3.565   4.652  0.0122 -0.1384 -0.5887
 2734ntf    fn414001  -0.042   3.214   4.601 -0.3317 -0.2650  0.2299
 2734ntf    fn414002  -0.029   3.091   4.777  0.0397  0.1416  0.6195
 2734ntf    fn414003  -0.014   3.301   4.801 -0.1921  0.2269 -0.5461
 2734ntf    on514004   0.231   3.249   4.827  0.0339 -0.1900  0.3631
 2734ntf    on514005   0.228   3.075   4.641 -0.6114  0.1170  0.0376
 2734ntf    on514006   0.345   3.446   4.423 -0.0014  0.6364 -0.0519
 2734ntf    on514007   0.457   3.375   4.637 -0.1738  0.5294  0.0680
 2734ntf    fn414008   0.249   3.535   4.775  0.5446  0.5419 -0.2607
 2734ntf    fn414009   0.383   3.651   4.676 -0.3715 -0.0020  0.5315
 2734ntf    fn414010   0.178   3.615   4.594 -0.1621 -0.1603 -0.2854
 2735ntf    cn114011   4.247   6.846   0.782 -0.0705  0.3386  0.3594
 2735ntf    sn214012   4.219   6.667   0.779  0.0424  0.3308 -0.2173
 2735ntf    nn314013   4.114   6.658   0.895  0.3516 -0.2373  0.0222
 2735ntf    sn214014   4.076   6.554   1.006 -0.2833  0.0456  0.0722
 2735ntf    cn114015   4.128   6.659   1.145 -0.0635  0.1025 -0.0527
 2735ntf    fn414016   4.334   6.892   0.694  0.2739  0.1805  0.6130
 2735ntf    fn414017   4.133   6.905   0.752 -0.6254 -0.7882  0.2089
 2735ntf    fn414018   4.269   6.893   0.904 -0.0744 -0.1231  0.5368
 2735ntf    on514019   4.171   6.649   0.644  0.4764  0.1467 -0.3492
 2735ntf    on514020   4.351   6.613   0.801 -0.3689 -0.5172  0.2203
 2735ntf    on514021   4.154   6.435   1.031  0.3043  0.5397  0.6314
 2735ntf    on514022   3.936   6.542   1.040 -0.3368 -0.0981 -0.1964
 2735ntf    fn414023   4.106   6.594   1.259 -0.4904  0.8899  0.3207
 2735ntf    fn414024   4.257   6.686   1.146 -0.2411  0.9606 -0.0199
 2735ntf    fn414025   4.070   6.777   1.158 -0.2015 -0.0407  0.7013
 2736ntf    cn114026   2.520   3.727   0.788  0.4033 -0.1265 -0.0457
 2736ntf    sn214027   2.448   3.894   0.789 -0.2340 -0.3962 -0.0762
 2736ntf    nn314028   2.340   3.872   0.677 -0.0464 -0.4707 -0.2435
 2736ntf    sn214029   2.348   3.910   0.525 -0.3895  0.3517 -0.0614
 2736ntf    cn114030   2.172   3.923   0.481 -0.3162  0.0221 -0.4557
 2736ntf    fn414031   2.574   3.692   0.673  0.6800  0.1777 -0.0091
 2736ntf    fn414032   2.622   3.712   0.871  0.2122 -0.2996  0.1615
 2736ntf    fn414033   2.427   3.638   0.820 -0.1026  0.3688 -0.1126
 2736ntf    on514034   2.394   3.911   0.921 -0.5527  0.6915 -0.3324
 2736ntf    on514035   2.562   3.978   0.760 -0.3474  0.0583  0.7792
 2736ntf    on514036   2.387   3.799   0.442 -0.7159  0.6466 -0.6132
 2736ntf    on514037   2.403   4.036   0.484  0.0463 -0.0885 -0.8543
 2736ntf    fn414038   2.109   4.030   0.526  0.2785  0.0813  0.2490
 2736ntf    fn414039   2.149   3.915   0.351 -0.5462 -0.1693 -0.4032
 2736ntf    fn414040   2.109   3.821   0.535  0.2609 -0.1031 -0.0140
 2737ntf    cn114041   3.328   0.935   5.605 -0.0173  0.3030 -0.0798
 2737ntf    sn214042   3.203   1.056   5.555 -0.1897  0.2124  0.1291
 2737ntf    nn314043   3.275   1.114   5.428 -0.4012  0.1793 -0.0078
 2737ntf    sn214044   3.357   1.247   5.418  0.2586 -0.2254 -0.0652
 2737ntf    cn114045   3.310   1.320   5.258  0.1024  0.1673  0.1584
 2737ntf    fn414046   3.305   0.824   5.537 -0.0227  0.0979  0.2550
 2737ntf    fn414047   3.454   0.967   5.582  0.1089 -0.0840  0.0548
 2737ntf    fn414048   3.323   0.903   5.734 -0.6036 -0.2311 -0.2294
 2737ntf    on514049   3.087   0.979   5.517  0.5139 -0.5585 -0.4837
 2737ntf    on514050   3.193   1.145   5.668 -0.5055  0.1187  0.1767
 2737ntf    on514051   3.498   1.224   5.396  0.2832  0.1039 -0.2620
 2737ntf    on514052   3.316   1.345   5.515  1.0247  0.4893 -0.4442
 2737ntf    fn414053   3.363   1.248   5.160 -0.0836 -0.2920  0.3920
 2737ntf    fn414054   3.179   1.332   5.248  0.1735  0.4762 -0.4467
 2737ntf    fn414055   3.356   1.442   5.240 -0.2644  0.2597 -0.1631
 2738ntf    cn114056   5.765   6.825   5.307  0.4502  0.3235  0.0614
 2738ntf    sn214057   5.794   6.646   5.305  0.2073  0.2822  0.1989
 2738ntf    nn314058   5.765   6.601   5.158 -0.1120  0.2379  0.2749
 2738ntf    sn214059   5.858   6.527   5.056 -0.2705  0.0084  0.2976
 2738ntf    cn114060   5.753   6.389   4.999  0.0663  0.0895 -0.5419
 2738ntf    fn414061   5.846   6.888   5.224  0.4688 -0.1389 -0.2723
 2738ntf    fn414062   5.643   6.862   5.271  0.0472 -0.5406  0.5196
 2738ntf    fn414063   5.788   6.884   5.423 -0.0703  0.1459  0.2596
 2738ntf    on514064   5.931   6.640   5.350  0.4510  0.1467 -0.5514
 2738ntf    on514065   5.692   6.601   5.396 -0.3288  0.2284 -0.4243
 2738ntf    on514066   5.977   6.465   5.111 -0.0833 -0.0837 -0.2026
 2738ntf    on514067   5.864   6.594   4.928  0.1932 -0.5056  0.0419
 2738ntf    fn414068   5.634   6.434   4.962 -0.5590 -0.6869  0.4713
 2738ntf    fn414069   5.802   6.321   4.897  0.1162  0.0207 -0.4721
 2738ntf    fn414070   5.721   6.294   5.086 -0.5702  0.3143 -0.5288
 2739ntf    cn114071   6.540   6.412   4.642 -0.4425  0.2924 -0.3968
 2739ntf    sn214072   6.558   6.577   4.568 -0.2522  0.3926 -0.1326
 2739ntf    nn314073   6.671   6.543   4.465 -0.3021  0.2865 -0.1525
 2739ntf    sn214074   6.672   6.534   4.308 -0.0304  0.1779 -0.1451
 2739ntf    cn114075   6.631   6.359   4.279  0.6093 -0.0417  0.2581
 2739ntf    fn414076   6.482   6.327   4.560 -0.0519 -0.0883 -0.2851
 2739ntf    fn414077   6.659   6.363   4.674 -0.5182  0.2745 -0.1393
 2739ntf    fn414078   6.476   6.405   4.758 -0.1537 -0.6526 -0.2857
 2739ntf    on514079   6.430   6.608   4.510 -0.2989  0.3540 -0.0499
 2739ntf    on514080   6.595   6.657   4.682  0.2620 -0.2168  0.1283
 2739ntf    on514081   6.804   6.534   4.250 -0.2341  0.0923 -0.6164
 2739ntf    on514082   6.563   6.604   4.244 -0.2327 -0.4119 -0.4549
 2739ntf    fn414083   6.653   6.316   4.155 -0.5214  0.5528 -0.1636
 2739ntf    fn414084   6.691   6.273   4.360  0.4787 -0.0239  0.3734
 2739ntf    fn414085   6.501   6.337   4.285  0.6003 -0.1132 -0.1520
 2740ntf    cn114086   0.340   0.553   0.030  0.5232  0.0442  0.1919
 2740ntf    sn214087   0.432   0.598  -0.121  0.1937  0.3881  0.0933
 2740ntf    nn314088   0.542   0.684  -0.049  0.7321 -0.1702 -0.0593
 2740ntf    sn214089   0.626   0.800  -0.113  0.0343  0.3645 -0.0083
 2740ntf    cn114090   0.789   0.721  -0.104 -0.0973  0.0940  0.0188
 2740ntf    fn414091   0.223   0.493   0.014  0.4337  0.1299  0.5265
 2740ntf    fn414092   0.416   0.471   0.101  0.5843 -0.3458 -0.3153
 2740ntf    fn414093   0.312   0.655   0.108 -0.0363 -0.1715  0.2747
 2740ntf    on514094   0.477   0.473  -0.177  0.5523  0.3744  0.4019
 2740ntf    on514095   0.328   0.670  -0.190  0.4631  1.0417  0.3527
 2740ntf    on514096   0.646   0.913  -0.027  0.2249  0.5613 -0.3084
 2740ntf    on514097   0.606   0.820  -0.255 -0.5278  0.3163  0.0605
 2740ntf    fn414098   0.833   0.722   0.020  0.2044 -0.4170 -0.0817
 2740ntf    fn414099   0.786   0.599  -0.156  0.0318  0.4207 -0.7811
 2740ntf    fn414100   0.882   0.787  -0.173  0.0855 -0.3220 -0.1382
 2741ntf    cn114101   0.326   4.110   2.777  0.4259 -0.0211  0.1545
 2741ntf    sn214102   0.215   4.105   2.920  0.3362  0.1215  0.0893
 2741ntf    nn314103   0.234   3.959   2.974  0.1730  0.0822  0.0406
 2741ntf    sn214104   0.151   3.833   2.931 -0.0978  0.2277  0.1328
 2741ntf    cn114105   0.277   3.719   2.867 -0.3677 -0.0223  0.0446
 2741ntf    fn414106   0.334   4.230   2.723  0.4032  0.1567  0.5484
 2741ntf    fn414107   0.445   4.091   2.832  0.2757  0.0143  0.4953
 2741ntf    fn414108   0.307   4.023   2.679 -0.1858  0.5085 -0.2004
 2741ntf    on514109   0.262   4.198   3.020 -0.5749  0.2595  0.4037
 2741ntf    on514110   0.088   4.134   2.857  0.2945  0.5003  0.3418
 2741ntf    on514111   0.073   3.836   2.809  0.5156  1.1129 -0.2429
 2741ntf    on514112   0.095   3.767   3.047  0.4829  0.4016  0.5163
 2741ntf    fn414113   0.349   3.763   2.765  0.2218  0.4720  0.6633
 2741ntf    fn414114   0.364   3.705   2.965 -0.7536 -0.5011  0.3254
 2741ntf    fn414115   0.228   3.599   2.839  0.0410 -0.1298 -0.2237
 2742ntf    cn114116   3.002   5.889   6.034  0.1695 -0.0192  0.0223
 2742ntf    sn214117   2.955   5.752   5.923  0.1503  0.0637 -0.0721
 2742ntf    nn314118   2.858   5.679   6.021 -0.1171  0.2771 -0.1769
 2742ntf    sn214119   2.709   5.633   6.000 -0.1189  0.2100 -0.0178
 2742ntf    cn114120   2.619   5.746   6.111 -0.0422  0.1769  0.0783
 2742ntf    fn414121   3.047   5.998   5.975  0.1793 -0.2616 -0.4269
 2742ntf    fn414122   2.902   5.922   6.114  0.2297  0.0092  0.0855
 2742ntf    fn414123   3.099   5.855   6.118 -0.1678  0.4115  0.5860
 2742ntf    on514124   2.898   5.820   5.809 -0.0423  0.0863  0.0366
 2742ntf    on514125   3.074   5.676   5.895 -0.0478 -0.0304 -0.6870
 2742ntf    on514126   2.681   5.503   6.056 -0.9579 -0.0367 -0.9906
 2742ntf    on514127   2.652   5.661   5.871  0.2685 -0.4871 -0.3416
 2742ntf    fn414128   2.490   5.725   6.091  0.0683  0.2299 -0.7236
 2742ntf    fn414129   2.643   5.732   6.240 -0.3441 -0.2112  0.0964
 2742ntf    fn414130   2.645   5.872   6.083 -0.2044  0.1559 -0.1674
 2743ntf    cn114131   2.377   0.702   5.656  0.0663 -0.1577  0.1369
 2743ntf    sn214132   2.465   0.711   5.496 -0.3646 -0.5439 -0.1225
 2743ntf    nn314133   2.352   0.678   5.392 -0.6781  0.2861 -0.0590
 2743ntf    sn214134   2.344   0.676   5.235 -0.1683 -0.3246 -0.0834
 2743ntf    cn114135   2.174   0.739   5.217 -0.1795 -0.2796  0.1684
 2743ntf    fn414136   2.466   0.691   5.754 -0.2930 -0.3051  0.4467
 2743ntf    fn414137   2.310   0.814   5.678  0.1292 -0.1038  0.0601
 2743ntf    fn414138   2.296   0.599   5.667  0.4551 -0.3691  1.0920
 2743ntf    on514139   2.516   0.845   5.488 -0.4959 -0.4904 -0.0776
 2743ntf    on514140   2.554   0.598   5.491  0.7970  0.3118  0.5505
 2743ntf    on514141   2.331   0.547   5.173 -0.0834 -0.1303 -0.5061
 2743ntf    on514142   2.434   0.764   5.166 -0.8306 -0.1469 -0.7370
 2743ntf    fn414143   2.163   0.864   5.257  0.8998 -0.1024 -0.0551
 2743ntf    fn414144   2.127   0.741   5.093 -0.5162 -0.0697  0.2978
 2743ntf    fn414145   2.087   0.670   5.289 -0.4642  0.1413  0.2323
 2744ntf    cn114146   1.513   1.920   1.138 -0.4998 -0.0085  0.2111
 2744ntf    sn214147   1.540   1.803   1.275  0.0315 -0.0515  0.0734
 2744ntf    nn314148   1.439   1.863   1.380  0.0988 -0.2603  0.2588
 2744ntf    sn214149   1.409   2.010   1.427  0.2869 -0.0986 -0.1177
 2744ntf    cn114150   1.350   1.971   1.595  0.2394 -0.0399 -0.1209
 2744ntf    fn414151   1.390   1.917   1.090 -0.3191  0.3799 -0.2743
 2744ntf    fn414152   1.534   2.047   1.169 -0.2503  0.1369 -0.5415
 2744ntf    fn414153   1.600   1.897   1.041 -0.0433  1.0644  0.3591
 2744ntf    on514154   1.483   1.682   1.221 -0.3521  0.2040 -0.0984
 2744ntf    on514155   1.681   1.821   1.300  0.0852 -0.3019 -0.0479
 2744ntf    on514156   1.296   2.072   1.361 -0.0061  0.0359  0.4982
 2744ntf    on514157   1.522   2.096   1.449  0.1927 -0.0795  0.3012
 2744ntf    fn414158   1.425   1.898   1.674 -0.2371 -0.2696  0.1223
 2744ntf    fn414159   1.327   2.083   1.661 -0.3399 -0.3650  0.2341
 2744ntf    fn414160   1.231   1.914   1.599 -0.0801  0.5894 -0.3686
 2745ntf    cn114161   4.219   4.762   6.887 -0.0952  0.4191 -0.2470
 2745ntf    sn214162   4.138   4.743   6.725 -0.0312 -0.4627 -0.1799
 2745ntf    nn314163   4.153   4.893   6.681  0.1867 -0.3855  0.1575
 2745ntf    sn214164   4.167   4.952   6.536 -0.1546  0.2371  0.3749
 2745ntf    cn114165   4.024   5.064   6.524 -0.0815  0.2355 -0.5540
 2745ntf    fn414166   4.331   4.832   6.885  0.2234 -0.0920 -0.4492
 2745ntf    fn414167   4.147   4.825   6.978  0.0874  0.1029  0.1174
 2745ntf    fn414168   4.245   4.649   6.951  0.2989  0.0932 -0.9712
 2745ntf    on514169   4.230   4.648   6.667  0.3181 -0.1978 -0.0626
 2745ntf    on514170   4.007   4.694   6.762 -0.0350  0.0407  0.4977
 2745ntf    on514171   4.149   4.860   6.427  0.3306  0.4702  0.0984
 2745ntf    on514172   4.280   5.041   6.530 -0.1514  0.1987 -0.1135
 2745ntf    fn414173   3.906   5.012   6.553  0.5639 -0.3821  1.0611
 2745ntf    fn414174   4.043   5.178   6.590 -0.3181  0.1044 -0.2574
 2745ntf    fn414175   4.008   5.112   6.402  0.0276  0.3571 -0.5216
 2746ntf    cn114176   6.907   0.460   2.086 -0.4497  0.0910  0.3351
 2746ntf    sn214177   6.986   0.609   2.017 -0.1808 -0.1642  0.0921
 2746ntf    nn314178   7.110   0.547   1.943 -0.0302  0.5283 -0.2369
 2746ntf    sn214179   7.126   0.526   1.788  0.4102  0.2892 -0.1584
 2746ntf    cn114180   7.294   0.455   1.791  0.2406 -0.1371 -0.6200
 2746ntf    fn414181   6.863   0.372   1.998  0.4525 -0.2122  0.1785
 2746ntf    fn414182   6.991   0.403   2.171  0.3441 -0.0605 -0.5452
 2746ntf    fn414183   6.810   0.494   2.169 -0.4677 -0.5458  0.5814
 2746ntf    on514184   6.881   0.670   1.938 -0.3053 -0.1702  0.2524
 2746ntf    on514185   7.025   0.674   2.139  0.4499  0.3310 -0.3651
 2746ntf    on514186   7.137   0.643   1.705  0.1511 -0.0068 -0.6140
 2746ntf    on514187   7.040   0.420   1.741 -0.1242  0.7097 -0.1276
 2746ntf    fn414188   7.336   0.429   1.669 -0.1263  0.0981 -0.7998
 2746ntf    fn414189   7.375   0.546   1.841  0.0126 -0.0611 -0.3818
 2746ntf    fn414190   7.308   0.348   1.868 -0.1398  0.1171 -0.1908
 2747ntf    cn114191   4.596   5.491   2.349 -0.5003  0.3339 -0.0886
 2747ntf    sn214192   4.460   5.401   2.429 -0.1261  0.0579  0.2472
 2747ntf    nn314193   4.352   5.515   2.416  0.7416  0.8491 -0.1229
 2747ntf    sn214194   4.248   5.556   2.526  0.2800  0.1756 -0.3041
 2747ntf    cn114195   4.135   5.415   2.507  0.2561  0.1071  0.3195
 2747ntf    fn414196   4.560   5.544   2.234 -0.2353  0.4471 -0.1206
 2747ntf    fn414197   4.644   5.580   2.434  0.2826  0.1375 -0.3186
 2747ntf    fn414198   4.698   5.413   2.316 -0.4452  0.4827 -0.2743
 2747ntf    on514199   4.437   5.292   2.337  0.6968  0.5259 -0.5333
 2747ntf    on514200   4.504   5.361   2.560  0.1663  0.1885  0.1886
 2747ntf    on514201   4.169   5.666   2.476 -0.7145 -0.0700  0.6777
 2747ntf    on514202   4.293   5.554   2.663 -0.1391 -0.1062 -0.1683
 2747ntf    fn414203   4.192   5.303   2.547 -0.0974 -0.3262 -0.3640
 2747ntf    fn414204   4.024   5.425   2.579  0.2137 -0.3288  0.3139
 2747ntf    fn414205   4.097   5.400   2.381  0.6188  0.0257  0.2184
 2748ntf    cn114206   5.764   6.233   6.519 -0.2977 -0.1113 -0.0205
 2748ntf    sn214207   5.648   6.240   6.380  0.0082 -0.0227 -0.2739
 2748ntf    nn314208   5.556   6.118   6.415  0.4464 -0.1735  0.3500
 2748ntf    sn214209   5.593   5.966   6.424  0.1959 -0.2451  0.1716
 2748ntf    cn114210   5.608   5.910   6.251  0.0532 -0.0135  0.0845
 2748ntf    fn414211   5.709   6.176   6.624 -0.0677  0.0671  0.1993
 2748ntf    fn414212   5.871   6.158   6.495 -0.0569  0.1981  0.0759
 2748ntf    fn414213   5.802   6.352   6.562  0.0451 -0.1939 -0.0928
 2748ntf    on514214   5.589   6.370   6.402  0.5473  0.1747  0.0096
 2748ntf    on514215   5.726   6.223   6.260 -0.4232 -0.7552 -0.4562
 2748ntf    on514216   5.477   5.898   6.476 -0.1263  0.4577  0.3727
 2748ntf    on514217   5.723   5.932   6.476  0.1088 -0.8238  0.0231
 2748ntf    fn414218   5.686   5.984   6.174 -0.3934  0.2417 -0.1234
 2748ntf    fn414219   5.658   5.789   6.236  0.1275 -0.0324  0.4718
 2748ntf    fn414220   5.490   5.913   6.191  0.2665  0.0172 -0.3299
 2749ntf    cn114221   6.405   5.994   5.791 -0.1127  0.1091  0.4157
 2749ntf    sn214222   6.281   5.907   5.691  0.1786  0.3974 -0.2063
 2749ntf    nn314223   6.168   5.910   5.801 -0.1146 -0.0726 -0.4920
 2749ntf    sn214224   6.014   5.882   5.789 -0.2111  0.2527 -0.0207
 2749ntf    cn114225   5.997   5.710   5.846  0.3134  0.2116  0.0146
 2749ntf    fn414226   6.412   5.951   5.916  0.1410  0.5106  0.5421
 2749ntf    fn414227   6.523   5.977   5.733 -0.4378 -0.3404 -0.1215
 2749ntf    fn414228   6.380   6.124   5.794  0.5471  0.2692 -0.3978
 2749ntf    on514229   6.251   5.997   5.583 -0.6913  0.3206 -0.0410
 2749ntf    on514230   6.330   5.775   5.662  0.0469  0.1894  0.4912
 2749ntf    on514231   5.962   5.883   5.655 -0.6862 -0.6554  0.1453
 2749ntf    on514232   5.939   5.954   5.890  0.0770 -0.0150  0.3895
 2749ntf    fn414233   5.875   5.675   5.881  0.5251 -0.7952 -0.2244
 2749ntf    fn414234   6.022   5.627   5.746  0.1459  0.1511  0.0236
 2749ntf    fn414235   6.080   5.680   5.945  0.2879 -0.3171 -0.1201
 2750ntf    cn114236   0.578   1.642   2.451 -0.1010 -0.2468 -0.2961
 2750ntf    sn214237   0.502   1.483   2.498 -0.2123 -0.2117 -0.3571
 2750ntf    nn314238   0.632   1.396   2.487 -0.4262 -0.5447 -0.2433
 2750ntf    sn214239   0.736   1.374   2.603 -0.1495 -0.1037 -0.4066
 2750ntf    cn114240   0.661   1.228   2.680 -0.2635  0.0108 -0.2982
 2750ntf    fn414241   0.487   1.738   2.458  0.5186  0.3142  0.1828
 2750ntf    fn414242   0.683   1.678   2.523 -0.4623 -0.1199  0.1758
 2750ntf    fn414243   0.626   1.647   2.328 -0.3525  0.5214 -0.3700
 2750ntf    on514244   0.444   1.496   2.629 -0.0954  0.5253 -0.3701
 2750ntf    on514245   0.417   1.454   2.385 -0.8115  0.0754  0.0103
 2750ntf    on514246   0.741   1.475   2.706 -0.8963 -0.3675 -0.1012
 2750ntf    on514247   0.861   1.326   2.550  0.0177 -0.5174  0.3618
 2750ntf    fn414248   0.570   1.256   2.771  0.0482  0.1043 -0.0113
 2750ntf    fn414249   0.615   1.142   2.590 -0.1513  0.2233 -0.5609
 2750ntf    fn414250   0.758   1.168   2.747 -0.2020  0.4768  0.0329
 2751ntf    cn114251   0.751   4.232   1.885 -0.0818  0.0103  0.5013
 2751ntf    sn214252   0.803   4.229   1.711  0.1234 -0.1549  0.5644
 2751ntf    nn314253   0.693   4.148   1.634  0.1155  0.2111  0.1894
 2751ntf    sn214254   0.697   4.001   1.580  0.1376  0.3510 -0.1903
 2751ntf    cn114255   0.783   4.036   1.423 -0.1339  0.2929 -0.3530
 2751ntf    fn414256   0.641   4.303   1.903  0.0724  0.5098 -0.5014
 2751ntf    fn414257   0.727   4.114   1.940  0.3585 -0.1494  0.3620
 2751ntf    fn414258   0.848   4.279   1.963  0.0891  0.3430  0.0886
 2751ntf    on514259   0.802   4.368   1.675  0.6489 -0.2494  0.1673
 2751ntf    on514260   0.935   4.171   1.716  0.4264  0.3730 -0.7938
 2751ntf    on514261   0.569   3.957   1.531 -0.1025  0.3685  0.4145
 2751ntf    on514262   0.772   3.907   1.659  0.2010  0.3390 -0.2639
 2751ntf    fn414263   0.696   4.100   1.346 -0.8502 -0.4113 -0.1490
 2751ntf    fn414264   0.896   4.104   1.432  0.0805 -0.0461 -0.4724
 2751ntf    fn414265   0.813   3.928   1.353  0.0150  0.4078 -0.4657
 2752ntf    cn114266   4.906   6.932   3.725 -0.1545  0.6142 -0.0792
 2752ntf    sn214267   4.876   6.917   3.903  0.0634 -0.2898 -0.1159
 2752ntf    nn314268   4.721   6.888   3.895 -0.0017  0.0997 -0.2895
 2752ntf    sn214269   4.601   6.988   3.904 -0.0405  0.0324 -0.0575
 2752ntf    cn114270   4.500   6.923   3.768 -0.5359  0.1590  0.2498
 2752ntf    fn414271   4.873   6.820   3.663  0.6047  0.5633 -0.4165
 2752ntf    fn414272   4.836   7.027   3.665 -0.1224  0.3289 -0.5788
 2752ntf    fn414273   5.036   6.950   3.704  0.0993 -0.5397  0.4623
 2752ntf    on514274   4.956   6.803   3.941  0.2490 -0.3517 -0.6806
 2752ntf    on514275   4.905   7.045   3.963 -0.0771 -0.2268 -0.1812
 2752ntf    on514276   4.621   7.124   3.858  0.5310 -0.1832 -0.4665
 2752ntf    on514277   4.517   6.967   4.019 -0.2574 -0.2886 -0.2753
 2752ntf    fn414278   4.383   6.985   3.755 -0.1917  0.7109 -0.2548
 2752ntf    fn414279   4.564   6.924   3.653 -0.7616  0.5429  0.1221
 2752ntf    fn414280   4.474   6.795   3.786 -0.0646  0.0896  0.4320
 2753ntf    cn114281   6.874   1.594   2.276  0.5735  0.1958 -0.0879
 2753ntf    sn214282   6.973   1.554   2.424  0.0721 -0.2105  0.1372
 2753ntf    nn314283   6.907   1.651   2.529  0.3808 -0.2033  0.3238
 2753ntf    sn214284   6.785   1.620   2.622  0.1684 -0.3016  0.0138
 2753ntf    cn114285   6.860   1.496   2.732  0.2123 -0.5730 -0.3239
 2753ntf    fn414286   6.928   1.543   2.167  0.8933  0.4523 -0.0518
 2753ntf    fn414287   6.748   1.554   2.280  0.6578 -0.0778 -0.1599
 2753ntf    fn414288   6.871   1.726   2.263 -0.0700  0.2518  0.5548
 2753ntf    on514289   6.951   1.413   2.442  1.4868 -0.4208  0.2927
 2753ntf    on514290   7.107   1.588   2.384 -0.0223 -0.0260 -0.0244
 2753ntf    on514291   6.660   1.570   2.570  0.1165 -0.2614  0.0991
 2753ntf    on514292   6.775   1.743   2.697 -0.1896 -0.0163 -0.4975
 2753ntf    fn414293   6.819   1.491   2.857 -0.0278  0.0868 -0.3712
 2753ntf    fn414294   6.854   1.372   2.684  0.2854 -0.4312 -0.7012
 2753ntf    fn414295   6.990   1.519   2.740  0.0007  0.5731 -0.1034
 2754ntf    cn114296   0.465   6.894   2.295  0.0013 -0.2119 -0.1762
 2754ntf    sn214297   0.570   6.787   2.192 -0.0154 -0.2333 -0.1714
 2754ntf    nn314298   0.649   6.888   2.102  0.0560 -0.5084 -0.4202
 2754ntf    sn214299   0.776   6.972   2.142 -0.2458 -0.2136 -0.0743
 2754ntf    cn114300   0.900   6.874   2.052 -0.3334 -0.1856 -0.2278
 2754ntf    fn414301   0.384   6.827   2.376  0.3844 -0.2848  0.1515
 2754ntf    fn414302   0.533   6.979   2.371  0.1753 -0.1309 -0.4240
 2754ntf    fn414303   0.387   6.966   2.217 -0.4429 -0.2824  0.2011
 2754ntf    on514304   0.658   6.715   2.281 -0.0939 -0.1071  0.0064
 2754ntf    on514305   0.478   6.710   2.112 -0.0503  0.1393 -0.4920
 2754ntf    on514306   0.818   6.980   2.279  0.3711  0.1047 -0.2785
 2754ntf    on514307   0.780   7.096   2.067  0.2894 -0.0276  0.2572
 2754ntf    fn414308   0.876   6.744   2.056 -0.3609 -0.1657  0.4349
 2754ntf    fn414309   0.899   6.910   1.925 -0.3222  0.0966 -0.1501
 2754ntf    fn414310   1.021   6.899   2.100 -0.5293  0.0057  0.1747
 2755ntf    cn114311   6.381   1.456   6.652  0.1057  0.4635 -0.3413
 2755ntf    sn214312   6.287   1.582   6.744 -0.4123 -0.1138 -0.0715
 2755ntf    nn314313   6.404   1.655   6.819 -0.4743 -0.5355  0.4462
 2755ntf    sn214314   6.446   1.636   6.969  0.2780  0.1206  0.3248
 2755ntf    cn114315   6.483   1.812   6.998  0.1688  0.1928  0.0275
 2755ntf    fn414316   6.470   1.399   6.732 -0.6981 -0.7057 -0.2460
 2755ntf    fn414317   6.304   1.357   6.610  0.2410  0.0094  0.4675
 2755ntf    fn414318   6.446   1.504   6.548 -0.0648 -0.0953 -0.7101
 2755ntf    on514319   6.226   1.666   6.644  0.3852  0.0133 -0.4630
 2755ntf    on514320   6.193   1.507   6.824 -0.4296  0.1022  0.1093
 2755ntf    on514321   6.576   1.574   6.983  0.3967  0.1845 -0.4527
 2755ntf    on514322   6.334   1.606   7.053  0.1552 -0.0996  0.0824
 2755ntf    fn414323   6.478   1.834   7.128 -0.4358  0.2227  0.0057
 2755ntf    fn414324   6.599   1.852   6.948  0.4047 -0.0612  0.3719
 2755ntf    fn414325   6.388   1.881   6.935  0.0190  0.1778  0.2372
 2756ntf    cn114326   0.503   5.679   1.256  0.1945 -0.0293  0.0805
 2756ntf    sn214327   0.645   5.775   1.316  0.3100 -0.1494  0.0008
 2756ntf    nn314328   0.583   5.852   1.438 -0.5041 -0.0642 -0.4613
 2756ntf    sn214329   0.541   6.003   1.442  0.3455  0.1579  0.3186
 2756ntf    cn114330   0.701   6.088   1.453  0.3284  0.2323  0.0041
 2756ntf    fn414331   0.473   5.595   1.354 -0.4075 -0.3677 -0.3876
 2756ntf    fn414332   0.391   5.747   1.241 -0.2998 -0.8064  0.2191
 2756ntf    fn414333   0.537   5.611   1.148  0.4246  0.3636 -0.0962
 2756ntf    on514334   0.725   5.665   1.363  0.1176 -0.5105 -0.5071
 2756ntf    on514335   0.689   5.858   1.206  0.3201  0.3800  0.3990
 2756ntf    on514336   0.463   6.019   1.563  0.0438  0.2415  0.1150
 2756ntf    on514337   0.480   6.046   1.319  0.1481  0.4269  0.5076
 2756ntf    fn414338   0.782   6.008   1.522 -0.2884 -0.4395 -0.0460
 2756ntf    fn414339   0.749   6.109   1.332  0.0787 -0.1984 -0.1703
 2756ntf    fn414340   0.701   6.204   1.517 -0.4288  0.0539  0.3371
 2757ntf    cn114341   6.573   1.769   1.502  0.3260  0.3290  0.3397
 2757ntf    sn214342   6.421   1.866   1.529  0.1962  0.2054  0.0613
 2757ntf    nn314343   6.350   1.841   1.391  0.0366  0.9229  0.0083
 2757ntf    sn214344   6.202   1.796   1.365  0.1965  0.3557  0.0624
 2757ntf    cn114345   6.213   1.614   1.358  0.0730  0.3427  0.2079
 2757ntf    fn414346   6.664   1.838   1.436  0.1622  0.4588  0.2477
 2757ntf    fn414347   6.629   1.716   1.609 -0.2773 -0.3149  0.3463
 2757ntf    fn414348   6.538   1.674   1.416  0.4614  0.3786  0.2300
 2757ntf    on514349   6.359   1.811   1.647  0.6256  0.5881  0.4708
 2757ntf    on514350   6.453   2.006   1.538 -0.5975  0.3928  0.0216
 2757ntf    on514351   6.152   1.833   1.235 -0.0776 -0.0808  0.0404
 2757ntf    on514352   6.112   1.816   1.475 -0.1202  0.0454 -0.1379
 2757ntf    fn414353   6.296   1.574   1.263 -0.0798  0.6933 -0.0768
 2757ntf    fn414354   6.258   1.568   1.474  0.1024  0.4434  0.2365
 2757ntf    fn414355   6.099   1.552   1.334  0.2111  0.0006  0.4340
 2758ntf    cn114356   4.411   3.606   2.896  0.2642 -0.2956  0.2851
 2758ntf    sn214357   4.239   3.656   2.863  0.2449 -0.5514 -0.0054
 2758ntf    nn314358   4.162   3.563   2.962 -0.1147  0.0023  0.2444
 2758ntf    sn214359   4.037   3.469   2.944  0.0227 -0.1805  0.2326
 2758ntf    cn114360   3.912   3.601   2.954 -0.1392 -0.2608 -0.6541
 2758ntf    fn414361   4.495   3.633   2.798 -0.4800 -0.0693 -0.3014
 2758ntf    fn414362   4.468   3.654   3.006 -0.2154 -0.1001  0.4528
 2758ntf    fn414363   4.421   3.475   2.908  0.1231 -0.3211  0.1320
 2758ntf    on514364   4.232   3.798   2.890 -0.1067 -0.5665 -0.0158
 2758ntf    on514365   4.225   3.612   2.727 -0.0991  0.0369 -0.1666
 2758ntf    on514366   4.021   3.369   3.047  0.2611 -0.3081  0.1461
 2758ntf    on514367   4.021   3.420   2.810  0.1786  0.1690  0.0836
 2758ntf    fn414368   3.902   3.644   3.079  0.3351  0.0797 -0.7285
 2758ntf    fn414369   3.938   3.715   2.892  0.4024 -0.0190  0.0093
 2758ntf    fn414370   3.786   3.571   2.926 -0.3069 -0.0889 -0.1040
 2759ntf    cn114371   3.403   6.012   4.651 -0.0572 -0.1705 -0.4812
 2759ntf    sn214372   3.536   6.133   4.678  0.1128 -0.3856 -0.3496
 2759ntf    nn314373   3.515   6.166   4.830  0.0453  0.6362 -0.5733
 2759ntf    sn214374   3.420   6.266   4.905  0.0067  0.0648  0.1472
 2759ntf    cn114375   3.533   6.338   5.028 -0.1258  0.1736  0.2043
 2759ntf    fn414376   3.391   5.923   4.748  0.0891  0.4611  0.1251
 2759ntf    fn414377   3.282   6.064   4.648  0.1013  0.2184 -0.1344
 2759ntf    fn414378   3.415   5.947   4.536  0.5193 -0.1290 -0.4494
 2759ntf    on514379   3.659   6.065   4.647  0.4395 -0.0944  0.2792
 2759ntf    on514380   3.491   6.238   4.589 -0.4351 -0.3511 -0.0363
 2759ntf    on514381   3.309   6.202   4.972 -0.0224  0.4974  0.5114
 2759ntf    on514382   3.383   6.378   4.823 -0.6330  0.0307  0.3842
 2759ntf    fn414383   3.568   6.262   5.131  0.1609 -0.7021 -0.5286
 2759ntf    fn414384   3.644   6.373   4.966  0.0626  0.1020  0.4991
 2759ntf    fn414385   3.487   6.453   5.074 -0.5452  0.3783 -0.7021
 2760ntf    cn114386   1.488   4.290   1.146 -0.0764  0.0877 -0.3045
 2760ntf    sn214387   1.470   4.398   1.291 -0.2874 -0.0927 -0.1944
 2760ntf    nn314388   1.314   4.414   1.296 -0.2846 -0.0827 -0.1462
 2760ntf    sn214389   1.224   4.541   1.275 -0.0751  0.1271  0.1981
 2760ntf    cn114390   1.094   4.462   1.176  0.0178  0.2898 -0.0557
 2760ntf    fn414391   1.460   4.346   1.029  0.4747  0.1711 -0.4008
 2760ntf    fn414392   1.615   4.255   1.135 -0.1234 -0.1664 -0.0509
 2760ntf    fn414393   1.417   4.179   1.162  0.4881 -0.2617 -0.1869
 2760ntf    on514394   1.513   4.308   1.394  0.2773  0.0159 -0.3276
 2760ntf    on514395   1.551   4.515   1.264 -0.4539  0.0287 -0.1707
 2760ntf    on514396   1.262   4.648   1.185  0.1567 -0.2250 -0.1271
 2760ntf    on514397   1.157   4.573   1.398 -0.5162  0.3458 -0.0957
 2760ntf    fn414398   1.008   4.545   1.119  0.1467  0.3975 -0.0939
 2760ntf    fn414399   1.134   4.384   1.077  0.0199 -0.2642  0.3754
 2760ntf    fn414400   1.027   4.386   1.261  0.1021  0.1722 -0.0951
 2761ntf    cn114401   5.417   6.229   1.217  0.1952 -0.0474 -0.2198
 2761ntf    sn214402   5.513   6.093   1.290 -0.0515 -0.0782  0.0470
 2761ntf    nn314403   5.502   5.978   1.184 -0.1425 -0.4070  0.4066
 2761ntf    sn214404   5.612   5.932   1.082 -0.3254  0.3894 -0.1619
 2761ntf    cn114405   5.520   5.887   0.931 -0.3694 -0.0501 -0.0059
 2761ntf    fn414406   5.294   6.197   1.178  0.0052  0.4631 -0.0459
 2761ntf    fn414407   5.395   6.329   1.301  0.1216 -0.2147 -0.0393
 2761ntf    fn414408   5.484   6.282   1.116  0.4331 -0.0096 -0.0434
 2761ntf    on514409   5.644   6.148   1.318  0.4487 -1.2501  0.0527
 2761ntf    on514410   5.435   6.069   1.409  0.1922 -0.2215  0.1784
 2761ntf    on514411   5.676   5.809   1.123 -0.1918  0.3982 -0.3391
 2761ntf    on514412   5.701   6.030   1.024  0.2100  0.0883  0.1393
 2761ntf    fn414413   5.468   5.996   0.876  0.1001  0.4606  0.5358
 2761ntf    fn414414   5.592   5.828   0.838  0.1046 -0.5479  0.6663
 2761ntf    fn414415   5.422   5.804   0.961 -0.5817  0.0552 -0.4057
 2762ntf    cn114416   4.905   6.328   4.816 -0.2288 -0.2579  0.1671
 2762ntf    sn214417   4.995   6.305   4.972 -0.1405 -0.0848  0.1420
 2762ntf    nn314418   4.894   6.199   5.029  0.5968 -0.7158  0.2984
 2762ntf    sn214419   4.851   6.161   5.175 -0.2299 -0.3807  0.1499
 2762ntf    cn114420   4.708   6.266   5.213  0.1706  0.1618  0.1721
 2762ntf    fn414421   4.913   6.221   4.738  0.4389 -0.2609  0.2309
 2762ntf    fn414422   4.779   6.364   4.827 -0.0845  0.1082  0.6824
 2762ntf    fn414423   4.959   6.427   4.746 -0.5085 -0.1798  0.0616
 2762ntf    on514424   5.122   6.238   4.954 -0.5127 -0.6945 -0.2509
 2762ntf    on514425   4.979   6.429   5.044  0.4557  0.2255 -0.2566
 2762ntf    on514426   4.950   6.185   5.278  0.2801 -0.3601 -0.3406
 2762ntf    on514427   4.793   6.029   5.173 -0.6362 -0.1924 -0.5035
 2762ntf    fn414428   4.618   6.253   5.116  0.1951 -0.2531  0.2008
 2762ntf    fn414429   4.646   6.229   5.324 -0.2173 -0.5914 -0.2862
 2762ntf    fn414430   4.737   6.393   5.235 -0.3686  0.3375 -0.1090
 2763ntf    cn114431   6.507   4.148   0.739 -0.1034  0.0754  0.1510
 2763ntf    sn214432   6.514   4.327   0.773 -0.3031  0.1158 -0.0163
 2763ntf    nn314433   6.611   4.372   0.659 -0.1021 -0.1790  0.0374
 2763ntf    sn214434   6.731   4.473   0.657  0.0497 -0.3559  0.1168
 2763ntf    cn114435   6.721   4.563   0.499  0.2444 -0.0057  0.3025
 2763ntf    fn414436   6.398   4.093   0.790  0.0921 -0.2863  0.1816
 2763ntf    fn414437   6.508   4.120   0.609  0.6309 -0.2462  0.2194
 2763ntf    fn414438   6.605   4.079   0.795 -0.3579  0.1149  0.6443
 2763ntf    on514439   6.378   4.375   0.765 -0.2921  0.2815  0.7191
 2763ntf    on514440   6.568   4.322   0.907 -0.5710 -0.2658  0.0819
 2763ntf    on514441   6.859   4.408   0.650  0.1775 -0.1334  0.3535
 2763ntf    on514442   6.718   4.583   0.749  0.0781  0.1494 -0.4723
 2763ntf    fn414443   6.608   4.631   0.489  0.5043  0.4602  0.4742
 2763ntf    fn414444   6.816   4.655   0.493 -0.2608  0.4765 -0.5176
 2763ntf    fn414445   6.717   4.484   0.394  0.1027 -0.0769  0.3608
 2764ntf    cn114446   2.999   4.333   1.968  0.0195 -0.1148  0.0175
 2764ntf    sn214447   2.886   4.347   2.110 -0.2272  0.0084 -0.1904
 2764ntf    nn314448   2.980   4.439   2.197  0.6045 -0.8095 -0.2031
 2764ntf    sn214449   3.008   4.456   2.350  0.0202  0.0136 -0.1813
 2764ntf    cn114450   3.145   4.342   2.386  0.0028 -0.0277 -0.2464
 2764ntf    fn414451   2.953   4.264   1.865 -0.1833 -0.2332  0.1869
 2764ntf    fn414452   3.016   4.454   1.919 -0.2241 -0.1147 -0.0625
 2764ntf    fn414453   3.117   4.281   1.998  0.1164 -0.1254 -0.3823
 2764ntf    on514454   2.771   4.422   2.067 -0.6756 -0.3297  0.3985
 2764ntf    on514455   2.878   4.209   2.149 -0.4328 -0.0472 -0.4311
 2764ntf    on514456   2.894   4.419   2.429 -0.1411 -0.3735 -0.5984
 2764ntf    on514457   3.073   4.580   2.386  0.0655 -0.1025  0.1439
 2764ntf    fn414458   3.160   4.355   2.517 -0.0113  0.3201 -0.2775
 2764ntf    fn414459   3.109   4.216   2.366 -0.3316 -0.0025  0.1673
 2764ntf    fn414460   3.264   4.364   2.333  0.0865 -0.0918 -0.0851
 2765ntf    cn114461   3.930   3.142   4.938  0.3988  0.0468  0.0933
 2765ntf    sn214462   3.885   2.986   5.021  0.2737  0.0541  0.0379
 2765ntf    nn314463   3.965   2.877   4.941  0.1304  0.2902 -0.4308
 2765ntf    sn214464   4.080   2.793   5.007 -0.2536  0.0795 -0.0281
 2765ntf    cn114465   4.124   2.685   4.868  0.1225 -0.0775  0.2128
 2765ntf    fn414466   4.052   3.186   4.966  0.4533 -0.2845  0.3983
 2765ntf    fn414467   3.920   3.143   4.807  0.4173  0.6397  0.0965
 2765ntf    fn414468   3.848   3.236   4.981 -0.3413 -0.5092 -0.0690
 2765ntf    on514469   3.918   3.007   5.159 -0.4068  0.0907  0.1995
 2765ntf    on514470   3.744   2.972   4.992  0.1564  0.5183  0.3848
 2765ntf    on514471   4.048   2.703   5.115 -0.1139  0.2707  0.1758
 2765ntf    on514472   4.202   2.869   5.020 -0.0208 -0.2791 -0.1155
 2765ntf    fn414473   4.198   2.748   4.779  0.0861 -0.3143  0.0132
 2765ntf    fn414474   4.207   2.587   4.902  0.2550 -0.0732 -0.0984
 2765ntf    fn414475   4.018   2.641   4.803  0.1775  0.1890 -0.0596
 2766ntf    cn114476   4.670   1.929   4.897  0.3471 -0.3077  0.1450
 2766ntf    sn214477   4.792   2.064   4.888 -0.0104  0.0258  0.2815
 2766ntf    nn314478   4.740   2.147   4.766  0.1553  0.2022  0.3313
 2766ntf    sn214479   4.617   2.245   4.762  0.2008  0.2547  0.1531
 2766ntf    cn114480   4.696   2.408   4.777  0.1189  0.3128 -0.0493
 2766ntf    fn414481   4.560   1.977   4.953  0.2624 -1.0645  0.6315
 2766ntf    fn414482   4.631   1.878   4.781 -0.4407  0.4642  0.0622
 2766ntf    fn414483   4.709   1.826   4.971 -0.0865 -0.5369  0.0558
 2766ntf    on514484   4.787   2.130   5.016 -0.0461  0.0656  0.2595
 2766ntf    on514485   4.911   1.990   4.855 -0.3908 -0.4197 -0.1207
 2766ntf    on514486   4.525   2.240   4.873 -0.1824  0.5683 -0.1499
 2766ntf    on514487   4.548   2.250   4.636  0.0552  0.2109  0.2303
 2766ntf    fn414488   4.805   2.417   4.702  0.1019 -0.2954 -0.1535
 2766ntf    fn414489   4.607   2.503   4.757 -0.2662  0.1328  0.7752
 2766ntf    fn414490   4.741   2.428   4.900  0.2032 -0.3091  0.0279
 2767ntf    cn114491   1.147   0.637   0.153 -0.1669  0.0962  0.2531
 2767ntf    sn214492   1.208   0.806   0.180  0.4530 -0.0321 -0.3178
 2767ntf    nn314493   1.210   0.821   0.336 -0.3347  0.4737 -0.3503
 2767ntf    sn214494   1.133   0.924   0.426 -0.1754  0.1778  0.1320
 2767ntf    cn114495   0.986   0.827   0.472 -0.2904  0.3224  0.0668
 2767ntf    fn414496   1.224   0.544   0.208  0.0278 -0.0106 -0.1947
 2767ntf    fn414497   1.030   0.617   0.212 -0.2248 -0.0805  0.0808
 2767ntf    fn414498   1.140   0.619   0.022  0.6102 -0.2384  0.2499
 2767ntf    on514499   1.341   0.794   0.124  0.4211  0.5823 -0.5349
 2767ntf    on514500   1.119   0.891   0.105  0.3975 -0.1396 -0.3736
 2767ntf    on514501   1.102   1.049   0.361 -0.0523 -0.1624 -0.5929
 2767ntf    on514502   1.191   0.939   0.557  0.3593 -0.4438 -0.0273
 2767ntf    fn414503   0.889   0.826   0.381 -0.1918  0.6862 -0.0450
 2767ntf    fn414504   1.016   0.700   0.492 -0.6356  0.1678 -0.3517
 2767ntf    fn414505   0.937   0.885   0.581 -0.1544  0.8611 -0.1543
 2768ntf    cn114506   2.465   5.264   4.972  0.1582  0.1207 -0.0203
 2768ntf    sn214507   2.406   5.208   5.134  0.0885  0.1915 -0.0211
 2768ntf    nn314508   2.524   5.108   5.161  0.1064  0.1840 -0.1264
 2768ntf    sn214509   2.650   5.112   5.254  0.0508  0.2499 -0.0545
 2768ntf    cn114510   2.629   4.974   5.372 -0.1189  0.3371  0.0163
 2768ntf    fn414511   2.565   5.350   4.982  0.0971  0.2430 -0.4134
 2768ntf    fn414512   2.482   5.154   4.901 -0.5399 -0.0352  0.0443
 2768ntf    fn414513   2.375   5.327   4.898 -0.0402  0.2817  0.3539
 2768ntf    on514514   2.414   5.332   5.208  0.7097  0.2306 -0.1479
 2768ntf    on514515   2.280   5.147   5.099  0.5019 -0.6066 -0.1391
 2768ntf    on514516   2.666   5.226   5.340 -0.0268  0.1793  0.0552
 2768ntf    on514517   2.771   5.074   5.185  0.0715 -0.0629  0.1504
 2768ntf    fn414518   2.624   4.854   5.316  0.1891  0.0312  0.6466
 2768ntf    fn414519   2.729   4.965   5.458 -0.2208  0.1750  0.1177
 2768ntf    fn414520   2.518   4.993   5.441  0.2546  0.2461  0.6398
 2769ntf    cn114521   6.438   5.662   0.033  0.0255  0.0573 -0.1534
 2769ntf    sn214522   6.294   5.761   0.082 -0.1773 -0.3855  0.1461
 2769ntf    nn314523   6.190   5.655   0.134 -0.4498 -0.4357 -0.4894
 2769ntf    sn214524   6.096   5.650   0.260  0.2043 -0.4302  0.0074
 2769ntf    cn114525   6.213   5.583   0.381  0.1069 -0.0415  0.3178
 2769ntf    fn414526   6.401   5.559  -0.042  0.5182 -0.1163 -0.1621
 2769ntf    fn414527   6.526   5.735  -0.034  0.0315  0.0803 -0.1209
 2769ntf    fn414528   6.515   5.607   0.126 -0.0278  0.2295 -0.0070
 2769ntf    on514529   6.355   5.844   0.183  0.8663 -0.5089 -0.3659
 2769ntf    on514530   6.242   5.828  -0.034 -0.0037 -0.4918  0.0064
 2769ntf    on514531   6.004   5.541   0.240 -0.3789 -0.0148  0.4070
 2769ntf    on514532   6.044   5.776   0.307  0.2642 -0.2546 -0.3891
 2769ntf    fn414533   6.179   5.586   0.509  0.2513  0.1092  0.3525
 2769ntf    fn414534   6.244   5.457   0.356  0.4936  0.1014  0.0689
 2769ntf    fn414535   6.329   5.647   0.376 -0.0629  0.2389 -0.0118
 2770ntf    cn114536   0.770   4.230   3.798 -0.1913  0.2342 -0.3740
 2770ntf    sn214537   0.697   4.334   3.668 -0.3461  0.5531 -0.0334
 2770ntf    nn314538   0.628   4.442   3.759 -0.8717  0.1951  0.0015
 2770ntf    sn214539   0.683   4.583   3.802  0.0894 -0.0381 -0.4344
 2770ntf    cn114540   0.539   4.689   3.774  0.1258  0.2386  0.4004
 2770ntf    fn414541   0.711   4.239   3.916 -0.1830  0.5357 -0.3919
 2770ntf    fn414542   0.781   4.104   3.761  0.0383  0.0746  0.2321
 2770ntf    fn414543   0.892   4.274   3.825  0.0086 -0.2034 -0.5495
 2770ntf    on514544   0.802   4.386   3.584 -0.2368  0.2582 -0.0787
 2770ntf    on514545   0.611   4.235   3.608  0.3596  0.0901 -0.2900
 2770ntf    on514546   0.780   4.638   3.711  0.0187  0.1669 -0.3866
 2770ntf    on514547   0.702   4.586   3.945 -0.9230 -0.1219 -0.2900
 2770ntf    fn414548   0.495   4.676   3.650  0.1187  0.0276  0.4251
 2770ntf    fn414549   0.439   4.669   3.859 -0.1595  0.2420  0.0681
 2770ntf    fn414550   0.572   4.818   3.775  0.1791  0.2254  0.3301
 2771ntf    cn114551   6.335   4.145   3.384 -0.1142  0.1338 -0.1511
 2771ntf    sn214552   6.422   3.999   3.318  0.1356  0.2553 -0.0905
 2771ntf    nn314553   6.332   3.970   3.193  0.1967  0.4478 -0.1796
 2771ntf    sn214554   6.323   3.829   3.125 -0.1292  0.2204  0.3257
 2771ntf    cn114555   6.164   3.777   3.195 -0.0272 -0.2726  0.1948
 2771ntf    fn414556   6.423   4.227   3.439 -0.1059 -0.0656  0.1360
 2771ntf    fn414557   6.263   4.207   3.292  0.5114  0.7736 -0.2177
 2771ntf    fn414558   6.250   4.116   3.481  0.5473 -0.4975  0.2531
 2771ntf    on514559   6.551   4.056   3.288  0.1126  0.1216 -0.4558
 2771ntf    on514560   6.404   3.909   3.429 -0.1305  0.4939  0.0617
 2771ntf    on514561   6.400   3.719   3.178 -0.1024  0.0744 -0.0093
 2771ntf    on514562   6.308   3.842   2.982  0.1789 -0.4610  0.2281
 2771ntf    fn414563   6.147   3.787   3.325  0.0820  0.7235  0.1373
 2771ntf    fn414564   6.071   3.852   3.140 -0.3489 -0.6396  0.2321
 2771ntf    fn414565   6.125   3.652   3.173 -0.7866 -0.0095  0.0132
 2772ntf    cn114566   5.158   0.714   2.936 -0.2910 -0.1416 -0.0713
 2772ntf    sn214567   4.981   0.741   2.968 -0.2568  0.2194 -0.1789
 2772ntf    nn314568   4.918   0.777   2.828 -0.0178 -0.1158 -0.3750
 2772ntf    sn214569   4.792   0.719   2.755 -0.0871 -0.1072 -0.2624
 2772ntf    cn114570   4.663   0.813   2.841 -0.0883 -0.1699 -0.1953
 2772ntf    fn414571   5.212   0.790   2.842 -0.0226 -0.6510 -0.3282
 2772ntf    fn414572   5.235   0.729   3.043 -0.1517 -0.4539 -0.1281
 2772ntf    fn414573   5.178   0.591   2.894  0.3961 -0.1190  0.1766
 2772ntf    on514574   4.925   0.620   3.023  0.0994  0.1366  0.0056
 2772ntf    on514575   4.983   0.865   3.040 -0.4688  0.1013  0.0305
 2772ntf    on514576   4.756   0.583   2.787 -0.9013  0.0254 -0.6074
 2772ntf    on514577   4.796   0.757   2.616  0.2299 -0.3310 -0.3165
 2772ntf    fn414578   4.678   0.941   2.813 -0.1833 -0.2991 -0.8341
 2772ntf    fn414579   4.542   0.770   2.807 -0.3652  0.2550  0.2354
 2772ntf    fn414580   4.681   0.807   2.972  0.3691  0.3945 -0.2268
 2773ntf    cn114581   3.355   6.373   6.354  0.1155 -0.1269  0.2203
 2773ntf    sn214582   3.378   6.551   6.325 -0.2005 -0.1532 -0.2028
 2773ntf    nn314583   3.249   6.585   6.242  0.1667  0.8804 -0.3667
 2773ntf    sn214584   3.111   6.642   6.291 -0.1093 -0.1224  0.0611
 2773ntf    cn114585   3.154   6.815   6.252 -0.0885 -0.2129 -0.3256
 2773ntf    fn414586   3.236   6.353   6.410 -0.2055 -0.0254 -0.4201
 2773ntf    fn414587   3.357   6.292   6.250  0.4634 -0.6748  0.6495
 2773ntf    fn414588   3.440   6.328   6.445  0.1813  0.1613  0.3031
 2773ntf    on514589   3.397   6.614   6.454  0.3301 -0.7617  0.0211
 2773ntf    on514590   3.495   6.544   6.241 -0.4079 -0.1328 -0.4959
 2773ntf    on514591   3.073   6.640   6.430  0.5311 -0.5669  0.2327
 2773ntf    on514592   3.003   6.616   6.198 -0.3058  0.3661  0.1507
 2773ntf    fn414593   3.192   6.824   6.126  0.1687 -0.3364 -0.2563
 2773ntf    fn414594   3.058   6.904   6.269 -0.1295 -0.2510 -0.3588
 2773ntf    fn414595   3.253   6.857   6.329 -0.1105 -0.5534 -0.1090
 2774ntf    cn114596   3.321   1.395   4.669  0.0402 -0.0293  0.0567
 2774ntf    sn214597   3.148   1.390   4.723 -0.0405  0.3024 -0.1634
 2774ntf    nn314598   3.087   1.298   4.611 -0.0643  0.3167 -0.1623
 2774ntf    sn214599   2.933   1.281   4.586 -0.0797 -0.0347  0.1652
 2774ntf    cn114600   2.906   1.117   4.660 -0.1095 -0.0122  0.2050
 2774ntf    fn414601   3.332   1.418   4.539  0.4167  0.3182  0.1463
 2774ntf    fn414602   3.381   1.489   4.740 -0.1706  0.0491  0.1330
 2774ntf    fn414603   3.381   1.282   4.701 -0.3945 -0.3759 -0.3322
 2774ntf    on514604   3.149   1.325   4.852  0.2150 -0.1464 -0.3899
 2774ntf    on514605   3.107   1.528   4.717  0.4679  0.4814  0.4054
 2774ntf    on514606   2.892   1.267   4.449  0.3416 -0.6971  0.1025
 2774ntf    on514607   2.844   1.368   4.660 -0.0922  0.3679 -0.3229
 2774ntf    fn414608   2.976   1.026   4.594  0.2937  0.5387 -0.1388
 2774ntf    fn414609   2.944   1.114   4.787  0.4288  0.8470  0.0757
 2774ntf    fn414610   2.781   1.074   4.663 -0.2712  0.4258 -0.1804
 2775ntf    cn114611   1.801   1.513   6.454 -0.3792  0.5360 -0.0449
 2775ntf    sn214612   1.974   1.531   6.399 -0.2799  0.1874  0.1481
 2775ntf    nn314613   2.035   1.609   6.520  0.2183 -0.2875  0.2054
 2775ntf    sn214614   2.147   1.718   6.525 -0.1337  0.0892 -0.1060
 2775ntf    cn114615   2.050   1.862   6.579 -0.3096 -0.1041  0.0936
 2775ntf    fn414616   1.747   1.632   6.468 -0.5736  0.4262  0.1377
 2775ntf    fn414617   1.734   1.439   6.366 -0.1717  0.0490  0.2011
 2775ntf    fn414618   1.800   1.448   6.569 -0.2202  0.4934 -0.0666
 2775ntf    on514619   2.031   1.399   6.386  0.1456  0.4300 -0.4579
 2775ntf    on514620   1.952   1.609   6.280  0.0675 -0.3545 -0.2781
 2775ntf    on514621   2.194   1.761   6.395 -0.1427  0.4972  0.0212
 2775ntf    on514622   2.250   1.705   6.625 -0.4357  0.1784  0.2166
 2775ntf    fn414623   2.129   1.957   6.627  0.1594 -0.0600 -0.7380
 2775ntf    fn414624   1.974   1.916   6.485  0.1373  0.7239  0.1994
 2775ntf    fn414625   1.968   1.831   6.678  0.2654  0.0402  0.6188
 2776ntf    cn114626   6.235   4.762   4.603  0.0171  0.0016  0.5099
 2776ntf    sn214627   6.410   4.781   4.558 -0.1627 -0.1281 -0.2537
 2776ntf    nn314628   6.421   4.740   4.407 -0.2351 -0.1992 -0.2394
 2776ntf    sn214629   6.441   4.828   4.278 -0.3119 -0.1020 -0.1849
 2776ntf    cn114630   6.324   4.741   4.170  0.0019 -0.2805 -0.3798
 2776ntf    fn414631   6.203   4.810   4.722  0.2116  0.6356  0.3102
 2776ntf    fn414632   6.160   4.819   4.511 -0.0443 -0.0283  0.5408
 2776ntf    fn414633   6.202   4.634   4.603 -0.3380  0.0900  0.0953
 2776ntf    on514634   6.437   4.920   4.589  0.3514 -0.3224  0.1829
 2776ntf    on514635   6.469   4.691   4.654 -0.1549 -0.7245 -0.8105
 2776ntf    on514636   6.567   4.809   4.211 -0.0239  0.0335  0.3143
 2776ntf    on514637   6.391   4.964   4.273 -0.0249  0.0091 -0.0588
 2776ntf    fn414638   6.202   4.727   4.220 -0.0064 -0.0779 -0.3442
 2776ntf    fn414639   6.315   4.783   4.045  0.1123  0.1659 -0.2363
 2776ntf    fn414640   6.366   4.616   4.156 -0.1102 -0.2648 -0.8619
 2777ntf    cn114641   2.160   5.359   6.697  0.6161 -0.1139  0.3859
 2777ntf    sn214642   2.315   5.363   6.603  0.1198  0.0409 -0.4401
 2777ntf    nn314643   2.277   5.454   6.481 -0.5840  0.1670 -0.1285
 2777ntf    sn214644   2.337   5.462   6.336 -0.3057 -0.1302 -0.0283
 2777ntf    cn114645   2.195   5.382   6.255 -0.0626 -0.5238 -0.0676
 2777ntf    fn414646   2.107   5.479   6.714  0.2054 -0.2570  0.1307
 2777ntf    fn414647   2.068   5.286   6.634  0.4519  0.6280 -0.2581
 2777ntf    fn414648   2.178   5.304   6.816  0.3120 -0.5456  0.2337
 2777ntf    on514649   2.404   5.431   6.693 -0.1646 -0.4828  0.2493
 2777ntf    on514650   2.336   5.226   6.563 -0.3771 -0.1639 -0.0005
 2777ntf    on514651   2.446   5.369   6.315  0.0302  0.4058 -0.6608
 2777ntf    on514652   2.341   5.594   6.279  0.0732  0.0211  0.3421
 2777ntf    fn414653   2.215   5.388   6.124 -0.3457  0.2058 -0.0821
 2777ntf    fn414654   2.177   5.256   6.291 -0.3787 -0.4495  0.0331
 2777ntf    fn414655   2.078   5.441   6.271  0.1828 -0.0750  0.0946
 2778ntf    cn114656   0.828   6.559   0.333 -0.0054  0.5161 -0.1212
 2778ntf    sn214657   0.972   6.639   0.408  0.3103 -0.1652  0.0036
 2778ntf    nn314658   0.992   6.755   0.305  0.6491 -0.0951  0.1438
 2778ntf    sn214659   1.087   6.749   0.180  0.2395 -0.0468 -0.1743
 2778ntf    cn114660   1.240   6.803   0.262  0.1490  0.0264 -0.0519
 2778ntf    fn414661   0.725   6.642   0.345 -0.0688  0.4173  0.0328
 2778ntf    fn414662   0.840   6.521   0.207  0.2050  0.0612  0.0347
 2778ntf    fn414663   0.782   6.450   0.392  0.0508  0.4913 -0.1236
 2778ntf    on514664   0.914   6.692   0.529  0.0152 -0.2749 -0.0909
 2778ntf    on514665   1.083   6.546   0.416  0.6453  0.2456  0.1925
 2778ntf    on514666   1.062   6.855   0.085 -0.2590  0.0146  0.0208
 2778ntf    on514667   1.097   6.616   0.125  0.1416 -0.2822  0.3682
 2778ntf    fn414668   1.339   6.817   0.175  0.0984 -0.1876 -0.1441
 2778ntf    fn414669   1.221   6.920   0.320 -0.8094 -0.2758  0.2565
 2778ntf    fn414670   1.279   6.717   0.355 -0.0521  0.2412  0.2323
 2779ntf    cn114671   0.298   6.092   5.462 -0.0195 -0.0968  0.1703
 2779ntf    sn214672   0.410   6.169   5.341  0.0236  0.2039  0.4005
 2779ntf    nn314673   0.537   6.077   5.354 -0.0611  0.0786  0.3420
 2779ntf    sn214674   0.633   6.064   5.477  0.0766 -0.0894  0.2183
 2779ntf    cn114675   0.784   6.108   5.386 -0.0593  0.1098  0.0885
 2779ntf    fn414676   0.340   6.116   5.585  0.6117 -0.7625  0.0876
 2779ntf    fn414677   0.173   6.136   5.460 -0.0640 -0.2387 -0.2072
 2779ntf    fn414678   0.294   5.961   5.451 -0.5274 -0.1253  0.6789
 2779ntf    on514679   0.336   6.150   5.219  0.4073  0.3800  0.1388
 2779ntf    on514680   0.425   6.299   5.401  0.8698  0.1674  0.2851
 2779ntf    on514681   0.649   5.926   5.516  0.1845 -0.0159  0.4378
 2779ntf    on514682   0.629   6.163   5.582  0.2117 -0.1317  0.2637
 2779ntf    fn414683   0.808   6.034   5.279 -0.2298 -0.0139  0.1346
 2779ntf    fn414684   0.776   6.233   5.344  0.2516  0.0589 -0.1220
 2779ntf    fn414685   0.894   6.095   5.459 -0.2278 -0.3414  0.2636
 2780ntf    cn114686   3.608   3.417   2.382  0.0028  0.2823  0.1305
 2780ntf    sn214687   3.616   3.295   2.248  0.1486  0.5928 -0.1463
 2780ntf    nn314688   3.526   3.183   2.311 -0.0959  0.6387 -0.4136
 2780ntf    sn214689   3.375   3.152   2.282  0.1209 -0.3996 -0.4638
 2780ntf    cn114690   3.397   3.019   2.160  0.5202 -0.5830 -0.1936
 2780ntf    fn414691   3.656   3.530   2.331  0.2262  0.1958  0.1482
 2780ntf    fn414692   3.488   3.448   2.429  0.1474  0.5434  0.3287
 2780ntf    fn414693   3.691   3.385   2.479 -0.1541 -0.0814  0.1455
 2780ntf    on514694   3.561   3.367   2.136 -0.4059  0.1218 -0.1827
 2780ntf    on514695   3.756   3.259   2.245  0.2106  0.8585 -0.5768
 2780ntf    on514696   3.301   3.250   2.207 -0.4031 -0.6317 -0.2573
 2780ntf    on514697   3.311   3.081   2.391  0.0964  0.3796  0.0385
 2780ntf    fn414698   3.466   3.056   2.053  0.4535  0.1340  0.0011
 2780ntf    fn414699   3.471   2.928   2.221  0.5898  0.1292  0.8033
 2780ntf    fn414700   3.280   2.968   2.127  0.4723 -0.5807 -0.0276
 2781ntf    cn114701   0.008   0.845   0.050 -0.0815 -0.0779 -0.2652
 2781ntf    sn214702  -0.127   0.779   0.151 -0.1299  0.2713 -0.0999
 2781ntf    nn314703  -0.180   0.912   0.215  0.1207  0.2352  0.1848
 2781ntf    sn214704  -0.154   0.961   0.362  0.0817 -0.1673  0.3252
 2781ntf    cn114705  -0.295   0.895   0.457 -0.5020  0.1560 -0.3126
 2781ntf    fn414706  -0.037   0.941  -0.029 -0.1953 -0.0268 -0.1383
 2781ntf    fn414707   0.111   0.893   0.117 -0.0897 -0.3584 -0.0523
 2781ntf    fn414708   0.060   0.749  -0.024 -0.0976 -0.6254  0.4229
 2781ntf    on514709  -0.221   0.728   0.054  0.0468 -0.6757  0.2128
 2781ntf    on514710  -0.069   0.679   0.237  0.4209 -0.1471 -0.9465
 2781ntf    on514711  -0.168   1.104   0.360 -0.3523 -0.2091  0.2431
 2781ntf    on514712  -0.036   0.919   0.434  0.1806  0.2136  0.3882
 2781ntf    fn414713  -0.279   0.933   0.583 -0.7881 -0.2624 -0.1485
 2781ntf    fn414714  -0.412   0.939   0.413 -0.4596 -0.1750 -0.7607
 2781ntf    fn414715  -0.299   0.763   0.459 -0.2507  0.1507 -0.1333
 2782ntf    cn114716   5.980   0.351   1.030 -0.0020  0.2450  0.1479
 2782ntf    sn214717   5.872   0.497   1.043 -0.1866  0.1262 -0.0372
 2782ntf    nn314718   5.736   0.418   1.032  0.1771 -0.5404  0.1778
 2782ntf    sn214719   5.631   0.412   1.148 -0.0557  0.3461  0.0248
 2782ntf    cn114720   5.536   0.261   1.110 -0.3466  0.5616 -0.1089
 2782ntf    fn414721   5.941   0.262   0.940  0.1172  0.8499 -0.5114
 2782ntf    fn414722   6.103   0.385   0.997 -0.0485  0.1757 -0.1012
 2782ntf    fn414723   5.992   0.283   1.143  0.0666  0.0908  0.0497
 2782ntf    on514724   5.905   0.563   1.166 -0.0863 -0.1947  0.1086
 2782ntf    on514725   5.903   0.574   0.925  0.5274 -0.0297  0.0452
 2782ntf    on514726   5.534   0.518   1.143  0.2631  0.6179 -0.3804
 2782ntf    on514727   5.686   0.372   1.275 -0.2708  0.1385  0.0551
 2782ntf    fn414728   5.618   0.158   1.098 -0.3401  0.5819 -0.2398
 2782ntf    fn414729   5.440   0.227   1.195 -0.1956 -0.1012 -0.1987
 2782ntf    fn414730   5.475   0.260   0.993 -0.0761  0.1664 -0.2494
 2783ntf    cn114731   3.712   1.546   4.167  0.0517 -0.2288  0.1321
 2783ntf    sn214732   3.870   1.569   4.079 -0.0183 -0.5612 -0.0839
 2783ntf    nn314733   3.961   1.528   4.200 -0.1664  0.2140  0.2976
 2783ntf    sn214734   4.011   1.383   4.231  0.0702  0.1600 -0.3305
 2783ntf    cn114735   4.162   1.385   4.129  0.0144 -0.0218 -0.4174
 2783ntf    fn414736   3.693   1.639   4.259 -0.2659 -0.5151  0.3576
 2783ntf    fn414737   3.609   1.564   4.085  0.6223 -0.0160 -0.5535
 2783ntf    fn414738   3.704   1.425   4.219  0.6353 -0.4945 -0.3767
 2783ntf    on514739   3.870   1.483   3.964 -0.2012 -0.0752 -0.4508
 2783ntf    on514740   3.872   1.711   4.053  0.1709 -0.6007 -0.2840
 2783ntf    on514741   3.929   1.275   4.180  0.5851  0.1350 -1.1266
 2783ntf    on514742   4.063   1.375   4.365 -0.2623 -0.0501 -0.2115
 2783ntf    fn414743   4.219   1.266   4.129 -0.2840 -0.1687  0.1722
 2783ntf    fn414744   4.133   1.407   4.002 -0.6927  0.3460 -0.1981
 2783ntf    fn414745   4.247   1.477   4.172  0.5596 -0.7528  0.0883
 2784ntf    cn114746   6.853   2.903   3.211  0.3355  0.0610  0.1370
 2784ntf    sn214747   6.815   2.725   3.210 -0.0856  0.1521 -0.0462
 2784ntf    nn314748   6.926   2.670   3.114  0.1555  0.1924  0.2088
 2784ntf    sn214749   7.070   2.612   3.139  0.2063  0.2872  0.1350
 2784ntf    cn114750   7.171   2.706   3.020 -0.1279  0.5514  0.0600
 2784ntf    fn414751   6.983   2.923   3.228  0.4104  0.2543 -0.5917
 2784ntf    fn414752   6.828   2.965   3.096  0.7991  0.0284  0.0157
 2784ntf    fn414753   6.782   2.970   3.300 -0.4489  0.1365 -0.5334
 2784ntf    on514754   6.822   2.692   3.350  0.0807  0.1422 -0.0564
 2784ntf    on514755   6.683   2.726   3.151 -0.0946 -0.4447 -0.0445
 2784ntf    on514756   7.088   2.476   3.093 -0.0160  0.2107  0.2729
 2784ntf    on514757   7.127   2.642   3.268 -0.3080  0.0225  0.4268
 2784ntf    fn414758   7.296   2.666   3.016 -0.1027  0.6511 -0.1532
 2784ntf    fn414759   7.122   2.707   2.897  0.0300 -0.2583 -0.0113
 2784ntf    fn414760   7.181   2.833   3.056 -0.4326  0.5103  0.2996
 2785ntf    cn114761   2.960   1.550   0.882  0.3819  0.1711  0.3461
 2785ntf    sn214762   2.789   1.573   0.938  0.2421  0.2008 -0.0906
 2785ntf    nn314763   2.726   1.463   0.846  0.3603 -0.1429  0.2399
 2785ntf    sn214764   2.666   1.467   0.701  0.3306  0.1891  0.2624
 2785ntf    cn114765   2.494   1.414   0.727  0.3548  0.0168  0.0738
 2785ntf    fn414766   2.986   1.595   0.760  0.2463  0.3061  0.3675
 2785ntf    fn414767   3.046   1.607   0.964  0.7475  0.6429 -0.3563
 2785ntf    fn414768   2.986   1.420   0.883  0.0523  0.1001 -0.0865
 2785ntf    on514769   2.790   1.550   1.080 -0.0753  0.0655 -0.1078
 2785ntf    on514770   2.760   1.709   0.898  0.5332  0.1548 -0.4653
 2785ntf    on514771   2.714   1.359   0.619 -0.3645  0.0839 -0.0202
 2785ntf    on514772   2.640   1.596   0.642 -0.2862  0.2550  0.6646
 2785ntf    fn414773   2.423   1.433   0.617  0.4950 -0.3371 -0.0784
 2785ntf    fn414774   2.480   1.288   0.765  0.1695  0.0476  0.1113
 2785ntf    fn414775   2.445   1.489   0.825  0.1746 -0.2802  0.2136
 2786ntf    cn114776   2.370   4.927   1.414  0.0627 -0.1859 -0.3777
 2786ntf    sn214777   2.223   4.847   1.485  0.1938  0.3039  0.4573
 2786ntf    nn314778   2.240   4.706   1.417 -0.0054  0.4842  0.0283
 2786ntf    sn214779   2.311   4.575   1.467 -0.2905  0.1948 -0.3208
 2786ntf    cn114780   2.168   4.480   1.525 -0.0220 -0.0948 -0.1302
 2786ntf    fn414781   2.480   4.868   1.457  0.0209 -0.3403 -0.4829
 2786ntf    fn414782   2.372   4.928   1.281  0.4306 -0.1813 -0.3718
 2786ntf    fn414783   2.395   5.050   1.457 -0.4932 -0.0335 -0.4784
 2786ntf    on514784   2.245   4.856   1.627  0.3997  0.0194  0.4455
 2786ntf    on514785   2.108   4.917   1.433 -0.1009  0.2701  1.0597
 2786ntf    on514786   2.392   4.585   1.586  0.0208 -0.9945 -0.4218
 2786ntf    on514787   2.366   4.500   1.356  0.1168 -0.3852  0.2637
 2786ntf    fn414788   2.085   4.454   1.426  0.2682 -0.1562 -0.3566
 2786ntf    fn414789   2.197   4.365   1.584 -0.3408  0.0939  0.4042
 2786ntf    fn414790   2.092   4.547   1.611  0.3999  0.2610 -0.0328
 2787ntf    cn114791   3.422   1.551   3.254  0.3670 -0.4119 -0.1127
 2787ntf    sn214792   3.548   1.477   3.145  0.5895  0.0833 -0.1912
 2787ntf    nn314793   3.665   1.537   3.231  0.1231  0.2545  0.3305
 2787ntf    sn214794   3.802   1.591   3.175 -0.0343  0.1955 -0.1173
 2787ntf    cn114795   3.924   1.507   3.280  0.1375  0.3646 -0.1826
 2787ntf    fn414796   3.434   1.514   3.380 -0.2266 -0.0745  0.0422
 2787ntf    fn414797   3.412   1.682   3.262 -0.1698 -0.4373 -0.3425
 2787ntf    fn414798   3.299   1.520   3.215  0.2193 -0.6138  0.5035
 2787ntf    on514799   3.529   1.335   3.155  0.0767  0.1132 -0.6588
 2787ntf    on514800   3.534   1.538   3.015 -0.3063 -0.4299 -0.3401
 2787ntf    on514801   3.835   1.730   3.190  0.2055  0.1652 -0.3664
 2787ntf    on514802   3.828   1.542   3.042  0.3923  0.7517 -0.2391
 2787ntf    fn414803   3.922   1.540   3.408  0.1527 -0.0261 -0.0792
 2787ntf    fn414804   3.913   1.376   3.273 -0.2735  0.3696  0.2692
 2787ntf    fn414805   4.050   1.534   3.248  0.3259  0.1173  0.3324
 2788ntf    cn114806   3.178   4.470   3.945  0.4779 -0.0323 -0.0768
 2788ntf    sn214807   3.101   4.408   3.792 -0.0424  0.1071  0.1244
 2788ntf    nn314808   3.084   4.545   3.716  0.1867 -0.0728 -0.2538
 2788ntf    sn214809   2.952   4.595   3.649  0.2294  0.1405 -0.1794
 2788ntf    cn114810   2.917   4.457   3.536  0.4223 -0.1722  0.1417
 2788ntf    fn414811   3.107   4.558   4.014  0.2258 -0.2635 -0.0373
 2788ntf    fn414812   3.216   4.374   4.027 -0.1156  0.0863  0.3452
 2788ntf    fn414813   3.287   4.536   3.911  0.3974  0.3661  0.4341
 2788ntf    on514814   3.207   4.320   3.749 -0.1743 -0.0507  0.1238
 2788ntf    on514815   2.976   4.350   3.835 -0.0213 -0.0440 -0.0207
 2788ntf    on514816   2.968   4.698   3.549  0.3862  0.5386  0.2521
 2788ntf    on514817   2.836   4.591   3.735  0.1057  0.2808 -0.3386
 2788ntf    fn414818   3.013   4.436   3.448 -0.3342  0.2166 -0.8043
 2788ntf    fn414819   2.896   4.338   3.589 -0.3537 -0.2378 -0.2849
 2788ntf    fn414820   2.813   4.475   3.455  0.8490  0.1941 -0.3289
 2789ntf    cn114821   4.082   0.605   4.563  0.6331  0.2103  0.0674
 2789ntf    sn214822   4.124   0.689   4.408  0.2735  0.1267 -0.0741
 2789ntf    nn314823   3.982   0.683   4.339  0.0150  0.0775  0.4591
 2789ntf    sn214824   3.930   0.554   4.267  0.2122  0.2600 -0.0132
 2789ntf    cn114825   3.750   0.581   4.273  0.2014  0.1088  0.3863
 2789ntf    fn414826   4.110   0.675   4.672  0.0579  0.2364  0.1972
 2789ntf    fn414827   3.954   0.573   4.576  0.5559  0.3347 -0.4073
 2789ntf    fn414828   4.148   0.492   4.589  0.1986 -0.0006  0.2732
 2789ntf    on514829   4.157   0.825   4.443 -0.1400  0.3564 -0.5589
 2789ntf    on514830   4.223   0.610   4.338 -0.0037  0.0765 -0.4150
 2789ntf    on514831   3.956   0.433   4.341  0.5809 -0.0112 -0.5749
 2789ntf    on514832   3.954   0.551   4.125  0.2994 -0.7335  0.0115
 2789ntf    fn414833   3.717   0.681   4.194 -0.2908 -0.1032  0.3213
 2789ntf    fn414834   3.686   0.470   4.240  0.6265  0.0474 -0.2697
 2789ntf    fn414835   3.711   0.612   4.395  0.2782  0.0528  0.4254
 2790ntf    cn114836   2.105   1.488   2.870 -0.3442 -0.1444 -0.1839
 2790ntf    sn214837   1.931   1.447   2.902 -0.2581  0.0002  0.4706
 2790ntf    nn314838   1.916   1.338   2.790  0.3448 -0.2561  0.6362
 2790ntf    sn214839   1.789   1.254   2.754 -0.1270  0.6781  0.0874
 2790ntf    cn114840   1.739   1.349   2.607  0.1892  0.1378 -0.3757
 2790ntf    fn414841   2.152   1.594   2.933 -0.2386 -0.5451  0.4128
 2790ntf    fn414842   2.193   1.393   2.898 -0.0008  0.1422 -0.2810
 2790ntf    fn414843   2.121   1.518   2.742  0.3306  0.0440 -0.0579
 2790ntf    on514844   1.928   1.406   3.041 -0.0840  0.3972  0.5934
 2790ntf    on514845   1.865   1.571   2.870  0.3395  0.2040  0.0128
 2790ntf    on514846   1.679   1.262   2.847 -0.2382 -0.0093  0.0197
 2790ntf    on514847   1.824   1.127   2.695 -0.1480  0.5951  0.2542
 2790ntf    fn414848   1.844   1.396   2.541  0.6675  0.1097  0.3493
 2790ntf    fn414849   1.660   1.279   2.529  0.3836 -0.5503  0.0352
 2790ntf    fn414850   1.678   1.461   2.643  0.5138  0.2809 -0.2582
 2791ntf    cn114851   7.048   6.216   2.900  0.0805 -0.5518  0.2914
 2791ntf    sn214852   6.929   6.088   2.846 -0.0819 -0.1802 -0.2379
 2791ntf    nn314853   6.895   6.115   2.695 -0.4945  0.7843  0.0157
 2791ntf    sn214854   6.978   6.091   2.564 -0.2198 -0.0687  0.3367
 2791ntf    cn114855   6.891   5.948   2.491 -0.4742  0.2208  0.0689
 2791ntf    fn414856   7.165   6.204   2.840  0.1351 -0.7617  0.4372
 2791ntf    fn414857   7.005   6.338   2.874 -0.1719 -0.7628 -0.3024
 2791ntf    fn414858   7.066   6.216   3.031  0.5364 -0.0243  0.2290
 2791ntf    on514859   6.995   5.962   2.871 -0.1648 -0.1556  0.1099
 2791ntf    on514860   6.817   6.119   2.930 -0.1341 -0.4669 -0.2022
 2791ntf    on514861   7.114   6.047   2.579 -0.3783 -0.4802  0.5949
 2791ntf    on514862   6.951   6.196   2.469 -0.2579 -0.6022 -0.2518
 2791ntf    fn414863   6.848   5.850   2.569  0.4363 -0.2539 -0.0106
 2791ntf    fn414864   6.783   5.993   2.430 -0.2806  0.3251 -0.1986
 2791ntf    fn414865   6.957   5.898   2.388 -0.5062  0.0132  0.1497
 2792ntf    cn114866   4.823   2.709   4.101 -0.2154  0.1834 -0.0696
 2792ntf    sn214867   4.883   2.656   3.938 -0.2049  0.3706 -0.1268
 2792ntf    nn314868   4.784   2.724   3.836 -0.0403  0.1745 -0.4151
 2792ntf    sn214869   4.639   2.679   3.797  0.1229 -0.4836 -0.2920
 2792ntf    cn114870   4.533   2.816   3.851  0.3808 -0.3468 -0.1301
 2792ntf    fn414871   4.709   2.655   4.142 -0.2269  0.2505 -0.0115
 2792ntf    fn414872   4.914   2.701   4.197 -0.4862  0.4444  0.2150
 2792ntf    fn414873   4.798   2.839   4.098 -0.8245  0.0894  0.6194
 2792ntf    on514874   5.015   2.714   3.939  0.3015 -0.7614 -0.1134
 2792ntf    on514875   4.885   2.512   3.942  0.1163  0.3816  0.1152
 2792ntf    on514876   4.587   2.568   3.872 -0.0863 -0.8271 -0.9372
 2792ntf    on514877   4.617   2.684   3.654 -0.3748  0.1870 -0.2009
 2792ntf    fn414878   4.404   2.796   3.826  0.3630 -0.1818 -0.1747
 2792ntf    fn414879   4.543   2.850   3.978  0.3223  0.2861 -0.2902
 2792ntf    fn414880   4.559   2.931   3.791  1.2253 -0.2811  0.3514
 2793ntf    cn114881   3.645   0.270   1.403 -0.1198  0.3644 -0.2048
 2793ntf    sn214882   3.716   0.252   1.237  0.1402  0.2822 -0.0847
 2793ntf    nn314883   3.853   0.179   1.264  0.0751 -0.3762 -1.4572
 2793ntf    sn214884   3.876   0.029   1.302  0.3368  0.0268  0.0343
 2793ntf    cn114885   3.880  -0.039   1.133  0.2852  0.0021  0.0434
 2793ntf    fn414886   3.614   0.159   1.468  0.7929 -0.0891 -0.5296
 2793ntf    fn414887   3.725   0.337   1.484  0.2710 -0.0702 -0.2323
 2793ntf    fn414888   3.530   0.336   1.398 -0.2412  0.1554 -0.1819
 2793ntf    on514889   3.621   0.171   1.165 -0.0963  0.0724  0.4531
 2793ntf    on514890   3.724   0.388   1.190  0.6618  0.3606  0.2226
 2793ntf    on514891   3.756  -0.032   1.353  0.6187 -0.3607  0.2396
 2793ntf    on514892   4.005  -0.000   1.359  0.3004 -0.1149  0.0429
 2793ntf    fn414893   3.762  -0.022   1.075  0.3016  0.2400  0.0769
 2793ntf    fn414894   3.974   0.023   1.064  0.2223 -0.2025 -0.2248
 2793ntf    fn414895   3.909  -0.168   1.132 -0.0197 -0.0713  0.3099
 2794ntf    cn114896   5.533   2.512   1.168  0.1022  0.3618 -0.1713
 2794ntf    sn214897   5.562   2.337   1.125 -0.4160  0.1693  0.2525
 2794ntf    nn314898   5.715   2.329   1.160 -0.2694 -0.4051 -0.4988
 2794ntf    sn214899   5.838   2.281   1.075  0.0612  0.0062 -0.2545
 2794ntf    cn114900   5.818   2.102   1.101 -0.2478  0.1032  0.2057
 2794ntf    fn414901   5.407   2.551   1.158 -0.0703 -0.2971 -0.7224
 2794ntf    fn414902   5.573   2.543   1.290 -0.0158 -0.3192  0.0480
 2794ntf    fn414903   5.603   2.584   1.082 -0.7697  1.0445 -0.3224
 2794ntf    on514904   5.469   2.270   1.211 -0.4398  0.0092  0.1028
 2794ntf    on514905   5.523   2.323   0.987  0.1688 -0.2640  0.1275
 2794ntf    on514906   5.967   2.307   1.135  0.2206  0.2928 -0.7166
 2794ntf    on514907   5.820   2.299   0.933 -0.0752  0.3459 -0.1955
 2794ntf    fn414908   5.818   2.071   1.229 -0.0674  0.5129  0.3058
 2794ntf    fn414909   5.700   2.065   1.054  0.2813 -0.5527 -0.6428
 2794ntf    fn414910   5.911   2.037   1.032 -0.0422  0.2789  0.3155
 2795ntf    cn114911   5.879   3.717   0.151 -0.0691  0.0458  0.0172
 2795ntf    sn214912   6.031   3.769   0.065 -0.1393  0.0253 -0.1195
 2795ntf    nn314913   6.125   3.661   0.129 -0.3845  0.1001  0.3751
 2795ntf    sn214914   6.282   3.655   0.141 -0.3648  0.0190  0.0995
 2795ntf    cn114915   6.291   3.728   0.307  0.3579  0.2907 -0.0572
 2795ntf    fn414916   5.770   3.774   0.104 -0.3905 -0.4560  0.1523
 2795ntf    fn414917   5.866   3.585   0.139 -0.2503  0.0874 -0.2537
 2795ntf    fn414918   5.876   3.747   0.280  1.3284 -0.0573  0.0962
 2795ntf    on514919   5.986   3.744  -0.070 -0.1267  0.1075 -0.1387
 2795ntf    on514920   6.065   3.901   0.112 -0.4735  0.1592 -0.2493
 2795ntf    on514921   6.357   3.746   0.059  0.5337 -0.5999  0.2166
 2795ntf    on514922   6.332   3.520   0.155 -0.2557  0.0386 -0.1082
 2795ntf    fn414923   6.406   3.710   0.371  0.3486  0.9587  0.1637
 2795ntf    fn414924   6.273   3.858   0.321 -0.5045  0.2520 -0.7441
 2795ntf    fn414925   6.199   3.679   0.389  0.3603  0.1406 -0.1438
 2796ntf    cn114926   0.710   5.981   4.471 -0.0671 -0.1502 -0.4837
 2796ntf    sn214927   0.568   5.877   4.513  0.1803 -0.4489 -0.3855
 2796ntf    nn314928   0.582   5.769   4.400  0.2608 -0.6429 -0.1919
 2796ntf    sn214929   0.549   5.785   4.247  0.1714 -0.4192 -0.1496
 2796ntf    cn114930   0.368   5.763   4.243  0.1073  0.0129  0.2090
 2796ntf    fn414931   0.693   6.088   4.394 -0.1485  0.2778  0.1222
 2796ntf    fn414932   0.753   6.030   4.586 -0.1348 -0.0041 -0.5195
 2796ntf    fn414933   0.817   5.923   4.419  0.4270 -0.3370  0.7288
 2796ntf    on514934   0.609   5.823   4.641  0.3035  0.4734 -0.0260
 2796ntf    on514935   0.451   5.961   4.519  0.6104  0.1534 -0.4272
 2796ntf    on514936   0.600   5.672   4.174  0.6407 -0.4273  0.1913
 2796ntf    on514937   0.559   5.919   4.194 -0.8926 -0.2902 -0.0543
 2796ntf    fn414938   0.339   5.637   4.273  0.2275  0.1482  0.9190
 2796ntf    fn414939   0.301   5.838   4.329 -0.2032 -0.6170  0.5232
 2796ntf    fn414940   0.316   5.785   4.124 -0.2247 -0.6056  0.2357
 2797ntf    cn114941   0.151   7.059   4.570 -0.1636 -0.6612 -0.3337
 2797ntf    sn214942   0.259   7.160   4.677 -0.4750 -0.3350 -0.3259
 2797ntf    nn314943   0.238   7.090   4.816 -0.1283  0.3355  0.0632
 2797ntf    sn214944   0.141   7.125   4.935 -0.1983 -0.0453  0.1185
 2797ntf    cn114945   0.206   7.022   5.070 -0.1127 -0.0674  0.0612
 2797ntf    fn414946   0.196   7.041   4.447  0.2808 -0.7064 -0.1649
 2797ntf    fn414947   0.132   6.938   4.619 -0.1875 -0.3595  0.4215
 2797ntf    fn414948   0.029   7.107   4.554  0.1310  0.2945  0.1963
 2797ntf    on514949   0.390   7.138   4.620 -0.0386 -0.2622  0.6427
 2797ntf    on514950   0.204   7.293   4.665  0.0290 -0.1191 -0.2486
 2797ntf    on514951   0.012   7.063   4.919 -0.3141  0.1305  0.3614
 2797ntf    on514952   0.149   7.257   4.993  0.5246  0.0495 -0.1740
 2797ntf    fn414953   0.317   7.072   5.124  0.1444  0.0090 -0.5263
 2797ntf    fn414954   0.114   6.996   5.160 -0.0722  0.0296  0.1306
 2797ntf    fn414955   0.239   6.901   5.027  0.4119  0.2093 -0.3302
 2798ntf    cn114956   0.436   5.623   0.768 -0.1859 -0.4334 -0.4142
 2798ntf    sn214957   0.459   5.619   0.588  0.0325  0.3674 -0.4068
 2798ntf    nn314958   0.310   5.624   0.539  0.0973  0.0067 -0.6424
 2798ntf    sn214959   0.216   5.750   0.540 -0.0116 -0.0803  0.0212
 2798ntf    cn114960   0.080   5.679   0.638  0.4511 -0.3060  0.5041
 2798ntf    fn414961   0.351   5.722   0.796 -0.1305 -0.6249  0.4731
 2798ntf    fn414962   0.386   5.510   0.815  0.1730 -0.2457  0.4341
 2798ntf    fn414963   0.550   5.647   0.831 -0.0798 -0.3175 -0.6515
 2798ntf    on514964   0.542   5.734   0.561  0.1149  0.3175 -0.3688
 2798ntf    on514965   0.520   5.490   0.568 -0.4217  0.0269  0.3925
 2798ntf    on514966   0.149   5.763   0.413 -0.5026 -0.7214  0.2065
 2798ntf    on514967   0.267   5.866   0.608  0.4198 -0.3726  0.2035
 2798ntf    fn414968  -0.034   5.741   0.664  0.5382  0.1593 -0.2156
 2798ntf    fn414969   0.041   5.571   0.572  0.5131 -0.0971  0.1278
 2798ntf    fn414970   0.114   5.636   0.759 -0.2644  0.0239  0.8288
 2799ntf    cn114971   0.517   2.130   1.965  0.1854 -0.3645  0.1607
 2799ntf    sn214972   0.363   2.219   1.924  0.1737 -0.3168  0.3073
 2799ntf    nn314973   0.286   2.115   1.836  0.4586 -0.3230  0.0630
 2799ntf    sn214974   0.201   1.992   1.884  0.1088  0.0531  0.4195
 2799ntf    cn114975   0.142   1.937   1.721  0.1423 -0.1415  0.4730
 2799ntf    fn414976   0.499   2.041   2.062 -0.3982 -0.1089  0.2973
 2799ntf    fn414977   0.566   2.058   1.866  0.4321  0.2064 -0.1366
 2799ntf    fn414978   0.617   2.207   2.004  0.0870  0.1488 -0.5736
 2799ntf    on514979   0.306   2.259   2.050 -0.0292 -0.0582  0.1332
 2799ntf    on514980   0.412   2.326   1.841 -0.6228  0.0637  0.3215
 2799ntf    on514981   0.082   2.033   1.954 -0.1880  0.2147 -0.1738
 2799ntf    on514982   0.280   1.880   1.928  0.1560 -0.1303 -0.1196
 2799ntf    fn414983   0.233   1.919   1.627 -0.1550  0.3767  0.0780
 2799ntf    fn414984   0.076   1.822   1.730  0.4169 -0.4104 -0.7665
 2799ntf    fn414985   0.062   2.026   1.665  0.8850  0.1953 -0.0648
 2800ntf    cn114986   2.973   6.109   6.525  0.0256 -0.1315  0.3070
 2800ntf    sn214987   3.114   6.008   6.581  0.3308  0.2819  0.2828
 2800ntf    nn314988   3.116   6.039   6.734  0.4814 -0.4637  0.4343
 2800ntf    sn214989   3.070   5.948   6.854  0.1159 -0.1128  0.5648
 2800ntf    cn114990   3.199   5.821   6.870  0.0632 -0.2818 -0.3100
 2800ntf    fn414991   2.938   6.075   6.402 -0.0625 -0.4845  0.4287
 2800ntf    fn414992   2.867   6.085   6.600 -0.4515  0.3139 -0.2226
 2800ntf    fn414993   2.999   6.238   6.522 -0.0686 -0.1111  0.3526
 2800ntf    on514994   3.077   5.874   6.545 -0.2011  0.5080 -0.0264
 2800ntf    on514995   3.235   6.058   6.519 -0.0068  0.5238 -0.1918
 2800ntf    on514996   2.941   5.889   6.831  0.4996 -0.7030 -0.1193
 2800ntf    on514997   3.103   6.027   6.970 -0.1627  0.4419  0.2720
 2800ntf    fn414998   3.316   5.865   6.913 -0.0132 -0.2695 -0.1140
 2800ntf    fn414999   3.175   5.740   6.971  0.5878 -0.0103  0.0367
 2800ntf    fn415000   3.212   5.740   6.766  0.4143 -0.0468 -0.4518
 2801ntf    cn115001   2.582   4.381   5.631  0.0503 -0.1052  0.0829
 2801ntf    sn215002   2.646   4.241   5.534  0.0155  0.0051 -0.1010
 2801ntf    nn315003   2.665   4.329   5.406 -0.5464  0.3521  0.0498
 2801ntf    sn215004   2.793   4.337   5.315 -0.2187 -0.2827  0.4446
 2801ntf    cn115005   2.893   4.455   5.411  0.2600 -0.0720 -0.3000
 2801ntf    fn415006   2.676   4.472   5.656 -0.3570  0.2975  0.1644
 2801ntf    fn415007   2.475   4.430   5.570 -0.1175 -0.1108  0.3745
 2801ntf    fn415008   2.543   4.347   5.752  0.4934 -0.3739  0.1535
 2801ntf    on515009   2.760   4.199   5.613 -0.6124 -0.3193  0.6468
 2801ntf    on515010   2.535   4.150   5.524  0.4268 -0.4499 -0.5711
 2801ntf    on515011   2.772   4.405   5.189 -0.2294 -0.1056  0.5404
 2801ntf    on515012   2.873   4.218   5.309  0.2696  0.0573  0.0445
 2801ntf    fn415013   2.933   4.424   5.533 -0.3359  0.3111 -0.0046
 2801ntf    fn415014   3.004   4.494   5.351  0.4377  0.1186  0.1491
 2801ntf    fn415015   2.827   4.569   5.414  0.7783  0.2183  0.3868
 2802ntf    cn115016   3.652   3.212   0.791  0.2826 -0.5364  0.1882
 2802ntf    sn215017   3.783   3.192   0.916  0.4125  0.0138  0.1427
 2802ntf    nn315018   3.721   3.283   1.028  0.3283  0.1771 -0.0359
 2802ntf    sn215019   3.784   3.391   1.122  0.2943  0.0755  0.1041
 2802ntf    cn115020   3.757   3.299   1.276  0.3609  0.2238  0.2052
 2802ntf    fn415021   3.684   3.163   0.672 -0.0066 -0.1790 -0.0354
 2802ntf    fn415022   3.536   3.161   0.828 -0.0716 -0.2167 -0.4647
 2802ntf    fn415023   3.629   3.341   0.776  0.3152 -0.5244  0.2420
 2802ntf    on515024   3.768   3.053   0.953 -0.0977 -0.0552 -0.3098
 2802ntf    on515025   3.906   3.231   0.852  0.7889 -0.0191  0.8390
 2802ntf    on515026   3.696   3.505   1.132  0.3538  0.1033  0.3106
 2802ntf    on515027   3.926   3.415   1.108  0.4146 -0.7138 -0.0455
 2802ntf    fn415028   3.636   3.249   1.292  0.3543  0.0840 -0.2778
 2802ntf    fn415029   3.843   3.200   1.297  0.1033 -0.0251  0.0927
 2802ntf    fn415030   3.771   3.382   1.378 -0.1622  0.4046  0.1312
 2803ntf    cn115031   4.771   2.531   1.253  0.1717  0.0952  0.7103
 2803ntf    sn215032   4.807   2.488   1.080  0.0066 -0.4028  0.7990
 2803ntf    nn315033   4.923   2.588   1.045 -0.2412 -0.5127 -0.3717
 2803ntf    sn215034   4.969   2.641   0.905  0.1354  0.1281 -0.0073
 2803ntf    cn115035   5.135   2.574   0.874 -0.0441 -0.3503  0.0674
 2803ntf    fn415036   4.751   2.662   1.264  0.3243  0.2070 -0.2827
 2803ntf    fn415037   4.660   2.474   1.298  0.2242 -0.3572  0.2699
 2803ntf    fn415038   4.867   2.505   1.340  0.2908 -0.7685  0.3319
 2803ntf    on515039   4.849   2.350   1.086  0.3819 -0.2895  0.7806
 2803ntf    on515040   4.678   2.520   1.023  0.4982  0.3908  0.1082
 2803ntf    on515041   5.001   2.782   0.907  0.4443  0.0622 -0.2527
 2803ntf    on515042   4.897   2.604   0.786  0.1702 -0.1538  0.0597
 2803ntf    fn415043   5.195   2.626   0.769  0.0617  0.5185  0.5528
 2803ntf    fn415044   5.219   2.595   0.975 -0.0447 -0.0857  0.0119
 2803ntf    fn415045   5.134   2.443   0.854  0.4164 -0.4172  0.4623
 2804ntf    cn115046   2.766   5.765   1.679  0.6393  0.0383 -0.5153
 2804ntf    sn215047   2.943   5.726   1.691  0.5803 -0.1362 -0.2098
 2804ntf    nn315048   2.996   5.811   1.571  0.1027  0.4150 -0.0338
 2804ntf    sn215049   2.995   5.774   1.418  0.0858  0.0841  0.0455
 2804ntf    cn115050   3.170   5.732   1.391  0.0563  0.0117 -0.0355
 2804ntf    fn415051   2.715   5.678   1.594 -0.4403  0.4457 -0.3010
 2804ntf    fn415052   2.699   5.752   1.793  0.2586  0.6780 -0.6613
 2804ntf    fn415053   2.743   5.884   1.627  0.1461  0.2062  0.0757
 2804ntf    on515054   2.981   5.786   1.817  0.5673  0.0741 -0.3068
 2804ntf    on515055   2.958   5.583   1.679  0.1612 -0.2017  0.0354
 2804ntf    on515056   2.965   5.891   1.338  0.3559  0.2562  0.1948
 2804ntf    on515057   2.919   5.656   1.386  0.2050 -0.0217  0.1505
 2804ntf    fn415058   3.198   5.716   1.263 -0.0361  0.2053 -0.0813
 2804ntf    fn415059   3.250   5.825   1.441 -0.4274  0.3207  0.1764
 2804ntf    fn415060   3.205   5.623   1.456  0.4609  0.4067  0.4116
 2805ntf    cn115061   1.786   6.175   0.560  0.4890  0.0921  0.1346
 2805ntf    sn215062   1.660   6.214   0.435  0.2234 -0.0977  0.3419
 2805ntf    nn315063   1.725   6.147   0.309 -0.5874 -0.0678 -0.1039
 2805ntf    sn215064   1.829   6.199   0.203 -0.3033 -0.4662 -0.0236
 2805ntf    cn115065   1.731   6.167   0.053 -0.0283  0.1142 -0.3267
 2805ntf    fn415066   1.910   6.200   0.523  0.2622 -0.0047 -0.7178
 2805ntf    fn415067   1.775   6.232   0.680 -0.2192  0.0500  0.0961
 2805ntf    fn415068   1.779   6.045   0.583 -0.4451  0.2386  0.7483
 2805ntf    on515069   1.545   6.138   0.477  0.0584 -0.0240  0.0262
 2805ntf    on515070   1.649   6.358   0.433 -0.4915 -0.1523 -0.0661
 2805ntf    on515071   1.936   6.103   0.186  0.1078  0.0884 -0.5938
 2805ntf    on515072   1.862   6.339   0.199  0.4835 -0.6504 -0.2040
 2805ntf    fn415073   1.805   6.193  -0.054 -0.2872  0.6235 -0.3890
 2805ntf    fn415074   1.682   6.045   0.044 -0.1201  0.0945  0.3551
 2805ntf    fn415075   1.624   6.244   0.037  0.1377  0.4537  0.1823
 2806ntf    cn115076   0.051   3.918   4.643 -0.1887  0.3954  0.5755
 2806ntf    sn215077   0.117   4.087   4.663  0.1828  0.2686  0.4397
 2806ntf    nn315078   0.045   4.113   4.801  0.0411  0.1460  0.3900
 2806ntf    sn215079  -0.013   4.243   4.867  0.0291  0.3070  0.0671
 2806ntf    cn115080  -0.182   4.225   4.803  0.0923 -0.2248  0.0374
 2806ntf    fn415081   0.113   3.824   4.713  0.1188  0.1989  0.0480
 2806ntf    fn415082  -0.075   3.908   4.682 -0.1875  0.4142  0.5847
 2806ntf    fn415083   0.057   3.886   4.515 -0.3685 -0.4040  0.7670
 2806ntf    on515084   0.257   4.061   4.682  0.1430 -0.1597  0.1472
 2806ntf    on515085   0.063   4.157   4.550  0.2157 -0.4253 -0.0118
 2806ntf    on515086   0.023   4.372   4.816  0.2550 -0.0046 -0.5671
 2806ntf    on515087  -0.027   4.237   5.011  0.1116 -0.2928  0.0553
 2806ntf    fn415088  -0.187   4.179   4.680  0.5946  0.2169 -0.1529
 2806ntf    fn415089  -0.255   4.141   4.875 -0.4002  0.4627  0.3619
 2806ntf    fn415090  -0.247   4.341   4.802  0.7063  0.1233 -0.0869
 2807ntf    cn115091   2.660   5.277   1.880  0.2382  0.2673  0.1884
 2807ntf    sn215092   2.737   5.113   1.872 -0.3420  0.0149 -0.3112
 2807ntf    nn315093   2.834   5.126   1.995 -0.6696 -0.2317 -0.0221
 2807ntf    sn215094   2.886   5.014   2.091 -0.0585  0.2758  0.2487
 2807ntf    cn115095   2.790   5.051   2.241  0.0398  0.1426  0.3448
 2807ntf    fn415096   2.745   5.379   1.880  0.1564  0.3361  0.3029
 2807ntf    fn415097   2.571   5.295   1.784  0.0306 -0.1907  0.2908
 2807ntf    fn415098   2.606   5.285   2.001  0.0323  0.5876  0.0761
 2807ntf    on515099   2.633   5.017   1.899  0.1291 -0.3635  0.2043
 2807ntf    on515100   2.803   5.119   1.744 -0.6647 -0.0158 -0.4781
 2807ntf    on515101   3.020   5.030   2.141  0.2229  0.0979 -0.4368
 2807ntf    on515102   2.852   4.880   2.048 -0.6250  0.6193 -0.3851
 2807ntf    fn415103   2.663   5.062   2.206 -0.0823 -0.4142  0.6035
 2807ntf    fn415104   2.802   4.962   2.339  0.7209  0.4045  0.5012
 2807ntf    fn415105   2.823   5.169   2.290  0.3503  0.3168 -0.2756
 2808ntf    cn115106   5.926   4.328   5.455  0.1043  0.4516 -0.0756
 2808ntf    sn215107   6.003   4.256   5.603  0.1369  0.0911 -0.2647
 2808ntf    nn315108   6.139   4.334   5.616  0.0612  0.1536  0.1834
 2808ntf    sn215109   6.278   4.276   5.661 -0.0005  0.0850  0.2881
 2808ntf    cn115110   6.368   4.270   5.503  0.0604 -0.4312  0.3422
 2808ntf    fn415111   5.953   4.458   5.456 -0.1176  0.4976  0.0938
 2808ntf    fn415112   5.974   4.274   5.344  0.0325 -0.4278  0.3161
 2808ntf    fn415113   5.795   4.313   5.456  0.1341  0.1819 -0.1926
 2808ntf    on515114   5.904   4.284   5.705 -0.4026  0.3453 -0.8504
 2808ntf    on515115   6.016   4.117   5.568 -0.0276 -0.1383  0.5523
 2808ntf    on515116   6.278   4.140   5.706 -0.1679  0.1309  0.4272
 2808ntf    on515117   6.353   4.379   5.730 -0.6653  0.8331 -0.0851
 2808ntf    fn415118   6.492   4.224   5.509  0.0810 -0.4321 -0.0256
 2808ntf    fn415119   6.303   4.189   5.421  0.0033 -0.6312  0.5847
 2808ntf    fn415120   6.372   4.390   5.447 -0.4282 -0.3150  0.5564
 2809ntf    cn115121   5.231   6.577   1.340 -0.0981  0.2591 -0.2732
 2809ntf    sn215122   5.114   6.713   1.369 -0.0991  0.2133 -0.0570
 2809ntf    nn315123   4.985   6.654   1.305 -0.0247  0.5331 -0.5057
 2809ntf    sn215124   4.878   6.556   1.366  0.3717  0.2451 -0.2643
 2809ntf    cn115125   4.738   6.666   1.402  0.2073  0.0535 -0.3149
 2809ntf    fn415126   5.185   6.461   1.383 -0.1787 -0.0470 -1.1751
 2809ntf    fn415127   5.253   6.544   1.214 -0.0341 -0.1769 -0.1505
 2809ntf    fn415128   5.350   6.591   1.397 -0.0778 -0.1394 -0.2189
 2809ntf    on515129   5.109   6.725   1.513  0.1569 -0.2455 -0.0068
 2809ntf    on515130   5.175   6.815   1.287  0.2828  0.2426  0.2605
 2809ntf    on515131   4.904   6.505   1.498  0.0656 -0.0697 -0.3226
 2809ntf    on515132   4.815   6.461   1.277  0.0350  0.0659  0.1634
 2809ntf    fn415133   4.637   6.595   1.450  0.3760 -0.1922 -0.3247
 2809ntf    fn415134   4.774   6.760   1.489  0.0410  0.2641 -0.4720
 2809ntf    fn415135   4.690   6.734   1.299 -0.5171 -0.7678 -0.5273
 2810ntf    cn115136   1.776   3.234   1.166  0.0859  0.2281 -0.1156
 2810ntf    sn215137   1.774   3.220   0.985 -0.1607 -0.2388 -0.0771
 2810ntf    nn315138   1.632   3.158   0.957 -0.1222 -0.2717 -0.2023
 2810ntf    sn215139   1.591   3.057   0.845  0.0003 -0.3702 -0.1595
 2810ntf    cn115140   1.640   3.139   0.690  0.2180 -0.1991  0.0002
 2810ntf    fn415141   1.893   3.268   1.219  0.5604 -0.6390 -0.5973
 2810ntf    fn415142   1.687   3.324   1.206 -0.0403 -0.1204  0.3970
 2810ntf    fn415143   1.744   3.120   1.224  0.2225  0.1003 -0.2928
 2810ntf    on515144   1.775   3.360   0.951  0.2678 -0.2973 -0.3156
 2810ntf    on515145   1.889   3.141   0.946 -0.2708 -0.3081 -0.2648
 2810ntf    on515146   1.447   3.050   0.831 -0.0404 -0.0779  0.1085
 2810ntf    on515147   1.672   2.938   0.840 -0.4138 -0.6846  0.4422
 2810ntf    fn415148   1.763   3.188   0.694 -0.0557  0.5109 -0.0458
 2810ntf    fn415149   1.628   3.050   0.593 -0.2548  0.3777 -0.4808
 2810ntf    fn415150   1.561   3.242   0.665  0.1800 -0.1071  0.4851
 2811ntf    cn115151   6.224   5.329   5.228  0.1026 -0.1494  0.0172
 2811ntf    sn215152   6.125   5.182   5.189 -0.2461  0.0150  0.2751
 2811ntf    nn315153   6.222   5.116   5.084 -0.2301 -0.0855  0.3525
 2811ntf    sn215154   6.339   5.013   5.105 -0.0697 -0.0187 -0.1916
 2811ntf    cn115155   6.414   5.048   4.943 -0.1637 -0.2229 -0.2800
 2811ntf    fn415156   6.335   5.295   5.291 -0.1532  0.4508  0.8012
 2811ntf    fn415157   6.254   5.406   5.124  0.1002  0.0423  0.1575
 2811ntf    fn415158   6.154   5.416   5.299  0.2743  0.0051  0.0001
 2811ntf    on515159   6.108   5.115   5.315 -0.1778 -0.1668  0.1876
 2811ntf    on515160   6.002   5.235   5.135 -0.2180  0.0536  0.2489
 2811ntf    on515161   6.300   4.874   5.101  0.2234 -0.1104  0.1589
 2811ntf    on515162   6.434   5.054   5.205 -0.4082  0.1911  0.0481
 2811ntf    fn415163   6.461   5.171   4.945 -0.5307 -0.0864  0.3012
 2811ntf    fn415164   6.522   4.974   4.924  0.0926  0.0187  0.2246
 2811ntf    fn415165   6.332   5.027   4.841 -0.4607  0.3179 -0.1554
 2812ntf    cn115166   3.283   5.109   5.081  0.1686 -0.3821 -0.1267
 2812ntf    sn215167   3.378   5.049   5.224 -0.1948 -0.1499  0.2161
 2812ntf    nn315168   3.510   5.125   5.186 -0.0088 -0.1266  0.9028
 2812ntf    sn215169   3.571   5.257   5.246  0.0288  0.2226  0.1086
 2812ntf    cn115170   3.664   5.185   5.385 -0.2652 -0.0052  0.1879
 2812ntf    fn415171   3.341   5.062   4.972  0.0470 -0.5421 -0.1248
 2812ntf    fn415172   3.158   5.066   5.091  0.2158 -0.5519 -0.2768
 2812ntf    fn415173   3.285   5.241   5.071  0.5355 -0.3588  0.2225
 2812ntf    on515174   3.327   5.096   5.350  0.2957  0.0025  0.3614
 2812ntf    on515175   3.390   4.906   5.212  1.0353 -0.0455  0.0510
 2812ntf    on515176   3.479   5.353   5.302  0.0826  0.1869  0.2581
 2812ntf    on515177   3.670   5.309   5.155 -0.1231 -0.2494 -0.3326
 2812ntf    fn415178   3.754   5.100   5.339 -0.1956  0.1970 -0.0537
 2812ntf    fn415179   3.721   5.278   5.460  0.4274 -0.2008 -0.0936
 2812ntf    fn415180   3.588   5.120   5.472 -0.1489 -0.1329  0.1945
 2813ntf    cn115181   5.690   2.206   6.803  0.1849  0.0752 -0.2520
 2813ntf    sn215182   5.830   2.130   6.890 -0.1498 -0.1524  0.0923
 2813ntf    nn315183   5.933   2.249   6.880 -0.1487 -0.1233  0.4443
 2813ntf    sn215184   5.981   2.345   6.994 -0.0241  0.1775  0.1374
 2813ntf    cn115185   5.915   2.504   6.936  0.2981  0.1737 -0.2436
 2813ntf    fn415186   5.578   2.136   6.808  0.3124 -0.1160 -0.0249
 2813ntf    fn415187   5.646   2.321   6.852 -0.3695  0.0152 -0.6022
 2813ntf    fn415188   5.722   2.228   6.677  0.1426 -0.4597 -0.3575
 2813ntf    on515189   5.778   2.082   7.015 -0.3363 -0.2053 -0.0057
 2813ntf    on515190   5.872   2.027   6.798  0.3085 -0.2244  0.3751
 2813ntf    on515191   6.124   2.368   6.999  0.0259 -0.1864  0.4073
 2813ntf    on515192   5.920   2.328   7.123  0.0535  0.0275  0.1547
 2813ntf    fn415193   5.960   2.611   6.999 -0.1354  0.5505 -0.5592
 2813ntf    fn415194   5.937   2.523   6.807 -0.1392 -0.2254 -0.3812
 2813ntf    fn415195   5.782   2.511   6.940  0.2738  0.0046 -0.6517
 2814ntf    cn115196   3.691   1.767   5.861 -0.0801  0.1172 -0.1059
 2814ntf    sn215197   3.686   1.775   6.043  0.0223 -0.3480 -0.0807
 2814ntf    nn315198   3.836   1.750   6.085 -0.1965  0.1477  1.0291
 2814ntf    sn215199   3.915   1.617   6.110  0.0382  0.0146 -0.3373
 2814ntf    cn115200   4.073   1.695   6.066 -0.0681  0.6227  0.3527
 2814ntf    fn415201   3.687   1.645   5.810 -0.0358  0.1004 -0.0690
 2814ntf    fn415202   3.586   1.832   5.817 -0.1971  0.2654  0.3820
 2814ntf    fn415203   3.798   1.829   5.813  0.1886 -0.0088  0.3134
 2814ntf    on515204   3.646   1.907   6.085  0.0888 -0.6702  1.0407
 2814ntf    on515205   3.598   1.668   6.081 -0.1297 -0.1274  0.1915
 2814ntf    on515206   3.904   1.511   6.012 -0.7329  0.0250 -0.2695
 2814ntf    on515207   3.923   1.580   6.249 -0.3604 -0.6622 -0.4893
 2814ntf    fn415208   4.165   1.604   6.042 -0.7962 -0.1075  0.2960
 2814ntf    fn415209   4.046   1.762   5.955  0.0320 -0.4913 -0.3562
 2814ntf    fn415210   4.117   1.781   6.158  0.2135  0.3500  0.4742
 2815ntf    cn115211   0.644   6.578   1.305 -0.3021  0.0864  0.1623
 2815ntf    sn215212   0.693   6.719   1.409  0.1240  0.2234 -0.2201
 2815ntf    nn315213   0.694   6.846   1.316  0.2604 -0.2877 -0.9225
 2815ntf    sn215214   0.589   6.960   1.289  0.3866  0.0371 -0.0954
 2815ntf    cn115215   0.716   7.077   1.231  0.2662 -0.0639 -0.5711
 2815ntf    fn415216   0.738   6.538   1.221 -0.1005  0.5646  0.1571
 2815ntf    fn415217   0.623   6.470   1.379 -0.2375  0.0843  0.1780
 2815ntf    fn415218   0.533   6.591   1.235 -0.1324 -0.1774 -0.1593
 2815ntf    on515219   0.583   6.719   1.503  0.4877 -1.0021  0.2290
 2815ntf    on515220   0.823   6.676   1.453 -0.1076  0.0032  0.2548
 2815ntf    on515221   0.538   7.017   1.411  0.4113  0.0318 -0.0828
 2815ntf    on515222   0.500   6.948   1.176  0.1625 -0.1851  0.1051
 2815ntf    fn415223   0.674   7.191   1.180  0.1206  0.2673  0.2652
 2815ntf    fn415224   0.800   7.106   1.329  0.1164  0.3846 -0.5727
 2815ntf    fn415225   0.777   7.022   1.128  0.4781 -0.7140 -0.1059
 2816ntf    cn115226   3.579   6.811   0.150 -0.2812 -0.0962 -0.0641
 2816ntf    sn215227   3.511   6.795   0.318  0.1269  0.0466  0.1145
 2816ntf    nn315228   3.359   6.765   0.294  0.0374  0.7445 -0.2251
 2816ntf    sn215229   3.234   6.859   0.285 -0.4564  0.1268  0.1053
 2816ntf    cn115230   3.170   6.835   0.453  0.3656  0.0776  0.4131
 2816ntf    fn415231   3.576   6.696   0.085 -0.0341 -0.1099 -0.0507
 2816ntf    fn415232   3.512   6.897   0.074 -0.3202  0.3699  0.4946
 2816ntf    fn415233   3.706   6.845   0.151 -0.2440 -0.2334 -0.1035
 2816ntf    on515234   3.589   6.678   0.350 -0.0354 -0.0743  0.0678
 2816ntf    on515235   3.541   6.922   0.380  0.0620 -0.0470  0.3382
 2816ntf    on515236   3.131   6.800   0.203 -0.3121  0.7259 -0.5199
 2816ntf    on515237   3.260   7.001   0.278  0.0807  0.0097 -0.3172
 2816ntf    fn415238   3.260   6.861   0.547  0.5049  0.3678  0.2016
 2816ntf    fn415239   3.061   6.907   0.474  0.1849  0.3307 -1.2649
 2816ntf    fn415240   3.132   6.713   0.486  0.7022 -0.1191  0.0847
 2817ntf    cn115241   2.909   1.150   6.181  0.0317  0.2643 -0.1085
 2817ntf    sn215242   2.748   1.232   6.161 -0.0324  0.1695  0.0131
 2817ntf    nn315243   2.717   1.177   6.017 -0.1328  0.2153  0.0169
 2817ntf    sn215244   2.611   1.069   5.977 -0.1402  0.1316  0.2646
 2817ntf    cn115245   2.670   1.025   5.811 -0.1375  0.2806  0.2259
 2817ntf    fn415246   2.910   1.023   6.143  0.6471  0.3144 -0.2643
 2817ntf    fn415247   3.007   1.198   6.106  0.5641  0.1463  0.4981
 2817ntf    fn415248   2.959   1.143   6.304 -0.4174 -0.7407  0.0314
 2817ntf    on515249   2.669   1.188   6.273 -0.2414  0.1711 -0.1337
 2817ntf    on515250   2.790   1.370   6.156  0.8035 -0.0593  0.5548
 2817ntf    on515251   2.481   1.124   5.950  0.3297  0.9456 -0.3595
 2817ntf    on515252   2.618   0.946   6.053  0.9721  0.2356  0.3464
 2817ntf    fn415253   2.687   1.121   5.722  0.5355  0.3988  0.4831
 2817ntf    fn415254   2.786   0.963   5.821 -0.0170  0.4695 -0.0110
 2817ntf    fn415255   2.594   0.928   5.761  0.5462 -0.1383 -0.0152
 2818ntf    cn115256   1.828   3.382   3.431 -0.0621  0.2273 -0.2683
 2818ntf    sn215257   1.704   3.456   3.542  0.0931 -0.2691  0.2394
 2818ntf    nn315258   1.718   3.611   3.519  0.1562 -0.3487 -0.2687
 2818ntf    sn215259   1.650   3.701   3.409 -0.0038  0.1941  0.2752
 2818ntf    cn115260   1.802   3.734   3.315  0.1473 -0.2443  0.3624
 2818ntf    fn415261   1.953   3.416   3.458  0.1331 -0.7763  0.1121
 2818ntf    fn415262   1.818   3.252   3.412  0.4738  0.2128 -0.4772
 2818ntf    fn415263   1.804   3.428   3.309 -0.3404  0.3996 -0.1482
 2818ntf    on515264   1.579   3.390   3.515 -0.0042  0.1249 -0.2978
 2818ntf    on515265   1.758   3.426   3.672  0.5468  0.6737  0.2770
 2818ntf    on515266   1.619   3.835   3.453 -0.0536  0.0508  0.6852
 2818ntf    on515267   1.559   3.643   3.315  0.1905  0.4805 -0.0919
 2818ntf    fn415268   1.781   3.760   3.187 -0.1308 -0.3204  0.3926
 2818ntf    fn415269   1.860   3.846   3.356 -0.0257  0.0736 -0.2585
 2818ntf    fn415270   1.895   3.640   3.328 -0.6840 -1.1609 -0.2275
 2819ntf    cn115271   5.607   2.373   5.682  0.2155 -0.2211  0.1923
 2819ntf    sn215272   5.749   2.486   5.681 -0.1500  0.2353 -0.3740
 2819ntf    nn315273   5.712   2.576   5.557  0.0394  0.5113 -0.2324
 2819ntf    sn215274   5.761   2.562   5.409  0.0576 -0.1117 -0.1712
 2819ntf    cn115275   5.914   2.660   5.406  0.0204 -0.0386  0.2663
 2819ntf    fn415276   5.492   2.432   5.712  0.3943  0.0165  0.4132
 2819ntf    fn415277   5.592   2.312   5.566 -0.0428  0.3128 -0.0601
 2819ntf    fn415278   5.612   2.275   5.772 -0.7802 -0.4246  0.0442
 2819ntf    on515279   5.744   2.562   5.804  0.1523  0.4597 -0.5017
 2819ntf    on515280   5.859   2.394   5.668 -0.4024 -0.1494  0.1409
 2819ntf    on515281   5.678   2.643   5.324 -0.2201  0.1476  0.3414
 2819ntf    on515282   5.799   2.430   5.363 -0.7898 -0.5889  0.4575
 2819ntf    fn415283   6.008   2.615   5.488 -0.1901 -0.1795  0.4301
 2819ntf    fn415284   5.978   2.655   5.291 -0.0850 -0.1290  0.2112
 2819ntf    fn415285   5.892   2.787   5.434 -0.3683 -0.1727  0.5829
 2820ntf    cn115286   0.230   3.252   2.831 -0.2563  0.0882 -0.2204
 2820ntf    sn215287   0.334   3.120   2.761 -0.0316  0.0109  0.2542
 2820ntf    nn315288   0.331   3.163   2.610  0.1231  0.3136  0.3345
 2820ntf    sn215289   0.348   3.085   2.474  0.1967  0.2153  0.4004
 2820ntf    cn115290   0.498   3.162   2.408  0.2662 -0.0244  0.2781
 2820ntf    fn415291   0.284   3.373   2.828 -0.3578  0.1353 -0.1397
 2820ntf    fn415292   0.118   3.265   2.762 -0.5115  0.2789  0.2297
 2820ntf    fn415293   0.209   3.219   2.957 -0.1333 -0.3832 -0.3230
 2820ntf    on515294   0.465   3.145   2.817  0.3075 -0.2359 -0.4161
 2820ntf    on515295   0.276   2.994   2.800 -0.4616  0.0888 -0.1305
 2820ntf    on515296   0.252   3.131   2.378 -0.1595  0.0094  0.6509
 2820ntf    on515297   0.376   2.944   2.483  0.2600  0.2342  0.5033
 2820ntf    fn415298   0.478   3.291   2.390 -0.1898 -0.1101  0.1533
 2820ntf    fn415299   0.601   3.138   2.488  0.3332 -0.1755  0.1479
 2820ntf    fn415300   0.543   3.119   2.291 -0.1340 -0.8929  0.4319
 2821ntf    cn115301   2.961   5.503   3.467  0.2017  0.0585 -0.0954
 2821ntf    sn215302   2.840   5.378   3.520  0.0779  0.1487 -0.1680
 2821ntf    nn315303   2.704   5.431   3.461 -0.1676  0.0366  0.2930
 2821ntf    sn215304   2.646   5.370   3.329  0.0808  0.6131 -0.0861
 2821ntf    cn115305   2.519   5.496   3.296 -0.5568 -0.1234 -0.4863
 2821ntf    fn415306   2.955   5.526   3.337 -0.1195  0.0805 -0.0787
 2821ntf    fn415307   2.935   5.623   3.516  0.0184 -0.0080 -0.0261
 2821ntf    fn415308   3.083   5.462   3.497  0.2729  0.3022 -0.0480
 2821ntf    on515309   2.893   5.262   3.453  0.1128  0.0134  0.0943
 2821ntf    on515310   2.833   5.379   3.664 -0.3278  0.5591 -0.1853
 2821ntf    on515311   2.573   5.246   3.340  0.1409  0.5559 -0.3209
 2821ntf    on515312   2.734   5.383   3.216 -0.0271 -0.6239 -0.3274
 2821ntf    fn415313   2.431   5.519   3.392  0.1074 -0.6145  0.2506
 2821ntf    fn415314   2.578   5.609   3.261 -0.2247 -0.2304 -0.2694
 2821ntf    fn415315   2.446   5.462   3.190 -0.2887 -0.1713 -0.6570
 2822ntf    cn115316   3.408   3.141   0.341 -0.1133  0.0664  0.1799
 2822ntf    sn215317   3.317   3.187   0.191 -0.0049  0.3695  0.2059
 2822ntf    nn315318   3.168   3.161   0.231 -0.0692  0.3927 -0.0170
 2822ntf    sn215319   3.042   3.126   0.144  0.0865  0.0266 -0.0975
 2822ntf    cn115320   3.018   2.955   0.204 -0.3635  0.1618  0.1212
 2822ntf    fn415321   3.541   3.135   0.339 -0.0885  0.7004 -0.5122
 2822ntf    fn415322   3.378   3.224   0.440 -0.3722  0.0845  0.0860
 2822ntf    fn415323   3.370   3.020   0.380  0.1555 -0.1333 -0.1690
 2822ntf    on515324   3.346   3.327   0.170 -0.8629  0.5928  0.4638
 2822ntf    on515325   3.369   3.091   0.097 -0.9629 -0.1262  0.1710
 2822ntf    on515326   3.055   3.110   0.002 -0.4076  0.1065 -0.1541
 2822ntf    on515327   2.920   3.190   0.187 -0.0345 -0.1996 -0.1019
 2822ntf    fn415328   2.950   2.954   0.317 -0.0710  0.5245  0.3048
 2822ntf    fn415329   2.949   2.874   0.126  0.1171  0.1684 -0.3230
 2822ntf    fn415330   3.130   2.891   0.234 -0.0140  0.5087 -0.4138
 2823ntf    cn115331   6.845   4.646   6.061  0.1582 -0.1844 -0.3265
 2823ntf    sn215332   6.792   4.814   6.107  0.0067 -0.2544 -0.2454
 2823ntf    nn315333   6.879   4.823   6.238  0.0719 -0.6758 -0.2593
 2823ntf    sn215334   7.013   4.898   6.267 -0.0568 -0.4574 -0.2261
 2823ntf    cn115335   7.144   4.773   6.252  0.2341 -0.1916  0.0571
 2823ntf    fn415336   6.973   4.643   6.028  0.1943 -0.1553 -0.1897
 2823ntf    fn415337   6.830   4.556   6.157  0.3082  0.2974  0.1557
 2823ntf    fn415338   6.785   4.587   5.959  0.2759  0.4620 -0.7791
 2823ntf    on515339   6.842   4.889   5.995  0.4155  0.1317  0.1867
 2823ntf    on515340   6.649   4.809   6.126 -0.0135  0.2231 -0.2672
 2823ntf    on515341   7.011   4.945   6.403 -0.1037 -0.1140 -0.3433
 2823ntf    on515342   7.049   4.994   6.165  0.0279 -0.2855 -0.0337
 2823ntf    fn415343   7.153   4.749   6.122  0.3674  0.2378 -0.0135
 2823ntf    fn415344   7.263   4.811   6.295  0.0396  0.0707  0.3661
 2823ntf    fn415345   7.115   4.657   6.309 -0.0882 -0.0934  0.0932
 2824ntf    cn115346   1.103   2.872   5.177  0.1199  0.4081  0.1898
 2824ntf    sn215347   1.230   2.988   5.118  0.2041  0.1973 -0.0484
 2824ntf    nn315348   1.170   3.037   4.981 -0.6172 -0.5095  0.0485
 2824ntf    sn215349   1.050   3.136   4.959 -0.0377  0.1402 -0.2077
 2824ntf    cn115350   1.156   3.282   4.930  0.1909  0.0412  0.1224
 2824ntf    fn415351   0.982   2.926   5.175 -0.1633 -0.2233 -0.0397
 2824ntf    fn415352   1.097   2.768   5.095 -0.3334  0.3124  0.3401
 2824ntf    fn415353   1.128   2.819   5.295  0.8249 -0.2084 -0.2227
 2824ntf    on515354   1.232   3.094   5.216  0.1078 -0.0239  0.1936
 2824ntf    on515355   1.352   2.918   5.089  0.0982  0.1158 -0.3024
 2824ntf    on515356   0.979   3.169   5.080 -0.0008  0.0081 -0.1496
 2824ntf    on515357   0.975   3.117   4.838  0.0724 -0.1186 -0.2345
 2824ntf    fn415358   1.215   3.333   5.036 -0.0025  0.2735  0.1212
 2824ntf    fn415359   1.249   3.265   4.837  0.1937 -0.6104  0.2362
 2824ntf    fn415360   1.085   3.388   4.895  0.7459  0.3569 -0.0475
 2825ntf    cn115361   6.465   5.927   4.783 -0.1747  0.4073  0.2073
 2825ntf    sn215362   6.434   5.787   4.895  0.3752  0.1511  0.0447
 2825ntf    nn315363   6.321   5.712   4.817  0.6170 -0.7616  0.5583
 2825ntf    sn215364   6.329   5.597   4.709  0.3893  0.0837 -0.3786
 2825ntf    cn115365   6.295   5.453   4.814 -0.4104  0.2419 -0.4194
 2825ntf    fn415366   6.362   5.993   4.733 -0.0601  0.0819 -0.4860
 2825ntf    fn415367   6.553   6.013   4.831 -0.1079  0.2656  0.3421
 2825ntf    fn415368   6.525   5.888   4.671  0.5399  1.0082  0.3789
 2825ntf    on515369   6.556   5.711   4.910  0.5378  0.3463 -0.2772
 2825ntf    on515370   6.375   5.845   5.013  0.3363 -0.0036  0.1006
 2825ntf    on515371   6.462   5.575   4.658  0.4381  0.2205 -0.3126
 2825ntf    on515372   6.224   5.608   4.611  0.0400 -0.1964 -0.0374
 2825ntf    fn415373   6.400   5.420   4.887 -0.8469 -0.5477 -0.1309
 2825ntf    fn415374   6.194   5.463   4.899  0.1834  0.2866  0.2932
 2825ntf    fn415375   6.269   5.349   4.736 -0.1062 -0.0484 -0.1409
 2826ntf    cn115376   4.147   0.155   3.521  0.1608  0.2397 -0.0311
 2826ntf    sn215377   4.107   0.328   3.483  0.1285  0.1974 -0.1945
 2826ntf    nn315378   4.191   0.369   3.357 -0.0630  0.1788 -0.3289
 2826ntf    sn215379   4.160   0.391   3.205 -0.5004 -0.1023 -0.2845
 2826ntf    cn115380   4.218   0.558   3.164  0.1595 -0.1615  0.3729
 2826ntf    fn415381   4.122   0.085   3.411  0.2083  0.0321  0.0895
 2826ntf    fn415382   4.273   0.135   3.556  0.1518  0.3178  0.0446
 2826ntf    fn415383   4.074   0.099   3.616  0.2172  0.0637 -0.0898
 2826ntf    on515384   3.965   0.315   3.457  0.1766 -0.1483 -0.2848
 2826ntf    on515385   4.138   0.403   3.602  0.4670  0.2212 -0.2976
 2826ntf    on515386   4.031   0.371   3.145 -0.3542  0.0444 -0.6538
 2826ntf    on515387   4.256   0.307   3.137 -0.2317  0.0161 -0.0559
 2826ntf    fn415388   4.156   0.662   3.218 -0.1029 -0.0259 -0.1778
 2826ntf    fn415389   4.345   0.578   3.194  0.0653  0.2082  0.5355
 2826ntf    fn415390   4.219   0.579   3.033  0.3810 -0.5292  0.3172
 2827ntf    cn115391   2.691   2.130   2.468  0.4242 -0.2111 -0.8141
 2827ntf    sn215392   2.543   2.100   2.570  0.6849  0.1886 -0.3107
 2827ntf    nn315393   2.458   2.228   2.540 -0.0747 -0.2980 -0.2753
 2827ntf    sn215394   2.302   2.239   2.546 -0.0539 -0.1833  0.1290
 2827ntf    cn115395   2.293   2.400   2.631 -0.0300 -0.0134 -0.1861
 2827ntf    fn415396   2.758   2.235   2.511  0.1544 -0.3245 -0.0919
 2827ntf    fn415397   2.776   2.029   2.480  0.4179 -0.1353 -0.0370
 2827ntf    fn415398   2.670   2.142   2.338 -0.1237 -0.2328 -0.7297
 2827ntf    on515399   2.502   1.980   2.501 -0.6029  0.1411  0.5067
 2827ntf    on515400   2.589   2.092   2.706 -0.2543 -0.1738 -0.0115
 2827ntf    on515401   2.222   2.153   2.629 -0.2801 -0.3186 -0.2250
 2827ntf    on515402   2.246   2.270   2.416 -0.8672 -0.1493  0.4831
 2827ntf    fn415403   2.362   2.489   2.562  0.3500 -0.0834  0.0962
 2827ntf    fn415404   2.169   2.442   2.648 -0.1907 -0.5140 -0.1064
 2827ntf    fn415405   2.357   2.402   2.747 -0.1177  0.4271 -0.1438
 2828ntf    cn115406   2.394   6.055   1.932  0.1245  0.0045  0.3850
 2828ntf    sn215407   2.323   6.199   1.847  0.1350 -0.0219  0.3321
 2828ntf    nn315408   2.452   6.263   1.785 -0.0581  0.5493  0.5124
 2828ntf    sn215409   2.487   6.357   1.665 -0.0850 -0.0565  0.0258
 2828ntf    cn115410   2.558   6.497   1.757  0.0435  0.0590 -0.2464
 2828ntf    fn415411   2.447   5.966   1.850  0.2955  0.3861  0.0726
 2828ntf    fn415412   2.493   6.096   2.010  0.1222  0.4426  0.1664
 2828ntf    fn415413   2.302   5.989   1.999 -0.8584  0.8152 -0.1289
 2828ntf    on515414   2.226   6.146   1.754  0.2504  0.2871  0.0342
 2828ntf    on515415   2.269   6.277   1.956  0.5141  0.3001  0.2902
 2828ntf    on515416   2.376   6.410   1.591 -0.0285 -0.0214 -0.0346
 2828ntf    on515417   2.600   6.306   1.590  0.1035 -0.2753  0.4564
 2828ntf    fn415418   2.654   6.473   1.845 -0.3047 -0.0614  0.1073
 2828ntf    fn415419   2.602   6.589   1.673  0.2447  0.0011 -0.2064
 2828ntf    fn415420   2.459   6.551   1.826 -0.1648 -0.0672 -0.4435
 2829ntf    cn115421   0.291   3.381   6.313 -0.4526 -0.0463 -0.0540
 2829ntf    sn215422   0.401   3.340   6.452 -0.0884  0.0202 -0.3209
 2829ntf    nn315423   0.534   3.323   6.370  0.1774 -0.9079  0.2855
 2829ntf    sn215424   0.681   3.364   6.407  0.0409 -0.0270 -0.1150
 2829ntf    cn115425   0.710   3.486   6.276 -0.2985  0.1016 -0.0705
 2829ntf    fn415426   0.167   3.401   6.354 -0.3476  0.0133  0.2371
 2829ntf    fn415427   0.324   3.492   6.250 -0.2426 -0.1496 -0.1245
 2829ntf    fn415428   0.289   3.287   6.220  0.5450 -0.0879 -0.0376
 2829ntf    on515429   0.394   3.453   6.542 -0.4059 -0.2789  0.0340
 2829ntf    on515430   0.354   3.213   6.503  0.3822 -0.0593 -0.0782
 2829ntf    on515431   0.787   3.273   6.370 -0.0629 -0.3370  0.3426
 2829ntf    on515432   0.698   3.447   6.524 -0.0935 -0.0858 -0.0529
 2829ntf    fn415433   0.832   3.536   6.279 -0.2820  0.0899 -0.5240
 2829ntf    fn415434   0.683   3.435   6.157 -0.1132 -0.0943 -0.0278
 2829ntf    fn415435   0.627   3.588   6.295 -0.3374  0.0428  0.0759
 2830ntf    cn115436   1.357   5.343   4.343 -0.0490  0.2480  0.3265
 2830ntf    sn215437   1.478   5.404   4.464  0.2131 -0.1480  0.2647
 2830ntf    nn315438   1.535   5.521   4.377 -0.6318 -0.2692 -0.4753
 2830ntf    sn215439   1.551   5.671   4.424 -0.0273 -0.4856  0.0333
 2830ntf    cn115440   1.705   5.697   4.332  0.0337 -0.1823  0.2221
 2830ntf    fn415441   1.274   5.438   4.302 -0.3687  0.2840  1.0380
 2830ntf    fn415442   1.409   5.281   4.239  0.2177  0.4768  0.3244
 2830ntf    fn415443   1.278   5.245   4.384  0.4993 -0.1501  0.4390
 2830ntf    on515444   1.394   5.447   4.573  0.0720  0.6480 -0.1562
 2830ntf    on515445   1.571   5.297   4.489  0.5491 -0.0200 -0.4064
 2830ntf    on515446   1.596   5.696   4.558  0.3170 -0.1621 -0.1423
 2830ntf    on515447   1.460   5.762   4.359  0.2533 -0.7036 -0.6735
 2830ntf    fn415448   1.804   5.629   4.387  0.0194 -0.6107 -0.2739
 2830ntf    fn415449   1.694   5.654   4.207  0.0932 -0.3003  0.2577
 2830ntf    fn415450   1.737   5.825   4.329 -0.4723 -0.0699 -0.5537
 2831ntf    cn115451   4.416   1.523   2.590  0.2466  0.1286 -0.0377
 2831ntf    sn215452   4.453   1.490   2.764 -0.0514  0.1896  0.0377
 2831ntf    nn315453   4.377   1.353   2.782  0.4288 -0.0752  0.0782
 2831ntf    sn215454   4.416   1.202   2.768  0.0551 -0.1854  0.2068
 2831ntf    cn115455   4.421   1.136   2.937  0.2829 -0.1584  0.2111
 2831ntf    fn415456   4.466   1.428   2.512  0.3956  0.1101  0.0799
 2831ntf    fn415457   4.287   1.522   2.560  0.2795  0.3240 -0.1865
 2831ntf    fn415458   4.472   1.638   2.556  0.3718  0.0258 -0.1827
 2831ntf    on515459   4.596   1.496   2.779 -0.0467 -0.0296  0.0900
 2831ntf    on515460   4.378   1.592   2.834  0.3240  0.7895 -0.4357
 2831ntf    on515461   4.544   1.172   2.709  0.0709  0.6998 -0.2357
 2831ntf    on515462   4.303   1.135   2.709  0.3553 -0.3432 -0.1954
 2831ntf    fn415463   4.299   1.143   2.988  0.1044  0.0545 -0.2431
 2831ntf    fn415464   4.463   1.010   2.933  0.3185 -0.1463  0.2058
 2831ntf    fn415465   4.508   1.192   3.019  0.1967  0.2364  0.0346
 2832ntf    cn115466   1.379   2.161   3.548  0.2640 -0.8099  0.0746
 2832ntf    sn215467   1.315   2.319   3.612  0.4139 -0.6538 -0.1623
 2832ntf    nn315468   1.168   2.310   3.558  0.1668 -0.6702  0.5141
 2832ntf    sn215469   1.113   2.341   3.415  0.4579 -0.3176  0.4772
 2832ntf    cn115470   0.980   2.454   3.465  0.5140  0.0231 -0.1343
 2832ntf    fn415471   1.306   2.063   3.600 -0.4097 -0.3463  0.0197
 2832ntf    fn415472   1.370   2.154   3.416 -0.0392  0.5430  0.0071
 2832ntf    fn415473   1.501   2.137   3.591  0.6779  0.4359 -0.3586
 2832ntf    on515474   1.312   2.297   3.754  0.0105 -0.6522 -0.1699
 2832ntf    on515475   1.407   2.414   3.554  0.0426 -0.1309  0.1034
 2832ntf    on515476   1.056   2.223   3.356 -0.5459  0.1066  0.5846
 2832ntf    on515477   1.195   2.422   3.327  0.2430 -0.3878  0.2104
 2832ntf    fn415478   0.907   2.496   3.363  0.2703 -0.4271 -0.1471
 2832ntf    fn415479   0.893   2.404   3.550  0.0600 -0.0591 -0.6409
 2832ntf    fn415480   1.027   2.564   3.522 -0.0042 -0.0447  0.4285
 2833ntf    cn115481   5.331   6.322   6.052 -0.7346 -0.2455 -0.0442
 2833ntf    sn215482   5.162   6.378   6.090 -0.7022 -0.1735 -0.0086
 2833ntf    nn315483   5.143   6.294   6.222 -0.3868 -0.4293 -0.1242
 2833ntf    sn215484   5.089   6.148   6.244 -0.2149 -0.4847 -0.0760
 2833ntf    cn115485   4.914   6.196   6.259 -0.0793 -0.0461  0.1624
 2833ntf    fn415486   5.376   6.344   5.930  0.5454 -0.6096  0.3548
 2833ntf    fn415487   5.421   6.367   6.138 -0.3467 -0.5173 -0.3049
 2833ntf    fn415488   5.330   6.190   6.063  0.7344 -0.2552  0.1535
 2833ntf    on515489   5.181   6.519   6.116 -0.4652 -0.0692 -0.7225
 2833ntf    on515490   5.094   6.336   5.970 -0.6620  0.1496 -0.1467
 2833ntf    on515491   5.122   6.087   6.371 -0.1836 -0.5136 -0.0979
 2833ntf    on515492   5.108   6.062   6.131  0.2598 -0.6243  0.1049
 2833ntf    fn415493   4.863   6.223   6.140 -0.2150 -0.3120  0.1595
 2833ntf    fn415494   4.834   6.104   6.310 -0.3844  0.2554  0.2254
 2833ntf    fn415495   4.893   6.304   6.332  0.4372  0.0937  0.1117
 2834ntf    cn115496   5.271   6.800   1.899  0.2942 -0.0608  0.2920
 2834ntf    sn215497   5.374   6.917   1.993  0.2593  0.0860  0.1458
 2834ntf    nn315498   5.269   6.971   2.097  0.2048  0.3594 -0.0468
 2834ntf    sn215499   5.160   7.084   2.098 -0.0398  0.1272 -0.1481
 2834ntf    cn115500   5.018   6.991   2.164  0.1332  0.2115  0.3528
 2834ntf    fn415501   5.189   6.733   1.979  0.4301 -0.5516  0.0251
 2834ntf    fn415502   5.198   6.859   1.807 -0.0713 -0.3082  0.4218
 2834ntf    fn415503   5.360   6.723   1.838  0.4249 -0.0506  0.4680
 2834ntf    on515504   5.473   6.831   2.052 -0.0288 -0.4481 -0.1408
 2834ntf    on515505   5.423   7.012   1.896  0.0260 -0.5505 -0.6045
 2834ntf    on515506   5.114   7.124   1.968 -0.1228  0.0948 -0.1286
 2834ntf    on515507   5.183   7.185   2.199 -0.6698  0.3784 -0.2538
 2834ntf    fn415508   5.036   6.951   2.289 -0.3790 -0.2294  0.2919
 2834ntf    fn415509   4.913   7.070   2.169 -0.0282 -0.0097  0.4768
 2834ntf    fn415510   4.984   6.889   2.086 -0.3024  0.4776  0.1936
 2835ntf    cn115511   0.504   4.017   0.750 -0.1380 -0.5366 -0.1491
 2835ntf    sn215512   0.477   4.164   0.854 -0.2913 -0.5012 -0.2388
 2835ntf    nn315513   0.429   4.266   0.746 -0.4461 -0.4259 -0.0991
 2835ntf    sn215514   0.292   4.338   0.715 -0.0095  0.2382 -0.5204
 2835ntf    cn115515   0.357   4.480   0.622  0.2170  0.1482 -0.5023
 2835ntf    fn415516   0.512   4.035   0.620 -0.0001 -0.0426 -0.0751
 2835ntf    fn415517   0.616   3.952   0.779 -0.0132 -0.1955  0.1482
 2835ntf    fn415518   0.403   3.933   0.761 -0.4467 -0.1362  0.0955
 2835ntf    on515519   0.377   4.117   0.947  0.2448 -0.5734  0.3109
 2835ntf    on515520   0.607   4.193   0.911 -0.5212  0.3243 -0.1251
 2835ntf    on515521   0.226   4.393   0.831  0.6661 -0.1335  0.0494
 2835ntf    on515522   0.215   4.262   0.620 -0.2015  0.0807 -0.2373
 2835ntf    fn415523   0.452   4.545   0.686 -0.0438 -0.4505  0.5209
 2835ntf    fn415524   0.416   4.453   0.507  0.7354  0.1144 -0.2283
 2835ntf    fn415525   0.259   4.565   0.598 -0.1122  0.0217  0.3518
 2836ntf    cn115526   3.036   0.517   6.439 -0.0086  0.2501 -0.3145
 2836ntf    sn215527   2.955   0.399   6.327  0.1383  0.0946 -0.2567
 2836ntf    nn315528   3.050   0.274   6.326 -0.0881 -0.0821 -0.0581
 2836ntf    sn215529   3.164   0.236   6.225 -0.2082 -0.0140 -0.2195
 2836ntf    cn115530   3.089   0.102   6.128 -0.1645 -0.0173 -0.2487
 2836ntf    fn415531   3.155   0.548   6.391  0.2489 -0.2995 -0.0239
 2836ntf    fn415532   2.965   0.629   6.443 -0.1175  0.1574  0.5115
 2836ntf    fn415533   3.045   0.483   6.566  0.0198  0.0126 -0.3795
 2836ntf    on515534   2.841   0.364   6.409  0.2859 -0.4681 -0.2895
 2836ntf    on515535   2.926   0.477   6.209 -0.7147  0.2113  0.0182
 2836ntf    on515536   3.275   0.169   6.288 -0.1669  0.3906  0.1424
 2836ntf    on515537   3.193   0.334   6.123  0.4218  0.1842  0.1426
 2836ntf    fn415538   3.013   0.148   6.030 -0.4833 -0.7206 -0.3360
 2836ntf    fn415539   3.183   0.023   6.077  0.0789 -0.0408  0.2273
 2836ntf    fn415540   3.011   0.027   6.203  0.3004 -0.0729  0.1867
 2837ntf    cn115541   0.293   2.829   5.604 -0.1308 -0.2080  0.0441
 2837ntf    sn215542   0.270   3.009   5.619  0.1423 -0.1865  0.2101
 2837ntf    nn315543   0.209   3.017   5.763 -0.0773  0.1264  0.0999
 2837ntf    sn215544   0.278   2.990   5.901  0.4104  0.2636 -0.1153
 2837ntf    cn115545   0.335   3.158   5.942  0.3216  0.1502  0.4900
 2837ntf    fn415546   0.322   2.798   5.478  0.0539  0.0609  0.0192
 2837ntf    fn415547   0.391   2.779   5.678  0.2760 -0.0196 -0.3541
 2837ntf    fn415548   0.189   2.756   5.637 -0.1602  0.1278  0.6978
 2837ntf    on515549   0.395   3.076   5.588  0.5538 -1.1187 -0.1876
 2837ntf    on515550   0.166   3.033   5.522  0.4143  0.3546  0.0447
 2837ntf    on515551   0.403   2.917   5.907  0.2628 -0.0419 -0.7158
 2837ntf    on515552   0.179   2.954   6.000  0.0002 -0.2740 -0.7164
 2837ntf    fn415553   0.396   3.160   6.059  0.1107  0.0332  0.6043
 2837ntf    fn415554   0.424   3.201   5.854 -0.0277 -0.3581 -0.1223
 2837ntf    fn415555   0.235   3.243   5.957  0.2170  0.0940  0.1430
 2838ntf    cn115556   6.031   6.943   4.022 -0.0019  0.0026  0.6840
 2838ntf    sn215557   5.906   6.857   4.122 -0.2706 -0.2425  0.1402
 2838ntf    nn315558   5.985   6.725   4.151  0.1318 -0.0703 -0.1661
 2838ntf    sn215559   5.956   6.582   4.094 -0.2027 -0.1457  0.1923
 2838ntf    cn115560   6.117   6.544   4.019 -0.1100 -0.0579  0.3447
 2838ntf    fn415561   6.092   6.861   3.937  0.0552  0.2544  0.4829
 2838ntf    fn415562   5.983   7.045   3.954  0.4290  0.0107  0.3901
 2838ntf    fn415563   6.117   6.989   4.111  0.8464 -0.5346  0.1611
 2838ntf    on515564   5.890   6.943   4.236 -0.4779  0.2452 -0.2505
 2838ntf    on515565   5.786   6.857   4.041 -0.1224  0.6257 -0.0948
 2838ntf    on515566   5.868   6.570   3.980  0.2133 -0.5545 -0.0876
 2838ntf    on515567   5.937   6.478   4.192  0.0373 -0.1598  0.2227
 2838ntf    fn415568   6.101   6.436   3.944  0.2070  0.3668 -0.3443
 2838ntf    fn415569   6.153   6.642   3.937  0.5777 -0.4459  0.1817
 2838ntf    fn415570   6.219   6.517   4.098  0.2722  0.0508 -0.1075
 2839ntf    cn115571   3.418   0.506   2.483  0.2919  0.0409  0.3809
 2839ntf    sn215572   3.509   0.661   2.508  0.0082  0.2097  0.3685
 2839ntf    nn315573   3.603   0.663   2.382 -0.4486  0.3452  0.0277
 2839ntf    sn215574   3.576   0.735   2.245 -0.2227 -0.0307 -0.2141
 2839ntf    cn115575   3.619   0.592   2.142  0.0885  0.1167 -0.2919
 2839ntf    fn415576   3.348   0.514   2.371  0.0068  0.8653  0.6123
 2839ntf    fn415577   3.491   0.395   2.481 -0.0352 -0.1678 -0.1352
 2839ntf    fn415578   3.335   0.487   2.584  0.1164  0.1006  0.2486
 2839ntf    on515579   3.411   0.767   2.514 -0.0770  0.1735 -0.3682
 2839ntf    on515580   3.587   0.639   2.628 -0.1067 -0.0435  0.3976
 2839ntf    on515581   3.677   0.834   2.213 -0.0462 -0.3337 -0.6003
 2839ntf    on515582   3.439   0.758   2.209 -0.3077 -0.3422 -0.0878
 2839ntf    fn415583   3.749   0.571   2.132  0.0143 -0.2716 -0.4628
 2839ntf    fn415584   3.586   0.476   2.197 -0.0184  0.0874 -0.4176
 2839ntf    fn415585   3.570   0.602   2.019  0.1106 -0.1136 -0.3200
 2840ntf    cn115586   5.431   3.250   5.865  0.5826 -0.2176  0.0693
 2840ntf    sn215587   5.398   3.115   5.982 -0.0148 -0.2421 -0.1237
 2840ntf    nn315588   5.286   3.040   5.901 -0.1933 -0.5112  0.3703
 2840ntf    sn215589   5.135   3.013   5.935 -0.2318 -0.0843  0.5584
 2840ntf    cn115590   5.049   3.173   5.943  0.0996  0.1238  0.0149
 2840ntf    fn415591   5.335   3.342   5.869  0.3751 -0.4368  0.2110
 2840ntf    fn415592   5.551   3.304   5.880  0.2893  0.3623  0.3902
 2840ntf    fn415593   5.442   3.206   5.741  0.0385  0.2211 -0.1399
 2840ntf    on515594   5.520   3.040   5.973  0.5510  0.6686 -0.2311
 2840ntf    on515595   5.363   3.182   6.105 -0.4825 -0.0199 -0.3735
 2840ntf    on515596   5.133   2.968   6.072  0.1131  0.6812  0.8189
 2840ntf    on515597   5.067   2.928   5.840 -0.0535  0.1235  0.2457
 2840ntf    fn415598   5.082   3.257   5.846  0.3388 -0.0313 -0.0390
 2840ntf    fn415599   4.918   3.161   5.950  0.0954  0.1589 -0.0017
 2840ntf    fn415600   5.079   3.237   6.055  0.0339  0.1015  0.0442
 2841ntf    cn115601   0.233   4.994   0.457  0.6100  0.5860  0.1525
 2841ntf    sn215602   0.117   5.108   0.538  0.0201  0.1096 -0.0116
 2841ntf    nn315603  -0.017   5.027   0.523 -0.1821  0.3804  0.3030
 2841ntf    sn215604  -0.128   5.033   0.413 -0.1502 -0.4356  0.2151
 2841ntf    cn115605  -0.248   5.145   0.492  0.1209  0.0028  0.0099
 2841ntf    fn415606   0.361   5.011   0.485  0.8944  0.0013 -0.7453
 2841ntf    fn415607   0.203   4.868   0.485 -0.3807  0.6767 -0.4414
 2841ntf    fn415608   0.218   5.008   0.326 -0.1446  0.4120  0.2151
 2841ntf    on515609   0.177   5.110   0.669 -0.2433 -0.3494  0.1197
 2841ntf    on515610   0.118   5.232   0.464 -0.9611  0.4363  0.5060
 2841ntf    on515611  -0.199   4.909   0.399  0.4323 -0.7445  0.0040
 2841ntf    on515612  -0.109   5.108   0.291  0.5106 -0.1210  0.5096
 2841ntf    fn415613  -0.354   5.157   0.414  0.4339 -0.1006 -0.4360
 2841ntf    fn415614  -0.292   5.094   0.606  0.3158 -0.1438  0.0196
 2841ntf    fn415615  -0.198   5.265   0.519  0.7948 -0.2097 -0.2783
 2842ntf    cn115616   0.144   4.003   2.292 -0.0184  0.1606  0.1707
 2842ntf    sn215617   0.210   4.077   2.139 -0.3874 -0.0429 -0.0875
 2842ntf    nn315618   0.142   3.975   2.040 -0.2335 -0.3914  0.1643
 2842ntf    sn215619   0.002   3.987   1.971 -0.1150 -0.3807 -0.0761
 2842ntf    cn115620   0.045   4.065   1.813  0.1051 -0.1659  0.0892
 2842ntf    fn415621   0.012   4.011   2.294 -0.0472 -0.2324 -0.0944
 2842ntf    fn415622   0.172   3.874   2.295 -0.5781  0.0486  0.6455
 2842ntf    fn415623   0.194   4.050   2.405  0.4171  0.0896  0.0106
 2842ntf    on515624   0.153   4.209   2.137 -0.6235 -0.1355  0.2679
 2842ntf    on515625   0.351   4.057   2.159 -0.3882 -0.2310 -0.2645
 2842ntf    on515626  -0.093   4.078   2.032  0.4141 -0.0626  0.2796
 2842ntf    on515627  -0.050   3.856   1.941 -0.3463 -0.3376  0.1303
 2842ntf    fn415628  -0.051   4.059   1.722  0.2200  0.6878 -0.1037
 2842ntf    fn415629   0.061   4.197   1.812  0.1761 -0.1704  0.5638
 2842ntf    fn415630   0.151   4.006   1.760 -0.1438 -0.2943 -0.2708
 2843ntf    cn115631   3.897   3.549   1.595  0.4559 -0.1569  0.2966
 2843ntf    sn215632   3.946   3.571   1.769  0.2113 -0.2114  0.3723
 2843ntf    nn315633   3.833   3.671   1.813  0.4562  0.3350 -0.2346
 2843ntf    sn215634   3.826   3.760   1.942 -0.2284  0.0151 -0.0494
 2843ntf    cn115635   3.716   3.664   2.051 -0.4033  0.1277 -0.1261
 2843ntf    fn415636   3.917   3.655   1.518 -0.2802 -0.4036 -0.2449
 2843ntf    fn415637   3.967   3.451   1.541 -0.0573 -0.9921  1.1124
 2843ntf    fn415638   3.770   3.513   1.586  0.3141  0.2944  0.4287
 2843ntf    on515639   3.916   3.444   1.831 -0.4358 -0.3496 -0.2078
 2843ntf    on515640   4.084   3.611   1.759  0.0813  0.0657 -0.4341
 2843ntf    on515641   3.748   3.881   1.932  0.4797  0.5044  0.2548
 2843ntf    on515642   3.946   3.768   2.022 -0.0840  0.0309 -0.2681
 2843ntf    fn415643   3.766   3.541   2.057 -0.2404  0.2083  0.1706
 2843ntf    fn415644   3.710   3.720   2.170  0.6733  0.4592 -0.2151
 2843ntf    fn415645   3.596   3.636   2.003 -0.3519  0.2947 -0.3562
 2844ntf    cn115646   4.670   0.254   0.233 -0.0135  0.1543 -0.0133
 2844ntf    sn215647   4.614   0.134   0.358  0.2082  0.0645  0.0020
 2844ntf    nn315648   4.470   0.195   0.379  0.5276  0.5554  0.8102
 2844ntf    sn215649   4.371   0.179   0.500 -0.1056 -0.1795  0.2031
 2844ntf    cn115650   4.270   0.036   0.449 -0.2978 -0.0710  0.2757
 2844ntf    fn415651   4.568   0.285   0.156  0.4263 -0.0118 -0.6698
 2844ntf    fn415652   4.705   0.371   0.284  0.0874 -0.0417  0.3762
 2844ntf    fn415653   4.767   0.206   0.157 -0.0549 -0.4902  0.3300
 2844ntf    on515654   4.612   0.006   0.293  0.0559 -0.1686  0.4578
 2844ntf    on515655   4.696   0.156   0.474 -0.2504  0.3293  0.2814
 2844ntf    on515656   4.276   0.287   0.504  0.0886  0.0047 -0.1193
 2844ntf    on515657   4.423   0.137   0.627 -0.1907 -0.1991  0.2319
 2844ntf    fn415658   4.223   0.044   0.326  0.1751 -0.1651  0.0848
 2844ntf    fn415659   4.329  -0.082   0.442  0.4606  0.3428 -0.6997
 2844ntf    fn415660   4.163   0.016   0.523  0.0063 -0.3226  0.6478
 2845ntf    cn115661   0.097   2.687   0.873 -0.3173  0.0698  0.2017
 2845ntf    sn215662   0.137   2.617   0.710 -0.1134  0.4276  0.0967
 2845ntf    nn315663   0.289   2.577   0.708 -0.2520 -0.0806 -0.6832
 2845ntf    sn215664   0.358   2.438   0.681 -0.0544 -0.0895 -0.1389
 2845ntf    cn115665   0.437   2.479   0.522 -0.0563 -0.4888 -0.2437
 2845ntf    fn415666  -0.032   2.715   0.888 -0.3663 -0.4251  0.7246
 2845ntf    fn415667   0.120   2.603   0.972  0.1732 -0.2582 -0.1860
 2845ntf    fn415668   0.167   2.794   0.905  0.7527 -0.4709 -0.2807
 2845ntf    on515669   0.042   2.510   0.689  0.4973  0.0206 -0.6415
 2845ntf    on515670   0.119   2.732   0.625 -0.1166  0.2642 -0.1245
 2845ntf    on515671   0.274   2.325   0.650 -0.0448 -0.3732  0.8431
 2845ntf    on515672   0.464   2.430   0.779 -0.2389  0.7891  0.1463
 2845ntf    fn415673   0.349   2.475   0.423 -0.2756  0.3099 -0.0874
 2845ntf    fn415674   0.506   2.591   0.511 -0.2555 -0.2833  0.5053
 2845ntf    fn415675   0.526   2.388   0.486  0.2592 -0.3326  0.1375
 2846ntf    cn115676   4.074   4.497   2.562 -0.1634 -0.0859  0.2489
 2846ntf    sn215677   4.092   4.484   2.382 -0.1310 -0.2202  0.2617
 2846ntf    nn315678   4.094   4.636   2.342  0.0805 -0.2157  0.2828
 2846ntf    sn215679   4.020   4.707   2.223  0.0187  0.1595  0.5444
 2846ntf    cn115680   3.867   4.759   2.305  0.0110 -0.0743  0.6774
 2846ntf    fn415681   4.162   4.580   2.615  0.3691  0.0350 -0.7957
 2846ntf    fn415682   3.950   4.532   2.594 -0.1738  0.0692  0.0402
 2846ntf    fn415683   4.095   4.380   2.621  0.2763 -0.1861 -0.1066
 2846ntf    on515684   4.212   4.404   2.376 -0.0504 -0.1151  0.4720
 2846ntf    on515685   3.967   4.418   2.356 -0.0730 -0.3158  0.2239
 2846ntf    on515686   3.987   4.621   2.113  0.4629 -0.1324  0.6376
 2846ntf    on515687   4.093   4.827   2.187  0.3993 -0.2124  0.0605
 2846ntf    fn415688   3.767   4.761   2.219  0.4354  0.0017  0.1795
 2846ntf    fn415689   3.823   4.682   2.403 -0.5671  0.1159  0.5713
 2846ntf    fn415690   3.868   4.882   2.356 -0.0017  0.0324  0.4212
 2847ntf    cn115691   2.181   6.178   0.940  0.3047  0.0360  0.1618
 2847ntf    sn215692   2.324   6.072   0.901  0.0948 -0.2582  0.1926
 2847ntf    nn315693   2.311   6.065   0.744  0.5061 -0.3371  0.1613
 2847ntf    sn215694   2.390   6.145   0.635 -0.0258  0.1504  0.1293
 2847ntf    cn115695   2.521   6.023   0.604  0.1982  0.3523  0.2820
 2847ntf    fn415696   2.066   6.113   0.951  0.3000  0.0737  0.3357
 2847ntf    fn415697   2.195   6.248   1.052 -0.3283 -0.3300  0.4742
 2847ntf    fn415698   2.151   6.272   0.852 -0.1285 -0.0778  0.1878
 2847ntf    on515699   2.439   6.140   0.954  0.1723 -0.4557  0.2780
 2847ntf    on515700   2.294   5.945   0.963  0.9472 -0.3075  0.5154
 2847ntf    on515701   2.458   6.265   0.678  0.0327 -0.0318  0.5476
 2847ntf    on515702   2.310   6.139   0.515  0.0886 -0.2686  0.0735
 2847ntf    fn415703   2.627   6.042   0.682  0.2745  0.2537  0.2017
 2847ntf    fn415704   2.480   5.898   0.614  0.3498  0.2008 -0.8382
 2847ntf    fn415705   2.561   6.049   0.480  0.1595  0.3781  0.2750
 2848ntf    cn115706   2.881   3.967   0.274 -0.3233 -0.0762 -0.2869
 2848ntf    sn215707   2.938   3.795   0.263 -0.0875 -0.0179  0.0081
 2848ntf    nn315708   3.001   3.767   0.404 -0.3994  0.1279  0.1776
 2848ntf    sn215709   2.968   3.652   0.505 -0.4690 -0.0127 -0.0051
 2848ntf    cn115710   2.884   3.751   0.632  0.2497  0.1053  0.3828
 2848ntf    fn415711   2.982   4.053   0.277 -0.3565 -0.0306 -0.4443
 2848ntf    fn415712   2.801   3.995   0.172 -0.0802 -0.0306 -0.4675
 2848ntf    fn415713   2.806   4.004   0.376  0.3232  0.3255  0.0455
 2848ntf    on515714   2.817   3.724   0.228 -0.2459  0.0998  0.3186
 2848ntf    on515715   3.039   3.797   0.160  0.0093 -0.1205  0.1022
 2848ntf    on515716   3.082   3.605   0.580  0.1730  1.1178 -0.2457
 2848ntf    on515717   2.873   3.553   0.460 -0.6761  0.4959 -0.6973
 2848ntf    fn415718   2.773   3.807   0.587 -0.3151 -0.7829  0.6324
 2848ntf    fn415719   2.848   3.684   0.741 -0.0690 -0.4114 -0.0361
 2848ntf    fn415720   2.972   3.844   0.667  0.2100  0.1234  0.4361
 2849ntf    cn115721   2.593   4.992   5.873  0.5490 -0.0263 -0.3440
 2849ntf    sn215722   2.429   4.950   5.939  0.3713  0.5507 -0.4084
 2849ntf    nn315723   2.399   4.837   5.834 -0.3382  0.7234 -0.3958
 2849ntf    sn215724   2.274   4.742   5.833  0.1941  0.0100 -0.0847
 2849ntf    cn115725   2.359   4.582   5.853 -0.0437 -0.1452 -0.3012
 2849ntf    fn415726   2.665   5.042   5.972 -0.2131  0.1797  0.1160
 2849ntf    fn415727   2.663   4.887   5.834 -0.0211 -0.5166 -0.0465
 2849ntf    fn415728   2.585   5.083   5.777 -0.4655  0.3738  0.1078
 2849ntf    on515729   2.456   4.895   6.069 -0.3572 -0.3448 -0.6244
 2849ntf    on515730   2.355   5.073   5.925  0.0295  0.4431  0.4114
 2849ntf    on515731   2.209   4.730   5.704  0.2812 -0.2540 -0.1053
 2849ntf    on515732   2.187   4.745   5.947 -0.5305  0.2555 -0.6329
 2849ntf    fn415733   2.454   4.577   5.761  0.3604  0.7833  0.0533
 2849ntf    fn415734   2.423   4.578   5.969  0.3177 -0.2127 -0.5025
 2849ntf    fn415735   2.278   4.478   5.847  0.0250 -0.2335  0.2432
 2850ntf    cn115736   0.793   2.948   0.206  0.0102 -0.1492 -0.3838
 2850ntf    sn215737   0.817   3.126   0.236 -0.3569 -0.1231 -0.2281
 2850ntf    nn315738   0.969   3.152   0.206 -0.1942  0.0373  0.7097
 2850ntf    sn215739   1.092   3.108   0.293  0.2870 -0.2042 -0.0797
 2850ntf    cn115740   1.136   3.266   0.370 -0.0105 -0.1216 -0.0761
 2850ntf    fn415741   0.852   2.872   0.297 -0.1736  0.3007  0.1159
 2850ntf    fn415742   0.665   2.913   0.214 -0.2303  0.7394 -0.2674
 2850ntf    fn415743   0.842   2.911   0.089  0.1780 -0.4519 -0.2176
 2850ntf    on515744   0.736   3.186   0.133 -0.0379  0.6786 -0.0180
 2850ntf    on515745   0.773   3.140   0.372 -0.4859  0.1763 -0.2999
 2850ntf    on515746   1.206   3.082   0.209  0.3287  0.3102 -0.1832
 2850ntf    on515747   1.065   3.019   0.403  0.0832  0.5295  0.4664
 2850ntf    fn415748   1.252   3.265   0.435  0.1876 -0.3787 -0.4296
 2850ntf    fn415749   1.153   3.359   0.276  0.2352 -0.0013  0.0851
 2850ntf    fn415750   1.046   3.317   0.452  0.0767  0.4238 -0.3155
 2851ntf    cn115751   2.410   0.073   6.078 -0.4819  0.0607 -0.1824
 2851ntf    sn215752   2.334   0.002   5.929 -0.6550  0.1399 -0.1328
 2851ntf    nn315753   2.368  -0.150   5.947  0.1868  0.3394  0.0106
 2851ntf    sn215754   2.292  -0.250   6.041  0.2709 -0.1260 -0.4111
 2851ntf    cn115755   2.192  -0.347   5.925  0.1455 -0.1923 -0.2486
 2851ntf    fn415756   2.374   0.004   6.185 -0.0238  0.1421  0.0263
 2851ntf    fn415757   2.541   0.083   6.070 -0.4503  0.1381  0.4249
 2851ntf    fn415758   2.371   0.199   6.091 -0.1256  0.1614 -0.0910
 2851ntf    on515759   2.197   0.046   5.941 -0.3793  0.9167  0.2688
 2851ntf    on515760   2.414   0.057   5.822  0.3714  0.0991  0.6025
 2851ntf    on515761   2.196  -0.205   6.138  0.2652 -0.7466 -0.1205
 2851ntf    on515762   2.393  -0.343   6.088  0.0349 -0.2369 -0.1240
 2851ntf    fn415763   2.155  -0.465   5.973  0.3532 -0.2993 -0.3472
 2851ntf    fn415764   2.077  -0.291   5.894 -0.2571 -0.7305  0.2360
 2851ntf    fn415765   2.257  -0.373   5.812  0.1085  0.7044 -0.4801
 2852ntf    cn115766   4.918   1.540   4.104  0.1606  0.0186  0.1936
 2852ntf    sn215767   4.870   1.370   4.057 -0.0300  0.0247  0.3647
 2852ntf    nn315768   4.849   1.304   4.198 -0.3574  0.0389  0.3238
 2852ntf    sn215769   4.941   1.191   4.255 -0.0836  0.0731 -0.0449
 2852ntf    cn115770   4.887   1.046   4.160  0.1912  0.0610 -0.1840
 2852ntf    fn415771   4.823   1.630   4.122  0.3256  0.1307  0.4937
 2852ntf    fn415772   4.988   1.537   4.216 -0.2438 -0.4807  0.4358
 2852ntf    fn415773   5.004   1.588   4.016 -0.4373  0.0206 -0.3957
 2852ntf    on515774   4.752   1.410   3.985  0.2449 -0.8194 -0.5769
 2852ntf    on515775   4.979   1.316   3.981 -0.2666 -0.4042  0.3326
 2852ntf    on515776   4.901   1.156   4.389  0.2592 -0.8252 -0.1642
 2852ntf    on515777   5.083   1.210   4.235 -0.0100 -0.2080  0.1838
 2852ntf    fn415778   4.883   0.940   4.239 -0.1433  0.2891  0.1033
 2852ntf    fn415779   4.762   1.053   4.116  0.0705  0.0341  0.1577
 2852ntf    fn415780   4.960   1.009   4.055 -0.1592 -0.3218 -0.2968
 2853ntf    cn115781   6.702   6.148   5.139  0.0873  0.2735 -0.1790
 2853ntf    sn215782   6.881   6.169   5.165  0.1005 -0.0193 -0.0266
 2853ntf    nn315783   6.879   6.254   5.297 -0.1101  0.3031 -0.2359
 2853ntf    sn215784   6.972   6.376   5.330  0.0022  0.1140  0.1485
 2853ntf    cn115785   6.869   6.514   5.274  0.2436  0.1530 -0.2010
 2853ntf    fn415786   6.631   6.259   5.138 -0.2501  0.0747  0.6917
 2853ntf    fn415787   6.684   6.101   5.017 -0.3417  0.3338 -0.1382
 2853ntf    fn415788   6.648   6.055   5.217  0.4369  0.2053 -0.0144
 2853ntf    on515789   6.918   6.031   5.189  0.1558 -0.0394 -0.2273
 2853ntf    on515790   6.931   6.240   5.050  0.1021 -0.3224 -0.2157
 2853ntf    on515791   7.093   6.396   5.255 -0.1259  0.2403 -0.0240
 2853ntf    on515792   6.980   6.409   5.470 -0.8513  0.4114  0.1317
 2853ntf    fn415793   6.931   6.594   5.189 -0.3610  0.3615 -0.4549
 2853ntf    fn415794   6.765   6.466   5.208  0.1695 -0.0392  0.0544
 2853ntf    fn415795   6.832   6.593   5.374  0.0011 -0.1102 -0.0832
 2854ntf    cn115796   6.783   1.910   0.311  0.0149  0.0738 -0.1892
 2854ntf    sn215797   6.871   2.049   0.234  0.4156 -0.1362 -0.1142
 2854ntf    nn315798   7.017   2.019   0.284  0.1742 -0.2291  0.5418
 2854ntf    sn215799   7.123   1.933   0.207  0.0602  0.0018  0.1288
 2854ntf    cn115800   7.234   1.881   0.340 -0.0457 -0.2056  0.1362
 2854ntf    fn415801   6.654   1.910   0.284 -0.1107  0.5815  0.3874
 2854ntf    fn415802   6.829   1.789   0.282  0.5710  0.2138  0.1021
 2854ntf    fn415803   6.779   1.932   0.442 -0.4476  0.4173 -0.2599
 2854ntf    on515804   6.838   2.039   0.094  0.4942 -0.0803 -0.1371
 2854ntf    on515805   6.812   2.164   0.298 -0.1008 -0.5447  0.1496
 2854ntf    on515806   7.203   2.015   0.118 -0.3870 -0.4132 -0.6715
 2854ntf    on515807   7.060   1.812   0.161  0.1767  0.1334 -0.3874
 2854ntf    fn415808   7.177   1.912   0.456  0.0449 -0.0412  0.1371
 2854ntf    fn415809   7.261   1.752   0.356  0.5697 -0.1520 -0.4399
 2854ntf    fn415810   7.351   1.943   0.337 -0.1228 -0.0534  0.2366
 2855ntf    cn115811   6.696   0.417   1.052 -0.5727 -0.0007  0.0522
 2855ntf    sn215812   6.740   0.243   1.081 -0.1199  0.1307  0.1666
 2855ntf    nn315813   6.601   0.170   1.082  0.1064 -0.3269 -0.5164
 2855ntf    sn215814   6.520   0.100   0.968 -0.0985 -0.2890 -0.3961
 2855ntf    cn115815   6.354   0.173   0.964  0.1007  0.1877  0.0629
 2855ntf    fn415816   6.650   0.450   0.933  0.0966 -0.0268 -0.2182
 2855ntf    fn415817   6.596   0.457   1.128  0.0926  0.2915  0.7911
 2855ntf    fn415818   6.795   0.501   1.079 -0.6783  0.2546 -0.3492
 2855ntf    on515819   6.828   0.201   0.974 -0.3573  0.4811 -0.1662
 2855ntf    on515820   6.803   0.235   1.211  0.4467  0.1095 -0.1055
 2855ntf    on515821   6.498  -0.040   0.994 -0.8717 -0.1308 -0.1703
 2855ntf    on515822   6.575   0.130   0.838 -0.4027  0.0115 -0.4567
 2855ntf    fn415823   6.277   0.113   0.874  0.6508 -0.1169 -0.2063
 2855ntf    fn415824   6.290   0.157   1.079  0.2389  0.4722  0.1824
 2855ntf    fn415825   6.354   0.303   0.938 -0.4268  0.2011  0.1074
 2856ntf    cn115826   0.033   3.106   1.609 -0.0306 -0.4317  0.1566
 2856ntf    sn215827   0.100   3.100   1.440 -0.4581  0.2689 -0.0403
 2856ntf    nn315828   0.160   2.955   1.445 -0.4315  0.2181 -1.3626
 2856ntf    sn215829   0.092   2.814   1.444 -0.3076  0.1355  0.0248
 2856ntf    cn115830   0.111   2.787   1.266  0.3821 -0.6997  0.2178
 2856ntf    fn415831   0.126   3.144   1.695 -0.0341  0.5025 -0.2415
 2856ntf    fn415832  -0.061   3.197   1.629 -0.1594 -0.4551 -0.3322
 2856ntf    fn415833  -0.019   2.994   1.656 -0.7583 -0.1008  0.1522
 2856ntf    on515834  -0.012   3.118   1.351 -0.2915 -0.1670 -0.3377
 2856ntf    on515835   0.208   3.195   1.434 -0.6914  0.5319 -0.0984
 2856ntf    on515836  -0.049   2.800   1.473 -0.2629 -0.7327 -0.1545
 2856ntf    on515837   0.177   2.713   1.503 -0.3024  0.1276  0.0037
 2856ntf    fn415838   0.070   2.668   1.228 -0.2608 -0.2869 -0.3961
 2856ntf    fn415839   0.048   2.870   1.184  0.2191 -0.6207  0.4231
 2856ntf    fn415840   0.239   2.793   1.233  0.3738 -0.5235  0.2155
 2857ntf    cn115841   5.866   5.101   0.886  0.0362 -0.2595 -0.0017
 2857ntf    sn215842   5.948   5.178   0.744 -0.0379  0.0759  0.1374
 2857ntf    nn315843   6.071   5.259   0.799 -0.0796 -0.3074  0.8065
 2857ntf    sn215844   6.202   5.192   0.855  0.4063  0.0954  0.1722
 2857ntf    cn115845   6.308   5.170   0.709 -0.3843 -0.4999 -0.3235
 2857ntf    fn415846   5.911   4.979   0.913 -0.0532 -0.3081 -0.0689
 2857ntf    fn415847   5.866   5.176   0.995 -0.4957  0.1407 -0.2707
 2857ntf    fn415848   5.738   5.076   0.863 -0.0491  0.2961 -0.1370
 2857ntf    on515849   5.991   5.066   0.664 -0.4712  0.0721 -0.0924
 2857ntf    on515850   5.849   5.268   0.691 -0.0626  0.2443  0.4726
 2857ntf    on515851   6.189   5.062   0.916 -0.3555  0.0467 -0.0817
 2857ntf    on515852   6.284   5.290   0.921 -0.0538  0.6291 -0.0427
 2857ntf    fn415853   6.238   5.111   0.613 -0.3826 -0.3830 -0.3969
 2857ntf    fn415854   6.343   5.286   0.657  0.1310 -0.4976  0.0290
 2857ntf    fn415855   6.419   5.100   0.722  0.0727  0.2722  0.0086
 2858ntf    cn115856   5.885   2.761   3.271 -0.1451  0.1709 -0.1786
 2858ntf    sn215857   5.717   2.754   3.339 -0.1869  0.1884 -0.2805
 2858ntf    nn315858   5.714   2.894   3.409 -0.5631  0.1863 -0.2885
 2858ntf    sn215859   5.639   3.028   3.376 -0.2158  0.3898 -0.2581
 2858ntf    cn115860   5.595   3.077   3.546  0.2769 -0.7919  0.2234
 2858ntf    fn415861   5.920   2.647   3.213 -0.5799  0.2762 -0.6539
 2858ntf    fn415862   5.890   2.857   3.180 -0.1345  0.4394  0.1063
 2858ntf    fn415863   5.984   2.782   3.356 -0.4974 -0.2626  0.3428
 2858ntf    on515864   5.645   2.742   3.214 -0.3432  0.4528 -0.2167
 2858ntf    on515865   5.719   2.641   3.427 -0.5158  0.2558 -0.1855
 2858ntf    on515866   5.511   3.028   3.311 -0.3235 -0.4035 -0.0584
 2858ntf    on515867   5.734   3.134   3.349  0.2725  0.0448  0.0846
 2858ntf    fn415868   5.508   2.999   3.606 -0.0791 -0.3875  0.2399
 2858ntf    fn415869   5.697   3.102   3.627  0.0607  0.2990  0.1750
 2858ntf    fn415870   5.534   3.195   3.546  0.2483 -0.8017 -0.5184
 2859ntf    cn115871   1.781   1.318   2.178  0.2876  0.2896 -0.0347
 2859ntf    sn215872   1.626   1.363   2.094  0.2459  0.2032 -0.0036
 2859ntf    nn315873   1.583   1.492   2.173  0.4264  0.3834 -0.1989
 2859ntf    sn215874   1.641   1.636   2.152  0.1930  0.4630 -0.3070
 2859ntf    cn115875   1.543   1.696   2.012 -0.5443  0.2209  0.0989
 2859ntf    fn415876   1.887   1.390   2.145  0.4431 -0.1413 -0.4895
 2859ntf    fn415877   1.772   1.318   2.310 -0.0038 -0.2068 -0.0542
 2859ntf    fn415878   1.816   1.195   2.145  0.6129  0.3520  0.0760
 2859ntf    on515879   1.661   1.378   1.955  0.3295  0.4068  0.0393
 2859ntf    on515880   1.528   1.261   2.121  0.0527  0.4759  0.3330
 2859ntf    on515881   1.781   1.639   2.117  0.3224  0.7757  0.2247
 2859ntf    on515882   1.614   1.728   2.260  0.7168  0.6816 -0.3581
 2859ntf    fn415883   1.586   1.642   1.899  0.3310  0.1711  0.4491
 2859ntf    fn415884   1.416   1.670   2.035 -0.5198 -0.3451 -0.3759
 2859ntf    fn415885   1.548   1.828   2.000 -0.3919  0.2342  0.3027
 2860ntf    cn115886   1.450   6.260   2.141  0.2635  0.0692  0.1337
 2860ntf    sn215887   1.406   6.094   2.202 -0.0713  0.2334  0.3404
 2860ntf    nn315888   1.470   6.090   2.346  0.0983  0.0275  0.2594
 2860ntf    sn215889   1.456   6.202   2.455  0.0918  0.3164 -0.0351
 2860ntf    cn115890   1.405   6.098   2.595  0.2015 -0.1357 -0.3288
 2860ntf    fn415891   1.368   6.352   2.189  0.1142  0.0604 -0.1058
 2860ntf    fn415892   1.571   6.297   2.181  0.6081 -0.7466 -0.1147
 2860ntf    fn415893   1.450   6.275   2.010 -0.3150 -0.0407  0.1179
 2860ntf    on515894   1.263   6.085   2.193 -0.0494  0.0434  0.1853
 2860ntf    on515895   1.483   6.006   2.118 -0.8509 -0.4277  0.3132
 2860ntf    on515896   1.345   6.293   2.444 -0.1326  0.0168 -0.2835
 2860ntf    on515897   1.590   6.246   2.483  0.3721 -0.2536 -0.4456
 2860ntf    fn415898   1.310   6.010   2.567 -0.0213  0.0843 -0.2555
 2860ntf    fn415899   1.510   6.026   2.633  0.5236  0.6907  0.3759
 2860ntf    fn415900   1.367   6.170   2.699  0.2003 -0.3026 -0.2118
 2861ntf    cn115901   5.625   5.043   3.221 -0.1694  0.0560  0.1997
 2861ntf    sn215902   5.478   4.951   3.277 -0.3905  0.0958 -0.3024
 2861ntf    nn315903   5.369   5.060   3.247  0.0121  0.5875 -0.0065
 2861ntf    sn215904   5.229   5.041   3.179  0.0983  0.0110 -0.0343
 2861ntf    cn115905   5.277   5.083   3.009  0.2203  0.1501  0.0339
 2861ntf    fn415906   5.603   5.087   3.098  0.2255  0.0710  0.1329
 2861ntf    fn415907   5.636   5.152   3.296 -0.3244  0.0894  0.1748
 2861ntf    fn415908   5.739   4.977   3.230 -0.1389  0.0779 -0.0146
 2861ntf    on515909   5.477   4.833   3.194 -0.0641 -0.2971  0.2411
 2861ntf    on515910   5.508   4.927   3.416  0.3242  0.3896 -0.3985
 2861ntf    on515911   5.144   5.153   3.213  0.1638 -0.1837  0.7836
 2861ntf    on515912   5.176   4.907   3.169  0.1377  0.0430 -0.6862
 2861ntf    fn415913   5.404   5.054   2.987  0.1563 -0.4257  0.3986
 2861ntf    fn415914   5.206   5.023   2.915 -0.2540  0.4096  0.2218
 2861ntf    fn415915   5.265   5.212   2.981 -0.2589  0.0383 -0.3020
 2862ntf    cn115916   6.346   6.036   2.337  0.0792  0.0020 -0.2465
 2862ntf    sn215917   6.238   6.089   2.200  0.2178 -0.2917 -0.4698
 2862ntf    nn315918   6.093   6.040   2.232  0.5087 -0.3299  0.8705
 2862ntf    sn215919   6.018   5.906   2.198 -0.0257  0.1200  0.2417
 2862ntf    cn115920   5.978   5.910   2.021  0.0546  0.4576  0.2308
 2862ntf    fn415921   6.454   6.112   2.331 -0.0696  0.2086 -0.3464
 2862ntf    fn415922   6.292   6.061   2.455 -0.2634  0.4792 -0.4994
 2862ntf    fn415923   6.393   5.913   2.329  0.0856 -0.0145  0.0242
 2862ntf    on515924   6.242   6.233   2.208 -0.0226 -0.3024 -0.1371
 2862ntf    on515925   6.300   6.033   2.083  0.6533 -0.3061 -0.2377
 2862ntf    on515926   5.887   5.909   2.256 -0.0798  0.1364  0.1188
 2862ntf    on515927   6.105   5.792   2.218 -0.3414 -0.1244  0.2259
 2862ntf    fn415928   6.079   5.908   1.934  0.1377  0.1850  0.3342
 2862ntf    fn415929   5.893   5.815   1.985  0.3959  0.2785 -0.1146
 2862ntf    fn415930   5.917   6.023   1.990 -0.4936  0.2420  0.5153
 2863ntf    cn115931   1.494   3.700   4.265 -0.0033  0.3873 -0.2360
 2863ntf    sn215932   1.338   3.779   4.217  0.0535  0.2590 -0.6401
 2863ntf    nn315933   1.267   3.658   4.147 -0.1614 -0.1797  0.3150
 2863ntf    sn215934   1.150   3.681   4.045  0.2722  0.0444 -0.1374
 2863ntf    cn115935   1.024   3.575   4.121  0.5852 -0.3538 -0.1701
 2863ntf    fn415936   1.487   3.589   4.336  0.4984  0.3801 -0.1929
 2863ntf    fn415937   1.570   3.665   4.162 -0.1049  0.2203 -0.2544
 2863ntf    fn415938   1.574   3.781   4.333 -0.0479  0.2124  0.0237
 2863ntf    on515939   1.284   3.819   4.345 -0.2815  0.2282 -0.7690
 2863ntf    on515940   1.380   3.882   4.125  0.2121  0.2212 -0.6097
 2863ntf    on515941   1.154   3.624   3.912 -0.3821 -0.2871 -0.0198
 2863ntf    on515942   1.088   3.810   4.059 -0.3691 -0.3305  0.5388
 2863ntf    fn415943   1.009   3.588   4.252  0.4015 -0.0802 -0.2184
 2863ntf    fn415944   0.907   3.604   4.066  0.5534  0.4065  0.2767
 2863ntf    fn415945   1.051   3.446   4.109 -0.2715 -0.6044  0.4318
 2864ntf    cn115946   1.769   4.595   2.230 -0.2168  0.3943 -0.0837
 2864ntf    sn215947   1.667   4.663   2.096 -0.0471  0.2607 -0.2796
 2864ntf    nn315948   1.528   4.623   2.157  0.1590 -0.2512 -0.1373
 2864ntf    sn215949   1.392   4.597   2.082  0.0927 -0.2242 -0.0256
 2864ntf    cn115950   1.378   4.417   2.101 -0.1307 -0.2336 -0.2918
 2864ntf    fn415951   1.896   4.609   2.196 -0.1749  0.0439 -0.0785
 2864ntf    fn415952   1.754   4.649   2.350 -0.1014  0.4159 -0.0795
 2864ntf    fn415953   1.740   4.466   2.245 -0.0485  0.4259  0.5616
 2864ntf    on515954   1.694   4.805   2.094 -0.0433  0.2691  0.1907
 2864ntf    on515955   1.708   4.595   1.975  0.1232  0.4842 -0.3472
 2864ntf    on515956   1.394   4.617   1.940 -0.3965 -0.3704 -0.0529
 2864ntf    on515957   1.279   4.650   2.154  0.3949  0.3864  0.0140
 2864ntf    fn415958   1.485   4.357   2.051  0.0704 -0.5134  0.4659
 2864ntf    fn415959   1.379   4.387   2.229 -0.0969  0.5552 -0.1048
 2864ntf    fn415960   1.267   4.365   2.050 -0.2038 -0.1733 -0.1952
 2865ntf    cn115961   0.122   4.691   5.387  0.0055 -0.5013 -0.3287
 2865ntf    sn215962   0.056   4.599   5.529 -0.4560  0.2923 -0.0269
 2865ntf    nn315963  -0.081   4.554   5.467 -0.4379 -0.5917  0.5508
 2865ntf    sn215964  -0.218   4.632   5.462 -0.1122 -0.0530 -0.1300
 2865ntf    cn115965  -0.316   4.542   5.586  0.2137 -0.3216 -0.0659
 2865ntf    fn415966   0.112   4.632   5.269  0.8533  0.1881 -0.7550
 2865ntf    fn415967   0.058   4.805   5.371 -0.0392 -0.5141 -0.2395
 2865ntf    fn415968   0.247   4.723   5.415 -0.3583  0.3288  0.3898
 2865ntf    on515969   0.157   4.497   5.536 -0.7500 -0.0655 -0.8923
 2865ntf    on515970   0.042   4.688   5.642 -0.1898 -0.0780  0.3025
 2865ntf    on515971  -0.287   4.628   5.335 -0.2144  0.4037 -0.0896
 2865ntf    on515972  -0.212   4.763   5.520 -0.2604  0.2000 -0.6774
 2865ntf    fn415973  -0.282   4.589   5.705  0.1685  0.3685 -0.3250
 2865ntf    fn415974  -0.444   4.574   5.576  0.2647 -0.0976 -0.0029
 2865ntf    fn415975  -0.298   4.411   5.582  0.5186 -0.2923  0.2587
 2866ntf    cn115976   0.856   0.886   2.669  0.4177 -0.1658 -0.1669
 2866ntf    sn215977   0.830   0.710   2.705  0.1963 -0.0977  0.0165
 2866ntf    nn315978   0.972   0.646   2.684  0.1578 -0.1412 -0.1136
 2866ntf    sn215979   1.006   0.493   2.676 -0.0161 -0.1828 -0.0604
 2866ntf    cn115980   1.156   0.478   2.777  0.0853  0.0042 -0.1824
 2866ntf    fn415981   0.861   0.911   2.540  0.7987 -0.4896 -0.2146
 2866ntf    fn415982   0.753   0.950   2.722  0.3540  0.1149 -0.6277
 2866ntf    fn415983   0.970   0.926   2.722  0.4520  0.1792 -0.4989
 2866ntf    on515984   0.795   0.713   2.844 -0.0475  0.2640 -0.0511
 2866ntf    on515985   0.726   0.677   2.610  0.0645  0.6313 -0.0923
 2866ntf    on515986   1.050   0.453   2.544 -0.1007  0.2608 -0.2223
 2866ntf    on515987   0.915   0.405   2.746  0.5965 -0.5189  0.3269
 2866ntf    fn415988   1.214   0.360   2.757  0.5063  0.1637  0.0890
 2866ntf    fn415989   1.250   0.567   2.751 -0.1566  0.2468 -0.2170
 2866ntf    fn415990   1.131   0.497   2.906  0.3614  0.3607 -0.1796
 2867ntf    cn115991   6.098   0.483   2.142  0.0727 -0.4924 -0.4096
 2867ntf    sn215992   5.945   0.463   2.045 -0.0635 -0.5468 -0.1859
 2867ntf    nn315993   5.842   0.442   2.161 -0.2208  0.3772 -0.1541
 2867ntf    sn215994   5.713   0.353   2.177 -0.0139  0.1302  0.1378
 2867ntf    cn115995   5.792   0.229   2.284 -0.4130 -0.1690  0.0861
 2867ntf    fn415996   6.106   0.384   2.230 -0.3302  0.0018  0.1878
 2867ntf    fn415997   6.205   0.476   2.065  0.6534 -0.0994  0.3506
 2867ntf    fn415998   6.109   0.597   2.207  0.2377 -0.6934 -0.0798
 2867ntf    on515999   5.931   0.592   1.982 -0.5763 -0.3435  0.3286
 2867ntf    on516000   5.973   0.354   1.955  0.0462 -0.4242 -0.3010
 2867ntf    on516001   5.671   0.285   2.058 -0.3728  0.1454  0.2545
 2867ntf    on516002   5.608   0.418   2.251 -0.0755  0.4261 -0.2082
 2867ntf    fn416003   5.803   0.261   2.412 -0.1573 -0.2692  0.0893
 2867ntf    fn416004   5.731   0.112   2.285  0.3331 -0.5724 -0.4649
 2867ntf    fn416005   5.919   0.209   2.254 -0.4009  0.3584 -0.2259
 2868ntf    cn116006   2.427   4.885   0.051 -0.3635  0.2899 -0.1366
 2868ntf    sn216007   2.347   4.999  -0.066 -0.1149  0.3644 -0.2343
 2868ntf    nn316008   2.345   4.918  -0.200  0.2271 -0.0381  0.0004
 2868ntf    sn216009   2.230   4.822  -0.248  0.0881  0.1085  0.0414
 2868ntf    cn116010   2.106   4.935  -0.319  0.2805  0.1765 -0.1878
 2868ntf    fn416011   2.362   4.770   0.061  0.2215 -0.0462 -0.1704
 2868ntf    fn416012   2.549   4.860   0.006 -0.3130  0.3400 -0.0285
 2868ntf    fn416013   2.457   4.925   0.173 -0.3082  0.1308 -0.0967
 2868ntf    on516014   2.216   5.020  -0.009 -0.1404  0.3536 -0.2880
 2868ntf    on516015   2.427   5.118  -0.079  0.0086  0.2721 -0.3247
 2868ntf    on516016   2.158   4.753  -0.144  0.3404 -0.3186 -0.0664
 2868ntf    on516017   2.272   4.737  -0.356  0.6718  0.0504  0.3091
 2868ntf    fn416018   1.994   4.880  -0.364  0.2318  0.2125 -0.1099
 2868ntf    fn416019   2.063   5.016  -0.224 -0.0172 -0.1903 -0.0035
 2868ntf    fn416020   2.160   5.014  -0.410  0.3566  0.3430  0.0013
 2869ntf    cn116021   4.631   3.603   6.336 -0.6190 -0.3354  0.1655
 2869ntf    sn216022   4.530   3.452   6.341 -0.4716 -0.4339  0.1625
 2869ntf    nn316023   4.633   3.339   6.302  0.1520  0.2932 -0.3338
 2869ntf    sn216024   4.712   3.247   6.402 -0.0281  0.0375 -0.4264
 2869ntf    cn116025   4.602   3.103   6.386  0.1930 -0.1526 -0.2412
 2869ntf    fn416026   4.702   3.611   6.225 -0.0181  0.1324  0.5706
 2869ntf    fn416027   4.554   3.709   6.352 -0.0806  0.0697  0.0749
 2869ntf    fn416028   4.721   3.612   6.433  0.2307  0.1877 -0.6658
 2869ntf    on516029   4.468   3.437   6.470 -1.0291  0.1866 -0.0303
 2869ntf    on516030   4.442   3.476   6.230 -0.0097  1.0278  0.0932
 2869ntf    on516031   4.704   3.289   6.540 -0.5823 -0.8702 -0.1737
 2869ntf    on516032   4.842   3.208   6.354  0.1524  0.4068 -0.2383
 2869ntf    fn416033   4.620   3.041   6.502  0.3375  0.8468  0.2835
 2869ntf    fn416034   4.474   3.132   6.367  0.1377 -0.0901  0.2163
 2869ntf    fn416035   4.627   3.009   6.297  0.0591 -0.3466 -0.0768
 2870ntf    cn116036   1.516   1.393   0.291  0.1517 -0.2794  0.1301
 2870ntf    sn216037   1.388   1.480   0.196 -0.0087 -0.2217  0.3997
 2870ntf    nn316038   1.440   1.460   0.049  0.4493  0.1871  0.5036
 2870ntf    sn216039   1.458   1.570  -0.061  0.0471  0.0524  0.2994
 2870ntf    cn116040   1.635   1.548  -0.098  0.0218 -0.3246  0.3975
 2870ntf    fn416041   1.501   1.394   0.422  0.0999 -0.1008  0.1230
 2870ntf    fn416042   1.528   1.268   0.248  0.4171 -0.3173  0.3082
 2870ntf    fn416043   1.635   1.449   0.272 -0.1887  0.1539 -0.7960
 2870ntf    on516044   1.265   1.407   0.215  0.1570 -0.7021 -0.3275
 2870ntf    on516045   1.384   1.612   0.254 -0.1025 -0.0390 -0.0156
 2870ntf    on516046   1.457   1.709  -0.024  0.1558 -0.1475  1.0678
 2870ntf    on516047   1.395   1.527  -0.184  0.6327 -0.4687  0.1735
 2870ntf    fn416048   1.673   1.626  -0.198 -0.4411  0.3273  0.7229
 2870ntf    fn416049   1.713   1.573   0.006 -0.0256 -0.0162  0.3604
 2870ntf    fn416050   1.670   1.428  -0.142  0.8157 -0.0078  0.1428
 2871ntf    cn116051   0.948   3.881   6.733  0.1965 -0.0685 -0.2816
 2871ntf    sn216052   1.048   3.740   6.677 -0.0453 -0.2736 -0.1987
 2871ntf    nn316053   1.187   3.794   6.728  0.0046 -0.2096 -0.4024
 2871ntf    sn216054   1.279   3.899   6.655 -0.1582  0.2203  0.0083
 2871ntf    cn116055   1.417   3.799   6.592  0.0927  0.2795  0.4570
 2871ntf    fn416056   1.009   3.995   6.706  0.4592  0.0089  0.5778
 2871ntf    fn416057   0.826   3.891   6.685  0.3343 -0.0282 -0.6237
 2871ntf    fn416058   0.936   3.893   6.865 -0.1670  0.0915 -0.3297
 2871ntf    on516059   1.004   3.634   6.763 -0.5073 -0.1439 -0.2753
 2871ntf    on516060   1.021   3.724   6.536 -0.3191  0.8071 -0.2775
 2871ntf    on516061   1.339   3.999   6.740  0.1038  0.0522  0.0222
 2871ntf    on516062   1.221   3.948   6.533  0.0297  0.0347 -0.1546
 2871ntf    fn416063   1.390   3.714   6.494  0.6479 -0.5470  1.0143
 2871ntf    fn416064   1.513   3.879   6.550  0.5591 -0.2090  0.5798
 2871ntf    fn416065   1.469   3.725   6.688  0.2112  0.0206  0.1948
 2872ntf    cn116066   5.479   3.545   4.234  0.4496 -0.0400  0.3225
 2872ntf    sn216067   5.517   3.483   4.068 -0.1560  0.2638  0.0645
 2872ntf    nn316068   5.569   3.341   4.111 -0.5112  0.1659  0.1710
 2872ntf    sn216069   5.488   3.206   4.105 -0.1637 -0.0372  0.0201
 2872ntf    cn116070   5.521   3.133   3.942 -0.0408  0.2879 -0.1020
 2872ntf    fn416071   5.587   3.569   4.307  0.4229  0.3220  0.2441
 2872ntf    fn416072   5.423   3.665   4.232  0.3540 -0.0894 -0.1522
 2872ntf    fn416073   5.398   3.468   4.305  0.0016  0.0686 -0.0603
 2872ntf    on516074   5.398   3.488   3.987 -0.1169  0.8596  0.0377
 2872ntf    on516075   5.628   3.562   4.020  0.0248  0.2557  0.4664
 2872ntf    on516076   5.345   3.219   4.116 -0.2109 -0.6943  0.1955
 2872ntf    on516077   5.549   3.102   4.184  0.1700  0.1106 -0.0400
 2872ntf    fn416078   5.448   3.200   3.855  0.0363  0.9749  0.3538
 2872ntf    fn416079   5.650   3.147   3.915  0.1334  0.0971  0.5904
 2872ntf    fn416080   5.485   3.006   3.929 -0.1290  0.2273  0.6799
 2873ntf    cn116081   0.370   0.607   3.510  0.1899  0.0886  0.1501
 2873ntf    sn216082   0.287   0.759   3.456 -0.0771 -0.1218 -0.0309
 2873ntf    nn316083   0.142   0.715   3.496 -0.2040 -0.0341 -0.3855
 2873ntf    sn216084   0.029   0.779   3.585 -0.0560  0.0831 -0.2816
 2873ntf    cn116085  -0.009   0.632   3.685  0.3046 -0.3097 -0.7108
 2873ntf    fn416086   0.496   0.623   3.471  0.2554  0.3325  0.4524
 2873ntf    fn416087   0.382   0.590   3.641  0.6537  0.3135  0.1403
 2873ntf    fn416088   0.323   0.500   3.448  0.4178 -0.1627  0.4068
 2873ntf    on516089   0.349   0.860   3.537 -0.5445 -0.1035  0.3091
 2873ntf    on516090   0.308   0.754   3.313 -0.1688  0.0576 -0.0508
 2873ntf    on516091  -0.094   0.808   3.515 -0.6165  0.1834  0.7252
 2873ntf    on516092   0.068   0.882   3.678  0.1121 -0.2921  0.0645
 2873ntf    fn416093   0.089   0.592   3.764 -0.4126 -0.3204  0.1992
 2873ntf    fn416094  -0.107   0.644   3.774  0.4956 -0.5053 -0.4742
 2873ntf    fn416095  -0.040   0.521   3.621 -0.4544 -0.3446 -0.2964
 2874ntf    cn116096   1.511   1.327   5.071  0.1934 -0.2667 -0.4694
 2874ntf    sn216097   1.596   1.314   5.231 -0.2508 -0.2767 -0.2303
 2874ntf    nn316098   1.744   1.323   5.177 -0.1627 -0.4406 -0.0159
 2874ntf    sn216099   1.876   1.389   5.230 -0.2420 -0.0738 -0.2741
 2874ntf    cn116100   2.002   1.314   5.124 -0.1569  0.0905 -0.2892
 2874ntf    fn416101   1.553   1.240   4.980  0.0470 -0.5387 -0.2779
 2874ntf    fn416102   1.379   1.328   5.076  0.2247 -0.2582  0.6107
 2874ntf    fn416103   1.533   1.445   5.016 -0.6502  0.2382  0.2448
 2874ntf    on516104   1.550   1.430   5.304  0.0232 -0.2847 -0.0434
 2874ntf    on516105   1.564   1.185   5.287 -0.2142 -0.5140 -0.7511
 2874ntf    on516106   1.919   1.352   5.363 -0.5453  0.2878 -0.0708
 2874ntf    on516107   1.883   1.529   5.194  0.2815 -0.0692 -0.1587
 2874ntf    fn416108   2.126   1.347   5.155 -0.2827 -0.1303  0.4585
 2874ntf    fn416109   1.997   1.182   5.123  0.4096  0.0614  0.1972
 2874ntf    fn416110   1.969   1.338   4.998 -0.5644 -0.8125 -0.3656
 2875ntf    cn116111   5.818   5.552   1.721 -0.0222  0.3213  0.1226
 2875ntf    sn216112   5.688   5.427   1.698  0.0985  0.1713  0.2648
 2875ntf    nn316113   5.598   5.441   1.826  0.2147 -0.0635  0.3755
 2875ntf    sn216114   5.442   5.462   1.828  0.2101 -0.0248 -0.0776
 2875ntf    cn116115   5.432   5.643   1.809  0.2696 -0.0391 -0.2422
 2875ntf    fn416116   5.902   5.562   1.620  0.3907 -0.7214  0.3568
 2875ntf    fn416117   5.758   5.670   1.734 -0.2417  0.2133  0.0974
 2875ntf    fn416118   5.887   5.531   1.832 -0.0469 -0.8433 -0.0746
 2875ntf    on516119   5.626   5.471   1.576 -0.0353 -0.0600  0.2474
 2875ntf    on516120   5.765   5.305   1.692 -0.0148  0.0997  0.2676
 2875ntf    on516121   5.383   5.443   1.959  0.7943  0.1369  0.2125
 2875ntf    on516122   5.371   5.398   1.720  0.0930 -0.0900  0.0375
 2875ntf    fn416123   5.459   5.690   1.689  0.7425 -0.0654 -0.1499
 2875ntf    fn416124   5.305   5.676   1.820  0.3991  0.2601  0.3998
 2875ntf    fn416125   5.500   5.716   1.896  0.0499 -0.0738 -0.0408
 2876ntf    cn116126   6.508   2.753   1.199 -0.4235  0.0004  0.5149
 2876ntf    sn216127   6.402   2.797   1.057  0.3091 -0.2414 -0.1160
 2876ntf    nn316128   6.502   2.842   0.945  0.0722  0.4104 -0.0706
 2876ntf    sn216129   6.534   2.791   0.800 -0.2707 -0.4019  0.1388
 2876ntf    cn116130   6.711   2.831   0.791 -0.2911 -0.3422  0.0158
 2876ntf    fn416131   6.586   2.650   1.173 -0.0194  0.5290 -0.4199
 2876ntf    fn416132   6.588   2.852   1.234 -0.0810 -0.0215 -0.1854
 2876ntf    fn416133   6.437   2.724   1.307 -0.5058  0.2006  0.5144
 2876ntf    on516134   6.332   2.675   1.029 -0.2112  0.0357 -0.0354
 2876ntf    on516135   6.322   2.906   1.108 -0.0071 -0.0837 -0.9354
 2876ntf    on516136   6.472   2.874   0.701  0.3248  0.3030  0.3462
 2876ntf    on516137   6.523   2.647   0.794 -0.1313 -0.4253  0.3865
 2876ntf    fn416138   6.737   2.960   0.805  0.2480 -0.4958  0.4742
 2876ntf    fn416139   6.782   2.761   0.878 -0.0681 -0.4242 -0.2296
 2876ntf    fn416140   6.764   2.788   0.678  0.4842 -0.3267  0.3671
 2877ntf    cn116141   4.556   2.515   1.935 -0.4315 -0.3127  0.1390
 2877ntf    sn216142   4.680   2.480   1.806 -0.3581 -0.1405  0.1624
 2877ntf    nn316143   4.813   2.529   1.872 -0.3044  0.2685 -0.2469
 2877ntf    sn216144   4.839   2.667   1.942 -0.1374  0.1771 -0.1288
 2877ntf    cn116145   5.004   2.713   1.880 -0.1400  0.0821 -0.2062
 2877ntf    fn416146   4.443   2.454   1.906 -0.5040  0.0430 -0.3368
 2877ntf    fn416147   4.592   2.480   2.057 -0.5264 -0.0937  0.2311
 2877ntf    fn416148   4.529   2.645   1.940 -0.1388 -0.2385 -0.1931
 2877ntf    on516149   4.681   2.336   1.797  0.6415 -0.1157 -0.2216
 2877ntf    on516150   4.632   2.557   1.693 -0.1367  0.5127  0.5047
 2877ntf    on516151   4.852   2.651   2.085 -0.9851  0.5378 -0.0022
 2877ntf    on516152   4.759   2.779   1.898  0.0695  0.2686 -0.2784
 2877ntf    fn416153   5.053   2.812   1.952  0.3043 -0.2376 -0.0681
 2877ntf    fn416154   5.086   2.609   1.883 -0.5912 -0.2731 -0.0597
 2877ntf    fn416155   4.998   2.754   1.754 -0.5369  0.1417 -0.1696
 2878ntf    cn116156   3.116   5.935   2.654  0.1710 -0.3035 -0.0436
 2878ntf    sn216157   3.130   5.761   2.604 -0.1262 -0.2721 -0.2440
 2878ntf    nn316158   3.011   5.740   2.504  0.2793 -0.8289 -0.6201
 2878ntf    sn216159   2.858   5.716   2.530  0.1518  0.0851 -0.4652
 2878ntf    cn116160   2.861   5.534   2.534  0.3177  0.0953 -0.0386
 2878ntf    fn416161   3.197   5.967   2.753 -0.0150 -0.5061  0.1783
 2878ntf    fn416162   3.140   6.020   2.556 -0.3863 -0.3843 -0.2535
 2878ntf    fn416163   2.998   5.963   2.707  0.3018  0.2863 -0.0605
 2878ntf    on516164   3.264   5.767   2.550  0.0281  1.0045  0.2425
 2878ntf    on516165   3.113   5.693   2.730 -0.4701  0.5957  0.1820
 2878ntf    on516166   2.782   5.745   2.411 -0.5628  0.0055 -0.0335
 2878ntf    on516167   2.806   5.760   2.657  0.1143  0.8132 -0.7318
 2878ntf    fn416168   2.744   5.476   2.515  0.2632  0.1120  0.2451
 2878ntf    fn416169   2.940   5.496   2.435  0.1106 -0.3140 -0.0483
 2878ntf    fn416170   2.913   5.479   2.643 -0.5012  0.0804  0.3497
 2879ntf    cn116171   0.742   1.399   1.525  0.1968 -0.2358 -0.2443
 2879ntf    sn216172   0.743   1.580   1.549 -0.0165 -0.2466 -0.1593
 2879ntf    nn316173   0.692   1.633   1.410  0.4801  0.6720  0.0034
 2879ntf    sn216174   0.544   1.678   1.384  0.0889 -0.4668  0.1706
 2879ntf    cn116175   0.525   1.614   1.215  0.1254 -0.0682  0.0148
 2879ntf    fn416176   0.635   1.346   1.468 -0.0548  0.1667 -0.1510
 2879ntf    fn416177   0.841   1.367   1.443  0.4013  0.2981 -0.2112
 2879ntf    fn416178   0.765   1.327   1.633  0.5452  0.0530 -0.1207
 2879ntf    on516179   0.659   1.587   1.666  0.3554 -0.4061  0.1196
 2879ntf    on516180   0.883   1.608   1.565  0.0308 -0.6681  0.1881
 2879ntf    on516181   0.523   1.820   1.367 -0.3969 -0.5004  0.4746
 2879ntf    on516182   0.444   1.592   1.442 -0.1888  0.0267  0.4319
 2879ntf    fn416183   0.604   1.678   1.130 -0.6205  0.3246 -0.3879
 2879ntf    fn416184   0.553   1.485   1.203 -0.6584 -0.1977 -0.4335
 2879ntf    fn416185   0.400   1.620   1.173  0.0456 -0.2588  0.2215
 2880ntf    cn116186   2.322   3.036   5.957  0.2996  0.2265 -0.0798
 2880ntf    sn216187   2.433   3.033   5.813  0.2970 -0.0955 -0.0759
 2880ntf    nn316188   2.361   2.952   5.699 -0.3081 -0.4079  0.5212
 2880ntf    sn216189   2.274   3.013   5.584 -0.1011 -0.1770  0.4839
 2880ntf    cn116190   2.396   3.053   5.455 -0.3264  0.2691  0.4082
 2880ntf    fn416191   2.338   2.930   6.035 -0.0806  0.3825  0.2110
 2880ntf    fn416192   2.334   3.139   6.039 -0.2594  0.4269 -0.2415
 2880ntf    fn416193   2.195   3.035   5.919  0.1613 -0.1493  0.3822
 2880ntf    on516194   2.469   3.170   5.789  0.0909  0.0735  0.5695
 2880ntf    on516195   2.546   2.956   5.860  0.4452 -0.1718 -0.5492
 2880ntf    on516196   2.201   3.134   5.614 -0.2920 -0.1065 -0.2461
 2880ntf    on516197   2.192   2.913   5.519 -0.1383 -0.0354  0.3123
 2880ntf    fn416198   2.475   2.950   5.431 -0.8813 -0.0827  0.0713
 2880ntf    fn416199   2.331   3.085   5.344  0.2995 -0.1805 -0.0957
 2880ntf    fn416200   2.483   3.150   5.479 -0.4702  0.4648  0.1503
 2881ntf    cn116201   3.823   2.262   1.375 -0.0881  0.2202 -0.1905
 2881ntf    sn216202   3.806   2.424   1.295  0.0383  0.2673 -0.1215
 2881ntf    nn316203   3.833   2.375   1.148  0.0300  0.1684 -0.0901
 2881ntf    sn216204   3.868   2.461   1.021  0.2735  0.1095 -0.0642
 2881ntf    cn116205   4.040   2.406   1.001  0.1102 -0.4030 -0.0633
 2881ntf    fn416206   3.936   2.198   1.351 -0.2640 -0.1039 -0.1739
 2881ntf    fn416207   3.816   2.283   1.505 -0.1632  1.1925 -0.3488
 2881ntf    fn416208   3.726   2.179   1.338  0.2116 -0.0875 -0.2908
 2881ntf    on516209   3.672   2.467   1.327 -0.0993 -0.4298  0.2419
 2881ntf    on516210   3.923   2.492   1.345  0.3250 -0.2007 -0.1471
 2881ntf    on516211   3.882   2.604   1.040  0.5831  0.1118 -0.2966
 2881ntf    on516212   3.803   2.422   0.899  0.0918 -0.3046  0.1649
 2881ntf    fn416213   4.072   2.282   1.033  0.0894 -0.4188 -0.1035
 2881ntf    fn416214   4.074   2.418   0.873 -0.1002  0.1760 -0.0691
 2881ntf    fn416215   4.124   2.487   1.063 -0.1715 -0.3493  0.2474
 2882ntf    cn116216   1.992   6.371   3.582 -0.1953  0.1918 -0.0493
 2882ntf    sn216217   2.136   6.471   3.628 -0.0090  0.0003 -0.2177
 2882ntf    nn316218   2.166   6.546   3.493  0.5646  0.5864  0.2275
 2882ntf    sn216219   2.247   6.498   3.368 -0.0373 -0.3301  0.1824
 2882ntf    cn116220   2.114   6.503   3.244  0.1699 -0.0948 -0.0319
 2882ntf    fn416221   1.882   6.439   3.551 -0.4627 -0.0197  0.4201
 2882ntf    fn416222   2.011   6.294   3.476 -0.1742  0.2179 -0.0648
 2882ntf    fn416223   1.943   6.290   3.674  0.1512 -0.1714 -0.1843
 2882ntf    on516224   2.084   6.557   3.732  0.3662 -0.0773  0.0394
 2882ntf    on516225   2.244   6.383   3.666 -0.1002 -0.1144 -0.2275
 2882ntf    on516226   2.300   6.364   3.368 -0.0556 -0.3411 -0.3168
 2882ntf    on516227   2.343   6.595   3.322 -0.0716 -0.3235  0.1246
 2882ntf    fn416228   1.999   6.467   3.298  0.4392 -0.0753  0.5565
 2882ntf    fn416229   2.106   6.627   3.198 -0.0478 -0.1049 -0.0231
 2882ntf    fn416230   2.128   6.430   3.135  0.4399  0.5191 -0.4148
 2883ntf    cn116231   6.772   6.619   7.067 -0.0810 -0.1724 -0.2762
 2883ntf    sn216232   6.767   6.504   7.207 -0.3319  0.3862  0.1762
 2883ntf    nn316233   6.669   6.570   7.311 -0.5673  0.6630 -0.2168
 2883ntf    sn216234   6.556   6.500   7.395 -0.1596  0.1166 -0.1196
 2883ntf    cn116235   6.632   6.445   7.551 -0.0855 -0.3351 -0.3130
 2883ntf    fn416236   6.651   6.619   7.013 -0.1358 -0.3320 -0.1527
 2883ntf    fn416237   6.804   6.743   7.100  0.6322 -0.4083 -0.0575
 2883ntf    fn416238   6.858   6.575   6.976  0.4264  0.2329  0.0035
 2883ntf    on516239   6.707   6.390   7.142 -0.3957  0.4048  0.2022
 2883ntf    on516240   6.901   6.483   7.254 -0.3548 -0.0573  0.0483
 2883ntf    on516241   6.506   6.374   7.347 -0.7704  0.2252  0.2326
 2883ntf    on516242   6.449   6.587   7.436 -0.0787 -0.2245  0.8511
 2883ntf    fn416243   6.543   6.402   7.638  0.2915 -0.1400  0.1719
 2883ntf    fn416244   6.729   6.356   7.537  0.1807 -0.0367 -0.3836
 2883ntf    fn416245   6.682   6.544   7.623 -0.4623 -0.0031 -0.5028
 2884ntf    cn116246   3.161   6.420   4.062 -0.3170 -0.6075 -0.0940
 2884ntf    sn216247   3.214   6.253   4.111  0.1061 -0.3930  0.1883
 2884ntf    nn316248   3.123   6.160   4.022  0.3605  0.0447 -0.5386
 2884ntf    sn216249   3.011   6.061   4.070  0.4633  0.2362  0.1115
 2884ntf    cn116250   3.034   5.950   3.928 -0.2165 -0.2355  0.3664
 2884ntf    fn416251   3.187   6.444   3.934 -0.2778  0.0666  0.0337
 2884ntf    fn416252   3.030   6.436   4.074 -0.2487 -0.2660  0.2245
 2884ntf    fn416253   3.210   6.519   4.136 -0.0071 -0.4644 -0.4814
 2884ntf    on516254   3.355   6.250   4.085  0.0645  0.3591 -0.1644
 2884ntf    on516255   3.173   6.259   4.249  0.2553 -0.5016  0.2366
 2884ntf    on516256   2.873   6.101   4.060  0.4816  0.2080 -0.2879
 2884ntf    on516257   3.047   5.979   4.183 -0.0339 -0.0613  0.0535
 2884ntf    fn416258   3.158   5.903   3.925  0.0313  0.4476 -0.3113
 2884ntf    fn416259   2.949   5.850   3.912 -0.5406  0.0539  0.2766
 2884ntf    fn416260   3.031   6.014   3.812  0.6732 -0.8875 -0.0300
 2885ntf    cn116261   6.007   6.450   1.551  0.2591 -0.0765  0.0545
 2885ntf    sn216262   5.941   6.603   1.479  0.1706 -0.2338 -0.2000
 2885ntf    nn316263   6.046   6.638   1.367  0.2755 -0.3220 -0.1298
 2885ntf    sn216264   6.183   6.714   1.377  0.0272  0.0902  0.1994
 2885ntf    cn116265   6.140   6.889   1.356 -0.5259 -0.1046 -0.3098
 2885ntf    fn416266   5.950   6.421   1.667  0.4107 -0.1404  0.1123
 2885ntf    fn416267   5.992   6.347   1.469  0.0205 -0.2251  0.2827
 2885ntf    fn416268   6.136   6.465   1.575  0.1650 -0.0953  0.5906
 2885ntf    on516269   5.817   6.556   1.422 -0.2362 -0.5320  0.9085
 2885ntf    on516270   5.937   6.687   1.596  0.2216 -0.3721 -0.0992
 2885ntf    on516271   6.262   6.695   1.258 -0.2194 -0.5918  0.1422
 2885ntf    on516272   6.252   6.715   1.504  0.3235  0.0976  0.0383
 2885ntf    fn416273   6.254   6.950   1.329 -0.6862  0.3522  0.0313
 2885ntf    fn416274   6.066   6.907   1.248  0.8544  0.6876 -1.1525
 2885ntf    fn416275   6.094   6.948   1.465 -0.8706 -0.5375 -0.2152
 2886ntf    cn116276   3.275   4.402   1.267 -0.1163 -0.1655  0.3329
 2886ntf    sn216277   3.161   4.542   1.244 -0.1975 -0.2216  0.3921
 2886ntf    nn316278   3.069   4.481   1.133  0.1041 -0.3047  0.1847
 2886ntf    sn216279   3.089   4.481   0.977 -0.0953 -0.2454  0.1583
 2886ntf    cn116280   3.094   4.303   0.945  0.0716 -0.2444  0.1762
 2886ntf    fn416281   3.353   4.387   1.161 -0.2393  0.7868  0.0994
 2886ntf    fn416282   3.358   4.418   1.368  0.0418 -0.6081  0.2784
 2886ntf    fn416283   3.212   4.287   1.287 -0.4847  0.0376  0.3504
 2886ntf    on516284   3.088   4.573   1.364 -0.1990  0.9203  0.1031
 2886ntf    on516285   3.249   4.649   1.203  0.1110 -0.4755  0.3824
 2886ntf    on516286   3.212   4.536   0.926 -0.3881  0.0425 -0.2423
 2886ntf    on516287   2.974   4.529   0.906  0.3314  0.6263  0.0363
 2886ntf    fn416288   3.181   4.245   1.027  0.2423 -0.5772 -0.2317
 2886ntf    fn416289   2.979   4.239   0.962 -0.0950  0.0419  0.1254
 2886ntf    fn416290   3.131   4.274   0.821  0.3140  0.1231  0.1618
 2887ntf    cn116291   4.991   1.883   2.894  0.1402 -0.1133  0.3703
 2887ntf    sn216292   5.089   1.836   3.039  0.0031 -0.1984  0.4358
 2887ntf    nn316293   4.998   1.850   3.166 -0.0965  0.5721  0.2866
 2887ntf    sn216294   5.024   1.791   3.309  0.0274  0.0442  0.0500
 2887ntf    cn116295   5.055   1.939   3.410  0.0007  0.2689 -0.2696
 2887ntf    fn416296   5.041   1.838   2.780  0.0445  0.6446  0.0232
 2887ntf    fn416297   4.872   1.826   2.903 -0.0792  0.3183  0.2566
 2887ntf    fn416298   4.970   2.013   2.881 -0.2650 -0.2180 -0.0322
 2887ntf    on516299   5.135   1.705   3.001 -1.1907 -0.2799 -0.7728
 2887ntf    on516300   5.188   1.941   3.041  0.1491 -0.3348  0.4290
 2887ntf    on516301   5.147   1.717   3.328 -0.0813 -0.0741  0.3052
 2887ntf    on516302   4.906   1.734   3.369 -0.0126  0.2967  0.2126
 2887ntf    fn416303   5.053   2.055   3.347  0.2953  0.5309  0.1902
 2887ntf    fn416304   4.974   1.952   3.514  0.2241  0.5855 -0.1326
 2887ntf    fn416305   5.178   1.927   3.457 -0.5312 -0.1297  1.0682
 2888ntf    cn116306   0.451   2.577   7.033  0.0901 -0.1226 -0.3976
 2888ntf    sn216307   0.434   2.652   6.868  0.2226  0.2362 -0.2494
 2888ntf    nn316308   0.546   2.561   6.807 -0.0267 -0.2667  0.0368
 2888ntf    sn216309   0.650   2.595   6.694 -0.1328  0.0461  0.0314
 2888ntf    cn116310   0.590   2.498   6.552 -0.0127 -0.0235  0.0287
 2888ntf    fn416311   0.401   2.455   7.027  0.5336 -0.3300  0.0529
 2888ntf    fn416312   0.575   2.553   7.072 -0.1997 -1.0231 -0.0083
 2888ntf    fn416313   0.385   2.636   7.132  0.6544 -0.3780  0.1385
 2888ntf    on516314   0.296   2.622   6.841  0.1094  0.4317  0.1025
 2888ntf    on516315   0.474   2.788   6.897 -0.1774  0.0952  1.0239
 2888ntf    on516316   0.781   2.538   6.718 -0.2060 -0.1274  0.0244
 2888ntf    on516317   0.644   2.724   6.631  0.1780  0.0280 -0.0364
 2888ntf    fn416318   0.483   2.550   6.495 -0.3994 -0.6185  0.2032
 2888ntf    fn416319   0.681   2.502   6.456 -0.2184 -0.7571 -0.2045
 2888ntf    fn416320   0.567   2.372   6.583  0.2043 -0.1425 -0.2875
 2889ntf    cn116321   0.259   4.741   6.649  0.1413 -0.1332 -0.4760
 2889ntf    sn216322   0.297   4.583   6.731  0.0780 -0.0649 -0.3148
 2889ntf    nn316323   0.197   4.489   6.654 -0.0827  0.1050 -0.3133
 2889ntf    sn216324   0.072   4.424   6.722  0.0224  0.2669  0.0388
 2889ntf    cn116325  -0.044   4.421   6.581  0.0559  0.1922  0.0132
 2889ntf    fn416326   0.129   4.762   6.651  0.1365 -0.1713 -0.4022
 2889ntf    fn416327   0.301   4.851   6.708  0.0814 -0.5193  0.2977
 2889ntf    fn416328   0.293   4.747   6.521  0.2567 -0.0295 -0.4411
 2889ntf    on516329   0.436   4.551   6.710  0.2664 -0.0275  0.8399
 2889ntf    on516330   0.270   4.614   6.869  0.6144 -0.0333 -0.2146
 2889ntf    on516331  -0.001   4.508   6.814  0.1581  0.2820  0.1319
 2889ntf    on516332   0.094   4.283   6.745 -0.4553  0.1850  0.0060
 2889ntf    fn416333  -0.016   4.317   6.504 -0.2709  0.1191 -0.0089
 2889ntf    fn416334  -0.169   4.404   6.618  0.0924 -0.1451 -0.0124
 2889ntf    fn416335  -0.031   4.522   6.497  0.5429  0.0755 -0.0571
 2890ntf    cn116336   0.861   5.010   3.922  0.3759 -0.2846 -0.0019
 2890ntf    sn216337   0.951   5.068   3.775 -0.1471 -0.3499 -0.3517
 2890ntf    nn316338   1.062   5.156   3.843 -0.5382 -0.0969 -0.0381
 2890ntf    sn216339   1.204   5.201   3.792 -0.3283 -0.3120  0.3520
 2890ntf    cn116340   1.185   5.382   3.791 -0.0591 -0.2850 -0.3118
 2890ntf    fn416341   0.751   4.946   3.887 -0.1044  0.4988  0.0369
 2890ntf    fn416342   0.924   4.919   3.995  0.8249 -0.2156 -0.3013
 2890ntf    fn416343   0.825   5.105   4.007 -0.9553 -0.6234 -0.1597
 2890ntf    on516344   0.987   4.952   3.697  0.3617 -0.4044 -0.0421
 2890ntf    on516345   0.855   5.158   3.718  0.3055  0.3280 -0.0595
 2890ntf    on516346   1.240   5.163   3.658  0.0010 -0.2400  0.4208
 2890ntf    on516347   1.304   5.184   3.894  0.2314  0.5500 -0.0432
 2890ntf    fn416348   1.096   5.431   3.706  0.2652  0.4154 -0.2481
 2890ntf    fn416349   1.157   5.434   3.909  0.1917 -0.0617 -0.3500
 2890ntf    fn416350   1.305   5.431   3.765 -0.1910  0.2011 -0.0013
 2891ntf    cn116351   4.072   0.569   2.054 -0.3739  0.3309 -0.4571
 2891ntf    sn216352   4.190   0.640   2.171 -0.4782  0.0391 -0.1724
 2891ntf    nn316353   4.322   0.640   2.085 -0.5057 -0.3392 -0.2146
 2891ntf    sn216354   4.459   0.567   2.111 -0.2880  0.0429 -0.2964
 2891ntf    cn116355   4.560   0.679   2.009  0.1278 -0.3330 -0.2995
 2891ntf    fn416356   4.102   0.442   2.028 -0.6609  0.3465 -0.8822
 2891ntf    fn416357   3.950   0.555   2.103  0.1165  0.1181  0.7285
 2891ntf    fn416358   4.070   0.627   1.935 -0.3255  0.7119 -0.2704
 2891ntf    on516359   4.139   0.773   2.190  0.3749  0.3804 -0.2059
 2891ntf    on516360   4.195   0.548   2.282 -0.2815  0.4542  0.1692
 2891ntf    on516361   4.476   0.435   2.056  0.5199 -0.0950  0.2665
 2891ntf    on516362   4.524   0.589   2.238 -0.1629  0.3875 -0.4175
 2891ntf    fn416363   4.686   0.641   1.998  0.2765  0.1629 -0.3119
 2891ntf    fn416364   4.514   0.685   1.885  0.5011  0.4332 -0.4041
 2891ntf    fn416365   4.562   0.806   2.046  0.1049 -0.3393 -0.2759
 2892ntf    cn116366   0.993   2.203   6.592 -0.5474  0.0170  0.0260
 2892ntf    sn216367   1.136   2.282   6.513 -0.4775  0.0995  0.2351
 2892ntf    nn316368   1.226   2.316   6.638  0.0073 -0.2020 -0.0284
 2892ntf    sn216369   1.356   2.241   6.685 -0.0269 -0.1870  0.0894
 2892ntf    cn116370   1.485   2.325   6.588 -0.2057  0.2093  0.1914
 2892ntf    fn416371   0.953   2.103   6.516  0.5136  0.0910 -0.6486
 2892ntf    fn416372   1.018   2.149   6.710 -0.0988 -0.0903 -0.1161
 2892ntf    fn416373   0.890   2.285   6.610 -0.2996  0.2408  0.4493
 2892ntf    on516374   1.181   2.181   6.421 -0.2254 -0.1053  0.5776
 2892ntf    on516375   1.070   2.399   6.460 -0.6766 -0.1220 -0.0047
 2892ntf    on516376   1.361   2.100   6.659  0.9581 -0.0314 -0.6335
 2892ntf    on516377   1.397   2.278   6.818 -0.0865  0.0773  0.0351
 2892ntf    fn416378   1.599   2.260   6.598 -0.4558 -0.2277  0.2112
 2892ntf    fn416379   1.452   2.322   6.460 -0.2080  0.0831  0.1955
 2892ntf    fn416380   1.500   2.450   6.630  0.0000  0.2106  0.1118
 2893ntf    cn116381   3.455   5.649   1.969  0.3001 -0.0845 -0.1370
 2893ntf    sn216382   3.563   5.769   2.053 -0.0500  0.0870  0.0737
 2893ntf    nn316383   3.628   5.830   1.924 -0.2472  0.3002  0.0751
 2893ntf    sn216384   3.567   5.946   1.838 -0.4833 -0.0168 -0.1900
 2893ntf    cn116385   3.648   6.093   1.908 -0.1034 -0.2023 -0.2368
 2893ntf    fn416386   3.526   5.579   1.883 -0.1513 -0.3443 -0.3053
 2893ntf    fn416387   3.401   5.559   2.051  0.9689 -0.1036  0.2901
 2893ntf    fn416388   3.351   5.702   1.907  0.1429  0.0538  0.2376
 2893ntf    on516389   3.470   5.850   2.127  0.0119 -0.0307  0.2816
 2893ntf    on516390   3.658   5.693   2.131 -0.1802 -0.0198  0.1285
 2893ntf    on516391   3.428   5.974   1.866 -0.5484  0.0633 -0.5775
 2893ntf    on516392   3.616   5.942   1.702 -0.4138 -0.0270 -0.1645
 2893ntf    fn416393   3.615   6.203   1.843  0.4999  0.2057  0.1366
 2893ntf    fn416394   3.611   6.100   2.035  0.9311  0.6097  0.0339
 2893ntf    fn416395   3.780   6.088   1.906 -0.1022 -0.2826  0.0120
 2894ntf    cn116396   6.667   1.408   1.637 -0.2675  0.6604  0.2291
 2894ntf    sn216397   6.770   1.349   1.499 -0.2161  0.4852  0.3420
 2894ntf    nn316398   6.788   1.481   1.416 -0.7535  0.1238 -0.3528
 2894ntf    sn216399   6.908   1.516   1.321  0.0060 -0.1754  0.4842
 2894ntf    cn116400   7.003   1.629   1.427  0.0895  0.3550 -0.1478
 2894ntf    fn416401   6.547   1.441   1.593  0.0065  1.0951 -0.2111
 2894ntf    fn416402   6.644   1.311   1.724  0.0384  0.6346  0.2832
 2894ntf    fn416403   6.723   1.510   1.699  0.1039  0.4285  0.2793
 2894ntf    on516404   6.887   1.304   1.570 -0.4046  0.1012  0.4136
 2894ntf    on516405   6.690   1.244   1.443  0.5473  0.0024  0.1361
 2894ntf    on516406   6.867   1.594   1.207  0.4372 -0.4364  0.1462
 2894ntf    on516407   6.991   1.404   1.286 -0.5386 -0.5540  0.3895
 2894ntf    fn416408   6.921   1.726   1.464  0.1038  0.5626 -0.6543
 2894ntf    fn416409   7.050   1.568   1.535  0.1559 -0.0682 -0.4149
 2894ntf    fn416410   7.109   1.692   1.381  0.0797  0.6769  0.2630
 2895ntf    cn116411   5.257   4.673   4.975 -0.0901  0.1556 -0.2443
 2895ntf    sn216412   5.337   4.592   5.117 -0.0234  0.0801 -0.3254
 2895ntf    nn316413   5.260   4.455   5.114 -0.1095  0.1313 -0.4758
 2895ntf    sn216414   5.296   4.321   5.041  0.2940  0.0929 -0.2109
 2895ntf    cn116415   5.379   4.228   5.173 -0.0052 -0.1849 -0.2176
 2895ntf    fn416416   5.125   4.677   4.984 -0.0906 -0.1744 -0.0801
 2895ntf    fn416417   5.308   4.791   4.943  0.2793 -0.0108 -0.2844
 2895ntf    fn416418   5.261   4.611   4.858 -0.2051  0.5157 -0.4415
 2895ntf    on516419   5.476   4.599   5.081  0.1602  0.4452  0.4241
 2895ntf    on516420   5.304   4.676   5.230  0.2078  0.1944 -0.3418
 2895ntf    on516421   5.394   4.342   4.937  0.1306 -0.0771 -0.3996
 2895ntf    on516422   5.178   4.242   5.015 -0.0091  0.6373 -0.5216
 2895ntf    fn416423   5.446   4.122   5.131  0.0461 -0.3076  0.1709
 2895ntf    fn416424   5.459   4.305   5.246 -0.6267  0.5081 -0.2562
 2895ntf    fn416425   5.290   4.183   5.260  0.2196  0.1865  0.2098
 2896ntf    cn116426   5.330   5.733   2.471  0.0177 -0.3095 -0.2289
 2896ntf    sn216427   5.232   5.841   2.579  0.3179 -0.1804 -0.0847
 2896ntf    nn316428   5.092   5.803   2.519  0.0790  0.2474  0.1978
 2896ntf    sn216429   5.014   5.873   2.402 -0.0694 -0.1148  0.0805
 2896ntf    cn116430   5.000   5.730   2.290 -0.1436  0.2729 -0.4104
 2896ntf    fn416431   5.458   5.734   2.505 -0.0019 -0.7109 -0.1370
 2896ntf    fn416432   5.288   5.608   2.460  0.0042 -0.3214 -0.0432
 2896ntf    fn416433   5.322   5.783   2.348 -0.4906 -0.0969 -0.1124
 2896ntf    on516434   5.252   5.784   2.709  0.0937 -0.0184  0.0215
 2896ntf    on516435   5.279   5.977   2.563 -0.8919  0.2587  0.0106
 2896ntf    on516436   5.095   5.962   2.322 -0.0286 -0.1506  0.0813
 2896ntf    on516437   4.879   5.909   2.437  0.1405  0.1687  0.5982
 2896ntf    fn416438   4.949   5.624   2.351  0.1117  0.5283  0.2479
 2896ntf    fn416439   4.929   5.750   2.180 -0.6092  0.0519 -0.1526
 2896ntf    fn416440   5.119   5.697   2.244 -0.0248  0.1100  0.0091
 2897ntf    cn116441   6.094   2.031   4.190  0.1543  0.1271  0.4368
 2897ntf    sn216442   6.267   1.976   4.187  0.1541  0.1407  0.1610
 2897ntf    nn316443   6.249   1.867   4.074  0.1119  0.2892  0.0234
 2897ntf    sn216444   6.252   1.890   3.919  0.1194  0.2265  0.0148
 2897ntf    cn116445   6.157   1.747   3.859 -0.0752  0.3606  0.0015
 2897ntf    fn416446   6.070   2.108   4.294  0.0409  0.6159  0.0529
 2897ntf    fn416447   6.053   2.102   4.086  0.2622  0.3722  0.5618
 2897ntf    fn416448   6.008   1.931   4.202  0.1055  0.0951 -0.1198
 2897ntf    on516449   6.339   2.095   4.151 -0.1037  0.3179  0.2273
 2897ntf    on516450   6.287   1.907   4.312 -0.4214  0.7098  0.5681
 2897ntf    on516451   6.379   1.860   3.858 -0.1196 -0.0654 -0.3459
 2897ntf    on516452   6.176   2.002   3.869 -0.0046  0.0365 -0.2254
 2897ntf    fn416453   6.044   1.728   3.925  0.0094  0.2336  0.1105
 2897ntf    fn416454   6.127   1.763   3.731  0.1304  0.3944 -0.0437
 2897ntf    fn416455   6.213   1.628   3.874 -0.3348  0.2676  0.2276
 2898ntf    cn116456   3.894   3.973   3.289 -0.0032  0.0053  0.0276
 2898ntf    sn216457   3.725   4.013   3.235 -0.0032  0.1147  0.1109
 2898ntf    nn316458   3.650   4.005   3.373 -0.5044  0.2741 -0.1491
 2898ntf    sn216459   3.607   4.128   3.460 -0.1768  0.2434  0.0601
 2898ntf    cn116460   3.625   4.047   3.621  0.2180  0.0300 -0.0903
 2898ntf    fn416461   3.991   3.997   3.203 -0.4809  0.2429 -0.4530
 2898ntf    fn416462   3.918   4.030   3.406 -0.2318 -0.4655  0.3071
 2898ntf    fn416463   3.900   3.842   3.311  0.7007  0.0804  0.2825
 2898ntf    on516464   3.740   4.146   3.180 -0.1129  0.2327  0.3608
 2898ntf    on516465   3.686   3.908   3.144 -0.6509 -0.0422  0.5649
 2898ntf    on516466   3.467   4.163   3.455 -0.2503 -0.0519  0.0653
 2898ntf    on516467   3.697   4.241   3.466 -0.0754  0.1628  0.0373
 2898ntf    fn416468   3.749   4.012   3.650  0.1638 -0.0577  0.0374
 2898ntf    fn416469   3.576   4.129   3.713 -0.3993 -0.0642 -0.3292
 2898ntf    fn416470   3.556   3.934   3.628  0.7315 -0.2771  0.0463
 2899ntf    cn116471   0.425   1.724   3.961  0.0347 -0.0780  0.0546
 2899ntf    sn216472   0.589   1.660   4.008  0.3195  0.2235 -0.5128
 2899ntf    nn316473   0.588   1.705   4.158  0.5370 -0.1046 -0.4116
 2899ntf    sn216474   0.638   1.841   4.219 -0.1937 -0.0806  0.1487
 2899ntf    cn116475   0.758   1.765   4.332 -0.1502 -0.0380  0.1313
 2899ntf    fn416476   0.322   1.679   4.030  0.1049  0.4974  0.5492
 2899ntf    fn416477   0.421   1.855   3.983 -0.3667 -0.1313  0.3106
 2899ntf    fn416478   0.394   1.697   3.835  0.1397 -0.2236  0.0595
 2899ntf    on516479   0.580   1.518   3.986  0.3333  0.1390  0.0057
 2899ntf    on516480   0.688   1.727   3.927  1.2983 -0.0947  0.4017
 2899ntf    on516481   0.537   1.910   4.296 -0.2449  0.1072 -0.0841
 2899ntf    on516482   0.724   1.917   4.131 -0.5670  0.7806  0.5202
 2899ntf    fn416483   0.706   1.697   4.434  0.0630 -0.3562  0.0287
 2899ntf    fn416484   0.843   1.685   4.270 -0.0740  0.0218  0.1584
 2899ntf    fn416485   0.841   1.857   4.380 -0.1669  0.2757 -0.4361
 2900ntf    cn116486   1.201   6.639   2.935 -0.1375 -0.3229 -0.0409
 2900ntf    sn216487   1.357   6.665   2.845 -0.2667 -0.1988 -0.2305
 2900ntf    nn316488   1.457   6.580   2.932  0.2597  0.1987 -0.4402
 2900ntf    sn216489   1.602   6.527   2.903  0.1341 -0.4181  0.0385
 2900ntf    cn116490   1.557   6.377   2.811 -0.2715 -0.1199 -0.2517
 2900ntf    fn416491   1.103   6.723   2.909 -0.3431 -0.6081 -0.1979
 2900ntf    fn416492   1.158   6.514   2.924 -0.2485 -0.3149  0.3008
 2900ntf    fn416493   1.227   6.649   3.064  0.6027 -0.5477 -0.1654
 2900ntf    on516494   1.330   6.614   2.713  0.4625 -0.1305 -0.4146
 2900ntf    on516495   1.382   6.806   2.857 -0.8388 -0.0904 -0.2814
 2900ntf    on516496   1.670   6.484   3.023  0.2084 -0.1881  0.0793
 2900ntf    on516497   1.684   6.602   2.812  0.3324 -0.0578  0.5090
 2900ntf    fn416498   1.496   6.406   2.697 -0.1530 -0.3666 -0.3766
 2900ntf    fn416499   1.663   6.300   2.792  0.1216  0.4029 -0.1875
 2900ntf    fn416500   1.479   6.298   2.883 -0.2604  0.5987  0.5636
 2901ntf    cn116501   0.732   1.016   1.810 -0.5634  0.1913 -0.0654
 2901ntf    sn216502   0.671   0.883   1.918 -0.2383  0.0405 -0.0669
 2901ntf    nn316503   0.773   0.905   2.036  0.0783  0.4652 -0.4163
 2901ntf    sn216504   0.751   0.999   2.159  0.0768 -0.0687 -0.0046
 2901ntf    cn116505   0.664   0.888   2.274 -0.2100  0.2886  0.1234
 2901ntf    fn416506   0.721   1.139   1.859  0.3261 -0.1773  1.0840
 2901ntf    fn416507   0.861   0.999   1.786 -0.5786 -0.4262  0.2780
 2901ntf    fn416508   0.663   1.011   1.697 -0.2789  0.0621 -0.2322
 2901ntf    on516509   0.533   0.915   1.945 -0.0938  0.4354  0.2205
 2901ntf    on516510   0.694   0.762   1.844 -0.2875  0.4174 -0.7034
 2901ntf    on516511   0.657   1.108   2.151 -0.3562 -0.3966  0.5554
 2901ntf    on516512   0.878   1.032   2.221 -0.0469  0.2574  0.0797
 2901ntf    fn416513   0.629   0.944   2.388  0.4239  0.0194  0.4529
 2901ntf    fn416514   0.547   0.841   2.234 -0.3160  0.7561 -0.1252
 2901ntf    fn416515   0.751   0.793   2.303 -0.1998  0.3512  0.3004
 2902ntf    cn116516   4.312   4.773   5.480 -0.0305 -0.3587  0.0734
 2902ntf    sn216517   4.150   4.725   5.549 -0.2895  0.3131 -0.0610
 2902ntf    nn316518   4.184   4.595   5.630  0.0869  0.5877  0.2292
 2902ntf    sn216519   4.176   4.577   5.786  0.1736 -0.1692  0.1493
 2902ntf    cn116520   3.996   4.595   5.805  0.1570 -0.3516  0.1692
 2902ntf    fn416521   4.408   4.781   5.571  0.0158 -0.1617  0.0075
 2902ntf    fn416522   4.354   4.701   5.378  0.4444  0.2251 -0.1468
 2902ntf    fn416523   4.306   4.895   5.430  0.1605 -0.2494  0.3154
 2902ntf    on516524   4.119   4.846   5.623 -0.0343  0.1548  0.3096
 2902ntf    on516525   4.075   4.690   5.432 -0.0605 -0.8503  0.1280
 2902ntf    on516526   4.236   4.686   5.859 -0.2792  0.0840  0.1439
 2902ntf    on516527   4.199   4.441   5.828 -0.2392 -0.1498  0.4449
 2902ntf    fn416528   3.944   4.700   5.743  0.4914 -0.0593  0.3771
 2902ntf    fn416529   3.919   4.501   5.754 -0.1990  0.1804 -0.2883
 2902ntf    fn416530   3.964   4.601   5.933 -0.7573 -0.3956 -0.0493
 2903ntf    cn116531   5.237   0.000   2.700 -0.5824  0.0411  0.2916
 2903ntf    sn216532   5.172   0.094   2.841 -0.1510  0.5287  0.1699
 2903ntf    nn316533   5.294   0.095   2.941 -0.2017 -0.1335  0.2417
 2903ntf    sn216534   5.309   0.198   3.058  0.2329 -0.1806  0.2274
 2903ntf    cn116535   5.409   0.335   2.991 -0.2244  0.0043 -0.0819
 2903ntf    fn416536   5.344   0.062   2.651 -0.3613 -0.6681 -0.1351
 2903ntf    fn416537   5.286  -0.119   2.728 -0.5173  0.0363  0.1581
 2903ntf    fn416538   5.147  -0.016   2.604 -0.4320 -0.8586  0.2895
 2903ntf    on516539   5.144   0.220   2.778 -0.7479  0.6464  0.6579
 2903ntf    on516540   5.059   0.016   2.884  0.1677  0.3604  0.7101
 2903ntf    on516541   5.397   0.131   3.150  0.7546 -0.4872 -0.4798
 2903ntf    on516542   5.193   0.250   3.125  0.3157 -0.3202  0.4790
 2903ntf    fn416543   5.526   0.302   2.939 -0.5370 -0.3334 -0.5789
 2903ntf    fn416544   5.347   0.391   2.889 -0.0618  0.0468 -0.1573
 2903ntf    fn416545   5.431   0.427   3.084  0.6599 -0.1535 -0.1317
 2904ntf    cn116546   2.406   6.832   4.955  0.0219 -0.1442  0.1036
 2904ntf    sn216547   2.515   6.956   4.879  0.1057 -0.0546  0.3687
 2904ntf    nn316548   2.510   6.894   4.735 -0.7239  0.1864  0.2884
 2904ntf    sn216549   2.411   6.934   4.620 -0.3454 -0.1522 -0.1597
 2904ntf    cn116550   2.487   7.082   4.548 -0.0363 -0.2933 -0.1239
 2904ntf    fn416551   2.484   6.732   4.995  0.6660  0.3383  0.0791
 2904ntf    fn416552   2.347   6.879   5.064 -0.1012  0.1946 -0.1105
 2904ntf    fn416553   2.310   6.784   4.879  0.0170  0.2407 -0.1343
 2904ntf    on516554   2.448   7.083   4.891 -0.1159 -0.1296 -0.0811
 2904ntf    on516555   2.648   6.943   4.934  0.2307 -0.1593  0.0401
 2904ntf    on516556   2.279   6.976   4.661  0.1180  0.9003  0.2819
 2904ntf    on516557   2.421   6.827   4.524 -0.5785  0.0630 -0.4242
 2904ntf    fn416558   2.423   7.131   4.443  0.4163  0.1330 -0.2064
 2904ntf    fn416559   2.518   7.177   4.636  0.0816  0.2450 -0.7346
 2904ntf    fn416560   2.598   7.052   4.482  0.3506  0.4005  0.1967
 2905ntf    cn116561   5.349   7.049   0.994  0.1418  0.1618 -0.1167
 2905ntf    sn216562   5.364   7.025   0.814 -0.0233  0.4646 -0.1709
 2905ntf    nn316563   5.383   6.869   0.819  0.0155  0.4697 -0.1496
 2905ntf    sn216564   5.281   6.754   0.788  0.3563  0.1432 -0.0574
 2905ntf    cn116565   5.307   6.640   0.928 -0.0323  0.1074 -0.0146
 2905ntf    fn416566   5.304   7.167   1.033 -0.0455  0.2558 -0.6011
 2905ntf    fn416567   5.257   6.974   1.052  0.0921  0.0496 -0.3373
 2905ntf    fn416568   5.465   7.019   1.049 -0.0195  0.0937  0.1900
 2905ntf    on516569   5.243   7.079   0.757 -0.1120  0.3974 -0.0456
 2905ntf    on516570   5.486   7.092   0.775  0.2078  0.1398 -0.0105
 2905ntf    on516571   5.311   6.670   0.674 -0.2191  0.1582 -0.2188
 2905ntf    on516572   5.140   6.778   0.796  0.2889 -0.2328 -0.1173
 2905ntf    fn416573   5.430   6.594   0.944 -0.0612 -0.0402 -0.2139
 2905ntf    fn416574   5.280   6.705   1.040  0.4662  0.2806  0.0078
 2905ntf    fn416575   5.232   6.532   0.924  0.2501 -0.0765 -0.3836
 2906ntf    cn116576   6.368   5.855   2.989 -0.3636 -0.2472  0.3877
 2906ntf    sn216577   6.231   5.889   3.104 -0.3775  0.4337  0.1764
 2906ntf    nn316578   6.158   5.994   3.013 -0.4415  0.0471 -0.2224
 2906ntf    sn216579   6.163   6.149   3.033 -0.0857  0.0156 -0.0544
 2906ntf    cn116580   6.010   6.176   3.128  0.0500  0.2199  0.1087
 2906ntf    fn416581   6.442   5.965   2.987 -0.3041 -0.2928  0.0834
 2906ntf    fn416582   6.443   5.754   3.030 -0.1338 -0.2081  0.0637
 2906ntf    fn416583   6.318   5.825   2.871  0.2157 -0.3482  0.1645
 2906ntf    on516584   6.158   5.765   3.106 -0.8031  0.6886  0.8777
 2906ntf    on516585   6.289   5.936   3.228 -0.5578 -0.1646  0.4904
 2906ntf    on516586   6.136   6.230   2.917  0.0281  0.5668  0.2947
 2906ntf    on516587   6.262   6.205   3.122 -0.0620  0.0955 -0.1306
 2906ntf    fn416588   5.904   6.132   3.061  0.4259  0.1148 -0.4249
 2906ntf    fn416589   6.011   6.103   3.238  0.1298 -0.4133 -0.3066
 2906ntf    fn416590   5.984   6.300   3.166 -0.0950  0.2859 -0.1967
 2907ntf    cn116591   2.563   2.990   1.238 -0.0398  0.0240  0.0261
 2907ntf    sn216592   2.627   3.160   1.241 -0.3314  0.1341 -0.0139
 2907ntf    nn316593   2.780   3.130   1.222 -0.4380 -0.2282 -0.3358
 2907ntf    sn216594   2.891   3.103   1.330 -0.4910 -0.1156 -0.2518
 2907ntf    cn116595   2.959   2.957   1.245 -0.3457  0.0894 -0.4898
 2907ntf    fn416596   2.602   2.916   1.341  0.1332 -0.3304 -0.2885
 2907ntf    fn416597   2.432   2.990   1.256 -0.0498 -0.2997 -0.0345
 2907ntf    fn416598   2.584   2.924   1.125 -0.3361 -0.0458  0.0105
 2907ntf    on516599   2.565   3.214   1.122 -0.2442  0.4795  0.0987
 2907ntf    on516600   2.586   3.207   1.370  0.5972  0.1636  0.2801
 2907ntf    on516601   2.844   3.058   1.459 -0.3685 -0.0553 -0.1859
 2907ntf    on516602   2.988   3.209   1.325 -0.5830 -0.0407 -0.4687
 2907ntf    fn416603   3.022   2.871   1.323 -0.1654  0.4129 -0.2811
 2907ntf    fn416604   2.850   2.899   1.196 -0.8257  0.4450  0.1552
 2907ntf    fn416605   3.039   2.976   1.141 -0.3555  0.3381 -0.4508
 2908ntf    cn116606   0.539   6.861   5.426 -0.1039  0.4411 -0.0381
 2908ntf    sn216607   0.651   6.789   5.550 -0.4210 -0.0807 -0.0498
 2908ntf    nn316608   0.615   6.881   5.672 -0.2709  0.2168 -0.2282
 2908ntf    sn216609   0.671   7.022   5.713 -0.0327  0.0822 -0.0896
 2908ntf    cn116610   0.535   7.084   5.817  0.0111  0.3683 -0.2025
 2908ntf    fn416611   0.413   6.872   5.464 -0.0338  0.5174  0.1766
 2908ntf    fn416612   0.595   6.975   5.390  0.0618  0.2181 -0.4905
 2908ntf    fn416613   0.530   6.792   5.313  0.0379 -0.1871  0.3242
 2908ntf    on516614   0.599   6.656   5.568 -0.3824 -0.1705 -0.5865
 2908ntf    on516615   0.784   6.799   5.496 -0.5900 -0.6149 -0.5780
 2908ntf    on516616   0.673   7.114   5.603  0.0179  0.0459 -0.1197
 2908ntf    on516617   0.783   7.004   5.801 -0.2817 -0.1776  0.1795
 2908ntf    fn416618   0.566   7.187   5.894 -0.0274 -0.0662  0.4064
 2908ntf    fn416619   0.430   7.111   5.742 -0.0462  0.1304 -0.2104
 2908ntf    fn416620   0.498   6.995   5.908  0.4850  0.0330 -0.3348
 2909ntf    cn116621   6.078   4.079   3.717 -0.2008  0.0184 -0.4533
 2909ntf    sn216622   5.902   4.073   3.760 -0.1337  0.1925 -0.1554
 2909ntf    nn316623   5.907   4.137   3.903  0.3440  0.1964 -0.1710
 2909ntf    sn216624   5.874   4.287   3.937  0.4273  0.1714  0.0212
 2909ntf    cn116625   5.806   4.279   4.106  0.1830  0.2627 -0.0725
 2909ntf    fn416626   6.143   3.984   3.782 -0.1705  0.2257 -0.1842
 2909ntf    fn416627   6.085   4.046   3.589  0.3941  0.0218 -0.4259
 2909ntf    fn416628   6.138   4.196   3.732 -0.0408 -0.0713 -0.3874
 2909ntf    on516629   5.852   4.147   3.647  0.6366  0.3750 -0.3844
 2909ntf    on516630   5.869   3.933   3.770  0.5428  0.0540  0.1906
 2909ntf    on516631   5.756   4.340   3.873  0.0787 -0.2382  0.3142
 2909ntf    on516632   5.989   4.375   3.937  0.0391  0.6853 -0.3092
 2909ntf    fn416633   5.851   4.361   4.199 -0.0811  0.3024  0.0208
 2909ntf    fn416634   5.675   4.301   4.109  0.2245  0.4178  0.5841
 2909ntf    fn416635   5.825   4.159   4.159  0.3251  0.3890  0.1585
 2910ntf    cn116636   4.250   6.179   4.696  0.2999  0.1138  0.1146
 2910ntf    sn216637   4.315   6.010   4.712  0.0127 -0.0105 -0.0173
 2910ntf    nn316638   4.235   5.934   4.601 -0.5101  0.1683  0.2357
 2910ntf    sn216639   4.169   5.792   4.614  0.1281 -0.1625 -0.0618
 2910ntf    cn116640   4.197   5.725   4.447  0.2456 -0.5228  0.1025
 2910ntf    fn416641   4.322   6.267   4.764  0.3736  0.3907 -0.3148
 2910ntf    fn416642   4.252   6.228   4.573  0.1434  0.0483  0.0856
 2910ntf    fn416643   4.124   6.178   4.737  0.3543 -0.3338  0.2743
 2910ntf    on516644   4.454   6.024   4.676  0.3076 -0.0195  1.0953
 2910ntf    on516645   4.287   5.972   4.848 -0.1200  1.0715  0.2701
 2910ntf    on516646   4.026   5.788   4.633  0.1288 -0.8584 -0.1823
 2910ntf    on516647   4.251   5.703   4.691 -0.1942  0.0741  0.5679
 2910ntf    fn416648   4.322   5.698   4.415  0.3006  0.2951 -0.4053
 2910ntf    fn416649   4.125   5.619   4.415  0.4011 -0.6084  0.0325
 2910ntf    fn416650   4.166   5.817   4.358  0.2995 -1.1460 -0.5653
 2911ntf    cn116651   2.223   0.546   2.396  0.4465 -0.2080  0.0376
 2911ntf    sn216652   2.085   0.663   2.406  0.4624 -0.1979  0.1356
 2911ntf    nn316653   2.088   0.728   2.263 -0.1759  0.1471  0.2742
 2911ntf    sn216654   2.167   0.861   2.232  0.0149 -0.1298 -0.4464
 2911ntf    cn116655   2.033   0.977   2.275 -0.1176 -0.5074  0.1846
 2911ntf    fn416656   2.268   0.506   2.514  0.3968 -0.8038 -0.1418
 2911ntf    fn416657   2.186   0.438   2.328 -0.1910  0.0020  0.0411
 2911ntf    fn416658   2.323   0.604   2.331  0.2363  0.6013  0.4263
 2911ntf    on516659   1.974   0.571   2.412  0.2393  0.0604  0.0131
 2911ntf    on516660   2.108   0.754   2.515  0.2061  0.4017 -0.2996
 2911ntf    on516661   2.182   0.868   2.089  0.3005  0.5529 -0.3834
 2911ntf    on516662   2.283   0.887   2.314  0.0918 -0.6089 -0.4002
 2911ntf    fn416663   1.979   0.960   2.394 -0.2051  0.2040  0.2477
 2911ntf    fn416664   2.078   1.101   2.271 -0.1839 -0.4661  0.6720
 2911ntf    fn416665   1.924   0.977   2.200 -0.0985  0.1080  0.1551
 2912ntf    cn116666   4.083   2.702   6.487  0.0671  0.0043 -0.1572
 2912ntf    sn216667   4.073   2.694   6.668 -0.3282 -0.1577 -0.1852
 2912ntf    nn316668   4.174   2.812   6.690 -0.1743 -0.3196 -0.0194
 2912ntf    sn216669   4.254   2.855   6.818 -0.0608 -0.0596 -0.1776
 2912ntf    cn116670   4.150   2.998   6.861  0.0019 -0.0415 -0.0874
 2912ntf    fn416671   4.136   2.814   6.441 -0.6829  0.2486 -0.4434
 2912ntf    fn416672   4.150   2.601   6.433 -0.2676 -0.4371  0.2472
 2912ntf    fn416673   3.964   2.691   6.430  0.2563 -0.4003 -0.4845
 2912ntf    on516674   3.932   2.714   6.689 -0.2789 -0.2098  0.1982
 2912ntf    on516675   4.128   2.564   6.699  0.2003 -0.0346 -0.5908
 2912ntf    on516676   4.380   2.917   6.786  0.0415 -0.0851  0.1652
 2912ntf    on516677   4.251   2.768   6.933  0.2865 -0.0031 -0.1250
 2912ntf    fn416678   4.021   2.968   6.866 -0.1472  0.6158  0.0615
 2912ntf    fn416679   4.182   3.063   6.972 -0.7690 -0.5761  0.4645
 2912ntf    fn416680   4.155   3.085   6.762  0.1979 -0.5311 -0.5156
 2913ntf    cn116681   2.055   4.745   2.443  0.1689 -0.1792  0.1658
 2913ntf    sn216682   1.999   4.804   2.605 -0.1615  0.0485 -0.0302
 2913ntf    nn316683   2.079   4.939   2.615 -0.3230  0.1738 -0.4411
 2913ntf    sn216684   2.208   4.965   2.701 -0.5371 -0.1206 -0.0282
 2913ntf    cn116685   2.254   5.122   2.622  0.3674 -0.1266  0.4759
 2913ntf    fn416686   1.986   4.644   2.391  0.0482 -0.5410  1.0046
 2913ntf    fn416687   2.025   4.840   2.356  0.2841  0.1337  0.4686
 2913ntf    fn416688   2.186   4.725   2.437  0.2165  0.0779  0.3388
 2913ntf    on516689   1.858   4.833   2.598 -0.3266 -0.7316 -0.0750
 2913ntf    on516690   2.036   4.704   2.702 -0.0563  0.5755  0.4813
 2913ntf    on516691   2.320   4.882   2.668 -0.1437  0.2170  0.4485
 2913ntf    on516692   2.185   5.002   2.838 -0.5026 -0.4802  0.0740
 2913ntf    fn416693   2.154   5.208   2.638  0.2582 -0.0064 -0.7384
 2913ntf    fn416694   2.358   5.174   2.685  0.5174  0.0851  0.0590
 2913ntf    fn416695   2.284   5.118   2.493  0.1562 -0.3028  0.4322
 2914ntf    cn116696   2.922   1.335   2.377 -0.1384 -0.1960 -0.4068
 2914ntf    sn216697   2.769   1.289   2.291 -0.5140  0.1625  0.0639
 2914ntf    nn316698   2.817   1.283   2.142  0.4807 -0.4109  0.4009
 2914ntf    sn216699   2.742   1.204   2.029  0.2155  0.2880  0.0828
 2914ntf    cn116700   2.837   1.050   2.015 -0.1835  0.0451  0.0225
 2914ntf    fn416701   3.007   1.234   2.382 -0.4671 -0.4379  0.5856
 2914ntf    fn416702   2.977   1.441   2.319 -0.7134  0.2130 -0.2108
 2914ntf    fn416703   2.891   1.363   2.503  0.3564 -0.7037 -0.1696
 2914ntf    on516704   2.742   1.162   2.353  0.0876  0.3577  0.7366
 2914ntf    on516705   2.686   1.405   2.315 -0.5817  0.1891 -0.2933
 2914ntf    on516706   2.765   1.256   1.896 -0.4038  0.6704  0.1202
 2914ntf    on516707   2.609   1.153   2.053 -0.0471  0.8052 -0.2507
 2914ntf    fn416708   2.965   1.084   2.007 -0.0237 -0.4027  0.5982
 2914ntf    fn416709   2.831   0.968   2.118  0.0433  0.1118  0.0896
 2914ntf    fn416710   2.803   0.977   1.910  0.0124 -0.4938  0.3308
 2915ntf    cn116711   5.818   6.854   2.455 -0.2711  0.5728 -0.3448
 2915ntf    sn216712   5.975   6.899   2.375 -0.0592  0.1730 -0.1569
 2915ntf    nn316713   6.010   6.754   2.327  1.2268  0.2841  0.4115
 2915ntf    sn216714   6.059   6.702   2.187 -0.0223  0.0139  0.0638
 2915ntf    cn116715   6.009   6.528   2.206 -0.0256 -0.0179 -0.2364
 2915ntf    fn416716   5.745   6.782   2.371  0.6710 -0.1085 -0.5919
 2915ntf    fn416717   5.854   6.779   2.557 -0.0157  0.4092 -0.5528
 2915ntf    fn416718   5.751   6.958   2.503  0.0051  0.3897  0.4367
 2915ntf    on516719   5.922   6.993   2.279  0.3118  0.1325 -0.4023
 2915ntf    on516720   6.061   6.949   2.479 -0.0939  0.0024 -0.0466
 2915ntf    on516721   6.201   6.700   2.163  0.0541 -0.2175  0.5228
 2915ntf    on516722   5.971   6.734   2.077 -0.1490  0.2074  0.2204
 2915ntf    fn416723   6.031   6.459   2.096 -0.9031 -0.3165 -0.2314
 2915ntf    fn416724   6.070   6.460   2.302  0.0459 -0.3187 -0.4937
 2915ntf    fn416725   5.878   6.508   2.218 -0.0363  0.1592 -0.0539
 2916ntf    cn116726   0.330   0.085   6.338 -0.2800  0.9936  0.3298
 2916ntf    sn216727   0.190  -0.007   6.408  0.3350 -0.0326  0.2296
 2916ntf    nn316728   0.263  -0.063   6.535  0.3379 -0.5387  0.0053
 2916ntf    sn216729   0.268  -0.004   6.680  0.2006 -0.0700 -0.1796
 2916ntf    cn116730   0.158  -0.120   6.767  0.0964  0.1953  0.0446
 2916ntf    fn416731   0.356   0.200   6.399  0.3833  0.6655  0.6754
 2916ntf    fn416732   0.446   0.020   6.339 -0.5234  0.5020 -0.9631
 2916ntf    fn416733   0.305   0.121   6.213  0.2019  0.4348  0.0708
 2916ntf    on516734   0.095   0.100   6.426  0.0595 -0.2013 -0.2274
 2916ntf    on516735   0.149  -0.100   6.306 -0.0050  0.1636  0.1866
 2916ntf    on516736   0.200   0.122   6.701  0.1410 -0.1429  0.0721
 2916ntf    on516737   0.396  -0.013   6.746  0.2727 -0.2832 -0.3465
 2916ntf    fn416738   0.175  -0.131   6.897  0.4022  0.6468  0.0465
 2916ntf    fn416739   0.031  -0.098   6.740  0.1014  0.4747  0.2445
 2916ntf    fn416740   0.177  -0.242   6.718  0.3171  0.4815 -0.6054
 2917ntf    cn116741   3.718   5.972   5.773  0.1658 -0.1777  0.2164
 2917ntf    sn216742   3.654   5.989   5.604  0.4212 -0.1197  0.1257
 2917ntf    nn316743   3.725   6.120   5.556  0.2319 -0.2656 -0.5746
 2917ntf    sn216744   3.661   6.262   5.532  0.2667 -0.2201 -0.4026
 2917ntf    cn116745   3.737   6.349   5.672 -0.1011  0.0139 -0.3461
 2917ntf    fn416746   3.731   5.853   5.830  0.5841 -0.4465 -0.4369
 2917ntf    fn416747   3.839   6.025   5.781  0.3762 -0.6247  0.0456
 2917ntf    fn416748   3.646   6.045   5.857  0.2800 -0.2013  0.3345
 2917ntf    on516749   3.718   5.874   5.544 -0.3747 -0.2794 -0.4411
 2917ntf    on516750   3.510   5.979   5.614  0.4204 -0.0698  0.1616
 2917ntf    on516751   3.519   6.273   5.554  0.2551 -0.7410 -0.2000
 2917ntf    on516752   3.717   6.351   5.434 -0.4011  0.2926 -0.3196
 2917ntf    fn416753   3.694   6.472   5.693  0.4384  0.1922 -0.2631
 2917ntf    fn416754   3.708   6.278   5.780 -0.2293 -0.3686 -0.6308
 2917ntf    fn416755   3.870   6.350   5.665 -0.0642 -0.4087  0.1758
 2918ntf    cn116756   4.691   4.092   2.397 -0.2139 -0.0295 -0.5270
 2918ntf    sn216757   4.808   4.151   2.270  0.1251  0.2258 -0.1006
 2918ntf    nn316758   4.859   4.008   2.231 -0.1091  0.1010  0.0500
 2918ntf    sn216759   4.897   3.937   2.097 -0.1172  0.0918  0.0525
 2918ntf    cn116760   4.857   3.767   2.150 -0.1991  0.0956  0.0030
 2918ntf    fn416761   4.592   4.022   2.345 -0.4947  0.0833 -0.1416
 2918ntf    fn416762   4.754   4.004   2.474  0.2626  0.4513 -0.3571
 2918ntf    fn416763   4.643   4.185   2.477  0.0170 -0.4298  0.0835
 2918ntf    on516764   4.706   4.214   2.189  0.1339  0.3523 -0.0141
 2918ntf    on516765   4.888   4.234   2.356 -0.3633  0.3264  0.2624
 2918ntf    on516766   5.038   3.949   2.066 -0.0070  0.0237  0.5214
 2918ntf    on516767   4.794   3.958   1.999  0.3225 -0.0664 -0.4494
 2918ntf    fn416768   4.930   3.730   2.254  0.3683 -0.2703 -0.5174
 2918ntf    fn416769   4.727   3.768   2.175 -0.2120 -0.3450 -0.0380
 2918ntf    fn416770   4.880   3.676   2.056 -0.2832  0.2351 -0.1535
 2919ntf    cn116771   3.961   3.832   6.552 -0.2399  0.4245  0.0716
 2919ntf    sn216772   3.973   3.974   6.664  0.0998  0.2206  0.2940
 2919ntf    nn316773   4.103   4.046   6.612 -0.1044  0.1831 -0.2687
 2919ntf    sn216774   4.104   4.167   6.512 -0.1382  0.2733 -0.1592
 2919ntf    cn116775   4.040   4.296   6.623 -0.4186 -0.2427  0.2843
 2919ntf    fn416776   3.974   3.865   6.424  0.0552  0.1554  0.0313
 2919ntf    fn416777   4.057   3.742   6.564 -0.2462  0.3787 -0.2161
 2919ntf    fn416778   3.849   3.765   6.574  0.2978 -0.4234  0.2575
 2919ntf    on516779   3.845   4.038   6.652  0.0459  0.1883  0.6799
 2919ntf    on516780   4.006   3.914   6.791 -0.1595  0.3898  0.4432
 2919ntf    on516781   4.011   4.172   6.401  0.5180 -0.3128 -0.7453
 2919ntf    on516782   4.238   4.209   6.480  0.0445 -0.2094 -0.0349
 2919ntf    fn416783   4.090   4.285   6.745  0.4999 -0.4014 -0.0951
 2919ntf    fn416784   4.075   4.413   6.571 -0.2619 -0.4160  0.0041
 2919ntf    fn416785   3.910   4.295   6.649 -0.4710  0.1340  0.0521
 2920ntf    cn116786   2.248   6.851   5.522 -0.0500 -0.2218 -0.1594
 2920ntf    sn216787   2.192   6.679   5.510 -0.0245 -0.2155 -0.3779
 2920ntf    nn316788   2.154   6.672   5.358  0.4929  0.6232 -0.5517
 2920ntf    sn216789   2.111   6.544   5.279 -0.0407  0.1368  0.5000
 2920ntf    cn116790   2.263   6.512   5.184 -0.1173  0.0744  0.3966
 2920ntf    fn416791   2.152   6.942   5.517  0.3241  0.1617 -0.5716
 2920ntf    fn416792   2.306   6.882   5.637 -0.1439 -0.1272 -0.1372
 2920ntf    fn416793   2.325   6.868   5.415 -0.0434  0.1658 -0.0952
 2920ntf    on516794   2.306   6.597   5.545  0.1567  0.2382  0.1067
 2920ntf    on516795   2.076   6.673   5.596  0.5396 -0.3146  0.3923
 2920ntf    on516796   2.014   6.572   5.175  0.1374  0.6101  0.4596
 2920ntf    on516797   2.086   6.426   5.359  0.8413 -0.0550  0.5051
 2920ntf    fn416798   2.372   6.500   5.259  0.4891 -0.4302 -0.5439
 2920ntf    fn416799   2.259   6.406   5.105  0.3450  0.0424  0.4166
 2920ntf    fn416800   2.293   6.612   5.103 -0.1011 -0.3566 -0.1324
 2921ntf    cn116801   4.017   6.613   5.973  0.0872  0.2635 -0.2549
 2921ntf    sn216802   4.168   6.678   6.051  0.1855 -0.1478 -0.1039
 2921ntf    nn316803   4.282   6.657   5.945  0.7327 -0.1951  0.4871
 2921ntf    sn216804   4.320   6.519   5.880 -0.1715 -0.3040  0.1701
 2921ntf    cn116805   4.464   6.483   5.986  0.2818  0.2747 -0.2436
 2921ntf    fn416806   3.910   6.661   6.035 -0.0755  0.0149 -0.3459
 2921ntf    fn416807   4.017   6.658   5.849 -0.2139  0.6836 -0.1090
 2921ntf    fn416808   4.005   6.482   5.960 -0.0028  0.3006 -0.5518
 2921ntf    on516809   4.147   6.820   6.064  0.8074 -0.0594 -0.0046
 2921ntf    on516810   4.189   6.613   6.178  0.7590 -0.0846 -0.1630
 2921ntf    on516811   4.384   6.534   5.752 -0.2662  0.6130  0.2256
 2921ntf    on516812   4.232   6.405   5.892 -0.1021 -0.3809 -0.0598
 2921ntf    fn416813   4.552   6.580   5.964  1.0164 -0.3337 -0.0283
 2921ntf    fn416814   4.434   6.490   6.114 -0.0224  0.2187 -0.3099
 2921ntf    fn416815   4.524   6.367   5.963  0.3393  0.2854 -0.1454
 2922ntf    cn116816   1.136   2.752   6.119  0.2056 -0.0179 -0.1077
 2922ntf    sn216817   1.263   2.881   6.111 -0.1819  0.3768  0.0677
 2922ntf    nn316818   1.393   2.814   6.053 -0.2517  0.3498 -0.0584
 2922ntf    sn216819   1.450   2.838   5.909  0.2433 -0.1634  0.0512
 2922ntf    cn116820   1.336   2.729   5.820 -0.3474  0.0547  0.5313
 2922ntf    fn416821   1.186   2.649   6.186 -0.5701 -0.2407  0.1427
 2922ntf    fn416822   1.034   2.808   6.182  0.5657  0.1495  0.3328
 2922ntf    fn416823   1.084   2.707   6.006 -0.0062 -0.3984  0.1360
 2922ntf    on516824   1.198   2.978   6.026 -0.1872  0.0983 -0.2510
 2922ntf    on516825   1.269   2.919   6.250 -0.2485 -0.3943  0.2878
 2922ntf    on516826   1.577   2.770   5.895  0.0064 -0.5510 -0.2221
 2922ntf    on516827   1.434   2.968   5.850  0.0987 -0.4337 -0.5125
 2922ntf    fn416828   1.218   2.788   5.821 -0.3491  0.0949 -0.3960
 2922ntf    fn416829   1.363   2.714   5.691  0.0699 -0.2998  0.6573
 2922ntf    fn416830   1.320   2.612   5.880 -0.2245 -0.2250  0.0241
 2923ntf    cn116831   5.460   0.662   4.485 -0.5414  0.5115  0.0321
 2923ntf    sn216832   5.542   0.784   4.591  0.0344  0.2858 -0.1501
 2923ntf    nn316833   5.670   0.707   4.640  0.4222  0.9055 -0.1691
 2923ntf    sn216834   5.814   0.723   4.581  0.3859  0.0473 -0.5144
 2923ntf    cn116835   5.911   0.606   4.679 -0.0497 -0.0049 -0.1432
 2923ntf    fn416836   5.356   0.709   4.418  0.2319  0.9534 -0.8901
 2923ntf    fn416837   5.536   0.614   4.387  0.0343  0.2595  0.5963
 2923ntf    fn416838   5.418   0.557   4.554  0.6833  0.2270  0.3666
 2923ntf    on516839   5.567   0.895   4.503 -0.0143  0.1399 -0.3482
 2923ntf    on516840   5.439   0.810   4.688  0.0512 -0.2862  0.0231
 2923ntf    on516841   5.877   0.850   4.610 -0.7256  0.4967  0.0026
 2923ntf    on516842   5.825   0.668   4.448 -0.3943  0.0111 -0.5657
 2923ntf    fn416843   6.033   0.583   4.632  0.1543 -0.4990  0.5981
 2923ntf    fn416844   5.926   0.653   4.802  0.6451 -0.1886 -0.1508
 2923ntf    fn416845   5.852   0.488   4.693  0.2287 -0.1048  0.2292
 2924ntf    cn116846   3.538   3.354   3.357 -0.4429  0.4387 -0.3608
 2924ntf    sn216847   3.598   3.193   3.416 -0.2323  0.7035  0.1583
 2924ntf    nn316848   3.455   3.130   3.433 -0.0473  0.2673  0.1047
 2924ntf    sn216849   3.373   3.079   3.557  0.0134  0.0213  0.0451
 2924ntf    cn116850   3.445   2.913   3.570  0.0897  0.0547  0.0504
 2924ntf    fn416851   3.524   3.446   3.451  0.6400  0.3825 -0.1277
 2924ntf    fn416852   3.615   3.408   3.263  0.6871  0.0422  0.3246
 2924ntf    fn416853   3.426   3.332   3.290 -0.4293 -0.3582 -0.1314
 2924ntf    on516854   3.678   3.161   3.300 -0.0863  0.3730  0.3501
 2924ntf    on516855   3.670   3.220   3.538  0.1547 -0.0484  0.1025
 2924ntf    on516856   3.235   3.052   3.527 -0.1850  0.3961  0.5872
 2924ntf    on516857   3.400   3.148   3.681  0.5202 -0.1770  0.0456
 2924ntf    fn416858   3.576   2.923   3.583  0.1077 -0.2351  0.0969
 2924ntf    fn416859   3.406   2.851   3.681 -0.3849  0.0703 -0.1041
 2924ntf    fn416860   3.418   2.830   3.471  0.5230 -0.4054  0.3122
 2925ntf    cn116861   6.097   5.510   4.027  0.3098 -0.0955  0.0003
 2925ntf    sn216862   6.135   5.680   3.973  0.5542 -0.0203  0.4082
 2925ntf    nn316863   6.071   5.770   4.085  0.1799  0.6966 -0.3818
 2925ntf    sn216864   6.130   5.864   4.196  0.1505 -0.3988  0.5691
 2925ntf    cn116865   6.210   5.993   4.097 -0.3308 -0.2878  0.3254
 2925ntf    fn416866   6.157   5.488   4.142  0.5886  0.7548  0.0228
 2925ntf    fn416867   5.969   5.489   4.050  0.2613 -0.1251 -0.2908
 2925ntf    fn416868   6.135   5.425   3.933 -0.3457  0.1617 -0.5034
 2925ntf    on516869   6.276   5.698   3.953  0.4460 -0.3555 -0.7109
 2925ntf    on516870   6.057   5.694   3.853  0.1467 -0.4307  0.6180
 2925ntf    on516871   6.240   5.819   4.278  0.6626  0.1276  0.1780
 2925ntf    on516872   6.030   5.941   4.265  0.4238  0.7854 -0.3190
 2925ntf    fn416873   6.150   6.011   3.980  0.2718 -0.1256  0.0337
 2925ntf    fn416874   6.204   6.117   4.142 -0.6082 -0.1590 -0.0564
 2925ntf    fn416875   6.335   5.973   4.058 -0.3259  0.3753 -0.0224
 2926ntf    cn116876   3.253   6.967   5.384 -0.2482  0.0218  0.0931
 2926ntf    sn216877   3.078   6.920   5.397 -0.2082 -0.1531  0.0007
 2926ntf    nn316878   3.023   7.043   5.478 -0.0778 -0.0793 -0.0224
 2926ntf    sn216879   2.985   7.056   5.629  0.2588 -0.0902  0.0640
 2926ntf    cn116880   3.073   7.208   5.677  0.0923  0.0584 -0.0970
 2926ntf    fn416881   3.256   7.072   5.303  0.2476  0.2864  0.4528
 2926ntf    fn416882   3.295   6.994   5.506 -0.2127 -0.0239  0.0911
 2926ntf    fn416883   3.323   6.870   5.329 -0.2304 -0.1463  0.4139
 2926ntf    on516884   3.033   6.929   5.260 -0.1697  0.0306 -0.0003
 2926ntf    on516885   3.088   6.788   5.453 -0.0632  0.1747  0.7549
 2926ntf    on516886   3.020   6.951   5.722 -0.5419  0.0246  0.5092
 2926ntf    on516887   2.847   7.099   5.633  0.2103 -0.2173 -0.2212
 2926ntf    fn416888   3.070   7.310   5.593  0.1630  0.4434  0.3670
 2926ntf    fn416889   3.021   7.250   5.791 -0.0397  0.2515 -0.2273
 2926ntf    fn416890   3.202   7.184   5.695  0.0543 -0.4734 -0.5208
 2927ntf    cn116891   2.638   6.555   3.605  0.3104  0.3656 -0.2491
 2927ntf    sn216892   2.639   6.590   3.783 -0.0626  0.2660 -0.2262
 2927ntf    nn316893   2.775   6.668   3.792  0.3502 -0.4871  0.1675
 2927ntf    sn216894   2.817   6.783   3.891  0.0792 -0.0884 -0.1772
 2927ntf    cn116895   2.988   6.726   3.913  0.1886  0.0898 -0.5495
 2927ntf    fn416896   2.755   6.514   3.559  0.2287  0.3891 -0.4802
 2927ntf    fn416897   2.556   6.453   3.581  0.3456  0.1614  0.4599
 2927ntf    fn416898   2.604   6.653   3.523 -0.2868  0.2708 -0.1225
 2927ntf    on516899   2.517   6.665   3.804 -0.2371  0.0590 -0.4926
 2927ntf    on516900   2.646   6.453   3.828 -0.4948  0.3041 -0.0364
 2927ntf    on516901   2.747   6.775   4.017 -0.4277  0.5138 -0.4169
 2927ntf    on516902   2.827   6.909   3.822 -0.0591 -0.0804 -0.1845
 2927ntf    fn416903   3.046   6.703   3.797 -0.3908  0.3972 -0.9050
 2927ntf    fn416904   3.052   6.820   3.980  0.5355 -0.1143 -0.5924
 2927ntf    fn416905   2.997   6.608   3.973  0.6612  0.3215 -0.1577
 2928ntf    cn116906   1.297   4.354   2.907  0.0661 -0.2549  0.3317
 2928ntf    sn216907   1.143   4.324   2.999 -0.1937 -0.1207 -0.0519
 2928ntf    nn316908   1.050   4.319   2.873 -0.2656  0.2866 -0.0145
 2928ntf    sn216909   0.992   4.190   2.806  0.2152  0.0152  0.0892
 2928ntf    cn116910   0.868   4.270   2.699  0.0528 -0.3354  0.0109
 2928ntf    fn416911   1.402   4.364   2.986  0.0004 -0.2390  0.4165
 2928ntf    fn416912   1.324   4.264   2.814 -0.3865  0.1462 -0.1972
 2928ntf    fn416913   1.289   4.467   2.838 -0.4271 -0.1314  0.5869
 2928ntf    on516914   1.153   4.197   3.067  0.1183 -0.1180 -0.0912
 2928ntf    on516915   1.115   4.440   3.080  0.0193 -0.2128  0.1566
 2928ntf    on516916   0.911   4.099   2.882  0.2321  0.1862  0.3112
 2928ntf    on516917   1.082   4.140   2.705 -0.3664 -0.6671 -0.1033
 2928ntf    fn416918   0.897   4.398   2.679 -0.0717 -0.3612 -0.3261
 2928ntf    fn416919   0.861   4.213   2.581 -0.1483  0.2763 -0.2779
 2928ntf    fn416920   0.749   4.274   2.756  0.4238 -0.2536  0.8086
 2929ntf    cn116921   4.863   3.572   5.108 -0.1285 -0.1091  0.4358
 2929ntf    sn216922   4.821   3.493   4.949 -0.3071  0.2560  0.3016
 2929ntf    nn316923   4.853   3.612   4.851 -0.0614 -0.2587 -0.2461
 2929ntf    sn216924   4.911   3.612   4.706 -0.4722  0.1381 -0.4142
 2929ntf    cn116925   5.089   3.633   4.739 -0.5268 -0.0206 -0.0105
 2929ntf    fn416926   4.858   3.478   5.202 -0.5949 -0.1780  0.3461
 2929ntf    fn416927   4.982   3.628   5.106 -0.4469  0.5534 -0.3360
 2929ntf    fn416928   4.764   3.652   5.143  0.1201  0.2254  0.3743
 2929ntf    on516929   4.922   3.391   4.943 -0.1461  0.4061  0.4443
 2929ntf    on516930   4.686   3.444   4.956  0.0206 -0.6481  0.3227
 2929ntf    on516931   4.877   3.735   4.638 -0.0689  0.3726 -0.1983
 2929ntf    on516932   4.902   3.489   4.631 -0.3981 -0.0187 -0.1674
 2929ntf    fn416933   5.145   3.685   4.630  0.3777 -0.2536  0.3426
 2929ntf    fn416934   5.128   3.719   4.831  0.6114 -0.3192 -0.1927
 2929ntf    fn416935   5.157   3.522   4.759  0.4415  0.6754  0.6205
 2930ntf    cn116936   5.255   5.893   0.496  0.0356  0.4132 -0.0194
 2930ntf    sn216937   5.227   5.862   0.319 -0.1477  0.1632  0.0523
 2930ntf    nn316938   5.090   5.785   0.320 -0.1107  0.0981  0.0871
 2930ntf    sn216939   4.997   5.729   0.207  0.2300 -0.0579 -0.1187
 2930ntf    cn116940   5.043   5.554   0.225 -0.1740 -0.1905 -0.3593
 2930ntf    fn416941   5.366   5.963   0.509 -0.0347  0.4258  0.5067
 2930ntf    fn416942   5.151   5.955   0.549 -0.1511 -0.0011  0.1044
 2930ntf    fn416943   5.277   5.784   0.568  0.6239  0.5246 -0.0278
 2930ntf    on516944   5.222   5.994   0.261  0.1373  0.0659 -0.2007
 2930ntf    on516945   5.338   5.777   0.282 -0.1952 -0.2899  0.9299
 2930ntf    on516946   5.042   5.762   0.074  0.2365 -0.7701 -0.2999
 2930ntf    on516947   4.856   5.743   0.233  0.2874  0.3495 -0.0289
 2930ntf    fn416948   4.972   5.471   0.150 -0.3077 -0.7459  0.3650
 2930ntf    fn416949   5.170   5.520   0.211 -0.0373 -0.0568  0.5010
 2930ntf    fn416950   5.021   5.515   0.350  0.1264  0.2246 -0.1770
 2931ntf    cn116951   2.042   5.401   4.456 -0.4424  0.0736  0.2117
 2931ntf    sn216952   2.110   5.263   4.359 -0.0462  0.1308  0.4072
 2931ntf    nn316953   2.150   5.172   4.481  0.5408  0.1463  0.2273
 2931ntf    sn216954   2.084   5.040   4.533  0.1249  0.2832  0.0488
 2931ntf    cn116955   2.185   4.920   4.442  0.0299  0.1310  0.1441
 2931ntf    fn416956   1.996   5.492   4.371 -0.3515 -0.0698  0.0101
 2931ntf    fn416957   1.952   5.362   4.545 -0.3502  0.1367  0.3319
 2931ntf    fn416958   2.133   5.463   4.529 -0.4224 -0.3086  0.5110
 2931ntf    on516959   2.004   5.220   4.271  0.2478 -0.3685  0.2988
 2931ntf    on516960   2.229   5.319   4.300  0.2345 -0.5401  0.3265
 2931ntf    on516961   1.947   5.010   4.498  0.2854 -0.1137 -0.2433
 2931ntf    on516962   2.122   5.016   4.670  0.3271  0.2472 -0.0139
 2931ntf    fn416963   2.314   4.938   4.465  0.0444  0.0255  0.1470
 2931ntf    fn416964   2.164   4.791   4.462 -0.0673  0.0643 -0.3696
 2931ntf    fn416965   2.184   4.927   4.310  0.9195 -0.0643  0.1224
 2932ntf    cn116966   2.710   3.413   4.096 -0.4955 -0.0129  0.2579
 2932ntf    sn216967   2.839   3.361   4.213 -0.0324 -0.0595 -0.2693
 2932ntf    nn316968   2.923   3.269   4.118  0.1609  0.3293 -0.4771
 2932ntf    sn216969   3.072   3.292   4.073  0.4441 -0.0418  0.2471
 2932ntf    cn116970   3.084   3.170   3.938  0.1202  0.3774 -0.1621
 2932ntf    fn416971   2.642   3.307   4.054 -0.1439 -0.1495  0.0304
 2932ntf    fn416972   2.624   3.501   4.145 -0.4026  0.2546 -0.0573
 2932ntf    fn416973   2.756   3.467   3.984 -0.3275 -0.2248  0.2245
 2932ntf    on516974   2.903   3.481   4.258 -0.4423 -0.0746  0.3645
 2932ntf    on516975   2.759   3.289   4.309 -0.0689  0.3171 -0.0168
 2932ntf    on516976   3.174   3.253   4.167 -0.1421 -0.4479  0.7183
 2932ntf    on516977   3.083   3.421   4.009  0.0845  0.1014  0.4751
 2932ntf    fn416978   3.041   3.051   3.975  0.3995  0.2645 -0.2042
 2932ntf    fn416979   3.004   3.201   3.837 -0.5311  0.1388  0.2783
 2932ntf    fn416980   3.205   3.163   3.886  0.1066  0.0347 -0.1497
 2933ntf    cn116981   4.778   5.727   0.736 -0.2098 -0.4440  0.1665
 2933ntf    sn216982   4.686   5.859   0.821  0.1305 -0.2228  0.1962
 2933ntf    nn316983   4.697   5.822   0.973 -0.2536  0.4631  0.3969
 2933ntf    sn216984   4.610   5.709   1.039 -0.0510 -0.0392 -0.1783
 2933ntf    cn116985   4.736   5.606   1.120  0.0545  0.1294 -0.1274
 2933ntf    fn416986   4.906   5.759   0.729 -0.4634  0.5172 -0.2334
 2933ntf    fn416987   4.768   5.613   0.802  0.2035 -0.6018 -0.0424
 2933ntf    fn416988   4.738   5.702   0.613  0.5100 -0.0546 -0.1532
 2933ntf    on516989   4.763   5.979   0.797 -0.1694 -0.0432  0.1252
 2933ntf    on516990   4.558   5.866   0.755  0.3314  0.1595 -0.1580
 2933ntf    on516991   4.542   5.625   0.944 -0.6159  0.4529 -0.2170
 2933ntf    on516992   4.523   5.754   1.146  0.1522  0.2287 -0.1244
 2933ntf    fn416993   4.695   5.496   1.181  0.1383  0.1709  0.0048
 2933ntf    fn416994   4.831   5.570   1.036  0.1820  0.1374  0.0128
 2933ntf    fn416995   4.786   5.682   1.217 -0.6557  0.4606 -0.0128
 2934ntf    cn116996   3.329   0.382   1.870 -0.2815 -0.1590  0.0178
 2934ntf    sn216997   3.229   0.513   1.794 -0.0750 -0.0248 -0.0229
 2934ntf    nn316998   3.125   0.431   1.709 -0.0870  0.2462 -0.2729
 2934ntf    sn216999   3.152   0.356   1.574 -0.2360  0.3676 -0.3702
 2934ntf    cn117000   3.026   0.436   1.470 -0.6300 -0.1714 -0.3157
 2934ntf    fn417001   3.362   0.282   1.789 -0.0242  0.0283 -0.1090
 2934ntf    fn417002   3.450   0.428   1.899 -0.0309 -0.7171 -0.1211
 2934ntf    fn417003   3.277   0.325   1.977 -0.3706 -0.1613 -0.0270
 2934ntf    on517004   3.149   0.561   1.903 -0.7458 -0.2729 -0.4015
 2934ntf    on517005   3.319   0.602   1.724  0.4281 -0.3721  0.1830
 2934ntf    on517006   3.107   0.219   1.577  0.1808  0.2268 -0.4803
 2934ntf    on517007   3.273   0.393   1.505  0.2569 -0.5172  0.0098
 2934ntf    fn417008   3.043   0.567   1.475  0.1734 -0.2766 -0.1249
 2934ntf    fn417009   3.031   0.403   1.342  0.0444  0.0986 -0.3652
 2934ntf    fn417010   2.906   0.401   1.513 -0.4078  0.8563  1.2165
 2935ntf    cn117011   4.740   1.391   6.326 -0.3552  0.0787 -0.0967
 2935ntf    sn217012   4.563   1.353   6.346 -0.2541 -0.3818 -0.0657
 2935ntf    nn317013   4.546   1.217   6.268 -0.0781 -0.4564  0.0261
 2935ntf    sn217014   4.492   1.216   6.121 -0.1424  0.1416  0.0400
 2935ntf    cn117015   4.313   1.233   6.147 -0.1167  0.2608  0.1351
 2935ntf    fn417016   4.778   1.412   6.201 -0.7027 -0.5222 -0.3110
 2935ntf    fn417017   4.772   1.492   6.405 -0.0786 -0.0490 -0.0467
 2935ntf    fn417018   4.822   1.299   6.373 -0.7179 -0.0108  0.3737
 2935ntf    on517019   4.558   1.332   6.488 -0.1784 -0.3620 -0.0602
 2935ntf    on517020   4.503   1.474   6.295  0.3343 -0.2596 -0.4770
 2935ntf    on517021   4.500   1.084   6.063 -0.7305  0.5180 -0.9228
 2935ntf    on517022   4.515   1.330   6.037  0.2495 -0.0833 -0.1597
 2935ntf    fn417023   4.259   1.136   6.219  0.2987 -0.0717 -0.0025
 2935ntf    fn417024   4.276   1.345   6.208 -0.8768  0.2326 -0.2596
 2935ntf    fn417025   4.258   1.229   6.027  0.5348  0.0875 -0.1577
 2936ntf    cn117026   5.402   4.517   4.235  0.2733 -0.1963 -0.0408
 2936ntf    sn217027   5.240   4.434   4.236  0.1033  0.1319  0.1041
 2936ntf    nn317028   5.159   4.501   4.352  0.3859  0.2223  0.2494
 2936ntf    sn217029   5.019   4.572   4.343  0.3831  0.1741 -0.1157
 2936ntf    cn117030   5.072   4.742   4.382  0.3067  0.0071  0.7353
 2936ntf    fn417031   5.487   4.463   4.150  0.4983  0.3102 -0.1414
 2936ntf    fn417032   5.382   4.640   4.191 -0.0274 -0.2713 -0.1158
 2936ntf    fn417033   5.464   4.527   4.351 -0.0344  0.2776  0.0868
 2936ntf    on517034   5.194   4.451   4.100 -0.8859 -0.5179  0.3448
 2936ntf    on517035   5.275   4.301   4.280 -0.6336  0.1911  0.8814
 2936ntf    on517036   4.943   4.537   4.460  0.4840  0.6470  0.0954
 2936ntf    on517037   4.959   4.575   4.212  0.2148 -0.4304 -0.0524
 2936ntf    fn417038   4.973   4.825   4.411 -0.0882 -0.0309 -0.4663
 2936ntf    fn417039   5.150   4.749   4.489  0.8435  0.2550  0.3282
 2936ntf    fn417040   5.133   4.803   4.282  0.1199 -0.4749  0.3246
 2937ntf    cn117041   6.125   1.231   3.818 -0.0480 -0.0294  0.0996
 2937ntf    sn217042   6.052   1.155   3.670 -0.3815  0.1808  0.1555
 2937ntf    nn317043   6.147   1.039   3.623 -0.1089  0.5496 -0.2049
 2937ntf    sn217044   6.271   1.036   3.527  0.0191  0.3940 -0.0361
 2937ntf    cn117045   6.210   0.976   3.367  0.2393  0.5320 -0.1728
 2937ntf    fn417046   6.135   1.145   3.919  0.3234 -0.0997  0.0028
 2937ntf    fn417047   6.242   1.281   3.784  0.2707 -0.6519  0.2513
 2937ntf    fn417048   6.056   1.335   3.861  0.2029  0.3078 -0.3143
 2937ntf    on517049   5.934   1.092   3.727 -0.0169 -0.6720 -0.0164
 2937ntf    on517050   6.039   1.261   3.574  0.7415 -0.0340 -0.2399
 2937ntf    on517051   6.357   0.928   3.567 -0.0083  0.1739 -0.5607
 2937ntf    on517052   6.333   1.162   3.494  0.2920  0.2007 -0.2660
 2937ntf    fn417053   6.123   1.056   3.307 -0.5460 -0.3409 -0.2242
 2937ntf    fn417054   6.312   0.977   3.283 -0.2844  0.4177 -0.8247
 2937ntf    fn417055   6.161   0.853   3.366  0.4723  0.4356  0.1255
 2938ntf    cn117056   0.606   1.485   6.169 -0.1367  0.1610 -0.1907
 2938ntf    sn217057   0.682   1.646   6.208  0.0631 -0.0736  0.4042
 2938ntf    nn317058   0.800   1.646   6.104 -0.0827  0.0401  0.2380
 2938ntf    sn217059   0.919   1.543   6.096  0.2584  0.4261  0.2710
 2938ntf    cn117060   1.064   1.652   6.092  0.4700  0.1371  0.0234
 2938ntf    fn417061   0.484   1.469   6.218 -0.0877 -0.6281 -0.3235
 2938ntf    fn417062   0.585   1.482   6.039  0.3271  0.1224 -0.2630
 2938ntf    fn417063   0.686   1.385   6.200 -0.0902  0.1846 -0.2351
 2938ntf    on517064   0.570   1.731   6.179 -0.2361 -0.6287 -0.0981
 2938ntf    on517065   0.716   1.643   6.348 -0.4952  0.2280  0.5492
 2938ntf    on517066   0.930   1.485   5.964 -0.3451  0.4321  0.2138
 2938ntf    on517067   0.940   1.455   6.208  0.5725 -0.2062 -0.2767
 2938ntf    fn417068   1.056   1.735   6.196 -0.6402 -0.3895  0.3716
 2938ntf    fn417069   1.178   1.585   6.102  0.1277 -0.3814  0.4922
 2938ntf    fn417070   1.069   1.720   5.979  0.6488 -0.4878 -0.3455
 2939ntf    cn117071   1.916   0.555   5.934  0.2971  0.1444 -0.1229
 2939ntf    sn217072   1.905   0.690   6.055 -0.1602  0.1242 -0.1424
 2939ntf    nn317073   2.036   0.773   6.037  0.1193 -0.1572  0.5524
 2939ntf    sn217074   2.159   0.787   6.134  0.3158 -0.3161  0.3276
 2939ntf    cn117075   2.272   0.691   6.029 -0.1720 -0.1860 -0.3224
 2939ntf    fn417076   2.028   0.486   5.954 -0.2896 -0.6279  0.5715
 2939ntf    fn417077   1.813   0.475   5.953 -0.1270  0.7230  0.0269
 2939ntf    fn417078   1.899   0.600   5.810  0.0144  0.7959  0.1490
 2939ntf    on517079   1.792   0.761   6.000 -0.1557  0.3237  0.1080
 2939ntf    on517080   1.890   0.616   6.179  0.3025  0.6339  0.2191
 2939ntf    on517081   2.162   0.720   6.262  0.1511  0.0137  0.5067
 2939ntf    on517082   2.212   0.921   6.124  0.2474 -0.3013  0.1666
 2939ntf    fn417083   2.236   0.563   6.023  0.3004 -0.3432  0.0649
 2939ntf    fn417084   2.269   0.741   5.907  0.1714  0.1895 -0.1772
 2939ntf    fn417085   2.398   0.696   6.069 -0.2937  0.2425  0.0094
 2940ntf    cn117086   2.497   5.043   4.178  0.1094  0.0598  0.0742
 2940ntf    sn217087   2.578   4.881   4.166 -0.0402 -0.0132  0.0557
 2940ntf    nn317088   2.727   4.924   4.190 -0.1647  0.2995  0.2611
 2940ntf    sn217089   2.838   4.957   4.084 -0.1114 -0.0856  0.1968
 2940ntf    cn117090   2.920   4.795   4.070 -0.4512 -0.2410  0.0036
 2940ntf    fn417091   2.516   5.132   4.082  0.3860 -0.0710  0.0060
 2940ntf    fn417092   2.367   5.027   4.190  0.1208  0.2214  0.4467
 2940ntf    fn417093   2.533   5.101   4.292  0.3397 -0.6533  0.3740
 2940ntf    on517094   2.532   4.814   4.285  0.2230 -0.1207  0.0993
 2940ntf    on517095   2.540   4.827   4.038 -0.6654  0.4208  0.0526
 2940ntf    on517096   2.939   5.049   4.131 -0.1364  0.3329 -0.5590
 2940ntf    on517097   2.794   4.981   3.949 -0.0487  0.0062  0.1928
 2940ntf    fn417098   3.005   4.777   4.169 -0.3128 -0.0164 -0.0736
 2940ntf    fn417099   2.832   4.696   4.075  0.6077 -1.1907  0.2883
 2940ntf    fn417100   2.991   4.777   3.960 -0.0592  0.4047  0.1461
 2941ntf    cn117101   1.693   0.213   4.639  0.2423  0.1205 -0.1108
 2941ntf    sn217102   1.718   0.212   4.459  0.2670 -0.0858 -0.1056
 2941ntf    nn317103   1.635   0.335   4.409 -0.0748 -0.3135 -0.1048
 2941ntf    sn217104   1.482   0.331   4.374 -0.1055  0.1428 -0.0289
 2941ntf    cn117105   1.476   0.312   4.194 -0.3535 -0.0176 -0.0041
 2941ntf    fn417106   1.750   0.105   4.689  0.1488  0.0445 -0.1677
 2941ntf    fn417107   1.747   0.307   4.715 -0.3381 -0.0861  0.5727
 2941ntf    fn417108   1.564   0.202   4.665  0.3027 -0.2560  0.0259
 2941ntf    on517109   1.861   0.234   4.459  0.2221  0.2014 -0.0645
 2941ntf    on517110   1.679   0.083   4.409  0.6595  0.0046 -0.6516
 2941ntf    on517111   1.422   0.461   4.386  0.2033  0.2553  0.3451
 2941ntf    on517112   1.397   0.224   4.420  0.0109 -0.1377 -0.4615
 2941ntf    fn417113   1.593   0.342   4.139 -0.2066 -0.0542  0.2899
 2941ntf    fn417114   1.464   0.184   4.163 -0.5793 -0.1383  0.5751
 2941ntf    fn417115   1.374   0.371   4.135 -0.0071  0.2293 -0.3645
 2942ntf    cn117116   3.828   4.348   0.511 -0.2291 -0.4495 -0.1045
 2942ntf    sn217117   3.833   4.397   0.336  0.1671  0.2339  0.0959
 2942ntf    nn317118   3.769   4.539   0.352 -0.0303  0.1403  0.1417
 2942ntf    sn217119   3.688   4.621   0.245  0.3507  0.1737 -0.1212
 2942ntf    cn117120   3.829   4.706   0.167  0.5029  0.2326  0.2152
 2942ntf    fn417121   3.699   4.359   0.541 -0.1687 -0.3023  0.1015
 2942ntf    fn417122   3.855   4.221   0.537 -0.5542 -0.4064  0.4745
 2942ntf    fn417123   3.898   4.425   0.593 -0.0770  0.0311 -0.6815
 2942ntf    on517124   3.974   4.406   0.305  0.2044 -0.5632  0.0212
 2942ntf    on517125   3.752   4.303   0.264 -0.0492  0.1160  0.4925
 2942ntf    on517126   3.609   4.729   0.297  0.6002  0.2461  0.1096
 2942ntf    on517127   3.639   4.544   0.133  0.4597  0.1355 -0.1432
 2942ntf    fn417128   3.784   4.782   0.069  0.2631 -0.3366 -0.1260
 2942ntf    fn417129   3.885   4.794   0.247  0.2657  0.4089  0.1877
 2942ntf    fn417130   3.923   4.625   0.120  0.1349 -0.2649  0.3175
 2943ntf    cn117131   7.011   6.616   3.977  0.5808 -0.0803  0.2380
 2943ntf    sn217132   7.125   6.744   3.918  0.2735  0.1022  0.0345
 2943ntf    nn317133   7.242   6.648   3.875 -0.0369 -0.0824 -0.4042
 2943ntf    sn217134   7.396   6.679   3.881 -0.0103 -0.3010  0.0974
 2943ntf    cn117135   7.437   6.655   4.057 -0.2527 -0.3865  0.1437
 2943ntf    fn417136   6.892   6.671   3.992  0.2904 -0.4879 -0.5204
 2943ntf    fn417137   6.999   6.525   3.881  0.6030  0.1431  0.0229
 2943ntf    fn417138   7.051   6.549   4.084  0.3888  0.5702  0.7278
 2943ntf    on517139   7.047   6.795   3.808 -0.4187  0.1067  0.5225
 2943ntf    on517140   7.154   6.821   4.037 -0.0116  0.1863  0.0504
 2943ntf    on517141   7.425   6.817   3.852 -0.1421 -0.3249 -0.1481
 2943ntf    on517142   7.474   6.583   3.808  0.9195  0.4650  0.0707
 2943ntf    fn417143   7.351   6.570   4.110 -0.1043 -0.4446  0.2947
 2943ntf    fn417144   7.560   6.605   4.067  0.1005  0.4054 -0.1644
 2943ntf    fn417145   7.433   6.768   4.125 -0.0034 -0.1055 -0.2945
 2944ntf    cn117146   6.429   5.023   0.152  0.7400 -0.4920 -0.1121
 2944ntf    sn217147   6.476   4.922   0.008 -0.2498 -0.4143 -0.4909
 2944ntf    nn317148   6.484   5.034  -0.102  0.3309 -0.0462 -0.0783
 2944ntf    sn217149   6.607   5.125  -0.137  0.0372  0.1580 -0.5850
 2944ntf    cn117150   6.524   5.287  -0.153  0.3173  0.3271 -0.3247
 2944ntf    fn417151   6.514   5.120   0.182 -0.1385  0.2548 -0.0159
 2944ntf    fn417152   6.313   5.079   0.126  0.6542 -0.4923  0.2619
 2944ntf    fn417153   6.421   4.948   0.261 -0.2652  0.2354  0.3208
 2944ntf    on517154   6.594   4.854   0.054 -0.2095  0.0861  0.1564
 2944ntf    on517155   6.359   4.839  -0.008 -0.5547  0.0728 -0.8341
 2944ntf    on517156   6.667   5.092  -0.264 -0.0701 -0.2191 -0.5390
 2944ntf    on517157   6.702   5.156  -0.034  0.1793 -0.3408 -0.5649
 2944ntf    fn417158   6.446   5.281  -0.259 -0.1510  0.0159  0.0344
 2944ntf    fn417159   6.440   5.313  -0.054  0.6629  0.4936 -0.0698
 2944ntf    fn417160   6.608   5.388  -0.162  0.4545  0.1568 -0.9563
 2945ntf    cn117161   3.706   1.911   5.158 -0.3353 -0.0981 -0.1639
 2945ntf    sn217162   3.551   1.940   5.249 -0.2449  0.0974 -0.0725
 2945ntf    nn317163   3.449   1.850   5.170  0.0543 -0.3255  0.0186
 2945ntf    sn217164   3.338   1.762   5.238 -0.0274 -0.2581 -0.0285
 2945ntf    cn117165   3.216   1.889   5.284  0.0400 -0.1454 -0.1615
 2945ntf    fn417166   3.738   1.783   5.170  0.4996  0.1256  0.0038
 2945ntf    fn417167   3.700   1.943   5.030  0.3778 -0.0398 -0.1826
 2945ntf    fn417168   3.807   1.983   5.202  0.0618 -1.0863  0.5876
 2945ntf    on517169   3.586   1.899   5.383 -0.3654 -0.2360 -0.1419
 2945ntf    on517170   3.535   2.081   5.227 -0.0425  0.0910 -0.2710
 2945ntf    on517171   3.372   1.692   5.359  0.5237 -0.5495 -0.3521
 2945ntf    on517172   3.271   1.697   5.128 -0.5716 -0.1185  0.2172
 2945ntf    fn417173   3.273   1.996   5.338 -0.3561 -0.0765  0.1236
 2945ntf    fn417174   3.160   1.937   5.174 -0.7068  0.0884  0.3125
 2945ntf    fn417175   3.130   1.842   5.372 -0.1325  0.2207 -0.1334
 2946ntf    cn117176   4.027   4.719   0.586  0.1230  0.0100  0.5611
 2946ntf    sn217177   3.923   4.868   0.582  0.2522  0.0842 -0.0146
 2946ntf    nn317178   4.021   4.980   0.532 -0.0698  0.5314  0.3443
 2946ntf    sn217179   4.105   5.075   0.625  0.3428  0.2696  0.2450
 2946ntf    cn117180   3.974   5.198   0.658 -0.1380 -0.0789 -0.3417
 2946ntf    fn417181   3.974   4.630   0.669 -0.0963 -0.0881  0.3176
 2946ntf    fn417182   4.033   4.659   0.469  0.3841 -0.1666  0.6650
 2946ntf    fn417183   4.154   4.741   0.616  0.2202  0.5306 -0.2090
 2946ntf    on517184   3.820   4.848   0.483  0.4220  0.2531 -0.2279
 2946ntf    on517185   3.873   4.883   0.716 -0.2075  0.2455 -0.2028
 2946ntf    on517186   4.202   5.148   0.547  0.1797 -0.2598 -0.4576
 2946ntf    on517187   4.147   5.024   0.753  0.1995 -0.1503  0.1243
 2946ntf    fn417188   3.902   5.181   0.768 -0.1984 -0.0327 -0.3741
 2946ntf    fn417189   4.022   5.320   0.669 -0.1459 -0.0354 -0.7635
 2946ntf    fn417190   3.887   5.204   0.558  0.1212  0.2432 -0.5507
 2947ntf    cn117191   5.661   1.639   2.071 -0.2871  0.0806  0.0126
 2947ntf    sn217192   5.761   1.787   2.038  0.1978 -0.2064  0.1868
 2947ntf    nn317193   5.869   1.777   2.151  0.4392  0.1820 -0.0080
 2947ntf    sn217194   5.894   1.869   2.275  0.1424 -0.1426  0.2927
 2947ntf    cn117195   5.768   1.810   2.393 -0.2819  0.2187  0.0269
 2947ntf    fn417196   5.576   1.607   1.974 -0.2006  0.2212 -0.1089
 2947ntf    fn417197   5.738   1.532   2.079 -0.2654  0.1287  0.4700
 2947ntf    fn417198   5.597   1.636   2.187 -0.2232 -0.0171  0.0456
 2947ntf    on517199   5.814   1.760   1.906 -0.6269 -0.3782 -0.1221
 2947ntf    on517200   5.660   1.889   2.042  0.4754  0.0864 -0.1873
 2947ntf    on517201   5.862   2.009   2.259 -0.4883 -0.3150 -0.0134
 2947ntf    on517202   6.013   1.835   2.348  0.5194  0.2345 -0.1406
 2947ntf    fn417203   5.648   1.860   2.373 -0.2115  0.3310 -0.1136
 2947ntf    fn417204   5.756   1.679   2.405  0.2786  0.1725  0.1089
 2947ntf    fn417205   5.794   1.853   2.516 -0.9193 -0.1317  0.2864
 2948ntf    cn117206   4.070   4.011   3.769  0.0461 -0.3633 -0.0986
 2948ntf    sn217207   4.127   3.991   3.941 -0.1577 -0.0446  0.0053
 2948ntf    nn317208   4.164   4.141   3.968  0.1326 -0.2048  0.5108
 2948ntf    sn217209   4.087   4.250   4.051 -0.0615  0.0006  0.0665
 2948ntf    cn117210   4.140   4.207   4.219  0.4417 -0.0170 -0.0937
 2948ntf    fn417211   4.024   3.896   3.721 -0.0305 -0.2525 -0.2920
 2948ntf    fn417212   3.972   4.099   3.764  0.2989 -0.0888 -0.1813
 2948ntf    fn417213   4.171   4.036   3.687 -0.1277  0.0557 -0.1839
 2948ntf    on517214   4.010   3.943   4.010  0.0746 -0.0005  0.4321
 2948ntf    on517215   4.240   3.904   3.928 -0.0202  0.1158  0.1215
 2948ntf    on517216   3.943   4.238   4.049 -0.1059  0.4651  0.3442
 2948ntf    on517217   4.135   4.384   4.030  0.1487 -0.0337  0.3206
 2948ntf    fn417218   4.260   4.255   4.246  0.3590  0.1823 -0.0788
 2948ntf    fn417219   4.051   4.263   4.300  0.1504  0.2762 -0.6173
 2948ntf    fn417220   4.132   4.078   4.248  0.1159 -0.0036 -0.1218
 2949ntf    cn117221   5.220   6.624   4.742  0.0321  0.2438  0.5330
 2949ntf    sn217222   5.346   6.578   4.619 -0.1628  0.4733  0.2464
 2949ntf    nn317223   5.366   6.429   4.663  0.2216  0.2744 -0.5840
 2949ntf    sn217224   5.460   6.315   4.609  0.3341  0.2164 -0.2651
 2949ntf    cn117225   5.335   6.195   4.555  0.3286 -0.1747  0.5993
 2949ntf    fn417226   5.101   6.567   4.730  0.2634 -0.2027  0.2912
 2949ntf    fn417227   5.251   6.589   4.866  0.2064 -0.3613  0.3254
 2949ntf    fn417228   5.211   6.755   4.745  0.3813  0.2662  0.6438
 2949ntf    on517229   5.275   6.594   4.494 -0.9087  0.1056  0.6148
 2949ntf    on517230   5.454   6.667   4.654  0.2323 -0.1242  0.5585
 2949ntf    on517231   5.523   6.239   4.715  0.1879 -0.0145 -0.3442
 2949ntf    on517232   5.533   6.354   4.491  0.4765  0.3011 -0.1504
 2949ntf    fn417233   5.240   6.181   4.646 -0.9597  0.0401 -0.6708
 2949ntf    fn417234   5.267   6.235   4.449 -0.1273 -0.6961  0.6876
 2949ntf    fn417235   5.379   6.076   4.517  0.1607 -0.0329 -0.0525
 2950ntf    cn117236   2.340   6.631   6.613  0.1314  0.4683  0.0097
 2950ntf    sn217237   2.373   6.619   6.791 -0.1144 -0.0162  0.0260
 2950ntf    nn317238   2.515   6.553   6.796  0.1572  0.5467 -0.1148
 2950ntf    sn217239   2.662   6.605   6.815  0.3228  0.0931 -0.1333
 2950ntf    cn117240   2.745   6.530   6.672  0.0503  0.1143 -0.3039
 2950ntf    fn417241   2.427   6.721   6.569  0.4587 -0.0395 -0.4061
 2950ntf    fn417242   2.355   6.517   6.547  0.7214  0.1693  0.6502
 2950ntf    fn417243   2.219   6.677   6.587 -0.0268  0.0023 -0.1002
 2950ntf    on517244   2.363   6.751   6.848  0.1535  0.4208 -0.9079
 2950ntf    on517245   2.274   6.524   6.834  0.0407 -0.0553  0.3021
 2950ntf    on517246   2.717   6.533   6.927 -0.2056  0.3494  0.2929
 2950ntf    on517247   2.683   6.747   6.803 -0.2614  0.1812 -0.1021
 2950ntf    fn417248   2.876   6.551   6.674  0.0541  0.0632  0.3930
 2950ntf    fn417249   2.733   6.398   6.680  0.2043  0.1272  0.1753
 2950ntf    fn417250   2.705   6.566   6.551 -0.0024  0.4668 -0.1830
 2951ntf    cn117251   4.090   1.745   5.247 -0.5983 -0.1984 -0.2658
 2951ntf    sn217252   4.241   1.705   5.154 -0.3511 -0.0269  0.0614
 2951ntf    nn317253   4.332   1.646   5.268  0.0672  0.1265 -0.1947
 2951ntf    sn217254   4.437   1.530   5.275 -0.0691  0.0143 -0.0348
 2951ntf    cn117255   4.378   1.446   5.426  0.1290  0.0565  0.0668
 2951ntf    fn417256   4.080   1.859   5.313 -0.0504 -0.2276 -0.1271
 2951ntf    fn417257   3.984   1.743   5.168 -0.5447 -0.4043 -0.3331
 2951ntf    fn417258   4.067   1.660   5.346  0.5198 -0.0553  0.1293
 2951ntf    on517259   4.193   1.606   5.061 -0.0343  0.0388 -0.1731
 2951ntf    on517260   4.294   1.823   5.091  0.0440  0.0138  0.4639
 2951ntf    on517261   4.561   1.582   5.326  0.1416 -0.2601 -0.2641
 2951ntf    on517262   4.448   1.425   5.177 -0.2544  0.1659 -0.2182
 2951ntf    fn417263   4.422   1.323   5.445 -0.1142  0.0808  0.8080
 2951ntf    fn417264   4.410   1.523   5.528 -0.3290 -0.0630  0.3044
 2951ntf    fn417265   4.246   1.439   5.430  0.1187  0.2767  0.1729
 2952ntf    cn117266   1.148   0.825   3.692  0.0022 -0.0887  0.4335
 2952ntf    sn217267   1.217   0.721   3.824  0.1135  0.0553  0.4897
 2952ntf    nn317268   1.097   0.622   3.846 -0.0511  0.1287 -0.0525
 2952ntf    sn217269   1.065   0.492   3.765  0.2303  0.1092 -0.1343
 2952ntf    cn117270   0.884   0.494   3.787  0.2908  0.2283  0.3654
 2952ntf    fn417271   1.026   0.870   3.716  0.0350  0.6366 -0.6985
 2952ntf    fn417272   1.216   0.936   3.665  0.3230 -0.2338  0.6384
 2952ntf    fn417273   1.147   0.766   3.574  0.4349  0.2890  0.2337
 2952ntf    on517274   1.337   0.658   3.775 -0.2598  0.1137 -0.5186
 2952ntf    on517275   1.222   0.818   3.930 -0.1984  0.4387  0.1577
 2952ntf    on517276   1.100   0.369   3.833  0.3105  0.4432  0.4299
 2952ntf    on517277   1.074   0.501   3.621 -0.2449  0.3879 -0.1508
 2952ntf    fn417278   0.827   0.378   3.758 -0.4345  0.6458  0.1248
 2952ntf    fn417279   0.851   0.513   3.913  0.0513 -0.2720  0.3820
 2952ntf    fn417280   0.830   0.591   3.716  0.4940 -0.1248 -0.2870
 2953ntf    cn117281   6.012   0.226   3.555  0.4423  0.3177 -0.1093
 2953ntf    sn217282   6.123   0.123   3.454 -0.1263 -0.4248  0.0198
 2953ntf    nn317283   6.153   0.006   3.555 -0.4423 -0.3700  0.1765
 2953ntf    sn217284   6.276  -0.091   3.559 -0.2586 -0.1543 -0.2126
 2953ntf    cn117285   6.389   0.005   3.664 -0.5248 -0.3479  0.2536
 2953ntf    fn417286   5.920   0.148   3.608  0.7901 -0.4022 -0.5375
 2953ntf    fn417287   6.075   0.289   3.652 -0.2721  0.3681  0.3284
 2953ntf    fn417288   5.946   0.322   3.492  0.0396  0.1015 -0.0204
 2953ntf    on517289   6.044   0.077   3.343 -0.1274 -0.5618  0.0770
 2953ntf    on517290   6.236   0.209   3.433 -0.4480 -0.0840 -0.3246
 2953ntf    on517291   6.356  -0.113   3.441 -0.4695  0.1216 -0.4092
 2953ntf    on517292   6.242  -0.206   3.639 -0.2467 -0.1148 -0.1522
 2953ntf    fn417293   6.442   0.099   3.588 -0.2928 -0.1798  0.6240
 2953ntf    fn417294   6.326   0.074   3.758  0.0659  0.3918  0.1151
 2953ntf    fn417295   6.481  -0.076   3.714 -0.3060 -0.3158 -0.0921
 2954ntf    cn117296   6.593   6.762   5.938  0.0768 -0.3197 -0.1711
 2954ntf    sn217297   6.496   6.611   5.909 -0.2842 -0.1343  0.0652
 2954ntf    nn317298   6.601   6.527   5.828 -0.4810 -0.2857 -0.0332
 2954ntf    sn217299   6.723   6.443   5.881 -0.2476 -0.0819 -0.2506
 2954ntf    cn117300   6.687   6.285   5.799  0.0810 -0.1189 -0.3241
 2954ntf    fn417301   6.700   6.740   6.013  0.2061 -0.0626 -0.2818
 2954ntf    fn417302   6.639   6.821   5.830 -0.1034  0.6706  0.2844
 2954ntf    fn417303   6.524   6.852   6.005 -0.3400 -0.3848 -0.5093
 2954ntf    on517304   6.469   6.557   6.041 -0.0467  0.1413  0.2276
 2954ntf    on517305   6.384   6.657   5.831 -0.5469 -0.2293  0.3816
 2954ntf    on517306   6.732   6.417   6.022 -0.0771  0.8164 -0.0895
 2954ntf    on517307   6.849   6.475   5.819 -0.3992 -0.2471 -0.6472
 2954ntf    fn417308   6.569   6.241   5.837 -0.0091  0.2215 -0.2089
 2954ntf    fn417309   6.676   6.296   5.667 -0.5087  0.2000 -0.2510
 2954ntf    fn417310   6.772   6.185   5.821 -0.0802 -0.0747  0.5188
 2955ntf    cn117311   4.120   4.260   1.152  0.4082  0.2367 -0.1049
 2955ntf    sn217312   4.137   4.276   1.333 -0.3564 -0.1393  0.0017
 2955ntf    nn317313   3.990   4.237   1.373 -0.4270 -0.2724 -0.3766
 2955ntf    sn217314   3.881   4.313   1.457  0.0748  0.1077 -0.0688
 2955ntf    cn117315   3.815   4.172   1.551  0.1820  0.2284  0.1891
 2955ntf    fn417316   4.233   4.263   1.083  0.3577  0.2463 -0.1864
 2955ntf    fn417317   4.061   4.144   1.131  0.2197  0.3867 -0.4088
 2955ntf    fn417318   4.038   4.354   1.108 -0.2021 -0.3036 -0.1294
 2955ntf    on517319   4.241   4.183   1.369 -0.1499 -0.0847 -0.4394
 2955ntf    on517320   4.154   4.419   1.340 -0.1852 -0.1769  0.3524
 2955ntf    on517321   3.774   4.352   1.369  0.0470  0.2278  0.0176
 2955ntf    on517322   3.931   4.406   1.556  0.0231  0.2320 -0.1595
 2955ntf    fn417323   3.900   4.145   1.649  0.2087 -0.1239  0.0692
 2955ntf    fn417324   3.703   4.196   1.617  0.3478  0.4409  0.3942
 2955ntf    fn417325   3.794   4.069   1.470 -0.6830  0.3441  0.2659
 2956ntf    cn117326   5.340   3.783   3.550  0.0678  0.2604  0.0069
 2956ntf    sn217327   5.333   3.848   3.380  0.2254  0.0298 -0.0886
 2956ntf    nn317328   5.471   3.923   3.381  0.1971  0.0817 -0.0111
 2956ntf    sn217329   5.502   4.076   3.365 -0.0931  0.1508  0.0852
 2956ntf    cn117330   5.638   4.064   3.245 -0.0406 -0.1603  0.1734
 2956ntf    fn417331   5.219   3.744   3.585  0.2863 -0.1918  0.2592
 2956ntf    fn417332   5.418   3.677   3.554  0.0402  0.2425  0.0676
 2956ntf    fn417333   5.385   3.875   3.634  0.0635  0.2866 -0.0194
 2956ntf    on517334   5.324   3.733   3.294  0.2427  0.1924 -0.3087
 2956ntf    on517335   5.217   3.935   3.375  0.1761 -0.0533 -0.4129
 2956ntf    on517336   5.560   4.128   3.486  0.6327 -0.3033 -0.0594
 2956ntf    on517337   5.403   4.154   3.296  0.4052  0.0912 -0.7064
 2956ntf    fn417338   5.698   4.180   3.225 -0.4508 -0.0721 -0.5769
 2956ntf    fn417339   5.732   3.982   3.287 -0.3129 -0.5495  0.0281
 2956ntf    fn417340   5.595   4.008   3.133 -0.2133 -0.2512  0.2830
 2957ntf    cn117341   2.807   2.146   4.956  0.0117 -0.5380  0.3172
 2957ntf    sn217342   2.754   2.263   5.086  0.1430  0.1651 -0.2573
 2957ntf    nn317343   2.875   2.274   5.185  0.4304 -0.5133 -0.5273
 2957ntf    sn217344   2.882   2.229   5.335  0.1313  0.4883 -0.2064
 2957ntf    cn117345   3.040   2.307   5.381  0.3672 -0.2180  0.2103
 2957ntf    fn417346   2.719   2.118   4.862 -0.0663  0.0583  0.2092
 2957ntf    fn417347   2.918   2.191   4.899  0.0842 -0.5389  0.4551
 2957ntf    fn417348   2.835   2.031   5.016  0.3626 -0.5396  0.1510
 2957ntf    on517349   2.728   2.374   4.998  0.8393  0.5319 -0.0096
 2957ntf    on517350   2.637   2.201   5.142  0.0727  0.3296 -0.2213
 2957ntf    on517351   2.903   2.088   5.356  0.6928  0.5006 -0.6438
 2957ntf    on517352   2.783   2.289   5.420 -0.2894 -0.3317 -0.1148
 2957ntf    fn417353   3.147   2.264   5.315  0.1336 -0.0986 -0.2544
 2957ntf    fn417354   3.044   2.437   5.356  0.0803 -0.3595 -0.6235
 2957ntf    fn417355   3.061   2.290   5.510  0.1013  0.1361  0.3013
 2958ntf    cn117356   5.039   6.984   4.927 -0.1698  0.0370 -0.1424
 2958ntf    sn217357   5.123   7.145   4.933 -0.2678  0.0874 -0.1004
 2958ntf    nn317358   5.150   7.166   5.086  0.0780  0.0680 -0.1580
 2958ntf    sn217359   5.288   7.187   5.158  0.0250 -0.3839  0.0836
 2958ntf    cn117360   5.303   7.034   5.254 -0.1609 -0.3777  0.1220
 2958ntf    fn417361   4.912   6.997   4.961 -0.0591  0.3019  0.1679
 2958ntf    fn417362   5.033   6.930   4.806 -0.2817 -0.0710 -0.0889
 2958ntf    fn417363   5.097   6.899   5.010  0.0503  0.7810  0.4766
 2958ntf    on517364   5.241   7.111   4.856  0.1971  0.1510  0.5759
 2958ntf    on517365   5.037   7.243   4.873 -0.0040  0.4581  0.1252
 2958ntf    on517366   5.268   7.280   5.266  0.0748 -0.3777  0.0879
 2958ntf    on517367   5.411   7.199   5.083 -0.3612  0.1749 -0.4701
 2958ntf    fn417368   5.326   6.929   5.177  0.1043 -0.0187 -0.2935
 2958ntf    fn417369   5.390   7.041   5.353  0.2043  0.4268 -0.2530
 2958ntf    fn417370   5.191   7.003   5.318 -0.0570 -0.4830  0.2518
 2959ntf    cn117371   4.204   2.459   6.107  0.1252 -0.5200 -0.3067
 2959ntf    sn217372   4.384   2.471   6.126  0.0884 -0.1190 -0.2097
 2959ntf    nn317373   4.426   2.483   5.975 -1.0937  0.0589 -0.5336
 2959ntf    sn217374   4.476   2.367   5.882  0.2139  0.0750  0.1209
 2959ntf    cn117375   4.638   2.314   5.944  0.0961 -0.4107  0.0119
 2959ntf    fn417376   4.132   2.477   6.217  0.4166  0.4292 -0.2696
 2959ntf    fn417377   4.164   2.548   6.018  0.1232 -0.1627  0.0476
 2959ntf    fn417378   4.181   2.338   6.057 -0.3816 -0.5696  0.0317
 2959ntf    on517379   4.409   2.594   6.198  0.0953 -0.2916  0.0852
 2959ntf    on517380   4.413   2.353   6.205  0.0137  0.1947  0.2911
 2959ntf    on517381   4.518   2.417   5.753  0.3670 -0.1208  0.0955
 2959ntf    on517382   4.397   2.247   5.894 -0.0249  0.2119 -0.0632
 2959ntf    fn417383   4.638   2.282   6.072 -0.0219  0.3363  0.1993
 2959ntf    fn417384   4.666   2.199   5.883 -0.2378 -0.7340  0.4583
 2959ntf    fn417385   4.735   2.400   5.921 -0.2528  0.0029  0.0783
 2960ntf    cn117386   6.628   1.731   4.668  0.3087 -0.0092  0.0728
 2960ntf    sn217387   6.705   1.891   4.706  0.1285  0.0542  0.1747
 2960ntf    nn317388   6.790   1.865   4.836  0.1502  0.2491  0.2007
 2960ntf    sn217389   6.930   1.798   4.860  0.0080 -0.0759  0.1369
 2960ntf    cn117390   7.041   1.936   4.818 -0.1390  0.2530  0.8210
 2960ntf    fn417391   6.524   1.704   4.745  0.3505 -0.2472  0.0470
 2960ntf    fn417392   6.584   1.717   4.544 -0.5923  0.2783  0.3517
 2960ntf    fn417393   6.712   1.630   4.680  0.4667  0.1385  0.2141
 2960ntf    on517394   6.790   1.915   4.592  0.0467  0.5724  0.2204
 2960ntf    on517395   6.594   1.978   4.734 -0.1118 -0.1447 -0.1575
 2960ntf    on517396   6.969   1.693   4.769  0.1420  0.4097 -0.3727
 2960ntf    on517397   6.955   1.776   5.000  0.4382  0.2957  0.1232
 2960ntf    fn417398   7.170   1.907   4.813 -0.2334 -0.0433 -0.0297
 2960ntf    fn417399   7.016   1.991   4.701 -0.3013 -0.1541  0.6629
 2960ntf    fn417400   7.029   2.034   4.906 -0.1910  0.8284  0.1800
 2961ntf    cn117401   4.766   5.851   3.309 -0.0452  0.2249  0.2197
 2961ntf    sn217402   4.903   5.971   3.317 -0.0297  0.2191  0.0391
 2961ntf    nn317403   4.876   6.015   3.465 -0.0466 -0.2733  0.1850
 2961ntf    sn217404   4.910   5.946   3.602  0.0971 -0.0663  0.2542
 2961ntf    cn117405   5.062   6.042   3.633  0.3090 -0.2879 -0.0976
 2961ntf    fn417406   4.733   5.816   3.186  0.0519 -0.3779  0.3601
 2961ntf    fn417407   4.793   5.743   3.380  0.2607 -0.0935 -0.3747
 2961ntf    fn417408   4.657   5.905   3.361 -0.1025  0.5443 -0.2315
 2961ntf    on517409   5.013   5.880   3.297 -0.1279  0.0387  0.3016
 2961ntf    on517410   4.883   6.073   3.217 -0.0568  0.3872  0.2167
 2961ntf    on517411   4.948   5.807   3.594  0.4005  0.0513 -0.3823
 2961ntf    on517412   4.818   5.993   3.703  0.3748  0.3188  0.3319
 2961ntf    fn417413   5.121   5.990   3.739 -0.3216  0.4638  0.6331
 2961ntf    fn417414   5.153   6.036   3.538  0.7183  0.3021  0.2548
 2961ntf    fn417415   5.038   6.168   3.663  0.1252 -0.4389  0.3952
 2962ntf    cn117416   4.262   4.769   3.328 -0.2862  0.0161 -0.3628
 2962ntf    sn217417   4.342   4.616   3.271  0.0585 -0.1367  0.5217
 2962ntf    nn317418   4.414   4.675   3.145  0.2857 -0.8893  0.2952
 2962ntf    sn217419   4.458   4.602   3.013  0.1000 -0.2244 -0.1383
 2962ntf    cn117420   4.398   4.721   2.889  0.1107 -0.1134 -0.0372
 2962ntf    fn417421   4.189   4.732   3.431 -0.2096 -0.2870 -0.4159
 2962ntf    fn417422   4.353   4.856   3.370 -0.4605 -0.1564  0.3750
 2962ntf    fn417423   4.192   4.830   3.234 -0.2450 -0.3416 -0.6282
 2962ntf    on517424   4.427   4.579   3.382  0.3420  0.3678  0.4776
 2962ntf    on517425   4.229   4.530   3.246 -0.1332  0.2348  0.0858
 2962ntf    on517426   4.387   4.481   2.980  0.1456 -0.3449  0.2010
 2962ntf    on517427   4.601   4.602   2.997  0.1064  0.0624 -0.0885
 2962ntf    fn417428   4.480   4.816   2.848 -0.4462  0.0622 -0.7634
 2962ntf    fn417429   4.369   4.650   2.780 -0.1054  0.4857 -0.3752
 2962ntf    fn417430   4.282   4.776   2.922  0.2536 -0.2371  0.6855
 2963ntf    cn117431   0.690   3.776   1.071 -0.2511 -0.0370 -0.1820
 2963ntf    sn217432   0.753   3.652   1.188 -0.2270 -0.0317 -0.1892
 2963ntf    nn317433   0.742   3.514   1.114  0.1554 -0.3163  0.2799
 2963ntf    sn217434   0.610   3.429   1.104 -0.1023  0.0716  0.3571
 2963ntf    cn117435   0.623   3.342   1.263  0.1143 -0.5083  0.0266
 2963ntf    fn417436   0.717   3.897   1.117 -0.1729 -0.0692 -0.1435
 2963ntf    fn417437   0.743   3.768   0.950 -0.0414 -0.1930 -0.0794
 2963ntf    fn417438   0.558   3.775   1.061 -0.2636  0.1978 -0.0476
 2963ntf    on517439   0.888   3.704   1.181 -0.3302  0.2346 -0.2177
 2963ntf    on517440   0.682   3.659   1.313  0.4398 -0.8046  0.2453
 2963ntf    on517441   0.624   3.323   1.007 -0.0180 -0.0617  0.5145
 2963ntf    on517442   0.491   3.510   1.104 -0.0152  0.2092 -0.4532
 2963ntf    fn417443   0.626   3.421   1.369 -0.1540  0.1183 -0.4293
 2963ntf    fn417444   0.523   3.260   1.289 -0.3835 -0.0202 -0.3189
 2963ntf    fn417445   0.734   3.270   1.269  0.4853  0.1138  0.7377
 2964ntf    cn117446   3.787   1.806   2.033  0.0860 -0.6136 -0.3433
 2964ntf    sn217447   3.785   1.739   2.202 -0.0192 -0.1113 -0.1411
 2964ntf    nn317448   3.739   1.591   2.174  0.1869 -0.1280 -0.4065
 2964ntf    sn217449   3.626   1.508   2.245 -0.0909  0.1966 -0.4624
 2964ntf    cn117450   3.475   1.562   2.160 -0.2874  0.5026  0.0787
 2964ntf    fn417451   3.673   1.777   1.972 -0.0513  0.0064 -0.3904
 2964ntf    fn417452   3.786   1.938   2.041  0.5450 -0.6196 -0.1526
 2964ntf    fn417453   3.885   1.772   1.952  0.3236 -0.5910 -0.0659
 2964ntf    on517454   3.926   1.745   2.231  0.0177 -0.6499 -0.1898
 2964ntf    on517455   3.692   1.817   2.279  0.4630 -0.3584  0.7020
 2964ntf    on517456   3.609   1.527   2.386 -0.3234 -0.2938 -0.4221
 2964ntf    on517457   3.639   1.369   2.207  0.0796  0.1798 -0.3421
 2964ntf    fn417458   3.491   1.538   2.030 -0.1669  0.2554  0.1383
 2964ntf    fn417459   3.360   1.504   2.191  0.0087 -0.1136  0.0456
 2964ntf    fn417460   3.463   1.691   2.186  0.2745  0.4894  0.4227
 2965ntf    cn117461   5.295   0.915   2.036  0.7391  0.1930  0.0006
 2965ntf    sn217462   5.230   1.065   2.115 -0.2261 -0.2269  0.0287
 2965ntf    nn317463   5.361   1.146   2.145 -0.3476 -0.0657  0.1233
 2965ntf    sn217464   5.435   1.254   2.058 -0.0298 -0.0374  0.4239
 2965ntf    cn117465   5.347   1.399   2.123 -0.2068  0.1790 -0.2874
 2965ntf    fn417466   5.197   0.857   1.967  0.0393  0.5237  0.7008
 2965ntf    fn417467   5.393   0.930   1.949  0.1128 -0.0345 -0.7687
 2965ntf    fn417468   5.332   0.819   2.119 -0.3536 -0.2852 -0.0449
 2965ntf    on517469   5.152   1.124   2.010 -0.0396  0.0860  0.0657
 2965ntf    on517470   5.157   1.023   2.232 -0.8477  0.0267 -0.2623
 2965ntf    on517471   5.413   1.252   1.915  0.1859 -0.3770  0.3939
 2965ntf    on517472   5.570   1.274   2.104  0.6101 -0.4962 -1.1796
 2965ntf    fn417473   5.330   1.409   2.254  0.0835 -0.6377 -0.1819
 2965ntf    fn417474   5.407   1.512   2.090  0.3421  0.1194  0.4769
 2965ntf    fn417475   5.221   1.404   2.080 -0.3154  0.0651  0.0143
 2966ntf    cn117476   2.824   0.155   3.557 -0.0188  0.5489  0.3572
 2966ntf    sn217477   2.923   0.308   3.551  0.3385  0.3084  0.1128
 2966ntf    nn317478   3.041   0.282   3.651  0.2240 -0.0537  0.1575
 2966ntf    sn217479   3.184   0.223   3.622  0.0414 -0.3220 -0.1961
 2966ntf    cn117480   3.289   0.371   3.610  0.1157 -0.3894 -0.3717
 2966ntf    fn417481   2.798   0.127   3.683 -0.3636  0.2413  0.2176
 2966ntf    fn417482   2.704   0.157   3.501  0.1198  0.3808  0.0490
 2966ntf    fn417483   2.889   0.054   3.502  0.0582  0.6129  0.3301
 2966ntf    on517484   2.970   0.314   3.415 -0.3080  0.5320 -0.1033
 2966ntf    on517485   2.830   0.409   3.592 -0.1308  0.0414 -0.2816
 2966ntf    on517486   3.183   0.149   3.498 -0.1330 -0.1174 -0.3173
 2966ntf    on517487   3.244   0.161   3.737  0.5510  0.0685 -0.2497
 2966ntf    fn417488   3.254   0.451   3.510  0.2344 -0.1175 -0.1951
 2966ntf    fn417489   3.274   0.441   3.720  0.1954  0.0229 -0.6206
 2966ntf    fn417490   3.418   0.347   3.593  0.2544 -0.1537  0.3199
 2967ntf    cn117491   6.322   3.226   1.810 -0.1143 -0.1837 -0.2911
 2967ntf    sn217492   6.400   3.115   1.689  0.0112 -0.0277 -0.3534
 2967ntf    nn317493   6.322   2.985   1.730  0.1120 -0.0551 -0.2506
 2967ntf    sn217494   6.250   2.881   1.637 -0.1144 -0.1391  0.0176
 2967ntf    cn117495   6.381   2.756   1.618  0.1911  0.1491  0.1943
 2967ntf    fn417496   6.356   3.212   1.936  0.2804 -0.7447 -0.4590
 2967ntf    fn417497   6.351   3.351   1.774 -0.0918 -0.0772  0.0999
 2967ntf    fn417498   6.191   3.221   1.792 -0.1266  0.1539 -0.3128
 2967ntf    on517499   6.363   3.176   1.563  0.1324  0.2030 -0.2772
 2967ntf    on517500   6.540   3.121   1.722 -0.1112  0.2381  0.1305
 2967ntf    on517501   6.215   2.922   1.503 -0.1053  0.7033  0.2665
 2967ntf    on517502   6.153   2.806   1.712  0.8259 -0.5652  0.8460
 2967ntf    fn417503   6.333   2.651   1.552 -0.2512  0.4090  0.0958
 2967ntf    fn417504   6.483   2.801   1.547  0.2428 -0.3803 -0.0766
 2967ntf    fn417505   6.435   2.716   1.732 -0.0915 -0.4471  0.1280
 2968ntf    cn117506   1.922   4.024   3.757 -0.2947 -0.0128 -0.0625
 2968ntf    sn217507   1.829   3.979   3.907  0.0969  0.0107  0.1874
 2968ntf    nn317508   1.934   4.003   4.022  0.2094  0.0005  0.0879
 2968ntf    sn217509   2.024   3.893   4.088  0.0524 -0.2437 -0.1033
 2968ntf    cn117510   1.905   3.812   4.199  0.1053 -0.0156  0.1174
 2968ntf    fn417511   1.841   4.019   3.653 -0.2050  0.0556 -0.1353
 2968ntf    fn417512   1.984   4.139   3.780  0.3676 -0.3533 -0.1243
 2968ntf    fn417513   2.015   3.941   3.714 -0.3546 -0.1702  0.1104
 2968ntf    on517514   1.732   4.084   3.924 -0.0199 -0.1179  0.3240
 2968ntf    on517515   1.785   3.844   3.883  0.8661 -0.2718  0.3422
 2968ntf    on517516   2.126   3.939   4.178  0.2347  0.1801 -0.5169
 2968ntf    on517517   2.073   3.786   4.004  0.1979 -0.4364  0.2253
 2968ntf    fn417518   1.874   3.896   4.297  0.0338  0.5963 -0.4183
 2968ntf    fn417519   1.794   3.772   4.141  0.0256  0.6931 -0.2289
 2968ntf    fn417520   1.953   3.700   4.250  0.5393 -0.0708 -0.4040
 2969ntf    cn117521   1.402   5.024   5.595 -0.2148 -0.2016  0.0357
 2969ntf    sn217522   1.464   5.192   5.566 -0.1094 -0.2015  0.2603
 2969ntf    nn317523   1.385   5.277   5.672  0.0169  0.2155  0.0221
 2969ntf    sn217524   1.422   5.291   5.824  0.2359 -0.2693  0.0161
 2969ntf    cn117525   1.530   5.437   5.819  0.3163 -0.3341 -0.1545
 2969ntf    fn417526   1.401   5.006   5.726 -0.2224 -0.5490 -0.0108
 2969ntf    fn417527   1.280   4.992   5.555 -0.1452 -0.0598 -0.2871
 2969ntf    fn417528   1.479   4.932   5.540 -0.4025 -0.2557 -0.1378
 2969ntf    on517529   1.607   5.186   5.584 -0.0978 -0.8597 -0.0328
 2969ntf    on517530   1.420   5.219   5.431  0.1619  0.4181  0.2904
 2969ntf    on517531   1.504   5.187   5.880 -0.0938 -0.7683 -0.4233
 2969ntf    on517532   1.313   5.341   5.903  0.0835  0.0846 -0.4108
 2969ntf    fn417533   1.457   5.541   5.782 -0.4534 -0.7132  0.2837
 2969ntf    fn417534   1.567   5.470   5.942 -0.0654 -0.1660 -0.0843
 2969ntf    fn417535   1.632   5.432   5.734  0.6643 -0.1110  0.2418
 2970ntf    cn117536   3.209   1.811   0.944 -0.2099 -0.0652  0.0716
 2970ntf    sn217537   3.323   1.950   0.917 -0.0227 -0.2139  0.0920
 2970ntf    nn317538   3.405   1.905   0.790  0.0413 -0.0256  0.0664
 2970ntf    sn217539   3.422   1.957   0.643 -0.2557 -0.2213 -0.0360
 2970ntf    cn117540   3.417   1.788   0.575  0.3007 -0.2691  0.0384
 2970ntf    fn417541   3.275   1.702   0.980  0.3263 -0.0024 -0.6915
 2970ntf    fn417542   3.126   1.834   1.044  0.2874  0.5059  0.3566
 2970ntf    fn417543   3.143   1.791   0.831 -0.1774 -0.6008  0.1446
 2970ntf    on517544   3.231   2.059   0.895  0.0711 -0.2436 -0.4698
 2970ntf    on517545   3.401   1.963   1.037 -0.0010  0.1816  0.0356
 2970ntf    on517546   3.555   2.001   0.610 -0.6107  0.6542 -0.3272
 2970ntf    on517547   3.301   2.015   0.590 -0.2347 -0.1898 -0.0489
 2970ntf    fn417548   3.453   1.776   0.449 -0.6302  0.5039 -0.3182
 2970ntf    fn417549   3.490   1.705   0.648  0.7897 -0.2429 -0.4178
 2970ntf    fn417550   3.297   1.732   0.577  0.2092 -0.0881 -0.4274
 2971ntf    cn117551   5.477   4.003   0.235  0.2830  0.4274 -0.0514
 2971ntf    sn217552   5.373   4.147   0.275 -0.2155  0.0152  0.1604
 2971ntf    nn317553   5.489   4.248   0.309  0.2584 -0.4213 -0.1333
 2971ntf    sn217554   5.504   4.390   0.242 -0.2046 -0.3616 -0.1147
 2971ntf    cn117555   5.560   4.476   0.392  0.4654 -0.0315 -0.5518
 2971ntf    fn417556   5.520   3.998   0.110  0.3749  0.0385 -0.0051
 2971ntf    fn417557   5.580   3.993   0.317  0.2877  0.1699 -0.0889
 2971ntf    fn417558   5.418   3.887   0.258  0.1384  0.4969 -0.0702
 2971ntf    on517559   5.294   4.172   0.157 -0.5722  0.4313  0.4890
 2971ntf    on517560   5.296   4.092   0.384 -0.8662  0.4652 -0.0673
 2971ntf    on517561   5.385   4.463   0.208 -0.0512  0.0544  0.2276
 2971ntf    on517562   5.618   4.402   0.156  0.1041  0.1112  0.3523
 2971ntf    fn417563   5.674   4.433   0.445 -0.2591 -0.4476  0.7041
 2971ntf    fn417564   5.573   4.605   0.367 -0.4947  0.1727 -0.0427
 2971ntf    fn417565   5.470   4.467   0.488  0.0942  0.6557 -0.8312
 2972ntf    cn117566   5.072   5.360   1.235  0.2980 -0.2255  0.0990
 2972ntf    sn217567   5.089   5.193   1.304 -0.0578 -0.3384 -0.0856
 2972ntf    nn317568   4.972   5.120   1.228 -0.4057  0.1834 -0.0542
 2972ntf    sn217569   4.967   5.010   1.117  0.1611 -0.1769  0.2720
 2972ntf    cn117570   5.004   4.861   1.214  0.4047 -0.2555  0.0621
 2972ntf    fn417571   5.149   5.452   1.291 -0.5842  0.2775  0.5170
 2972ntf    fn417572   5.102   5.365   1.106 -0.8595  0.1190 -0.1701
 2972ntf    fn417573   4.946   5.402   1.244  0.3748  0.0098  0.1128
 2972ntf    on517574   5.224   5.157   1.268  0.2068 -0.4006  0.9562
 2972ntf    on517575   5.060   5.216   1.443 -0.1872  0.0480 -0.1755
 2972ntf    on517576   5.065   5.018   1.012  0.4152  0.1293  0.5318
 2972ntf    on517577   4.831   4.983   1.078  0.0305  0.2230  0.4524
 2972ntf    fn417578   5.008   4.751   1.140 -0.4247 -0.2698  0.0296
 2972ntf    fn417579   5.117   4.879   1.280  0.1092  0.2351  0.4413
 2972ntf    fn417580   4.912   4.833   1.306  0.1988 -0.2854 -0.1517
 2973ntf    cn117581   6.925   2.689   4.953  0.1187  0.1123 -0.1375
 2973ntf    sn217582   6.912   2.614   5.118 -0.1121 -0.0864 -0.2458
 2973ntf    nn317583   7.017   2.499   5.102 -0.1200 -0.1007 -0.1958
 2973ntf    sn217584   7.101   2.433   5.218 -0.0982 -0.0921 -0.2068
 2973ntf    cn117585   7.262   2.484   5.151 -0.0498 -0.0611 -0.0661
 2973ntf    fn417586   6.840   2.788   4.928  0.1766  0.2644  0.2599
 2973ntf    fn417587   7.043   2.746   4.931  0.0549  0.1881 -0.2881
 2973ntf    fn417588   6.908   2.597   4.860  0.4505 -0.5651  0.4637
 2973ntf    on517589   6.941   2.721   5.211  0.1435 -0.3909  0.0295
 2973ntf    on517590   6.774   2.574   5.122 -0.3771  0.8766  0.8138
 2973ntf    on517591   7.105   2.289   5.215  0.4162 -0.0685 -1.1807
 2973ntf    on517592   7.103   2.498   5.346 -0.1725 -0.0853 -0.2092
 2973ntf    fn417593   7.301   2.420   5.042  0.2175  0.4039 -0.2476
 2973ntf    fn417594   7.272   2.613   5.122 -0.4853  0.0530  0.2795
 2973ntf    fn417595   7.364   2.471   5.234 -0.1836  0.0738  0.1208
 2974ntf    cn117596   2.504   4.327   3.304 -0.1081 -0.1115 -0.3480
 2974ntf    sn217597   2.400   4.458   3.376 -0.0858 -0.2309 -0.0939
 2974ntf    nn317598   2.321   4.378   3.485  0.0644 -0.2011  0.0374
 2974ntf    sn217599   2.351   4.364   3.638 -0.2038 -0.0417  0.1066
 2974ntf    cn117600   2.191   4.297   3.691 -0.0743 -0.1530  0.3594
 2974ntf    fn417601   2.567   4.254   3.395 -0.7785 -0.0829  0.1462
 2974ntf    fn417602   2.433   4.243   3.231  0.0747 -0.7066  0.1442
 2974ntf    fn417603   2.592   4.382   3.223  0.4596  0.0202  0.3439
 2974ntf    on517604   2.489   4.560   3.427 -0.4861 -0.2351  0.6239
 2974ntf    on517605   2.326   4.493   3.257 -0.2692  0.4672  0.2177
 2974ntf    on517606   2.350   4.488   3.711  0.4032 -0.2378  0.4593
 2974ntf    on517607   2.442   4.259   3.676  0.3283  0.1376 -0.6467
 2974ntf    fn417608   2.188   4.276   3.822  0.0077 -0.1627  0.3601
 2974ntf    fn417609   2.088   4.375   3.662 -0.0148 -0.2704 -0.1760
 2974ntf    fn417610   2.172   4.174   3.644  0.0252  0.0392 -0.1889
 2975ntf    cn117611   1.613   2.386   4.874  0.3417  0.5724 -0.0889
 2975ntf    sn217612   1.774   2.327   4.812  0.2661  0.0695  0.1900
 2975ntf    nn317613   1.734   2.283   4.667  0.6767 -0.0836  0.1230
 2975ntf    sn217614   1.666   2.149   4.621  0.1373  0.1693  0.1715
 2975ntf    cn117615   1.807   2.050   4.563  0.1725  0.0691  0.4242
 2975ntf    fn417616   1.559   2.477   4.795 -0.5476  0.2388  0.1262
 2975ntf    fn417617   1.520   2.292   4.871  0.3438  0.5888 -0.7018
 2975ntf    fn417618   1.622   2.433   4.998  0.0352  0.0927  0.1165
 2975ntf    on517619   1.857   2.444   4.809 -0.1180  0.3410  0.0303
 2975ntf    on517620   1.812   2.221   4.903 -0.0238 -0.1010  0.1165
 2975ntf    on517621   1.583   2.181   4.508  0.4455  0.7417  0.1024
 2975ntf    on517622   1.608   2.062   4.721 -0.1564 -0.2061 -0.3232
 2975ntf    fn417623   1.902   2.037   4.654  0.2515 -0.0631  0.3241
 2975ntf    fn417624   1.767   1.931   4.523  0.5818  0.0966 -0.0881
 2975ntf    fn417625   1.867   2.106   4.459 -0.1495  0.6105  0.5295
 2976ntf    cn117626   3.836   3.327   5.887 -0.2278 -0.2977 -0.1872
 2976ntf    sn217627   3.951   3.250   5.769  0.1004 -0.0338 -0.0440
 2976ntf    nn317628   4.027   3.374   5.710 -0.2793  0.4633  0.5080
 2976ntf    sn217629   3.990   3.460   5.584  0.0149 -0.1967 -0.0336
 2976ntf    cn117630   4.070   3.375   5.445  0.0112  0.4316 -0.4273
 2976ntf    fn417631   3.888   3.418   5.968  0.0957 -0.3339 -0.3508
 2976ntf    fn417632   3.746   3.399   5.823 -0.5203 -0.5348 -0.0426
 2976ntf    fn417633   3.779   3.241   5.969 -0.5521 -0.0415 -0.1386
 2976ntf    on517634   4.048   3.179   5.848  0.4803 -0.4000 -0.8259
 2976ntf    on517635   3.879   3.169   5.673 -0.2799  0.5456 -0.2524
 2976ntf    on517636   4.043   3.594   5.593  0.0665 -0.2270  0.1273
 2976ntf    on517637   3.852   3.461   5.543 -0.0754  0.0688  0.2699
 2976ntf    fn417638   4.046   3.434   5.329  0.1161  0.3496 -0.4913
 2976ntf    fn417639   4.199   3.369   5.475 -0.1414  0.3550  0.2349
 2976ntf    fn417640   4.026   3.251   5.434 -0.0743  0.3926  0.3396
 2977ntf    cn117641   4.586   5.253   5.019  0.5096 -0.0613  0.2236
 2977ntf    sn217642   4.555   5.266   4.841  0.1969  0.0012  0.2825
 2977ntf    nn317643   4.687   5.306   4.767 -0.2316 -0.0402 -0.5207
 2977ntf    sn217644   4.814   5.223   4.725 -0.0629  0.0499 -0.1912
 2977ntf    cn117645   4.764   5.156   4.564  0.1833  0.1419 -0.3071
 2977ntf    fn417646   4.477   5.198   5.069  0.4007 -0.1244 -0.0846
 2977ntf    fn417647   4.683   5.167   5.047 -0.0925 -0.7939  0.1130
 2977ntf    fn417648   4.613   5.365   5.084  0.0243  0.0397  0.2503
 2977ntf    on517649   4.519   5.130   4.807  0.0367  0.0953  0.0675
 2977ntf    on517650   4.454   5.368   4.833  0.2414 -0.0553 -1.2529
 2977ntf    on517651   4.846   5.117   4.816  0.3287  0.6892  0.4323
 2977ntf    on517652   4.926   5.307   4.689  0.0598  0.2538  0.6482
 2977ntf    fn417653   4.777   5.243   4.464  0.4212 -0.2204 -0.5965
 2977ntf    fn417654   4.819   5.040   4.531  0.4547  0.0282  0.5255
 2977ntf    fn417655   4.634   5.135   4.559  0.2030 -0.0678  0.0290
 2978ntf    cn117656   2.060   3.622   0.222 -0.2386 -0.0286  0.0621
 2978ntf    sn217657   2.070   3.644   0.042  0.1641  0.4704  0.1441
 2978ntf    nn317658   1.933   3.585  -0.007  0.5027  0.2110 -0.4976
 2978ntf    sn217659   1.798   3.660  -0.034  0.2789 -0.0346 -0.0489
 2978ntf    cn117660   1.832   3.748  -0.189  0.3045 -0.0954 -0.0777
 2978ntf    fn417661   2.170   3.654   0.287 -0.0471 -0.1818 -0.1864
 2978ntf    fn417662   1.957   3.690   0.271  0.1140  0.2892  0.3720
 2978ntf    fn417663   2.036   3.494   0.246 -0.0923 -0.1087 -0.2262
 2978ntf    on517664   2.084   3.786   0.021  1.0551  0.3933  0.1546
 2978ntf    on517665   2.185   3.567  -0.001 -0.3595 -0.2343 -0.0039
 2978ntf    on517666   1.759   3.751   0.071 -0.3097 -0.3776  0.0372
 2978ntf    on517667   1.696   3.562  -0.062  0.2983 -0.1634  0.3256
 2978ntf    fn417668   1.897   3.678  -0.280 -0.1189 -1.0650  0.3606
 2978ntf    fn417669   1.723   3.803  -0.240  0.0860 -0.4923 -0.0409
 2978ntf    fn417670   1.913   3.849  -0.159  0.4686 -0.2029 -0.1532
 2979ntf    cn117671   6.210   0.285   6.192  0.0503  0.3302  0.0590
 2979ntf    sn217672   6.378   0.323   6.251  0.0482  0.1778  0.1624
 2979ntf    nn317673   6.351   0.367   6.399 -0.1172  0.1407  0.1442
 2979ntf    sn217674   6.372   0.290   6.534  0.0382  0.4033  0.2709
 2979ntf    cn117675   6.470   0.419   6.617 -0.3566  0.5881  0.4524
 2979ntf    fn417676   6.119   0.379   6.215 -0.2989 -0.1861  0.8390
 2979ntf    fn417677   6.215   0.269   6.061  0.2267 -0.3013  0.1417
 2979ntf    fn417678   6.159   0.172   6.237 -0.0278  0.1356 -0.5091
 2979ntf    on517679   6.462   0.207   6.238 -0.3257 -0.0554 -0.2435
 2979ntf    on517680   6.416   0.431   6.163  0.1970 -0.0824 -0.0960
 2979ntf    on517681   6.454   0.172   6.526  0.0763  0.4642 -0.3104
 2979ntf    on517682   6.248   0.279   6.607  0.1620 -0.4292  0.3600
 2979ntf    fn417683   6.494   0.388   6.743 -0.2439  0.6140  0.4376
 2979ntf    fn417684   6.586   0.453   6.562  0.0767 -0.1997  0.8769
 2979ntf    fn417685   6.398   0.530   6.614 -0.1237  0.7307  0.0062
 2980ntf    cn117686   0.725   0.583   6.360 -0.1974  0.1461 -0.0155
 2980ntf    sn217687   0.615   0.728   6.370 -0.2214  0.1558 -0.4004
 2980ntf    nn317688   0.553   0.726   6.226 -0.1016 -0.0951 -0.4502
 2980ntf    sn217689   0.411   0.783   6.189 -0.1657 -0.0165 -0.0833
 2980ntf    cn117690   0.438   0.813   6.012  0.5653 -0.0376  0.0221
 2980ntf    fn417691   0.815   0.599   6.264 -0.2157  0.6500  0.0503
 2980ntf    fn417692   0.792   0.572   6.473  0.5728  0.2356 -0.4548
 2980ntf    fn417693   0.659   0.470   6.340 -0.2954  0.2463 -0.2658
 2980ntf    on517694   0.526   0.685   6.474 -0.2573 -0.1410 -0.5505
 2980ntf    on517695   0.710   0.835   6.388  0.1277 -0.3159  0.6482
 2980ntf    on517696   0.379   0.913   6.243  0.6656  0.1006  0.1401
 2980ntf    on517697   0.304   0.686   6.191 -0.3824  0.2151 -0.4086
 2980ntf    fn417698   0.538   0.895   5.982  0.5216  0.1229  0.3145
 2980ntf    fn417699   0.448   0.707   5.934 -0.1214 -0.4998  0.5533
 2980ntf    fn417700   0.334   0.864   5.949  0.2004 -0.2860  0.4209
 2981ntf    cn117701   1.589   0.204   5.244  0.3721  0.1454 -0.2597
 2981ntf    sn217702   1.578   0.065   5.128 -0.3686 -0.0133 -0.0026
 2981ntf    nn317703   1.721   0.002   5.138 -0.3723 -0.1233 -0.6054
 2981ntf    sn217704   1.837   0.002   5.031  0.1079  0.0318 -0.0892
 2981ntf    cn117705   1.964  -0.091   5.122  0.2811  0.1183 -0.2444
 2981ntf    fn417706   1.691   0.288   5.234 -0.1321  0.8938  0.6433
 2981ntf    fn417707   1.480   0.279   5.246  0.3628  0.1220  0.3285
 2981ntf    fn417708   1.614   0.158   5.366 -0.0013 -0.2714 -0.3421
 2981ntf    on517709   1.486  -0.025   5.193 -0.3229  0.1506  0.2912
 2981ntf    on517710   1.537   0.119   5.000  0.3674 -0.2535 -0.3438
 2981ntf    on517711   1.903   0.129   5.013 -0.0881  0.1434 -0.0294
 2981ntf    on517712   1.801  -0.072   4.912 -0.4929  0.2247 -0.0333
 2981ntf    fn417713   2.082  -0.093   5.060  0.2341  0.6869 -0.3591
 2981ntf    fn417714   1.981  -0.040   5.243  0.2079 -0.3313 -0.0421
 2981ntf    fn417715   1.931  -0.216   5.149  0.1250  0.2761  0.3095
 2982ntf    cn117716   0.420   6.457   3.211  0.6072 -0.0869 -0.2567
 2982ntf    sn217717   0.545   6.344   3.143  0.4676 -0.1643 -0.3878
 2982ntf    nn317718   0.674   6.431   3.161  0.2729  0.1382 -0.4516
 2982ntf    sn217719   0.795   6.417   3.261 -0.2149 -0.1049  0.1107
 2982ntf    cn117720   0.840   6.593   3.272  0.1403 -0.1732 -0.2187
 2982ntf    fn417721   0.442   6.471   3.340 -0.2975  0.4053 -0.1443
 2982ntf    fn417722   0.420   6.580   3.163 -0.4367 -0.2015 -0.6018
 2982ntf    fn417723   0.296   6.412   3.195  0.4082  0.4571 -0.2770
 2982ntf    on517724   0.534   6.225   3.225  0.0390  0.4715  0.4965
 2982ntf    on517725   0.508   6.320   3.006  0.7834 -0.0189 -0.4993
 2982ntf    on517726   0.910   6.360   3.196  0.0378  0.3452  0.1587
 2982ntf    on517727   0.762   6.391   3.399  0.2941 -0.5579  0.1501
 2982ntf    fn417728   0.736   6.670   3.298  0.0916 -0.2611 -0.1524
 2982ntf    fn417729   0.934   6.621   3.360  0.0799 -0.6861  0.0110
 2982ntf    fn417730   0.889   6.638   3.158  0.4987 -0.4496 -0.1747
 2983ntf    cn117731   5.587   3.590   5.306  0.3176 -0.0327  0.4775
 2983ntf    sn217732   5.582   3.434   5.399  0.1008 -0.1620  0.2503
 2983ntf    nn317733   5.681   3.347   5.314  0.0316 -0.0421  0.0457
 2983ntf    sn217734   5.837   3.366   5.307  0.0419 -0.0308  0.2769
 2983ntf    cn117735   5.898   3.200   5.349 -0.3613 -0.1662  0.3355
 2983ntf    fn417736   5.500   3.682   5.345 -0.3072 -0.3504 -0.1438
 2983ntf    fn417737   5.705   3.650   5.313  0.2297  0.2276 -0.2054
 2983ntf    fn417738   5.564   3.569   5.177  0.0083  0.5465  0.4324
 2983ntf    on517739   5.629   3.461   5.533  0.6460 -0.5543  0.1421
 2983ntf    on517740   5.446   3.391   5.380 -0.0169  0.0848  0.5306
 2983ntf    on517741   5.895   3.444   5.413  0.4252 -0.7862  0.6317
 2983ntf    on517742   5.882   3.395   5.173 -0.6022  0.4330  0.1567
 2983ntf    fn417743   6.017   3.205   5.407 -0.4194  0.4126  0.4158
 2983ntf    fn417744   5.815   3.135   5.429 -0.5513  0.0201  0.2918
 2983ntf    fn417745   5.914   3.122   5.244 -0.2000 -0.5354  0.6328
 2984ntf    cn117746   1.825   2.649   1.574 -0.0905  0.1177 -0.2241
 2984ntf    sn217747   1.883   2.584   1.734 -0.4990 -0.0169 -0.1291
 2984ntf    nn317748   1.752   2.511   1.781  0.0012 -0.4590  0.6006
 2984ntf    sn217749   1.648   2.557   1.890 -0.1899 -0.1379  0.2845
 2984ntf    cn117750   1.486   2.548   1.806  0.0397 -0.0385 -0.1738
 2984ntf    fn417751   1.709   2.712   1.581  0.1569  0.5059  0.4513
 2984ntf    fn417752   1.909   2.734   1.519  0.0277 -0.1192 -0.4134
 2984ntf    fn417753   1.802   2.553   1.486  0.1139 -0.2536  0.1243
 2984ntf    on517754   1.986   2.485   1.714 -0.2310  0.2406 -0.0238
 2984ntf    on517755   1.917   2.703   1.807 -0.1406 -0.3463  0.2467
 2984ntf    on517756   1.644   2.693   1.937  0.0721 -0.0694  0.1118
 2984ntf    on517757   1.643   2.456   1.992  0.5367 -0.4791 -0.0119
 2984ntf    fn417758   1.383   2.538   1.888  0.0019  0.3376 -0.1728
 2984ntf    fn417759   1.468   2.644   1.717 -0.3628 -0.0299 -0.0824
 2984ntf    fn417760   1.488   2.436   1.736 -0.0437 -0.1024 -0.0743
 2985ntf    cn117761   3.086   1.150   6.944 -0.2641 -0.2197 -0.3911
 2985ntf    sn217762   3.086   1.163   7.125  0.1737 -0.3971 -0.3761
 2985ntf    nn317763   3.004   1.034   7.163 -0.3155 -0.0696 -0.2973
 2985ntf    sn217764   2.904   1.024   7.283  0.2037  0.0407  0.1499
 2985ntf    cn117765   2.748   1.072   7.202  0.2812  0.3808  0.1993
 2985ntf    fn417766   3.167   1.238   6.887  0.4321 -0.2701  0.4941
 2985ntf    fn417767   3.121   1.030   6.901  0.5126 -0.2093  0.1923
 2985ntf    fn417768   2.967   1.169   6.889 -0.1352  0.4130 -0.4638
 2985ntf    on517769   3.227   1.148   7.151  0.1122 -0.3766 -0.0155
 2985ntf    on517770   3.010   1.284   7.142 -0.0360 -0.5834  0.0358
 2985ntf    on517771   2.907   1.121   7.390  0.0518  0.4097 -0.1746
 2985ntf    on517772   2.882   0.884   7.307 -0.2156  0.1299  0.3042
 2985ntf    fn417773   2.644   1.048   7.280  0.4222 -0.2382  0.2070
 2985ntf    fn417774   2.740   1.199   7.168  0.0612  0.4166  0.3870
 2985ntf    fn417775   2.724   1.003   7.091  0.1437  0.1110  0.3954
 2986ntf    cn117776   7.033   1.543   4.129 -0.2179  0.0657  0.2292
 2986ntf    sn217777   6.873   1.460   4.157 -0.1431  0.0346  0.5715
 2986ntf    nn317778   6.917   1.310   4.155 -0.7477 -0.1427  0.1100
 2986ntf    sn217779   6.959   1.224   4.280  0.2506 -0.1854 -0.2440
 2986ntf    cn117780   6.796   1.162   4.332  0.3789  0.0493  0.4568
 2986ntf    fn417781   7.099   1.510   4.020 -0.0189  0.2318  0.2979
 2986ntf    fn417782   7.026   1.675   4.126 -0.3876  0.0418 -0.6826
 2986ntf    fn417783   7.117   1.513   4.227  0.0141  0.0470  0.0249
 2986ntf    on517784   6.815   1.510   4.280 -0.2258  0.2827  0.4333
 2986ntf    on517785   6.804   1.485   4.033  0.9235  0.3040  0.0196
 2986ntf    on517786   7.000   1.291   4.401  0.0898 -0.0813 -0.2456
 2986ntf    on517787   7.026   1.105   4.235  0.2634 -0.2101 -0.1609
 2986ntf    fn417788   6.805   1.086   4.440  0.0004  0.2730  0.6432
 2986ntf    fn417789   6.712   1.261   4.355 -0.1352 -0.3186  0.1747
 2986ntf    fn417790   6.743   1.084   4.239  0.4750  0.3748  0.1272
 2987ntf    cn117791   2.449   1.711   4.731 -0.0730  0.7578  0.0603
 2987ntf    sn217792   2.523   1.868   4.677  0.2646  0.5151 -0.1880
 2987ntf    nn317793   2.422   1.970   4.740  0.3285  0.4774 -0.0243
 2987ntf    sn217794   2.316   2.051   4.657 -0.1434 -0.2451 -0.1307
 2987ntf    cn117795   2.248   2.163   4.783 -0.1344 -0.4562  0.0624
 2987ntf    fn417796   2.343   1.670   4.663 -0.0509 -0.1438  0.5476
 2987ntf    fn417797   2.540   1.617   4.710 -0.2034  0.5723  0.3261
 2987ntf    fn417798   2.422   1.714   4.860  0.0957 -0.3693  0.1345
 2987ntf    on517799   2.652   1.862   4.741  0.1332 -0.1699  0.0269
 2987ntf    on517800   2.520   1.854   4.533 -0.4643 -0.8290 -0.0582
 2987ntf    on517801   2.195   1.980   4.623 -0.3590 -0.1600  0.4396
 2987ntf    on517802   2.378   2.141   4.563 -0.1594  0.3256  0.3995
 2987ntf    fn417803   2.325   2.269   4.802 -0.1221 -0.3942 -0.3320
 2987ntf    fn417804   2.128   2.213   4.759  0.2666  0.2885 -0.4253
 2987ntf    fn417805   2.230   2.097   4.896  0.0506 -0.1048  0.2992
 2988ntf    cn117806   5.084   3.616   1.449 -0.0571  0.0051  0.1367
 2988ntf    sn217807   5.191   3.629   1.303 -0.2685 -0.2336 -0.0400
 2988ntf    nn317808   5.312   3.701   1.372 -0.6799  0.0192  0.4207
 2988ntf    sn217809   5.435   3.637   1.446 -0.2406 -0.0517 -0.3645
 2988ntf    cn117810   5.568   3.657   1.324 -0.0994  0.0134 -0.2005
 2988ntf    fn417811   4.958   3.580   1.428 -0.0569 -0.0667  0.2592
 2988ntf    fn417812   5.143   3.527   1.528  0.0172  0.0383  0.1177
 2988ntf    fn417813   5.077   3.725   1.523  0.3107 -0.0095  0.1954
 2988ntf    on517814   5.211   3.492   1.263 -0.1187 -0.2032 -0.0698
 2988ntf    on517815   5.117   3.717   1.214  0.7680  0.2074 -0.4792
 2988ntf    on517816   5.430   3.495   1.471 -0.1911  0.1524  0.8818
 2988ntf    on517817   5.479   3.721   1.555  0.4718 -0.2327 -0.5098
 2988ntf    fn417818   5.687   3.641   1.380 -0.1492  0.1021 -0.0688
 2988ntf    fn417819   5.558   3.573   1.222  0.1804 -0.0160 -0.2028
 2988ntf    fn417820   5.576   3.774   1.262 -0.3885  0.1631  0.0436
 2989ntf    cn117821   5.581   7.060   3.785  0.0449 -0.1016 -0.4426
 2989ntf    sn217822   5.596   7.240   3.757 -0.0879 -0.0101  0.0746
 2989ntf    nn317823   5.467   7.275   3.839  0.0686 -0.0777  0.3516
 2989ntf    sn217824   5.457   7.318   3.990  0.2806 -0.1768  0.3940
 2989ntf    cn117825   5.288   7.384   3.977  0.2529 -0.2354  0.4609
 2989ntf    fn417826   5.603   7.020   3.908 -0.3942  0.4878 -0.1658
 2989ntf    fn417827   5.468   7.014   3.735 -0.0836 -0.5209  0.2327
 2989ntf    fn417828   5.676   6.995   3.719  0.3519 -0.2289  0.1250
 2989ntf    on517829   5.721   7.282   3.815  0.1095 -0.2832 -0.1453
 2989ntf    on517830   5.575   7.245   3.614  0.4531 -0.1312 -0.0094
 2989ntf    on517831   5.535   7.433   4.029  0.9633 -0.4275 -0.1986
 2989ntf    on517832   5.454   7.205   4.080  0.0848  0.3221  1.0154
 2989ntf    fn417833   5.255   7.440   4.092  0.6395 -0.1095  0.5112
 2989ntf    fn417834   5.281   7.478   3.883 -0.7120 -0.6408  0.1117
 2989ntf    fn417835   5.197   7.291   3.953  0.3172 -0.1586 -0.0899
 2990ntf    cn117836   6.043   4.884   3.874 -0.0816  0.1115 -0.0790
 2990ntf    sn217837   5.875   4.896   3.804  0.0464  0.0065 -0.4074
 2990ntf    nn317838   5.847   5.049   3.819  0.0992 -0.0128 -0.1057
 2990ntf    sn217839   5.759   5.123   3.927  0.2233  0.2985 -0.2160
 2990ntf    cn117840   5.606   5.141   3.831  0.0851 -0.3780 -0.1283
 2990ntf    fn417841   6.076   4.756   3.882 -0.0620  0.1520  0.4867
 2990ntf    fn417842   6.139   4.949   3.812  0.1773 -0.0060  0.1971
 2990ntf    fn417843   6.067   4.930   3.995  0.1518 -0.4388  0.0870
 2990ntf    on517844   5.879   4.850   3.667  0.7527  0.0820 -0.4183
 2990ntf    on517845   5.787   4.818   3.888  0.1581  0.6191  0.2897
 2990ntf    on517846   5.805   5.259   3.940 -0.1151  0.3998 -0.0848
 2990ntf    on517847   5.722   5.052   4.047 -0.0765  0.2176 -0.3553
 2990ntf    fn417848   5.583   5.050   3.737 -0.4863 -0.4356  0.0664
 2990ntf    fn417849   5.501   5.129   3.910  0.3945 -0.0893  0.3286
 2990ntf    fn417850   5.596   5.259   3.773 -0.4195 -0.2015  0.3121
 2991ntf    cn117851   4.448   0.711   1.185 -0.1933  0.0977 -0.0671
 2991ntf    sn217852   4.329   0.593   1.257 -0.3648  0.3479  0.0599
 2991ntf    nn317853   4.416   0.472   1.210 -0.3385  0.3669  0.0598
 2991ntf    sn217854   4.380   0.370   1.095  0.2004  0.0718  0.1443
 2991ntf    cn117855   4.262   0.265   1.186 -0.2126  0.3604 -0.0504
 2991ntf    fn417856   4.452   0.702   1.053  0.1039  0.4446 -0.0815
 2991ntf    fn417857   4.432   0.835   1.226 -0.3666  0.0319  0.0670
 2991ntf    fn417858   4.568   0.661   1.211 -0.1923 -0.0111 -0.2842
 2991ntf    on517859   4.339   0.596   1.401  0.1483 -0.0349  0.0352
 2991ntf    on517860   4.206   0.616   1.186 -0.1348 -0.1084 -0.4933
 2991ntf    on517861   4.489   0.282   1.063  0.1028  0.3145 -0.8900
 2991ntf    on517862   4.311   0.420   0.979  0.0432  0.0464  0.2260
 2991ntf    fn417863   4.317   0.229   1.301  0.5186  0.4894 -0.3501
 2991ntf    fn417864   4.143   0.316   1.210 -0.4053  0.2526 -0.7590
 2991ntf    fn417865   4.230   0.153   1.122  0.5297  0.1810 -0.1234
 2992ntf    cn117866   5.726   1.499   4.662  0.7989  0.0244  0.3710
 2992ntf    sn217867   5.665   1.336   4.713  0.1124  0.0983 -0.1772
 2992ntf    nn317868   5.643   1.360   4.867 -0.0620 -0.2429 -0.1468
 2992ntf    sn217869   5.739   1.359   4.991 -0.2223 -0.0853 -0.0210
 2992ntf    cn117870   5.695   1.200   5.067 -0.6425  0.0131 -0.0552
 2992ntf    fn417871   5.730   1.509   4.530  0.3972  0.1879  0.3699
 2992ntf    fn417872   5.653   1.602   4.702  0.8562  0.3467 -0.3267
 2992ntf    fn417873   5.849   1.517   4.704  0.8300 -0.0939  0.3307
 2992ntf    on517874   5.538   1.321   4.647 -0.3101  0.6863  0.4890
 2992ntf    on517875   5.762   1.231   4.689 -0.6854 -0.4466 -1.0591
 2992ntf    on517876   5.707   1.457   5.091  0.0922 -0.2145  0.2094
 2992ntf    on517877   5.878   1.327   4.968 -0.4206 -0.5974 -0.5380
 2992ntf    fn417878   5.783   1.147   5.151  0.0768  0.2214 -0.6638
 2992ntf    fn417879   5.578   1.203   5.128 -0.3540 -0.0219  0.5047
 2992ntf    fn417880   5.682   1.106   4.974  0.2006 -0.1704  0.0046
 2993ntf    cn117881   1.230   6.480   1.881  0.0842  0.0176  0.2370
 2993ntf    sn217882   1.344   6.563   1.766  0.0817 -0.1533  0.1104
 2993ntf    nn317883   1.355   6.705   1.832 -0.3893 -0.0595 -0.0038
 2993ntf    sn217884   1.328   6.844   1.764 -0.0363 -0.2230 -0.4889
 2993ntf    cn117885   1.148   6.842   1.741 -0.0735 -0.3387 -0.1987
 2993ntf    fn417886   1.206   6.352   1.855  0.4901 -0.0789  0.3237
 2993ntf    fn417887   1.264   6.498   2.008 -0.2608  0.3843  0.2765
 2993ntf    fn417888   1.114   6.541   1.866  0.2170  0.2483  0.1468
 2993ntf    on517889   1.464   6.485   1.781  0.3367  0.1188 -0.4901
 2993ntf    on517890   1.273   6.553   1.640  0.2972  0.3101 -0.0492
 2993ntf    on517891   1.375   6.854   1.628  0.0831 -0.1422 -0.4428
 2993ntf    on517892   1.353   6.963   1.843 -0.1108 -0.0502 -0.7234
 2993ntf    fn417893   1.106   6.746   1.661 -0.5667 -0.1517 -0.1673
 2993ntf    fn417894   1.080   6.819   1.851 -0.1391  0.3591 -0.0875
 2993ntf    fn417895   1.103   6.957   1.693  0.1266  0.0231  0.4736
 2994ntf    cn117896   3.942   5.658   2.987 -0.0578 -0.3713 -0.3667
 2994ntf    sn217897   4.064   5.767   3.066 -0.3727 -0.0337 -0.3450
 2994ntf    nn317898   4.066   5.877   2.954  0.2272 -0.0782 -0.3856
 2994ntf    sn217899   3.989   6.014   2.954  0.2508 -0.0638  0.1693
 2994ntf    cn117900   4.092   6.082   2.821 -0.2645  0.0543 -0.1731
 2994ntf    fn417901   3.990   5.579   2.892 -0.0905 -0.1643 -0.5562
 2994ntf    fn417902   3.883   5.575   3.072  0.3546 -0.1014  0.1962
 2994ntf    fn417903   3.845   5.732   2.937 -0.4083 -0.0979  0.6862
 2994ntf    on517904   3.992   5.813   3.182 -0.2294 -0.5892 -0.0316
 2994ntf    on517905   4.185   5.688   3.078 -0.2470  0.0933 -0.7495
 2994ntf    on517906   4.018   6.104   3.063 -0.1689  0.2426  0.0316
 2994ntf    on517907   3.856   6.011   2.897 -0.0043  0.1174  0.7445
 2994ntf    fn417908   4.096   5.999   2.718  0.5477 -0.1473  0.0110
 2994ntf    fn417909   4.047   6.198   2.777 -0.0520  0.1424 -0.1588
 2994ntf    fn417910   4.219   6.093   2.857 -0.3297  0.8175 -0.1690
 2995ntf    cn117911   2.143   6.298   2.710 -0.3308 -0.2238 -0.0515
 2995ntf    sn217912   2.177   6.281   2.532  0.2291 -0.2169  0.0539
 2995ntf    nn317913   2.294   6.177   2.530  0.1139 -0.3606  0.5931
 2995ntf    sn217914   2.447   6.191   2.497 -0.0025 -0.1713  0.1360
 2995ntf    cn117915   2.448   6.184   2.315  0.9208  0.1044  0.1276
 2995ntf    fn417916   2.252   6.329   2.779 -0.1868  0.5286 -0.6139
 2995ntf    fn417917   2.061   6.397   2.739 -0.4298 -0.3598  0.1347
 2995ntf    fn417918   2.090   6.190   2.766 -0.7294 -0.4815 -0.9085
 2995ntf    on517919   2.055   6.225   2.479  0.2901  0.0889 -0.4152
 2995ntf    on517920   2.201   6.418   2.492  0.2379 -0.3035 -0.2338
 2995ntf    on517921   2.522   6.072   2.531  0.2485 -0.0323  0.0700
 2995ntf    on517922   2.509   6.315   2.536 -0.2520 -0.2644  0.8341
 2995ntf    fn417923   2.568   6.203   2.262  0.4465  0.0819 -0.9677
 2995ntf    fn417924   2.416   6.063   2.272  0.3541  0.1220  0.5000
 2995ntf    fn417925   2.371   6.274   2.256 -0.0933 -0.9341 -0.1637
 2996ntf    cn117926   2.003   0.435   0.878 -0.0091 -0.0823 -0.1228
 2996ntf    sn217927   1.867   0.346   0.797 -0.0192  0.0430 -0.2442
 2996ntf    nn317928   1.802   0.287   0.927  0.0184  0.1378 -0.1830
 2996ntf    sn217929   1.660   0.309   0.991  0.0699 -0.0165 -0.0153
 2996ntf    cn117930   1.715   0.375   1.152 -0.1063  0.2125 -0.0495
 2996ntf    fn417931   2.083   0.466   0.778  0.3102  0.0793  0.1816
 2996ntf    fn417932   1.950   0.547   0.923 -0.3732 -0.2733 -0.0707
 2996ntf    fn417933   2.068   0.374   0.976  0.2886 -0.1043 -0.3345
 2996ntf    on517934   1.794   0.444   0.721  0.2929  0.5794  0.1448
 2996ntf    on517935   1.935   0.242   0.722 -0.0598 -0.4934  0.4572
 2996ntf    on517936   1.593   0.186   1.024  0.3877 -0.0276  0.6171
 2996ntf    on517937   1.581   0.420   0.944 -0.6033 -0.3517  0.3225
 2996ntf    fn417938   1.789   0.281   1.207 -0.7102 -0.3692 -0.2222
 2996ntf    fn417939   1.786   0.487   1.152 -0.1374  0.2351 -0.4514
 2996ntf    fn417940   1.609   0.387   1.230 -0.2317  0.0772 -0.1966
 2997ntf    cn117941   6.043   6.317   0.599  0.0743 -0.0213  0.0807
 2997ntf    sn217942   6.095   6.287   0.771  0.3141  0.1763  0.0429
 2997ntf    nn317943   6.062   6.134   0.787 -0.2058  0.3903  1.0407
 2997ntf    sn217944   6.157   6.009   0.776 -0.3831  0.3522 -0.1912
 2997ntf    cn117945   6.041   5.890   0.702 -0.1979 -0.0058  0.0932
 2997ntf    fn417946   6.052   6.217   0.513  0.2575  0.4758 -0.4812
 2997ntf    fn417947   5.919   6.364   0.593  0.2587  0.3928 -0.5942
 2997ntf    fn417948   6.122   6.411   0.549  0.2124  0.1984  0.7025
 2997ntf    on517949   6.235   6.320   0.771  0.3492  0.0290  0.2781
 2997ntf    on517950   6.002   6.371   0.841 -0.3839 -0.0464 -0.6023
 2997ntf    on517951   6.183   5.942   0.901 -0.0068  0.1337 -0.3874
 2997ntf    on517952   6.260   6.031   0.678  0.0502 -0.3714  0.1003
 2997ntf    fn417953   5.998   5.935   0.586  0.2487  0.1745 -0.0065
 2997ntf    fn417954   6.099   5.774   0.680  0.1935  0.3301 -0.6756
 2997ntf    fn417955   5.934   5.865   0.776  0.1753 -0.5586  0.4532
 2998ntf    cn117956   3.137   3.517   2.843  0.0343  0.2909  0.0743
 2998ntf    sn217957   3.115   3.683   2.773  0.3180  0.3682  0.1646
 2998ntf    nn317958   3.242   3.689   2.681 -0.1758 -0.2559 -0.5731
 2998ntf    sn217959   3.338   3.809   2.649 -0.1754  0.0015  0.3576
 2998ntf    cn117960   3.336   3.800   2.467 -0.5290  0.5499  0.3307
 2998ntf    fn417961   3.113   3.419   2.758  0.1458  0.6201 -0.3372
 2998ntf    fn417962   3.257   3.496   2.894 -0.1129 -0.5910  0.0727
 2998ntf    fn417963   3.045   3.503   2.938 -0.3756 -0.1144 -0.3795
 2998ntf    on517964   2.991   3.668   2.701  0.4671 -0.2694  0.0384
 2998ntf    on517965   3.115   3.767   2.890 -0.5645  0.2253  0.2754
 2998ntf    on517966   3.478   3.794   2.677 -0.0924  0.5685  0.2729
 2998ntf    on517967   3.276   3.935   2.683  0.1232  0.0632  0.6745
 2998ntf    fn417968   3.352   3.923   2.420  0.2959  0.1847 -0.3476
 2998ntf    fn417969   3.432   3.727   2.412 -0.4363  0.7549  0.2201
 2998ntf    fn417970   3.218   3.756   2.425 -0.2090 -0.0669  0.0762
 2999ntf    cn117971   5.059   1.597   6.254  0.0779  0.0457 -0.0449
 2999ntf    sn217972   5.052   1.513   6.093 -0.1713 -0.1240  0.0542
 2999ntf    nn317973   5.063   1.363   6.136 -0.0095 -0.2129 -0.2964
 2999ntf    sn217974   5.182   1.278   6.193 -0.0438 -0.1355 -0.1067
 2999ntf    cn117975   5.241   1.207   6.036  0.4334  0.0417 -0.0101
 2999ntf    fn417976   5.177   1.584   6.312  0.2223 -0.1841 -0.3880
 2999ntf    fn417977   5.033   1.726   6.237 -0.1156  0.0428  0.2288
 2999ntf    fn417978   4.972   1.546   6.339  0.1647  0.1774  0.1235
 2999ntf    on517979   4.923   1.558   6.044 -0.0469 -0.1767 -0.3266
 2999ntf    on517980   5.166   1.555   6.016 -0.4682  0.4909 -0.0644
 2999ntf    on517981   5.140   1.153   6.253  0.0475 -0.0152  0.2092
 2999ntf    on517982   5.295   1.342   6.255 -0.3014 -0.0322  0.2583
 2999ntf    fn417983   5.319   1.100   6.044  0.4472  0.0679  0.2164
 2999ntf    fn417984   5.139   1.180   5.956  0.8117  0.0674 -0.5019
 2999ntf    fn417985   5.303   1.299   5.965 -0.1757  0.1954 -0.3446
 3000ntf    cn117986   2.076   4.119   4.664  0.4554  0.0789  0.0411
 3000ntf    sn217987   2.059   4.255   4.545 -0.1169 -0.1503 -0.1387
 3000ntf    nn317988   2.010   4.375   4.634  0.1261 -0.0809 -0.0993
 3000ntf    sn217989   2.038   4.528   4.610  0.1025 -0.0728 -0.0777
 3000ntf    cn117990   2.218   4.549   4.627  0.0526  0.4890 -0.2246
 3000ntf    fn417991   2.133   4.021   4.595 -0.0602  0.1458 -0.4903
 3000ntf    fn417992   2.156   4.150   4.765  0.6729  0.5085 -0.2589
 3000ntf    fn417993   1.964   4.068   4.713  0.2786  0.4966  0.0744
 3000ntf    on517994   2.195   4.263   4.499 -0.3715  0.4352 -0.8136
 3000ntf    on517995   1.962   4.209   4.448  0.0488 -0.1196 -0.3193
 3000ntf    on517996   1.981   4.608   4.715  0.1574  0.0267 -0.1236
 3000ntf    on517997   2.000   4.564   4.475  0.6108 -0.7483 -0.4111
 3000ntf    fn417998   2.252   4.676   4.637  0.4455  0.3363  0.3751
 3000ntf    fn417999   2.266   4.478   4.728 -0.4177  0.1136 -0.2597
 3000ntf    fn418000   2.276   4.506   4.516  0.1363  0.0558 -0.0156
 3001ntf    cn118001   6.786   2.682   7.066  0.0167  0.2629 -0.2254
 3001ntf    sn218002   6.825   2.825   6.960  0.1768  0.2492 -0.1855
 3001ntf    nn318003   6.752   2.936   7.044 -0.2827 -0.4263  0.3205
 3001ntf    sn218004   6.646   3.033   6.981  0.0597 -0.1641  0.1456
 3001ntf    cn118005   6.644   3.177   7.092  0.3296  0.1947 -0.3102
 3001ntf    fn418006   6.820   2.571   7.003  0.0658  0.0702  0.1361
 3001ntf    fn418007   6.864   2.682   7.173  0.5341 -0.6802 -0.5920
 3001ntf    fn418008   6.658   2.677   7.099  0.0535  0.5062 -0.0405
 3001ntf    on518009   6.969   2.827   6.960  0.1855 -0.2465 -0.5453
 3001ntf    on518010   6.758   2.781   6.840 -0.6591  0.5797  0.1471
 3001ntf    on518011   6.509   2.989   6.996 -0.0290 -0.1276 -0.5359
 3001ntf    on518012   6.681   3.089   6.853 -0.3060  0.0997  0.1577
 3001ntf    fn418013   6.561   3.274   7.057 -0.3266 -0.3476 -0.2655
 3001ntf    fn418014   6.604   3.142   7.214  0.0370  0.2366 -0.3931
 3001ntf    fn418015   6.762   3.237   7.095  0.2965  0.2526 -0.1281
 3002ntf    cn118016   1.481   3.759   0.559 -0.1265 -0.1244  0.1899
 3002ntf    sn218017   1.450   3.900   0.669  0.1494 -0.1886  0.3487
 3002ntf    nn318018   1.592   3.937   0.727  0.4010 -0.5638 -0.0254
 3002ntf    sn218019   1.658   3.891   0.862  0.2330 -0.0581  0.2320
 3002ntf    cn118020   1.604   4.024   0.973 -0.1561 -0.1072  0.1048
 3002ntf    fn418021   1.573   3.787   0.468 -0.2367 -0.0025  0.1148
 3002ntf    fn418022   1.523   3.646   0.614  0.2809  0.0763  0.2899
 3002ntf    fn418023   1.368   3.722   0.501 -0.2489  0.1771  0.2350
 3002ntf    on518024   1.402   3.999   0.576  0.5766 -0.5160 -0.2282
 3002ntf    on518025   1.358   3.856   0.771  0.3835 -0.0367  0.6303
 3002ntf    on518026   1.801   3.911   0.862  0.2220  0.0404 -0.4001
 3002ntf    on518027   1.615   3.770   0.928  0.0654 -0.4160 -0.5119
 3002ntf    fn418028   1.638   4.143   0.927  0.4818 -0.0679  0.6572
 3002ntf    fn418029   1.474   4.029   0.996 -0.1738  0.3086 -0.0904
 3002ntf    fn418030   1.669   4.011   1.088  0.1699  0.4490 -0.0123
 3003ntf    cn118031   5.240   6.313   3.098  0.0209 -0.1644  0.0350
 3003ntf    sn218032   5.325   6.472   3.122 -0.2306 -0.0114 -0.0814
 3003ntf    nn318033   5.304   6.528   2.977 -0.1392 -0.2167 -0.1749
 3003ntf    sn218034   5.369   6.493   2.838 -0.2304 -0.1575 -0.2323
 3003ntf    cn118035   5.372   6.656   2.759 -0.0077  0.0906  0.2799
 3003ntf    fn418036   5.293   6.252   2.993  0.2082  0.3248 -0.1582
 3003ntf    fn418037   5.246   6.234   3.204  0.7169 -0.8243 -0.4765
 3003ntf    fn418038   5.113   6.331   3.066  0.1181  0.3630 -0.0637
 3003ntf    on518039   5.245   6.546   3.216 -0.1363 -0.1905  0.1409
 3003ntf    on518040   5.456   6.433   3.170 -0.3360  0.3689  0.5156
 3003ntf    on518041   5.294   6.408   2.750 -0.3714 -0.2039 -0.0679
 3003ntf    on518042   5.508   6.457   2.854 -0.3451 -0.4505  0.1275
 3003ntf    fn418043   5.415   6.638   2.635 -0.5574 -0.2348  0.1353
 3003ntf    fn418044   5.253   6.713   2.748 -0.1257 -0.2426 -0.2149
 3003ntf    fn418045   5.446   6.746   2.822 -0.2898  0.4046  0.1681
 3004ntf    cn118046   5.869   2.351   6.264  0.5549  0.0394 -0.1174
 3004ntf    sn218047   5.928   2.436   6.413 -0.0200  0.0013  0.1337
 3004ntf    nn318048   6.065   2.500   6.371  0.2239 -0.2597  0.5177
 3004ntf    sn218049   6.178   2.412   6.306  0.1167  0.1740 -0.2717
 3004ntf    cn118050   6.327   2.490   6.374  0.2586 -0.1427 -0.2168
 3004ntf    fn418051   5.900   2.410   6.150  0.0463  0.3400 -0.1021
 3004ntf    fn418052   5.928   2.233   6.254  0.1084 -0.1186 -0.8940
 3004ntf    fn418053   5.741   2.321   6.256  0.5681  0.1353 -0.7099
 3004ntf    on518054   5.826   2.537   6.425 -0.0083  0.0545 -0.2183
 3004ntf    on518055   5.929   2.336   6.517 -0.5638 -0.1424  0.0033
 3004ntf    on518056   6.203   2.435   6.166  0.1873 -0.5702 -0.3818
 3004ntf    on518057   6.198   2.276   6.348  0.3197  0.3547  0.2268
 3004ntf    fn418058   6.320   2.494   6.506 -0.5034  0.4095 -0.2690
 3004ntf    fn418059   6.442   2.439   6.332  0.4290 -0.4073  0.5712
 3004ntf    fn418060   6.329   2.615   6.330 -0.1604 -0.3075 -0.7153
 3005ntf    cn118061   5.224   1.612   0.551 -0.3084  0.2572 -0.1849
 3005ntf    sn218062   5.100   1.645   0.422 -0.5084  0.3599  0.0326
 3005ntf    nn318063   5.185   1.734   0.325 -0.3051 -0.1218 -0.2355
 3005ntf    sn218064   5.180   1.889   0.297 -0.3965 -0.0969 -0.0829
 3005ntf    cn118065   5.261   1.902   0.135 -0.1852  0.5412  0.0728
 3005ntf    fn418066   5.328   1.548   0.501 -0.1681  0.4006 -0.0799
 3005ntf    fn418067   5.270   1.718   0.617  0.3212 -0.0380 -0.1409
 3005ntf    fn418068   5.180   1.529   0.644  0.4029 -0.2421 -0.2898
 3005ntf    on518069   5.077   1.516   0.363  0.3648  0.3344 -0.2710
 3005ntf    on518070   4.999   1.709   0.503 -0.0110  0.0278  0.9371
 3005ntf    on518071   5.270   1.958   0.386  0.1810 -0.3404 -0.4752
 3005ntf    on518072   5.051   1.950   0.277 -0.2744  0.0004 -0.6030
 3005ntf    fn418073   5.196   1.834   0.042 -0.7232  1.1968 -0.0335
 3005ntf    fn418074   5.267   2.028   0.095 -0.8977  0.5684  0.0427
 3005ntf    fn418075   5.385   1.858   0.148 -0.4584 -0.2448  0.0650
 3006ntf    cn118076   2.919   6.852   0.716  0.4623  0.0865 -0.1077
 3006ntf    sn218077   2.884   6.878   0.893 -0.4392  0.0587 -0.2779
 3006ntf    nn318078   2.859   6.728   0.929  0.3511 -0.0267 -0.0878
 3006ntf    sn218079   2.718   6.661   0.919  0.2785  0.1146 -0.0080
 3006ntf    cn118080   2.754   6.484   0.944 -0.0478  0.0657  0.1232
 3006ntf    fn418081   2.876   6.958   0.649  0.4913  0.1669  0.0007
 3006ntf    fn418082   3.049   6.850   0.693  0.4612 -0.5059 -0.0578
 3006ntf    fn418083   2.857   6.746   0.667 -0.4705  0.3403  0.4796
 3006ntf    on518084   3.006   6.926   0.953 -0.4275  0.1173 -0.3474
 3006ntf    on518085   2.767   6.964   0.899 -0.5166 -0.1182  0.9434
 3006ntf    on518086   2.658   6.658   0.788 -0.2255 -0.2912  0.2259
 3006ntf    on518087   2.638   6.700   1.032 -0.7234 -0.7835 -0.3834
 3006ntf    fn418088   2.799   6.414   0.841  0.5294  0.3163  0.2055
 3006ntf    fn418089   2.838   6.467   1.044  0.2123  0.3232 -0.0504
 3006ntf    fn418090   2.644   6.415   0.969  0.1172 -0.1393  0.2796
 3007ntf    cn118091   3.460   2.165   4.764 -0.2711 -0.4557  0.0884
 3007ntf    sn218092   3.483   2.150   4.585  0.1678  0.3197  0.0780
 3007ntf    nn318093   3.491   1.994   4.579  0.0046  0.3121  0.0477
 3007ntf    sn218094   3.384   1.892   4.526  0.3094  0.0758 -0.1138
 3007ntf    cn118095   3.474   1.854   4.373 -0.0746  0.5299 -0.4531
 3007ntf    fn418096   3.378   2.075   4.817 -0.6985 -0.1196  0.0086
 3007ntf    fn418097   3.566   2.129   4.835  0.1275 -0.3401 -0.4466
 3007ntf    fn418098   3.419   2.281   4.813  0.6541  0.0948 -0.4313
 3007ntf    on518099   3.371   2.224   4.531  0.1858 -0.2324 -0.7369
 3007ntf    on518100   3.613   2.212   4.572  0.2255  0.0471 -0.6902
 3007ntf    on518101   3.257   1.950   4.489  0.1932  0.1452  0.3914
 3007ntf    on518102   3.391   1.765   4.594 -0.3117  0.1809  0.1543
 3007ntf    fn418103   3.477   1.958   4.291  0.1106  0.4775 -0.5148
 3007ntf    fn418104   3.599   1.824   4.405 -0.3697 -0.1140  0.1165
 3007ntf    fn418105   3.426   1.746   4.314  0.1933  0.3768 -0.3925
 3008ntf    cn118106   1.861   6.854   0.348 -0.2567 -0.3533 -0.0275
 3008ntf    sn218107   1.966   6.975   0.263 -0.1412 -0.1675  0.3830
 3008ntf    nn318108   1.876   7.021   0.143 -0.1325 -0.3089  0.3217
 3008ntf    sn218109   1.864   6.940   0.010  0.0717  0.3521 -0.1033
 3008ntf    cn118110   1.999   7.017  -0.085  0.2116  0.0019 -0.1903
 3008ntf    fn418111   1.863   6.734   0.292  0.2955 -0.4178  0.1238
 3008ntf    fn418112   1.896   6.835   0.474  0.1858 -0.2235 -0.1320
 3008ntf    fn418113   1.732   6.884   0.348 -0.0846  0.3981 -0.3750
 3008ntf    on518114   1.978   7.092   0.347 -0.1366 -0.2990  0.5660
 3008ntf    on518115   2.090   6.907   0.233 -0.0188  0.3880 -0.3920
 3008ntf    on518116   1.746   6.980  -0.063  0.2484  0.0743 -0.5472
 3008ntf    on518117   1.887   6.798   0.008 -0.0012  0.3399 -0.0113
 3008ntf    fn418118   1.997   6.999  -0.216 -0.1144  0.2580 -0.2219
 3008ntf    fn418119   1.995   7.149  -0.093  0.1794  0.0426  0.4246
 3008ntf    fn418120   2.116   6.984  -0.033  0.2775 -0.6593 -0.7507
 3009ntf    cn118121   1.196   0.248   1.978  0.1323 -0.1562 -0.1974
 3009ntf    sn218122   1.230   0.427   1.972  0.0111 -0.1305 -0.1248
 3009ntf    nn318123   1.351   0.431   1.871 -0.4902  0.3868 -0.7120
 3009ntf    sn218124   1.341   0.416   1.715  0.0466 -0.0336 -0.7078
 3009ntf    cn118125   1.374   0.585   1.658  0.2137  0.2348  0.1615
 3009ntf    fn418126   1.272   0.190   2.070  0.0578  0.0975  0.0286
 3009ntf    fn418127   1.069   0.226   2.006  0.1616 -0.3423 -0.2086
 3009ntf    fn418128   1.216   0.184   1.865 -0.0925  0.0881 -0.3758
 3009ntf    on518129   1.109   0.485   1.919  0.2256  0.2737 -0.1731
 3009ntf    on518130   1.270   0.462   2.106  0.1929 -0.5285 -0.0735
 3009ntf    on518131   1.216   0.377   1.655  0.0326 -0.0681 -0.6570
 3009ntf    on518132   1.463   0.350   1.675  0.2639  0.3533 -0.6922
 3009ntf    fn418133   1.499   0.620   1.685  0.3530 -0.4261  0.3921
 3009ntf    fn418134   1.358   0.606   1.528 -0.7124  0.1411  0.2531
 3009ntf    fn418135   1.297   0.673   1.720 -0.0974  0.0562  0.0322
 3010ntf    cn118136   6.728   1.795   3.236  0.3536 -0.3403  0.1892
 3010ntf    sn218137   6.796   1.938   3.325 -0.0315  0.0828 -0.1840
 3010ntf    nn318138   6.704   2.046   3.259 -0.0331  0.2038  0.0166
 3010ntf    sn218139   6.741   2.190   3.207 -0.1501  0.2524  0.0665
 3010ntf    cn118140   6.819   2.259   3.356  0.1977 -0.4497  0.2166
 3010ntf    fn418141   6.803   1.688   3.217  0.3705 -0.2572 -0.2150
 3010ntf    fn418142   6.605   1.763   3.274 -0.0740  0.4195 -0.5098
 3010ntf    fn418143   6.706   1.836   3.112  0.2767 -0.1015  0.2806
 3010ntf    on518144   6.777   1.915   3.466  0.6041  0.0123 -0.1070
 3010ntf    on518145   6.936   1.937   3.290 -0.0845 -0.5370 -0.3974
 3010ntf    on518146   6.615   2.259   3.194 -0.2939  0.0714  0.4528
 3010ntf    on518147   6.838   2.193   3.101  0.3178  0.1866  0.4907
 3010ntf    fn418148   6.846   2.389   3.355  0.4762 -0.5083 -0.2173
 3010ntf    fn418149   6.740   2.240   3.460 -0.6746  0.1792 -0.3176
 3010ntf    fn418150   6.935   2.204   3.387  0.1708 -0.2899  0.6106
 3011ntf    cn118151   1.238   1.328   3.671  0.5500 -0.0672 -0.2914
 3011ntf    sn218152   1.272   1.502   3.630 -0.2803  0.1527 -0.0715
 3011ntf    nn318153   1.399   1.528   3.719 -0.2703 -0.2273  0.0274
 3011ntf    sn218154   1.479   1.655   3.763 -0.1556 -0.3035  0.0383
 3011ntf    cn118155   1.613   1.649   3.640 -0.0863 -0.1282  0.1044
 3011ntf    fn418156   1.260   1.304   3.799  0.2997 -0.1903 -0.2726
 3011ntf    fn418157   1.115   1.294   3.635  0.3931  0.3515 -0.1555
 3011ntf    fn418158   1.318   1.248   3.603  0.4095 -0.0147 -0.5175
 3011ntf    on518159   1.309   1.496   3.490  0.0602 -0.1997  0.0307
 3011ntf    on518160   1.158   1.583   3.664 -0.1291  0.4480 -0.2575
 3011ntf    on518161   1.552   1.650   3.887  0.2775  0.2128 -0.1879
 3011ntf    on518162   1.404   1.777   3.746  0.3194 -0.0433 -0.2276
 3011ntf    fn418163   1.560   1.623   3.522  0.0518  0.5054 -0.1029
 3011ntf    fn418164   1.675   1.765   3.624  0.0488 -0.2523 -0.2694
 3011ntf    fn418165   1.698   1.549   3.647  0.2998  0.1426 -0.5933
 3012ntf    cn118166   0.500   2.932   3.732  0.1135 -0.4952  0.5692
 3012ntf    sn218167   0.499   3.114   3.727  0.0046 -0.5006  0.3358
 3012ntf    nn318168   0.346   3.131   3.754 -0.1861 -1.2468 -0.2562
 3012ntf    sn218169   0.234   3.193   3.664  0.0507 -0.1919  0.1601
 3012ntf    cn118170   0.095   3.127   3.762 -0.1670  0.0861  0.0393
 3012ntf    fn418171   0.609   2.882   3.677  0.0748 -0.3667  0.3731
 3012ntf    fn418172   0.490   2.879   3.852 -0.0967  0.1834  0.8558
 3012ntf    fn418173   0.400   2.892   3.655  0.1840  0.1755  0.1117
 3012ntf    on518174   0.582   3.141   3.842 -0.2064  0.2493  0.3201
 3012ntf    on518175   0.550   3.141   3.595 -1.1185 -0.6212 -0.1304
 3012ntf    on518176   0.221   3.128   3.536  0.0154 -0.6928  0.4162
 3012ntf    on518177   0.226   3.337   3.672  0.6152 -0.1349 -0.2425
 3012ntf    fn418178   0.096   2.996   3.775 -0.1524  0.0998  0.1786
 3012ntf    fn418179   0.089   3.176   3.885  0.6891  0.3796 -0.0297
 3012ntf    fn418180  -0.028   3.155   3.721 -0.1246 -0.4101 -0.4443
 3013ntf    cn118181   6.983   6.360   1.917 -0.0646  0.1665  0.3518
 3013ntf    sn218182   6.917   6.529   1.929 -0.1190  0.1468  0.3300
 3013ntf    nn318183   6.957   6.585   1.787 -0.1357  0.2171  0.3527
 3013ntf    sn218184   6.879   6.669   1.680  0.0938 -0.1775 -0.1310
 3013ntf    cn118185   6.860   6.541   1.553 -0.2577 -0.1487 -0.1084
 3013ntf    fn418186   6.935   6.287   2.016  0.1261 -0.4052  0.0265
 3013ntf    fn418187   6.941   6.298   1.808  0.8236  0.7068 -0.3139
 3013ntf    fn418188   7.114   6.345   1.913 -0.0757 -0.0702  0.8748
 3013ntf    on518189   6.776   6.511   1.950 -0.1939  0.3569  0.0155
 3013ntf    on518190   6.994   6.596   2.031 -0.4555  0.6639  0.2490
 3013ntf    on518191   6.957   6.776   1.623  0.3723  0.0999  0.7487
 3013ntf    on518192   6.746   6.700   1.728  0.2517 -0.1771  0.3102
 3013ntf    fn418193   6.797   6.579   1.442 -0.8727  0.0674  0.3059
 3013ntf    fn418194   6.977   6.489   1.520 -0.2533  0.0792 -0.4624
 3013ntf    fn418195   6.781   6.443   1.593 -0.4022  0.0578  0.1150
 3014ntf    cn118196   4.242   1.771   6.738 -0.5109  0.2478  0.3274
 3014ntf    sn218197   4.326   1.706   6.886 -0.3011 -0.2948 -0.0294
 3014ntf    nn318198   4.209   1.622   6.949 -0.0874 -0.3656  0.2723
 3014ntf    sn218199   4.101   1.661   7.056 -0.2763 -0.2196  0.0285
 3014ntf    cn118200   4.177   1.612   7.214  0.1547 -0.3016 -0.2020
 3014ntf    fn418201   4.308   1.878   6.697 -0.2377 -0.0964 -0.1339
 3014ntf    fn418202   4.241   1.689   6.635  0.6087  0.6598 -0.0230
 3014ntf    fn418203   4.116   1.802   6.762 -0.6582  0.2785 -0.4773
 3014ntf    on518204   4.437   1.631   6.833  0.3015  0.3225  0.3462
 3014ntf    on518205   4.358   1.821   6.966 -0.5847 -0.0975 -0.1999
 3014ntf    on518206   3.983   1.579   7.050 -0.3074 -0.1359 -0.6156
 3014ntf    on518207   4.082   1.803   7.076 -0.2199 -0.2270  0.1344
 3014ntf    fn418208   4.113   1.615   7.330  0.8650  0.2940  0.1855
 3014ntf    fn418209   4.208   1.485   7.195  0.1667 -0.3787  0.3259
 3014ntf    fn418210   4.293   1.669   7.241 -0.0746  0.3104 -0.4776
 3015ntf    cn118211   5.863   0.855   0.177 -0.0985 -0.3520  0.5605
 3015ntf    sn218212   5.925   0.685   0.188  0.1064 -0.2910  0.3415
 3015ntf    nn318213   5.968   0.662   0.038  0.4126 -0.7882  0.5057
 3015ntf    sn218214   6.114   0.663  -0.021  0.2423  0.4386  0.0900
 3015ntf    cn118215   6.069   0.659  -0.197  0.3315 -0.4126  0.0829
 3015ntf    fn418216   5.741   0.854   0.125  0.0313 -0.6215  0.2643
 3015ntf    fn418217   5.837   0.923   0.288 -0.7336  0.0713  0.1629
 3015ntf    fn418218   5.932   0.935   0.097 -0.8267  0.0609  0.3260
 3015ntf    on518219   6.038   0.701   0.276  0.2670 -0.2998  0.1395
 3015ntf    on518220   5.814   0.601   0.226  0.0319 -0.4799 -0.2748
 3015ntf    on518221   6.183   0.538  -0.007 -0.4683  0.0518  0.2067
 3015ntf    on518222   6.184   0.787   0.001  0.4212  0.3199  0.1937
 3015ntf    fn418223   6.167   0.685  -0.282  0.2478  0.5786  0.2720
 3015ntf    fn418224   6.009   0.545  -0.228 -0.1464 -0.2278  0.3148
 3015ntf    fn418225   5.975   0.751  -0.213  0.2577 -0.6390 -0.8241
 3016ntf    cn118226   4.749   1.274   1.290  0.0117  0.1860  0.1841
 3016ntf    sn218227   4.921   1.227   1.252  0.0356  0.2664  0.1920
 3016ntf    nn318228   4.902   1.192   1.100  0.4457  0.4758  0.0902
 3016ntf    sn218229   4.922   1.261   0.961  0.2592  0.1322 -0.1093
 3016ntf    cn118230   4.752   1.265   0.899  0.1893  0.2095  0.0857
 3016ntf    fn418231   4.730   1.315   1.415 -0.1287  0.0443  0.2082
 3016ntf    fn418232   4.698   1.363   1.207 -0.3489 -0.2674 -0.0815
 3016ntf    fn418233   4.667   1.171   1.285  0.0575  0.1700 -0.2166
 3016ntf    on518234   4.996   1.347   1.280 -0.2503  0.4943  0.0013
 3016ntf    on518235   4.944   1.122   1.348  0.0412  0.1485  0.0622
 3016ntf    on518236   5.008   1.181   0.876  0.3834 -0.0025  0.1415
 3016ntf    on518237   4.957   1.400   0.975 -0.3036  0.3216 -0.5469
 3016ntf    fn418238   4.671   1.294   0.999 -0.0998 -0.2134 -0.0213
 3016ntf    fn418239   4.736   1.348   0.797 -0.4806 -0.3935 -0.3132
 3016ntf    fn418240   4.710   1.149   0.849 -0.0796  0.0144  0.7499
 3017ntf    cn118241   4.687   3.120   3.543 -0.0229 -0.1435 -0.0550
 3017ntf    sn218242   4.694   3.296   3.501 -0.1457 -0.1014  0.0995
 3017ntf    nn318243   4.586   3.299   3.387 -0.1555 -0.4183  0.0986
 3017ntf    sn218244   4.441   3.358   3.381  0.0316  0.0400  0.0216
 3017ntf    cn118245   4.430   3.394   3.203  0.0585  0.2883  0.0682
 3017ntf    fn418246   4.741   3.032   3.460  0.3239 -0.0344  0.0526
 3017ntf    fn418247   4.757   3.096   3.653  0.0325  0.5605  0.0658
 3017ntf    fn418248   4.563   3.084   3.571 -0.0053 -0.4983 -0.4305
 3017ntf    on518249   4.672   3.373   3.621  0.5803 -0.2078  0.3062
 3017ntf    on518250   4.824   3.306   3.439 -0.2665  0.0442 -0.1354
 3017ntf    on518251   4.420   3.491   3.434  0.3128 -0.1535  0.6216
 3017ntf    on518252   4.334   3.264   3.404  0.1983 -0.3075 -0.5949
 3017ntf    fn418253   4.317   3.453   3.168 -0.4149 -0.3653  0.4632
 3017ntf    fn418254   4.522   3.481   3.166  0.3530 -0.1662 -0.2915
 3017ntf    fn418255   4.454   3.294   3.119 -0.0179 -0.0016  0.3860
 3018ntf    cn118256   5.688   5.584   6.626 -0.0956  0.0916 -0.0839
 3018ntf    sn218257   5.605   5.425   6.659 -0.1018  0.0849 -0.1317
 3018ntf    nn318258   5.554   5.437   6.807 -0.1982 -0.2421 -0.1390
 3018ntf    sn218259   5.425   5.516   6.847  0.1680  0.2942 -0.0066
 3018ntf    cn118260   5.296   5.388   6.861  0.3993  0.0389 -0.1973
 3018ntf    fn418261   5.698   5.596   6.495 -0.3296 -0.2380 -0.1347
 3018ntf    fn418262   5.612   5.684   6.666  0.2558  0.3596 -0.0841
 3018ntf    fn418263   5.809   5.600   6.676  0.1629  0.3843 -0.7903
 3018ntf    on518264   5.503   5.409   6.558  0.6475  0.4311 -0.9610
 3018ntf    on518265   5.707   5.324   6.650 -0.3203 -0.1901  0.4610
 3018ntf    on518266   5.365   5.608   6.754  0.3933  0.5501  0.1015
 3018ntf    on518267   5.435   5.569   6.981 -0.3080 -0.3091  0.2746
 3018ntf    fn418268   5.341   5.289   6.936  0.2231 -0.0737 -0.2394
 3018ntf    fn418269   5.187   5.438   6.916  0.7334 -0.7024  1.1644
 3018ntf    fn418270   5.266   5.339   6.742  0.1717 -0.1151 -0.0761
 3019ntf    cn118271   3.354   0.043   4.548 -0.1812 -0.0010 -0.1590
 3019ntf    sn218272   3.514  -0.040   4.523 -0.2137 -0.0843 -0.0910
 3019ntf    nn318273   3.530  -0.120   4.657  0.4886  0.5466  0.2019
 3019ntf    sn218274   3.475  -0.259   4.703 -0.2059  0.6952 -0.1718
 3019ntf    cn118275   3.431  -0.206   4.871 -0.1963 -0.4354  0.1969
 3019ntf    fn418276   3.262  -0.045   4.585 -0.4326  0.2117 -0.2804
 3019ntf    fn418277   3.355   0.127   4.650 -0.0323 -0.2567  0.0523
 3019ntf    fn418278   3.308   0.115   4.447  0.0746  0.0542 -0.2366
 3019ntf    on518279   3.491  -0.109   4.398 -0.0105 -0.3088 -0.0052
 3019ntf    on518280   3.607   0.069   4.513 -0.1282 -0.0908  0.5800
 3019ntf    on518281   3.585  -0.349   4.725 -0.8764 -0.0740  0.1035
 3019ntf    on518282   3.352  -0.303   4.641 -0.2168  0.0714  0.2812
 3019ntf    fn418283   3.322  -0.131   4.872  0.1274  0.0433 -0.0721
 3019ntf    fn418284   3.409  -0.307   4.954 -0.4438 -0.1435  0.4908
 3019ntf    fn418285   3.529  -0.130   4.918 -0.4216  0.0098 -0.0505
 3020ntf    cn118286   2.063   0.227   2.703  0.2560 -0.1001  0.0668
 3020ntf    sn218287   1.909   0.130   2.703  0.2821 -0.1429 -0.1847
 3020ntf    nn318288   1.840   0.214   2.816  0.8578 -0.5766  0.5036
 3020ntf    sn218289   1.698   0.189   2.880  0.5311 -0.2378 -0.0780
 3020ntf    cn118290   1.748   0.098   3.029  0.2977 -0.3326 -0.0580
 3020ntf    fn418291   2.102   0.266   2.823  0.0738  0.0889  0.0642
 3020ntf    fn418292   2.155   0.157   2.637  0.3556  0.2610 -0.1788
 3020ntf    fn418293   2.058   0.338   2.632 -0.1546 -0.3965 -0.3755
 3020ntf    on518294   1.857   0.143   2.569 -0.0961  0.2449  0.0015
 3020ntf    on518295   1.944   0.002   2.760  1.0012  0.4446  0.7257
 3020ntf    on518296   1.612   0.109   2.796  0.0046  0.3035 -0.0541
 3020ntf    on518297   1.640   0.307   2.939  0.3898 -0.3361 -0.0204
 3020ntf    fn418298   1.812   0.182   3.108 -0.2618 -0.1019  0.1591
 3020ntf    fn418299   1.641   0.048   3.090  0.1523  0.4515  0.3425
 3020ntf    fn418300   1.837   0.002   3.011  0.2904 -0.3805  0.1539
 3021ntf    cn118301   0.622   1.513   6.655 -0.4162 -0.3661 -0.1525
 3021ntf    sn218302   0.527   1.431   6.787 -0.4881 -0.0640 -0.0168
 3021ntf    nn318303   0.534   1.528   6.910 -0.4525 -0.2786  0.1503
 3021ntf    sn218304   0.422   1.629   6.952 -0.0505  0.1320  0.2471
 3021ntf    cn118305   0.384   1.550   7.111 -0.4182 -0.3652 -0.0848
 3021ntf    fn418306   0.733   1.562   6.706 -0.6832 -0.1277  0.1994
 3021ntf    fn418307   0.657   1.428   6.559 -0.5104  0.1777 -0.6734
 3021ntf    fn418308   0.568   1.614   6.589  0.0015  0.0375  0.1187
 3021ntf    on518309   0.396   1.411   6.729 -0.2084 -0.4403 -0.5332
 3021ntf    on518310   0.608   1.316   6.818 -0.0333  0.2018 -0.2073
 3021ntf    on518311   0.296   1.621   6.882  0.0807 -0.4051  0.0737
 3021ntf    on518312   0.467   1.763   6.982 -0.1769  0.2032  0.1243
 3021ntf    fn418313   0.481   1.546   7.200 -0.0557  0.2551 -0.4409
 3021ntf    fn418314   0.290   1.624   7.167 -0.1937 -0.0140 -0.1698
 3021ntf    fn418315   0.332   1.430   7.093 -0.5783 -0.2350 -0.5048
 3022ntf    cn118316   3.952   2.464   0.484  0.2325  0.4464 -0.0331
 3022ntf    sn218317   3.812   2.434   0.372  0.3439 -0.4162  0.0516
 3022ntf    nn318318   3.886   2.350   0.262 -0.0890  0.0063 -0.5709
 3022ntf    sn218319   3.916   2.196   0.261  0.2124  0.0576 -0.0517
 3022ntf    cn118320   4.089   2.206   0.207  0.0928  0.3627 -0.3816
 3022ntf    fn418321   3.977   2.355   0.554  0.1096  0.6681  0.3585
 3022ntf    fn418322   4.060   2.515   0.426  0.3217  0.0196 -0.2475
 3022ntf    fn418323   3.924   2.556   0.575  0.4547  0.3221  0.1612
 3022ntf    on518324   3.716   2.360   0.450 -0.0806  0.4890  0.4073
 3022ntf    on518325   3.770   2.565   0.327  0.1332 -0.3409  0.4624
 3022ntf    on518326   3.857   2.131   0.147 -0.5295  0.6922 -0.0382
 3022ntf    on518327   3.926   2.129   0.388  0.2497  0.3291  0.0907
 3022ntf    fn418328   4.119   2.266   0.093  0.3959  0.5421 -0.2098
 3022ntf    fn418329   4.168   2.269   0.292  0.1373  0.2472 -0.3376
 3022ntf    fn418330   4.141   2.085   0.192 -0.5082  0.1173 -0.5166
 3023ntf    cn118331   5.917   3.692   1.583 -0.2626 -0.0875  0.0826
 3023ntf    sn218332   5.982   3.827   1.685 -0.0080 -0.1790  0.0410
 3023ntf    nn318333   6.021   3.752   1.817 -0.1233 -0.1138  0.1121
 3023ntf    sn218334   6.164   3.707   1.864  0.0218  0.0457 -0.1744
 3023ntf    cn118335   6.125   3.578   1.986  0.6454 -0.2189 -0.2516
 3023ntf    fn418336   5.878   3.727   1.462 -0.0743 -0.1574  0.0030
 3023ntf    fn418337   6.009   3.599   1.563 -0.2086  0.0815 -0.4604
 3023ntf    fn418338   5.816   3.626   1.640  0.2738 -0.6059  0.4509
 3023ntf    on518339   6.091   3.881   1.608 -0.4069  0.1676 -0.2822
 3023ntf    on518340   5.871   3.915   1.714  0.0170 -0.0611 -0.2219
 3023ntf    on518341   6.226   3.809   1.945 -0.6112  0.2626  0.0413
 3023ntf    on518342   6.239   3.646   1.757 -0.4412 -0.2130 -0.3544
 3023ntf    fn418343   6.039   3.490   1.939 -0.0214  0.6063 -0.5830
 3023ntf    fn418344   6.228   3.509   2.034  0.0205 -0.3627  0.9059
 3023ntf    fn418345   6.071   3.632   2.094 -0.1401 -0.1251 -0.6861
 3024ntf    cn118346   3.736   1.027   3.350  0.4428  0.2736  0.1759
 3024ntf    sn218347   3.737   0.943   3.511  0.0293 -0.0600  0.0078
 3024ntf    nn318348   3.588   0.895   3.511 -0.1923  0.6099 -0.4206
 3024ntf    sn218349   3.544   0.746   3.486  0.2627  0.4179 -0.0777
 3024ntf    cn118350   3.364   0.763   3.469  0.2054 -0.3489 -0.2672
 3024ntf    fn418351   3.791   0.949   3.258 -0.1544  0.3701 -0.2730
 3024ntf    fn418352   3.614   1.054   3.305  0.5553 -0.5471 -0.6581
 3024ntf    fn418353   3.798   1.144   3.352  0.8470  0.0563  0.2847
 3024ntf    on518354   3.841   0.848   3.482 -0.0569 -0.1750  0.0774
 3024ntf    on518355   3.761   1.044   3.612 -0.5439  0.6735 -0.5726
 3024ntf    on518356   3.569   0.660   3.599 -0.6517  0.0105 -0.1781
 3024ntf    on518357   3.585   0.702   3.355 -0.4779  0.3512 -0.2901
 3024ntf    fn418358   3.321   0.843   3.374 -0.4828 -0.7425 -0.2916
 3024ntf    fn418359   3.296   0.650   3.459 -0.5029  0.1239 -0.8585
 3024ntf    fn418360   3.320   0.821   3.580 -0.3899 -0.2176 -0.5673
 3025ntf    cn118361   3.307   2.515   6.436 -0.2578 -0.4269 -0.0216
 3025ntf    sn218362   3.323   2.544   6.615  0.1158  0.0962 -0.1381
 3025ntf    nn318363   3.218   2.659   6.638 -0.1461 -0.1751  0.0245
 3025ntf    sn218364   3.081   2.662   6.714 -0.0862 -0.0230  0.1257
 3025ntf    cn118365   3.146   2.699   6.880  0.1248  0.1637  0.0017
 3025ntf    fn418366   3.346   2.621   6.367 -0.3393 -0.2126  0.2584
 3025ntf    fn418367   3.396   2.423   6.402  0.5829 -0.0309  1.0400
 3025ntf    fn418368   3.182   2.485   6.403 -0.2546 -0.0909 -0.3526
 3025ntf    on518369   3.289   2.417   6.675 -0.1526  0.1634 -0.1440
 3025ntf    on518370   3.460   2.586   6.627  0.3505 -0.9024  0.7259
 3025ntf    on518371   3.030   2.528   6.730 -0.1681 -0.0073 -0.0084
 3025ntf    on518372   2.988   2.770   6.689  0.3062  0.2019 -0.3613
 3025ntf    fn418373   3.193   2.589   6.936 -0.0552  0.1500  0.1310
 3025ntf    fn418374   3.241   2.790   6.872 -0.0278  0.2948 -0.3456
 3025ntf    fn418375   3.056   2.742   6.968 -0.1805  0.1440 -0.2963
 3026ntf    cn118376   5.284   6.823   0.005  0.1198  0.2826  0.2040
 3026ntf    sn218377   5.130   6.751  -0.060  0.2775  0.1045  0.0282
 3026ntf    nn318378   5.129   6.805  -0.207 -0.3901 -0.0849 -0.0406
 3026ntf    sn218379   5.195   6.739  -0.334  0.0992  0.1571  0.0833
 3026ntf    cn118380   5.048   6.647  -0.389  0.0116  0.3939 -0.0821
 3026ntf    fn418381   5.269   6.951   0.033 -0.1427  0.2399  0.2699
 3026ntf    fn418382   5.311   6.763   0.120  0.0536  0.1426  0.1474
 3026ntf    fn418383   5.388   6.815  -0.075 -0.0082  0.0579  0.0598
 3026ntf    on518384   5.146   6.608  -0.054 -0.3123  0.0657  1.0997
 3026ntf    on518385   5.029   6.807   0.027 -0.0041 -0.1649 -0.1234
 3026ntf    on518386   5.288   6.632  -0.309 -0.2835 -0.1329  0.2988
 3026ntf    on518387   5.215   6.835  -0.439 -0.4116  0.1526 -0.0235
 3026ntf    fn418388   4.998   6.689  -0.504  0.2408 -0.2610 -0.4317
 3026ntf    fn418389   5.077   6.519  -0.412  0.2871  0.3653  0.4088
 3026ntf    fn418390   4.948   6.645  -0.303 -0.2534 -0.0154 -0.3922
 3027ntf    cn118391   6.282   0.596   1.095 -0.4048 -0.3393 -0.3598
 3027ntf    sn218392   6.287   0.777   1.074  0.2157 -0.2737  0.3037
 3027ntf    nn318393   6.331   0.787   0.923 -0.2612  0.3198  0.1998
 3027ntf    sn218394   6.462   0.845   0.861 -0.1149 -0.1259  0.0853
 3027ntf    cn118395   6.569   0.699   0.876  0.2863  0.1694  0.1283
 3027ntf    fn418396   6.237   0.538   0.984 -0.6693 -0.7085 -0.0622
 3027ntf    fn418397   6.400   0.544   1.126 -0.2445  0.2083 -0.0386
 3027ntf    fn418398   6.201   0.561   1.193 -0.0274 -0.5545 -0.1255
 3027ntf    on518399   6.147   0.805   1.095  0.1675 -0.0595 -0.2829
 3027ntf    on518400   6.384   0.823   1.169  0.0661  0.1638  0.2458
 3027ntf    on518401   6.530   0.951   0.932 -0.0412  0.1536 -0.4020
 3027ntf    on518402   6.445   0.865   0.720 -0.2309  0.3016  0.1562
 3027ntf    fn418403   6.578   0.658   1.002  0.5118  0.0066  0.0599
 3027ntf    fn418404   6.537   0.592   0.805  0.2273  0.1610  0.1673
 3027ntf    fn418405   6.691   0.732   0.837  0.2040  0.1992 -0.1046
 3028ntf    cn118406   0.687   6.105   0.039 -0.1003  0.0005 -0.0631
 3028ntf    sn218407   0.530   6.017   0.065 -0.1305  0.0337 -0.1316
 3028ntf    nn318408   0.440   6.104  -0.029 -0.4632 -0.0685  0.0877
 3028ntf    sn218409   0.347   6.225   0.007  0.1245  0.3524  0.2060
 3028ntf    cn118410   0.324   6.297  -0.158 -0.2174  0.0426  0.1164
 3028ntf    fn418411   0.752   6.054  -0.063  0.5438  0.8520 -0.0845
 3028ntf    fn418412   0.670   6.235   0.019  0.2561  0.0203 -0.2298
 3028ntf    fn418413   0.761   6.101   0.148  0.0514 -0.3281 -0.1773
 3028ntf    on518414   0.548   5.888   0.003 -0.4248  0.0354 -0.2219
 3028ntf    on518415   0.502   6.018   0.207 -0.4922  0.4104 -0.2023
 3028ntf    on518416   0.409   6.332   0.082 -0.1236  0.4208  0.3164
 3028ntf    on518417   0.213   6.185   0.044  0.0920 -0.0229 -0.3059
 3028ntf    fn418418   0.265   6.215  -0.243  0.2872 -0.3878  0.1746
 3028ntf    fn418419   0.246   6.404  -0.153  0.0138  0.2412 -0.4560
 3028ntf    fn418420   0.435   6.336  -0.219 -0.2129 -0.1748 -0.0164
 3029ntf    cn118421   4.847   3.568   0.442 -0.0477  0.1608 -0.0891
 3029ntf    sn218422   4.887   3.392   0.424 -0.4146  0.0743 -0.0539
 3029ntf    nn318423   5.007   3.391   0.525 -0.2579 -0.6649 -0.2416
 3029ntf    sn218424   5.011   3.354   0.677  0.1427  0.2607 -0.0181
 3029ntf    cn118425   4.972   3.176   0.673  0.1498  0.2501  0.3389
 3029ntf    fn418426   4.733   3.596   0.381 -0.1846  0.0164  0.0997
 3029ntf    fn418427   4.834   3.618   0.564  0.4849 -0.1072  0.0805
 3029ntf    fn418428   4.940   3.635   0.375 -0.1703  0.1610 -0.2602
 3029ntf    on518429   4.770   3.325   0.475 -0.4013 -0.1234 -0.2808
 3029ntf    on518430   4.927   3.364   0.289  0.0990 -0.1047  0.1346
 3029ntf    on518431   4.908   3.416   0.756  0.3474  0.2905  0.2263
 3029ntf    on518432   5.145   3.352   0.729 -0.0391 -0.3252  0.4423
 3029ntf    fn418433   5.016   3.111   0.780  0.0907 -0.2176  0.0826
 3029ntf    fn418434   4.848   3.143   0.640  0.3313 -0.1358  0.0327
 3029ntf    fn418435   5.048   3.130   0.575 -0.0186 -0.1384  0.3903
 3030ntf    cn118436   5.633   6.770   0.321  0.0529  0.2163  0.1469
 3030ntf    sn218437   5.811   6.765   0.288  0.0513  0.3898  0.1118
 3030ntf    nn318438   5.821   6.826   0.143 -0.8318 -0.1103 -0.1671
 3030ntf    sn218439   5.832   6.979   0.112  0.2681 -0.1216  0.0953
 3030ntf    cn118440   6.010   7.008   0.133  0.2299 -0.2312  0.5691
 3030ntf    fn418441   5.556   6.713   0.230  0.0451 -0.1068  0.3532
 3030ntf    fn418442   5.594   6.703   0.428  0.3705  0.4119  0.3855
 3030ntf    fn418443   5.594   6.896   0.323 -0.0937  0.1858 -0.5091
 3030ntf    on518444   5.870   6.842   0.395  0.6599 -0.1600  0.1780
 3030ntf    on518445   5.843   6.625   0.283 -0.4020  0.2755  0.4418
 3030ntf    on518446   5.784   7.078   0.205  0.6442 -0.0156  0.1789
 3030ntf    on518447   5.808   7.010  -0.027  0.9024  0.3789  0.0931
 3030ntf    fn418448   6.057   6.950   0.242  0.0574 -1.1680  0.1576
 3030ntf    fn418449   6.078   6.961   0.030  0.1624  0.0670  0.3861
 3030ntf    fn418450   6.041   7.137   0.134  0.0590 -0.1774 -0.2102
 3031ntf    cn118451   2.070   5.309   3.459  0.0662  0.0704  0.3507
 3031ntf    sn218452   2.004   5.474   3.423 -0.1769 -0.1126 -0.0515
 3031ntf    nn318453   2.047   5.490   3.273 -0.3579  0.1195 -0.0805
 3031ntf    sn218454   1.978   5.583   3.168 -0.3367  0.2512  0.0226
 3031ntf    cn118455   2.124   5.593   3.059 -0.3666 -0.3000 -0.0717
 3031ntf    fn418456   2.182   5.290   3.391 -0.0333 -0.1947  0.2576
 3031ntf    fn418457   2.103   5.308   3.587  0.5032 -0.7477  0.2425
 3031ntf    fn418458   1.995   5.203   3.430 -0.7594  0.6950  0.1846
 3031ntf    on518459   1.862   5.458   3.448 -0.0161 -0.7916  0.4430
 3031ntf    on518460   2.080   5.555   3.515  0.9520 -1.4945  0.2687
 3031ntf    on518461   1.959   5.721   3.206  0.3347  0.2646  0.3167
 3031ntf    on518462   1.877   5.510   3.096 -0.0061 -0.0162 -0.1731
 3031ntf    fn418463   2.225   5.663   3.107 -0.4607 -0.5818  0.5415
 3031ntf    fn418464   2.183   5.477   3.037 -0.0996 -0.1474 -0.1678
 3031ntf    fn418465   2.090   5.648   2.943 -0.1473  0.4132  0.1943
 3032ntf    cn118466   2.011   1.272   0.792  0.1612 -0.1097  0.3438
 3032ntf    sn218467   1.971   1.263   0.615 -0.2179 -0.3487  0.4429
 3032ntf    nn318468   1.838   1.183   0.640 -0.4081 -0.1614  0.0327
 3032ntf    sn218469   1.791   1.037   0.606  0.0059 -0.3006  0.0577
 3032ntf    cn118470   1.658   1.086   0.493  0.1803 -0.0623 -0.0467
 3032ntf    fn418471   1.915   1.310   0.874  0.0411 -0.0569  0.1799
 3032ntf    fn418472   2.066   1.159   0.831  0.1352 -0.4372 -0.5369
 3032ntf    fn418473   2.108   1.361   0.810  0.0438  0.1457 -0.2432
 3032ntf    on518474   1.943   1.400   0.581 -0.1653 -0.4475 -0.0099
 3032ntf    on518475   2.086   1.197   0.557 -0.4584 -0.2050 -0.2100
 3032ntf    on518476   1.718   0.971   0.712  0.3554  0.2081  0.6229
 3032ntf    on518477   1.882   0.953   0.532 -0.5525 -0.2809 -0.6546
 3032ntf    fn418478   1.574   0.986   0.472  0.1680  0.0167 -0.3759
 3032ntf    fn418479   1.591   1.192   0.536 -0.1214 -0.1774 -0.2242
 3032ntf    fn418480   1.709   1.113   0.374  0.0208  0.0689 -0.0866
 3033ntf    cn118481   2.068   0.211   3.700  0.3693 -0.3430 -0.0283
 3033ntf    sn218482   2.099   0.194   3.878 -0.3200  0.1244  0.1434
 3033ntf    nn318483   2.124   0.039   3.874  0.2928  0.2168  0.2153
 3033ntf    sn218484   2.098  -0.057   3.996  0.4934 -0.0185  0.0737
 3033ntf    cn118485   1.932  -0.111   3.948  0.5185  0.1453 -0.1988
 3033ntf    fn418486   2.159   0.168   3.614  0.1567 -0.2611 -0.2956
 3033ntf    fn418487   1.956   0.150   3.665  0.2031  0.3041 -0.6577
 3033ntf    fn418488   2.043   0.336   3.663  0.4514 -0.3921 -0.2479
 3033ntf    on518489   2.226   0.261   3.895  0.0105 -0.4628  0.0310
 3033ntf    on518490   1.983   0.248   3.944 -0.1709  0.0370  0.4781
 3033ntf    on518491   2.088   0.003   4.127 -0.1058 -0.8470  0.4099
 3033ntf    on518492   2.178  -0.176   3.981  0.6349  0.1208 -0.2948
 3033ntf    fn418493   1.873  -0.192   4.035  0.4487 -0.0090 -0.3895
 3033ntf    fn418494   1.850  -0.011   3.917 -0.2229 -0.1608  0.7094
 3033ntf    fn418495   1.934  -0.173   3.831 -0.1753  0.2014 -0.2472
 3034ntf    cn118496   1.379   7.042   6.140 -0.2600  0.5261  0.2911
 3034ntf    sn218497   1.310   7.137   6.001  0.2524  0.2832 -0.1334
 3034ntf    nn318498   1.448   7.176   5.938  0.3361 -0.1555 -0.2230
 3034ntf    sn218499   1.538   7.303   5.958 -0.3481  0.2314  0.4655
 3034ntf    cn118500   1.499   7.411   5.817 -0.2777  0.0023  0.2691
 3034ntf    fn418501   1.442   7.116   6.230  0.2023  0.1547  0.2767
 3034ntf    fn418502   1.279   6.982   6.202 -0.3941  0.1435 -0.2879
 3034ntf    fn418503   1.468   6.954   6.099 -0.0805  0.7652  0.1670
 3034ntf    on518504   1.231   7.034   5.938  0.2266  0.2835 -0.1025
 3034ntf    on518505   1.236   7.244   6.065 -0.4093 -0.4142  0.2814
 3034ntf    on518506   1.678   7.271   5.939 -0.3967  0.0806  0.3632
 3034ntf    on518507   1.504   7.383   6.073  0.3971 -0.0197  0.8711
 3034ntf    fn418508   1.373   7.448   5.802 -0.2256  0.0563 -0.0413
 3034ntf    fn418509   1.567   7.525   5.823 -0.3053 -0.0269  1.4123
 3034ntf    fn418510   1.518   7.360   5.697  0.1188  0.3589  0.1742
 3035ntf    cn118511   3.787   3.717   6.052 -0.1964 -0.0606  0.3855
 3035ntf    sn218512   3.641   3.717   5.944 -0.3920  0.3721  0.6530
 3035ntf    nn318513   3.610   3.871   5.956  0.1945  0.5726 -0.3294
 3035ntf    sn218514   3.508   3.953   6.042 -0.1123 -0.2930  0.1394
 3035ntf    cn118515   3.594   4.113   6.041 -0.0012 -0.3530  0.0784
 3035ntf    fn418516   3.890   3.765   5.984 -0.6961 -0.0754 -0.3948
 3035ntf    fn418517   3.762   3.801   6.150 -0.1071 -0.0691  0.4152
 3035ntf    fn418518   3.826   3.597   6.093  0.1197 -0.1085 -0.0483
 3035ntf    on518519   3.694   3.683   5.815  0.4940  0.2446  1.0468
 3035ntf    on518520   3.551   3.626   6.010  0.3288 -0.8166  0.0333
 3035ntf    on518521   3.495   3.913   6.180  0.0449 -0.8667 -0.0093
 3035ntf    on518522   3.384   3.972   5.970 -0.2872 -0.0139  0.5118
 3035ntf    fn418523   3.626   4.155   5.920  0.3414  0.2980  0.3889
 3035ntf    fn418524   3.518   4.211   6.088  0.1883 -0.0388 -0.2683
 3035ntf    fn418525   3.713   4.108   6.097 -0.1997 -0.0028  0.5370
 3036ntf    cn118526   4.533   1.022   3.817 -0.2906 -0.2517 -0.0858
 3036ntf    sn218527   4.585   0.898   3.694  0.1519  0.0073 -0.1586
 3036ntf    nn318528   4.542   0.984   3.570  0.2501  0.4277  0.0961
 3036ntf    sn218529   4.406   0.988   3.493  0.1887  0.0837  0.1859
 3036ntf    cn118530   4.441   0.867   3.361  0.0114  0.1684  0.0603
 3036ntf    fn418531   4.583   1.143   3.798  0.2905 -0.4695  0.0376
 3036ntf    fn418532   4.405   1.038   3.787 -0.3625 -0.2663  0.2139
 3036ntf    fn418533   4.550   0.989   3.944 -0.1728  0.4025  0.0687
 3036ntf    on518534   4.728   0.885   3.714  0.2576  0.3774 -0.6445
 3036ntf    on518535   4.499   0.784   3.711  0.1290  0.0266 -0.1471
 3036ntf    on518536   4.393   1.118   3.431 -0.1752  0.0440  0.1725
 3036ntf    on518537   4.286   0.934   3.552  0.2297 -0.6939 -0.4178
 3036ntf    fn418538   4.554   0.904   3.302  0.0891 -0.2234 -0.0337
 3036ntf    fn418539   4.463   0.758   3.432  0.0430  0.7178  0.9134
 3036ntf    fn418540   4.345   0.842   3.274 -0.0793  0.3434  0.1092
 3037ntf    cn118541   5.574   2.576   2.813 -0.1665  0.3453  0.2530
 3037ntf    sn218542   5.425   2.617   2.716  0.1058  0.0938 -0.2775
 3037ntf    nn318543   5.351   2.715   2.814  0.1298 -0.0657 -0.0988
 3037ntf    sn218544   5.260   2.675   2.936 -0.0437  0.0171 -0.2006
 3037ntf    cn118545   5.096   2.703   2.863 -0.0359  0.3028 -0.1113
 3037ntf    fn418546   5.653   2.681   2.812  0.5870 -0.2157 -0.3551
 3037ntf    fn418547   5.542   2.549   2.938 -0.4398 -0.2765  0.0579
 3037ntf    fn418548   5.641   2.476   2.757 -0.5627  0.3302 -0.2063
 3037ntf    on518549   5.471   2.689   2.601  0.0557 -0.0475 -0.3866
 3037ntf    on518550   5.360   2.492   2.684  0.6021 -0.3495  0.4094
 3037ntf    on518551   5.268   2.769   3.046  0.7976 -0.2902  0.0126
 3037ntf    on518552   5.275   2.539   2.979  0.5643  0.1384 -0.0210
 3037ntf    fn418553   5.088   2.819   2.800  0.0926  0.4531  0.1458
 3037ntf    fn418554   5.071   2.614   2.769 -0.2356 -0.3819  0.5730
 3037ntf    fn418555   4.996   2.690   2.949  0.3638 -0.1915  0.2799
 3038ntf    cn118556   2.476   0.718   6.955 -0.0276  0.0317 -0.4846
 3038ntf    sn218557   2.332   0.663   7.053  0.0802  0.1909 -0.2365
 3038ntf    nn318558   2.370   0.511   7.042 -0.3232  0.0702  0.0424
 3038ntf    sn218559   2.283   0.381   7.053  0.0639 -0.1619  0.3887
 3038ntf    cn118560   2.274   0.326   6.880 -0.1150  0.1834  0.2866
 3038ntf    fn418561   2.601   0.682   6.979 -0.1025  0.1785  0.1485
 3038ntf    fn418562   2.454   0.685   6.828 -0.2898  0.1886 -0.4824
 3038ntf    fn418563   2.476   0.850   6.956 -0.0716  0.0301  0.3569
 3038ntf    on518564   2.356   0.726   7.180 -0.0718 -0.3775  0.0750
 3038ntf    on518565   2.215   0.698   6.975  0.0350 -0.1683 -0.3282
 3038ntf    on518566   2.145   0.403   7.091 -0.0830 -0.3215 -0.0433
 3038ntf    on518567   2.352   0.273   7.119  0.1641 -0.6716 -0.5285
 3038ntf    fn418568   2.396   0.303   6.835 -0.5708 -0.7257 -0.5176
 3038ntf    fn418569   2.193   0.223   6.862 -0.0046  0.1450  0.0002
 3038ntf    fn418570   2.232   0.422   6.799 -0.1157  0.1652  0.2656
 3039ntf    cn118571   2.322   4.814   0.593 -0.3859  0.5990  0.1435
 3039ntf    sn218572   2.197   4.734   0.487  0.0957 -0.1270  0.1123
 3039ntf    nn318573   2.098   4.693   0.601 -0.3410  0.5765 -0.0060
 3039ntf    sn218574   2.012   4.562   0.601 -0.0020  0.3527 -0.3761
 3039ntf    cn118575   2.126   4.439   0.672 -0.1160  0.5310  0.1192
 3039ntf    fn418576   2.414   4.879   0.524 -0.0490 -0.0392 -0.0184
 3039ntf    fn418577   2.280   4.901   0.683  0.8599  0.0774  1.2586
 3039ntf    fn418578   2.393   4.728   0.664 -0.4246 -0.0918 -0.6360
 3039ntf    on518579   2.157   4.843   0.401  0.1553  0.3463  0.6750
 3039ntf    on518580   2.272   4.624   0.431  0.4138  0.1434  0.0015
 3039ntf    on518581   1.974   4.523   0.467  0.5784 -0.8415 -0.2122
 3039ntf    on518582   1.904   4.579   0.695 -0.2221 -0.5015 -0.4641
 3039ntf    fn418583   2.186   4.483   0.781 -0.4061  0.5392  0.2768
 3039ntf    fn418584   2.066   4.328   0.712  0.2461  0.1907 -0.2743
 3039ntf    fn418585   2.213   4.396   0.582 -0.0364  0.6113  0.1574
 3040ntf    cn118586   0.284   0.594   1.268  0.1740  0.0844 -0.0102
 3040ntf    sn218587   0.265   0.556   1.092 -0.4075  0.2374  0.0182
 3040ntf    nn318588   0.210   0.689   1.030 -0.1888  0.1437 -0.3841
 3040ntf    sn218589   0.275   0.785   0.924 -0.0970  0.2882 -0.1990
 3040ntf    cn118590   0.287   0.933   1.028  0.2196  0.2050 -0.1168
 3040ntf    fn418591   0.306   0.721   1.298  0.1515  0.0457  0.1728
 3040ntf    fn418592   0.171   0.568   1.331  0.1242  0.1504 -0.0734
 3040ntf    fn418593   0.384   0.529   1.325  0.3832  0.4018 -0.0123
 3040ntf    on518594   0.391   0.505   1.044 -0.6341  0.1791 -0.5346
 3040ntf    on518595   0.159   0.458   1.097 -0.0071 -0.2287 -0.4777
 3040ntf    on518596   0.187   0.819   0.814  0.2908  0.6909 -0.3884
 3040ntf    on518597   0.415   0.773   0.892 -0.0406 -0.6803  0.3822
 3040ntf    fn418598   0.355   0.907   1.138  0.0282  0.3729  0.0420
 3040ntf    fn418599   0.349   1.033   0.968 -0.1991  0.4897 -0.0776
 3040ntf    fn418600   0.168   0.970   1.073  0.3495  0.2769  0.1696
 3041ntf    cn118601   4.922   1.304   4.988 -0.4722 -0.4232 -0.7020
 3041ntf    sn218602   5.062   1.294   4.873  0.3894 -0.0128  0.2916
 3041ntf    nn318603   5.011   1.383   4.754 -0.0820  0.1704  0.6295
 3041ntf    sn218604   5.072   1.511   4.688  0.1494 -0.2010  0.1066
 3041ntf    cn118605   4.931   1.625   4.675 -0.0020 -0.3912  0.0836
 3041ntf    fn418606   4.886   1.421   5.039  0.1495 -0.4617 -0.1585
 3041ntf    fn418607   4.813   1.273   4.920 -0.7871 -0.2229 -0.2939
 3041ntf    fn418608   4.936   1.217   5.086  0.1829 -0.1150 -0.5154
 3041ntf    on518609   5.170   1.337   4.958  0.3360 -0.1464  0.4264
 3041ntf    on518610   5.060   1.152   4.848  0.9340 -0.0171  0.2571
 3041ntf    on518611   5.110   1.492   4.551  0.1848 -0.2083  0.1170
 3041ntf    on518612   5.168   1.586   4.766 -0.0984  0.4640 -0.2206
 3041ntf    fn418613   4.965   1.726   4.596  0.0095 -0.2012  0.3288
 3041ntf    fn418614   4.822   1.566   4.630 -0.4388  0.2978  0.2216
 3041ntf    fn418615   4.897   1.679   4.791 -0.3787  0.1875 -0.2919
 3042ntf    cn118616   1.552   2.568   4.355  0.0789  0.1627 -0.0734
 3042ntf    sn218617   1.515   2.734   4.290 -0.0619  0.2537  0.2367
 3042ntf    nn318618   1.661   2.784   4.265 -0.0760  0.1719 -0.0172
 3042ntf    sn218619   1.745   2.880   4.357  0.0516  0.0320  0.0106
 3042ntf    cn118620   1.646   3.032   4.353 -0.1378 -0.0833  0.2583
 3042ntf    fn418621   1.646   2.508   4.284 -0.0955 -0.5401  0.2796
 3042ntf    fn418622   1.595   2.575   4.480 -0.1836 -0.3021  0.0477
 3042ntf    fn418623   1.446   2.489   4.364  0.2144  0.0338  0.3909
 3042ntf    on518624   1.448   2.703   4.165  0.1199 -0.4521  0.3068
 3042ntf    on518625   1.439   2.786   4.400  0.2119  0.5720  0.2736
 3042ntf    on518626   1.873   2.914   4.301  0.0283 -0.4343 -0.3284
 3042ntf    on518627   1.745   2.851   4.499  0.6003 -0.5348 -0.0995
 3042ntf    fn418628   1.597   3.069   4.236  0.0557 -0.0339  0.1928
 3042ntf    fn418629   1.533   3.024   4.422  0.0824 -0.1354  0.6150
 3042ntf    fn418630   1.718   3.136   4.390 -0.5995  0.2852  0.1338
 3043ntf    cn118631   3.085   1.748   6.298 -0.1981 -0.4743  0.3020
 3043ntf    sn218632   3.245   1.812   6.243 -0.2327 -0.1826  0.5368
 3043ntf    nn318633   3.243   1.954   6.311  0.1143 -0.0131  0.2051
 3043ntf    sn218634   3.181   2.086   6.253 -0.2110 -0.2131  0.0948
 3043ntf    cn118635   3.313   2.164   6.156  0.0439 -0.1973  0.4525
 3043ntf    fn418636   3.067   1.758   6.429 -0.0674 -0.7793  0.3434
 3043ntf    fn418637   2.980   1.802   6.238  0.1293  0.0042  0.1586
 3043ntf    fn418638   3.076   1.619   6.271  0.0728 -0.5243  0.4448
 3043ntf    on518639   3.337   1.736   6.324  0.3993  0.0598  0.0621
 3043ntf    on518640   3.258   1.798   6.100 -0.7044 -0.3289  0.5091
 3043ntf    on518641   3.164   2.186   6.355  0.4264  0.0075 -0.0121
 3043ntf    on518642   3.072   2.074   6.159 -0.4409  0.0985  0.3172
 3043ntf    fn418643   3.338   2.114   6.036 -0.5864  0.5117  0.0198
 3043ntf    fn418644   3.281   2.289   6.129  0.3428 -0.3361 -0.5986
 3043ntf    fn418645   3.431   2.166   6.216  0.1447 -0.4137  0.2618
 3044ntf    cn118646   2.301   1.414   3.216 -0.3162  0.0741  0.2589
 3044ntf    sn218647   2.269   1.333   3.375  0.2979  0.0283  0.3607
 3044ntf    nn318648   2.421   1.304   3.403  0.3867  0.0318 -0.1112
 3044ntf    sn218649   2.501   1.173   3.371 -0.1862 -0.3372 -0.0592
 3044ntf    cn118650   2.642   1.248   3.284  0.0971 -0.8188 -0.0161
 3044ntf    fn418651   2.183   1.422   3.155 -0.1272  0.1966 -0.0959
 3044ntf    fn418652   2.358   1.533   3.224  0.0981 -0.0709 -0.4215
 3044ntf    fn418653   2.376   1.332   3.144  0.4187  0.9097  0.0603
 3044ntf    on518654   2.213   1.435   3.460  0.3161  0.1175  0.2660
 3044ntf    on518655   2.187   1.219   3.346  0.5915 -0.1780  0.3375
 3044ntf    on518656   2.442   1.084   3.274 -0.5647 -0.4777  0.2967
 3044ntf    on518657   2.556   1.110   3.488 -0.3967  1.0551  0.8176
 3044ntf    fn418658   2.603   1.330   3.188  0.7715 -0.0757  0.3310
 3044ntf    fn418659   2.720   1.320   3.363 -0.0147 -0.4508 -0.2396
 3044ntf    fn418660   2.720   1.161   3.220 -0.0070 -0.7530 -0.2347
 3045ntf    cn118661   6.215   6.595   6.841 -0.0932 -0.6225  0.1846
 3045ntf    sn218662   6.147   6.536   6.683  0.0323  0.0389 -0.1227
 3045ntf    nn318663   6.087   6.667   6.621 -0.2915  0.0608  0.2339
 3045ntf    sn218664   6.142   6.774   6.520 -0.2463  0.1831  0.3882
 3045ntf    cn118665   6.079   6.711   6.362 -0.5900  0.3474  0.4582
 3045ntf    fn418666   6.134   6.670   6.913 -0.4435 -0.0488 -0.7857
 3045ntf    fn418667   6.244   6.499   6.927  0.4207 -0.6423 -0.0085
 3045ntf    fn418668   6.317   6.677   6.819 -0.8519  0.1992 -0.3123
 3045ntf    on518669   6.260   6.484   6.611 -0.0274 -0.3428  0.0558
 3045ntf    on518670   6.040   6.447   6.721 -0.1315  0.2600 -0.0613
 3045ntf    on518671   6.286   6.771   6.511 -0.2815  0.2100 -0.1968
 3045ntf    on518672   6.079   6.903   6.535 -0.8302 -0.0482 -0.0477
 3045ntf    fn418673   5.952   6.742   6.342 -0.5912 -0.0145 -0.1162
 3045ntf    fn418674   6.141   6.762   6.257  0.1838 -0.4433  0.5187
 3045ntf    fn418675   6.097   6.582   6.343  0.5454  0.5566  0.0215
 3046ntf    cn118676   1.791   0.156   6.694  0.1002  0.1349  0.5503
 3046ntf    sn218677   1.655   0.270   6.652 -0.0728 -0.2639  0.0097
 3046ntf    nn318678   1.532   0.174   6.674 -0.1840 -0.0298  0.4383
 3046ntf    sn218679   1.465   0.140   6.811 -0.2653  0.2003  0.4564
 3046ntf    cn118680   1.321   0.250   6.811 -0.3643  0.0714 -0.1912
 3046ntf    fn418681   1.795   0.048   6.618  0.5196  0.0544  0.6834
 3046ntf    fn418682   1.912   0.204   6.670  0.0545  0.0796  0.1991
 3046ntf    fn418683   1.789   0.114   6.819  0.1314 -0.1454  0.4564
 3046ntf    on518684   1.657   0.385   6.739  0.9691 -0.0341 -0.3032
 3046ntf    on518685   1.689   0.298   6.515 -0.6060  0.0945 -0.0491
 3046ntf    on518686   1.545   0.181   6.924  0.1809 -0.4900  0.3986
 3046ntf    on518687   1.410   0.006   6.815 -0.1247  0.1218 -0.1243
 3046ntf    fn418688   1.227   0.234   6.903  0.0920 -0.1484  0.2361
 3046ntf    fn418689   1.354   0.377   6.829  0.1786  0.0295 -0.8383
 3046ntf    fn418690   1.258   0.258   6.694 -0.7072  0.6544  0.0288
 3047ntf    cn118691   3.529   5.081   6.201 -0.4136  0.5617 -0.0439
 3047ntf    sn218692   3.635   5.004   6.075 -0.1180 -0.2214  0.6755
 3047ntf    nn318693   3.541   4.972   5.954 -0.2769  0.6247  0.5677
 3047ntf    sn218694   3.548   5.014   5.803  0.0767 -0.2780  0.3234
 3047ntf    cn118695   3.462   4.867   5.740 -0.3231  0.1690 -0.1917
 3047ntf    fn418696   3.433   5.158   6.151 -0.5764  0.4793  0.1411
 3047ntf    fn418697   3.461   4.987   6.265 -0.1486  0.1934 -0.2998
 3047ntf    fn418698   3.587   5.148   6.298 -0.3485  0.2913  0.1031
 3047ntf    on518699   3.736   5.104   6.052 -0.2545 -0.1445  0.4019
 3047ntf    on518700   3.676   4.883   6.142 -0.4001 -0.8708 -0.3037
 3047ntf    on518701   3.682   5.007   5.749 -0.1079 -0.4794 -0.1130
 3047ntf    on518702   3.466   5.128   5.769  0.4281 -0.0295  0.2911
 3047ntf    fn418703   3.547   4.766   5.737 -0.0098  0.4180  0.1339
 3047ntf    fn418704   3.354   4.848   5.814 -0.0179 -0.0198  0.2161
 3047ntf    fn418705   3.431   4.871   5.612 -0.5237 -0.5381 -0.1668
 3048ntf    cn118706   1.606   6.332   5.927 -0.2466 -0.0235 -0.3404
 3048ntf    sn218707   1.550   6.494   5.866  0.3109  0.2236 -0.2011
 3048ntf    nn318708   1.475   6.532   5.999 -0.2654  0.4753 -0.5951
 3048ntf    sn218709   1.328   6.500   6.045  0.0445 -0.0693  0.0232
 3048ntf    cn118710   1.257   6.666   6.058  0.0265 -0.0315 -0.5372
 3048ntf    fn418711   1.649   6.348   6.051  0.1671 -0.0413 -0.4811
 3048ntf    fn418712   1.507   6.245   5.941 -0.2565  0.1215  0.5755
 3048ntf    fn418713   1.704   6.273   5.862 -0.2813 -0.3727 -0.0798
 3048ntf    on518714   1.671   6.569   5.843  0.4416 -0.0889 -0.5367
 3048ntf    on518715   1.468   6.451   5.756 -0.1310 -0.9499  0.5648
 3048ntf    on518716   1.324   6.460   6.183 -0.0987  0.1028  0.0687
 3048ntf    on518717   1.240   6.436   5.950  0.4959  0.2356 -0.6133
 3048ntf    fn418718   1.125   6.660   6.060  0.0172  0.2895 -0.1149
 3048ntf    fn418719   1.300   6.735   6.162 -0.5880 -0.4838  0.0191
 3048ntf    fn418720   1.285   6.730   5.945  0.5269  0.2435 -0.2607
 3049ntf    cn118721   5.684   2.735   0.647  0.1166 -0.1622 -0.3385
 3049ntf    sn218722   5.703   2.916   0.652  0.1652 -0.1682 -0.3126
 3049ntf    nn318723   5.837   2.934   0.732 -0.2493  0.2606  0.2999
 3049ntf    sn218724   5.980   2.914   0.670 -0.4817 -0.0928 -0.1287
 3049ntf    cn118725   5.986   3.088   0.617  0.3771 -0.0067  0.2509
 3049ntf    fn418726   5.667   2.676   0.764 -0.1690 -0.0324 -0.3129
 3049ntf    fn418727   5.586   2.702   0.564  0.4633 -0.1356 -0.7618
 3049ntf    fn418728   5.794   2.682   0.596 -0.1737 -0.3693 -0.7542
 3049ntf    on518729   5.710   2.948   0.512  0.0708 -0.4674 -0.3881
 3049ntf    on518730   5.592   2.969   0.728 -0.1488  0.1761 -1.0094
 3049ntf    on518731   6.005   2.834   0.553 -0.7271 -0.2452 -0.0782
 3049ntf    on518732   6.078   2.923   0.775 -0.1086 -0.2205 -0.4635
 3049ntf    fn418733   6.096   3.121   0.551  0.4992  0.0971  0.5042
 3049ntf    fn418734   5.887   3.129   0.541  0.0700  0.3413  0.8299
 3049ntf    fn418735   5.984   3.169   0.722 -0.4790 -0.1739  0.3684
 3050ntf    cn118736   1.368   2.071   5.462  0.2972  0.5857 -0.4086
 3050ntf    sn218737   1.516   2.015   5.551 -0.0341 -0.0118 -0.2327
 3050ntf    nn318738   1.504   2.115   5.671 -0.0589 -0.5970  0.2586
 3050ntf    sn218739   1.435   2.096   5.810 -0.2897 -0.1922  0.2022
 3050ntf    cn118740   1.568   2.005   5.894  0.0832  0.2102  0.0500
 3050ntf    fn418741   1.266   1.991   5.489  0.5021  0.3356 -0.3694
 3050ntf    fn418742   1.335   2.197   5.488 -0.0567  0.4531 -0.2228
 3050ntf    fn418743   1.388   2.072   5.331  0.5575  0.1561 -0.3737
 3050ntf    on518744   1.494   1.875   5.578 -0.0848  0.0629  0.1156
 3050ntf    on518745   1.620   2.052   5.458  0.3611  0.3131  0.3323
 3050ntf    on518746   1.324   2.003   5.813 -0.1425 -0.4038 -0.6322
 3050ntf    on518747   1.423   2.216   5.890  0.2348 -0.4583  0.6925
 3050ntf    fn418748   1.520   1.892   5.944  0.6457 -0.1514 -0.2178
 3050ntf    fn418749   1.662   1.969   5.808 -0.3784 -0.0991 -0.3285
 3050ntf    fn418750   1.618   2.077   5.993  0.2718  0.0548  0.0698
 3051ntf    cn118751   0.861   5.007   0.645  0.0206 -0.0655 -0.2115
 3051ntf    sn218752   1.030   4.998   0.712 -0.0364 -0.3888 -0.1097
 3051ntf    nn318753   1.003   4.973   0.864 -0.0894  0.2339 -0.0124
 3051ntf    sn218754   1.016   5.076   0.982 -0.3489  0.0904  0.1424
 3051ntf    cn118755   1.189   5.061   1.036 -0.2439  0.3807 -0.1091
 3051ntf    fn418756   0.800   5.116   0.689  0.6358  0.1040  0.2367
 3051ntf    fn418757   0.853   5.007   0.513  0.8668  0.0428 -0.2662
 3051ntf    fn418758   0.789   4.901   0.678  0.2858 -0.1800 -0.0050
 3051ntf    on518759   1.080   4.880   0.646 -0.2276 -0.1897 -0.6187
 3051ntf    on518760   1.094   5.123   0.679 -0.4336  0.0232  0.6702
 3051ntf    on518761   0.938   5.035   1.096 -0.1101  0.0446  0.2895
 3051ntf    on518762   1.003   5.215   0.947 -0.5891 -0.0736 -0.4228
 3051ntf    fn418763   1.281   5.068   0.941 -0.5543  0.9489 -0.3695
 3051ntf    fn418764   1.212   5.157   1.124  0.3435 -0.0808  0.2486
 3051ntf    fn418765   1.206   4.943   1.095  0.2665  0.3189 -0.3751
 3052ntf    cn118766   1.312   5.951   3.431  0.2032  0.2799 -0.0381
 3052ntf    sn218767   1.464   6.033   3.487  0.1651  0.2688  0.0814
 3052ntf    nn318768   1.519   5.936   3.597 -0.3976 -0.2162 -0.0614
 3052ntf    sn218769   1.509   5.947   3.753 -0.3619 -0.2628 -0.0561
 3052ntf    cn118770   1.470   5.777   3.806  0.0274 -0.3159  0.0625
 3052ntf    fn418771   1.340   5.844   3.358 -0.5318 -0.4840  0.7764
 3052ntf    fn418772   1.232   5.908   3.527  0.0883  0.5035 -0.0338
 3052ntf    fn418773   1.234   6.014   3.344  0.1393 -0.0770 -0.2405
 3052ntf    on518774   1.545   6.017   3.369  1.1110 -0.6842  0.8431
 3052ntf    on518775   1.423   6.167   3.521  0.4158  0.1936  0.6799
 3052ntf    on518776   1.395   6.013   3.812 -0.0984 -0.0947  0.2721
 3052ntf    on518777   1.639   5.972   3.810 -0.8693  0.6329  0.7344
 3052ntf    fn418778   1.440   5.764   3.934 -0.2296 -0.4913 -0.0152
 3052ntf    fn418779   1.372   5.731   3.731 -0.3859  0.6065  0.0228
 3052ntf    fn418780   1.575   5.699   3.788  0.5458  0.3233  0.2756
 3053ntf    cn118781   6.781   5.342   3.095  0.0312  0.4078 -0.4515
 3053ntf    sn218782   6.885   5.208   3.030 -0.2752 -0.0967  0.0892
 3053ntf    nn318783   7.026   5.276   3.040 -0.4956  0.3510  0.1451
 3053ntf    sn218784   7.108   5.303   3.171 -0.0023 -0.1891 -0.0473
 3053ntf    cn118785   7.214   5.159   3.204  0.1316 -0.0429  0.1650
 3053ntf    fn418786   6.816   5.463   3.054  0.0636  0.4115 -0.4129
 3053ntf    fn418787   6.654   5.337   3.056 -0.1418 -0.1292  0.1599
 3053ntf    fn418788   6.785   5.336   3.227  0.3200 -0.3405 -0.4889
 3053ntf    on518789   6.857   5.093   3.112 -0.6079  0.1434  0.3118
 3053ntf    on518790   6.830   5.201   2.897 -0.3073  0.3621  0.0785
 3053ntf    on518791   7.027   5.306   3.291  0.0298  0.1540 -0.0339
 3053ntf    on518792   7.195   5.417   3.161 -0.2084 -0.0228  0.0354
 3053ntf    fn418793   7.289   5.130   3.099  0.0575  0.5754 -0.0663
 3053ntf    fn418794   7.294   5.184   3.306  0.4443  0.3223 -0.1657
 3053ntf    fn418795   7.146   5.050   3.236  0.4989 -0.3235 -0.0085
 3054ntf    cn118796   5.388   6.202   3.959 -0.7274  0.1560 -0.2540
 3054ntf    sn218797   5.523   6.321   3.936 -0.3120 -0.2440  0.0978
 3054ntf    nn318798   5.529   6.337   3.780 -0.5710 -0.1687  0.0957
 3054ntf    sn218799   5.442   6.435   3.694  0.0464  0.2500 -0.0586
 3054ntf    cn118800   5.316   6.318   3.633  0.4415 -0.1272 -0.1505
 3054ntf    fn418801   5.266   6.253   3.952 -0.9156 -0.3673 -0.8895
 3054ntf    fn418802   5.378   6.118   3.857  0.2395 -0.7297  0.3581
 3054ntf    fn418803   5.396   6.124   4.065  0.2413 -0.2526 -0.6149
 3054ntf    on518804   5.479   6.436   4.012  0.0560  0.0708 -0.1571
 3054ntf    on518805   5.640   6.254   3.986  0.2697  0.4102 -0.3613
 3054ntf    on518806   5.511   6.470   3.573  0.0498  0.4691  0.0052
 3054ntf    on518807   5.372   6.539   3.765  0.0965  0.1888  0.0799
 3054ntf    fn418808   5.227   6.294   3.727  0.1240 -0.1316 -0.4527
 3054ntf    fn418809   5.253   6.373   3.531  0.7917 -0.1591 -0.3880
 3054ntf    fn418810   5.363   6.203   3.587  0.5133  0.0598 -0.5486
 3055ntf    cn118811   4.376   0.103   6.332 -0.0862  0.0087  0.1168
 3055ntf    sn218812   4.456   0.114   6.169  0.1579  0.3722  0.2590
 3055ntf    nn318813   4.572   0.011   6.198 -0.3728 -0.1296  0.6375
 3055ntf    sn218814   4.569  -0.140   6.157  0.0020 -0.0135  0.1770
 3055ntf    cn118815   4.734  -0.184   6.219 -0.1626 -0.5932  0.2050
 3055ntf    fn418816   4.341  -0.019   6.369 -0.3718  0.0273 -0.0929
 3055ntf    fn418817   4.454   0.140   6.432  0.2712 -0.8936  0.1791
 3055ntf    fn418818   4.269   0.178   6.351 -0.1708 -0.0884  0.0242
 3055ntf    on518819   4.348   0.074   6.082  0.6728 -0.2826 -0.0897
 3055ntf    on518820   4.504   0.250   6.167  0.3725  0.2917 -0.2342
 3055ntf    on518821   4.578  -0.160   6.014  0.0339  0.2778  0.1367
 3055ntf    on518822   4.485  -0.233   6.228 -0.1790 -0.0113 -0.0331
 3055ntf    fn418823   4.767  -0.305   6.178 -0.6945 -0.6940  0.0610
 3055ntf    fn418824   4.833  -0.102   6.187 -0.1657 -0.5581  0.2852
 3055ntf    fn418825   4.742  -0.194   6.351  0.5626 -0.0956  0.1998
 3056ntf    cn118826   4.431   5.742   1.558 -0.1732  0.0281 -0.1992
 3056ntf    sn218827   4.609   5.727   1.592 -0.2063 -0.0148 -0.0403
 3056ntf    nn318828   4.616   5.673   1.739  0.3955 -0.1692 -0.1243
 3056ntf    sn218829   4.619   5.524   1.788  0.0057 -0.2086 -0.2149
 3056ntf    cn118830   4.582   5.541   1.965 -0.4319 -0.0617 -0.3208
 3056ntf    fn418831   4.405   5.805   1.445  0.7206  0.0619 -0.3905
 3056ntf    fn418832   4.371   5.624   1.558  0.6638 -0.4033 -0.1395
 3056ntf    fn418833   4.360   5.812   1.645 -0.2275 -0.1529 -0.0963
 3056ntf    on518834   4.660   5.636   1.492 -0.2348  0.4589 -0.4932
 3056ntf    on518835   4.657   5.863   1.580  0.0252 -0.1155 -0.2747
 3056ntf    on518836   4.746   5.456   1.783  0.0074 -0.2157 -0.1071
 3056ntf    on518837   4.511   5.442   1.739  0.0385 -0.2148 -0.2772
 3056ntf    fn418838   4.685   5.586   2.035 -0.7599  0.4901 -0.1884
 3056ntf    fn418839   4.483   5.626   1.989 -0.3123 -0.0576  0.1715
 3056ntf    fn418840   4.560   5.428   2.031 -0.1866  0.0416 -0.0576
 3057ntf    cn118841   1.837   5.861   5.641  0.2430  0.0900 -0.2332
 3057ntf    sn218842   1.917   5.976   5.525  0.0930  0.2116 -0.2180
 3057ntf    nn318843   2.067   5.954   5.569  0.0897  0.1055 -0.2583
 3057ntf    sn218844   2.184   5.866   5.512 -0.0747 -0.2885  0.0151
 3057ntf    cn118845   2.256   5.997   5.409 -0.2930  0.2612  0.5583
 3057ntf    fn418846   1.707   5.837   5.630  0.1777  0.1709  0.3507
 3057ntf    fn418847   1.896   5.743   5.638 -0.2564 -0.1553 -0.5960
 3057ntf    fn418848   1.847   5.899   5.767 -0.1034 -0.0703 -0.1567
 3057ntf    on518849   1.877   5.931   5.394 -0.2378  0.6563 -0.2703
 3057ntf    on518850   1.875   6.107   5.567 -0.2170  0.1462 -0.3246
 3057ntf    on518851   2.148   5.757   5.424  0.4450 -0.9636  0.6249
 3057ntf    on518852   2.281   5.848   5.617 -0.0588 -0.1908  0.0170
 3057ntf    fn418853   2.326   5.955   5.306 -0.4044  0.8068  0.2581
 3057ntf    fn418854   2.161   6.072   5.355 -0.2830 -0.3607 -0.3392
 3057ntf    fn418855   2.332   6.087   5.471 -0.3205  0.4934  0.2564
 3058ntf    cn118856   4.611   3.928   0.621  0.1748 -0.0672 -0.2220
 3058ntf    sn218857   4.582   4.076   0.519 -0.0566 -0.1509 -0.2788
 3058ntf    nn318858   4.435   4.119   0.551  0.2024  0.8198 -0.3526
 3058ntf    sn218859   4.380   4.129   0.697  0.0212  0.1867 -0.3743
 3058ntf    cn118860   4.276   4.278   0.689  0.0457  0.2042 -0.3672
 3058ntf    fn418861   4.591   3.939   0.751  0.0831  0.0747 -0.2487
 3058ntf    fn418862   4.526   3.833   0.585  0.3430 -0.2934 -0.0263
 3058ntf    fn418863   4.727   3.868   0.597 -0.0203 -0.5617  0.0673
 3058ntf    on518864   4.676   4.174   0.569 -0.0089  0.0098 -0.6836
 3058ntf    on518865   4.583   4.036   0.381 -0.1614  0.0204 -0.3287
 3058ntf    on518866   4.475   4.167   0.799  0.0513  0.0012 -0.3331
 3058ntf    on518867   4.291   4.020   0.729  0.1641 -0.0483 -0.7774
 3058ntf    fn418868   4.195   4.287   0.793  0.6450  0.1180  0.1130
 3058ntf    fn418869   4.350   4.388   0.689 -0.4945  0.5738  0.2394
 3058ntf    fn418870   4.196   4.283   0.584 -0.0877  0.1609 -0.2681
 3059ntf    cn118871   5.718   3.851   2.511  0.0901 -0.0899  0.1864
 3059ntf    sn218872   5.615   3.701   2.515  0.1668 -0.1520 -0.1228
 3059ntf    nn318873   5.716   3.596   2.456 -0.1553 -0.1180 -0.7348
 3059ntf    sn218874   5.784   3.471   2.520 -0.1949  0.3158  0.1682
 3059ntf    cn118875   5.961   3.496   2.486 -0.1631 -0.2065 -0.0600
 3059ntf    fn418876   5.689   3.931   2.612 -0.0222 -0.0882  0.1528
 3059ntf    fn418877   5.847   3.821   2.516  0.1580  0.0971 -0.3280
 3059ntf    fn418878   5.704   3.918   2.398 -0.0895  0.0899  0.3147
 3059ntf    on518879   5.585   3.682   2.655  0.1922  0.2587 -0.0617
 3059ntf    on518880   5.503   3.718   2.425  0.0482 -0.1470  0.0246
 3059ntf    on518881   5.745   3.354   2.446  0.4623 -0.0181  0.3374
 3059ntf    on518882   5.773   3.460   2.663  0.4806  0.2733  0.2238
 3059ntf    fn418883   6.048   3.408   2.534  0.5396  0.1710 -0.6123
 3059ntf    fn418884   5.979   3.502   2.355  0.1713  0.0949 -0.0037
 3059ntf    fn418885   5.991   3.614   2.537 -0.0708 -0.1746 -0.1870
 3060ntf    cn118886   1.456   1.285   5.663 -0.1957  0.3399 -0.5249
 3060ntf    sn218887   1.357   1.260   5.814  0.1953  0.1748 -0.2926
 3060ntf    nn318888   1.414   1.386   5.887 -0.2042  0.1558  0.0580
 3060ntf    sn218889   1.465   1.402   6.035 -0.3793  0.2441  0.1079
 3060ntf    cn118890   1.638   1.352   6.019 -0.3627  0.3315  0.0115
 3060ntf    fn418891   1.586   1.271   5.685 -0.3319 -0.0975  0.0493
 3060ntf    fn418892   1.416   1.200   5.570 -0.3050 -0.0293 -0.1464
 3060ntf    fn418893   1.454   1.407   5.614 -0.4953  0.6365  0.2198
 3060ntf    on518894   1.222   1.271   5.763  0.0268  0.1030  0.1311
 3060ntf    on518895   1.394   1.132   5.870  0.4663  0.1785 -0.4622
 3060ntf    on518896   1.403   1.317   6.134 -0.1053 -0.1946 -0.0968
 3060ntf    on518897   1.477   1.543   6.066 -0.1773  0.1755  0.3410
 3060ntf    fn418898   1.716   1.361   6.126 -0.5673  0.8064  0.1215
 3060ntf    fn418899   1.655   1.226   5.981 -0.1940  0.1507  0.6582
 3060ntf    fn418900   1.695   1.416   5.918  0.3406  0.0995  0.2494
 3061ntf    cn118901   5.835   5.354   5.936  0.2059  0.5376 -0.2145
 3061ntf    sn218902   5.796   5.177   5.931 -0.1039  0.5989 -0.0122
 3061ntf    nn318903   5.920   5.114   6.004 -0.0438  0.4603 -0.2335
 3061ntf    sn218904   5.929   4.978   6.082 -0.2322  0.4834 -0.1730
 3061ntf    cn118905   6.100   4.924   6.055 -0.2367  0.1293  0.4616
 3061ntf    fn418906   5.760   5.419   5.848  0.1892  0.5145 -0.2168
 3061ntf    fn418907   5.807   5.400   6.057  0.0220 -0.1753  0.0197
 3061ntf    fn418908   5.960   5.378   5.901  0.4292  0.4828  0.5412
 3061ntf    on518909   5.680   5.176   6.016 -0.1306  0.1785 -0.0498
 3061ntf    on518910   5.785   5.142   5.792  0.0141 -0.1188  0.1505
 3061ntf    on518911   5.843   4.875   6.029  0.9367 -0.9079  0.5369
 3061ntf    on518912   5.918   5.016   6.221  0.4241  0.5272 -0.1312
 3061ntf    fn418913   6.134   4.809   6.110 -0.4302 -0.0017  0.3086
 3061ntf    fn418914   6.135   4.915   5.928  0.1069 -0.0979  0.5722
 3061ntf    fn418915   6.188   5.006   6.112  0.3147  0.0853 -0.3098
 3062ntf    cn118916   2.532   2.897   2.950  0.0203 -0.0543 -0.1477
 3062ntf    sn218917   2.644   2.950   3.083  0.3364 -0.3744 -0.2852
 3062ntf    nn318918   2.550   3.048   3.162  0.3527 -0.8984  0.3909
 3062ntf    sn218919   2.585   3.140   3.284  0.0295 -0.1120 -0.1036
 3062ntf    cn118920   2.535   3.306   3.229 -0.2647 -0.1686 -0.0089
 3062ntf    fn418921   2.449   2.802   2.987  0.4418 -0.3161  0.1405
 3062ntf    fn418922   2.460   2.998   2.903 -0.0191 -0.0239 -0.0209
 3062ntf    fn418923   2.599   2.847   2.847 -0.2872 -0.0292 -0.3599
 3062ntf    on518924   2.682   2.832   3.157  0.2228  0.0851  0.5113
 3062ntf    on518925   2.752   3.014   3.011  0.3329 -0.3354 -0.2560
 3062ntf    on518926   2.726   3.162   3.309 -0.0137  0.1702 -0.1042
 3062ntf    on518927   2.493   3.120   3.393  0.0076 -0.7070 -0.2303
 3062ntf    fn418928   2.584   3.392   3.316 -0.0629 -0.2558 -0.0333
 3062ntf    fn418929   2.591   3.340   3.113  0.3112 -0.1953  0.2575
 3062ntf    fn418930   2.405   3.329   3.220 -0.1809  0.2180 -0.2341
 3063ntf    cn118931   4.247   1.486   1.501  0.1227 -0.1685 -0.3114
 3063ntf    sn218932   4.401   1.575   1.539 -0.0204 -0.0145 -0.0897
 3063ntf    nn318933   4.452   1.478   1.651  0.2460  0.2096 -0.0143
 3063ntf    sn218934   4.477   1.503   1.803 -0.0186  0.0690  0.0543
 3063ntf    cn118935   4.651   1.555   1.787 -0.0945  0.4121  0.3310
 3063ntf    fn418936   4.258   1.356   1.483  0.1591 -0.1575 -0.3670
 3063ntf    fn418937   4.157   1.504   1.597  0.4079  0.0190 -0.0762
 3063ntf    fn418938   4.193   1.532   1.389 -0.2880  0.1504  0.0121
 3063ntf    on518939   4.467   1.558   1.412 -0.2591 -0.7775 -0.1153
 3063ntf    on518940   4.360   1.708   1.578  0.1832  0.1317 -0.3713
 3063ntf    on518941   4.478   1.388   1.890  0.4406 -0.2245 -0.3329
 3063ntf    on518942   4.419   1.621   1.861  0.1027  0.1365  0.0396
 3063ntf    fn418943   4.714   1.570   1.902  0.5867  0.3975 -0.0373
 3063ntf    fn418944   4.722   1.463   1.724 -0.3856  0.3650  0.0718
 3063ntf    fn418945   4.661   1.669   1.721  0.1449 -0.1356 -0.5883
 3064ntf    cn118946   6.881   6.235   0.904 -0.5504  0.0906  0.4788
 3064ntf    sn218947   7.048   6.296   0.864 -0.5834  0.0218  0.2370
 3064ntf    nn318948   7.079   6.370   0.999 -0.8422 -0.0235  0.3218
 3064ntf    sn218949   7.063   6.522   1.036  0.2043  0.2124 -0.1532
 3064ntf    cn118950   7.028   6.504   1.214 -0.0678  0.3248 -0.1950
 3064ntf    fn418951   6.853   6.138   0.819  0.5335  0.1933 -0.0125
 3064ntf    fn418952   6.872   6.182   1.025 -0.8837  0.5879  0.6755
 3064ntf    fn418953   6.788   6.329   0.893 -0.4610  0.1807  0.4824
 3064ntf    on518954   7.120   6.171   0.861 -0.2764  0.2043  0.0158
 3064ntf    on518955   7.030   6.373   0.744 -1.2195 -0.1950  0.1849
 3064ntf    on518956   6.943   6.586   0.988  0.0712 -0.2350 -0.4229
 3064ntf    on518957   7.184   6.600   1.031  0.5218 -0.1982  0.8341
 3064ntf    fn418958   6.918   6.436   1.241  0.2288 -0.0951 -0.0350
 3064ntf    fn418959   7.128   6.454   1.285  0.1759  0.9136 -0.1183
 3064ntf    fn418960   7.005   6.623   1.267  0.5790  0.5946 -0.5067
 3065ntf    cn118961   2.202   3.566   6.650  0.0081  0.4962 -0.0508
 3065ntf    sn218962   2.383   3.583   6.659  0.0804 -0.1765 -0.1563
 3065ntf    nn318963   2.396   3.738   6.682  0.5281 -0.1951 -0.2696
 3065ntf    sn218964   2.431   3.855   6.583 -0.0177  0.2292  0.0347
 3065ntf    cn118965   2.603   3.898   6.623  0.1025  0.0798 -0.3178
 3065ntf    fn418966   2.145   3.609   6.761 -0.1492  0.3805 -0.0861
 3065ntf    fn418967   2.156   3.628   6.543  0.0009 -0.0114 -0.3464
 3065ntf    fn418968   2.168   3.438   6.642  0.1813  0.4446  0.0283
 3065ntf    on518969   2.422   3.506   6.774  0.7640 -0.2894 -0.4553
 3065ntf    on518970   2.431   3.525   6.536  0.5112  0.5367 -0.3307
 3065ntf    on518971   2.359   3.972   6.627 -0.2105 -0.0346  0.4324
 3065ntf    on518972   2.430   3.835   6.440  0.2285 -0.1462  0.0841
 3065ntf    fn418973   2.681   3.791   6.618  0.1116  0.0696  0.0183
 3065ntf    fn418974   2.661   3.990   6.548  0.1719  0.3024  0.0034
 3065ntf    fn418975   2.619   3.940   6.748 -1.3754  0.0843 -0.1097
 3066ntf    cn118976   2.598   6.229   5.148 -0.1982 -0.0950 -0.2176
 3066ntf    sn218977   2.689   6.167   5.293 -0.0561  0.2102 -0.1758
 3066ntf    nn318978   2.825   6.131   5.222 -0.5600 -0.5781 -0.7694
 3066ntf    sn218979   2.907   5.999   5.240 -0.0319 -0.1626 -0.0595
 3066ntf    cn118980   2.853   5.906   5.093  0.1000  0.2418 -0.3656
 3066ntf    fn418981   2.586   6.133   5.058 -0.5119  0.0121 -0.2937
 3066ntf    fn418982   2.473   6.253   5.185 -0.1741 -0.2676 -0.0211
 3066ntf    fn418983   2.654   6.336   5.094 -0.0734 -0.2201 -0.3368
 3066ntf    on518984   2.708   6.274   5.387  0.2468 -0.3328  0.3927
 3066ntf    on518985   2.601   6.059   5.332 -0.3017  0.4246 -0.1389
 3066ntf    on518986   2.883   5.921   5.359  0.2741  0.9834  0.7647
 3066ntf    on518987   3.046   6.022   5.210 -0.0747 -0.0384 -0.1599
 3066ntf    fn418988   2.725   5.930   5.069  0.0083  0.2279  0.0998
 3066ntf    fn418989   2.914   5.931   4.979 -0.2003  0.2762 -0.5195
 3066ntf    fn418990   2.858   5.778   5.127 -0.0445  0.2764 -0.2125
 3067ntf    cn118991   0.335   5.714   6.675  0.1090 -0.0303 -0.0887
 3067ntf    sn218992   0.238   5.560   6.665 -0.1867  0.1261  0.3319
 3067ntf    nn318993   0.328   5.464   6.579 -0.1226  0.6586 -0.2055
 3067ntf    sn218994   0.330   5.438   6.425 -0.0915 -0.1175 -0.0769
 3067ntf    cn118995   0.197   5.314   6.421 -0.2111  0.0122 -0.1331
 3067ntf    fn418996   0.414   5.729   6.570  0.3456  0.3812  0.1444
 3067ntf    fn418997   0.261   5.824   6.682  0.1347 -0.0216  0.0597
 3067ntf    fn418998   0.420   5.719   6.777  0.0413  0.1751 -0.0406
 3067ntf    on518999   0.230   5.515   6.802 -0.3469 -0.0331  0.2703
 3067ntf    on519000   0.117   5.602   6.599  0.2974 -0.1153 -0.7343
 3067ntf    on519001   0.444   5.360   6.381  0.4002  0.5094  0.0753
 3067ntf    on519002   0.279   5.538   6.334  0.4944 -0.3185 -0.6416
 3067ntf    fn419003   0.080   5.373   6.444 -0.2226  0.0113 -0.1881
 3067ntf    fn419004   0.177   5.265   6.300  0.4681 -0.1305 -0.1872
 3067ntf    fn419005   0.221   5.212   6.502  0.4489  0.2508 -0.0257
 3068ntf    cn119006   2.300   3.148   4.964 -0.0835  0.5547 -0.0833
 3068ntf    sn219007   2.215   2.999   4.902  0.0681  0.2707  0.3806
 3068ntf    nn319008   2.119   3.058   4.792  0.2639  0.1698  0.1537
 3068ntf    sn219009   1.965   3.082   4.812  0.1483 -0.2483 -0.2179
 3068ntf    cn119010   1.949   3.168   4.653 -0.0525  0.1889  0.0360
 3068ntf    fn419011   2.364   3.136   5.079  0.3701 -0.0320 -0.3877
 3068ntf    fn419012   2.386   3.193   4.874 -0.1521  0.3524 -0.2512
 3068ntf    fn419013   2.220   3.251   4.984 -0.5773  0.1782 -0.0969
 3068ntf    on519014   2.322   2.929   4.834 -0.0275  0.7471 -0.2764
 3068ntf    on519015   2.157   2.930   5.014  0.5096  0.0919  0.5014
 3068ntf    on519016   1.930   3.186   4.906 -0.3191 -0.4333 -0.1886
 3068ntf    on519017   1.883   2.964   4.810 -0.1074 -0.0733 -0.1111
 3068ntf    fn419018   1.839   3.241   4.640 -0.1646 -0.0662 -0.4950
 3068ntf    fn419019   2.045   3.259   4.647  0.3617 -0.2492 -0.0767
 3068ntf    fn419020   1.965   3.085   4.551  0.6407 -0.7242  0.8634
 3069ntf    cn119021   6.745   2.592   3.918 -0.2466  0.5173  0.0747
 3069ntf    sn219022   6.833   2.698   4.037  0.2164 -0.0511  0.2443
 3069ntf    nn319023   6.961   2.612   4.066  0.4385  0.0409 -0.4520
 3069ntf    sn219024   6.998   2.517   4.185 -0.2354  0.4453  0.0917
 3069ntf    cn119025   7.168   2.563   4.231 -0.0388  0.0935 -0.2745
 3069ntf    fn419026   6.613   2.606   3.919 -0.3394 -0.3131  0.3311
 3069ntf    fn419027   6.778   2.627   3.795  0.0086 -0.1011 -0.0381
 3069ntf    fn419028   6.771   2.463   3.925 -0.2604  0.4825 -0.4998
 3069ntf    on519029   6.858   2.814   3.955  0.3730 -0.0421  0.3048
 3069ntf    on519030   6.736   2.704   4.144 -0.3759  0.1518 -0.2990
 3069ntf    on519031   7.024   2.384   4.135 -0.2923  0.3404  0.3401
 3069ntf    on519032   6.935   2.528   4.314 -0.5187 -0.1342  0.0077
 3069ntf    fn419033   7.169   2.679   4.295 -0.6061 -0.0840  0.0618
 3069ntf    fn419034   7.231   2.470   4.300 -0.5865 -0.4270 -0.4727
 3069ntf    fn419035   7.246   2.580   4.125  0.0179 -0.0803 -0.2604
 3070ntf    cn119036   0.766   2.019   5.752 -0.0023 -0.0024 -0.3126
 3070ntf    sn219037   0.815   2.131   5.618  0.2760  0.2407 -0.0087
 3070ntf    nn319038   0.672   2.176   5.571  0.2032 -0.0030 -0.0214
 3070ntf    sn219039   0.600   2.315   5.582 -0.1003 -0.1658  0.0362
 3070ntf    cn119040   0.675   2.399   5.440  0.0361 -0.1447  0.1209
 3070ntf    fn419041   0.719   1.902   5.712  0.3887 -0.1798 -0.2637
 3070ntf    fn419042   0.850   1.987   5.849 -0.2750  0.3408  0.0356
 3070ntf    fn419043   0.669   2.079   5.818  0.1129 -0.2220  0.0587
 3070ntf    on519044   0.892   2.235   5.682  0.0689  0.2044  0.2987
 3070ntf    on519045   0.884   2.041   5.528  0.6457  0.3271  0.1849
 3070ntf    on519046   0.629   2.390   5.701 -0.3332 -0.1964  0.1135
 3070ntf    on519047   0.460   2.292   5.553 -0.2457  0.3509  0.3069
 3070ntf    fn419048   0.627   2.520   5.418  0.4532  0.0001 -0.0112
 3070ntf    fn419049   0.806   2.414   5.447  0.0494 -0.4151  0.4605
 3070ntf    fn419050   0.651   2.334   5.327  0.4287 -0.2388  0.0896
 3071ntf    cn119051   6.860   3.944   6.337 -0.1513 -0.0633 -0.2300
 3071ntf    sn219052   6.690   3.884   6.317 -0.2103  0.0419 -0.0516
 3071ntf    nn319053   6.717   3.734   6.280 -0.4631 -0.0460  0.1134
 3071ntf    sn219054   6.687   3.665   6.142 -0.0722  0.1883 -0.0904
 3071ntf    cn119055   6.812   3.533   6.139  0.1621  0.4002  0.2594
 3071ntf    fn419056   6.942   3.868   6.409 -0.0975  0.0704 -0.1515
 3071ntf    fn419057   6.918   3.945   6.218  0.0413 -0.4181 -0.1427
 3071ntf    fn419058   6.875   4.063   6.391  0.4851 -0.2895  0.1018
 3071ntf    on519059   6.637   3.891   6.451 -0.1809  0.4285 -0.0584
 3071ntf    on519060   6.628   3.972   6.220  0.0655  0.3644  0.0658
 3071ntf    on519061   6.719   3.735   6.020  0.5412  0.4062  0.1923
 3071ntf    on519062   6.565   3.589   6.137  0.5052 -0.7523 -0.1156
 3071ntf    fn419063   6.781   3.430   6.217  0.0668  0.3915  0.2112
 3071ntf    fn419064   6.836   3.483   6.019  0.1737  0.1369  0.3698
 3071ntf    fn419065   6.926   3.585   6.181  0.1685  0.4634  0.1619
 3072ntf    cn119066   1.991   5.527   1.825 -0.1325  0.2051  0.0761
 3072ntf    sn219067   2.169   5.498   1.807 -0.2352 -0.5860  0.2939
 3072ntf    nn319068   2.174   5.374   1.711 -0.2626 -0.4694  0.1420
 3072ntf    sn219069   2.208   5.370   1.557 -0.0718  0.2695  0.1587
 3072ntf    cn119070   2.173   5.195   1.523 -0.2967  0.2955  0.2549
 3072ntf    fn419071   1.954   5.635   1.893 -0.6266 -0.2126  0.4783
 3072ntf    fn419072   1.924   5.541   1.712 -0.0383  0.8466  0.0963
 3072ntf    fn419073   1.927   5.427   1.884 -0.0136 -0.1711 -0.4294
 3072ntf    on519074   2.199   5.625   1.745  0.0433 -0.5452  0.5081
 3072ntf    on519075   2.214   5.472   1.941 -0.0446 -1.1469  0.1239
 3072ntf    on519076   2.348   5.385   1.529 -0.0373  0.1689  0.2786
 3072ntf    on519077   2.112   5.438   1.474 -0.0229 -0.3064 -0.3744
 3072ntf    fn419078   2.049   5.166   1.561 -0.3733  0.6147  0.2476
 3072ntf    fn419079   2.183   5.163   1.395  0.5576  0.5445  0.2559
 3072ntf    fn419080   2.251   5.114   1.593  0.3781  0.0019 -0.8187
 3073ntf    cn119081   5.477   1.622   4.163 -0.2827  0.0940  0.1265
 3073ntf    sn219082   5.499   1.800   4.133 -0.0110  0.0542  0.0817
 3073ntf    nn319083   5.362   1.854   4.188  0.1304  0.3567  0.1414
 3073ntf    sn219084   5.245   1.888   4.088  0.0402  0.0257  0.1314
 3073ntf    cn119085   5.101   1.854   4.193 -0.2682 -0.1218 -0.3359
 3073ntf    fn419086   5.380   1.562   4.097 -0.1357 -0.5364  0.4754
 3073ntf    fn419087   5.591   1.557   4.143  0.0691  0.8316 -0.3076
 3073ntf    fn419088   5.444   1.602   4.290  0.0330 -0.1538  0.1704
 3073ntf    on519089   5.611   1.832   4.218 -0.1487 -0.4817  0.4696
 3073ntf    on519090   5.525   1.822   3.993 -0.6168 -0.0268 -0.0459
 3073ntf    on519091   5.223   1.801   3.976 -0.0002 -0.4844  0.5323
 3073ntf    on519092   5.235   2.030   4.065  0.9141  0.1063  0.2083
 3073ntf    fn419093   5.097   1.935   4.298 -0.2884  0.2610 -0.6318
 3073ntf    fn419094   4.992   1.870   4.121 -0.2531 -0.3946 -0.4193
 3073ntf    fn419095   5.095   1.729   4.238 -0.0822 -0.0114  0.0029
 3074ntf    cn119096   0.946   2.416   4.376 -0.2136 -0.0073  0.1612
 3074ntf    sn219097   0.834   2.417   4.233 -0.2546  0.0720  0.1935
 3074ntf    nn319098   0.925   2.473   4.118  0.1994 -0.4999  0.2706
 3074ntf    sn219099   0.944   2.623   4.075 -0.4262 -0.5746 -0.2877
 3074ntf    cn119100   0.824   2.639   3.939 -0.1554 -0.3545 -0.5015
 3074ntf    fn419101   0.960   2.534   4.435  0.0263 -0.0884  0.2675
 3074ntf    fn419102   0.899   2.332   4.467 -0.8370 -0.0772 -0.2157
 3074ntf    fn419103   1.065   2.366   4.346 -0.2023 -0.1240  0.4005
 3074ntf    on519104   0.806   2.278   4.208  0.5413 -0.0445 -0.0684
 3074ntf    on519105   0.722   2.503   4.264 -0.3109 -0.0495  0.3256
 3074ntf    on519106   1.071   2.646   4.010 -0.3663 -0.1700 -0.0294
 3074ntf    on519107   0.899   2.718   4.174  0.0230 -0.2951 -0.3498
 3074ntf    fn419108   0.698   2.636   3.979  0.0366  0.2361  0.1684
 3074ntf    fn419109   0.842   2.752   3.872 -0.0761 -0.2842 -0.3630
 3074ntf    fn419110   0.823   2.543   3.848 -0.0937 -0.4771 -0.3743
 3075ntf    cn119111   0.761   2.560   1.133  0.0639  0.2505  0.2756
 3075ntf    sn219112   0.859   2.560   1.286  0.0089  0.1799  0.3114
 3075ntf    nn319113   0.823   2.705   1.336 -0.3962  0.2075 -0.0578
 3075ntf    sn219114   0.927   2.811   1.386 -0.2129 -0.0995  0.2180
 3075ntf    cn119115   0.850   2.852   1.546 -0.0996 -0.2343  0.3071
 3075ntf    fn419116   0.636   2.598   1.157 -0.4557 -0.9869 -0.3366
 3075ntf    fn419117   0.810   2.639   1.040  0.5357 -0.1912  0.1484
 3075ntf    fn419118   0.755   2.439   1.078  0.3141  0.2068  0.3459
 3075ntf    on519119   0.789   2.456   1.356  0.0295  0.5695  0.9246
 3075ntf    on519120   0.993   2.525   1.245 -0.1102  0.0951 -0.0085
 3075ntf    on519121   0.915   2.935   1.313  0.0971 -0.2729 -0.1275
 3075ntf    on519122   1.062   2.785   1.429 -0.1290  0.2657  0.1774
 3075ntf    fn419123   0.878   2.975   1.582  0.1533 -0.1070 -0.3038
 3075ntf    fn419124   0.718   2.837   1.547 -0.1361  0.0808  0.2855
 3075ntf    fn419125   0.891   2.768   1.640  0.1177 -0.5169 -0.0356
 3076ntf    cn119126   2.371   1.798   5.476 -0.5300 -0.2220 -0.0546
 3076ntf    sn219127   2.268   1.755   5.620 -0.2576 -0.0286  0.2024
 3076ntf    nn319128   2.383   1.741   5.726 -0.6042 -0.5594  0.5109
 3076ntf    sn219129   2.474   1.619   5.764 -0.0747 -0.2434  0.2650
 3076ntf    cn119130   2.373   1.556   5.901 -0.0236 -0.3684  0.2460
 3076ntf    fn419131   2.449   1.903   5.497  0.0039 -0.6570  0.1716
 3076ntf    fn419132   2.449   1.700   5.432 -0.2297  0.1608 -0.3759
 3076ntf    fn419133   2.310   1.839   5.367  0.2088  0.0326 -0.3782
 3076ntf    on519134   2.189   1.873   5.645 -0.2616 -0.0292  0.1932
 3076ntf    on519135   2.199   1.633   5.585 -0.2578 -0.0479  0.2693
 3076ntf    on519136   2.602   1.655   5.820  0.1219  0.4076 -0.5769
 3076ntf    on519137   2.473   1.502   5.680  0.3472  0.0509 -0.1572
 3076ntf    fn419138   2.344   1.649   5.991  0.2451  0.3584 -0.4136
 3076ntf    fn419139   2.258   1.503   5.861 -0.1905 -0.0827  0.3425
 3076ntf    fn419140   2.435   1.462   5.970 -0.0812 -0.3354  0.3431
 3077ntf    cn119141   6.043   5.045   3.007 -0.5093  0.1736 -0.0189
 3077ntf    sn219142   6.091   5.137   3.156 -0.0751 -0.1251  0.0269
 3077ntf    nn319143   6.247   5.118   3.156 -0.0736 -0.1148 -0.0681
 3077ntf    sn219144   6.334   5.030   3.252 -0.0140 -0.2269 -0.2249
 3077ntf    cn119145   6.497   5.050   3.174  0.1860  0.2418  0.3021
 3077ntf    fn419146   6.085   4.920   3.012 -0.5110  0.1561 -0.3745
 3077ntf    fn419147   5.914   5.049   2.978 -0.4996 -0.4702 -0.1596
 3077ntf    fn419148   6.100   5.090   2.896 -0.3601 -0.2853 -0.1313
 3077ntf    on519149   6.046   5.269   3.120 -0.3653 -0.2774 -0.1739
 3077ntf    on519150   6.028   5.057   3.257 -0.0688  0.4110  0.4606
 3077ntf    on519151   6.309   4.888   3.247 -0.7749 -0.0925 -0.3444
 3077ntf    on519152   6.355   5.082   3.385 -0.3539  0.2730 -0.3659
 3077ntf    fn419153   6.579   4.950   3.201 -0.6736 -0.5926 -0.1213
 3077ntf    fn419154   6.488   5.053   3.042  0.3267 -0.4747  0.2724
 3077ntf    fn419155   6.564   5.158   3.210  0.2140  0.1883  0.4091
 3078ntf    cn119156   0.945   3.523   3.192 -0.6802 -0.0439  0.3868
 3078ntf    sn219157   0.907   3.545   3.369  0.0366  0.4268  0.4867
 3078ntf    nn319158   0.976   3.413   3.420 -0.1192  0.1494 -0.0147
 3078ntf    sn219159   1.071   3.400   3.544  0.0108  0.1174 -0.1169
 3078ntf    cn119160   0.966   3.477   3.671  0.0795  0.0236 -0.0033
 3078ntf    fn419161   0.915   3.635   3.129 -0.1518 -0.1552 -0.0688
 3078ntf    fn419162   1.070   3.487   3.169 -0.7541 -0.0479 -0.0109
 3078ntf    fn419163   0.868   3.428   3.142 -0.0405 -0.2961 -0.1298
 3078ntf    on519164   0.964   3.674   3.401 -0.0198  0.6851 -0.4164
 3078ntf    on519165   0.766   3.522   3.379  0.0222  0.1001 -0.3628
 3078ntf    on519166   1.187   3.487   3.548  0.2339 -0.2088  0.5572
 3078ntf    on519167   1.091   3.264   3.587 -0.2140  0.2850  0.5225
 3078ntf    fn419168   0.966   3.609   3.656 -0.2143  0.0188 -0.0387
 3078ntf    fn419169   0.843   3.433   3.658 -0.0413  0.3638 -0.0222
 3078ntf    fn419170   1.000   3.460   3.798 -0.5878  1.2241  0.3577
 3079ntf    cn119171   1.424   4.286   4.922  0.3310 -0.0045 -0.0105
 3079ntf    sn219172   1.433   4.468   4.917  0.1616  0.0027 -0.0435
 3079ntf    nn319173   1.277   4.490   4.911  0.2065  0.1176 -0.8277
 3079ntf    sn219174   1.201   4.621   4.869 -0.0778  0.2937  0.2097
 3079ntf    cn119175   1.137   4.684   5.027 -0.0432  0.4418  0.1649
 3079ntf    fn419176   1.363   4.227   4.821  0.1699  0.1721 -0.0166
 3079ntf    fn419177   1.546   4.234   4.922  0.6237  0.6628 -0.1980
 3079ntf    fn419178   1.372   4.247   5.037  0.1396  0.0322 -0.0847
 3079ntf    on519179   1.502   4.506   5.038 -0.3378 -0.3195  0.3484
 3079ntf    on519180   1.500   4.489   4.792 -0.2689 -0.1903 -0.3100
 3079ntf    on519181   1.085   4.586   4.790  0.2053  0.3367 -0.2287
 3079ntf    on519182   1.285   4.722   4.810 -0.5290  0.6537  0.1784
 3079ntf    fn419183   1.100   4.582   5.103  0.0961 -0.0508 -0.4235
 3079ntf    fn419184   1.235   4.746   5.091 -0.1242  0.2655  0.4616
 3079ntf    fn419185   1.040   4.773   5.021  0.4040  0.9245 -0.0598
 3080ntf    cn119186   4.149   2.549   2.896  0.2285 -0.1016  0.0270
 3080ntf    sn219187   4.304   2.595   2.812  0.0377  0.1107 -0.2115
 3080ntf    nn319188   4.401   2.500   2.890 -0.4307 -0.0423  0.1946
 3080ntf    sn219189   4.475   2.525   3.026  0.3592  0.2034 -0.2752
 3080ntf    cn119190   4.623   2.624   2.985  0.1345  0.6632  0.0073
 3080ntf    fn419191   4.052   2.623   2.845  0.3764  0.1936  0.1678
 3080ntf    fn419192   4.120   2.421   2.881  1.1001 -0.3379  0.2941
 3080ntf    fn419193   4.152   2.566   3.028  0.3568  0.3443 -0.0297
 3080ntf    on519194   4.293   2.550   2.676  0.3405  0.6447 -0.4125
 3080ntf    on519195   4.321   2.736   2.833 -0.3936  0.1576 -0.1588
 3080ntf    on519196   4.536   2.403   3.074 -0.2932  0.0924  0.2877
 3080ntf    on519197   4.404   2.602   3.125 -0.1308 -0.0900 -0.3980
 3080ntf    fn419198   4.716   2.621   3.079  0.2920  1.0336 -0.1380
 3080ntf    fn419199   4.684   2.581   2.876 -0.3104  0.1740 -0.0551
 3080ntf    fn419200   4.594   2.752   2.968 -0.2004  0.6085  0.1570
 3081ntf    cn119201   3.095   2.566   0.622 -0.0124 -0.0802 -0.4977
 3081ntf    sn219202   2.942   2.499   0.695 -0.0087  0.3875 -0.0584
 3081ntf    nn319203   2.876   2.624   0.765 -0.1993  0.0189  0.4211
 3081ntf    sn219204   2.924   2.699   0.895  0.0792  0.0866  0.2813
 3081ntf    cn119205   2.811   2.640   1.025  0.0578 -0.1780  0.1435
 3081ntf    fn419206   3.174   2.465   0.589 -0.0084 -0.1406 -0.3074
 3081ntf    fn419207   3.075   2.630   0.508 -0.2770 -0.0179 -0.4181
 3081ntf    fn419208   3.149   2.662   0.694 -0.0476 -0.2132 -0.2929
 3081ntf    on519209   2.870   2.442   0.584  0.2248 -0.8132  0.3951
 3081ntf    on519210   2.995   2.401   0.786 -1.0997 -0.0916  0.0709
 3081ntf    on519211   2.901   2.841   0.883 -0.3337  0.0247  0.3282
 3081ntf    on519212   3.056   2.660   0.938  0.1815  0.1021 -0.0152
 3081ntf    fn419213   2.828   2.694   1.145 -0.4234 -0.3553  0.2937
 3081ntf    fn419214   2.684   2.659   0.996  0.0600 -0.1185  0.1736
 3081ntf    fn419215   2.819   2.509   1.046  0.1580 -0.2567 -0.3744
 3082ntf    cn119216   3.936   4.760   4.640 -0.3194  0.0103 -0.1886
 3082ntf    sn219217   3.870   4.912   4.714 -0.0452  0.1189 -0.1646
 3082ntf    nn319218   3.975   5.020   4.669 -0.2984  0.6789  0.5656
 3082ntf    sn219219   3.979   5.100   4.535 -0.1050  0.3236  0.3568
 3082ntf    cn119220   4.157   5.082   4.500 -0.1505  0.0796  0.2543
 3082ntf    fn419221   3.868   4.653   4.677 -0.0119 -0.1587 -0.1030
 3082ntf    fn419222   3.942   4.768   4.508 -0.1453  0.3114 -0.1639
 3082ntf    fn419223   4.059   4.731   4.681 -0.2758  0.5220  0.0559
 3082ntf    on519224   3.742   4.921   4.648  0.0935 -0.2155 -0.4812
 3082ntf    on519225   3.873   4.894   4.857  0.2445  0.2626 -0.1512
 3082ntf    on519226   3.969   5.243   4.551 -0.2771  0.2605  0.8039
 3082ntf    on519227   3.925   5.036   4.418  0.0028  0.5187  0.1990
 3082ntf    fn419228   4.209   5.158   4.406 -0.1546 -0.4590 -0.1944
 3082ntf    fn419229   4.228   5.107   4.609  0.0065 -0.0092  0.1736
 3082ntf    fn419230   4.187   4.957   4.465 -0.3627  0.2148 -0.4276
 3083ntf    cn119231   5.758   3.889   5.112 -0.3610 -0.0958 -0.2941
 3083ntf    sn219232   5.808   3.971   4.958 -0.0846  0.2927 -0.0022
 3083ntf    nn319233   5.956   4.013   4.990  0.2083 -0.1371 -0.7583
 3083ntf    sn219234   6.082   3.921   5.002  0.2790  0.0620  0.0811
 3083ntf    cn119235   6.190   4.018   4.892  0.2342  0.0450  0.0229
 3083ntf    fn419236   5.636   3.838   5.113 -0.4089  0.0178  0.2796
 3083ntf    fn419237   5.843   3.789   5.126  0.1879  0.4739  0.5541
 3083ntf    fn419238   5.770   3.975   5.212  0.7160 -0.4016 -0.1432
 3083ntf    on519239   5.791   3.859   4.869  0.0882  0.3805 -0.1473
 3083ntf    on519240   5.718   4.084   4.954 -0.5900 -0.0944  0.2919
 3083ntf    on519241   6.076   3.789   4.945  0.0605  0.4366 -0.7763
 3083ntf    on519242   6.135   3.935   5.136  0.0730 -0.4979  0.2262
 3083ntf    fn419243   6.210   4.144   4.925 -0.1778  0.1308 -0.0497
 3083ntf    fn419244   6.313   3.970   4.889  0.2899  0.1667  0.2665
 3083ntf    fn419245   6.141   4.030   4.770  0.2971  0.7566  0.0607
 3084ntf    cn119246   4.315   6.503   2.861 -0.0774 -0.0808 -0.0996
 3084ntf    sn219247   4.334   6.543   3.037 -0.1085 -0.3615 -0.0325
 3084ntf    nn319248   4.328   6.698   3.014  0.2466 -0.4075 -0.4458
 3084ntf    sn219249   4.418   6.806   3.085 -0.1024 -0.3683 -0.0572
 3084ntf    cn119250   4.549   6.830   2.961 -0.0628 -0.3381 -0.0091
 3084ntf    fn419251   4.221   6.572   2.797  0.3822  0.4456 -0.2102
 3084ntf    fn419252   4.429   6.523   2.798 -0.0518 -0.3558 -0.1415
 3084ntf    fn419253   4.283   6.376   2.840  0.1919 -0.1883  0.1407
 3084ntf    on519254   4.208   6.501   3.094  0.0409 -0.1469  0.4632
 3084ntf    on519255   4.461   6.489   3.077  0.0424  0.0346  0.0219
 3084ntf    on519256   4.474   6.771   3.213 -0.0100  0.5506  0.1564
 3084ntf    on519257   4.342   6.928   3.092  0.5551  0.0481 -0.1206
 3084ntf    fn419258   4.630   6.929   2.992 -0.6940  0.0995  0.2665
 3084ntf    fn419259   4.627   6.724   2.946  0.2185 -0.1800  0.3265
 3084ntf    fn419260   4.492   6.869   2.848  0.3825  0.2129 -0.0480
 3085ntf    cn119261   5.584   4.759   2.844 -0.0866 -0.0961  0.5401
 3085ntf    sn219262   5.467   4.620   2.827  0.0706 -0.1491 -0.1383
 3085ntf    nn319263   5.565   4.500   2.854  0.2564 -0.1077 -0.6260
 3085ntf    sn219264   5.532   4.357   2.909 -0.0975  0.1348 -0.2059
 3085ntf    cn119265   5.669   4.260   2.840 -0.1052 -0.1319  0.1486
 3085ntf    fn419266   5.674   4.764   2.747 -0.3990 -0.5136  0.2238
 3085ntf    fn419267   5.523   4.876   2.836  0.1770  0.0155  0.1440
 3085ntf    fn419268   5.649   4.755   2.959  0.4376 -0.3576  0.2358
 3085ntf    on519269   5.372   4.639   2.933  0.7954  0.1737  0.4675
 3085ntf    on519270   5.429   4.618   2.688 -0.3491  0.0266 -0.0278
 3085ntf    on519271   5.419   4.288   2.852 -0.4173  0.3170  0.2037
 3085ntf    on519272   5.553   4.348   3.051 -0.1833  1.3576 -0.1016
 3085ntf    fn419273   5.689   4.274   2.710  0.3084 -0.3987  0.1810
 3085ntf    fn419274   5.787   4.288   2.893 -0.1808  0.1929  0.1480
 3085ntf    fn419275   5.656   4.131   2.862 -0.8213 -0.1125 -0.1448
 3086ntf    cn119276   5.566   0.143   6.204 -0.2367 -0.0838 -0.2011
 3086ntf    sn219277   5.468   0.037   6.314  0.3821 -0.2863  0.1632
 3086ntf    nn319278   5.338   0.027   6.226  0.6666 -0.3163 -0.2579
 3086ntf    sn219279   5.312  -0.049   6.091 -0.0140 -0.2785 -0.1516
 3086ntf    cn119280   5.205  -0.183   6.151 -0.0135 -0.2448 -0.0755
 3086ntf    fn419281   5.483   0.218   6.133 -0.2527  0.0374 -0.0539
 3086ntf    fn419282   5.651   0.215   6.275 -0.0571 -0.0842 -0.4121
 3086ntf    fn419283   5.646   0.077   6.121  0.1692  0.4566 -0.2495
 3086ntf    on519284   5.546  -0.083   6.329 -0.2124 -0.6339  0.5527
 3086ntf    on519285   5.444   0.124   6.426 -0.2858  0.1673 -0.3174
 3086ntf    on519286   5.426  -0.120   6.039  0.1158  0.1175 -0.4126
 3086ntf    on519287   5.225   0.021   5.999  0.2368  0.1770 -0.0460
 3086ntf    fn419288   5.247  -0.248   6.258 -0.1403 -0.5966 -0.2354
 3086ntf    fn419289   5.087  -0.135   6.186 -0.0417 -0.2878 -0.1114
 3086ntf    fn419290   5.188  -0.274   6.056 -0.1906  0.3456 -0.6161
 3087ntf    cn119291   6.193   2.520   4.896  0.2358 -0.3755 -0.1000
 3087ntf    sn219292   6.374   2.520   4.884  0.2483 -0.0690  0.0650
 3087ntf    nn319293   6.389   2.675   4.907 -0.2958  0.0073 -0.0905
 3087ntf    sn219294   6.417   2.791   4.805 -0.0713 -0.1724 -0.2338
 3087ntf    cn119295   6.535   2.886   4.907  0.1774 -0.2655 -0.4332
 3087ntf    fn419296   6.158   2.606   4.991  0.6511  0.1004 -0.3735
 3087ntf    fn419297   6.142   2.570   4.784 -0.0900 -0.2092  0.1201
 3087ntf    fn419298   6.130   2.404   4.909 -0.1308 -0.1770 -0.0782
 3087ntf    on519299   6.409   2.439   4.999 -0.0437 -0.2848  0.0016
 3087ntf    on519300   6.422   2.464   4.760 -0.5429 -0.3076 -0.1374
 3087ntf    on519301   6.303   2.875   4.779 -0.0987 -0.0358  0.3031
 3087ntf    on519302   6.505   2.757   4.696  0.4225  0.0090  0.0999
 3087ntf    fn419303   6.642   2.818   4.945 -0.1838 -0.4272  0.3046
 3087ntf    fn419304   6.571   3.001   4.853 -0.0017  0.2557  0.5348
 3087ntf    fn419305   6.475   2.922   5.019  0.1887  0.0958 -0.5436
 3088ntf    cn119306   3.133   5.786   0.494  0.0013  0.5126 -0.4533
 3088ntf    sn219307   3.076   5.843   0.331  0.1661  0.1809 -0.6266
 3088ntf    nn319308   2.939   5.910   0.366  0.1899 -0.1827  0.1771
 3088ntf    sn219309   2.822   5.945   0.268  0.1316 -0.1521  0.2577
 3088ntf    cn119310   2.800   6.115   0.329  0.2419 -0.1417  0.2688
 3088ntf    fn419311   3.251   5.727   0.485 -0.1739  0.1308 -0.2359
 3088ntf    fn419312   3.146   5.882   0.585  0.3568  0.4685 -0.4543
 3088ntf    fn419313   3.059   5.691   0.548  0.1797  0.7306  0.1849
 3088ntf    on519314   3.177   5.938   0.293  0.4457  0.0860 -0.1341
 3088ntf    on519315   3.065   5.717   0.260  0.1559 -0.0569 -0.2068
 3088ntf    on519316   2.701   5.875   0.302 -0.0239 -0.2065 -0.4030
 3088ntf    on519317   2.868   5.958   0.132 -0.1158 -0.5600  0.1339
 3088ntf    fn419318   2.879   6.207   0.277  0.3718 -0.5626 -0.2874
 3088ntf    fn419319   2.681   6.167   0.305  0.4058  0.0443 -0.1520
 3088ntf    fn419320   2.813   6.123   0.460 -0.4647 -0.3565  0.3547
 3089ntf    cn119321   6.296   4.694   1.651 -0.2465 -0.2751 -0.2346
 3089ntf    sn219322   6.301   4.553   1.536 -0.1327 -0.4669  0.0041
 3089ntf    nn319323   6.150   4.531   1.498 -0.3210  0.2404  0.3231
 3089ntf    sn219324   6.055   4.624   1.415 -0.2195 -0.0748 -0.1493
 3089ntf    cn119325   6.002   4.498   1.295 -0.3432 -0.4632  0.3100
 3089ntf    fn419326   6.234   4.796   1.593  0.1669  0.0210 -0.1598
 3089ntf    fn419327   6.216   4.668   1.753 -0.1399  0.3266  0.0040
 3089ntf    fn419328   6.413   4.735   1.696 -0.4272 -0.6323  0.5745
 3089ntf    on519329   6.388   4.595   1.428  0.1173  0.1669  0.4461
 3089ntf    on519330   6.351   4.449   1.622 -0.2733 -0.1984  0.4120
 3089ntf    on519331   6.111   4.726   1.329  0.1121  0.4895  0.7181
 3089ntf    on519332   5.938   4.662   1.490 -0.1596 -0.1331 -0.0264
 3089ntf    fn419333   6.108   4.454   1.230  0.2379  0.3345  0.6955
 3089ntf    fn419334   5.949   4.388   1.344  0.2706 -0.7820  0.2579
 3089ntf    fn419335   5.921   4.546   1.201  0.1648  0.4335  0.3160
 3090ntf    cn119336   6.551   5.567   6.625 -0.5958 -0.2332  0.3177
 3090ntf    sn219337   6.504   5.662   6.477 -0.2131  0.4477  0.6282
 3090ntf    nn319338   6.441   5.554   6.382  1.0485  0.4841 -0.2825
 3090ntf    sn219339   6.487   5.492   6.246  0.4499  0.0862 -0.3070
 3090ntf    cn119340   6.404   5.596   6.123  0.3952  0.1503 -0.2161
 3090ntf    fn419341   6.605   5.645   6.717 -0.0165 -0.2713  0.0197
 3090ntf    fn419342   6.446   5.503   6.672 -0.9841  0.1907  0.0329
 3090ntf    fn419343   6.638   5.469   6.607 -0.6877 -0.4297  0.9268
 3090ntf    on519344   6.399   5.752   6.518 -0.4584  0.3336  0.2560
 3090ntf    on519345   6.629   5.723   6.439 -0.0073 -0.3837 -0.0543
 3090ntf    on519346   6.432   5.360   6.224  0.3045  0.0357  0.3393
 3090ntf    on519347   6.628   5.505   6.221  0.6737  0.2665  0.9758
 3090ntf    fn419348   6.421   5.560   5.997 -0.4005 -0.2791 -0.2060
 3090ntf    fn419349   6.274   5.610   6.146  0.3067  0.1898 -0.7098
 3090ntf    fn419350   6.442   5.723   6.118 -0.1209  0.3305  0.3726
 3091ntf    cn119351   3.107   1.639   3.441  0.0847 -0.1809 -0.6982
 3091ntf    sn219352   2.968   1.627   3.557  0.3877  0.4522 -0.2599
 3091ntf    nn319353   2.881   1.740   3.491 -0.0007  0.1114 -0.3381
 3091ntf    sn219354   2.860   1.886   3.543 -0.0406 -0.0529  0.1056
 3091ntf    cn119355   2.732   1.871   3.671 -0.1091 -0.1238  0.0285
 3091ntf    fn419356   3.164   1.758   3.433  0.4224 -0.2734  0.1583
 3091ntf    fn419357   3.196   1.546   3.474  0.0062 -0.1737 -0.4606
 3091ntf    fn419358   3.071   1.604   3.319 -0.5997  0.0635 -0.5666
 3091ntf    on519359   2.910   1.497   3.532  0.1015  0.5914 -0.3246
 3091ntf    on519360   3.024   1.653   3.687  0.2624  0.0979 -0.1343
 3091ntf    on519361   2.806   1.962   3.433  0.3255  0.7253  0.4518
 3091ntf    on519362   2.967   1.951   3.616 -0.1793  0.3441 -0.0417
 3091ntf    fn419363   2.681   1.990   3.697  0.1229  0.0621 -0.3623
 3091ntf    fn419364   2.632   1.795   3.627 -0.0829 -0.2030  0.1045
 3091ntf    fn419365   2.769   1.820   3.788  0.5170 -0.0765 -0.1497
 3092ntf    cn119366   2.132   5.232   0.766  0.0723  0.3019 -0.0855
 3092ntf    sn219367   2.025   5.353   0.683  0.0084  0.2594 -0.0662
 3092ntf    nn319368   1.956   5.281   0.562  0.0968  0.0063  0.0328
 3092ntf    sn219369   1.832   5.187   0.579  0.2054 -0.1678 -0.1433
 3092ntf    cn119370   1.698   5.292   0.515  0.3781  0.1679  0.0473
 3092ntf    fn419371   2.063   5.128   0.811 -0.2029  0.4762 -0.1019
 3092ntf    fn419372   2.229   5.182   0.691 -0.1619  0.3064 -0.3938
 3092ntf    fn419373   2.194   5.277   0.874  0.1295 -0.1548  0.0767
 3092ntf    on519374   1.939   5.403   0.788 -0.2198 -0.5243  0.1225
 3092ntf    on519375   2.117   5.453   0.634 -0.5842  0.6156 -0.4576
 3092ntf    on519376   1.797   5.152   0.715  0.3249 -0.1444 -0.1071
 3092ntf    on519377   1.837   5.078   0.483 -0.0037 -0.7072  0.4505
 3092ntf    fn419378   1.577   5.244   0.536  0.3986  0.1125  0.0394
 3092ntf    fn419379   1.707   5.413   0.568  0.5685  0.1999 -0.0539
 3092ntf    fn419380   1.700   5.310   0.383 -0.0666 -0.2568 -0.0184
 3093ntf    cn119381   0.769   6.716   4.903  0.1517 -0.2705 -0.0541
 3093ntf    sn219382   0.693   6.721   4.738  0.4696  0.7210 -0.1772
 3093ntf    nn319383   0.776   6.605   4.671 -0.5809 -0.2265  0.1249
 3093ntf    sn219384   0.839   6.596   4.528 -0.1033  0.0765  0.3145
 3093ntf    cn119385   0.694   6.522   4.447 -0.0419  0.0776  0.2032
 3093ntf    fn419386   0.900   6.694   4.903  0.2085  0.0703 -0.0005
 3093ntf    fn419387   0.753   6.833   4.962 -0.0617 -0.5877  0.5240
 3093ntf    fn419388   0.716   6.623   4.982 -0.1021  0.0456  0.1477
 3093ntf    on519389   0.554   6.695   4.767  0.6140  0.3364  0.1994
 3093ntf    on519390   0.728   6.854   4.696  0.8223  0.6116 -0.2317
 3093ntf    on519391   0.939   6.493   4.517  0.3162  0.5785 -0.6936
 3093ntf    on519392   0.868   6.721   4.461  0.5182 -0.2157  0.0335
 3093ntf    fn419393   0.588   6.600   4.456 -0.1485 -0.0737  0.2751
 3093ntf    fn419394   0.708   6.501   4.317  0.0659  0.4353  0.1565
 3093ntf    fn419395   0.659   6.405   4.498 -0.5343  0.1024 -0.0710
 3094ntf    cn119396   1.443   4.858   6.826  0.6165 -0.0154 -0.0645
 3094ntf    sn219397   1.494   4.777   6.980  0.2633 -0.1982 -0.0422
 3094ntf    nn319398   1.543   4.637   6.931 -0.2437 -0.2050 -0.5373
 3094ntf    sn219399   1.680   4.569   6.967  0.0563  0.5831 -0.1608
 3094ntf    cn119400   1.773   4.609   6.817  0.6936  0.0364  0.0810
 3094ntf    fn419401   1.536   4.856   6.732  0.3615 -0.2393 -0.3145
 3094ntf    fn419402   1.330   4.812   6.774  0.4060  0.3119  0.0953
 3094ntf    fn419403   1.421   4.986   6.853  0.1316 -0.2150  0.5065
 3094ntf    on519404   1.604   4.861   7.021  0.2721 -0.1510 -0.1637
 3094ntf    on519405   1.376   4.766   7.063  0.2899  0.5745  0.1145
 3094ntf    on519406   1.674   4.424   6.966 -0.6334  0.6060 -0.2208
 3094ntf    on519407   1.761   4.627   7.071  0.3743  0.0083 -0.0819
 3094ntf    fn419408   1.796   4.739   6.804 -0.4225  0.1999 -0.3634
 3094ntf    fn419409   1.895   4.557   6.812  0.7025  0.0527  0.1363
 3094ntf    fn419410   1.714   4.569   6.705  0.2262 -0.3091  0.4509
 3095ntf    cn119411   6.941   5.564   1.508 -0.1885 -0.1869  0.2637
 3095ntf    sn219412   6.777   5.640   1.494 -0.0713 -0.0083 -0.1438
 3095ntf    nn319413   6.828   5.788   1.483 -0.5719  0.1557 -0.2694
 3095ntf    sn219414   6.757   5.923   1.520 -0.0102  0.3218  0.2247
 3095ntf    cn119415   6.807   5.963   1.690 -0.1658  0.0424  0.3362
 3095ntf    fn419416   7.001   5.570   1.390 -0.1074  0.0114  0.3144
 3095ntf    fn419417   7.017   5.626   1.597 -0.1430  0.0725  0.0434
 3095ntf    fn419418   6.939   5.436   1.545  0.3176 -0.4819 -0.7025
 3095ntf    on519419   6.723   5.576   1.376 -1.0741  0.1051  0.2486
 3095ntf    on519420   6.716   5.605   1.620  0.1004  0.3042  0.0272
 3095ntf    on519421   6.613   5.929   1.530  0.0101  0.1845  0.5868
 3095ntf    on519422   6.807   6.033   1.440  0.4405 -0.1915 -0.2009
 3095ntf    fn419423   6.725   6.052   1.743 -0.5854  0.0011 -0.2253
 3095ntf    fn419424   6.800   5.857   1.769 -0.0100 -0.2779 -0.0762
 3095ntf    fn419425   6.929   6.011   1.705 -0.1772  0.0248  0.4862
 3096ntf    cn119426   6.701   0.103   2.495  0.2043  0.3378  0.3163
 3096ntf    sn219427   6.771   0.062   2.658  0.1377 -0.0186  0.2569
 3096ntf    nn319428   6.673  -0.054   2.697  0.2971 -0.2191  0.0647
 3096ntf    sn219429   6.674  -0.210   2.682 -0.1680 -0.2063 -0.1432
 3096ntf    cn119430   6.699  -0.259   2.855  0.1348  0.5265  0.0230
 3096ntf    fn419431   6.782   0.184   2.428 -0.2538  0.4440 -0.1143
 3096ntf    fn419432   6.683  -0.005   2.421 -0.0494  0.3479  0.3636
 3096ntf    fn419433   6.583   0.156   2.519  0.0089  0.0318  0.0328
 3096ntf    on519434   6.901   0.017   2.616 -0.1818 -0.7605  0.0503
 3096ntf    on519435   6.755   0.189   2.725  0.2545 -0.0139  0.2760
 3096ntf    on519436   6.791  -0.257   2.610 -0.3706  0.0705 -0.6589
 3096ntf    on519437   6.547  -0.266   2.644 -0.3082 -0.2674  0.4151
 3096ntf    fn419438   6.722  -0.389   2.861 -0.4407  0.4158 -0.1216
 3096ntf    fn419439   6.803  -0.211   2.922  0.2080  0.3101  0.0655
 3096ntf    fn419440   6.596  -0.230   2.933  0.4073  0.6078  0.3544
 3097ntf    cn119441   5.161   5.270   6.378 -0.5107 -0.0151 -0.4143
 3097ntf    sn219442   5.032   5.236   6.255 -0.1884 -0.3216 -0.6678
 3097ntf    nn319443   5.071   5.088   6.217  0.3346 -0.3383 -0.0830
 3097ntf    sn219444   4.975   4.967   6.189  0.0094 -0.1837  0.3509
 3097ntf    cn119445   5.013   4.955   6.012  0.1254  0.7000  0.3099
 3097ntf    fn419446   5.145   5.205   6.492 -0.0631  0.0827 -0.2947
 3097ntf    fn419447   5.286   5.255   6.337 -0.2252  0.9232  0.0858
 3097ntf    fn419448   5.150   5.396   6.417 -0.4989 -0.1309 -0.0304
 3097ntf    on519449   4.915   5.256   6.337  0.3757 -0.0971  0.0862
 3097ntf    on519450   5.061   5.332   6.151 -0.0851  0.2976 -0.0752
 3097ntf    on519451   4.832   4.984   6.193 -0.0275 -0.4298  0.1140
 3097ntf    on519452   5.023   4.846   6.251 -0.2995  0.0428  1.0400
 3097ntf    fn419453   4.998   5.070   5.949 -0.1304  0.3624 -0.2533
 3097ntf    fn419454   5.136   4.910   5.990 -0.1061  0.2504 -0.0926
 3097ntf    fn419455   4.934   4.872   5.946  0.4785  0.7576 -0.1899
 3098ntf    cn119456   0.551   1.601   0.719  0.1418  0.1526  0.1569
 3098ntf    sn219457   0.707   1.609   0.626 -0.0162 -0.1815 -0.1357
 3098ntf    nn319458   0.778   1.494   0.706 -0.0268 -0.3918 -0.4250
 3098ntf    sn219459   0.910   1.411   0.685  0.1005 -0.3344  0.1284
 3098ntf    cn119460   0.840   1.256   0.620 -0.1393 -0.1803  0.0157
 3098ntf    fn419461   0.566   1.641   0.845 -0.7236  0.7075  0.0914
 3098ntf    fn419462   0.458   1.684   0.675  0.0651  0.0680  0.1614
 3098ntf    fn419463   0.506   1.477   0.723  0.0061  0.1921 -0.1370
 3098ntf    on519464   0.663   1.577   0.493  0.4258 -0.3289 -0.2478
 3098ntf    on519465   0.760   1.738   0.661 -0.0085 -0.2891  0.2524
 3098ntf    on519466   0.976   1.374   0.808 -0.2018 -0.3539  0.2864
 3098ntf    on519467   0.991   1.463   0.578 -0.5893 -0.3106 -0.3947
 3098ntf    fn419468   0.932   1.174   0.571 -0.3336 -0.0971 -0.4900
 3098ntf    fn419469   0.772   1.187   0.710  0.4591 -0.0450  0.5844
 3098ntf    fn419470   0.758   1.284   0.520  0.0641 -0.0724 -0.1235
 3099ntf    cn119471   3.813   0.912   0.308  0.2221 -0.1608  0.1505
 3099ntf    sn219472   3.701   0.851   0.438  0.1593  0.0605  0.2014
 3099ntf    nn319473   3.574   0.801   0.361  0.6785  0.0203 -0.6470
 3099ntf    sn219474   3.551   0.656   0.307 -0.1696 -0.1419  0.1136
 3099ntf    cn119475   3.503   0.568   0.458  0.0316  0.2114  0.3847
 3099ntf    fn419476   3.739   0.975   0.218  0.7513  0.6067  0.2465
 3099ntf    fn419477   3.908   0.991   0.354  0.5179 -0.7390  0.5418
 3099ntf    fn419478   3.878   0.821   0.237 -0.2814 -0.3466 -0.0836
 3099ntf    on519479   3.769   0.753   0.520  0.2741  0.3194  0.4152
 3099ntf    on519480   3.666   0.966   0.518 -0.2218  0.0734  0.0151
 3099ntf    on519481   3.669   0.589   0.258  0.1332  0.3347  0.1876
 3099ntf    on519482   3.435   0.655   0.221 -0.3696  0.6018  0.3653
 3099ntf    fn419483   3.417   0.469   0.438  0.8434 -0.4743  0.1854
 3099ntf    fn419484   3.604   0.500   0.512  0.0430 -0.2074 -0.1513
 3099ntf    fn419485   3.443   0.649   0.543 -0.0691  0.5565 -0.0118
 3100ntf    cn119486   3.257   6.409   1.162  0.1919  0.2011  0.0943
 3100ntf    sn219487   3.356   6.498   1.038  0.2065 -0.0828 -0.0973
 3100ntf    nn319488   3.333   6.424   0.901  0.1963 -0.0589 -0.1084
 3100ntf    sn219489   3.330   6.497   0.762  0.1212  0.1492  0.0035
 3100ntf    cn119490   3.151   6.479   0.739  0.1650 -0.1533 -0.0989
 3100ntf    fn419491   3.290   6.281   1.167 -0.6123 -0.0120  0.0364
 3100ntf    fn419492   3.278   6.453   1.285  0.6359 -0.5226  0.2838
 3100ntf    fn419493   3.126   6.415   1.145  0.2169  0.5774  0.0227
 3100ntf    on519494   3.295   6.627   1.056 -0.4971 -0.4928  0.5137
 3100ntf    on519495   3.491   6.484   1.087  0.0474  0.1001  0.3966
 3100ntf    on519496   3.382   6.407   0.662  0.4560 -0.3711  0.6404
 3100ntf    on519497   3.356   6.639   0.752  0.1117  0.1378 -0.1848
 3100ntf    fn419498   3.107   6.528   0.625  0.4278 -0.6463 -0.4141
 3100ntf    fn419499   3.119   6.351   0.730  0.1125 -0.1290 -0.2649
 3100ntf    fn419500   3.080   6.529   0.839 -0.1744 -0.6001 -0.1129
 3101ntf    cn119501   7.004   6.906   3.390  0.1018 -0.0656 -0.4863
 3101ntf    sn219502   7.019   7.071   3.463 -0.2680 -0.1494 -0.2161
 3101ntf    nn319503   7.084   7.147   3.341 -0.4466  0.0455 -0.1921
 3101ntf    sn219504   7.219   7.225   3.326 -0.2576 -0.1993  0.2130
 3101ntf    cn119505   7.316   7.094   3.247 -0.2404 -0.0439 -0.0264
 3101ntf    fn419506   6.913   6.901   3.294  0.4274 -0.4487 -0.7801
 3101ntf    fn419507   7.121   6.853   3.357  0.0333 -0.2348 -0.4614
 3101ntf    fn419508   6.959   6.827   3.486  0.0684  0.5430 -0.0028
 3101ntf    on519509   6.883   7.106   3.495 -0.1205  0.3541 -0.1303
 3101ntf    on519510   7.101   7.056   3.580 -0.4230  0.1999 -0.0587
 3101ntf    on519511   7.296   7.259   3.443 -0.3833  0.7819  0.0242
 3101ntf    on519512   7.198   7.326   3.225 -0.4134 -0.0683  0.3742
 3101ntf    fn419513   7.249   7.023   3.157 -0.3102  0.2456 -0.2015
 3101ntf    fn419514   7.430   7.136   3.196  0.0898 -1.0332 -0.1355
 3101ntf    fn419515   7.351   7.002   3.336  0.5259 -0.1657 -0.4440
 3102ntf    cn119516   5.194   2.594   6.930 -0.1565 -0.2875 -0.3140
 3102ntf    sn219517   5.215   2.772   6.897 -0.4191 -0.2251 -0.1449
 3102ntf    nn319518   5.075   2.824   6.946 -0.3953  0.3251 -0.6440
 3102ntf    sn219519   5.023   2.912   7.066  0.0347 -0.1422 -0.1069
 3102ntf    cn119520   4.987   2.776   7.182  0.2834 -0.5541 -0.5073
 3102ntf    fn419521   5.289   2.511   6.891 -0.0169 -0.2071 -0.1460
 3102ntf    fn419522   5.177   2.577   7.060 -0.3168 -0.1129 -0.3111
 3102ntf    fn419523   5.080   2.546   6.884 -0.4062  0.2109 -0.2296
 3102ntf    on519524   5.326   2.814   6.980 -0.4847  0.4209 -0.3773
 3102ntf    on519525   5.229   2.782   6.754 -0.2728 -0.1749 -0.1269
 3102ntf    on519526   4.895   2.973   7.041  0.1134  0.2161  0.3671
 3102ntf    on519527   5.123   2.996   7.127  0.0348  0.1308 -0.4744
 3102ntf    fn419528   4.929   2.820   7.292 -0.0661 -0.6719 -0.6438
 3102ntf    fn419529   4.910   2.686   7.125 -0.5767 -0.1507  0.0096
 3102ntf    fn419530   5.103   2.722   7.215  0.1036 -0.2268  0.6845
 3103ntf    cn119531   1.772   6.827   1.246 -0.3482 -0.0624  0.1408
 3103ntf    sn219532   1.745   6.647   1.252 -0.1309 -0.0847  0.4721
 3103ntf    nn319533   1.835   6.595   1.134 -0.6007 -0.8882  0.4597
 3103ntf    sn219534   1.799   6.606   0.981 -0.1315  0.1192  0.4142
 3103ntf    cn119535   1.784   6.427   0.958 -0.2456  0.1462  0.2746
 3103ntf    fn419536   1.900   6.856   1.260 -0.4022  0.2462 -0.0023
 3103ntf    fn419537   1.742   6.880   1.129  0.0328  0.5192  0.3063
 3103ntf    fn419538   1.700   6.893   1.335 -0.2442  0.1667  0.0536
 3103ntf    on519539   1.797   6.599   1.377  0.5241 -0.2055  0.1567
 3103ntf    on519540   1.602   6.636   1.237 -0.1021  0.4404 -0.2212
 3103ntf    on519541   1.920   6.630   0.907 -0.5548  0.2778 -0.2322
 3103ntf    on519542   1.674   6.661   0.933 -0.1266 -0.2847 -0.0691
 3103ntf    fn419543   1.749   6.395   0.835 -0.2925  0.3836  0.2259
 3103ntf    fn419544   1.896   6.364   0.989 -0.0198  0.5815  0.3400
 3103ntf    fn419545   1.691   6.384   1.042 -0.3877  0.3421  0.2180
 3104ntf    cn119546   4.640   3.357   1.635 -0.0162  0.0808 -0.0405
 3104ntf    sn219547   4.459   3.359   1.619 -0.0117  0.0037 -0.1028
 3104ntf    nn319548   4.444   3.216   1.556 -0.1012  0.2148 -0.5594
 3104ntf    sn219549   4.414   3.165   1.410 -0.2294 -0.0251 -0.4506
 3104ntf    cn119550   4.236   3.198   1.400 -0.2005  0.3533  0.2522
 3104ntf    fn419551   4.685   3.442   1.726  0.7700 -0.4122  0.0359
 3104ntf    fn419552   4.682   3.241   1.682 -0.5573  0.0121  0.2759
 3104ntf    fn419553   4.707   3.385   1.524  0.0244  0.1365 -0.0021
 3104ntf    on519554   4.418   3.360   1.757 -0.1395 -0.2939 -0.1367
 3104ntf    on519555   4.443   3.469   1.527  0.6057 -0.0358 -0.2675
 3104ntf    on519556   4.426   3.024   1.386  0.2279 -0.0964  0.1716
 3104ntf    on519557   4.481   3.247   1.312  0.1053  0.0426 -0.1672
 3104ntf    fn419558   4.180   3.163   1.286  0.2291 -0.2629  0.2260
 3104ntf    fn419559   4.173   3.140   1.501  0.3804 -0.4340  0.1720
 3104ntf    fn419560   4.218   3.329   1.409  0.1784  0.5177 -1.1573
 3105ntf    cn119561   1.134   2.192   2.739  0.2107 -0.2304 -0.4575
 3105ntf    sn219562   1.055   2.035   2.696 -0.0470 -0.1930 -0.1223
 3105ntf    nn319563   1.093   2.028   2.544  0.5054  0.4164 -0.0167
 3105ntf    sn219564   1.123   1.893   2.469 -0.2431  0.1240  0.1973
 3105ntf    cn119565   1.303   1.875   2.491 -0.0996  0.6367 -0.5249
 3105ntf    fn419566   1.102   2.233   2.861  0.1817 -0.6750 -0.3172
 3105ntf    fn419567   1.265   2.173   2.741  0.1883 -0.3571  0.0064
 3105ntf    fn419568   1.109   2.297   2.662  0.3483 -0.0212 -0.2214
 3105ntf    on519569   1.115   1.940   2.786 -0.3275  0.0774  0.3563
 3105ntf    on519570   0.914   2.063   2.715  0.0102 -0.0419  0.0796
 3105ntf    on519571   1.113   1.911   2.326  0.1996 -0.0414  0.1432
 3105ntf    on519572   1.075   1.770   2.527 -0.3041  0.1932  0.2944
 3105ntf    fn419573   1.373   1.973   2.436  0.4281  0.2791 -0.5007
 3105ntf    fn419574   1.340   1.879   2.618  0.1627 -0.1036 -0.5737
 3105ntf    fn419575   1.342   1.757   2.446 -1.1370  0.2506 -0.4485
 3106ntf    cn119576   3.144   5.641   4.564 -0.1617  0.4158 -0.1762
 3106ntf    sn219577   3.033   5.505   4.614  0.2533  0.0153 -0.3392
 3106ntf    nn319578   2.980   5.565   4.749  0.3097 -0.1069 -0.2628
 3106ntf    sn219579   3.001   5.514   4.896  0.1899  0.0071 -0.2058
 3106ntf    cn119580   2.827   5.487   4.939  0.1646  0.4450 -0.0272
 3106ntf    fn419581   3.067   5.743   4.530 -0.5724  0.2560  0.2541
 3106ntf    fn419582   3.217   5.682   4.666  0.1318  0.0563 -0.2412
 3106ntf    fn419583   3.222   5.616   4.461 -0.0483 -0.0601  0.0228
 3106ntf    on519584   2.938   5.496   4.506  0.1289 -0.1956 -0.2102
 3106ntf    on519585   3.125   5.396   4.635  0.4072  0.2016 -0.0253
 3106ntf    on519586   3.038   5.626   4.979  0.4079 -0.1392 -0.1048
 3106ntf    on519587   3.066   5.386   4.911 -0.2922 -0.2790 -0.5419
 3106ntf    fn419588   2.751   5.595   4.947  0.0461  0.3704 -0.1509
 3106ntf    fn419589   2.766   5.420   4.843  0.1210  0.2963  0.1034
 3106ntf    fn419590   2.816   5.428   5.057  0.5605  0.1893 -0.1176
 3107ntf    cn119591   3.346   5.875   3.066 -0.1693  0.3440 -0.3081
 3107ntf    sn219592   3.408   5.791   3.215  0.0156  0.2655 -0.4277
 3107ntf    nn319593   3.382   5.906   3.319  0.6605 -0.1792  0.2373
 3107ntf    sn219594   3.479   6.017   3.375  0.5388  0.1660 -0.2292
 3107ntf    cn119595   3.445   5.978   3.549  0.3555 -0.3748 -0.3814
 3107ntf    fn419596   3.453   5.938   3.020 -0.0888  0.6303  0.2660
 3107ntf    fn419597   3.297   5.794   2.973 -0.2873  0.4800 -0.3636
 3107ntf    fn419598   3.271   5.981   3.090  0.2474  0.5540  0.0815
 3107ntf    on519599   3.319   5.679   3.232 -0.1363  0.3323 -0.7834
 3107ntf    on519600   3.542   5.749   3.182 -0.1235 -0.4637 -0.0866
 3107ntf    on519601   3.413   6.145   3.362 -0.3454 -0.2502  0.0577
 3107ntf    on519602   3.621   6.005   3.360  0.4911 -0.3544 -0.2926
 3107ntf    fn419603   3.546   6.025   3.621 -0.1626  0.1208  0.0369
 3107ntf    fn419604   3.333   6.025   3.602  0.5083 -0.3729 -0.0518
 3107ntf    fn419605   3.434   5.850   3.577 -0.7979 -0.0499  0.7694
 3108ntf    cn119606   5.147   4.556   1.716  0.4177  0.0101 -0.0256
 3108ntf    sn219607   4.997   4.634   1.781  0.4375  0.0750 -0.0582
 3108ntf    nn319608   5.039   4.678   1.926 -0.5234  0.4536  0.1145
 3108ntf    sn219609   5.017   4.585   2.051  0.2467 -0.3780 -0.3561
 3108ntf    cn119610   5.044   4.701   2.188 -0.1833 -0.4403 -0.2164
 3108ntf    fn419611   5.238   4.649   1.695  0.1806  0.1627 -0.3862
 3108ntf    fn419612   5.204   4.471   1.800  0.0792 -0.2933 -0.0967
 3108ntf    fn419613   5.127   4.500   1.598  0.4410 -0.2512  0.0931
 3108ntf    on519614   4.993   4.752   1.698  0.0207  0.1123  0.0097
 3108ntf    on519615   4.890   4.537   1.769  0.4501  0.1096 -0.4620
 3108ntf    on519616   5.122   4.488   2.063  0.3762 -0.1876  0.0458
 3108ntf    on519617   4.881   4.545   2.081  0.2663  0.0038  0.2521
 3108ntf    fn419618   5.072   4.634   2.299 -0.2644  0.4309  0.3390
 3108ntf    fn419619   5.149   4.777   2.161 -0.0413 -0.0530  1.3559
 3108ntf    fn419620   4.941   4.783   2.204 -0.5228 -0.9108  0.0415
 3109ntf    cn119621   0.931   5.801   2.288  0.2061  0.2158  0.2676
 3109ntf    sn219622   0.885   5.626   2.304 -0.1738  0.2566 -0.3337
 3109ntf    nn319623   0.947   5.586   2.443 -0.1321  0.0042 -0.4245
 3109ntf    sn219624   0.976   5.440   2.494  0.1112  0.2017  0.0031
 3109ntf    cn119625   0.955   5.456   2.674  0.1134  0.2421 -0.0003
 3109ntf    fn419626   0.884   5.885   2.379 -1.1089 -0.0233 -0.1682
 3109ntf    fn419627   1.062   5.815   2.291  0.3113 -0.5806 -0.2911
 3109ntf    fn419628   0.884   5.850   2.175  0.0067 -0.3883  0.0831
 3109ntf    on519629   0.741   5.629   2.301 -0.2070 -0.3062  0.2464
 3109ntf    on519630   0.952   5.564   2.192 -0.0346  0.2761 -0.2612
 3109ntf    on519631   1.112   5.396   2.481 -0.1174 -0.4769 -0.1371
 3109ntf    on519632   0.878   5.342   2.454  0.5411 -0.0382 -0.4615
 3109ntf    fn419633   0.827   5.470   2.706  0.0768 -0.1005  0.0053
 3109ntf    fn419634   1.000   5.345   2.730 -0.4699 -0.2583 -0.5120
 3109ntf    fn419635   1.031   5.556   2.715  0.2196  0.1138  0.1187
 3110ntf    cn119636   0.264   5.213   5.099 -0.0786 -0.4127 -0.1786
 3110ntf    sn219637   0.129   5.292   5.007 -0.0138 -0.2879 -0.1673
 3110ntf    nn319638   0.212   5.411   4.946 -0.5423  0.0193 -0.2938
 3110ntf    sn219639   0.200   5.560   4.995 -0.1686 -0.0528  0.0177
 3110ntf    cn119640   0.342   5.629   4.905 -0.0673  0.1260  0.3143
 3110ntf    fn419641   0.324   5.302   5.176  0.0916 -0.3752 -0.3531
 3110ntf    fn419642   0.219   5.128   5.190 -0.0637 -0.0784  0.1440
 3110ntf    fn419643   0.361   5.160   5.027  0.1235 -0.1417 -0.1062
 3110ntf    on519644   0.087   5.189   4.915  0.1812  0.2407 -0.8631
 3110ntf    on519645   0.031   5.330   5.105  0.2688  0.2434 -0.0884
 3110ntf    on519646   0.237   5.575   5.133  0.0950 -0.1571 -0.0398
 3110ntf    on519647   0.090   5.631   4.934  0.0961  0.2213 -0.1439
 3110ntf    fn419648   0.363   5.757   4.930 -0.1393  0.1409  0.3017
 3110ntf    fn419649   0.454   5.565   4.935  0.4959  0.7603 -0.3902
 3110ntf    fn419650   0.333   5.615   4.773  0.4149 -0.0723  0.2996
 3111ntf    cn119651   3.409   4.849   2.684 -0.2468 -0.0061  0.2387
 3111ntf    sn219652   3.478   4.971   2.568 -0.4271  0.0390  0.1773
 3111ntf    nn319653   3.572   5.034   2.676 -0.1786 -0.4775  0.2663
 3111ntf    sn219654   3.574   5.175   2.746 -0.0397 -0.3917  0.0893
 3111ntf    cn119655   3.748   5.168   2.799 -0.0999 -0.0033  0.3389
 3111ntf    fn419656   3.325   4.768   2.622 -0.2324 -0.3346  0.6462
 3111ntf    fn419657   3.507   4.773   2.728  0.0067  0.0116 -0.2854
 3111ntf    fn419658   3.355   4.899   2.794  0.1650  0.9192  0.0303
 3111ntf    on519659   3.547   4.895   2.466 -0.2554  0.4442 -0.0099
 3111ntf    on519660   3.376   5.061   2.521 -0.3745 -0.2837 -0.5788
 3111ntf    on519661   3.514   5.176   2.877  0.0507  0.6311  0.1279
 3111ntf    on519662   3.555   5.292   2.664 -0.8496  0.0589  0.9202
 3111ntf    fn419663   3.781   5.290   2.839 -0.1950  0.1682 -0.1026
 3111ntf    fn419664   3.769   5.085   2.900 -0.4842 -0.5955 -0.0597
 3111ntf    fn419665   3.830   5.137   2.699 -0.1113  0.0982  0.2975
 3112ntf    cn119666   5.958   1.192   5.525 -0.1952 -0.1597  0.1225
 3112ntf    sn219667   6.103   1.282   5.461 -0.2140 -0.1811  0.0508
 3112ntf    nn319668   6.109   1.414   5.545  0.4990 -0.0772 -0.1605
 3112ntf    sn219669   6.196   1.468   5.665  0.3955  0.2354 -0.2253
 3112ntf    cn119670   6.072   1.467   5.798  0.5317 -0.1938 -0.0974
 3112ntf    fn419671   5.861   1.279   5.548  0.2055  0.3169  0.0507
 3112ntf    fn419672   5.920   1.100   5.438  0.2988 -0.0017 -0.2656
 3112ntf    fn419673   5.978   1.138   5.644  0.1767  0.1409  0.2001
 3112ntf    on519674   6.215   1.196   5.488 -0.6232 -0.5910  0.4664
 3112ntf    on519675   6.072   1.305   5.322  0.0098 -0.0663  0.0189
 3112ntf    on519676   6.220   1.609   5.657  0.6500  0.1897 -0.2756
 3112ntf    on519677   6.293   1.373   5.713  0.0451  0.1275  0.2740
 3112ntf    fn419678   6.118   1.549   5.891  0.0590 -0.2629  0.2025
 3112ntf    fn419679   5.961   1.519   5.746  0.4208  0.0368  0.3692
 3112ntf    fn419680   6.043   1.349   5.850  0.1759 -0.2070 -0.3217
 3113ntf    cn119681   5.589   5.710   4.768 -0.0514 -0.0925  0.1299
 3113ntf    sn219682   5.525   5.549   4.823  0.0886 -0.0397  0.4480
 3113ntf    nn319683   5.560   5.462   4.696 -0.3850 -0.1097  0.3635
 3113ntf    sn219684   5.467   5.436   4.573  0.0593 -0.0936  0.0194
 3113ntf    cn119685   5.555   5.535   4.448 -0.6160 -0.0167 -0.4021
 3113ntf    fn419686   5.507   5.770   4.683  0.0632  0.2423  0.2546
 3113ntf    fn419687   5.598   5.792   4.871 -0.0081 -0.0557  0.0974
 3113ntf    fn419688   5.711   5.704   4.717  0.3069  0.3350  0.9285
 3113ntf    on519689   5.614   5.507   4.929 -0.2686 -0.4321  0.5947
 3113ntf    on519690   5.390   5.583   4.859 -0.0832  0.0113 -0.2262
 3113ntf    on519691   5.333   5.492   4.573 -0.0226 -0.2913 -0.2783
 3113ntf    on519692   5.479   5.298   4.535  0.6499 -0.2497  0.7484
 3113ntf    fn419693   5.677   5.496   4.416 -0.5195 -0.0285 -0.0222
 3113ntf    fn419694   5.493   5.531   4.331 -0.7993  0.4449 -0.3223
 3113ntf    fn419695   5.552   5.664   4.477  0.1998 -0.1461  0.2836
 3114ntf    cn119696   6.674   3.903   1.456  0.1463  0.4266  0.3852
 3114ntf    sn219697   6.735   3.793   1.587 -0.0376 -0.0787  0.0499
 3114ntf    nn319698   6.880   3.762   1.537 -0.1620 -0.2393 -0.2204
 3114ntf    sn219699   6.956   3.625   1.548  0.1315 -0.0305  0.4290
 3114ntf    cn119700   6.921   3.548   1.387  0.3365  0.2925  0.2313
 3114ntf    fn419701   6.576   3.982   1.497 -0.1671  0.3287 -0.1563
 3114ntf    fn419702   6.773   3.972   1.404  0.4585  0.1339  0.5844
 3114ntf    fn419703   6.623   3.830   1.357  0.2625  0.3715  0.3661
 3114ntf    on519704   6.727   3.875   1.705 -0.1116 -0.0352  0.0148
 3114ntf    on519705   6.649   3.677   1.578  0.3359 -0.3859  0.4198
 3114ntf    on519706   6.906   3.522   1.636 -0.4767  0.2598  0.4306
 3114ntf    on519707   7.098   3.649   1.539  0.0857 -0.0190 -0.3399
 3114ntf    fn419708   6.961   3.616   1.281  0.1293 -0.0456 -0.0639
 3114ntf    fn419709   6.975   3.430   1.364 -0.2094  0.0096  0.3906
 3114ntf    fn419710   6.792   3.527   1.368  0.5049 -0.4895 -0.0831
 3115ntf    cn119711   5.024   2.026   5.768  0.2175 -0.3530 -0.3700
 3115ntf    sn219712   5.185   2.109   5.777 -0.0350  0.0558  0.3839
 3115ntf    nn319713   5.208   2.129   5.624 -0.2107 -0.7178  0.2531
 3115ntf    sn219714   5.291   2.052   5.515 -0.1131 -0.1877 -0.0531
 3115ntf    cn119715   5.166   2.006   5.390  0.1769 -0.2926 -0.3071
 3115ntf    fn419716   4.933   2.088   5.694 -0.4119 -0.5427  0.2319
 3115ntf    fn419717   5.034   1.911   5.703 -0.1914 -0.7225  0.2086
 3115ntf    fn419718   4.969   1.995   5.885 -0.3178  0.4465 -0.4058
 3115ntf    on519719   5.156   2.237   5.838  0.8503  0.5565 -0.2319
 3115ntf    on519720   5.266   2.016   5.852  0.4462 -0.0069 -0.2086
 3115ntf    on519721   5.351   1.928   5.558 -0.2730 -0.1821  0.1875
 3115ntf    on519722   5.391   2.131   5.448 -0.5645 -0.0432 -0.5696
 3115ntf    fn419723   5.124   2.108   5.318  0.0139 -0.2705 -0.1805
 3115ntf    fn419724   5.203   1.918   5.298 -0.4027 -0.5509 -0.2940
 3115ntf    fn419725   5.058   1.951   5.442  0.4094 -0.1532  0.3303
 3116ntf    cn119726   2.567   0.561   4.386  0.0964  0.1563  0.6357
 3116ntf    sn219727   2.534   0.385   4.421 -0.5819  0.2113  0.3034
 3116ntf    nn319728   2.684   0.345   4.446 -0.3577  0.3631 -0.7536
 3116ntf    sn219729   2.789   0.270   4.357 -0.0094  0.2381 -0.2417
 3116ntf    cn119730   2.920   0.392   4.327  0.0616  0.2318  0.0447
 3116ntf    fn419731   2.626   0.620   4.488 -0.5124  0.5467  0.7674
 3116ntf    fn419732   2.640   0.581   4.278  0.6834 -0.3216  0.9389
 3116ntf    fn419733   2.456   0.628   4.357 -0.1216 -0.4175  0.1073
 3116ntf    on519734   2.458   0.381   4.543 -0.2099 -0.6657  0.5157
 3116ntf    on519735   2.463   0.324   4.312 -0.5342  0.4876  0.1159
 3116ntf    on519736   2.749   0.240   4.222 -0.5956 -0.2727  0.0393
 3116ntf    on519737   2.856   0.164   4.428 -0.4375  0.0940 -0.0479
 3116ntf    fn419738   3.042   0.363   4.369 -0.1417 -0.8765 -0.1026
 3116ntf    fn419739   2.934   0.409   4.197  0.1829 -0.2722 -0.0119
 3116ntf    fn419740   2.891   0.515   4.365 -0.1953  0.4732 -0.9108
 3117ntf    cn119741   3.839   3.563   4.457 -0.1980 -0.4656 -0.2968
 3117ntf    sn219742   3.748   3.651   4.326 -0.5907 -0.2042  0.1515
 3117ntf    nn319743   3.621   3.703   4.402  0.1300 -0.0869  1.2948
 3117ntf    sn219744   3.474   3.649   4.398  0.1216 -0.0045  0.3190
 3117ntf    cn119745   3.421   3.665   4.571  0.4335  0.2422  0.3897
 3117ntf    fn419746   3.880   3.642   4.554  0.2183 -0.6636 -0.3102
 3117ntf    fn419747   3.769   3.465   4.512  0.2088 -0.5892  0.0060
 3117ntf    fn419748   3.948   3.510   4.404  0.2716 -0.2152  0.4188
 3117ntf    on519749   3.826   3.766   4.288 -0.5527 -0.2890 -0.0291
 3117ntf    on519750   3.729   3.552   4.223  0.2495 -0.3046  0.0893
 3117ntf    on519751   3.457   3.507   4.379 -0.3118  0.0833  0.0279
 3117ntf    on519752   3.389   3.738   4.323 -0.1344 -0.3683  0.1683
 3117ntf    fn419753   3.408   3.792   4.606 -0.3593  0.1305  0.5122
 3117ntf    fn419754   3.302   3.610   4.589  0.4968 -0.0750 -0.1420
 3117ntf    fn419755   3.501   3.601   4.655  0.3570 -0.3170  0.0405
 3118ntf    cn119756   0.755   4.441   6.411 -0.2714  0.0365  0.0353
 3118ntf    sn219757   0.844   4.423   6.254 -0.0281  0.2140  0.1529
 3118ntf    nn319758   0.896   4.569   6.224  0.0793  0.0440 -0.4989
 3118ntf    sn219759   1.001   4.651   6.306 -0.1438  0.1106 -0.2776
 3118ntf    cn119760   1.153   4.624   6.209 -0.0492 -0.1788 -0.0521
 3118ntf    fn419761   0.653   4.524   6.397 -0.4563 -0.1790  0.0974
 3118ntf    fn419762   0.697   4.329   6.450 -0.1169  0.0366  0.2675
 3118ntf    fn419763   0.824   4.480   6.518 -0.6894  0.4653  0.1561
 3118ntf    on519764   0.944   4.322   6.278 -0.0076  0.1675 -0.1278
 3118ntf    on519765   0.743   4.391   6.157 -0.3932 -0.2102  0.6695
 3118ntf    on519766   1.037   4.587   6.431  0.1844  0.7412 -0.0427
 3118ntf    on519767   0.973   4.792   6.308 -0.4121  0.0550  0.1965
 3118ntf    fn419768   1.160   4.710   6.110  0.0424  0.1915  0.2731
 3118ntf    fn419769   1.258   4.652   6.285  0.1764  0.0597 -0.4513
 3118ntf    fn419770   1.166   4.502   6.160 -0.2620 -0.3184  0.2300
 3119ntf    cn119771   5.966   4.555   6.301 -0.1059 -0.1746  0.1125
 3119ntf    sn219772   5.860   4.483   6.430 -0.2038  0.0468  0.1561
 3119ntf    nn319773   5.854   4.328   6.405 -0.1559 -0.0441  0.6898
 3119ntf    sn219774   5.928   4.205   6.468  0.1488 -0.4186 -0.3784
 3119ntf    cn119775   5.828   4.182   6.618  0.2715 -0.0072 -0.2323
 3119ntf    fn419776   5.928   4.527   6.178  0.1136  0.6037 -0.1400
 3119ntf    fn419777   5.966   4.687   6.304 -0.0656 -0.1807  0.5278
 3119ntf    fn419778   6.093   4.519   6.318 -0.1149 -0.4515 -0.4029
 3119ntf    on519779   5.932   4.515   6.551  0.2181  0.8459 -0.2971
 3119ntf    on519780   5.731   4.543   6.403 -0.1536  0.0748 -0.0256
 3119ntf    on519781   6.060   4.240   6.513 -0.1198 -0.1259  0.1856
 3119ntf    on519782   5.915   4.084   6.390  0.6441 -0.0262 -1.0788
 3119ntf    fn419783   5.848   4.259   6.723 -0.5240  0.0120 -0.0844
 3119ntf    fn419784   5.696   4.186   6.605  0.2822  0.7836 -0.1545
 3119ntf    fn419785   5.860   4.066   6.673 -0.3797 -0.0891 -0.0201
 3120ntf    cn119786   4.947   5.312   5.434  0.1093 -0.8109  0.3335
 3120ntf    sn219787   5.050   5.319   5.285 -0.2880  0.0843  0.0979
 3120ntf    nn319788   5.119   5.460   5.295 -0.0057 -0.0499  0.0540
 3120ntf    sn219789   5.068   5.599   5.242 -0.1643 -0.2262 -0.2579
 3120ntf    cn119790   5.095   5.689   5.397  0.1406 -0.1198 -0.3718
 3120ntf    fn419791   4.848   5.399   5.422  0.4718 -0.3908  0.3509
 3120ntf    fn419792   4.900   5.193   5.467  0.0971 -0.8426  0.1999
 3120ntf    fn419793   5.018   5.354   5.538 -0.1498  0.1404  0.1323
 3120ntf    on519794   5.149   5.217   5.304 -0.3982 -0.0854 -0.2260
 3120ntf    on519795   4.966   5.296   5.170 -0.4797 -0.0391  0.2636
 3120ntf    on519796   4.928   5.627   5.220 -0.3204 -0.2554  0.6645
 3120ntf    on519797   5.162   5.657   5.150 -0.5429 -0.0131 -0.5156
 3120ntf    fn419798   5.064   5.817   5.403  1.2539  0.1245  0.4320
 3120ntf    fn419799   5.026   5.629   5.493  0.2571 -0.0015 -0.2136
 3120ntf    fn419800   5.221   5.688   5.438  0.0121  0.6744  0.0632
 3121ntf    cn119801   5.040   4.007   6.125  0.3764  0.1188 -0.4812
 3121ntf    sn219802   5.179   4.016   6.243  0.0581 -0.2951 -0.0736
 3121ntf    nn319803   5.190   4.169   6.273  0.1531 -0.4109  0.4846
 3121ntf    sn219804   5.175   4.248   6.409  0.1542  0.1998  0.1351
 3121ntf    cn119805   5.322   4.192   6.500  0.0536 -0.2545  0.0263
 3121ntf    fn419806   5.067   4.061   6.007  0.7042  0.3622 -0.2962
 3121ntf    fn419807   5.012   3.878   6.109  0.2309  0.1366 -0.3676
 3121ntf    fn419808   4.926   4.056   6.168  0.1196 -0.1621 -0.8355
 3121ntf    on519809   5.133   3.938   6.355  0.2541 -0.5926 -0.1987
 3121ntf    on519810   5.288   3.962   6.165 -0.1065 -0.0119 -0.5067
 3121ntf    on519811   5.071   4.209   6.501 -0.2512  0.2737 -0.2888
 3121ntf    on519812   5.187   4.391   6.399  0.6661  0.1692  0.2660
 3121ntf    fn419813   5.332   4.061   6.494 -0.0427 -0.2447 -0.3877
 3121ntf    fn419814   5.430   4.247   6.447  0.0295 -0.2145  0.0190
 3121ntf    fn419815   5.317   4.228   6.627  0.8306 -0.2764  0.0669
 3122ntf    cn119816   3.297   0.216   2.729  0.2521 -0.2571 -0.4346
 3122ntf    sn219817   3.348   0.173   2.898  0.3845  0.0476 -0.3959
 3122ntf    nn319818   3.448   0.058   2.861 -0.0833 -0.3721 -0.3714
 3122ntf    sn219819   3.589   0.024   2.922 -0.2029 -0.2901 -0.0461
 3122ntf    cn119820   3.557  -0.147   2.976 -0.1122 -0.3446 -0.1649
 3122ntf    fn419821   3.226   0.328   2.729  0.7546  0.0708  0.1688
 3122ntf    fn419822   3.394   0.240   2.642  0.4151  0.3704 -0.0907
 3122ntf    fn419823   3.223   0.125   2.669  0.0392 -0.1184 -0.3829
 3122ntf    on519824   3.402   0.300   2.941 -0.1658  0.0679  0.2640
 3122ntf    on519825   3.226   0.135   2.965  0.6130  0.0679  0.0387
 3122ntf    on519826   3.633   0.100   3.037  0.3377  0.0229 -0.4557
 3122ntf    on519827   3.685   0.003   2.817  0.1535  0.6895  0.0772
 3122ntf    fn419828   3.461  -0.168   3.064 -0.2009 -0.0499 -0.1889
 3122ntf    fn419829   3.525  -0.215   2.867  0.0229  0.8928 -1.0067
 3122ntf    fn419830   3.663  -0.211   3.021  0.0323  0.3879  0.5509
 3123ntf    cn119831   4.619   5.908   6.496  0.3109 -0.2163 -0.0324
 3123ntf    sn219832   4.661   5.734   6.523  0.2268 -0.2618 -0.1953
 3123ntf    nn319833   4.561   5.700   6.639 -0.0585  0.2717 -0.2858
 3123ntf    sn219834   4.586   5.688   6.793 -0.0104  0.4608 -0.2781
 3123ntf    cn119835   4.644   5.516   6.808 -0.3329  0.3549 -0.2446
 3123ntf    fn419836   4.489   5.932   6.480  0.3237  0.2327  0.5018
 3123ntf    fn419837   4.662   5.985   6.594  0.3933  0.1270 -0.3341
 3123ntf    fn419838   4.674   5.948   6.382  0.3481  0.0398  0.0740
 3123ntf    on519839   4.625   5.676   6.396  0.1509 -0.2342 -0.1860
 3123ntf    on519840   4.796   5.726   6.573  0.0023  0.4674  0.5383
 3123ntf    on519841   4.455   5.682   6.854 -0.0233 -0.7265 -0.4125
 3123ntf    on519842   4.685   5.772   6.856  0.1356  0.1830 -0.1363
 3123ntf    fn419843   4.759   5.500   6.746 -0.5043  0.2328 -0.5316
 3123ntf    fn419844   4.668   5.465   6.928 -0.5121  0.1627 -0.2914
 3123ntf    fn419845   4.564   5.427   6.751 -0.0811 -0.0496  0.0270
 3124ntf    cn119846   6.376   1.649   0.352  0.2182 -0.1829  0.1620
 3124ntf    sn219847   6.421   1.659   0.528  0.1689 -0.2131  0.1761
 3124ntf    nn319848   6.576   1.634   0.519  0.2118  0.1628 -0.1717
 3124ntf    sn219849   6.671   1.552   0.613 -0.1562 -0.1066 -0.0337
 3124ntf    cn119850   6.747   1.682   0.715 -0.0105  0.5075 -0.9101
 3124ntf    fn419851   6.391   1.529   0.299  0.2256 -0.4100  0.6781
 3124ntf    fn419852   6.257   1.699   0.323  0.3654  0.2392  0.2686
 3124ntf    fn419853   6.454   1.731   0.283 -0.3185  0.0753 -0.1486
 3124ntf    on519854   6.382   1.793   0.564 -0.2397 -0.2360 -0.1746
 3124ntf    on519855   6.348   1.551   0.589 -0.1906  0.3628  0.7723
 3124ntf    on519856   6.776   1.500   0.529  0.0956 -0.1555  0.3085
 3124ntf    on519857   6.616   1.449   0.698 -0.0981  0.2304  0.4146
 3124ntf    fn419858   6.837   1.754   0.651  0.5456  0.2671 -0.4127
 3124ntf    fn419859   6.650   1.763   0.751  0.0093  0.3357 -0.4598
 3124ntf    fn419860   6.811   1.630   0.819 -0.6630 -0.1504 -0.8264
 3125ntf    cn119861   1.748   2.581   6.708 -0.2428  0.2959  0.0834
 3125ntf    sn219862   1.915   2.542   6.769 -0.3589  0.0171  0.2234
 3125ntf    nn319863   1.906   2.605   6.912 -0.6151  0.5185 -0.0101
 3125ntf    sn219864   1.869   2.537   7.049  0.0973  0.0083 -0.0642
 3125ntf    cn119865   1.960   2.640   7.168  0.1782 -0.3814  0.2115
 3125ntf    fn419866   1.727   2.702   6.658 -0.1270  0.2090 -0.1806
 3125ntf    fn419867   1.715   2.494   6.614  0.3391  0.3425 -0.1677
 3125ntf    fn419868   1.663   2.558   6.806 -0.0000 -0.5386  0.1072
 3125ntf    on519869   1.920   2.398   6.765  0.1793  0.0373  0.2015
 3125ntf    on519870   2.006   2.611   6.682  0.0015 -0.7973 -0.0511
 3125ntf    on519871   1.932   2.409   7.070 -0.5145 -0.3826 -0.5811
 3125ntf    on519872   1.729   2.547   7.083  0.0918 -0.0788 -0.0625
 3125ntf    fn419873   2.087   2.644   7.133 -0.0349  0.0923 -0.5395
 3125ntf    fn419874   1.917   2.765   7.157  0.0135 -0.4603 -0.0481
 3125ntf    fn419875   1.952   2.600   7.294  0.1322  0.2060  0.4010
 3126ntf    cn119876   4.898   1.915   6.496  0.0614  0.0831 -0.1182
 3126ntf    sn219877   4.825   2.029   6.618 -0.1005 -0.3102  0.1513
 3126ntf    nn319878   4.936   2.025   6.730  0.1852  0.1353 -0.1168
 3126ntf    sn219879   4.964   2.128   6.845  0.0760  0.1947 -0.1430
 3126ntf    cn119880   5.110   2.211   6.775  0.1451  0.0197 -0.2077
 3126ntf    fn419881   4.803   1.857   6.424 -0.3635  0.6721 -0.0398
 3126ntf    fn419882   4.971   1.985   6.411 -0.0099  0.1217 -0.1488
 3126ntf    fn419883   4.973   1.816   6.540 -0.2045  0.1213  0.4245
 3126ntf    on519884   4.809   2.155   6.551  0.1998 -0.2789  0.1349
 3126ntf    on519885   4.706   1.957   6.657 -0.3342  0.0545  0.1119
 3126ntf    on519886   5.016   2.061   6.961  0.4532  0.0134 -0.4150
 3126ntf    on519887   4.860   2.226   6.865  0.0707  0.0808  0.3863
 3126ntf    fn419888   5.084   2.261   6.655 -0.4266 -0.0538 -0.1173
 3126ntf    fn419889   5.162   2.309   6.847 -0.0262 -0.3324  0.3991
 3126ntf    fn419890   5.205   2.120   6.756  0.2096  0.0646 -0.1037
 3127ntf    cn119891   1.605   0.637   3.209 -0.1388 -0.2809 -0.1895
 3127ntf    sn219892   1.690   0.710   3.352 -0.0158  0.0685 -0.4393
 3127ntf    nn319893   1.830   0.640   3.335 -0.0650 -0.1302 -0.0481
 3127ntf    sn219894   1.977   0.683   3.370 -0.0361 -0.2264 -0.0510
 3127ntf    cn119895   1.984   0.568   3.510 -0.1549  0.1286  0.2462
 3127ntf    fn419896   1.496   0.702   3.172  0.1340  0.3535  0.0991
 3127ntf    fn419897   1.681   0.630   3.101  0.4463 -0.2483  0.2159
 3127ntf    fn419898   1.565   0.513   3.233  0.1487 -0.3128  0.1255
 3127ntf    on519899   1.691   0.851   3.323 -0.0214  0.0921 -0.3251
 3127ntf    on519900   1.610   0.666   3.463  0.5361 -0.3090 -0.1832
 3127ntf    on519901   1.998   0.811   3.432  0.6521  0.1468 -1.0366
 3127ntf    on519902   2.079   0.633   3.281 -0.1026  0.1760 -0.3599
 3127ntf    fn419903   2.101   0.569   3.572  0.1157 -0.4031 -0.2472
 3127ntf    fn419904   1.888   0.581   3.600 -0.3067  0.0803  0.0914
 3127ntf    fn419905   1.971   0.442   3.474  0.1008  0.1763 -0.0196
 3128ntf    cn119906   1.787   3.409   6.544  0.0801  0.0453 -0.1628
 3128ntf    sn219907   1.762   3.417   6.364  0.2568 -0.3657 -0.2044
 3128ntf    nn319908   1.820   3.276   6.326  0.3852 -0.3183 -0.1850
 3128ntf    sn219909   1.775   3.132   6.371 -0.0274 -0.1475 -0.0535
 3128ntf    cn119910   1.779   3.059   6.205  0.0123 -0.4181  0.0667
 3128ntf    fn419911   1.740   3.298   6.598  0.0754  0.0765 -0.1026
 3128ntf    fn419912   1.913   3.409   6.584  0.0439  0.0596 -0.0470
 3128ntf    fn419913   1.731   3.507   6.614  0.4087  0.2434 -0.1766
 3128ntf    on519914   1.623   3.430   6.332  0.2741 -0.2809 -0.2453
 3128ntf    on519915   1.842   3.532   6.328  0.1534 -0.1249  0.3279
 3128ntf    on519916   1.637   3.118   6.411 -0.1531  0.2302 -0.3414
 3128ntf    on519917   1.878   3.057   6.437 -0.0387  0.0179  0.1538
 3128ntf    fn419918   1.681   3.098   6.124  0.1636 -0.0867  0.0433
 3128ntf    fn419919   1.892   3.093   6.146 -0.2038  0.3682  0.0980
 3128ntf    fn419920   1.780   2.927   6.210 -0.3694 -0.4557 -0.5991
 3129ntf    cn119921   5.580   4.760   0.002  0.0248 -0.3161  0.3102
 3129ntf    sn219922   5.753   4.706  -0.001  0.1779  0.1841 -0.1535
 3129ntf    nn319923   5.781   4.688   0.152  0.3273  0.2963 -0.1676
 3129ntf    sn219924   5.914   4.715   0.231  0.2777 -0.0320  0.0320
 3129ntf    cn119925   5.837   4.815   0.362  0.0186  0.5573 -0.5634
 3129ntf    fn419926   5.495   4.667   0.041  0.2829 -0.6373  0.1054
 3129ntf    fn419927   5.554   4.857   0.088 -0.2431 -0.1823  0.0807
 3129ntf    fn419928   5.544   4.804  -0.118 -0.0041 -0.6063  0.2116
 3129ntf    on519929   5.739   4.582  -0.074 -0.4352  0.1371  0.0339
 3129ntf    on519930   5.825   4.808  -0.073  0.3454  0.0119 -0.2315
 3129ntf    on519931   6.000   4.811   0.167  0.0254  0.1225 -0.0757
 3129ntf    on519932   5.971   4.598   0.293 -0.2964 -0.3238  0.0188
 3129ntf    fn419933   5.757   4.740   0.436  0.4374  0.0230 -0.6460
 3129ntf    fn419934   5.923   4.877   0.442 -0.4083  0.8839 -0.3527
 3129ntf    fn419935   5.747   4.903   0.320 -0.4239  0.5208  0.2864
 3130ntf    cn119936   6.342   0.145   5.012 -0.1659 -0.5106 -0.1395
 3130ntf    sn219937   6.166   0.155   4.968 -0.2105 -0.2006  0.1018
 3130ntf    nn319938   6.179   0.187   4.815 -0.1575 -0.0145  0.1436
 3130ntf    sn219939   6.199   0.086   4.696  0.2711 -0.0863  0.2771
 3130ntf    cn119940   6.350   0.160   4.625  0.1181  0.1265  0.1710
 3130ntf    fn419941   6.353   0.121   5.142 -0.5943 -0.1758 -0.0379
 3130ntf    fn419942   6.401   0.041   4.956 -0.1366 -0.4198 -0.2761
 3130ntf    fn419943   6.409   0.256   4.986  0.1227 -0.7658 -0.4860
 3130ntf    on519944   6.112   0.030   5.013  0.2895 -0.3009  0.4370
 3130ntf    on519945   6.109   0.269   5.036 -0.3532  0.1115 -0.5300
 3130ntf    on519946   6.097   0.100   4.595  0.1587  0.4079  0.4550
 3130ntf    on519947   6.235  -0.051   4.721 -0.7479 -0.2765  0.7444
 3130ntf    fn419948   6.329   0.288   4.603  0.0582  0.0573 -0.1826
 3130ntf    fn419949   6.452   0.141   4.707  0.1463  0.3631  0.1906
 3130ntf    fn419950   6.378   0.105   4.508 -0.0891  0.5318 -0.0691
 3131ntf    cn119951   1.308   2.532   0.601  0.0019 -0.2154 -0.4472
 3131ntf    sn219952   1.145   2.502   0.677  0.0260  0.1922 -0.2315
 3131ntf    nn319953   1.052   2.549   0.560  0.2253  0.0992 -0.4302
 3131ntf    sn219954   0.952   2.456   0.481  0.0371 -0.0247 -0.0506
 3131ntf    cn119955   0.866   2.589   0.393  0.5050  0.4831  0.2501
 3131ntf    fn419956   1.315   2.478   0.480 -0.1053  0.0867 -0.5902
 3131ntf    fn419957   1.313   2.663   0.582  0.0516 -0.1061  0.3035
 3131ntf    fn419958   1.414   2.494   0.669 -0.2143 -0.0155  0.0042
 3131ntf    on519959   1.152   2.360   0.703  0.0682  0.2296 -0.0380
 3131ntf    on519960   1.149   2.589   0.792 -0.1600  0.0597 -0.1236
 3131ntf    on519961   0.850   2.395   0.562  0.4240  0.0873  0.5319
 3131ntf    on519962   1.011   2.373   0.379 -0.1071  0.0801 -0.2188
 3131ntf    fn419963   0.758   2.547   0.328  0.7010  0.3618 -0.0018
 3131ntf    fn419964   0.840   2.699   0.461 -0.8539  0.0136  0.5156
 3131ntf    fn419965   0.945   2.633   0.296  0.3686 -0.2017 -0.1724
 3132ntf    cn119966   0.127   5.930   3.763 -0.3204 -0.1058 -0.1372
 3132ntf    sn219967   0.043   5.770   3.741 -0.3794 -0.1238  0.2129
 3132ntf    nn319968   0.021   5.724   3.890 -0.7142 -0.2438  0.1262
 3132ntf    sn219969  -0.098   5.765   3.983 -0.3682  0.2768  0.3408
 3132ntf    cn119970  -0.004   5.865   4.102 -0.0406 -0.1530  0.4429
 3132ntf    fn419971   0.162   5.983   3.648 -0.2626  0.2106  0.0251
 3132ntf    fn419972   0.054   6.012   3.838 -1.1062 -0.4541 -0.5050
 3132ntf    fn419973   0.245   5.910   3.820 -0.3127 -0.7711 -0.3760
 3132ntf    on519974  -0.077   5.807   3.671 -0.3534  0.0925  0.2827
 3132ntf    on519975   0.139   5.694   3.664  0.0020  0.3032  0.2614
 3132ntf    on519976  -0.145   5.649   4.054  0.0029  0.1643  0.4056
 3132ntf    on519977  -0.184   5.870   3.935  0.3462  0.4547 -0.5734
 3132ntf    fn419978   0.095   5.935   4.049 -0.0667 -0.2589  0.2531
 3132ntf    fn419979  -0.085   5.955   4.155  0.1115  0.6062 -0.5879
 3132ntf    fn419980   0.048   5.795   4.202  0.3575  0.4338  0.6546
 3133ntf    cn119981   1.164   3.741   5.400 -0.0424 -0.3706  0.1564
 3133ntf    sn219982   1.106   3.637   5.263 -0.1335  0.0290 -0.1111
 3133ntf    nn319983   1.171   3.724   5.149  0.7007  0.1220  0.4253
 3133ntf    sn219984   1.106   3.849   5.080  0.4427 -0.1658  0.1395
 3133ntf    cn119985   1.060   3.776   4.920 -0.1650 -0.1516  0.3050
 3133ntf    fn419986   1.084   3.846   5.413  0.5490  0.0955  0.0601
 3133ntf    fn419987   1.174   3.683   5.519 -0.0878  0.0487  0.3684
 3133ntf    fn419988   1.281   3.794   5.370 -0.1802 -0.4382 -0.5110
 3133ntf    on519989   1.184   3.516   5.273  0.1007  0.1621 -0.3236
 3133ntf    on519990   0.964   3.628   5.285 -0.1853  0.5462 -0.2320
 3133ntf    on519991   1.196   3.957   5.048 -0.3124  0.4830  0.1627
 3133ntf    on519992   0.976   3.892   5.125  0.1852 -0.1858 -0.5757
 3133ntf    fn419993   1.165   3.733   4.852 -0.5457 -0.4259 -0.1150
 3133ntf    fn419994   0.978   3.674   4.934 -0.5751  0.1283 -0.0522
 3133ntf    fn419995   0.998   3.855   4.835 -0.1670 -0.0930  0.3606
 3134ntf    cn119996   6.905   2.178   6.103  0.0636  0.3709  0.1136
 3134ntf    sn219997   6.861   2.305   6.226  0.2550  0.2237  0.3344
 3134ntf    nn319998   7.006   2.351   6.261  0.4608  0.1196 -0.3635
 3134ntf    sn219999   7.084   2.487   6.245  0.5779  0.0946 -0.0212
 3134ntf    cn120000   7.180   2.463   6.093  0.0522 -0.0264 -0.3364
 3134ntf    fn420001   6.858   2.059   6.136 -0.8206  0.4919 -0.6410
 3134ntf    fn420002   6.858   2.197   5.981  0.1151  0.1756  0.0640
 3134ntf    fn420003   7.035   2.164   6.084 -0.0074 -0.0483 -0.0620
 3134ntf    on520004   6.771   2.394   6.156 -0.1747 -0.5767 -0.1496
 3134ntf    on520005   6.818   2.213   6.329  0.0818  0.1766  0.2201
 3134ntf    on520006   7.175   2.511   6.355  0.2851 -0.0990  0.2657
 3134ntf    on520007   6.993   2.591   6.205  0.5334 -0.1906 -0.6684
 3134ntf    fn420008   7.272   2.370   6.113  0.2154  0.1728 -0.1589
 3134ntf    fn420009   7.109   2.428   5.987  0.0584 -0.5324 -0.1795
 3134ntf    fn420010   7.244   2.574   6.062  0.0273  0.1615  0.2704
 3135ntf    cn120011   2.452   2.995   2.335 -0.3779 -0.3239 -0.2357
 3135ntf    sn220012   2.582   3.080   2.241 -0.1757 -0.4430 -0.0669
 3135ntf    nn320013   2.705   3.019   2.316  0.0531  0.4521  0.2937
 3135ntf    sn220014   2.771   2.880   2.285  0.2426  0.5558  0.2282
 3135ntf    cn120015   2.919   2.917   2.186  0.1060 -0.0524 -0.2111
 3135ntf    fn420016   2.456   2.862   2.330 -0.0866 -0.3336  0.2010
 3135ntf    fn420017   2.451   3.034   2.461 -0.2657  0.0971 -0.3624
 3135ntf    fn420018   2.329   3.024   2.296 -0.2019  0.1985 -0.4086
 3135ntf    on520019   2.554   3.039   2.105  0.3735  0.1906 -0.3783
 3135ntf    on520020   2.568   3.220   2.273 -0.1126 -0.3218 -0.5581
 3135ntf    on520021   2.696   2.794   2.197  0.0873  0.7820  0.1383
 3135ntf    on520022   2.819   2.813   2.403 -0.6513 -0.2705  0.1341
 3135ntf    fn420023   2.996   2.997   2.258  0.5325 -0.5149 -0.1488
 3135ntf    fn420024   2.990   2.813   2.146  0.1449 -0.1290  0.0505
 3135ntf    fn420025   2.890   2.982   2.075  0.0919 -0.0585 -0.2112
 3136ntf    cn120026   2.265   3.620   4.973 -0.0187  0.1516 -0.0159
 3136ntf    sn220027   2.134   3.726   4.905 -0.0081  0.1595 -0.0243
 3136ntf    nn320028   2.171   3.862   4.974  0.3821  0.1347 -0.1875
 3136ntf    sn220029   2.123   3.921   5.111  0.1692  0.1864 -0.2845
 3136ntf    cn120030   1.988   4.036   5.073 -0.0928 -0.0146  0.0305
 3136ntf    fn420031   2.384   3.651   4.924  0.1413  0.1669  0.3797
 3136ntf    fn420032   2.289   3.622   5.103  1.1524 -0.1884 -0.2151
 3136ntf    fn420033   2.232   3.493   4.951  0.1674  0.2299 -0.7648
 3136ntf    on520034   2.162   3.722   4.764 -0.2271 -0.4712 -0.0538
 3136ntf    on520035   2.006   3.670   4.942 -0.2898  0.6955 -0.1762
 3136ntf    on520036   2.215   4.002   5.186 -0.1807  0.5209 -0.2123
 3136ntf    on520037   2.061   3.822   5.196  0.2228 -0.3153 -0.8180
 3136ntf    fn420038   1.929   4.087   5.180  0.5341  0.2001  0.2747
 3136ntf    fn420039   2.027   4.143   5.005 -0.0964 -0.2486 -0.3432
 3136ntf    fn420040   1.898   3.968   5.004  0.0943  0.4943 -0.7290
 3137ntf    cn120041   0.424   0.442   4.510  0.1582 -0.1363  0.3034
 3137ntf    sn220042   0.578   0.473   4.418 -0.0689  0.0068 -0.0337
 3137ntf    nn320043   0.530   0.598   4.337 -0.7021  0.1719  0.5824
 3137ntf    sn220044   0.590   0.743   4.343 -0.0957 -0.0622  0.2875
 3137ntf    cn120045   0.734   0.725   4.233 -0.1818 -0.3029  0.2134
 3137ntf    fn420046   0.435   0.367   4.618 -0.0765 -0.2919  0.2217
 3137ntf    fn420047   0.366   0.555   4.548 -0.1241 -0.3720  0.5811
 3137ntf    fn420048   0.329   0.385   4.437 -0.1019  0.1647  0.4049
 3137ntf    on520049   0.678   0.494   4.520 -0.0483  0.2459 -0.1017
 3137ntf    on520050   0.595   0.355   4.337  0.3995  0.2232 -0.2497
 3137ntf    on520051   0.647   0.791   4.466 -0.3321 -0.1810  0.4426
 3137ntf    on520052   0.495   0.826   4.273  0.1302  0.0081  0.0621
 3137ntf    fn420053   0.816   0.829   4.236 -0.0830 -0.3610 -0.3266
 3137ntf    fn420054   0.796   0.616   4.274  0.0214 -0.3751 -0.2781
 3137ntf    fn420055   0.685   0.697   4.113  0.4160  0.2675 -0.1707
 3138ntf    cn120056   4.318   4.356   5.130 -0.1570 -0.1023  0.4241
 3138ntf    sn220057   4.445   4.230   5.096  0.1470  0.2417  0.2875
 3138ntf    nn320058   4.530   4.313   4.993 -0.1475  0.1544 -0.0270
 3138ntf    sn220059   4.628   4.260   4.881  0.0804  0.3797  0.0637
 3138ntf    cn120060   4.794   4.275   4.953  0.1495 -0.4498  0.0926
 3138ntf    fn420061   4.240   4.313   5.228 -0.3326 -0.0338  0.3144
 3138ntf    fn420062   4.371   4.472   5.167  0.0632 -0.1393  0.2310
 3138ntf    fn420063   4.229   4.371   5.034  0.1224 -0.4228  0.1093
 3138ntf    on520064   4.506   4.192   5.221 -0.0848 -0.2854  0.2412
 3138ntf    on520065   4.365   4.132   5.027  0.0861  0.0366  0.6466
 3138ntf    on520066   4.638   4.348   4.768  0.8466  0.3202  0.0842
 3138ntf    on520067   4.618   4.119   4.852 -0.6425  0.5182 -0.3987
 3138ntf    fn420068   4.799   4.213   5.070  0.1770 -0.4080  0.1136
 3138ntf    fn420069   4.886   4.222   4.874 -0.2526 -0.1913 -0.5562
 3138ntf    fn420070   4.833   4.401   4.965  0.2106 -0.4476 -0.1214
 3139ntf    cn120071   3.854   5.270   2.082  0.2721  0.3516 -0.0935
 3139ntf    sn220072   3.781   5.174   1.946  0.2327 -0.3293  0.4053
 3139ntf    nn320073   3.790   5.279   1.830 -0.1770 -0.9064 -0.1526
 3139ntf    sn220074   3.868   5.260   1.695 -0.0573  0.1157 -0.2330
 3139ntf    cn120075   3.781   5.381   1.590  0.0091  0.2684 -0.1125
 3139ntf    fn420076   3.859   5.209   2.199 -0.4460 -0.2654 -0.3802
 3139ntf    fn420077   3.980   5.298   2.053  0.3991  0.0661  0.1791
 3139ntf    fn420078   3.793   5.385   2.108  0.2220  0.2802  0.1058
 3139ntf    on520079   3.861   5.055   1.933  0.0622 -0.3529 -0.4468
 3139ntf    on520080   3.645   5.164   1.992  0.1348  0.3035  0.2618
 3139ntf    on520081   3.832   5.141   1.622 -0.1964 -0.0332  0.0787
 3139ntf    on520082   4.006   5.302   1.703 -0.3895  1.0416  0.8980
 3139ntf    fn420083   3.855   5.417   1.487 -0.3688  0.3068 -0.3746
 3139ntf    fn420084   3.671   5.324   1.542 -0.0107  0.3012 -0.1056
 3139ntf    fn420085   3.749   5.492   1.654 -0.4846 -0.1400  0.3629
 3140ntf    cn120086   1.008   6.590   4.001 -0.1714 -0.0937  0.3707
 3140ntf    sn220087   1.166   6.637   4.076 -0.0896 -0.0881  0.1961
 3140ntf    nn320088   1.230   6.689   3.942 -0.2661  0.3853  0.2928
 3140ntf    sn220089   1.241   6.836   3.889  0.1353  0.3060  0.1517
 3140ntf    cn120090   1.397   6.882   3.970  0.3352 -0.0312 -0.0455
 3140ntf    fn420091   0.951   6.484   4.057 -0.4498 -0.5461 -0.7362
 3140ntf    fn420092   0.922   6.691   3.997 -0.5416 -0.4286 -0.4826
 3140ntf    fn420093   1.026   6.560   3.873 -0.9494  0.2016  0.1843
 3140ntf    on520094   1.129   6.740   4.170  0.6932 -0.2739  0.7178
 3140ntf    on520095   1.223   6.513   4.121 -0.4405 -0.3365 -0.0429
 3140ntf    on520096   1.132   6.916   3.939 -0.3451 -0.3467  0.1548
 3140ntf    on520097   1.273   6.841   3.749 -0.2274 -0.1781  0.0517
 3140ntf    fn420098   1.502   6.809   3.935  0.4089  0.0430  0.0215
 3140ntf    fn420099   1.429   7.010   3.971  0.4199 -0.0499 -0.3012
 3140ntf    fn420100   1.383   6.855   4.099 -0.0965  0.3838 -0.0059
 3141ntf    cn120101   6.820   1.186   5.076  0.0735 -0.1184 -0.1090
 3141ntf    sn220102   6.665   1.125   5.147  0.1737 -0.3019 -0.0473
 3141ntf    nn320103   6.672   0.983   5.081  0.4761 -0.0656 -0.5327
 3141ntf    sn220104   6.717   0.842   5.135  0.1833 -0.0544 -0.2499
 3141ntf    cn120105   6.557   0.757   5.127  0.0696  0.1215  0.1499
 3141ntf    fn420106   6.874   1.300   5.116  0.0173 -0.2959  0.4739
 3141ntf    fn420107   6.917   1.098   5.093 -0.0353 -0.2528 -0.1861
 3141ntf    fn420108   6.822   1.202   4.945 -0.0556 -0.7111 -0.1853
 3141ntf    on520109   6.685   1.127   5.290  0.1487  1.2175 -0.0484
 3141ntf    on520110   6.570   1.217   5.090 -0.1465 -0.3213  0.4440
 3141ntf    on520111   6.755   0.837   5.274 -0.0602  1.2422 -0.1217
 3141ntf    on520112   6.796   0.768   5.040  0.7178  0.3771 -0.1522
 3141ntf    fn420113   6.459   0.823   5.187 -0.3670 -0.9051  0.5809
 3141ntf    fn420114   6.519   0.752   5.001  0.0151  0.1779  0.1640
 3141ntf    fn420115   6.562   0.632   5.170  0.0530 -0.2434 -0.8905
 3142ntf    cn120116   6.268   4.080   2.650  0.2322 -0.0689 -0.0823
 3142ntf    sn220117   6.374   4.207   2.576  0.2162  0.0323  0.0658
 3142ntf    nn320118   6.293   4.246   2.447  0.1876  0.2178  0.1391
 3142ntf    sn220119   6.298   4.170   2.309  0.2479  0.1453  0.1803
 3142ntf    cn120120   6.124   4.123   2.290  0.3474 -0.3019  0.3633
 3142ntf    fn420121   6.273   3.963   2.589 -0.2261 -0.2666  0.2451
 3142ntf    fn420122   6.293   4.060   2.779  0.2836 -0.9159 -0.2226
 3142ntf    fn420123   6.140   4.113   2.656  0.1224 -0.5315  0.1602
 3142ntf    on520124   6.383   4.316   2.670 -0.2143  0.2274 -0.1137
 3142ntf    on520125   6.500   4.137   2.561  0.3330  0.3397 -0.4110
 3142ntf    on520126   6.357   4.040   2.293  0.0838  0.1479 -0.4315
 3142ntf    on520127   6.320   4.260   2.199 -0.4112  0.1155  0.0181
 3142ntf    fn420128   6.042   4.181   2.376  0.3248 -0.2250  0.2895
 3142ntf    fn420129   6.081   4.140   2.166  0.0835  0.1665  0.5154
 3142ntf    fn420130   6.121   3.993   2.315  0.1587 -0.4498 -0.3805
 3143ntf    cn120131   5.817   0.324   5.795 -0.3399  0.2155 -0.1851
 3143ntf    sn220132   5.848   0.334   5.616 -0.0836 -0.0637 -0.1562
 3143ntf    nn320133   5.708   0.398   5.582 -0.1431 -0.0922  0.0327
 3143ntf    sn220134   5.671   0.528   5.503 -0.2446 -0.0177  0.2005
 3143ntf    cn120135   5.692   0.649   5.637 -0.0714 -0.1377  0.2830
 3143ntf    fn420136   5.926   0.287   5.859 -0.1830  0.5597 -0.2514
 3143ntf    fn420137   5.779   0.437   5.853  0.3847  0.2504  0.2334
 3143ntf    fn420138   5.725   0.236   5.833 -0.3709  0.5432  0.5125
 3143ntf    on520139   5.959   0.425   5.602 -0.3425  0.2274 -0.3278
 3143ntf    on520140   5.865   0.198   5.571  0.3610 -0.2383  0.5169
 3143ntf    on520141   5.533   0.542   5.464 -0.0479  0.2588 -0.4076
 3143ntf    on520142   5.770   0.581   5.412 -0.3693 -0.1886 -0.0362
 3143ntf    fn420143   5.617   0.618   5.742 -0.0779  0.3116  0.4128
 3143ntf    fn420144   5.816   0.646   5.682  0.0141  0.2388  0.0724
 3143ntf    fn420145   5.660   0.771   5.598  0.8321  0.0012 -0.0408
 3144ntf    cn120146   0.216   5.093   4.483  0.0415 -0.3141 -0.4096
 3144ntf    sn220147   0.358   5.024   4.393  0.1652 -0.2620 -0.2554
 3144ntf    nn320148   0.290   5.026   4.252 -0.7502 -0.1369  0.1818
 3144ntf    sn220149   0.304   4.917   4.139  0.1316  0.1362  0.0244
 3144ntf    cn120150   0.281   5.022   3.992  0.0443  0.0315 -0.0369
 3144ntf    fn420151   0.107   5.019   4.472 -0.2429  0.0047  0.2357
 3144ntf    fn420152   0.241   5.114   4.611 -0.0620  0.4505 -0.5050
 3144ntf    fn420153   0.177   5.209   4.432 -0.0225 -0.3647 -0.4765
 3144ntf    on520154   0.471   5.110   4.414 -0.4645  0.5212 -0.0319
 3144ntf    on520155   0.380   4.894   4.452 -0.0358 -0.2200 -0.0847
 3144ntf    on520156   0.192   4.828   4.126  0.1922 -0.0033  0.4620
 3144ntf    on520157   0.438   4.866   4.129 -0.0548 -0.3217 -0.1390
 3144ntf    fn420158   0.152   5.043   3.971 -0.0223  0.2242  0.5506
 3144ntf    fn420159   0.335   5.143   3.988 -0.6773  0.3619 -0.0422
 3144ntf    fn420160   0.322   4.962   3.882 -0.6237 -0.3530 -0.0829
 3145ntf    cn120161   1.812   4.038   2.474 -0.2714  0.1623 -0.1836
 3145ntf    sn220162   1.634   4.009   2.495 -0.1745  0.0944  0.5856
 3145ntf    nn320163   1.621   3.865   2.433 -0.2066  0.2144  0.3075
 3145ntf    sn220164   1.530   3.744   2.477 -0.1454  0.0057 -0.1388
 3145ntf    cn120165   1.637   3.663   2.600 -0.3415 -0.1656 -0.0815
 3145ntf    fn420166   1.850   4.161   2.502 -0.1445  0.0981 -0.0721
 3145ntf    fn420167   1.878   3.953   2.551 -0.3328  0.0267 -0.2788
 3145ntf    fn420168   1.856   4.024   2.350  0.2193  0.6637 -0.0708
 3145ntf    on520169   1.612   4.013   2.637  0.2935  0.4165  0.6493
 3145ntf    on520170   1.583   4.112   2.408 -0.4345 -0.3862  0.1580
 3145ntf    on520171   1.517   3.648   2.370  0.2187  0.1194 -0.2880
 3145ntf    on520172   1.413   3.779   2.554  0.0018  0.1178  0.0344
 3145ntf    fn420173   1.750   3.612   2.554 -0.1197  0.2511  0.0022
 3145ntf    fn420174   1.676   3.756   2.685 -0.2476  0.0528 -0.3605
 3145ntf    fn420175   1.572   3.575   2.676  0.0230 -0.1698  0.2259
 3146ntf    cn120176   1.359   4.772   3.754 -0.0487 -0.2702 -0.6480
 3146ntf    sn220177   1.533   4.750   3.707  0.1614  0.0017 -0.0107
 3146ntf    nn320178   1.537   4.595   3.683  0.0512 -0.0769  0.4601
 3146ntf    sn220179   1.493   4.509   3.559  0.2487  0.2280  0.1744
 3146ntf    cn120180   1.651   4.439   3.502  0.0035 -0.3153  0.1530
 3146ntf    fn420181   1.349   4.899   3.792 -0.6622 -0.3788 -0.4262
 3146ntf    fn420182   1.281   4.751   3.650 -0.3220  0.2921 -0.5591
 3146ntf    fn420183   1.313   4.702   3.857  0.2748  0.3850 -0.0409
 3146ntf    on520184   1.562   4.834   3.594 -0.2547 -0.3176 -0.3556
 3146ntf    on520185   1.603   4.782   3.829  0.6609 -0.4000 -0.1882
 3146ntf    on520186   1.450   4.581   3.442 -0.2220 -0.2463  0.0499
 3146ntf    on520187   1.417   4.393   3.600  0.1996  0.3071  0.3091
 3146ntf    fn420188   1.738   4.528   3.457  0.0169 -0.1642  0.4770
 3146ntf    fn420189   1.712   4.380   3.603  0.4234 -0.2051 -0.0363
 3146ntf    fn420190   1.640   4.350   3.405  0.0907 -0.4239  0.2418
 3147ntf    cn120191   6.385   0.518   4.344  0.2359  0.0246 -0.6576
 3147ntf    sn220192   6.555   0.583   4.354  0.2236 -0.0659  0.2435
 3147ntf    nn320193   6.627   0.497   4.244  0.7615  0.2688  0.3305
 3147ntf    sn220194   6.654   0.523   4.092 -0.3769 -0.3372  0.0130
 3147ntf    cn120195   6.835   0.540   4.088 -0.4279  0.2279 -0.0787
 3147ntf    fn420196   6.385   0.386   4.332  0.0821 -0.0117 -0.2744
 3147ntf    fn420197   6.315   0.558   4.449  0.4457 -0.6660 -0.2483
 3147ntf    fn420198   6.318   0.571   4.243 -0.0863 -0.0535 -0.4839
 3147ntf    on520199   6.537   0.726   4.339 -0.4069 -0.1812 -0.1686
 3147ntf    on520200   6.590   0.550   4.490  0.2135 -0.1688  0.2207
 3147ntf    on520201   6.613   0.654   4.047  0.1433 -0.0822  0.2806
 3147ntf    on520202   6.614   0.411   4.011 -0.5946 -0.2401 -0.0143
 3147ntf    fn420203   6.884   0.555   3.966 -0.1648 -0.3191 -0.0466
 3147ntf    fn420204   6.881   0.645   4.153  0.7616 -0.5312  0.3460
 3147ntf    fn420205   6.896   0.433   4.137 -0.3616  0.2419 -0.1317
 3148ntf    cn120206   3.193   4.918   3.151  0.0820 -0.0540 -0.6570
 3148ntf    sn220207   3.028   4.955   3.082 -0.0911  0.0837 -0.1733
 3148ntf    nn320208   3.001   4.819   3.008  0.1967 -0.1051  0.0668
 3148ntf    sn220209   2.879   4.722   3.020  0.0368  0.0912  0.0370
 3148ntf    cn120210   2.874   4.662   2.848 -0.0069 -0.2174  0.1455
 3148ntf    fn420211   3.265   5.026   3.176  0.0449 -0.0501 -0.5701
 3148ntf    fn420212   3.187   4.866   3.272  0.8220  0.3536 -0.4431
 3148ntf    fn420213   3.256   4.826   3.079  0.5212 -0.3243  0.0658
 3148ntf    on520214   2.941   4.982   3.194  0.0060  1.0236 -0.3139
 3148ntf    on520215   3.059   5.052   2.979 -0.1259 -0.1214 -0.3771
 3148ntf    on520216   2.748   4.778   3.040  0.1018  0.4058 -0.4173
 3148ntf    on520217   2.914   4.603   3.095 -0.0872 -0.2815 -0.4909
 3148ntf    fn420218   2.995   4.622   2.814  0.2338  0.6341 -0.0179
 3148ntf    fn420219   2.791   4.561   2.826  0.0694 -0.2270 -0.0980
 3148ntf    fn420220   2.824   4.754   2.768 -0.1002  0.2516  0.7368
 3149ntf    cn120221   0.945   0.036   2.839  0.2525 -0.0982  0.2482
 3149ntf    sn220222   0.806  -0.010   2.946  0.1699 -0.0066  0.1801
 3149ntf    nn320223   0.709  -0.091   2.852  0.4511 -0.2565  0.1067
 3149ntf    sn220224   0.554  -0.087   2.829  0.4406  0.0782  0.2243
 3149ntf    cn120225   0.484  -0.193   2.959 -0.0233 -0.0647 -0.1379
 3149ntf    fn420226   0.916   0.142   2.765  0.6417 -0.2066 -0.0672
 3149ntf    fn420227   1.061   0.059   2.899  0.3583  0.2040 -0.0671
 3149ntf    fn420228   0.979  -0.059   2.753  0.1897  0.2271 -0.1390
 3149ntf    on520229   0.862  -0.099   3.044  0.2345  0.3657  0.4820
 3149ntf    on520230   0.757   0.120   2.986 -0.5076 -0.1310 -0.2257
 3149ntf    on520231   0.514  -0.151   2.706 -0.5182  0.2959  0.4184
 3149ntf    on520232   0.488   0.039   2.845  0.1665 -0.0480  0.0891
 3149ntf    fn420233   0.352  -0.195   2.962 -0.0142  0.1462  0.5463
 3149ntf    fn420234   0.512  -0.322   2.956 -0.2204 -0.1148  0.1325
 3149ntf    fn420235   0.513  -0.153   3.082  0.4506 -0.0292 -0.2607
 3150ntf    cn120236   0.581   4.882   5.195  0.3878  0.0639 -0.0489
 3150ntf    sn220237   0.758   4.882   5.236  0.4211  0.0417 -0.1916
 3150ntf    nn320238   0.749   4.934   5.384 -0.1205  0.3378 -0.3286
 3150ntf    sn220239   0.759   4.859   5.521 -0.1403  0.0733 -0.4719
 3150ntf    cn120240   0.590   4.899   5.575 -0.0473  0.0821 -0.1845
 3150ntf    fn420241   0.510   4.787   5.254  0.7627 -0.1526  0.0596
 3150ntf    fn420242   0.524   4.990   5.245 -0.0528 -0.2468  0.1299
 3150ntf    fn420243   0.555   4.867   5.067  0.6279  0.2508 -0.1199
 3150ntf    on520244   0.788   4.742   5.214 -0.5673 -0.2086  0.0308
 3150ntf    on520245   0.821   4.972   5.142  0.3574  0.0193 -0.2559
 3150ntf    on520246   0.833   4.924   5.626 -0.1483 -0.0421 -0.3942
 3150ntf    on520247   0.756   4.715   5.522  0.2099  0.0659  0.6285
 3150ntf    fn420248   0.560   4.848   5.694  0.3035  0.1858 -0.0512
 3150ntf    fn420249   0.569   5.029   5.588 -0.6152  0.0434 -0.6737
 3150ntf    fn420250   0.495   4.866   5.489  0.0572 -0.5348 -0.0692
 3151ntf    cn120251   2.159   2.706   3.477 -0.3454  0.3567 -0.5230
 3151ntf    sn220252   2.044   2.620   3.366 -0.3783 -0.2968  0.0111
 3151ntf    nn320253   2.088   2.472   3.397  0.2242 -0.2503 -0.6129
 3151ntf    sn220254   2.061   2.389   3.527 -0.1292  0.3199 -0.3190
 3151ntf    cn120255   1.946   2.262   3.465  0.3020 -0.2930  0.1303
 3151ntf    fn420256   2.165   2.837   3.461 -0.4926  0.3302 -0.8070
 3151ntf    fn420257   2.117   2.696   3.602 -0.4384  0.1335 -0.5718
 3151ntf    fn420258   2.281   2.656   3.471 -0.0220  0.9739  0.6317
 3151ntf    on520259   1.911   2.663   3.403 -0.0864  0.8365 -0.2233
 3151ntf    on520260   2.091   2.640   3.231 -0.2692 -0.1198  0.0759
 3151ntf    on520261   1.985   2.451   3.633  0.1056 -0.5408  0.3673
 3151ntf    on520262   2.173   2.309   3.569 -0.1614  0.2400 -0.3850
 3151ntf    fn420263   1.922   2.180   3.566 -0.2464 -0.7267 -0.3492
 3151ntf    fn420264   1.829   2.313   3.430  0.3385 -0.4442 -0.2144
 3151ntf    fn420265   1.990   2.184   3.368  0.6181 -0.2755  0.2552
 3152ntf    cn120266   4.452   0.188   5.136  0.0025  0.1741  0.0002
 3152ntf    sn220267   4.298   0.133   5.056  0.0299  0.1737 -0.0522
 3152ntf    nn320268   4.320   0.198   4.915 -0.4133 -0.3996 -0.3894
 3152ntf    sn220269   4.404   0.148   4.792  0.0919 -0.1500 -0.1518
 3152ntf    cn120270   4.438   0.312   4.722 -0.4206  0.0102 -0.0303
 3152ntf    fn420271   4.454   0.320   5.148 -0.0152  0.1609  0.1562
 3152ntf    fn420272   4.473   0.139   5.257  0.0472  0.0677 -0.0508
 3152ntf    fn420273   4.554   0.154   5.060  0.2496 -0.1588  0.4750
 3152ntf    on520274   4.294  -0.011   5.066  0.7033  0.1244 -0.3863
 3152ntf    on520275   4.193   0.197   5.130  0.1780  0.3261  0.0265
 3152ntf    on520276   4.334   0.084   4.682 -0.8405  0.0908  0.2904
 3152ntf    on520277   4.537   0.101   4.821  0.1315  0.2280  0.2840
 3152ntf    fn420278   4.505   0.387   4.807 -0.3338  0.3585 -0.4008
 3152ntf    fn420279   4.511   0.306   4.612 -0.1830 -0.0760  0.1328
 3152ntf    fn420280   4.328   0.379   4.691 -0.0399  0.6890  0.0535
 3153ntf    cn120281   6.845   1.409   6.488  0.2684 -0.2738 -0.3032
 3153ntf    sn220282   6.915   1.316   6.627 -0.2454 -0.0278  0.1244
 3153ntf    nn320283   6.830   1.185   6.630  0.2205 -0.3578 -0.6856
 3153ntf    sn220284   6.860   1.037   6.674  0.0613 -0.0451  0.5123
 3153ntf    cn120285   6.747   1.017   6.815 -0.6431  0.1814 -0.0188
 3153ntf    fn420286   6.724   1.452   6.520  0.6023  0.1556  0.3934
 3153ntf    fn420287   6.925   1.513   6.471  0.2508 -0.2125 -0.0103
 3153ntf    fn420288   6.839   1.343   6.373  0.0113  0.0647 -0.4868
 3153ntf    on520289   7.051   1.302   6.581 -0.1884  0.0737  0.2593
 3153ntf    on520290   6.899   1.392   6.749 -0.2941 -0.1665  0.2036
 3153ntf    on520291   6.983   0.999   6.739  0.1883 -0.0049  0.2954
 3153ntf    on520292   6.799   0.938   6.589  0.3333 -0.0235  0.2890
 3153ntf    fn420293   6.755   0.897   6.869  0.1458  0.1637 -0.1633
 3153ntf    fn420294   6.775   1.103   6.912 -0.4079  0.2539 -0.1517
 3153ntf    fn420295   6.623   1.048   6.778 -0.3749  0.4009 -0.7550
 3154ntf    cn120296   6.178   4.817   2.670  0.4640  0.0105 -0.0891
 3154ntf    sn220297   6.346   4.830   2.602  0.5638 -0.1511  0.1266
 3154ntf    nn320298   6.309   4.817   2.450 -0.0611  0.1234  0.2528
 3154ntf    sn220299   6.322   4.925   2.337 -0.0976  0.2203  0.3414
 3154ntf    cn120300   6.361   4.826   2.190 -0.1224  0.2343  0.3251
 3154ntf    fn420301   6.187   4.838   2.800 -0.2275 -0.4583  0.0405
 3154ntf    fn420302   6.100   4.914   2.624  0.0377 -0.3248 -0.0777
 3154ntf    fn420303   6.122   4.700   2.647 -0.4493  0.3632  0.2785
 3154ntf    on520304   6.396   4.956   2.652 -0.1014  0.2269 -0.1519
 3154ntf    on520305   6.414   4.718   2.662 -0.1237 -0.4619  0.3243
 3154ntf    on520306   6.440   5.008   2.330  0.1531 -0.0763  0.9861
 3154ntf    on520307   6.197   4.985   2.298 -0.0597 -0.0256 -0.1570
 3154ntf    fn420308   6.490   4.803   2.180 -0.0874  0.3365  0.5348
 3154ntf    fn420309   6.286   4.716   2.187  0.1275  0.0243  1.2588
 3154ntf    fn420310   6.329   4.884   2.076  0.3876  0.1898  0.1608
 3155ntf    cn120311   5.146   5.116   2.621 -0.5392 -0.3194 -0.1083
 3155ntf    sn220312   5.129   5.014   2.471 -0.3212 -0.0086 -0.3443
 3155ntf    nn320313   5.244   5.072   2.382 -0.1291  0.6122  0.3000
 3155ntf    sn220314   5.243   5.165   2.255 -0.2328 -0.1366 -0.2532
 3155ntf    cn120315   5.399   5.106   2.183 -0.0050 -0.0384  0.1596
 3155ntf    fn420316   5.109   5.241   2.600 -0.2862 -0.1301  0.5336
 3155ntf    fn420317   5.082   5.066   2.726 -0.1293 -0.5241  0.0447
 3155ntf    fn420318   5.274   5.128   2.650 -0.5287 -0.6795  0.0048
 3155ntf    on520319   5.151   4.878   2.510  0.4824  0.1968 -0.0727
 3155ntf    on520320   4.993   5.039   2.430 -0.3372 -0.0833 -0.3360
 3155ntf    on520321   5.274   5.302   2.288 -0.2154 -0.1135 -0.3648
 3155ntf    on520322   5.142   5.132   2.158 -0.0482 -0.3301 -0.3783
 3155ntf    fn420323   5.400   4.975   2.171 -0.7726 -0.0519  0.2190
 3155ntf    fn420324   5.422   5.157   2.063 -0.2444  0.2955  0.2552
 3155ntf    fn420325   5.504   5.142   2.257  0.2803  0.2420 -0.3774
 3156ntf    cn120326   1.662   5.458   0.072  0.0703  0.2329  0.0723
 3156ntf    sn220327   1.665   5.575  -0.066 -0.3548 -0.0986 -0.2211
 3156ntf    nn320328   1.629   5.478  -0.184  0.2044  0.1059 -0.5651
 3156ntf    sn220329   1.729   5.404  -0.279  0.0072 -0.1821 -0.5512
 3156ntf    cn120330   1.783   5.523  -0.405  0.3695  0.0826 -0.1479
 3156ntf    fn420331   1.752   5.364   0.047 -0.2833 -0.0334 -0.2084
 3156ntf    fn420332   1.696   5.503   0.192 -0.2021  0.7859 -0.0572
 3156ntf    fn420333   1.548   5.392   0.087  0.3116 -0.3510 -0.6023
 3156ntf    on520334   1.563   5.672  -0.035 -0.2617 -0.0944  0.0701
 3156ntf    on520335   1.799   5.629  -0.069 -0.3944  0.0366  0.4157
 3156ntf    on520336   1.654   5.304  -0.351 -0.1525 -0.4848  0.0276
 3156ntf    on520337   1.847   5.349  -0.217  0.0373  0.0118 -0.4381
 3156ntf    fn420338   1.687   5.608  -0.437  0.3285  0.3091  0.5716
 3156ntf    fn420339   1.880   5.602  -0.361  0.2721  0.1693 -0.0888
 3156ntf    fn420340   1.824   5.472  -0.520  0.2976  0.7313 -0.4659
 3157ntf    cn120341   5.075   4.319   1.185  0.0115  0.0584  0.0449
 3157ntf    sn220342   5.223   4.328   1.080  0.0733 -0.5767  0.0746
 3157ntf    nn320343   5.337   4.350   1.187 -0.1019 -0.1954  0.1849
 3157ntf    sn220344   5.399   4.489   1.223  0.1084 -0.2706  0.1132
 3157ntf    cn120345   5.436   4.453   1.398  0.0511  0.0043  0.1823
 3157ntf    fn420346   4.973   4.264   1.122 -0.0695  0.3016 -0.0412
 3157ntf    fn420347   5.098   4.235   1.285 -0.3447  0.3788  0.4030
 3157ntf    fn420348   5.044   4.438   1.234  0.5464  0.2693 -0.1219
 3157ntf    on520349   5.226   4.191   1.036 -0.0456 -0.5981  0.1325
 3157ntf    on520350   5.208   4.425   0.974 -0.1616 -0.9611 -0.2442
 3157ntf    on520351   5.309   4.602   1.222 -0.2393 -0.5470 -0.2403
 3157ntf    on520352   5.528   4.512   1.162  0.1746 -0.2913  0.2442
 3157ntf    fn420353   5.514   4.347   1.407  0.1558  0.0559 -0.0951
 3157ntf    fn420354   5.494   4.556   1.457 -0.7413  0.4152  0.2578
 3157ntf    fn420355   5.325   4.425   1.464  0.0577  0.7235  0.5088
 3158ntf    cn120356   6.528   0.729   2.291  0.0988 -0.1614  0.2100
 3158ntf    sn220357   6.634   0.800   2.420  0.0237  0.1381  0.1085
 3158ntf    nn320358   6.574   0.721   2.543  0.4434 -0.7194 -0.2271
 3158ntf    sn220359   6.606   0.746   2.694  0.2375 -0.2937 -0.2502
 3158ntf    cn120360   6.463   0.850   2.734  0.1821 -0.2643 -0.5238
 3158ntf    fn420361   6.569   0.777   2.175 -0.2198  0.3279  0.3019
 3158ntf    fn420362   6.542   0.597   2.280 -0.3957 -0.1824 -0.2397
 3158ntf    fn420363   6.401   0.761   2.312 -0.1205 -0.7880 -0.1038
 3158ntf    on520364   6.765   0.753   2.383 -0.1394  0.3415 -0.7347
 3158ntf    on520365   6.611   0.942   2.415 -0.1778  0.1000 -0.0528
 3158ntf    on520366   6.714   0.839   2.715 -0.2598  0.2704 -0.1926
 3158ntf    on520367   6.591   0.635   2.785  0.3181  0.2210  0.3990
 3158ntf    fn420368   6.450   0.888   2.860  1.1084  0.4886 -0.6386
 3158ntf    fn420369   6.464   0.967   2.672 -0.2081  0.2396  0.3967
 3158ntf    fn420370   6.351   0.789   2.701  0.0506 -0.3434  0.0609
 3159ntf    cn120371   4.509   3.186   4.156  0.2872  0.1241 -0.0706
 3159ntf    sn220372   4.391   3.240   4.284  0.3047 -0.2606  0.1092
 3159ntf    nn320373   4.326   3.104   4.326  0.0958 -0.3335 -0.4445
 3159ntf    sn220374   4.193   3.039   4.272 -0.1753 -0.0712 -0.1002
 3159ntf    cn120375   4.072   3.123   4.377 -0.0371 -0.1472  0.1204
 3159ntf    fn420376   4.591   3.098   4.212  0.2684 -0.3823 -0.8247
 3159ntf    fn420377   4.462   3.122   4.050 -0.0457  0.2744 -0.0157
 3159ntf    fn420378   4.580   3.286   4.104  0.0700  0.3196  0.0081
 3159ntf    on520379   4.479   3.296   4.383 -0.1779  0.0457  0.3619
 3159ntf    on520380   4.309   3.337   4.215  0.2235 -0.3952  0.0167
 3159ntf    on520381   4.173   2.901   4.309  0.3320 -0.1880 -0.2515
 3159ntf    on520382   4.147   3.068   4.138 -0.0293  0.0121 -0.1324
 3159ntf    fn420383   3.946   3.088   4.355  0.0320 -0.5065  0.2880
 3159ntf    fn420384   4.096   3.114   4.507 -0.3119 -0.4510  0.1521
 3159ntf    fn420385   4.057   3.252   4.352 -0.6612 -0.2721 -0.1971
 3160ntf    cn120386   0.437   3.798   5.971 -0.1081  0.6185 -0.1476
 3160ntf    sn220387   0.589   3.851   5.887  0.1792 -0.1350 -0.1143
 3160ntf    nn320388   0.537   3.864   5.739  0.4918  0.0938 -0.2044
 3160ntf    sn220389   0.535   3.766   5.616  0.5288  0.0238 -0.1492
 3160ntf    cn120390   0.654   3.846   5.504  0.0379  0.0087 -0.6848
 3160ntf    fn420391   0.339   3.888   5.972 -0.8191 -0.1341 -0.4525
 3160ntf    fn420392   0.394   3.679   5.931  0.7260  0.2161  0.1438
 3160ntf    fn420393   0.466   3.775   6.098 -0.3472  0.3443 -0.1392
 3160ntf    on520394   0.614   3.983   5.940  0.2509 -0.1123 -0.2039
 3160ntf    on520395   0.674   3.740   5.920  0.1349 -0.0873  0.1629
 3160ntf    on520396   0.408   3.765   5.549  0.1080  0.2372  0.6274
 3160ntf    on520397   0.597   3.638   5.640  0.4491  0.0581  0.2492
 3160ntf    fn420398   0.673   3.794   5.384  0.1219 -0.7062 -0.3685
 3160ntf    fn420399   0.618   3.972   5.484  0.0612  0.1087 -0.1192
 3160ntf    fn420400   0.771   3.844   5.565 -0.0910 -0.0783 -0.4382
 3161ntf    cn120401   4.505   5.336   3.886  0.0656 -0.1776  0.1040
 3161ntf    sn220402   4.517   5.305   3.707  0.2853  0.4882  0.0008
 3161ntf    nn320403   4.426   5.422   3.656 -0.2512 -0.0948 -0.3889
 3161ntf    sn220404   4.471   5.559   3.595 -0.1392  0.1052  0.1377
 3161ntf    cn120405   4.523   5.512   3.428 -0.0392  0.2603  0.1248
 3161ntf    fn420406   4.551   5.458   3.910 -0.2156 -0.0537  0.0120
 3161ntf    fn420407   4.381   5.327   3.929 -0.0371 -0.7517 -0.2995
 3161ntf    fn420408   4.592   5.259   3.950  0.0177 -0.5076 -0.2220
 3161ntf    on520409   4.657   5.323   3.678  0.4434  0.5071  0.7585
 3161ntf    on520410   4.462   5.173   3.691  0.0980  0.5177  0.3752
 3161ntf    on520411   4.583   5.627   3.655  0.0541  0.2324 -0.3618
 3161ntf    on520412   4.356   5.645   3.574 -0.5843 -0.4513  0.2774
 3161ntf    fn420413   4.550   5.617   3.352  0.1802  0.2947  0.2504
 3161ntf    fn420414   4.629   5.433   3.418 -0.0041  0.2889  0.2787
 3161ntf    fn420415   4.434   5.439   3.364  0.1348  0.0731  0.0965
 3162ntf    cn120416   4.782   3.940   4.058  0.6344  0.0935  0.2937
 3162ntf    sn220417   4.884   3.798   4.105  0.1864 -0.4682 -0.3975
 3162ntf    nn320418   4.791   3.673   4.087  0.2256 -0.5161 -0.2735
 3162ntf    sn220419   4.679   3.611   4.178 -0.1983  0.0181 -0.4270
 3162ntf    cn120420   4.549   3.582   4.055 -0.5531  0.3359 -0.1302
 3162ntf    fn420421   4.823   4.059   4.099 -0.0116  0.4106  0.0413
 3162ntf    fn420422   4.758   3.949   3.928  0.6051 -0.9538  0.2201
 3162ntf    fn420423   4.660   3.919   4.106  0.4592  0.5876  0.0714
 3162ntf    on520424   4.988   3.798   4.005  0.3252 -0.3932 -0.2526
 3162ntf    on520425   4.927   3.816   4.242  0.2415 -0.0008 -0.4772
 3162ntf    on520426   4.619   3.700   4.275  0.5387 -0.6397  0.6653
 3162ntf    on520427   4.715   3.476   4.215 -0.2140  0.0500 -0.2935
 3162ntf    fn420428   4.566   3.478   3.976 -0.2010  0.2871  0.0086
 3162ntf    fn420429   4.435   3.561   4.119 -0.4253  0.0394  0.0015
 3162ntf    fn420430   4.537   3.684   3.971 -0.1646  0.3268 -0.2005
 3163ntf    cn120431   6.611   3.286   5.471  0.1136  0.0757 -0.1401
 3163ntf    sn220432   6.496   3.420   5.428  0.0217 -0.0792 -0.3736
 3163ntf    nn320433   6.406   3.349   5.320 -0.0009 -0.1701 -0.2949
 3163ntf    sn220434   6.333   3.420   5.201 -0.3247  0.0734  0.0462
 3163ntf    cn120435   6.465   3.429   5.077  0.2547 -0.2937  0.6328
 3163ntf    fn420436   6.701   3.270   5.376  0.2772  0.1238  0.0072
 3163ntf    fn420437   6.670   3.308   5.587  0.0233 -0.3507 -0.0120
 3163ntf    fn420438   6.556   3.166   5.482 -0.0291  0.1242 -0.3245
 3163ntf    on520439   6.434   3.437   5.557 -0.5594  0.1426 -0.6761
 3163ntf    on520440   6.592   3.517   5.383  0.1692  0.0582  0.2342
 3163ntf    on520441   6.302   3.557   5.233  0.2205  0.1739  0.1409
 3163ntf    on520442   6.228   3.343   5.138 -0.2463  0.5339 -0.6597
 3163ntf    fn420443   6.585   3.436   5.134  0.1885 -0.2475  0.7664
 3163ntf    fn420444   6.467   3.324   4.996 -0.6544  0.1721 -0.0129
 3163ntf    fn420445   6.446   3.539   5.006  0.6956 -0.1779  0.6900
 3164ntf    cn120446   2.869   3.187   5.705  0.2740  0.0697  0.2706
 3164ntf    sn220447   3.036   3.258   5.690  0.1831  0.2958  0.3323
 3164ntf    nn320448   3.068   3.296   5.839 -0.6150  0.3742  0.4903
 3164ntf    sn220449   3.129   3.210   5.956 -0.1120  0.2247  0.1219
 3164ntf    cn120450   3.216   3.337   6.052 -0.1939  0.0595  0.4154
 3164ntf    fn420451   2.811   3.164   5.589  0.4544  0.4116  0.1121
 3164ntf    fn420452   2.859   3.073   5.772  0.5541 -0.0148  0.1696
 3164ntf    fn420453   2.793   3.276   5.766  0.0239  0.0706 -0.0404
 3164ntf    on520454   3.109   3.143   5.642 -0.3242  0.0309  0.1862
 3164ntf    on520455   3.024   3.369   5.599 -0.3926 -0.1428 -0.1326
 3164ntf    on520456   3.235   3.120   5.919 -0.1929 -0.0732  0.6152
 3164ntf    on520457   3.024   3.166   6.044 -0.1788  0.6880  0.2779
 3164ntf    fn420458   3.335   3.366   6.001 -0.3987  0.2261  0.0337
 3164ntf    fn420459   3.154   3.454   6.059  0.0527  0.2252 -0.1337
 3164ntf    fn420460   3.233   3.290   6.175  0.4671 -0.0844  0.2751
 3165ntf    cn120461   0.351   1.903   3.449  0.0693 -0.2268 -0.2565
 3165ntf    sn220462   0.496   2.004   3.491 -0.1978  0.0756 -0.0594
 3165ntf    nn320463   0.546   2.069   3.356  0.0340 -0.2754 -0.1446
 3165ntf    sn220464   0.508   2.210   3.297  0.2705 -0.0660  0.2014
 3165ntf    cn120465   0.645   2.304   3.371  0.0237  0.2491  0.2587
 3165ntf    fn420466   0.245   1.977   3.474  0.1860 -0.0901 -0.1637
 3165ntf    fn420467   0.353   1.864   3.323 -0.0426  0.1570 -0.3760
 3165ntf    fn420468   0.338   1.796   3.526 -0.0637 -0.0587 -0.0455
 3165ntf    on520469   0.458   2.095   3.596  0.3665  0.4041 -0.1349
 3165ntf    on520470   0.587   1.899   3.529 -0.3112  0.2092  0.5951
 3165ntf    on520471   0.384   2.266   3.345 -0.1225 -0.4014 -0.4101
 3165ntf    on520472   0.532   2.227   3.156 -0.6211  0.3628  0.1007
 3165ntf    fn420473   0.742   2.220   3.403 -0.3692 -0.1986  0.2782
 3165ntf    fn420474   0.700   2.387   3.285  0.2535  0.0347  0.1957
 3165ntf    fn420475   0.610   2.374   3.478 -0.2233  0.2727  0.1618
 3166ntf    cn120476   0.278   3.612   0.214 -0.2950 -0.1717  0.3345
 3166ntf    sn220477   0.169   3.694   0.094  0.2715 -0.0209 -0.0810
 3166ntf    nn320478   0.057   3.587   0.073 -0.1347  0.3942 -0.0482
 3166ntf    sn220479   0.060   3.465  -0.025 -0.0788  0.1278  0.2808
 3166ntf    cn120480   0.020   3.333   0.093 -0.4451 -0.4372 -0.4599
 3166ntf    fn420481   0.219   3.581   0.328 -0.2164 -0.2029  0.3668
 3166ntf    fn420482   0.318   3.498   0.159 -0.1521 -0.2079  0.5132
 3166ntf    fn420483   0.382   3.686   0.245  0.0789 -0.3355 -0.4820
 3166ntf    on520484   0.127   3.809   0.170  0.4442  0.2508 -0.3893
 3166ntf    on520485   0.263   3.721  -0.013 -0.0780  0.6682 -0.2227
 3166ntf    on520486   0.192   3.436  -0.077 -0.1883 -0.2888  0.2271
 3166ntf    on520487  -0.049   3.472  -0.120  0.1254  0.6329  0.0790
 3166ntf    fn420488  -0.105   3.356   0.131 -0.2891 -0.0200 -0.1874
 3166ntf    fn420489   0.030   3.209   0.050 -0.2343 -0.5339 -0.1331
 3166ntf    fn420490   0.092   3.339   0.204 -0.5251  0.4070 -0.4480
 3167ntf    cn120491   5.647   1.519   0.471  0.1700 -0.4654  0.1840
 3167ntf    sn220492   5.814   1.459   0.434  0.3396  0.1046  0.0139
 3167ntf    nn320493   5.807   1.457   0.277 -0.5215  0.2113  0.0472
 3167ntf    sn220494   5.862   1.346   0.182 -0.1875  0.2030  0.2457
 3167ntf    cn120495   5.710   1.247   0.164 -0.2595  0.3441  0.0778
 3167ntf    fn420496   5.555   1.429   0.440  0.0320 -0.2785  0.0486
 3167ntf    fn420497   5.634   1.544   0.601 -0.0764  0.3721  0.0033
 3167ntf    fn420498   5.623   1.631   0.405 -0.3133 -0.5562  0.1963
 3167ntf    on520499   5.906   1.560   0.480 -0.4094  0.4375  0.8136
 3167ntf    on520500   5.827   1.329   0.495  0.6315  0.2023  0.1632
 3167ntf    on520501   5.960   1.253   0.232 -0.5951  0.0858  0.8308
 3167ntf    on520502   5.887   1.387   0.046  0.0794 -0.3186  0.1361
 3167ntf    fn420503   5.604   1.319   0.130 -0.6878 -0.3085  0.0323
 3167ntf    fn420504   5.717   1.155   0.070 -0.0539  0.1276  0.3036
 3167ntf    fn420505   5.678   1.191   0.279  0.2864  0.2763  0.2002
 3168ntf    cn120506   6.879   3.646   0.902 -0.1261  0.0806  0.0380
 3168ntf    sn220507   6.818   3.481   0.858  0.0578  0.0484 -0.0933
 3168ntf    nn320508   6.933   3.435   0.761  0.2065 -0.4703  0.3174
 3168ntf    sn220509   6.946   3.460   0.606  0.1764  0.1777  0.4169
 3168ntf    cn120510   6.850   3.318   0.546  0.3577  0.2242  0.0173
 3168ntf    fn420511   7.007   3.651   0.935 -0.1006  0.1175 -0.0662
 3168ntf    fn420512   6.856   3.738   0.810 -1.0345  0.1565  0.3267
 3168ntf    fn420513   6.822   3.681   1.016 -0.0899  0.1732  0.0274
 3168ntf    on520514   6.813   3.420   0.989 -0.4921  0.4019  0.0546
 3168ntf    on520515   6.690   3.505   0.797 -0.2168  0.2204  0.5508
 3168ntf    on520516   7.077   3.426   0.557 -0.0425  0.3374 -0.2898
 3168ntf    on520517   6.875   3.577   0.559 -0.0195 -0.1992 -0.2437
 3168ntf    fn420518   6.837   3.325   0.414  0.0397  0.1722  0.0450
 3168ntf    fn420519   6.913   3.205   0.576 -0.3516 -0.2445 -0.2305
 3168ntf    fn420520   6.735   3.302   0.608  0.2485  0.2009 -0.1901
 3169ntf    cn120521   0.650   2.704   1.872 -0.2402 -0.0226  0.0263
 3169ntf    sn220522   0.681   2.750   2.046 -0.2547  0.0546  0.0083
 3169ntf    nn320523   0.820   2.682   2.073 -0.4096 -0.0223  0.6119
 3169ntf    sn220524   0.862   2.535   2.108  0.1659 -0.0556 -0.1883
 3169ntf    cn120525   0.968   2.504   1.964  0.2329 -0.4275 -0.0601
 3169ntf    fn420526   0.662   2.574   1.850  0.1610 -0.0198  0.2158
 3169ntf    fn420527   0.529   2.742   1.834 -0.3342 -0.3409  0.0074
 3169ntf    fn420528   0.741   2.759   1.794 -0.5068 -0.4190 -0.5657
 3169ntf    on520529   0.679   2.894   2.055 -0.3370  0.0102  0.7335
 3169ntf    on520530   0.565   2.691   2.108 -0.3237 -0.0287 -0.1965
 3169ntf    on520531   0.754   2.439   2.101  0.1918 -0.0875 -0.1487
 3169ntf    on520532   0.945   2.524   2.226  0.6121 -0.7304 -0.5610
 3169ntf    fn420533   1.061   2.592   1.933  0.5475 -0.6384  0.2719
 3169ntf    fn420534   1.019   2.382   1.967  0.3136 -0.3848  0.3520
 3169ntf    fn420535   0.890   2.502   1.857  0.3298 -0.3346 -0.1328
 3170ntf    cn120536   0.483   1.200   3.074  0.0836 -0.1306 -0.3891
 3170ntf    sn220537   0.475   1.296   3.228 -0.0559 -0.0235 -0.4633
 3170ntf    nn320538   0.322   1.326   3.246  0.0226 -0.0565  0.2674
 3170ntf    sn220539   0.230   1.427   3.170 -0.0549 -0.2852  0.0557
 3170ntf    cn120540   0.105   1.315   3.101 -0.1022  0.0240 -0.3632
 3170ntf    fn420541   0.416   1.086   3.075 -0.8772  0.4284 -0.2592
 3170ntf    fn420542   0.420   1.260   2.974 -0.2285  0.1465 -0.0268
 3170ntf    fn420543   0.605   1.173   3.030  0.3257  0.1056  0.1358
 3170ntf    on520544   0.523   1.207   3.331  0.2570  0.4933 -0.1539
 3170ntf    on520545   0.563   1.410   3.211  0.3184 -0.2383  0.0193
 3170ntf    on520546   0.289   1.485   3.052 -0.0387 -0.5112 -0.0482
 3170ntf    on520547   0.150   1.509   3.258 -0.2751  0.1054 -0.5022
 3170ntf    fn420548   0.053   1.231   3.188  0.4114  0.0371 -0.0403
 3170ntf    fn420549   0.007   1.380   3.039  0.0709  0.3482 -0.3021
 3170ntf    fn420550   0.157   1.237   3.008  0.4039  0.3145 -0.3259
 3171ntf    cn120551   6.440   2.686   2.435  0.5871  0.1902  0.2317
 3171ntf    sn220552   6.476   2.554   2.316  0.1077  0.1841  0.0888
 3171ntf    nn320553   6.626   2.526   2.353  0.0233 -0.5138 -0.0785
 3171ntf    sn220554   6.759   2.576   2.286 -0.0046 -0.1827  0.1120
 3171ntf    cn120555   6.875   2.519   2.414  0.2111 -0.1316 -0.0595
 3171ntf    fn420556   6.469   2.804   2.383 -0.0431  0.2490  0.0023
 3171ntf    fn420557   6.311   2.697   2.466  0.5845 -0.2195  0.3697
 3171ntf    fn420558   6.511   2.680   2.546  0.3248  0.5284  0.4187
 3171ntf    on520559   6.393   2.447   2.366  0.1309  0.1369  0.0263
 3171ntf    on520560   6.452   2.624   2.193  0.1340 -0.3091 -0.2021
 3171ntf    on520561   6.787   2.717   2.290 -0.4394 -0.1032  0.2940
 3171ntf    on520562   6.806   2.490   2.180 -0.1133  0.0177 -0.1006
 3171ntf    fn420563   6.831   2.415   2.483 -0.2698 -0.2204 -0.4944
 3171ntf    fn420564   6.989   2.477   2.360  0.4855  0.7036 -0.1360
 3171ntf    fn420565   6.896   2.615   2.502  0.1820 -0.0188 -0.1755
 3172ntf    cn120566   0.214   5.376   2.018  0.1633 -0.3460  0.2543
 3172ntf    sn220567   0.086   5.344   2.143 -0.0124 -0.2949  0.0878
 3172ntf    nn320568  -0.003   5.248   2.057  0.1553 -0.5919  0.2434
 3172ntf    sn220569  -0.154   5.205   2.069  0.2438 -0.8316  0.5132
 3172ntf    cn120570  -0.154   5.024   2.071  0.1129 -0.8521 -0.6644
 3172ntf    fn420571   0.281   5.487   2.045  0.2549 -0.4081  0.2814
 3172ntf    fn420572   0.309   5.285   2.028 -0.1459 -0.7473 -0.3978
 3172ntf    fn420573   0.172   5.361   1.894 -0.1904 -0.8269  0.4290
 3172ntf    on520574   0.158   5.281   2.251 -0.0473 -0.1985  0.1694
 3172ntf    on520575   0.024   5.473   2.165 -0.0998 -0.1393 -1.0261
 3172ntf    on520576  -0.239   5.252   1.962  0.2391 -0.6488  0.5966
 3172ntf    on520577  -0.206   5.228   2.201 -0.0526  0.7833  0.1372
 3172ntf    fn420578  -0.059   4.975   2.149  0.6163  0.4181 -0.4683
 3172ntf    fn420579  -0.274   4.976   2.100  0.1734 -0.3159  0.5314
 3172ntf    fn420580  -0.124   4.981   1.949  0.1690 -0.5159 -0.7706
 3173ntf    cn120581   2.595   0.028   1.967 -0.2058  0.0493 -0.0026
 3173ntf    sn220582   2.523  -0.097   1.856 -0.1915 -0.1111  0.1696
 3173ntf    nn320583   2.384  -0.112   1.927 -0.4571  0.0877 -0.3059
 3173ntf    sn220584   2.245  -0.139   1.860 -0.5603 -0.2679  0.0437
 3173ntf    cn120585   2.176   0.028   1.840  0.4313  0.1765  0.2913
 3173ntf    fn420586   2.703   0.095   1.932 -0.3170  0.1761 -0.1024
 3173ntf    fn420587   2.504   0.121   1.989  0.1665  0.3357  0.3267
 3173ntf    fn420588   2.620  -0.038   2.079  0.3504 -0.4734 -0.4299
 3173ntf    on520589   2.519  -0.019   1.736 -0.1810  0.0929  0.3015
 3173ntf    on520590   2.612  -0.209   1.874  0.5512  0.3450 -0.6217
 3173ntf    on520591   2.153  -0.205   1.949 -1.0110 -0.1245 -0.3116
 3173ntf    on520592   2.239  -0.189   1.725  0.1746 -0.6428  0.1488
 3173ntf    fn420593   2.132   0.082   1.952  0.3583 -0.7954  0.7400
 3173ntf    fn420594   2.259   0.111   1.779 -0.3843  0.4641 -0.4626
 3173ntf    fn420595   2.078   0.033   1.750  0.6660  0.1490  0.0329
 3174ntf    cn120596   1.519   4.665   5.930  0.4623 -0.2794  0.0203
 3174ntf    sn220597   1.592   4.708   6.090  0.0868  0.4062  0.0094
 3174ntf    nn320598   1.541   4.586   6.175  0.2769  0.5086  0.2726
 3174ntf    sn220599   1.632   4.496   6.265  0.1841  0.0735 -0.0670
 3174ntf    cn120600   1.507   4.452   6.390  0.0474 -0.0348 -0.2413
 3174ntf    fn420601   1.387   4.655   5.932  0.4232  0.1469 -0.3422
 3174ntf    fn420602   1.549   4.754   5.837  0.9113 -0.3447  0.1023
 3174ntf    fn420603   1.573   4.551   5.887  0.4073 -0.2884 -0.0254
 3174ntf    on520604   1.731   4.709   6.053 -0.0950  0.0024 -0.6933
 3174ntf    on520605   1.533   4.835   6.124  0.4592  0.5664  0.0633
 3174ntf    on520606   1.734   4.565   6.341  0.0008 -0.0499  0.2957
 3174ntf    on520607   1.655   4.376   6.188 -0.1195 -0.1042  0.1190
 3174ntf    fn420608   1.425   4.360   6.341  0.3222 -0.3833 -0.0447
 3174ntf    fn420609   1.565   4.406   6.499  0.4585  0.5345 -0.2159
 3174ntf    fn420610   1.437   4.563   6.412  0.2601 -0.0415  0.4825
 3175ntf    cn120611   1.382   5.280   1.505 -0.2103  0.4416 -0.1830
 3175ntf    sn220612   1.448   5.392   1.633 -0.3026  0.0624  0.1982
 3175ntf    nn320613   1.411   5.531   1.570 -0.0939  0.1493  0.2673
 3175ntf    sn220614   1.496   5.657   1.530 -0.1515  0.0573 -0.1458
 3175ntf    cn120615   1.436   5.683   1.361 -0.0049 -0.0630 -0.2168
 3175ntf    fn420616   1.427   5.328   1.390  0.0272 -0.4359 -0.4636
 3175ntf    fn420617   1.433   5.160   1.522 -0.3093  0.4556  0.2155
 3175ntf    fn420618   1.252   5.258   1.503  0.0222 -1.0191 -0.6319
 3175ntf    on520619   1.370   5.357   1.748 -0.5956  0.0891  0.0079
 3175ntf    on520620   1.586   5.351   1.639 -0.4823 -0.5497  0.2554
 3175ntf    on520621   1.639   5.647   1.513 -0.0638  1.1605 -0.0730
 3175ntf    on520622   1.447   5.774   1.599 -0.3463 -0.0272 -0.1417
 3175ntf    fn420623   1.474   5.582   1.284  0.3282  0.2504 -0.4666
 3175ntf    fn420624   1.304   5.678   1.360  0.0016 -0.2914  0.0778
 3175ntf    fn420625   1.475   5.788   1.291  0.4955 -0.4766 -0.5760
 3176ntf    cn120626   5.587   1.858   3.070 -0.4917  0.3569 -0.0780
 3176ntf    sn220627   5.697   1.856   3.214 -0.4302  0.0428 -0.1269
 3176ntf    nn320628   5.804   1.761   3.149 -0.1003  0.2208  0.1491
 3176ntf    sn220629   5.960   1.766   3.143 -0.0969 -0.2156 -0.0916
 3176ntf    cn120630   5.988   1.649   3.279 -0.4614 -0.1938  0.0032
 3176ntf    fn420631   5.531   1.739   3.064  0.4016 -0.0675 -0.2757
 3176ntf    fn420632   5.502   1.956   3.094 -0.6091  0.1227  0.4519
 3176ntf    fn420633   5.645   1.869   2.951 -0.2231  0.0950  0.0263
 3176ntf    on520634   5.737   1.994   3.231 -0.3471  0.0515 -0.3995
 3176ntf    on520635   5.619   1.791   3.316 -0.1042 -0.5261 -0.2368
 3176ntf    on520636   6.026   1.884   3.191 -0.4015 -0.1974  0.2788
 3176ntf    on520637   6.020   1.702   3.028 -0.7315 -0.0461 -0.5191
 3176ntf    fn420638   5.910   1.544   3.255 -0.2062 -0.4555  0.3012
 3176ntf    fn420639   6.114   1.608   3.293 -0.3456  0.3355  0.5370
 3176ntf    fn420640   5.953   1.692   3.399 -0.1086  0.0590  0.0176
 3177ntf    cn120641   2.247   2.552   1.311 -0.0149 -0.2104 -0.0714
 3177ntf    sn220642   2.265   2.511   1.135  0.1054 -0.1728 -0.0678
 3177ntf    nn320643   2.294   2.357   1.135  0.2093 -0.1544  0.5561
 3177ntf    sn220644   2.388   2.278   1.038 -0.1305  0.0621  0.0465
 3177ntf    cn120645   2.308   2.115   1.047  0.0189 -0.0007  0.2705
 3177ntf    fn420646   2.138   2.492   1.355  0.0452 -0.3034 -0.0493
 3177ntf    fn420647   2.349   2.503   1.381 -0.2249  0.2612  0.5746
 3177ntf    fn420648   2.235   2.682   1.332  0.2320 -0.1166 -0.4969
 3177ntf    on520649   2.130   2.544   1.096  0.3577  0.3112 -0.5631
 3177ntf    on520650   2.366   2.602   1.087 -0.0437  0.2278  0.3713
 3177ntf    on520651   2.525   2.259   1.079  0.2517  0.2875 -1.0876
 3177ntf    on520652   2.358   2.305   0.900 -0.1669  0.1278  0.0673
 3177ntf    fn420653   2.205   2.101   0.964 -0.0502 -0.8862  0.4989
 3177ntf    fn420654   2.394   2.030   0.994  0.3344  0.3213  0.2688
 3177ntf    fn420655   2.279   2.073   1.169 -0.3456 -0.2055  0.1173
 3178ntf    cn120656   0.512   5.835   5.855  0.0528 -0.0314 -0.4712
 3178ntf    sn220657   0.420   5.678   5.850 -0.3310  0.1694  0.1278
 3178ntf    nn320658   0.499   5.587   5.952  0.2736  0.5630  0.0146
 3178ntf    sn220659   0.618   5.494   5.909 -0.3548 -0.1282 -0.2538
 3178ntf    cn120660   0.538   5.355   5.825 -0.3943  0.0903 -0.5798
 3178ntf    fn420661   0.448   5.942   5.809  0.2782  0.4655  0.3646
 3178ntf    fn420662   0.553   5.865   5.977 -0.6444  0.4009 -0.3366
 3178ntf    fn420663   0.623   5.833   5.784  0.5552  0.1786  0.2961
 3178ntf    on520664   0.288   5.707   5.899 -0.4430  0.1492 -0.1600
 3178ntf    on520665   0.431   5.639   5.712  0.0313 -0.0837  0.2251
 3178ntf    on520666   0.675   5.437   6.028 -0.2046 -0.0753 -0.3004
 3178ntf    on520667   0.704   5.548   5.806  0.1860  0.4189  0.4759
 3178ntf    fn420668   0.475   5.382   5.711 -0.0571  0.1929 -0.7416
 3178ntf    fn420669   0.631   5.268   5.789  0.2278  0.5928 -0.1943
 3178ntf    fn420670   0.449   5.292   5.900  0.3958 -0.0998  0.2124
 3179ntf    cn120671   1.182   5.995   1.240  0.3161  0.0215  0.2397
 3179ntf    sn220672   1.231   6.105   1.105  0.3694 -0.1007  0.1591
 3179ntf    nn320673   1.386   6.085   1.098  0.3745 -0.0495  0.1202
 3179ntf    sn220674   1.462   5.977   1.012  0.3342  0.0583 -0.0512
 3179ntf    cn120675   1.531   6.096   0.893  0.0070  0.2046 -0.0967
 3179ntf    fn420676   1.211   6.047   1.358  0.1762 -0.0716  0.3165
 3179ntf    fn420677   1.052   5.970   1.233  0.0950  0.9893  0.7089
 3179ntf    fn420678   1.240   5.876   1.236 -0.0781 -0.1594 -0.2858
 3179ntf    on520679   1.152   6.086   0.986 -0.1156 -0.2471  0.4997
 3179ntf    on520680   1.210   6.232   1.171  0.4904 -0.0859  0.1685
 3179ntf    on520681   1.376   5.887   0.939 -0.4826  0.4821  0.3818
 3179ntf    on520682   1.580   5.935   1.084  0.7237 -0.1199 -0.7795
 3179ntf    fn420683   1.431   6.157   0.832  0.0829 -0.0212 -0.4470
 3179ntf    fn420684   1.599   6.190   0.957 -0.1992 -0.0291  0.4751
 3179ntf    fn420685   1.614   6.050   0.801  0.1669  0.2547  0.0224
 3180ntf    cn120686   2.159   3.892   1.792 -0.3957 -0.1721 -0.3329
 3180ntf    sn220687   2.116   3.939   1.622 -0.3979  0.0333 -0.2758
 3180ntf    nn320688   2.008   4.051   1.644  0.1793  0.5721 -0.1656
 3180ntf    sn220689   1.852   4.046   1.627  0.1775  0.2572 -0.0709
 3180ntf    cn120690   1.833   4.078   1.449  0.4151 -0.3659 -0.2122
 3180ntf    fn420691   2.185   4.000   1.863  0.0634 -0.3787 -0.1830
 3180ntf    fn420692   2.060   3.832   1.855 -0.0771 -0.3940 -0.0368
 3180ntf    fn420693   2.263   3.811   1.804 -0.0305  0.3467  0.0384
 3180ntf    on520694   2.230   3.989   1.548 -0.4925 -0.1268 -0.5333
 3180ntf    on520695   2.060   3.816   1.572  0.1155  0.0100 -0.8095
 3180ntf    on520696   1.785   4.156   1.692  0.4138  0.3924 -0.0552
 3180ntf    on520697   1.789   3.919   1.652  0.2157  0.1796 -0.3654
 3180ntf    fn420698   1.704   4.073   1.418  0.3626 -0.5105  0.0219
 3180ntf    fn420699   1.877   4.201   1.426  0.2727 -0.2829 -0.0510
 3180ntf    fn420700   1.898   3.993   1.371  0.4623 -0.1048 -0.4589
 3181ntf    cn120701   3.497   5.426   3.905  0.2004 -0.1081  0.2946
 3181ntf    sn220702   3.667   5.478   3.865  0.0709 -0.0645 -0.2036
 3181ntf    nn320703   3.749   5.350   3.901 -0.5073 -0.3259  0.2101
 3181ntf    sn220704   3.819   5.322   4.039 -0.4076 -0.3806  0.1490
 3181ntf    cn120705   3.967   5.427   4.024 -0.5437 -0.1601  0.3505
 3181ntf    fn420706   3.455   5.310   3.857  0.1006 -0.1071  0.3800
 3181ntf    fn420707   3.492   5.413   4.037 -0.3943 -0.4352  0.2421
 3181ntf    fn420708   3.402   5.516   3.892  0.0169 -0.3064  0.2540
 3181ntf    on520709   3.663   5.502   3.723 -0.2262  0.1845 -0.1545
 3181ntf    on520710   3.703   5.592   3.946  0.0930 -0.1682 -0.0675
 3181ntf    on520711   3.873   5.189   4.045 -0.2988 -0.3707 -0.4986
 3181ntf    on520712   3.758   5.368   4.161 -0.0168 -0.5639  0.4146
 3181ntf    fn420713   4.067   5.390   4.103 -0.5482  0.0249  0.4432
 3181ntf    fn420714   4.010   5.421   3.899  0.6021  0.4844  0.6935
 3181ntf    fn420715   3.943   5.555   4.051  0.1370  0.0517 -0.0345
 3182ntf    cn120716   3.466   0.242   5.516 -0.0550 -0.1748  0.1125
 3182ntf    sn220717   3.626   0.313   5.471 -0.1374  0.0726  0.2096
 3182ntf    nn320718   3.697   0.185   5.414 -0.0486  0.1476  0.1486
 3182ntf    sn220719   3.740   0.050   5.483 -0.0001 -0.0026 -0.1735
 3182ntf    cn120720   3.633  -0.063   5.389  0.0573 -0.0802 -0.1453
 3182ntf    fn420721   3.477   0.139   5.599  0.2162 -0.1063  0.1617
 3182ntf    fn420722   3.386   0.328   5.577 -0.8249 -0.1418 -0.9065
 3182ntf    fn420723   3.395   0.200   5.412  0.4304 -0.5959 -0.0518
 3182ntf    on520724   3.597   0.409   5.367 -0.0050 -0.1767 -0.0589
 3182ntf    on520725   3.677   0.372   5.592 -0.1074  0.7956 -0.1463
 3182ntf    on520726   3.714   0.040   5.624 -0.5850 -0.6325 -0.3206
 3182ntf    on520727   3.874   0.007   5.451 -0.1511 -0.5706 -0.0543
 3182ntf    fn420728   3.668  -0.072   5.262 -0.3323  0.2774 -0.2811
 3182ntf    fn420729   3.633  -0.187   5.435 -0.4966  0.2550  0.7730
 3182ntf    fn420730   3.508  -0.021   5.395  0.2107  0.3353  0.2479
 3183ntf    cn120731   1.843   2.690   2.617 -0.2210  0.1534 -0.1995
 3183ntf    sn220732   1.780   2.571   2.496  0.0383 -0.3866  0.1945
 3183ntf    nn320733   1.641   2.514   2.544 -0.2681  0.1456 -0.0584
 3183ntf    sn220734   1.584   2.368   2.552 -0.2833  0.1303 -0.4191
 3183ntf    cn120735   1.514   2.353   2.385  0.1974 -0.0421 -0.6059
 3183ntf    fn420736   1.875   2.643   2.736  0.2815 -0.3930 -0.5491
 3183ntf    fn420737   1.948   2.760   2.578  0.1281 -0.2784 -0.0430
 3183ntf    fn420738   1.750   2.783   2.636 -0.5776 -0.1859 -0.2808
 3183ntf    on520739   1.769   2.645   2.373  0.6243 -0.0457  0.3471
 3183ntf    on520740   1.884   2.471   2.496  0.1410 -0.2813 -0.2189
 3183ntf    on520741   1.465   2.354   2.633  0.2400  0.4612  0.4206
 3183ntf    on520742   1.685   2.267   2.567 -0.3812 -0.0123 -0.7145
 3183ntf    fn420743   1.398   2.415   2.378  0.2922  0.1464 -0.4989
 3183ntf    fn420744   1.591   2.403   2.291 -0.0115 -0.4282 -0.9881
 3183ntf    fn420745   1.485   2.228   2.352 -0.0317 -0.0129 -0.5183
 3184ntf    cn120746   4.384   0.517   5.595  0.1075  0.3859 -0.0655
 3184ntf    sn220747   4.449   0.450   5.439 -0.3404 -0.1064 -0.0447
 3184ntf    nn320748   4.413   0.566   5.341 -0.3308  0.2110  0.3246
 3184ntf    sn220749   4.501   0.694   5.314 -0.1563  0.0546  0.1523
 3184ntf    cn120750   4.435   0.750   5.155 -0.1358 -0.4944 -0.0529
 3184ntf    fn420751   4.415   0.642   5.625 -0.1875  0.3396  0.4551
 3184ntf    fn420752   4.252   0.514   5.584  0.1299  0.2750 -0.3091
 3184ntf    fn420753   4.409   0.441   5.701 -0.2363 -0.0374 -0.2827
 3184ntf    on520754   4.588   0.419   5.463 -0.1197  0.7363 -0.2157
 3184ntf    on520755   4.364   0.336   5.413 -0.4268 -0.0030 -0.2117
 3184ntf    on520756   4.638   0.676   5.270 -0.3023 -1.3447  0.2184
 3184ntf    on520757   4.475   0.801   5.407  1.0157  0.6854 -0.2156
 3184ntf    fn420758   4.442   0.658   5.060  0.5388 -0.1718 -0.3217
 3184ntf    fn420759   4.306   0.781   5.158  0.0386  0.2439 -0.0028
 3184ntf    fn420760   4.497   0.852   5.096 -0.1888 -0.4458 -0.0242
 3185ntf    cn120761   3.884   3.529   6.991 -0.1624 -0.2024  0.3116
 3185ntf    sn220762   3.886   3.609   7.154  0.0194 -0.2734  0.3443
 3185ntf    nn320763   3.975   3.514   7.242  0.2350  0.3065  0.7584
 3185ntf    sn220764   3.945   3.372   7.300  0.2213 -0.0552 -0.1162
 3185ntf    cn120765   3.936   3.415   7.476 -0.2173  0.4324 -0.2548
 3185ntf    fn420766   3.819   3.601   6.901  0.0864 -0.0858  0.2230
 3185ntf    fn420767   4.001   3.507   6.934 -0.2662 -0.2543  0.1138
 3185ntf    fn420768   3.830   3.408   6.998  0.2466 -0.4288 -0.3723
 3185ntf    on520769   3.947   3.735   7.122 -0.2517 -0.3035 -0.3179
 3185ntf    on520770   3.748   3.617   7.196  0.0711  0.1059  0.4424
 3185ntf    on520771   4.058   3.282   7.293  0.4752  0.2967 -0.5795
 3185ntf    on520772   3.810   3.326   7.273  0.0142  0.2849  0.3273
 3185ntf    fn420773   3.846   3.510   7.497 -0.4226  0.1864 -0.0061
 3185ntf    fn420774   3.908   3.309   7.551  0.2997  0.3773 -0.1376
 3185ntf    fn420775   4.052   3.462   7.518 -0.1557  0.0410  0.0172
 3186ntf    cn120776   4.175   6.465   2.257  0.4105  0.1632 -0.4990
 3186ntf    sn220777   4.356   6.476   2.258  0.4040  0.2407  0.0462
 3186ntf    nn320778   4.372   6.600   2.353  0.0864  0.2351  0.1050
 3186ntf    sn220779   4.380   6.752   2.313  0.2577  0.1855 -0.0507
 3186ntf    cn120780   4.561   6.759   2.298  0.2972 -0.0398  0.2997
 3186ntf    fn420781   4.105   6.574   2.230  0.0537 -0.0260 -0.3511
 3186ntf    fn420782   4.134   6.373   2.170  0.1140 -0.5927  0.4269
 3186ntf    fn420783   4.127   6.439   2.377 -0.1623  0.4055 -0.6693
 3186ntf    on520784   4.403   6.356   2.323  0.1266 -0.0882 -0.3554
 3186ntf    on520785   4.397   6.496   2.121  0.3779  0.5214  0.0791
 3186ntf    on520786   4.344   6.827   2.431 -0.1100 -0.3567  0.1879
 3186ntf    on520787   4.335   6.796   2.184  0.0563  0.5370  0.1396
 3186ntf    fn420788   4.608   6.881   2.276  0.2886  0.0074  0.5343
 3186ntf    fn420789   4.624   6.728   2.410  0.9933 -0.1727 -0.1212
 3186ntf    fn420790   4.607   6.683   2.200  0.0936 -0.3718  0.4632
 3187ntf    cn120791   2.960   2.247   3.826 -0.0088  0.3114 -0.1144
 3187ntf    sn220792   3.057   2.364   3.926 -0.1026 -0.1581  0.5306
 3187ntf    nn320793   3.129   2.447   3.813 -0.4121 -0.1392  0.3439
 3187ntf    sn220794   3.269   2.411   3.751 -0.2663  0.2589  0.4440
 3187ntf    cn120795   3.246   2.481   3.585  0.3281 -0.4253  0.0669
 3187ntf    fn420796   2.868   2.189   3.901 -0.0531  0.4853 -0.0337
 3187ntf    fn420797   2.889   2.317   3.738 -0.2539 -0.0710 -0.2240
 3187ntf    fn420798   3.029   2.156   3.759 -0.0036  0.6223 -0.5407
 3187ntf    on520799   2.963   2.443   4.001 -0.0368  0.0836  0.3588
 3187ntf    on520800   3.148   2.284   4.004  1.1770  0.6105 -0.1455
 3187ntf    on520801   3.292   2.271   3.726 -0.9651  0.2743 -0.3216
 3187ntf    on520802   3.380   2.491   3.797  0.0245  0.1664 -0.0970
 3187ntf    fn420803   3.147   2.424   3.518  0.2162  0.1276 -0.2472
 3187ntf    fn420804   3.214   2.610   3.589  0.5806 -0.3706  0.4097
 3187ntf    fn420805   3.355   2.470   3.511  0.1804 -0.1452 -0.1979
 3188ntf    cn120806   4.929   3.098   2.524 -0.2030  0.1440  0.1104
 3188ntf    sn220807   4.904   3.217   2.389 -0.3586  0.2605  0.2415
 3188ntf    nn320808   4.881   3.351   2.469 -0.2840  0.4814 -0.1036
 3188ntf    sn220809   4.968   3.481   2.479  0.1850  0.1732 -0.1643
 3188ntf    cn120810   4.844   3.611   2.505  0.0979 -0.0329  0.4534
 3188ntf    fn420811   4.939   2.975   2.476  0.0743  0.1342  0.1906
 3188ntf    fn420812   5.040   3.133   2.587 -0.0986  0.3222 -0.1698
 3188ntf    fn420813   4.838   3.094   2.620  0.0785  0.3223  0.3889
 3188ntf    on520814   5.027   3.199   2.315 -0.5727  0.1873 -0.0981
 3188ntf    on520815   4.781   3.167   2.334 -0.2088  0.3624 -0.1938
 3188ntf    on520816   5.045   3.524   2.365  0.1202  0.4102 -0.1175
 3188ntf    on520817   5.028   3.478   2.610  0.2130 -0.7962 -0.1878
 3188ntf    fn420818   4.899   3.729   2.526 -0.0013  0.1050 -0.0463
 3188ntf    fn420819   4.759   3.626   2.405  0.0292 -0.0609  0.5073
 3188ntf    fn420820   4.769   3.570   2.606 -0.1755 -0.2959  0.1456
 3189ntf    cn120821   2.516   3.083   4.091 -0.3502 -0.3797  0.2470
 3189ntf    sn220822   2.544   2.929   3.998  0.2430 -0.2085  0.1367
 3189ntf    nn320823   2.400   2.908   3.939  0.2659 -0.2757  0.1055
 3189ntf    sn220824   2.306   2.782   3.942  0.0621 -0.1258  0.0727
 3189ntf    cn120825   2.368   2.700   3.792  0.2653 -0.2633  0.2291
 3189ntf    fn420826   2.627   3.127   4.148 -0.2361 -0.2044 -0.1153
 3189ntf    fn420827   2.465   3.180   4.018  0.0559 -0.1045  0.3244
 3189ntf    fn420828   2.438   3.072   4.198 -0.2961  0.4663  0.3811
 3189ntf    on520829   2.632   2.978   3.895 -0.0299 -0.1271 -0.0599
 3189ntf    on520830   2.585   2.824   4.088  0.4018 -0.3509 -0.1003
 3189ntf    on520831   2.172   2.819   3.904  0.2381  0.0378 -0.3973
 3189ntf    on520832   2.318   2.698   4.059  0.1208  0.1442  0.2617
 3189ntf    fn420833   2.290   2.600   3.754  0.0219 -0.0145  0.0636
 3189ntf    fn420834   2.380   2.788   3.694 -0.0306 -0.4305  0.0391
 3189ntf    fn420835   2.485   2.641   3.807  0.4431  0.0076 -0.0771
 3190ntf    cn120836   3.866   0.642   6.717 -0.2103  0.3820  0.1363
 3190ntf    sn220837   4.032   0.566   6.713 -0.3353  0.1191 -0.0672
 3190ntf    nn320838   4.105   0.660   6.816 -0.0584  0.0088 -0.1624
 3190ntf    sn220839   4.122   0.638   6.970  0.0134  0.3224 -0.1261
 3190ntf    cn120840   4.285   0.557   6.966  0.0906  0.4906 -0.3412
 3190ntf    fn420841   3.869   0.749   6.640 -0.3370 -0.1795 -0.6568
 3190ntf    fn420842   3.781   0.552   6.672  0.0863 -0.2017  0.7202
 3190ntf    fn420843   3.835   0.678   6.841 -0.5220 -0.2018  0.2301
 3190ntf    on520844   4.004   0.434   6.762 -0.1837  0.1061 -0.0180
 3190ntf    on520845   4.078   0.572   6.576 -0.4603  0.2900 -0.1033
 3190ntf    on520846   4.035   0.546   7.039  0.0654  0.2466 -0.1605
 3190ntf    on520847   4.154   0.766   7.029  0.6254  0.3194 -0.4434
 3190ntf    fn420848   4.329   0.523   7.086 -0.2304  0.0820 -0.3353
 3190ntf    fn420849   4.273   0.451   6.887 -0.4596  0.4127 -0.1514
 3190ntf    fn420850   4.368   0.642   6.908  0.4139  0.3888 -0.0335
 3191ntf    cn120851   4.962   2.079   2.538  0.0129  0.5681  0.0714
 3191ntf    sn220852   4.847   2.100   2.399 -0.2289  0.4676  0.2552
 3191ntf    nn320853   4.928   2.058   2.270 -0.4917 -0.1733  0.2945
 3191ntf    sn220854   4.888   1.978   2.141  0.0999 -0.0519  0.0348
 3191ntf    cn120855   4.918   1.809   2.201  0.3340 -0.1534 -0.3704
 3191ntf    fn420856   4.968   1.953   2.579 -0.2167  0.5343  0.0027
 3191ntf    fn420857   5.083   2.119   2.504  0.0709  0.0361 -0.3620
 3191ntf    fn420858   4.925   2.151   2.642 -0.0487  0.6311  0.0053
 3191ntf    on520859   4.729   2.022   2.425 -0.0084  0.0301 -0.0375
 3191ntf    on520860   4.831   2.243   2.386 -0.2667  0.4284 -0.1598
 3191ntf    on520861   4.984   2.009   2.038 -0.2259 -0.0736 -0.2740
 3191ntf    on520862   4.746   1.980   2.119  0.1447 -0.8225 -0.3574
 3191ntf    fn420863   4.844   1.783   2.307  0.4929 -0.5237 -0.3486
 3191ntf    fn420864   4.891   1.730   2.098  0.6616 -0.4817 -0.2101
 3191ntf    fn420865   5.042   1.794   2.247  0.2203 -0.2388 -0.0920
 3192ntf    cn120866   5.502   1.139   2.905  0.2618  0.0046  0.0255
 3192ntf    sn220867   5.677   1.089   2.910  0.1822 -0.2464  0.3194
 3192ntf    nn320868   5.654   0.934   2.911 -0.6759 -0.1268  0.0575
 3192ntf    sn220869   5.731   0.826   2.827 -0.2558  0.0766  0.1791
 3192ntf    cn120870   5.653   0.686   2.913 -0.0685 -0.1154  0.0367
 3192ntf    fn420871   5.429   1.085   3.002  0.0798 -0.0314 -0.1295
 3192ntf    fn420872   5.479   1.269   2.906  0.1780 -0.0081 -0.1938
 3192ntf    fn420873   5.448   1.106   2.789  0.2730  0.0071  0.0197
 3192ntf    on520874   5.729   1.145   2.788 -0.1996 -0.4703  0.0483
 3192ntf    on520875   5.722   1.134   3.039 -0.2009  0.3923  0.2363
 3192ntf    on520876   5.869   0.806   2.863  0.0144 -0.2176 -0.9830
 3192ntf    on520877   5.680   0.806   2.693  0.2079  0.6303 -0.0832
 3192ntf    fn420878   5.522   0.699   2.924 -0.0716  0.1930 -0.3668
 3192ntf    fn420879   5.676   0.571   2.850  0.1662  0.2092 -0.4732
 3192ntf    fn420880   5.702   0.671   3.035 -0.3704 -0.1661  0.1520
 3193ntf    cn120881   4.244   6.363   4.315 -0.0297  0.3114 -0.5123
 3193ntf    sn220882   4.386   6.469   4.275  0.5009 -0.0809  0.3039
 3193ntf    nn320883   4.462   6.379   4.171  0.0071  0.5839 -0.6441
 3193ntf    sn220884   4.459   6.393   4.015 -0.3278 -0.4067 -0.7326
 3193ntf    cn120885   4.320   6.290   3.959 -0.4356 -0.5427 -0.2154
 3193ntf    fn420886   4.146   6.353   4.227 -0.0211 -0.0740 -0.4801
 3193ntf    fn420887   4.278   6.239   4.345  0.2400  0.3999 -0.4497
 3193ntf    fn420888   4.184   6.422   4.417 -0.0889 -0.2286 -0.2294
 3193ntf    on520889   4.323   6.590   4.228 -0.1946 -0.3590  0.5039
 3193ntf    on520890   4.459   6.473   4.400  0.0631 -0.3828  0.5733
 3193ntf    on520891   4.572   6.323   3.960  0.4336  0.3706 -0.1786
 3193ntf    on520892   4.429   6.523   3.961  0.4197  0.0595 -0.0500
 3193ntf    fn420893   4.358   6.164   3.945  0.3115 -0.4384  0.7387
 3193ntf    fn420894   4.207   6.294   4.028  0.2224  0.4681  0.8360
 3193ntf    fn420895   4.285   6.318   3.835  0.3469 -0.1443 -0.3534
 3194ntf    cn120896   4.774   4.860   6.866  0.5217 -0.3366  0.3583
 3194ntf    sn220897   4.772   4.679   6.883  0.1333 -0.3719 -0.0442
 3194ntf    nn320898   4.665   4.667   6.996  0.2088  0.4194  0.1188
 3194ntf    sn220899   4.693   4.651   7.150 -0.1987 -0.1466  0.1377
 3194ntf    cn120900   4.646   4.478   7.180  0.3768 -0.3440 -0.0837
 3194ntf    fn420901   4.805   4.920   6.980 -0.2136 -0.0784  0.4233
 3194ntf    fn420902   4.865   4.905   6.780  0.0447 -0.0575 -0.0046
 3194ntf    fn420903   4.662   4.912   6.818  0.2795 -0.5787  0.6578
 3194ntf    on520904   4.711   4.642   6.758  0.1407 -0.4486 -0.0251
 3194ntf    on520905   4.909   4.641   6.907  0.3418  0.5891  0.3345
 3194ntf    on520906   4.602   4.731   7.228 -0.1786  0.2114 -0.2039
 3194ntf    on520907   4.833   4.658   7.186 -0.1762  0.4466 -0.0548
 3194ntf    fn420908   4.700   4.388   7.098  0.2430 -0.0477 -0.5007
 3194ntf    fn420909   4.702   4.437   7.292  1.1111 -0.2347 -0.4042
 3194ntf    fn420910   4.515   4.457   7.174  0.3498 -0.4115  0.6840
 3195ntf    cn120911   3.577   1.145   1.157  0.0017  0.2406 -0.0260
 3195ntf    sn220912   3.709   1.172   1.279 -0.0226  0.2615 -0.0042
 3195ntf    nn320913   3.739   1.326   1.271 -0.4361  0.3378 -0.1270
 3195ntf    sn220914   3.674   1.424   1.374  0.1163  0.4284  0.1405
 3195ntf    cn120915   3.786   1.397   1.515  0.2778  0.0600 -0.0568
 3195ntf    fn420916   3.496   1.045   1.188  0.1614  0.2933  0.5817
 3195ntf    fn420917   3.500   1.251   1.137 -0.0213  0.2011 -0.1471
 3195ntf    fn420918   3.611   1.119   1.032 -0.3929 -0.1274 -0.0609
 3195ntf    on520919   3.653   1.112   1.398  0.5546  0.1805  0.2278
 3195ntf    on520920   3.824   1.100   1.229 -0.2368 -0.2803  0.2695
 3195ntf    on520921   3.538   1.396   1.415 -0.0937  0.0975 -0.7607
 3195ntf    on520922   3.702   1.563   1.346  0.7241  0.2270 -0.2615
 3195ntf    fn420923   3.910   1.402   1.471  0.1016 -0.4393 -0.6205
 3195ntf    fn420924   3.766   1.489   1.609  0.1530 -0.1985  0.1704
 3195ntf    fn420925   3.775   1.283   1.580  0.5950  0.1356  0.1284
 3196ntf    cn120926   1.021   3.174   2.789 -0.0680 -0.4169  0.4387
 3196ntf    sn220927   1.197   3.138   2.762 -0.0347  0.3021 -0.3765
 3196ntf    nn320928   1.236   3.125   2.914  0.7510  0.1011 -0.5917
 3196ntf    sn220929   1.379   3.086   2.966  0.5657 -0.1943 -0.3045
 3196ntf    cn120930   1.432   3.255   3.005  0.0533  0.0102 -0.4931
 3196ntf    fn420931   0.997   3.282   2.862  0.4675 -0.4255  0.6357
 3196ntf    fn420932   0.946   3.182   2.680  0.3305  0.4351  0.2117
 3196ntf    fn420933   0.970   3.074   2.859 -0.1205 -0.4830  0.3062
 3196ntf    on520934   1.188   3.013   2.690 -0.8148  0.2355 -0.1677
 3196ntf    on520935   1.248   3.256   2.697  0.3385  0.1172 -0.4261
 3196ntf    on520936   1.471   3.027   2.872  0.6260 -0.4065 -0.1157
 3196ntf    on520937   1.371   3.029   3.099 -0.1209  0.0462 -0.2378
 3196ntf    fn420938   1.539   3.267   3.081 -0.2673  0.0529 -0.0433
 3196ntf    fn420939   1.456   3.318   2.891 -0.4812  0.7666 -0.1954
 3196ntf    fn420940   1.335   3.320   3.068  0.1393 -0.3442  0.0157
 3197ntf    cn120941   1.360   3.599   1.996  0.5080 -0.0356  0.4540
 3197ntf    sn220942   1.232   3.601   1.867  0.4609 -0.1611  0.4983
 3197ntf    nn320943   1.269   3.475   1.782 -1.1474 -0.0564 -0.3935
 3197ntf    sn220944   1.261   3.325   1.829  0.3018  0.0432  0.2047
 3197ntf    cn120945   1.088   3.300   1.781  0.2901  0.1538  0.1871
 3197ntf    fn420946   1.389   3.719   2.045  0.2182  0.1572  0.1593
 3197ntf    fn420947   1.315   3.532   2.101 -0.6165  0.0153  0.0247
 3197ntf    fn420948   1.478   3.553   1.961  0.4296 -0.1254  0.3092
 3197ntf    on520949   1.105   3.606   1.935  0.1255 -0.3940 -0.1057
 3197ntf    on520950   1.260   3.729   1.806 -0.4040 -0.0266  0.3683
 3197ntf    on520951   1.267   3.296   1.970  0.0855  0.2743  0.2635
 3197ntf    on520952   1.329   3.235   1.740  0.1223 -0.1218  0.2328
 3197ntf    fn420953   1.001   3.363   1.858 -0.1849 -0.0394 -0.1847
 3197ntf    fn420954   1.072   3.347   1.658 -0.2201 -0.2213  0.1040
 3197ntf    fn420955   1.054   3.172   1.790 -0.0518  0.2326  0.0481
 3198ntf    cn120956   5.440   1.363   0.929  0.1907  0.0742  0.0375
 3198ntf    sn220957   5.508   1.212   1.004 -0.0108 -0.1377 -0.2033
 3198ntf    nn320958   5.576   1.277   1.130 -0.2737  0.0587 -0.1634
 3198ntf    sn220959   5.585   1.225   1.278  0.2156 -0.0707 -0.2359
 3198ntf    cn120960   5.423   1.288   1.333  0.1829  0.1244 -0.5490
 3198ntf    fn420961   5.363   1.324   0.828  0.0693  0.1963  0.0821
 3198ntf    fn420962   5.370   1.432   1.019  0.1645  0.2450 -0.1138
 3198ntf    fn420963   5.524   1.449   0.875  0.0559 -0.0201 -0.3241
 3198ntf    on520964   5.405   1.117   1.035 -0.1330 -0.0354 -0.2997
 3198ntf    on520965   5.606   1.177   0.903  0.2432 -0.1365  0.0406
 3198ntf    on520966   5.680   1.296   1.360 -0.1134 -0.0461  0.1249
 3198ntf    on520967   5.575   1.083   1.298  0.4149 -0.0570 -0.0362
 3198ntf    fn420968   5.330   1.233   1.258 -0.5199 -0.1280  0.4826
 3198ntf    fn420969   5.394   1.260   1.459 -0.7276  0.1475 -0.7462
 3198ntf    fn420970   5.419   1.420   1.325  0.3989  0.1616 -0.0744
 3199ntf    cn120971   4.361   6.443   1.358  0.0707  0.4574 -0.3938
 3199ntf    sn220972   4.329   6.504   1.526  0.2950 -0.2307 -0.0996
 3199ntf    nn320973   4.192   6.433   1.555  0.2276 -0.3810 -0.7768
 3199ntf    sn220974   4.173   6.307   1.646  0.0931 -0.0923 -0.4041
 3199ntf    cn120975   4.202   6.367   1.815 -0.0645 -0.1576 -0.3533
 3199ntf    fn420976   4.250   6.425   1.288 -0.1425  0.2212  0.0041
 3199ntf    fn420977   4.443   6.528   1.298  0.2122  0.3819 -0.3062
 3199ntf    fn420978   4.431   6.331   1.351 -0.5272  0.0729 -0.2646
 3199ntf    on520979   4.446   6.460   1.599 -0.1832 -0.3414  0.6039
 3199ntf    on520980   4.323   6.646   1.502 -0.3320 -0.1767  0.3544
 3199ntf    on520981   4.278   6.211   1.622 -0.0117 -0.2503 -0.2364
 3199ntf    on520982   4.038   6.255   1.644 -0.0608  0.2877 -0.0837
 3199ntf    fn420983   4.325   6.417   1.816 -0.0410 -0.2183  0.1508
 3199ntf    fn420984   4.109   6.455   1.846  0.4325  0.1484  0.2947
 3199ntf    fn420985   4.199   6.274   1.910 -0.5125  0.2697  0.0513
 3200ntf    cn120986   3.353   0.586   1.030  0.2231 -0.0157  0.3596
 3200ntf    sn220987   3.255   0.701   0.929  0.1406 -0.0281  0.4263
 3200ntf    nn320988   3.146   0.596   0.887 -0.1318  0.4520 -0.0809
 3200ntf    sn220989   3.070   0.573   0.752  0.1981  0.1561 -0.2176
 3200ntf    cn120990   2.909   0.539   0.829  0.0216 -0.1939 -0.7367
 3200ntf    fn420991   3.277   0.539   1.127 -0.5799  0.2492 -0.1297
 3200ntf    fn420992   3.419   0.494   0.962  0.3061  0.7662 -0.6529
 3200ntf    fn420993   3.452   0.649   1.090  0.3071  0.3552 -0.1562
 3200ntf    on520994   3.207   0.800   1.023  0.2426 -0.2015  0.6622
 3200ntf    on520995   3.342   0.744   0.823 -0.1962 -0.0671  0.1342
 3200ntf    on520996   3.103   0.449   0.686 -0.2009 -0.0548 -0.0286
 3200ntf    on520997   3.043   0.689   0.670 -0.2378  0.4741  0.3681
 3200ntf    fn420998   2.901   0.416   0.879 -0.8417  0.0134 -0.3456
 3200ntf    fn420999   2.879   0.620   0.929  0.3848 -0.1145 -0.6908
 3200ntf    fn421000   2.812   0.551   0.740  0.0179  0.3750 -0.6555
 3201ntf    cn121001   5.890   2.895   2.831  0.1428 -0.0321 -0.6500
 3201ntf    sn221002   5.857   3.041   2.728 -0.0800  0.2442 -0.1897
 3201ntf    nn321003   6.002   3.075   2.679  0.0375 -0.3010 -0.2184
 3201ntf    sn221004   6.061   3.015   2.545  0.1933 -0.3239 -0.1403
 3201ntf    cn121005   6.223   3.096   2.554  0.1152 -0.1436 -0.3611
 3201ntf    fn421006   5.913   2.787   2.759 -0.0882 -0.3430 -0.2630
 3201ntf    fn421007   5.992   2.918   2.911 -0.4909 -0.3796  0.2795
 3201ntf    fn421008   5.786   2.868   2.908  0.7108 -0.4072 -0.0049
 3201ntf    on521009   5.767   3.003   2.623 -0.0732  0.0387 -0.1213
 3201ntf    on521010   5.809   3.139   2.822  0.1520 -0.0739  0.2626
 3201ntf    on521011   6.010   3.067   2.421 -0.5283 -0.4472  0.0978
 3201ntf    on521012   6.092   2.875   2.560 -0.2596 -0.3503  0.6121
 3201ntf    fn421013   6.214   3.224   2.585 -0.2472 -0.2323 -0.1101
 3201ntf    fn421014   6.295   3.047   2.653 -0.1373  0.5498  0.1678
 3201ntf    fn421015   6.296   3.086   2.444  0.1300  0.2279 -0.3856
 3202ntf    cn121016   2.093   3.748   2.259  0.2240  0.2886 -0.1852
 3202ntf    sn221017   2.235   3.648   2.205 -0.0370 -0.1699 -0.0375
 3202ntf    nn321018   2.166   3.527   2.133  0.1607 -0.2043 -0.1699
 3202ntf    sn221019   2.139   3.383   2.188 -0.5039  0.0305  0.1407
 3202ntf    cn121020   2.018   3.338   2.060 -0.0097 -0.3273 -0.2055
 3202ntf    fn421021   2.003   3.775   2.166  0.3207 -0.3513 -0.4715
 3202ntf    fn421022   2.024   3.686   2.355  0.0698  0.2644 -0.3111
 3202ntf    fn421023   2.140   3.859   2.313  0.3148  0.1849 -0.0486
 3202ntf    on521024   2.307   3.736   2.116  0.3532 -0.7019 -0.2469
 3202ntf    on521025   2.310   3.618   2.325 -0.4986  0.9559  0.5567
 3202ntf    on521026   2.063   3.377   2.310 -0.0423 -0.6371  0.4081
 3202ntf    on521027   2.258   3.301   2.181  0.1932  0.9740  0.6767
 3202ntf    fn421028   2.068   3.377   1.943  0.5451 -0.3375  0.0260
 3202ntf    fn421029   1.997   3.207   2.060 -0.7025 -0.2188 -0.2053
 3202ntf    fn421030   1.902   3.397   2.079  0.0451 -0.4832  0.6269
 3203ntf    cn121031   5.606   0.850   6.245  0.1037  0.3377  0.1270
 3203ntf    sn221032   5.666   1.021   6.236  0.2255  0.2664 -0.4147
 3203ntf    nn321033   5.810   1.009   6.298 -0.0119 -0.5704 -0.0123
 3203ntf    sn221034   5.883   1.100   6.403  0.0608 -0.1432 -0.4298
 3203ntf    cn121035   5.843   1.010   6.556 -0.0144  0.2939 -0.1901
 3203ntf    fn421036   5.660   0.769   6.156 -0.3202  0.4046 -0.1945
 3203ntf    fn421037   5.636   0.798   6.363  0.0689 -0.1666 -0.0815
 3203ntf    fn421038   5.475   0.843   6.226  0.1420  0.2372 -0.0986
 3203ntf    on521039   5.656   1.051   6.095  0.1867  0.3632 -0.3916
 3203ntf    on521040   5.572   1.091   6.320 -0.0802 -0.1260 -0.4294
 3203ntf    on521041   5.828   1.232   6.420  0.0021 -0.2071 -0.1188
 3203ntf    on521042   6.027   1.089   6.394  0.0734 -0.3325 -0.0173
 3203ntf    fn421043   5.895   1.084   6.652  0.2997 -0.0872 -0.0646
 3203ntf    fn421044   5.718   0.978   6.584  0.3515 -0.8532  0.2068
 3203ntf    fn421045   5.915   0.899   6.557 -0.3050  0.0955 -0.6666
 3204ntf    cn121046   0.802   5.547   5.159 -0.3459 -0.3739 -0.0348
 3204ntf    sn221047   0.948   5.473   5.082 -0.0164  0.3279 -0.0900
 3204ntf    nn321048   1.064   5.555   5.151  0.0796  0.2206 -0.1231
 3204ntf    sn221049   1.204   5.579   5.085 -0.0737 -0.0695 -0.5634
 3204ntf    cn121050   1.317   5.537   5.222 -0.2932  0.0965 -0.3313
 3204ntf    fn421051   0.694   5.480   5.120 -0.4031 -0.2310 -0.1240
 3204ntf    fn421052   0.800   5.545   5.292  0.0338  0.0685 -0.0213
 3204ntf    fn421053   0.775   5.671   5.121 -0.5207 -0.4285 -0.0920
 3204ntf    on521054   0.941   5.335   5.124 -0.6361  0.2897 -0.3217
 3204ntf    on521055   0.931   5.504   4.943 -0.1177  0.5949 -0.0178
 3204ntf    on521056   1.237   5.718   5.066  0.3420 -0.0616  0.1687
 3204ntf    on521057   1.252   5.483   4.989 -0.4719 -0.4433 -0.3904
 3204ntf    fn421058   1.329   5.407   5.240 -0.0540  0.0879 -0.5420
 3204ntf    fn421059   1.438   5.586   5.201 -0.3385  0.5238  0.3713
 3204ntf    fn421060   1.284   5.586   5.340 -0.1757  0.6013 -0.5065
 3205ntf    cn121061   3.980   6.580   6.525 -0.2518 -0.4121  0.1380
 3205ntf    sn221062   3.962   6.742   6.605  0.2120 -0.1054 -0.3703
 3205ntf    nn321063   4.013   6.711   6.751 -0.5618  0.1866 -0.0285
 3205ntf    sn221064   3.933   6.719   6.885  0.2099 -0.3571  0.4720
 3205ntf    cn121065   3.981   6.882   6.948 -0.3677 -0.0284  0.0755
 3205ntf    fn421066   3.915   6.579   6.409 -0.3642  0.0248  0.1935
 3205ntf    fn421067   4.105   6.550   6.495 -0.2728 -0.3602 -0.0022
 3205ntf    fn421068   3.930   6.476   6.590 -0.3785  0.0182  0.7368
 3205ntf    on521069   4.044   6.831   6.526 -0.4310  0.5546 -0.3061
 3205ntf    on521070   3.819   6.759   6.603  0.2517  0.1836 -0.7558
 3205ntf    on521071   3.988   6.624   6.979  0.1159 -0.5702  0.3116
 3205ntf    on521072   3.789   6.717   6.873  0.2058  0.1847  0.3990
 3205ntf    fn421073   3.964   6.904   7.077  0.4196  0.2400  0.1392
 3205ntf    fn421074   4.113   6.890   6.938 -0.4231  0.6503 -0.1817
 3205ntf    fn421075   3.942   6.986   6.876  0.2425 -0.0101 -0.2408
 3206ntf    cn121076   3.546   6.475   1.670 -0.2493  0.0090  0.0014
 3206ntf    sn221077   3.614   6.608   1.775 -0.1977 -0.0927  0.0964
 3206ntf    nn321078   3.611   6.540   1.917 -0.5619  0.8982  0.5737
 3206ntf    sn221079   3.697   6.565   2.046  0.2124  0.2586  0.1928
 3206ntf    cn121080   3.839   6.452   2.039  0.4338  0.5260  0.3530
 3206ntf    fn421081   3.599   6.355   1.685 -0.1418  0.0711  0.1240
 3206ntf    fn421082   3.416   6.461   1.686 -0.3628  0.5007 -0.4338
 3206ntf    fn421083   3.571   6.506   1.544 -0.2292  0.7238  0.1734
 3206ntf    on521084   3.743   6.636   1.718 -0.2341  0.0912  0.1034
 3206ntf    on521085   3.519   6.716   1.763  0.3233  0.3919  0.2874
 3206ntf    on521086   3.632   6.516   2.165  0.4398 -0.4511  0.0291
 3206ntf    on521087   3.754   6.697   2.059  0.2731  0.2129  0.3912
 3206ntf    fn421088   3.903   6.462   1.923  0.5818  0.0604  0.3927
 3206ntf    fn421089   3.925   6.479   2.135  0.8232  0.2361  0.0878
 3206ntf    fn421090   3.813   6.323   2.052  0.2614  0.4317 -0.7498
 3207ntf    cn121091   2.426   2.775   6.253  0.0714 -0.0153 -0.2573
 3207ntf    sn221092   2.344   2.677   6.382 -0.2480  0.2710 -0.2410
 3207ntf    nn321093   2.392   2.748   6.514  0.0519 -0.2316 -0.0764
 3207ntf    sn221094   2.524   2.732   6.598  0.2029  0.2269 -0.2254
 3207ntf    cn121095   2.456   2.705   6.764  0.6386 -0.5713 -0.1717
 3207ntf    fn421096   2.409   2.732   6.129  0.1895  0.3395 -0.3967
 3207ntf    fn421097   2.381   2.899   6.262 -0.4882 -0.2780  0.7085
 3207ntf    fn421098   2.557   2.781   6.273  0.0233 -0.0680  0.0874
 3207ntf    on521099   2.202   2.694   6.359 -0.3083 -0.2036 -0.2281
 3207ntf    on521100   2.396   2.544   6.367 -0.5116  0.1258  0.1093
 3207ntf    on521101   2.595   2.858   6.597  0.2555  0.1982 -0.0552
 3207ntf    on521102   2.604   2.615   6.575 -0.1552 -0.1848  0.6162
 3207ntf    fn421103   2.363   2.795   6.794  0.4631 -0.8696  0.1932
 3207ntf    fn421104   2.408   2.583   6.778 -0.0647 -0.2529  0.2527
 3207ntf    fn421105   2.553   2.728   6.851  0.3453  0.4054 -0.0813
 3208ntf    cn121106   0.639   1.883   5.273  0.3075  0.1118 -0.3714
 3208ntf    sn221107   0.640   1.793   5.115 -0.0106 -0.2783 -0.1548
 3208ntf    nn321108   0.707   1.908   5.030 -0.0660 -0.2142 -0.1124
 3208ntf    sn221109   0.833   1.889   4.938  0.1303  0.0221  0.1038
 3208ntf    cn121110   0.776   1.768   4.815 -0.3139  0.0271  0.3024
 3208ntf    fn421111   0.556   1.985   5.266 -0.2445 -0.3568 -0.7140
 3208ntf    fn421112   0.600   1.806   5.374 -0.0262  0.9997  0.1895
 3208ntf    fn421113   0.756   1.938   5.301  0.3658 -0.0711 -0.2487
 3208ntf    on521114   0.714   1.676   5.154 -0.1096 -0.2764  0.0405
 3208ntf    on521115   0.502   1.780   5.076 -0.1365 -0.2367  0.2736
 3208ntf    on521116   0.945   1.837   5.012 -0.1394 -0.0010  0.4945
 3208ntf    on521117   0.864   2.006   4.859  0.6137 -0.0836  0.1356
 3208ntf    fn421118   0.654   1.787   4.766 -0.1070 -0.1563 -0.2968
 3208ntf    fn421119   0.855   1.773   4.709 -0.7809 -0.2705 -0.0650
 3208ntf    fn421120   0.781   1.643   4.858 -0.0678 -0.0126  0.1586
 3209ntf    cn121121   2.701   3.699   1.277  0.0565 -0.3156  0.3211
 3209ntf    sn221122   2.690   3.756   1.450 -0.3387  0.0688  0.1699
 3209ntf    nn321123   2.836   3.813   1.453 -0.4155  0.2750  0.0654
 3209ntf    sn221124   2.923   3.826   1.584 -0.1556 -0.1327 -0.0644
 3209ntf    cn121125   2.809   3.909   1.699 -0.0726 -0.1493  0.0301
 3209ntf    fn421126   2.585   3.656   1.231 -0.0165  0.3018 -0.0878
 3209ntf    fn421127   2.749   3.793   1.198 -0.0770 -0.5541 -0.0409
 3209ntf    fn421128   2.783   3.596   1.268 -0.0836 -0.4069  0.0876
 3209ntf    on521129   2.596   3.865   1.438 -0.3592  0.0925  0.5338
 3209ntf    on521130   2.658   3.642   1.532 -0.2512 -0.3842 -0.4176
 3209ntf    on521131   3.015   3.935   1.563 -0.2868  0.0379  0.2343
 3209ntf    on521132   2.974   3.703   1.638  0.3594  0.1498  0.0931
 3209ntf    fn421133   2.767   4.028   1.659  0.5270  0.1318  0.2357
 3209ntf    fn421134   2.702   3.835   1.723 -0.2139  0.0084 -0.1104
 3209ntf    fn421135   2.875   3.923   1.812 -0.5105  0.5808  0.2010
 3210ntf    cn121136   3.545   4.464   4.635  0.1944  0.0901 -0.6414
 3210ntf    sn221137   3.510   4.544   4.476  0.0279  0.4122 -0.4437
 3210ntf    nn321138   3.377   4.465   4.451 -0.3093  0.7776  0.1788
 3210ntf    sn221139   3.231   4.516   4.426 -0.4085  0.4067 -0.0123
 3210ntf    cn121140   3.175   4.541   4.597  0.4770  0.0507  0.3326
 3210ntf    fn421141   3.658   4.509   4.688  0.0678 -0.4975  0.1646
 3210ntf    fn421142   3.451   4.488   4.725  0.6863 -0.3630  0.0072
 3210ntf    fn421143   3.560   4.332   4.625 -0.4630 -0.0488  0.1499
 3210ntf    on521144   3.503   4.684   4.507  0.1486  0.2348  0.4142
 3210ntf    on521145   3.607   4.499   4.380 -0.1582  0.4412 -0.6457
 3210ntf    on521146   3.144   4.411   4.380 -0.0446  0.1716 -0.1664
 3210ntf    on521147   3.214   4.642   4.356 -0.3429  0.3058 -0.2106
 3210ntf    fn421148   3.230   4.456   4.683  0.4628 -0.2143  0.0808
 3210ntf    fn421149   3.212   4.661   4.639  0.2257  0.3273 -0.2232
 3210ntf    fn421150   3.045   4.525   4.617  0.4246 -0.1850 -0.1773
 3211ntf    cn121151   4.131   0.746   6.163 -0.0407 -0.0649  0.1527
 3211ntf    sn221152   4.200   0.686   6.006  0.0493  0.2109  0.0853
 3211ntf    nn321153   4.089   0.583   5.964  0.1890 -0.0836  0.4337
 3211ntf    sn221154   4.100   0.429   5.940 -0.0229 -0.0174 -0.1122
 3211ntf    cn121155   3.955   0.419   5.832  0.1827 -0.2404 -0.3707
 3211ntf    fn421156   4.017   0.810   6.144 -0.1979 -0.3785  0.0335
 3211ntf    fn421157   4.121   0.646   6.249  0.6180 -0.0535  0.2526
 3211ntf    fn421158   4.219   0.826   6.222 -0.0981 -0.3192  0.5834
 3211ntf    on521159   4.213   0.808   5.931 -0.9085  0.1269 -0.2306
 3211ntf    on521160   4.331   0.640   6.044 -0.1642 -0.4379  0.0561
 3211ntf    on521161   4.050   0.350   6.051 -0.0986  0.2467  0.0414
 3211ntf    on521162   4.200   0.371   5.854  0.2746  0.2556  0.0461
 3211ntf    fn421163   3.992   0.449   5.709  0.0664 -0.5053 -0.4709
 3211ntf    fn421164   3.905   0.297   5.819 -0.3600 -0.1451  0.7172
 3211ntf    fn421165   3.863   0.507   5.871  0.9427  0.2824  0.2788
 3212ntf    cn121166   0.099   4.641   3.515 -0.2473 -0.3861  0.3831
 3212ntf    sn221167   0.016   4.507   3.425 -0.0716 -0.1202 -0.1759
 3212ntf    nn321168  -0.134   4.547   3.448 -0.0656  0.0517 -0.4307
 3212ntf    sn221169  -0.258   4.531   3.354 -0.4585 -0.1505  0.1168
 3212ntf    cn121170  -0.366   4.441   3.469 -0.3088 -0.2343  0.1918
 3212ntf    fn421171   0.100   4.625   3.646  0.6620 -0.1859  0.4083
 3212ntf    fn421172   0.220   4.670   3.469 -0.3636  0.0120  0.3291
 3212ntf    fn421173   0.034   4.753   3.490  0.5701 -0.0339 -0.1889
 3212ntf    on521174   0.053   4.528   3.287  0.5758  0.0141  0.0152
 3212ntf    on521175   0.062   4.389   3.495  0.4210  0.5082  0.5710
 3212ntf    on521176  -0.239   4.434   3.248  0.1386 -0.3005  0.3595
 3212ntf    on521177  -0.328   4.653   3.324 -0.3690 -0.1942 -0.2871
 3212ntf    fn421178  -0.491   4.439   3.427 -0.2674  0.2453  0.0508
 3212ntf    fn421179  -0.335   4.313   3.482  0.7788  0.0992  1.0594
 3212ntf    fn421180  -0.369   4.499   3.587 -0.2369  0.2797 -0.0576
 3213ntf    cn121181   2.177   1.895   3.901 -0.0749  0.0043  0.0031
 3213ntf    sn221182   2.216   1.718   3.885 -0.0585  0.0471 -0.4320
 3213ntf    nn321183   2.251   1.672   4.031 -0.0153  0.1019 -0.4248
 3213ntf    sn221184   2.148   1.629   4.142  0.3129 -0.4317 -0.3240
 3213ntf    cn121185   2.245   1.701   4.278  0.1093 -0.1657 -0.3204
 3213ntf    fn421186   2.140   1.943   3.784 -0.3333 -0.4935 -0.1233
 3213ntf    fn421187   2.077   1.928   3.981  0.2798  0.6039  0.2086
 3213ntf    fn421188   2.279   1.971   3.937 -0.0645  0.3718 -0.7773
 3213ntf    on521189   2.101   1.651   3.831 -0.5224  0.1978  0.3667
 3213ntf    on521190   2.337   1.731   3.807  0.3782  0.1104  0.2412
 3213ntf    on521191   2.158   1.487   4.163  0.8148 -0.3652 -0.0806
 3213ntf    on521192   2.019   1.692   4.145  0.1606 -0.7516 -0.0043
 3213ntf    fn421193   2.268   1.830   4.256  0.2047 -0.1569 -0.1699
 3213ntf    fn421194   2.194   1.678   4.398  0.3552  0.6186 -0.0534
 3213ntf    fn421195   2.370   1.657   4.281  0.1934  0.0969  0.1574
 3214ntf    cn121196   2.211   1.258   1.226  0.0820 -0.1363 -0.0776
 3214ntf    sn221197   2.289   1.336   1.371  0.2748  0.0837 -0.2983
 3214ntf    nn321198   2.168   1.419   1.426  0.2578  0.4824 -0.9194
 3214ntf    sn221199   2.166   1.551   1.511 -0.0459 -0.2437  0.2389
 3214ntf    cn121200   2.141   1.502   1.684  0.1461  0.4182  0.4560
 3214ntf    fn421201   2.139   1.344   1.156 -0.3059 -0.4608 -0.0837
 3214ntf    fn421202   2.291   1.189   1.146 -0.1129 -0.1150 -0.2918
 3214ntf    fn421203   2.118   1.172   1.265  0.2161 -0.1532  0.2123
 3214ntf    on521204   2.327   1.237   1.469 -0.0771  0.1260 -0.1190
 3214ntf    on521205   2.398   1.415   1.318  0.3100  0.4040  0.2459
 3214ntf    on521206   2.050   1.636   1.498  0.0839 -0.0696  0.2231
 3214ntf    on521207   2.295   1.614   1.521  0.1100 -0.5047 -0.0947
 3214ntf    fn421208   2.243   1.422   1.712 -0.3009 -0.3644 -0.1124
 3214ntf    fn421209   2.164   1.608   1.760  0.4499  0.2043  0.6658
 3214ntf    fn421210   2.029   1.436   1.705  0.2843  0.0894  0.1739
 3215ntf    cn121211   1.169   1.276   4.245 -0.2188 -0.1782 -0.0908
 3215ntf    sn221212   1.202   1.400   4.374  0.3416 -0.3120 -0.1030
 3215ntf    nn321213   1.266   1.310   4.486 -0.2960 -0.2517  0.3129
 3215ntf    sn221214   1.416   1.295   4.528 -0.1359 -0.1318 -0.2102
 3215ntf    cn121215   1.427   1.413   4.666  0.7338 -0.5079  0.0507
 3215ntf    fn421216   1.087   1.184   4.292  0.0945 -0.4256 -0.0272
 3215ntf    fn421217   1.119   1.328   4.133 -0.2668 -0.6117 -0.2716
 3215ntf    fn421218   1.279   1.213   4.209  0.0447  0.3537 -0.2270
 3215ntf    on521219   1.292   1.492   4.310 -0.4224  0.6536  0.1831
 3215ntf    on521220   1.073   1.444   4.421  0.5196  0.9686 -0.7861
 3215ntf    on521221   1.512   1.350   4.436  0.3107 -0.6634 -0.0698
 3215ntf    on521222   1.446   1.165   4.583  0.5341  0.4433  0.8189
 3215ntf    fn421223   1.373   1.532   4.642  0.3790 -0.5265  0.7356
 3215ntf    fn421224   1.368   1.367   4.775  0.2217 -0.4064 -0.1805
 3215ntf    fn421225   1.547   1.446   4.712  0.2275  0.6111  0.6109
 3216ntf    cn121226   3.007   6.431   2.339 -0.3926  0.2394  0.0808
 3216ntf    sn221227   3.029   6.519   2.496 -0.0248 -0.1770  0.2615
 3216ntf    nn321228   2.928   6.638   2.481  0.4597  0.2751  0.5282
 3216ntf    sn221229   2.943   6.791   2.448  0.0044  0.1863 -0.1307
 3216ntf    cn121230   2.964   6.865   2.613  0.2770 -0.3074  0.0599
 3216ntf    fn421231   2.878   6.408   2.319 -0.3474  0.2928 -0.2874
 3216ntf    fn421232   3.036   6.500   2.230 -0.0577 -0.1653 -0.0879
 3216ntf    fn421233   3.077   6.319   2.341 -0.0988  0.4217  0.1256
 3216ntf    on521234   2.985   6.423   2.595  0.8012 -0.6433  0.1857
 3216ntf    on521235   3.169   6.556   2.504 -0.1335  0.2973 -0.0109
 3216ntf    on521236   2.816   6.845   2.408 -0.2889  0.1422  0.7077
 3216ntf    on521237   3.059   6.825   2.369 -0.1812 -0.4469 -0.6832
 3216ntf    fn421238   3.079   6.826   2.666  0.3039 -0.0786  0.1714
 3216ntf    fn421239   2.968   6.997   2.604  0.3331 -0.2898  0.3358
 3216ntf    fn421240   2.874   6.834   2.706 -0.0602  0.1483 -0.1101
 3217ntf    cn121241   6.942   0.163   5.758  0.1470  0.0636  0.2372
 3217ntf    sn221242   6.827   0.297   5.715 -0.2806 -0.4669 -0.2863
 3217ntf    nn321243   6.899   0.356   5.588 -0.4005  0.3852  0.0361
 3217ntf    sn221244   6.874   0.343   5.434 -0.1173 -0.3108  0.0418
 3217ntf    cn121245   6.920   0.516   5.397 -0.0816 -0.2328  0.4474
 3217ntf    fn421246   7.057   0.206   5.807  0.1523 -0.3417  0.5895
 3217ntf    fn421247   6.889   0.073   5.840  0.0290  0.1222  0.2255
 3217ntf    fn421248   6.978   0.093   5.652 -0.2032  0.1936  0.0316
 3217ntf    on521249   6.702   0.230   5.688 -0.4803 -0.3393  0.3098
 3217ntf    on521250   6.822   0.393   5.822 -0.3772 -0.8523  0.0592
 3217ntf    on521251   6.735   0.345   5.396 -0.0014 -0.0075 -0.3823
 3217ntf    on521252   6.970   0.263   5.363  0.7142  0.7210 -0.0347
 3217ntf    fn421253   6.952   0.537   5.271 -0.2282 -0.1883  0.4171
 3217ntf    fn421254   6.820   0.598   5.425  0.0395  0.1002 -0.0958
 3217ntf    fn421255   7.030   0.557   5.458 -0.0744  0.6327 -0.1399
 3218ntf    cn121256   5.750   2.608   1.556 -0.3828  0.0731 -0.0062
 3218ntf    sn221257   5.699   2.704   1.701 -0.1481  0.0216  0.1113
 3218ntf    nn321258   5.544   2.689   1.677 -0.1108  0.2393 -0.2614
 3218ntf    sn221259   5.435   2.626   1.770  0.0932  0.4765  0.1420
 3218ntf    cn121260   5.444   2.450   1.725  0.0172  0.4892  0.0754
 3218ntf    fn421261   5.730   2.670   1.441  0.2244 -0.3075 -0.3219
 3218ntf    fn421262   5.882   2.600   1.562 -0.3305  0.6706 -0.3020
 3218ntf    fn421263   5.702   2.485   1.554 -0.5755  0.1494 -0.1085
 3218ntf    on521264   5.761   2.628   1.807 -0.2754 -0.2331  0.0056
 3218ntf    on521265   5.740   2.838   1.668 -0.3481  0.0280 -0.1169
 3218ntf    on521266   5.301   2.666   1.732 -0.2561 -0.1954  0.6383
 3218ntf    on521267   5.467   2.630   1.910 -0.4603 -0.0828  0.2889
 3218ntf    fn421268   5.401   2.419   1.604  0.1879 -0.3171  0.2183
 3218ntf    fn421269   5.567   2.404   1.743 -0.1044  0.2873  0.3994
 3218ntf    fn421270   5.378   2.370   1.807  0.1916  0.3377  0.0674
 3219ntf    cn121271   4.504   0.978   6.942  0.3434 -0.3321  0.6032
 3219ntf    sn221272   4.573   0.968   6.774 -0.1178  0.0898  0.3844
 3219ntf    nn321273   4.617   0.817   6.776  0.1744  0.1685 -0.0806
 3219ntf    sn221274   4.758   0.758   6.812  0.0327 -0.1448 -0.0361
 3219ntf    cn121275   4.706   0.607   6.898  0.2526 -0.1772  0.0396
 3219ntf    fn421276   4.397   0.901   6.951  0.2285 -0.1558  0.7557
 3219ntf    fn421277   4.597   0.932   7.024  1.1970  0.4986  0.1124
 3219ntf    fn421278   4.465   1.099   6.977  0.4122 -0.2005  0.2265
 3219ntf    on521279   4.462   0.993   6.686  0.2995 -0.2793 -0.2499
 3219ntf    on521280   4.680   1.064   6.763  0.0132 -0.0743  0.2307
 3219ntf    on521281   4.837   0.828   6.910 -0.3652 -0.1417  0.2846
 3219ntf    on521282   4.828   0.718   6.693  0.1189 -0.2694  0.0579
 3219ntf    fn421283   4.606   0.543   6.839  0.1484 -0.3482  0.4009
 3219ntf    fn421284   4.806   0.520   6.892  0.2775 -0.1450 -0.0018
 3219ntf    fn421285   4.678   0.634   7.025  0.2713  0.3358 -0.0637
 3220ntf    cn121286   1.234   6.262   6.931  0.2266  0.0836 -0.1138
 3220ntf    sn221287   1.335   6.167   6.814 -0.1260  0.0270 -0.3738
 3220ntf    nn321288   1.232   6.083   6.730 -0.5164 -0.1797  0.3026
 3220ntf    sn221289   1.156   6.135   6.604  0.1495  0.0083 -0.0275
 3220ntf    cn121290   1.156   5.988   6.497  0.3659  0.0754 -0.1199
 3220ntf    fn421291   1.156   6.346   6.864  0.3913  0.0674 -0.3232
 3220ntf    fn421292   1.155   6.179   6.998 -0.3212  0.8269  0.1858
 3220ntf    fn421293   1.305   6.332   7.018  0.1299 -0.1544  0.1592
 3220ntf    on521294   1.403   6.272   6.743 -0.1902 -0.0122 -0.4934
 3220ntf    on521295   1.421   6.078   6.888  0.1248  0.5555 -0.0217
 3220ntf    on521296   1.229   6.225   6.518  0.1173  0.1292  0.0719
 3220ntf    on521297   1.018   6.161   6.638 -0.1857 -1.4803 -0.1991
 3220ntf    fn421298   1.064   5.988   6.402 -0.1930 -0.7463  0.4040
 3220ntf    fn421299   1.265   5.957   6.429  0.2397  0.0130 -0.2940
 3220ntf    fn421300   1.120   5.880   6.565  0.0878 -0.1183 -0.5695
 3221ntf    cn121301   4.008   2.517   2.283 -0.1987  0.0546 -0.3093
 3221ntf    sn221302   3.917   2.551   2.129 -0.3022  0.2619 -0.2036
 3221ntf    nn321303   3.801   2.446   2.130 -0.0830  0.0232  0.3892
 3221ntf    sn221304   3.704   2.398   2.017  0.5149 -0.1356 -0.0593
 3221ntf    cn121305   3.566   2.393   2.136  0.5585 -0.4284 -0.0196
 3221ntf    fn421306   4.063   2.624   2.339  0.6250 -0.1826 -0.6682
 3221ntf    fn421307   3.934   2.460   2.377  0.0721  0.2753  0.0421
 3221ntf    fn421308   4.111   2.438   2.265 -0.3300 -0.2282  0.1677
 3221ntf    on521309   3.878   2.689   2.149 -0.0841  0.4202 -0.8353
 3221ntf    on521310   4.016   2.514   2.030 -0.0642 -0.6136  0.3501
 3221ntf    on521311   3.728   2.264   1.970  0.4391 -0.5130  0.9662
 3221ntf    on521312   3.667   2.493   1.915  0.6035  0.0909  0.1176
 3221ntf    fn421313   3.452   2.446   2.097  0.7351  0.1421  0.2265
 3221ntf    fn421314   3.533   2.274   2.182 -0.3604 -0.1046  0.1840
 3221ntf    fn421315   3.588   2.467   2.243  0.3805 -0.4743  0.0470
 3222ntf    cn121316   2.593   3.717   3.168  0.5432  0.0649  0.1689
 3222ntf    sn221317   2.628   3.896   3.176  0.1077  0.1684 -0.2129
 3222ntf    nn321318   2.618   3.931   3.023  0.6576  0.5030 -0.1730
 3222ntf    sn221319   2.511   3.998   2.930 -0.1289 -0.1961  0.2140
 3222ntf    cn121320   2.520   3.909   2.772 -0.3416  0.4319 -0.1570
 3222ntf    fn421321   2.463   3.701   3.186  0.3899  0.1520 -0.8025
 3222ntf    fn421322   2.630   3.647   3.062  0.5994  0.0786  0.1792
 3222ntf    fn421323   2.644   3.648   3.268 -0.3785 -0.1956  0.4651
 3222ntf    on521324   2.529   3.954   3.263  0.2248  0.1632 -0.0769
 3222ntf    on521325   2.765   3.902   3.220 -0.0063  0.0899  0.1528
 3222ntf    on521326   2.541   4.128   2.875  0.5372 -0.4596 -0.0496
 3222ntf    on521327   2.373   3.979   2.967 -0.3711  0.5284 -0.2992
 3222ntf    fn421328   2.633   3.941   2.711 -0.1155 -0.6533 -0.3396
 3222ntf    fn421329   2.526   3.778   2.790  0.1920  0.4226 -0.3997
 3222ntf    fn421330   2.417   3.926   2.690 -0.2950 -0.0836 -0.3275
 3223ntf    cn121331   2.558   2.995   0.045  0.4551  0.4173 -0.1113
 3223ntf    sn221332   2.410   3.099   0.027  0.1892  0.1252  0.3701
 3223ntf    nn321333   2.324   3.025   0.135  0.1861 -0.3877  0.0189
 3223ntf    sn221334   2.180   2.963   0.128  0.1366 -0.2525 -0.1647
 3223ntf    cn121335   2.076   3.089   0.209 -0.0368 -0.3258 -0.2731
 3223ntf    fn421336   2.641   3.020  -0.056 -0.0336 -0.1408 -0.6588
 3223ntf    fn421337   2.625   3.013   0.158 -0.0111  0.1313  0.2097
 3223ntf    fn421338   2.539   2.865   0.027 -0.5873  0.4839  0.4555
 3223ntf    on521339   2.451   3.232   0.068  1.1544  0.0684 -0.3726
 3223ntf    on521340   2.372   3.084  -0.111  0.1204  0.2655  0.3729
 3223ntf    on521341   2.165   2.847   0.211 -0.6046  0.3401  0.5428
 3223ntf    on521342   2.128   2.957  -0.007 -0.9806  0.5608  0.2094
 3223ntf    fn421343   2.121   3.099   0.332 -0.3475  0.3913 -0.2134
 3223ntf    fn421344   2.096   3.210   0.160  0.1284 -0.0207  0.5372
 3223ntf    fn421345   1.944   3.080   0.203 -0.0825  0.1505  0.0671
 3224ntf    cn121346   1.992   1.112   4.730 -0.0152 -0.3615  0.2472
 3224ntf    sn221347   1.949   0.951   4.658  0.3891 -0.4487  0.1964
 3224ntf    nn321348   2.017   0.852   4.759  0.3960  0.0219  0.6563
 3224ntf    sn221349   2.075   0.708   4.733  0.1179  0.0131  0.0676
 3224ntf    cn121350   2.247   0.743   4.684  0.0860  0.2193  0.1026
 3224ntf    fn421351   2.122   1.133   4.741 -0.0014 -0.0795 -0.4444
 3224ntf    fn421352   1.940   1.212   4.662 -0.3893 -0.0219  1.0159
 3224ntf    fn421353   1.949   1.117   4.855  0.8006  0.4041  0.5063
 3224ntf    on521354   1.805   0.950   4.665  0.3601  0.3321 -0.2061
 3224ntf    on521355   2.005   0.953   4.525  0.3204 -0.3543  0.1688
 3224ntf    on521356   2.008   0.647   4.622  0.1146  0.5850 -0.2493
 3224ntf    on521357   2.078   0.631   4.854  0.6796 -0.4835 -0.2555
 3224ntf    fn421358   2.259   0.770   4.555 -0.0180  0.3802  0.1255
 3224ntf    fn421359   2.314   0.837   4.748  0.0135  0.0438  0.4405
 3224ntf    fn421360   2.328   0.640   4.704 -0.3475 -0.1468 -0.0047
 3225ntf    cn121361   3.198   0.995   3.859  0.0375 -0.1192  0.1162
 3225ntf    sn221362   3.030   1.002   3.928  0.0725 -0.0555  0.1950
 3225ntf    nn321363   3.026   0.862   3.998 -0.5523  0.0506  0.3740
 3225ntf    sn221364   3.085   0.826   4.139 -0.1585  0.0534  0.2121
 3225ntf    cn121365   2.936   0.827   4.244  0.0014  0.1568  0.4382
 3225ntf    fn421366   3.284   1.033   3.952 -0.1287  0.1237  0.1684
 3225ntf    fn421367   3.235   0.871   3.831 -0.5305 -0.2750  0.0565
 3225ntf    fn421368   3.207   1.066   3.748 -0.5299  0.2486  0.3031
 3225ntf    on521369   3.033   1.117   4.014 -0.0451  0.3772 -0.3723
 3225ntf    on521370   2.947   1.002   3.810  0.1847 -0.9106  0.1081
 3225ntf    on521371   3.168   0.929   4.196  0.0285 -0.0078  0.0519
 3225ntf    on521372   3.132   0.690   4.154 -0.3779 -0.0456 -0.0010
 3225ntf    fn421373   2.887   0.946   4.274  0.3302  0.3094  0.3786
 3225ntf    fn421374   2.841   0.755   4.188  0.5778 -0.2909  0.0190
 3225ntf    fn421375   2.963   0.768   4.359 -0.2929  0.1621  0.5107
 3226ntf    cn121376   6.462   4.242   6.967 -0.0904 -0.2100 -0.4325
 3226ntf    sn221377   6.546   4.361   6.859  0.1734 -0.3717 -0.4054
 3226ntf    nn321378   6.428   4.464   6.853  0.1218 -0.4344 -0.4604
 3226ntf    sn221379   6.392   4.550   6.727 -0.2008  0.1419  0.0221
 3226ntf    cn121380   6.276   4.440   6.640 -0.1641  0.1134  0.0097
 3226ntf    fn421381   6.344   4.204   6.919 -0.5832  0.2054  0.4253
 3226ntf    fn421382   6.528   4.132   7.000  0.5033  0.2236 -0.1737
 3226ntf    fn421383   6.431   4.300   7.081  0.5952  0.1079 -0.4043
 3226ntf    on521384   6.655   4.416   6.936 -0.4958 -0.0787  0.3417
 3226ntf    on521385   6.574   4.285   6.739  0.5355 -0.4316 -0.2857
 3226ntf    on521386   6.497   4.585   6.635 -0.0508  0.4768  0.3170
 3226ntf    on521387   6.304   4.659   6.762  0.5032  0.5829  0.4297
 3226ntf    fn421388   6.330   4.326   6.600  0.5682  0.3243  0.3713
 3226ntf    fn421389   6.179   4.396   6.719 -0.0627 -0.1769 -0.0235
 3226ntf    fn421390   6.220   4.495   6.534  0.0037  0.2153 -0.0273
 3227ntf    cn121391   6.282   3.521   4.176  0.3224 -0.4798  0.0050
 3227ntf    sn221392   6.446   3.575   4.234  0.1106 -0.2007  0.3514
 3227ntf    nn321393   6.406   3.613   4.380 -0.3023  0.1852  0.1403
 3227ntf    sn221394   6.433   3.537   4.515  0.2047  0.3423  0.1320
 3227ntf    cn121395   6.548   3.651   4.597  0.2287  0.4925 -0.1109
 3227ntf    fn421396   6.193   3.505   4.272 -0.1716 -0.0122 -0.3681
 3227ntf    fn421397   6.222   3.602   4.090  0.7202  0.0121  0.1835
 3227ntf    fn421398   6.300   3.404   4.116 -0.3537 -0.7731  0.3707
 3227ntf    on521399   6.539   3.466   4.215 -0.3839 -0.5901  0.1154
 3227ntf    on521400   6.474   3.694   4.158 -0.2975 -0.4811 -0.2473
 3227ntf    on521401   6.490   3.405   4.513 -0.6388 -0.0237 -0.5303
 3227ntf    on521402   6.319   3.547   4.603  0.2753 -0.5245  0.3339
 3227ntf    fn421403   6.661   3.655   4.527 -0.0275 -0.0790 -0.5671
 3227ntf    fn421404   6.505   3.776   4.606  0.1210  0.4199  0.4216
 3227ntf    fn421405   6.577   3.607   4.718  0.4888 -0.2143 -0.4277
 3228ntf    cn121406   3.316   0.911   6.721  0.2106  0.0318 -0.0621
 3228ntf    sn221407   3.472   0.898   6.628  0.1964 -0.1372 -0.0615
 3228ntf    nn321408   3.423   0.806   6.511 -0.4674  0.0064  0.1014
 3228ntf    sn221409   3.444   0.824   6.357  0.0876 -0.3268  0.1384
 3228ntf    cn121410   3.292   0.918   6.322  0.2854 -0.0790 -0.0678
 3228ntf    fn421411   3.254   0.795   6.732  0.5497 -0.1422  0.0480
 3228ntf    fn421412   3.329   0.960   6.844 -0.4660  0.3176 -0.1013
 3228ntf    fn421413   3.229   0.998   6.672  0.1702 -0.0124 -0.0688
 3228ntf    on521414   3.503   1.035   6.596 -0.2568 -0.2542 -1.0285
 3228ntf    on521415   3.553   0.829   6.726 -0.5233 -0.7258  0.1285
 3228ntf    on521416   3.448   0.702   6.280  0.4467 -0.1412 -0.1438
 3228ntf    on521417   3.545   0.923   6.327  0.1998 -0.3305  0.5023
 3228ntf    fn421418   3.193   0.849   6.376 -0.0832  0.6309  0.1611
 3228ntf    fn421419   3.284   1.037   6.378 -0.1544 -0.0797 -0.1240
 3228ntf    fn421420   3.267   0.943   6.195  0.0888 -0.1856 -0.0499
 3229ntf    cn121421   4.538   5.793   5.599  0.4885 -0.2863  0.1214
 3229ntf    sn221422   4.407   5.668   5.591  0.0862  0.1467 -0.0602
 3229ntf    nn321423   4.281   5.762   5.589  0.1716  0.2645  0.0627
 3229ntf    sn221424   4.206   5.838   5.473  0.2272 -0.3096 -0.3544
 3229ntf    cn121425   4.134   5.980   5.560  0.0223 -0.3907 -0.3926
 3229ntf    fn421426   4.546   5.863   5.487  0.3725 -0.2113  0.1596
 3229ntf    fn421427   4.498   5.874   5.695 -0.1501 -0.0170 -0.3643
 3229ntf    fn421428   4.659   5.744   5.623  0.3689 -0.3700  0.5557
 3229ntf    on521429   4.435   5.604   5.465  0.5812 -0.7556  0.4994
 3229ntf    on521430   4.420   5.589   5.711 -0.3368  0.8614  0.4692
 3229ntf    on521431   4.095   5.774   5.408  0.1766 -0.2695 -0.3064
 3229ntf    on521432   4.297   5.904   5.383 -0.1783  0.1041 -0.4616
 3229ntf    fn421433   4.069   6.064   5.481 -0.0288  0.1866  0.2533
 3229ntf    fn421434   4.041   5.949   5.649  0.0814  0.0920 -0.1569
 3229ntf    fn421435   4.226   6.051   5.623 -0.1159 -0.0179 -0.6017
 3230ntf    cn121436   3.185   1.520   2.613  0.3026 -0.4643  0.2108
 3230ntf    sn221437   3.099   1.607   2.748 -0.0751 -0.1446 -0.2307
 3230ntf    nn321438   3.104   1.754   2.692  0.1877 -0.0635  0.0025
 3230ntf    sn221439   2.996   1.827   2.605  0.0088 -0.2203  0.0913
 3230ntf    cn121440   3.098   1.924   2.491 -0.2750  0.1394  0.1392
 3230ntf    fn421441   3.134   1.556   2.496  0.2819  0.0944  0.3888
 3230ntf    fn421442   3.314   1.546   2.608  0.1533  0.2565 -0.0190
 3230ntf    fn421443   3.172   1.389   2.627  0.9674 -0.4708  0.7939
 3230ntf    on521444   2.968   1.547   2.742 -0.1851  0.0286  0.4184
 3230ntf    on521445   3.181   1.586   2.865 -0.2675  0.4063  0.0040
 3230ntf    on521446   2.940   1.930   2.689  0.0265 -0.4535  0.3909
 3230ntf    on521447   2.911   1.745   2.522  0.2239 -0.7020  0.3427
 3230ntf    fn421448   3.042   2.018   2.416  0.0298 -0.0444 -0.3225
 3230ntf    fn421449   3.199   1.973   2.561 -0.2908 -0.0637  0.3031
 3230ntf    fn421450   3.159   1.841   2.408 -0.2321  0.1802  0.1300
 3231ntf    cn121451   0.588   0.350   0.702  0.0100  0.2113 -0.1106
 3231ntf    sn221452   0.745   0.277   0.758 -0.2296 -0.1349  0.1179
 3231ntf    nn321453   0.819   0.265   0.620 -0.0790 -0.1805  0.2026
 3231ntf    sn221454   0.809   0.161   0.503  0.0561 -0.2559  0.2574
 3231ntf    cn121455   0.766   0.268   0.363  0.5852  0.0347  0.3155
 3231ntf    fn421456   0.502   0.256   0.665 -0.3803  0.3314  0.4743
 3231ntf    fn421457   0.520   0.416   0.794 -0.8254 -0.4191 -0.2640
 3231ntf    fn421458   0.604   0.421   0.592 -0.4108 -0.1008 -0.3755
 3231ntf    on521459   0.797   0.379   0.846 -0.9067  0.4915 -0.1980
 3231ntf    on521460   0.710   0.149   0.815  0.1492 -0.3288 -0.0786
 3231ntf    on521461   0.692   0.078   0.516 -0.3422  0.2458 -0.0787
 3231ntf    on521462   0.932   0.093   0.473  0.1288  0.1446 -0.3692
 3231ntf    fn421463   0.670   0.353   0.394  0.4254 -0.1188  0.2436
 3231ntf    fn421464   0.870   0.337   0.319  0.3978  0.1512  0.0470
 3231ntf    fn421465   0.718   0.202   0.258 -0.2805  0.8784  0.1727
 3232ntf    cn121466   3.809   2.394   3.534 -0.0930 -0.6116 -0.3460
 3232ntf    sn221467   3.789   2.361   3.711  0.2110  0.1330 -0.1706
 3232ntf    nn321468   3.938   2.328   3.749  0.3530  0.5788 -0.3371
 3232ntf    sn221469   4.019   2.373   3.876  0.3026 -0.4957  0.0868
 3232ntf    cn121470   4.079   2.539   3.830 -0.0171 -0.3197  0.2986
 3232ntf    fn421471   3.881   2.303   3.470  0.0874 -0.8764  0.2319
 3232ntf    fn421472   3.692   2.408   3.474 -0.1761  0.1624 -0.0113
 3232ntf    fn421473   3.875   2.507   3.518 -0.4745 -0.3765 -0.2677
 3232ntf    on521474   3.750   2.485   3.775  0.2883  0.1943 -0.2415
 3232ntf    on521475   3.696   2.252   3.727  0.7184 -0.2661  0.0642
 3232ntf    on521476   4.135   2.289   3.886  0.3307 -0.4301  0.2965
 3232ntf    on521477   3.944   2.392   3.998  0.0199 -0.4847 -0.0861
 3232ntf    fn421478   3.986   2.633   3.832  0.3329  0.0281  0.3665
 3232ntf    fn421479   4.168   2.578   3.919  0.1385  0.3191 -0.1356
 3232ntf    fn421480   4.140   2.551   3.714  0.2528 -0.5390  0.4160
 3233ntf    cn121481   5.064   5.253   4.154  0.2359 -0.4281 -0.1075
 3233ntf    sn221482   5.226   5.315   4.097  0.2886 -0.4701 -0.0045
 3233ntf    nn321483   5.219   5.472   4.103 -0.1746 -0.4854 -0.0772
 3233ntf    sn221484   5.210   5.589   3.998 -0.1360 -0.3591  0.0596
 3233ntf    cn121485   5.387   5.625   3.985 -0.1995 -0.0058  0.1633
 3233ntf    fn421486   4.964   5.291   4.077 -0.2580 -0.2506  0.6067
 3233ntf    fn421487   5.047   5.124   4.174  0.1812 -0.4110 -0.0421
 3233ntf    fn421488   5.037   5.311   4.270  0.1215 -0.0890 -0.3026
 3233ntf    on521489   5.323   5.269   4.194  0.1933 -0.3475  0.1503
 3233ntf    on521490   5.228   5.264   3.963 -0.0949  0.2887 -0.3039
 3233ntf    on521491   5.160   5.710   4.059  0.0691  0.1695 -0.8074
 3233ntf    on521492   5.177   5.561   3.861 -0.4535  0.6916 -0.0868
 3233ntf    fn421493   5.456   5.521   3.942 -0.6475 -0.2327 -0.0084
 3233ntf    fn421494   5.408   5.710   3.886 -0.1100  0.0319  0.2137
 3233ntf    fn421495   5.443   5.673   4.095 -0.5430  0.2576  0.2262
 3234ntf    cn121496   2.474   1.999   1.730 -0.1339  0.1963  0.1311
 3234ntf    sn221497   2.475   2.181   1.736  0.0677  0.1971  0.0599
 3234ntf    nn321498   2.581   2.202   1.850 -0.2170  0.6384  0.2446
 3234ntf    sn221499   2.735   2.230   1.830 -0.1384 -0.0841 -0.1656
 3234ntf    cn121500   2.795   2.144   1.978  0.3131  0.2869 -0.1326
 3234ntf    fn421501   2.596   1.952   1.709 -0.3747 -0.1514 -0.5299
 3234ntf    fn421502   2.433   1.929   1.834 -0.5763  0.1966 -0.0401
 3234ntf    fn421503   2.393   1.956   1.634  0.1221 -0.2607  0.1193
 3234ntf    on521504   2.513   2.225   1.604 -0.4570  0.0662 -0.1359
 3234ntf    on521505   2.342   2.216   1.778  0.1303 -0.6247  0.9818
 3234ntf    on521506   2.771   2.368   1.845 -0.2129 -0.0123 -0.6240
 3234ntf    on521507   2.795   2.159   1.720 -0.1848  0.0696 -0.2904
 3234ntf    fn421508   2.731   2.181   2.088 -0.4859 -0.4460 -0.3385
 3234ntf    fn421509   2.779   2.013   1.969 -0.0993  0.3027  0.3156
 3234ntf    fn421510   2.923   2.165   2.007  0.0873  0.4467  0.7842
 3235ntf    cn121511   3.117   3.110   4.876  0.2123  0.0765  0.1786
 3235ntf    sn221512   3.179   2.940   4.892 -0.1847 -0.0778  0.0951
 3235ntf    nn321513   3.068   2.871   4.979 -0.1897 -0.5964 -0.3232
 3235ntf    sn221514   3.078   2.841   5.133  0.0584  0.2415 -0.1714
 3235ntf    cn121515   2.920   2.752   5.149  0.2087 -0.0043 -0.0494
 3235ntf    fn421516   3.195   3.181   4.796  0.3671 -0.1150  0.1603
 3235ntf    fn421517   2.991   3.118   4.836  0.3677  0.3997 -0.2533
 3235ntf    fn421518   3.125   3.170   4.994 -0.0633  0.1866  0.1437
 3235ntf    on521519   3.181   2.892   4.756 -0.6177 -0.2650  0.1518
 3235ntf    on521520   3.308   2.949   4.956 -0.1833  0.1711  0.0598
 3235ntf    on521521   3.058   2.955   5.218  0.8030  0.0089  0.3260
 3235ntf    on521522   3.177   2.738   5.157 -0.3717 -0.1831 -0.1970
 3235ntf    fn421523   2.893   2.660   5.058  0.1703  0.1490 -0.1929
 3235ntf    fn421524   2.913   2.693   5.267 -0.0261  0.0674 -0.0282
 3235ntf    fn421525   2.817   2.835   5.148  0.3881  0.2196 -0.0300
 3236ntf    cn121526   0.381   4.308   3.934 -0.3025 -0.1568 -0.1105
 3236ntf    sn221527   0.228   4.215   3.967 -0.1465 -0.3514  0.0667
 3236ntf    nn321528   0.275   4.127   4.089 -0.4188 -0.5195  0.0510
 3236ntf    sn221529   0.361   3.997   4.106  0.1960 -0.1016  0.1662
 3236ntf    cn121530   0.233   3.885   4.170  0.0654  0.0204  0.1169
 3236ntf    fn421531   0.480   4.220   3.931  0.1256  0.3110  0.0940
 3236ntf    fn421532   0.384   4.376   3.821  0.1911 -0.2835 -0.1760
 3236ntf    fn421533   0.408   4.392   4.033 -0.4806 -0.7167  0.4227
 3236ntf    on521534   0.135   4.322   3.990 -0.3638 -0.5945  0.3225
 3236ntf    on521535   0.215   4.143   3.843  0.0071 -0.0478 -0.1265
 3236ntf    on521536   0.465   4.006   4.205  0.4499 -0.2860 -0.0832
 3236ntf    on521537   0.398   3.933   3.982 -0.5957 -0.4302  0.0915
 3236ntf    fn421538   0.171   3.931   4.279 -0.6608 -0.5699 -0.0375
 3236ntf    fn421539   0.139   3.886   4.077  0.1542 -0.3148  0.0235
 3236ntf    fn421540   0.268   3.761   4.200 -0.3771 -0.2864 -0.6191
 3237ntf    cn121541   3.340   5.215   6.551 -0.0804 -0.0502 -0.3529
 3237ntf    sn221542   3.233   5.333   6.639 -0.0150 -0.4654  0.2886
 3237ntf    nn321543   3.298   5.359   6.779 -0.1572  0.1426  0.2438
 3237ntf    sn221544   3.267   5.291   6.918 -0.1770 -0.2328  0.0562
 3237ntf    cn121545   3.428   5.211   6.944 -0.1055 -0.0025  0.3196
 3237ntf    fn421546   3.464   5.259   6.561 -0.2437  0.3324  0.0015
 3237ntf    fn421547   3.337   5.105   6.624  0.4699  0.0582 -0.1631
 3237ntf    fn421548   3.298   5.201   6.426  0.5635 -0.5724 -0.5124
 3237ntf    on521549   3.244   5.450   6.556 -0.3199 -0.3280  0.4390
 3237ntf    on521550   3.109   5.259   6.635 -0.0775 -0.3185 -0.7068
 3237ntf    on521551   3.181   5.175   6.926  0.0408 -0.3574  0.5518
 3237ntf    on521552   3.252   5.387   7.024 -0.4817 -0.6099  0.3566
 3237ntf    fn421553   3.530   5.295   6.949  0.0511 -0.1720 -0.0465
 3237ntf    fn421554   3.431   5.146   7.060 -0.1021  0.3503  0.5191
 3237ntf    fn421555   3.439   5.122   6.848  0.7163 -0.0010  0.4045
 3238ntf    cn121556   0.026   4.847   1.719 -0.1194  0.4225  0.2716
 3238ntf    sn221557   0.041   4.839   1.538 -0.3988  0.4655  0.2468
 3238ntf    nn321558  -0.075   4.737   1.508  0.1065 -0.0511  0.0351
 3238ntf    sn221559  -0.080   4.590   1.455 -0.0955  0.0391 -0.1969
 3238ntf    cn121560  -0.260   4.568   1.441 -0.1482  0.1651  0.2667
 3238ntf    fn421561   0.057   4.725   1.759 -0.9453  0.1123 -0.0059
 3238ntf    fn421562   0.113   4.933   1.769  0.3280  0.2024 -0.1184
 3238ntf    fn421563  -0.091   4.881   1.770 -0.0289  0.4579  0.4553
 3238ntf    on521564   0.012   4.970   1.484 -0.3673  0.1291 -0.5967
 3238ntf    on521565   0.174   4.792   1.509 -0.3020  0.5317  0.5874
 3238ntf    on521566  -0.042   4.497   1.559 -0.2968 -0.0212 -0.1760
 3238ntf    on521567  -0.020   4.565   1.327 -0.1761 -0.1176 -0.2053
 3238ntf    fn421568  -0.313   4.577   1.563 -0.2118  0.3094  0.2291
 3238ntf    fn421569  -0.314   4.662   1.365 -0.2748 -0.1357 -0.0126
 3238ntf    fn421570  -0.288   4.448   1.393  0.0381  0.3548 -0.3240
 3239ntf    cn121571   1.112   0.943   5.437  0.3108  0.1079 -0.2649
 3239ntf    sn221572   1.067   0.842   5.293 -0.1401 -0.0136 -0.0410
 3239ntf    nn321573   1.019   0.711   5.365  0.5441 -0.1767  0.1268
 3239ntf    sn221574   1.082   0.568   5.373  0.1023 -0.4043 -0.3904
 3239ntf    cn121575   1.205   0.596   5.503  0.0342 -0.2908 -0.3503
 3239ntf    fn421576   1.228   0.910   5.491  0.2053  0.4686  0.1879
 3239ntf    fn421577   1.124   1.070   5.399  0.2163  0.3174  0.3884
 3239ntf    fn421578   1.013   0.942   5.525  0.5737 -0.3074  0.0227
 3239ntf    on521579   0.957   0.911   5.228  0.2819 -0.1027 -0.8719
 3239ntf    on521580   1.183   0.826   5.209 -0.1412  0.2293 -0.0917
 3239ntf    on521581   1.145   0.516   5.254  0.3242  0.2461 -0.5615
 3239ntf    on521582   0.994   0.476   5.441 -0.0731  0.0535  0.0003
 3239ntf    fn421583   1.152   0.664   5.604  0.3864  0.1488 -0.4557
 3239ntf    fn421584   1.259   0.483   5.545 -0.3018 -0.2988  0.0683
 3239ntf    fn421585   1.306   0.669   5.457  0.0467 -0.2520 -0.2624
 3240ntf    cn121586   2.996   4.808   6.834 -0.1568  0.3503  0.0044
 3240ntf    sn221587   2.866   4.701   6.902 -0.2041  0.2413 -0.2555
 3240ntf    nn321588   2.870   4.574   6.811 -0.0434  0.2399 -0.2452
 3240ntf    sn221589   2.967   4.451   6.825 -0.1008  0.2098 -0.1052
 3240ntf    cn121590   2.839   4.338   6.888 -0.1226  0.2704 -0.0413
 3240ntf    fn421591   3.114   4.750   6.840 -0.4873 -0.3561 -0.2188
 3240ntf    fn421592   2.987   4.830   6.704  0.4398 -0.0297 -0.1040
 3240ntf    fn421593   3.014   4.926   6.892 -0.6027  0.5408 -0.2429
 3240ntf    on521594   2.900   4.688   7.042  0.6198  0.4088 -0.4355
 3240ntf    on521595   2.750   4.782   6.872 -0.1626  0.7147  0.7840
 3240ntf    on521596   3.074   4.460   6.921  0.3224  0.7831 -0.6195
 3240ntf    on521597   3.001   4.381   6.704 -0.3106  0.1432 -0.1243
 3240ntf    fn421598   2.732   4.332   6.811 -0.0553 -0.4317 -0.0869
 3240ntf    fn421599   2.888   4.217   6.906  0.0625  0.3004 -0.3318
 3240ntf    fn421600   2.805   4.392   7.004 -0.0824  0.6381 -0.1983
   7.06834   7.06834   7.06834
