Converted from moscito
16200
    1SOL     ow    1   4.090   3.509   4.820  0.1214 -0.4527  0.7730
    1SOL     hw    2   4.078   3.450   4.746  0.1632 -0.2845  0.6340
    1SOL     hw    3   4.033   3.583   4.801 -0.2566 -0.6392  1.1515
    1SOL     vw    4   4.081   3.511   4.808  0.0770 -0.4553  0.8049
    2SOL     ow    5   6.195   4.146   3.326  0.3027  0.5010  0.1130
    2SOL     hw    6   6.134   4.163   3.254  1.5124 -1.0631 -1.3532
    2SOL     hw    7   6.198   4.229   3.374 -1.7033  1.1218 -0.7166
    2SOL     vw    8   6.187   4.159   3.323  0.1976  0.3765 -0.1899
    3SOL     ow    9   2.007   5.474   5.436 -0.0982  0.1465  0.4139
    3SOL     hw   10   1.932   5.471   5.378  0.4384  0.8406 -0.3354
    3SOL     hw   11   1.993   5.553   5.489 -0.2496 -0.1155  0.7681
    3SOL     vw   12   1.995   5.484   5.436 -0.0474  0.2036  0.3619
    4SOL     ow   13   5.392   6.130   2.271 -0.3295 -0.1592 -0.3054
    4SOL     hw   14   5.449   6.166   2.338 -0.6115  0.9408 -0.6278
    4SOL     hw   15   5.304   6.155   2.298 -0.4035  0.8722 -1.3762
    4SOL     vw   16   5.388   6.138   2.283 -0.3762  0.1221 -0.4891
    5SOL     ow   17   4.414   4.872   5.635  0.1542  0.5974 -0.1255
    5SOL     hw   18   4.327   4.885   5.672 -1.0515 -1.5242 -1.9664
    5SOL     hw   19   4.417   4.928   5.558  0.6189  0.9863  0.1639
    5SOL     vw   20   4.403   4.881   5.630  0.0565  0.3686 -0.3302
    6SOL     ow   21   3.592   3.405   4.225  0.6668 -0.6389  0.4244
    6SOL     hw   22   3.635   3.474   4.175 -0.9588  0.0686 -0.0724
    6SOL     hw   23   3.558   3.345   4.159  2.0757 -1.9712  0.8532
    6SOL     vw   24   3.593   3.406   4.210  0.6381 -0.7213  0.4153
    7SOL     ow   25   3.258   1.539   3.419  0.1244  0.0271  0.3164
    7SOL     hw   26   3.168   1.511   3.404  0.1190  0.4438 -0.4339
    7SOL     hw   27   3.312   1.469   3.381  0.1253 -0.0728  0.4959
    7SOL     vw   28   3.253   1.526   3.412  0.1239  0.0690  0.2409
    8SOL     ow   29   2.280   2.915   1.928  0.2869 -0.1194  0.4368
    8SOL     hw   30   2.257   2.888   1.839  0.1041  0.8577  0.1715
    8SOL     hw   31   2.248   3.005   1.934  2.0336  0.5112  0.8331
    8SOL     vw   32   2.273   2.923   1.917  0.4933  0.0927  0.4541
    9SOL     ow   33   4.935   1.402   5.445  0.1046 -0.5185 -0.1104
    9SOL     hw   34   4.991   1.326   5.461  0.9426  0.0048 -0.4752
    9SOL     hw   35   4.860   1.390   5.503  0.4281 -1.4105  0.1308
    9SOL     vw   36   4.932   1.391   5.454  0.2580 -0.5671 -0.1266
   10SOL     ow   37   4.573   3.954   1.488  0.4277 -0.2460 -0.2836
   10SOL     hw   38   4.514   3.918   1.422  1.4602 -1.5122 -0.5544
   10SOL     hw   39   4.637   4.004   1.438  1.2230 -1.2239 -0.2809
   10SOL     vw   40   4.574   3.956   1.473  0.6690 -0.5420 -0.3190
   11SOL     ow   41   6.063   2.968   0.665  0.4151  0.7988 -0.1397
   11SOL     hw   42   6.147   2.950   0.706  0.4687 -0.2255 -0.6500
   11SOL     hw   43   6.056   2.903   0.595 -0.8230  0.8276 -0.0762
   11SOL     vw   44   6.073   2.957   0.661  0.2587  0.6675 -0.1986
   12SOL     ow   45   0.125   1.233   1.441 -0.2637 -0.3852  0.5586
   12SOL     hw   46   0.112   1.138   1.436  0.3120 -0.4159 -0.5312
   12SOL     hw   47   0.036   1.269   1.436 -0.4066 -0.8260 -0.2168
   12SOL     vw   48   0.111   1.225   1.440 -0.2066 -0.4475  0.3125
   13SOL     ow   49   1.380   2.611   6.175 -0.0526  0.0322  0.2135
   13SOL     hw   50   1.300   2.615   6.227  0.8249 -0.9204  1.6965
   13SOL     hw   51   1.379   2.692   6.123 -1.3239  0.6576  1.1632
   13SOL     vw   52   1.369   2.622   6.175 -0.1045 -0.0110  0.5343
   14SOL     ow   53   2.325   2.837   5.901 -0.3879  0.5756  1.2019
   14SOL     hw   54   2.295   2.760   5.950  0.4352 -0.8806 -0.4555
   14SOL     hw   55   2.263   2.845   5.829  0.1574  0.7993  0.7517
   14SOL     vw   56   2.313   2.828   5.898 -0.2074  0.4129  0.9241
   15SOL     ow   57   2.614   5.667   1.473  0.9801 -0.4380 -0.3333
   15SOL     hw   58   2.552   5.597   1.452  2.7760 -2.0919 -0.4672
   15SOL     hw   59   2.626   5.714   1.391 -2.2971  1.9015  0.3539
   15SOL     vw   60   2.607   5.664   1.459  0.7846 -0.3471 -0.2603
   16SOL     ow   61   3.822   5.147   4.792 -0.0892 -0.3776  0.0472
   16SOL     hw   62   3.912   5.117   4.781  0.7619  1.3298  1.7303
   16SOL     hw   63   3.814   5.220   4.731  0.5728  1.1144  1.6538
   16SOL     vw   64   3.833   5.153   4.783  0.1105  0.0446  0.4814
   17SOL     ow   65   1.761   3.098   6.299 -0.4935  0.8467 -0.2058
   17SOL     hw   66   1.800   3.020   6.338  0.6848  0.6804 -1.6395
   17SOL     hw   67   1.685   3.116   6.354  0.3377 -0.1290  1.3432
   17SOL     vw   68   1.756   3.090   6.311 -0.2284  0.6959 -0.1907
   18SOL     ow   69   1.761   5.594   2.118 -0.2173 -0.0598 -0.6627
   18SOL     hw   70   1.696   5.586   2.187 -1.3689  0.7593 -1.6032
   18SOL     hw   71   1.721   5.654   2.054  1.7613  1.0493 -0.9309
   18SOL     vw   72   1.747   5.600   2.118 -0.1082  0.1943 -0.8222
   19SOL     ow   73   5.056   5.394   6.505 -0.2166  0.5743  0.1448
   19SOL     hw   74   4.962   5.399   6.485 -0.7307 -0.8805  1.9310
   19SOL     hw   75   5.067   5.451   6.581 -0.1132 -0.8897  1.2720
   19SOL     vw   76   5.045   5.402   6.513 -0.2708  0.1888  0.5293
   20SOL     ow   77   0.411   2.039   4.612  0.3052  0.0994  0.2493
   20SOL     hw   78   0.460   2.120   4.598  1.0374 -0.7540 -3.0802
   20SOL     hw   79   0.324   2.057   4.576  0.5962 -0.6629 -0.8899
   20SOL     vw   80   0.406   2.052   4.605  0.4402 -0.1137 -0.3400
   21SOL     ow   81   3.340   3.242   6.235 -1.0998 -0.7481  0.5851
   21SOL     hw   82   3.364   3.186   6.160  0.3810 -0.3679  0.7424
   21SOL     hw   83   3.344   3.331   6.200 -1.3656 -0.6169  0.8827
   21SOL     vw   84   3.344   3.246   6.220 -0.9396 -0.6806  0.6452
   22SOL     ow   85   2.946   1.463   4.881  0.6961  0.6793 -0.6796
   22SOL     hw   86   2.956   1.554   4.908 -0.3308  0.5766  0.1121
   22SOL     hw   87   2.851   1.451   4.872  0.7422 -0.5596  0.1495
   22SOL     vw   88   2.935   1.473   4.883  0.5667  0.5022 -0.4656
   23SOL     ow   89   4.910   1.281   3.728  0.0790 -0.4996  0.2508
   23SOL     hw   90   4.886   1.237   3.646  2.2068  1.5338 -1.6355
   23SOL     hw   91   4.999   1.252   3.746  0.3642  0.5757  0.7101
   23SOL     vw   92   4.919   1.272   3.719  0.3974 -0.0895  0.0625
   24SOL     ow   93   1.161   4.535   5.130  0.0101 -0.1761 -0.0382
   24SOL     hw   94   1.205   4.510   5.211 -1.0947  0.6300  0.8426
   24SOL     hw   95   1.232   4.550   5.067  0.9006 -5.6916 -0.8640
   24SOL     vw   96   1.176   4.534   5.132 -0.0182 -0.7977 -0.0308
   25SOL     ow   97   1.822   0.177   2.829 -0.2433  0.4227 -0.1161
   25SOL     hw   98   1.912   0.194   2.858  0.5682 -0.6751 -1.8149
   25SOL     hw   99   1.777   0.146   2.908  1.5243 -1.2802  0.3043
   25SOL     vw  100   1.828   0.175   2.844  0.0970  0.0532 -0.2849
   26SOL     ow  101   3.791   4.356   1.567 -0.4775 -0.4037 -0.2540
   26SOL     hw  102   3.806   4.361   1.472 -0.2200  0.7980 -0.1781
   26SOL     hw  103   3.704   4.395   1.580 -0.6563 -0.8745 -0.0280
   26SOL     vw  104   3.781   4.362   1.556 -0.4672 -0.3071 -0.2142
   27SOL     ow  105   4.896   2.386   3.308 -0.3297 -0.0305  0.1639
   27SOL     hw  106   4.907   2.308   3.363  2.2996 -1.7950 -2.4583
   27SOL     hw  107   4.967   2.379   3.244 -1.4709  3.3108 -1.7191
   27SOL     vw  108   4.907   2.375   3.307 -0.1333  0.1775 -0.4306
   28SOL     ow  109   0.048   3.218   5.750  0.1974 -0.0387 -0.0988
   28SOL     hw  110   0.051   3.155   5.678 -1.3614  0.6685 -0.8558
   28SOL     hw  111   0.123   3.196   5.805 -0.6529 -2.9933  0.0600
   28SOL     vw  112   0.058   3.207   5.747 -0.1205 -0.3351 -0.1776
   29SOL     ow  113   4.389   0.961   2.510  0.2409  0.5512 -0.1562
   29SOL     hw  114   4.435   0.982   2.429  1.2069  2.1298  0.7569
   29SOL     hw  115   4.369   1.046   2.549  2.5661 -0.0944  2.7848
   29SOL     vw  116   4.392   0.975   2.504  0.6750  0.6743  0.3523
   30SOL     ow  117   5.377   3.642   1.107 -0.0780 -0.1159  0.0579
   30SOL     hw  118   5.301   3.603   1.151  0.2499  0.3707  1.0757
   30SOL     hw  119   5.441   3.656   1.176 -0.1680  2.2103 -0.2506
   30SOL     vw  120   5.375   3.639   1.122 -0.0467  0.2552  0.1515
   31SOL     ow  121   4.099   5.754   6.190 -0.2267  0.1625  0.3453
   31SOL     hw  122   4.061   5.832   6.229  1.1812  0.9544  0.1983
   31SOL     hw  123   4.109   5.776   6.097  0.7745  0.0898  0.4160
   31SOL     vw  124   4.096   5.767   6.183  0.0911  0.2573  0.3355
   32SOL     ow  125   5.971   6.016   5.254  0.3894  0.2486 -0.0298
   32SOL     hw  126   5.879   5.991   5.245 -0.0087  1.7963 -0.5111
   32SOL     hw  127   5.973   6.109   5.235  1.5187  1.0859  3.4360
   32SOL     vw  128   5.959   6.025   5.250  0.4857  0.5634  0.3641
   33SOL     ow  129   4.275   2.032   2.999 -0.0647  0.2052 -0.3550
   33SOL     hw  130   4.239   1.986   3.074 -1.7878  0.0058 -1.2614
   33SOL     hw  131   4.359   2.068   3.031  1.0458 -2.9116  0.5846
   33SOL     vw  132   4.282   2.031   3.013 -0.1454 -0.2322 -0.3506
   34SOL     ow  133   6.143   4.011   2.380 -0.0172 -0.0796 -0.3543
   34SOL     hw  134   6.226   4.018   2.333  0.7308 -1.0864  0.7571
   34SOL     hw  135   6.168   3.991   2.471 -1.4542  0.2560  0.1466
   34SOL     vw  136   6.157   4.009   2.386 -0.1080 -0.1681 -0.1416
   35SOL     ow  137   3.933   0.787   5.242 -0.0150 -0.1718  0.1775
   35SOL     hw  138   3.875   0.818   5.173 -0.6993  1.0648  1.2703
   35SOL     hw  139   3.916   0.693   5.248 -0.6015 -0.1322 -0.7036
   35SOL     vw  140   3.923   0.779   5.234 -0.1829 -0.0035  0.2055
   36SOL     ow  141   0.386   3.665   5.764 -0.1876  0.0706 -0.2452
   36SOL     hw  142   0.354   3.626   5.845  1.2329  0.7935  0.7135
   36SOL     hw  143   0.314   3.719   5.732 -0.4733  0.4570  1.0164
   36SOL     vw  144   0.373   3.667   5.770 -0.0379  0.2170  0.0479
   37SOL     ow  145   5.000   3.705   2.585 -0.4560  0.1808 -0.2596
   37SOL     hw  146   4.996   3.686   2.491  0.7991  1.2286 -0.5613
   37SOL     hw  147   4.915   3.745   2.604 -1.8530 -2.5702 -0.2828
   37SOL     vw  148   4.988   3.708   2.575 -0.4747 -0.0440 -0.3027
   38SOL     ow  149   6.294   3.931   3.550  0.1140  0.1857  0.1195
   38SOL     hw  150   6.290   3.897   3.639  0.3022  0.1258  0.1040
   38SOL     hw  151   6.387   3.946   3.533  0.0259  0.8816  0.1961
   38SOL     vw  152   6.305   3.929   3.559  0.1271  0.2697  0.1274
   39SOL     ow  153   3.418   2.821   4.927  0.1244  0.0607 -0.1849
   39SOL     hw  154   3.499   2.826   4.878  0.2232 -0.3004 -0.0608
   39SOL     hw  155   3.430   2.883   4.999  0.9301 -1.1454  0.7538
   39SOL     vw  156   3.430   2.830   4.930  0.2437 -0.1460 -0.0443
   40SOL     ow  157   3.433   6.234   2.175  0.2641  0.3278 -0.1028
   40SOL     hw  158   3.362   6.288   2.142 -0.1425 -1.3486 -2.1586
   40SOL     hw  159   3.475   6.198   2.097  2.8184  0.5007  1.0612
   40SOL     vw  160   3.429   6.236   2.161  0.5474  0.1295 -0.2205
   41SOL     ow  161   4.741   0.383   4.247 -0.1213 -0.5590  0.6957
   41SOL     hw  162   4.809   0.366   4.312 -0.0193 -0.8545  0.5146
   41SOL     hw  163   4.729   0.299   4.202 -1.5368 -0.8825  1.6069
   41SOL     vw  164   4.748   0.370   4.249 -0.2944 -0.6407  0.7918
   42SOL     ow  165   3.194   0.096   6.666  0.0871  0.2614  0.0084
   42SOL     hw  166   3.216   0.010   6.630 -1.5587 -0.5710  0.8579
   42SOL     hw  167   3.267   0.118   6.723  0.2462 -0.8927  0.2846
   42SOL     vw  168   3.206   0.087   6.668 -0.1092 -0.0007  0.1566
   43SOL     ow  169   3.522   5.846   5.504 -0.0531  0.5060  0.3608
   43SOL     hw  170   3.591   5.864   5.439  0.3565 -0.9700  0.3463
   43SOL     hw  171   3.442   5.881   5.464  0.2726  0.0357 -0.7474
   43SOL     vw  172   3.521   5.853   5.490  0.0441  0.2491  0.2127
   44SOL     ow  173   0.227   5.548   1.105  0.1359  0.1937 -0.2798
   44SOL     hw  174   0.320   5.552   1.084  0.5121 -1.8613  0.7283
   44SOL     hw  175   0.210   5.455   1.120 -2.4266  0.3314 -1.8436
   44SOL     vw  176   0.237   5.536   1.104 -0.1525 -0.0594 -0.3531
   45SOL     ow  177   0.256   1.522   0.295  0.5730 -0.0831 -0.6066
   45SOL     hw  178   0.193   1.450   0.294  0.1656  0.1623  1.8870
   45SOL     hw  179   0.337   1.483   0.261 -0.0252 -1.3090 -0.6847
   45SOL     vw  180   0.258   1.507   0.290  0.4403 -0.2125 -0.2879
   46SOL     ow  181   1.776   3.800   1.356  0.1139 -0.0434  0.4098
   46SOL     hw  182   1.710   3.739   1.389 -0.7255  1.1298  0.9902
   46SOL     hw  183   1.791   3.861   1.429  0.0798  1.1171 -0.5168
   46SOL     vw  184   1.769   3.800   1.370 -0.0014  0.2645  0.3642
   47SOL     ow  185   4.381   0.635   1.331  0.4519  0.6057 -0.4709
   47SOL     hw  186   4.313   0.577   1.364 -0.2859  1.9441  0.4368
   47SOL     hw  187   4.380   0.621   1.236 -0.4609 -0.0430 -0.3819
   47SOL     vw  188   4.372   0.625   1.323  0.2341  0.6967 -0.3393
   48SOL     ow  189   1.826   2.494   1.579 -0.2467 -0.1956 -0.6058
   48SOL     hw  190   1.734   2.471   1.565  0.1054 -1.0680 -1.7113
   48SOL     hw  191   1.833   2.513   1.672 -1.7368  0.8200 -0.6695
   48SOL     vw  192   1.815   2.494   1.589 -0.3968 -0.1765 -0.7601
   49SOL     ow  193   3.245   0.378   6.561 -0.0305  0.5109  0.0000
   49SOL     hw  194   3.332   0.392   6.523  0.1778 -0.2682  0.1728
   49SOL     hw  195   3.191   0.447   6.523 -0.6711 -2.0137 -4.2317
   49SOL     vw  196   3.250   0.389   6.551 -0.0876  0.0750 -0.5355
   50SOL     ow  197   1.317   0.945   0.641 -0.4347 -0.3276 -0.3466
   50SOL     hw  198   1.342   0.977   0.727 -0.9605 -1.5386  0.2797
   50SOL     hw  199   1.326   0.849   0.647  0.6001 -0.3824 -1.9817
   50SOL     vw  200   1.322   0.936   0.653 -0.3675 -0.4946 -0.4797
   51SOL     ow  201   3.805   5.321   2.685 -0.2894 -0.6269 -0.4407
   51SOL     hw  202   3.865   5.287   2.751  1.6985 -0.4361 -2.0581
   51SOL     hw  203   3.778   5.406   2.719  2.0797  0.2594 -0.6087
   51SOL     vw  204   3.809   5.327   2.698  0.2855 -0.4849 -0.6763
   52SOL     ow  205   6.171   5.488   3.124 -0.3652  0.3268  0.0529
   52SOL     hw  206   6.082   5.523   3.130 -0.6947 -0.4237 -0.2341
   52SOL     hw  207   6.188   5.484   3.030 -0.4771 -0.6114  0.0663
   52SOL     vw  208   6.161   5.492   3.112 -0.4234  0.1040  0.0169
   53SOL     ow  209   2.618   1.019   4.535  0.3982 -0.6534  0.3617
   53SOL     hw  210   2.614   1.079   4.609 -0.3911  0.5423 -0.6115
   53SOL     hw  211   2.706   1.030   4.499  0.7344 -1.1342  1.0100
   53SOL     vw  212   2.629   1.028   4.540  0.3387 -0.5591  0.3188
   54SOL     ow  213   2.123   1.006   1.011  0.6102 -0.1648  0.2410
   54SOL     hw  214   2.194   1.053   0.968  0.1298  1.2129  0.9123
   54SOL     hw  215   2.166   0.932   1.054  2.0513  1.7635  2.3924
   54SOL     vw  216   2.138   1.002   1.011  0.7371  0.2714  0.6134
   55SOL     ow  217   0.568   3.594   0.495 -0.1293  0.1561 -0.1449
   55SOL     hw  218   0.556   3.514   0.547  0.7619 -0.3264 -0.6483
   55SOL     hw  219   0.603   3.563   0.412 -1.0979  0.9596 -0.8752
   55SOL     vw  220   0.571   3.579   0.491 -0.1395  0.1985 -0.3077
   56SOL     ow  221   2.677   6.608   0.507  0.3197  0.0823 -0.3304
   56SOL     hw  222   2.761   6.564   0.496  0.7296  0.8331 -0.2759
   56SOL     hw  223   2.612   6.539   0.498  0.8806 -0.3135 -1.6128
   56SOL     vw  224   2.679   6.593   0.504  0.4479  0.1290 -0.4925
   57SOL     ow  225   6.570   1.027   5.478  0.0846  0.5288 -0.4029
   57SOL     hw  226   6.596   0.972   5.552  0.4061 -1.1282 -1.6892
   57SOL     hw  227   6.638   1.094   5.473  1.0435 -0.3929 -0.2550
   57SOL     vw  228   6.582   1.029   5.487  0.2534  0.1885 -0.5529
   58SOL     ow  229   5.476   4.964   4.788  0.2074  0.5672  0.0880
   58SOL     hw  230   5.547   5.028   4.786  0.3459  0.4130  0.0408
   58SOL     hw  231   5.408   5.001   4.731 -0.1036  1.1204  0.8097
   58SOL     vw  232   5.476   4.977   4.780  0.1845  0.6199  0.1769
   59SOL     ow  233   4.252   1.282   4.775 -0.2064  0.1417 -0.6693
   59SOL     hw  234   4.168   1.324   4.758 -0.0578  1.1905  0.9369
   59SOL     hw  235   4.305   1.301   4.698 -1.3474 -0.3306 -1.5992
   59SOL     vw  236   4.248   1.290   4.763 -0.3374  0.2177 -0.5801
   60SOL     ow  237   3.514   3.235   1.614  0.0810  0.2086 -0.0775
   60SOL     hw  238   3.544   3.221   1.524  0.4895  2.6502 -0.3978
   60SOL     hw  239   3.420   3.247   1.606  0.0603  0.0192 -0.1234
   60SOL     vw  240   3.506   3.235   1.601  0.1322  0.5057 -0.1258
   61SOL     ow  241   4.968   0.549   5.399 -0.5334  0.0806  1.2429
   61SOL     hw  242   4.907   0.516   5.464 -1.2082  0.5311  0.8539
   61SOL     hw  243   5.028   0.476   5.384 -1.2515 -0.5454  1.3004
   61SOL     vw  244   4.968   0.535   5.405 -0.7172  0.0574  1.1990
   62SOL     ow  245   2.736   6.636   2.353 -0.4614 -0.0129 -0.1909
   62SOL     hw  246   2.684   6.681   2.421  0.0916 -0.1467  0.3310
   62SOL     hw  247   2.806   6.698   2.333 -0.5873 -0.0026 -0.5989
   62SOL     vw  248   2.738   6.650   2.359 -0.4050 -0.0293 -0.1760
   63SOL     ow  249   2.123   3.649   0.966  0.0156 -0.5315 -0.3995
   63SOL     hw  250   2.153   3.705   1.037  1.7319 -1.6233 -0.2100
   63SOL     hw  251   2.065   3.705   0.914 -1.4660  0.2457  1.9214
   63SOL     vw  252   2.119   3.663   0.969  0.0467 -0.5729 -0.0683
   64SOL     ow  253   2.136   6.335   0.579 -0.5051 -0.1516  0.4940
   64SOL     hw  254   2.105   6.389   0.507  0.3542  0.6467  0.6957
   64SOL     hw  255   2.077   6.355   0.652 -1.4719 -1.0814 -0.0233
   64SOL     vw  256   2.124   6.345   0.579 -0.5193 -0.1688  0.4523
   65SOL     ow  257   6.475   3.256   3.742 -0.3839 -0.1368 -0.1303
   65SOL     hw  258   6.396   3.296   3.705  1.1593  1.9999 -1.4045
   65SOL     hw  259   6.520   3.218   3.666  1.3439  1.5826 -0.0459
   65SOL     vw  260   6.470   3.256   3.727  0.0474  0.3719 -0.2872
   66SOL     ow  261   2.645   4.448   3.383  0.1222  0.1711  0.0939
   66SOL     hw  262   2.592   4.523   3.356 -0.3112 -0.6344 -1.4140
   66SOL     hw  263   2.649   4.392   3.305 -0.6857 -2.0178  1.5245
   66SOL     vw  264   2.638   4.450   3.369 -0.0416 -0.2239  0.0837
   67SOL     ow  265   6.562   3.173   0.352 -0.1711 -0.2937  0.2921
   67SOL     hw  266   6.617   3.103   0.316 -0.7127 -0.6393  0.1347
   67SOL     hw  267   6.611   3.205   0.428  0.6888  0.0206 -0.3777
   67SOL     vw  268   6.576   3.168   0.357 -0.1290 -0.2977  0.1830
   68SOL     ow  269   6.687   4.063   2.618  0.2479 -0.2211 -0.0441
   68SOL     hw  270   6.772   4.039   2.581  0.6116  2.2515 -0.9996
   68SOL     hw  271   6.643   4.112   2.549 -0.6036  1.3330  1.5315
   68SOL     vw  272   6.692   4.066   2.604  0.1836  0.3102  0.0376
   69SOL     ow  273   4.095   1.498   4.630 -0.1948 -0.4380  0.3040
   69SOL     hw  274   4.018   1.462   4.585 -0.8177  1.6153 -0.3716
   69SOL     hw  275   4.149   1.533   4.559 -0.6899  1.9231  1.0199
   69SOL     vw  276   4.092   1.498   4.614 -0.3421  0.1444  0.3092
   70SOL     ow  277   5.706   2.131   5.411 -0.0033  0.1968  0.3305
   70SOL     hw  278   5.780   2.124   5.351 -0.2349 -0.2689  0.0956
   70SOL     hw  279   5.739   2.096   5.494  0.4211  1.1489  0.5843
   70SOL     vw  280   5.720   2.126   5.414  0.0222  0.2608  0.3331
   71SOL     ow  281   4.160   2.744   2.237  0.1774  0.1065  0.1398
   71SOL     hw  282   4.211   2.741   2.318  1.1190  0.1914 -0.4343
   71SOL     hw  283   4.109   2.663   2.238 -1.1015  0.8626  1.5998
   71SOL     vw  284   4.160   2.733   2.248  0.1328  0.2173  0.2567
   72SOL     ow  285   2.644   2.313   4.576  0.3130  0.2550  0.0688
   72SOL     hw  286   2.739   2.321   4.588  0.2558  0.8015  0.2262
   72SOL     hw  287   2.632   2.232   4.528  0.7401 -0.8346  1.7079
   72SOL     vw  288   2.655   2.304   4.572  0.3617  0.1833  0.3059
   73SOL     ow  289   5.438   2.168   2.863  0.2901 -0.1344  0.0162
   73SOL     hw  290   5.460   2.256   2.893 -1.1350 -0.3795  1.9969
   73SOL     hw  291   5.391   2.181   2.781 -1.4682  1.1226  1.1722
   73SOL     vw  292   5.435   2.181   2.856 -0.1299 -0.0010  0.4300
   74SOL     ow  293   6.465   5.211   6.065  1.1374  0.6728  0.7019
   74SOL     hw  294   6.468   5.253   6.151 -1.8919 -1.2083  1.8518
   74SOL     hw  295   6.527   5.138   6.071  1.8759  1.2927  0.7956
   74SOL     vw  296   6.473   5.207   6.077  0.8352  0.5064  0.8659
   75SOL     ow  297   6.199   6.079   5.467 -0.8731  0.4809  0.0612
   75SOL     hw  298   6.206   6.151   5.529 -1.0729  0.9946 -0.4965
   75SOL     hw  299   6.284   6.076   5.423 -0.5327 -0.2541  0.7472
   75SOL     vw  300   6.211   6.088   5.469 -0.8545  0.4516  0.0784
   76SOL     ow  301   5.968   3.794   2.493  0.0353  0.0548 -0.4297
   76SOL     hw  302   6.012   3.752   2.567 -0.1350  0.2532 -0.2148
   76SOL     hw  303   5.928   3.722   2.445 -0.0980 -0.0483 -0.1661
   76SOL     vw  304   5.969   3.779   2.496 -0.0048  0.0672 -0.3668
   77SOL     ow  305   5.805   5.580   4.719 -0.0905 -0.2576 -0.3175
   77SOL     hw  306   5.738   5.590   4.787  0.2772  0.9756 -0.1145
   77SOL     hw  307   5.888   5.584   4.767  0.1622 -1.7167 -0.5737
   77SOL     vw  308   5.807   5.582   4.735 -0.0086 -0.2875 -0.3245
   78SOL     ow  309   2.068   3.782   1.211  0.0830 -0.3154  0.4072
   78SOL     hw  310   2.153   3.825   1.203  1.6616 -3.2146  0.5261
   78SOL     hw  311   2.084   3.707   1.268 -2.3987 -1.4455 -0.2467
   78SOL     vw  312   2.081   3.778   1.218 -0.0361 -0.8470  0.3366
   79SOL     ow  313   5.157   0.760   1.247  0.5651  0.3667 -0.9395
   79SOL     hw  314   5.179   0.828   1.183  1.4813  0.7677 -0.2137
   79SOL     hw  315   5.186   0.678   1.205  0.1767  0.5003 -1.4833
   79SOL     vw  316   5.164   0.758   1.233  0.6347  0.4373 -0.9155
   80SOL     ow  317   5.210   0.378   2.486 -0.2922  0.1674 -0.0310
   80SOL     hw  318   5.120   0.406   2.471 -0.3514  0.2189  0.4084
   80SOL     hw  319   5.261   0.424   2.419 -0.6025  0.0602 -0.3425
   80SOL     vw  320   5.205   0.388   2.475 -0.3409  0.1600 -0.0141
   81SOL     ow  321   1.653   0.449   6.092 -0.2869  0.6927 -0.3040
   81SOL     hw  322   1.727   0.487   6.044 -0.1479 -1.2747 -1.8029
   81SOL     hw  323   1.693   0.405   6.167  0.0111  0.2325 -0.7236
   81SOL     vw  324   1.668   0.448   6.096 -0.2293  0.3724 -0.5569
   82SOL     ow  325   2.267   0.442   3.843 -0.2892  0.2642 -0.3744
   82SOL     hw  326   2.320   0.516   3.815  1.3700 -0.4734  0.6341
   82SOL     hw  327   2.284   0.374   3.777 -0.4525  0.2320 -0.3827
   82SOL     vw  328   2.276   0.443   3.830 -0.0919  0.1627 -0.2425
   83SOL     ow  329   4.455   3.164   4.449  0.0636  0.3445 -0.0603
   83SOL     hw  330   4.380   3.137   4.502  1.2297 -3.2579  0.0656
   83SOL     hw  331   4.501   3.229   4.502 -1.2638  0.2408  1.2623
   83SOL     vw  332   4.451   3.169   4.463  0.0424 -0.1445  0.1309
   84SOL     ow  333   2.995   4.291   6.184  0.3271 -0.4405 -0.0132
   84SOL     hw  334   3.038   4.209   6.205 -0.3559 -0.8870 -0.3036
   84SOL     hw  335   2.928   4.267   6.120  0.1037  0.3377 -0.0832
   84SOL     vw  336   2.992   4.277   6.178  0.2075 -0.3967 -0.0606
   85SOL     ow  337   0.660   3.123   6.163  0.9415 -0.2343 -0.2193
   85SOL     hw  338   0.672   3.136   6.257  0.4812 -0.6295 -0.0997
   85SOL     hw  339   0.595   3.188   6.137  0.5704 -0.5677 -0.1307
   85SOL     vw  340   0.653   3.133   6.172  0.8318 -0.3303 -0.1915
   86SOL     ow  341   6.259   4.818   0.870 -0.3897 -0.1618  0.3301
   86SOL     hw  342   6.238   4.725   0.880 -2.2851  0.1871 -0.0149
   86SOL     hw  343   6.305   4.823   0.787  1.0397 -0.9547  1.0372
   86SOL     vw  344   6.262   4.807   0.861 -0.4513 -0.2203  0.3779
   87SOL     ow  345   4.697   5.289   1.995  0.1157 -0.2061 -0.5915
   87SOL     hw  346   4.712   5.196   2.012  0.3884 -0.5700 -2.6261
   87SOL     hw  347   4.607   5.293   1.961  0.0062  0.3285 -0.2540
   87SOL     vw  348   4.687   5.277   1.993  0.1371 -0.1833 -0.8153
   88SOL     ow  349   5.978   0.067   5.091 -0.7568  0.5318 -0.0962
   88SOL     hw  350   5.989  -0.022   5.056  0.6390  0.3981  0.6303
   88SOL     hw  351   6.043   0.119   5.045  0.3610  0.5774  1.4817
   88SOL     vw  352   5.988   0.062   5.080 -0.4251  0.5202  0.2081
   89SOL     ow  353   4.381   2.177   2.255 -0.3949  0.1328  0.8457
   89SOL     hw  354   4.290   2.207   2.255 -0.8389 -1.1457  1.8890
   89SOL     hw  355   4.376   2.082   2.258  0.9937 -0.0155 -0.3741
   89SOL     vw  356   4.368   2.169   2.255 -0.2704 -0.0556  0.8224
   90SOL     ow  357   1.106   5.414   5.985  0.1835 -0.6418  0.3116
   90SOL     hw  358   1.132   5.325   5.963 -0.8408 -0.5504 -1.4751
   90SOL     hw  359   1.172   5.444   6.047  2.1530 -1.6940 -1.1564
   90SOL     vw  360   1.118   5.406   5.990  0.3082 -0.7687 -0.1180
   91SOL     ow  361   6.343   2.166   5.077 -0.3887 -0.6086  0.6874
   91SOL     hw  362   6.279   2.115   5.028 -0.6452 -0.8891  1.2990
   91SOL     hw  363   6.291   2.228   5.128 -0.2642 -1.4801  1.9306
   91SOL     vw  364   6.328   2.168   5.077 -0.4060 -0.7604  0.9320
   92SOL     ow  365   6.434   5.532   3.337  1.3442  0.7240 -0.0477
   92SOL     hw  366   6.471   5.506   3.421  0.6221 -1.6082 -0.3762
   92SOL     hw  367   6.505   5.577   3.291  1.3632  3.2952  2.2387
   92SOL     vw  368   6.448   5.535   3.342  1.2515  0.7555  0.2108
   93SOL     ow  369   2.933   4.116   5.628  0.3787  0.1940 -0.1928
   93SOL     hw  370   2.910   4.030   5.593  0.4919  0.0501  0.0819
   93SOL     hw  371   2.878   4.177   5.579 -2.2776 -0.3118  1.9256
   93SOL     vw  372   2.922   4.113   5.617  0.0432  0.1085  0.1228
   94SOL     ow  373   3.418   0.533   0.419  0.0757  0.5954  0.2034
   94SOL     hw  374   3.476   0.572   0.353  0.2029 -0.4865 -0.3490
   94SOL     hw  375   3.472   0.467   0.462 -0.7865 -0.5949 -0.4742
   94SOL     vw  376   3.433   0.529   0.416 -0.0212  0.2956  0.0411
   95SOL     ow  377   2.477   6.415   0.511  0.3161 -0.8944  0.3181
   95SOL     hw  378   2.428   6.436   0.431 -0.9832 -0.6617  1.1313
   95SOL     hw  379   2.533   6.342   0.486  0.8755 -0.0117 -1.1263
   95SOL     vw  380   2.478   6.408   0.497  0.2185 -0.7472  0.2348
   96SOL     ow  381   3.094   5.497   5.814  0.2139  0.3646  0.6104
   96SOL     hw  382   3.171   5.441   5.805  0.6308  0.9129  0.7615
   96SOL     hw  383   3.116   5.558   5.884 -0.3378  0.5584  0.6195
   96SOL     vw  384   3.107   5.497   5.822  0.1960  0.4625  0.6311
   97SOL     ow  385   3.115   4.890   3.124  0.4810  0.3559  0.2354
   97SOL     hw  386   3.186   4.870   3.063 -0.6270 -0.8367 -0.7255
   97SOL     hw  387   3.154   4.877   3.211  1.1812 -1.2829 -0.2822
   97SOL     vw  388   3.130   4.885   3.127  0.4271 -0.0176  0.0402
   98SOL     ow  389   1.418   2.108   5.478 -0.8810  0.2297  0.2132
   98SOL     hw  390   1.493   2.159   5.448 -0.9605 -0.0410 -0.4569
   98SOL     hw  391   1.457   2.026   5.510 -0.9049  0.0161 -0.3016
   98SOL     vw  392   1.433   2.104   5.478 -0.8947  0.1658  0.0567
   99SOL     ow  393   4.123   4.069   5.217 -0.8306 -0.2977 -0.1311
   99SOL     hw  394   4.119   4.050   5.124 -0.5967 -0.4225 -0.1159
   99SOL     hw  395   4.065   4.144   5.229 -0.0280  0.3988 -0.5476
   99SOL     vw  396   4.114   4.077   5.207 -0.6938 -0.2222 -0.1843
  100SOL     ow  397   0.797   5.864   1.991 -0.5830 -0.1020  0.1483
  100SOL     hw  398   0.869   5.924   2.007 -0.2194 -0.3169 -0.6087
  100SOL     hw  399   0.827   5.780   2.026 -0.8179  0.0025  0.6041
  100SOL     vw  400   0.810   5.860   1.998 -0.5659 -0.1166  0.1085
  101SOL     ow  401   5.961   4.030   6.079  0.2101 -0.1037  0.2205
  101SOL     hw  402   5.944   4.038   6.172  1.3528  2.4286  0.3001
  101SOL     hw  403   5.878   4.055   6.037 -0.2861 -1.1863  0.5164
  101SOL     vw  404   5.948   4.034   6.085  0.2952  0.0877  0.2701
  102SOL     ow  405   0.063   2.534   1.194 -0.3461  0.6900 -0.1656
  102SOL     hw  406   0.047   2.451   1.149  0.7384 -0.5720  1.6128
  102SOL     hw  407   0.104   2.590   1.128  1.1292 -1.0383 -0.8214
  102SOL     vw  408   0.066   2.530   1.179 -0.0083  0.2956 -0.0175
  103SOL     ow  409   1.134   1.986   3.705 -0.2017 -0.0832 -0.4316
  103SOL     hw  410   1.215   1.970   3.752 -1.1615 -0.5368  1.1409
  103SOL     hw  411   1.076   1.915   3.732 -0.9142 -0.1584 -2.0456
  103SOL     vw  412   1.137   1.975   3.715 -0.4223 -0.1530 -0.4370
  104SOL     ow  413   1.718   0.642   5.118  0.1513 -0.3823  0.3327
  104SOL     hw  414   1.719   0.633   5.023  0.5575 -0.0616  0.3036
  104SOL     hw  415   1.809   0.654   5.142  0.1047 -0.9766  0.8204
  104SOL     vw  416   1.730   0.643   5.109  0.1987 -0.4184  0.3934
  105SOL     ow  417   5.450   3.955   3.132  0.2411 -0.4097  0.0111
  105SOL     hw  418   5.362   3.925   3.156  0.1410  0.3357  0.5907
  105SOL     hw  419   5.508   3.886   3.162 -0.1482 -0.9817 -0.5093
  105SOL     vw  420   5.446   3.942   3.139  0.1762 -0.3868  0.0188
  106SOL     ow  421   1.114   1.627   2.634 -0.5466  0.0620  0.5042
  106SOL     hw  422   1.087   1.654   2.546  0.3734  0.6809  0.3996
  106SOL     hw  423   1.207   1.608   2.626 -0.4286  0.2365  1.3730
  106SOL     vw  424   1.123   1.628   2.621 -0.4097  0.1667  0.6050
  107SOL     ow  425   1.704   3.393   2.040  0.1928 -0.7063  0.0534
  107SOL     hw  426   1.690   3.406   2.134 -0.1236 -0.0708 -0.0773
  107SOL     hw  427   1.683   3.301   2.025  0.4387 -0.8612  0.6394
  107SOL     vw  428   1.699   3.383   2.050  0.1835 -0.6430  0.1136
  108SOL     ow  429   3.412   5.167   6.538 -0.2284 -0.5206 -0.5727
  108SOL     hw  430   3.378   5.118   6.613  2.8317  0.1572  1.4126
  108SOL     hw  431   3.466   5.236   6.576  1.3542 -0.0495 -3.3880
  108SOL     vw  432   3.414   5.169   6.553  0.3842 -0.3691 -0.6821
  109SOL     ow  433   0.170   5.801   4.373 -0.5308  0.1360 -0.6657
  109SOL     hw  434   0.247   5.757   4.408  0.2015  1.3711 -0.6607
  109SOL     hw  435   0.134   5.740   4.309  0.3855 -0.5029 -0.5854
  109SOL     vw  436   0.175   5.787   4.370 -0.3133  0.2146 -0.6545
  110SOL     ow  437   4.579   2.874   6.137 -0.2102 -0.6565 -0.4692
  110SOL     hw  438   4.568   2.814   6.210 -0.3880 -0.0197  0.0343
  110SOL     hw  439   4.640   2.829   6.078  2.8683  0.3369  1.7446
  110SOL     vw  440   4.585   2.860   6.139  0.1726 -0.4414 -0.1106
  111SOL     ow  441   5.708   5.050   1.407  0.2924  0.6695 -0.3009
  111SOL     hw  442   5.765   5.003   1.467  0.1031 -0.4013 -0.9266
  111SOL     hw  443   5.676   4.983   1.347 -1.7335  1.1948  0.1128
  111SOL     vw  444   5.711   5.035   1.407  0.0002  0.5975 -0.3289
  112SOL     ow  445   5.408   5.100   3.862 -0.1452  0.2588 -0.0588
  112SOL     hw  446   5.363   5.122   3.944 -0.3655  1.5123 -0.4863
  112SOL     hw  447   5.414   5.184   3.815  0.7618 -0.2761 -0.9397
  112SOL     vw  448   5.403   5.114   3.866 -0.0548  0.3536 -0.2315
  113SOL     ow  449   0.958   4.834   0.324  0.2635 -0.3002  0.1119
  113SOL     hw  450   0.969   4.900   0.256  1.1809  0.9298  1.3927
  113SOL     hw  451   0.872   4.851   0.361 -0.1558 -0.8465 -0.6012
  113SOL     vw  452   0.948   4.845   0.320  0.3292 -0.2098  0.1868
  114SOL     ow  453   0.831   1.661   4.464  0.5846  0.5687 -0.3048
  114SOL     hw  454   0.897   1.725   4.438  1.3249  0.0807  0.3381
  114SOL     hw  455   0.812   1.682   4.555  0.8106 -0.0990 -0.1011
  114SOL     vw  456   0.837   1.672   4.473  0.7121  0.4162 -0.1931
  115SOL     ow  457   5.430   3.400   6.259 -0.0722  0.3548  0.6674
  115SOL     hw  458   5.449   3.306   6.250  1.4221  0.8597 -3.2288
  115SOL     hw  459   5.345   3.411   6.216  0.8460  0.9983 -1.1179
  115SOL     vw  460   5.421   3.389   6.252  0.2460  0.5063 -0.0820
  116SOL     ow  461   4.403   6.439   4.080  0.1844 -0.0591  0.5742
  116SOL     hw  462   4.324   6.491   4.068 -1.0940 -2.0593 -0.1654
  116SOL     hw  463   4.475   6.503   4.076 -1.2946  1.6247 -0.2421
  116SOL     vw  464   4.402   6.454   4.078 -0.1795 -0.1006  0.3691
  117SOL     ow  465   4.690   4.586   4.318  0.4076 -0.4824  0.2400
  117SOL     hw  466   4.605   4.600   4.359 -0.8689 -0.7666 -2.1890
  117SOL     hw  467   4.687   4.497   4.284  1.0468  0.0160 -1.2088
  117SOL     vw  468   4.679   4.576   4.319  0.3235 -0.4539 -0.2716
  118SOL     ow  469   5.392   2.132   5.240 -0.3346  0.1877  0.7028
  118SOL     hw  470   5.297   2.124   5.248 -0.3815  0.0222  0.0247
  118SOL     hw  471   5.407   2.225   5.223 -0.5980 -0.1402 -1.7688
  118SOL     vw  472   5.381   2.143   5.239 -0.3755  0.1225  0.2873
  119SOL     ow  473   1.346   1.492   6.586 -0.8787  0.4195 -0.2900
  119SOL     hw  474   1.257   1.487   6.619 -0.8075 -1.9806 -0.2874
  119SOL     hw  475   1.345   1.441   6.505  0.4344  0.5505 -0.4192
  119SOL     vw  476   1.334   1.485   6.580 -0.6960  0.1201 -0.3068
  120SOL     ow  477   1.330   2.086   1.278  0.4271  0.1149  0.0111
  120SOL     hw  478   1.317   2.151   1.347  2.5502  2.5836 -1.7232
  120SOL     hw  479   1.402   2.032   1.309 -0.2284 -0.3788  0.7246
  120SOL     vw  480   1.338   2.087   1.291  0.6208  0.3755 -0.1236
  121SOL     ow  481   3.637   4.369   5.896 -0.3257 -0.1193 -0.6716
  121SOL     hw  482   3.648   4.288   5.848 -0.8959 -0.3441 -0.4305
  121SOL     hw  483   3.630   4.342   5.988 -0.8652  0.1613 -0.6223
  121SOL     vw  484   3.637   4.355   5.902 -0.4722 -0.1118 -0.6335
  122SOL     ow  485   4.239   0.334   0.161  0.3468 -0.0060 -0.5560
  122SOL     hw  486   4.262   0.327   0.254 -2.9736  0.3480  0.4289
  122SOL     hw  487   4.294   0.406   0.129  0.0659  1.3431  1.7327
  122SOL     vw  488   4.250   0.343   0.169 -0.1283  0.2187 -0.1241
  123SOL     ow  489   3.992   0.091   4.953 -0.2168 -0.6097 -0.6217
  123SOL     hw  490   4.057   0.146   4.998 -1.0794  1.0545 -1.3203
  123SOL     hw  491   3.969   0.024   5.017 -0.1817  0.7206  0.8552
  123SOL     vw  492   3.997   0.090   4.968 -0.3260 -0.2146 -0.5190
  124SOL     ow  493   2.024   5.567   2.331  0.0497 -0.3259 -0.0086
  124SOL     hw  494   2.008   5.551   2.424  0.8387  2.1753  0.6214
  124SOL     hw  495   2.119   5.568   2.323 -0.0140 -0.7603 -0.9036
  124SOL     vw  496   2.034   5.565   2.342  0.1454 -0.0532 -0.0434
  125SOL     ow  497   3.032   2.519   3.659 -0.0849 -0.3883 -0.3332
  125SOL     hw  498   3.006   2.427   3.656 -1.9617  0.1078 -2.8688
  125SOL     hw  499   3.128   2.517   3.658 -0.0706 -2.2986  0.6624
  125SOL     vw  500   3.041   2.507   3.658 -0.3307 -0.5749 -0.5363
  126SOL     ow  501   4.383   4.423   3.089  0.3272 -0.2438  0.0978
  126SOL     hw  502   4.318   4.396   3.024 -0.6086 -2.3093  1.7641
  126SOL     hw  503   4.465   4.382   3.060  0.4162  0.5824 -0.8596
  126SOL     vw  504   4.385   4.414   3.076  0.2155 -0.4075  0.1913
  127SOL     ow  505   1.359   1.426   4.632 -0.4091  0.0447  0.4817
  127SOL     hw  506   1.435   1.473   4.598  0.2218 -1.4490 -0.2904
  127SOL     hw  507   1.320   1.486   4.696 -0.5789  2.1970 -1.5381
  127SOL     vw  508   1.364   1.440   4.636 -0.3483  0.1316  0.1135
  128SOL     ow  509   0.266   1.755   2.221 -0.5365  0.4533 -0.0365
  128SOL     hw  510   0.216   1.812   2.163  0.4104  2.6160  1.1610
  128SOL     hw  511   0.220   1.759   2.304  0.6699  1.1885  0.6302
  128SOL     vw  512   0.253   1.763   2.224 -0.2524  0.8357  0.2095
  129SOL     ow  513   5.668   0.754   2.056 -0.3927 -0.5833  0.0141
  129SOL     hw  514   5.751   0.803   2.053  0.0658 -1.3209  0.4901
  129SOL     hw  515   5.653   0.727   1.965 -1.5846  1.9259 -0.6403
  129SOL     vw  516   5.677   0.757   2.043 -0.4892 -0.3496 -0.0093
  130SOL     ow  517   0.981   5.987   5.510 -0.2697  0.1658 -0.4593
  130SOL     hw  518   0.916   5.919   5.528 -1.0893  1.2147  0.6517
  130SOL     hw  519   1.060   5.938   5.486 -0.5446 -1.2192  1.2852
  130SOL     vw  520   0.983   5.971   5.509 -0.4141  0.1214 -0.0827
  131SOL     ow  521   5.743   5.415   0.302 -0.7042  0.1764  0.3333
  131SOL     hw  522   5.732   5.393   0.395 -1.7911  0.7271  0.3472
  131SOL     hw  523   5.663   5.461   0.279 -1.1616 -1.3108 -1.2953
  131SOL     vw  524   5.731   5.418   0.312 -0.9079  0.0529  0.1202
  132SOL     ow  525   5.052   4.437   5.409 -0.0855 -0.1995 -0.5518
  132SOL     hw  526   4.998   4.516   5.411  0.2248  0.0153 -0.4276
  132SOL     hw  527   5.007   4.375   5.465 -0.9248 -0.5056 -1.5294
  132SOL     vw  528   5.039   4.439   5.417 -0.1552 -0.2115 -0.6642
  133SOL     ow  529   4.325   4.409   2.461  0.4600  0.1537 -0.2370
  133SOL     hw  530   4.272   4.442   2.533 -0.1680 -1.7387  0.2300
  133SOL     hw  531   4.352   4.322   2.490  0.9779 -0.2718 -1.9084
  133SOL     vw  532   4.322   4.402   2.474  0.4456 -0.1519 -0.3960
  134SOL     ow  533   4.150   4.012   6.282  0.2907  0.7617  0.2224
  134SOL     hw  534   4.222   4.071   6.305  0.9118 -0.4772  1.6610
  134SOL     hw  535   4.080   4.070   6.253  1.5610  2.0608 -0.3746
  134SOL     vw  536   4.150   4.027   6.281  0.5403  0.7696  0.3333
  135SOL     ow  537   1.146   3.868   2.129  0.0683 -0.4264  0.4063
  135SOL     hw  538   1.081   3.811   2.170  0.0566 -1.0479 -0.4324
  135SOL     hw  539   1.133   3.854   2.035  1.7926 -1.0325  0.2079
  135SOL     vw  540   1.136   3.858   2.122  0.2942 -0.5884  0.2694
  136SOL     ow  541   4.161   4.622   1.067 -0.3667  0.1009 -0.5736
  136SOL     hw  542   4.076   4.589   1.095 -0.5161  0.3998 -0.6720
  136SOL     hw  543   4.148   4.648   0.976 -0.4604  1.1541 -0.2715
  136SOL     vw  544   4.148   4.621   1.059 -0.3991  0.2794 -0.5468
  137SOL     ow  545   2.105   4.828   4.284 -0.6831 -0.3502 -0.3654
  137SOL     hw  546   2.010   4.839   4.282 -0.6002  0.9257  0.9420
  137SOL     hw  547   2.120   4.761   4.350 -0.7166 -1.5811 -1.5710
  137SOL     vw  548   2.094   4.821   4.293 -0.6765 -0.3443 -0.3519
  138SOL     ow  549   0.559   0.104   4.738  0.8966 -0.3158 -0.1164
  138SOL     hw  550   0.632   0.045   4.760  2.6714  1.3203 -1.3300
  138SOL     hw  551   0.495   0.088   4.807  3.6283  0.2719  2.8118
  138SOL     vw  552   0.560   0.094   4.750  1.4911 -0.0224  0.1099
  139SOL     ow  553   3.272   1.800   4.386 -0.3712 -0.2511 -0.0074
  139SOL     hw  554   3.358   1.759   4.373 -0.0047  0.8282 -1.3395
  139SOL     hw  555   3.283   1.854   4.464 -0.2347 -1.0798  0.5566
  139SOL     vw  556   3.285   1.802   4.395 -0.3049 -0.2180 -0.1090
  140SOL     ow  557   0.393   2.953   2.598  0.9080 -0.5330  0.1197
  140SOL     hw  558   0.356   2.966   2.685  0.8224  1.2546 -0.1652
  140SOL     hw  559   0.376   2.860   2.580 -2.0130 -0.2092  0.6661
  140SOL     vw  560   0.386   2.942   2.607  0.5113 -0.2544  0.1541
  141SOL     ow  561   5.256   1.169   0.043  0.1502 -0.6055  0.7605
  141SOL     hw  562   5.179   1.217   0.014  1.1835 -0.2434 -1.6905
  141SOL     hw  563   5.249   1.084   0.000  0.9304 -0.6709  0.7360
  141SOL     vw  564   5.245   1.164   0.033  0.3893 -0.5663  0.4339
  142SOL     ow  565   4.973   0.357   0.330  0.1072 -0.1967  0.2855
  142SOL     hw  566   4.928   0.356   0.246 -0.2678  0.0111  0.4797
  142SOL     hw  567   4.907   0.389   0.392 -0.1478 -1.9152  0.9586
  142SOL     vw  568   4.958   0.361   0.327  0.0241 -0.3960  0.3999
  143SOL     ow  569   6.111   1.804   4.255 -0.5061  0.2691  0.3590
  143SOL     hw  570   6.122   1.861   4.331  0.6185 -0.7382  0.9843
  143SOL     hw  571   6.117   1.862   4.180 -0.6178  1.1379  1.0005
  143SOL     vw  572   6.113   1.819   4.255 -0.3722  0.2509  0.5260
  144SOL     ow  573   2.885   0.173   5.194 -0.1210 -0.1689 -0.0189
  144SOL     hw  574   2.874   0.161   5.288  0.9399 -2.2427 -0.1016
  144SOL     hw  575   2.796   0.163   5.158 -0.3380 -0.7296  0.6520
  144SOL     vw  576   2.872   0.170   5.202 -0.0097 -0.5165  0.0587
  145SOL     ow  577   0.091   4.321   1.274  0.1417  0.8663 -0.4522
  145SOL     hw  578   0.072   4.252   1.210  1.4950  0.9070 -0.9288
  145SOL     hw  579   0.144   4.279   1.341 -1.3036  0.8182  0.7103
  145SOL     vw  580   0.095   4.306   1.274  0.1296  0.8652 -0.3617
  146SOL     ow  581   4.086   3.800   2.541 -0.0371 -0.7513 -0.3036
  146SOL     hw  582   4.156   3.866   2.544 -1.5559  1.2037 -3.0763
  146SOL     hw  583   4.048   3.803   2.629 -0.2142  2.4012 -0.3480
  146SOL     vw  584   4.090   3.809   2.553 -0.2608 -0.0775 -0.6753
  147SOL     ow  585   5.007   4.688   4.324 -0.4191 -0.2067  0.7669
  147SOL     hw  586   5.056   4.606   4.320 -0.8083 -0.3869 -0.9534
  147SOL     hw  587   5.057   4.743   4.385  0.3999 -1.3556  1.1583
  147SOL     vw  588   5.020   4.684   4.332 -0.3622 -0.3819  0.5918
  148SOL     ow  589   4.423   4.398   0.511 -0.1891  0.3349  0.6048
  148SOL     hw  590   4.333   4.366   0.521  0.0362 -0.0579  1.4584
  148SOL     hw  591   4.413   4.492   0.494 -0.7793  0.1975  0.1439
  148SOL     vw  592   4.410   4.406   0.510 -0.2372  0.2649  0.6566
  149SOL     ow  593   3.674   1.104   2.938  0.0058 -0.1163 -0.3729
  149SOL     hw  594   3.654   1.190   2.901  0.0928 -0.5019 -1.3190
  149SOL     hw  595   3.610   1.093   3.008 -0.5112  0.3738 -0.7608
  149SOL     vw  596   3.663   1.114   2.943 -0.0508 -0.1025 -0.5490
  150SOL     ow  597   1.690   5.747   0.483  0.1994 -0.1456  0.3606
  150SOL     hw  598   1.635   5.773   0.409  2.1181  2.1424 -0.3806
  150SOL     hw  599   1.629   5.705   0.544 -1.9785  0.4874 -1.2404
  150SOL     vw  600   1.675   5.745   0.482  0.1652  0.2398  0.0516
  151SOL     ow  601   0.156   0.493   5.077 -0.3474  0.0977  0.2717
  151SOL     hw  602   0.166   0.399   5.063  0.3824  0.5098 -2.6737
  151SOL     hw  603   0.245   0.526   5.087 -0.0315  0.9566 -3.5906
  151SOL     vw  604   0.169   0.485   5.076 -0.2095  0.2654 -0.6266
  152SOL     ow  605   3.298   1.355   6.044  0.0816  0.0329 -0.5784
  152SOL     hw  606   3.204   1.340   6.038  0.4001 -2.2574 -0.5935
  152SOL     hw  607   3.314   1.373   6.137 -0.2390 -0.6407 -0.3877
  152SOL     vw  608   3.288   1.356   6.055  0.0813 -0.3581 -0.5553
  153SOL     ow  609   5.218   3.111   1.997 -0.6051 -0.2549 -0.3919
  153SOL     hw  610   5.176   3.183   1.951 -0.0913 -0.5649 -1.3582
  153SOL     hw  611   5.257   3.152   2.074 -0.1778  0.5299 -1.0154
  153SOL     vw  612   5.217   3.126   2.001 -0.4809 -0.1924 -0.6016
  154SOL     ow  613   2.476   1.904   6.670 -0.2137 -0.5785 -0.0097
  154SOL     hw  614   2.447   1.830   6.722 -0.4041  0.9537  2.1985
  154SOL     hw  615   2.570   1.890   6.659 -0.4880 -1.8760 -0.9453
  154SOL     vw  616   2.485   1.893   6.675 -0.2750 -0.5475  0.1583
  155SOL     ow  617   2.411   4.787   5.354  0.0191  0.1888 -0.2660
  155SOL     hw  618   2.322   4.765   5.381 -0.5327  2.0983 -0.3932
  155SOL     hw  619   2.401   4.837   5.273  0.8654  3.3819  1.4223
  155SOL     vw  620   2.398   4.791   5.347  0.0579  0.8621 -0.0598
  156SOL     ow  621   4.801   3.083   2.827  0.5177 -0.4098 -0.1585
  156SOL     hw  622   4.723   3.040   2.791 -1.4210  0.7537  2.3341
  156SOL     hw  623   4.870   3.018   2.818 -1.1307 -2.1476 -0.9648
  156SOL     vw  624   4.800   3.069   2.821  0.0446 -0.4857  0.0640
  157SOL     ow  625   6.141   5.099   0.879 -0.5846 -0.3398 -0.4795
  157SOL     hw  626   6.052   5.065   0.885 -0.5719 -0.1095  1.2927
  157SOL     hw  627   6.132   5.181   0.829 -0.8836 -1.8200 -3.0541
  157SOL     vw  628   6.128   5.105   0.873 -0.6225 -0.5047 -0.5854
  158SOL     ow  629   3.340   4.174   3.606 -0.9093 -0.0614 -0.0548
  158SOL     hw  630   3.282   4.216   3.542 -1.4280 -1.3862 -0.4939
  158SOL     hw  631   3.374   4.097   3.560  0.0854 -0.0897  0.6920
  158SOL     vw  632   3.337   4.169   3.591 -0.8465 -0.2398 -0.0141
  159SOL     ow  633   5.248   0.900   4.130  0.2561  0.1835 -0.5087
  159SOL     hw  634   5.302   0.832   4.091  0.0067 -0.1807 -0.2193
  159SOL     hw  635   5.158   0.871   4.117  0.1687  0.0291  0.3749
  159SOL     vw  636   5.243   0.887   4.123  0.2117  0.1151 -0.3538
  160SOL     ow  637   5.963   3.893   4.372 -0.1416 -0.1367 -0.4129
  160SOL     hw  638   5.927   3.982   4.375  0.9783  0.4113 -1.7957
  160SOL     hw  639   6.056   3.906   4.353  0.1414 -1.5951 -0.1036
  160SOL     vw  640   5.971   3.906   4.370  0.0436 -0.2567 -0.5548
  161SOL     ow  641   3.720   5.121   5.048 -0.4087 -0.1033  0.2089
  161SOL     hw  642   3.760   5.034   5.042  0.0388  0.0935  0.2628
  161SOL     hw  643   3.791   5.178   5.078 -0.5055  0.4161 -0.5292
  161SOL     vw  644   3.735   5.117   5.051 -0.3623 -0.0088  0.1187
  162SOL     ow  645   6.305   1.017   5.640 -0.1126  0.5913  0.0565
  162SOL     hw  646   6.220   1.050   5.670 -0.4470 -0.4721  0.2911
  162SOL     hw  647   6.305   0.925   5.664  1.3712  0.7123  0.6369
  162SOL     vw  648   6.294   1.009   5.647  0.0389  0.4669  0.1638
  163SOL     ow  649   1.408   1.951   0.537  0.3417 -0.0531  0.0877
  163SOL     hw  650   1.317   1.942   0.509 -0.1319  1.2239  1.1569
  163SOL     hw  651   1.423   1.877   0.596  0.3212 -0.8186 -0.8328
  163SOL     vw  652   1.398   1.940   0.541  0.2766  0.0144  0.1074
  164SOL     ow  653   1.902   0.531   1.198  0.5065 -0.3341  0.2556
  164SOL     hw  654   1.939   0.548   1.284 -1.1649 -0.0791  0.9495
  164SOL     hw  655   1.974   0.551   1.137  1.1657  1.2248  1.4706
  164SOL     vw  656   1.916   0.536   1.201  0.3729 -0.0948  0.5074
  165SOL     ow  657   3.319   2.563   1.457  0.0627 -0.3245 -0.2030
  165SOL     hw  658   3.292   2.652   1.434 -0.4723 -0.6074 -0.7070
  165SOL     hw  659   3.241   2.525   1.499  0.1615 -0.6767 -0.3362
  165SOL     vw  660   3.305   2.570   1.460  0.0052 -0.4083 -0.2871
  166SOL     ow  661   5.708   0.198   4.933  0.0204  0.0858 -0.0823
  166SOL     hw  662   5.714   0.127   4.869  3.4436  1.0209 -0.9894
  166SOL     hw  663   5.629   0.246   4.908  0.4373 -0.4419 -2.7133
  166SOL     vw  664   5.699   0.195   4.921  0.5271  0.1396 -0.5491
  167SOL     ow  665   1.620   4.240   1.142 -0.0619 -0.3052 -0.4686
  167SOL     hw  666   1.640   4.227   1.235  0.8940 -1.1845 -0.7826
  167SOL     hw  667   1.684   4.305   1.113  0.5165 -1.0128 -0.8086
  167SOL     vw  668   1.631   4.247   1.151  0.1406 -0.5147 -0.5549
  168SOL     ow  669   0.172   0.784   0.652  0.2336  0.1758  0.1717
  168SOL     hw  670   0.166   0.745   0.739 -0.5188 -0.0294  0.0333
  168SOL     hw  671   0.264   0.772   0.627  0.3066 -0.3484  0.6673
  168SOL     vw  672   0.184   0.777   0.660  0.1440  0.0795  0.2188
  169SOL     ow  673   6.138   5.416   5.431  0.0228  0.4639 -0.0425
  169SOL     hw  674   6.143   5.476   5.505  0.2717  0.0837  0.2492
  169SOL     hw  675   6.226   5.418   5.393 -0.2916  1.2069 -0.7684
  169SOL     vw  676   6.150   5.424   5.435  0.0141  0.5119 -0.0999
  170SOL     ow  677   1.322   2.982   1.149  0.3496 -0.0989  0.0180
  170SOL     hw  678   1.297   2.942   1.232  2.6124 -1.6251  0.0489
  170SOL     hw  679   1.402   3.031   1.170  1.2426 -0.9371 -1.3378
  170SOL     vw  680   1.329   2.983   1.163  0.7659 -0.4109 -0.1568
  171SOL     ow  681   2.598   2.933   6.025  0.3726 -0.7522  0.4947
  171SOL     hw  682   2.679   2.978   6.002 -0.3071  1.0490  1.3711
  171SOL     hw  683   2.618   2.840   6.016  1.5329 -0.3276 -2.5276
  171SOL     vw  684   2.611   2.927   6.021  0.4359 -0.4586  0.2117
  172SOL     ow  685   6.342   0.930   0.065  0.5340 -0.0966 -0.0822
  172SOL     hw  686   6.372   0.880  -0.011  0.0650  0.9361 -0.9868
  172SOL     hw  687   6.385   0.889   0.140  1.3249 -0.8974 -0.9457
  172SOL     vw  688   6.352   0.918   0.065  0.5767 -0.0660 -0.3155
  173SOL     ow  689   3.880   6.581   3.097 -0.4867  0.0756 -0.0928
  173SOL     hw  690   3.937   6.583   3.174  0.5795  2.4377 -0.8714
  173SOL     hw  691   3.880   6.489   3.070  1.0410 -0.3908  1.3069
  173SOL     vw  692   3.887   6.569   3.104 -0.1445  0.3259 -0.0107
  174SOL     ow  693   5.469   0.232   0.835 -0.6963 -0.9338  0.2809
  174SOL     hw  694   5.468   0.137   0.830  0.1437 -1.0181  1.3936
  174SOL     hw  695   5.387   0.255   0.879 -1.5816 -1.0250 -1.2524
  174SOL     vw  696   5.458   0.223   0.840 -0.7021 -0.9569  0.2254
  175SOL     ow  697   0.733   0.841   4.052  0.0731  0.4934 -0.2693
  175SOL     hw  698   0.774   0.883   4.127 -0.7479 -0.2840  0.6394
  175SOL     hw  699   0.782   0.760   4.040 -1.9180 -1.1455  1.7032
  175SOL     vw  700   0.745   0.835   4.060 -0.2979  0.1746  0.1109
  176SOL     ow  701   0.971   5.887   3.315  0.1463 -0.4629  0.4667
  176SOL     hw  702   0.978   5.826   3.388  0.9903 -1.0394 -0.0797
  176SOL     hw  703   0.953   5.831   3.239  0.2853  0.0287  0.0659
  176SOL     vw  704   0.969   5.871   3.315  0.2760 -0.4740  0.3417
  177SOL     ow  705   4.950   2.299   4.433  0.4908 -0.0081 -0.0014
  177SOL     hw  706   4.965   2.346   4.351  2.2118 -2.0074 -0.9498
  177SOL     hw  707   5.006   2.343   4.497  0.3783  0.5698 -0.2928
  177SOL     vw  708   4.960   2.311   4.430  0.7031 -0.1956 -0.1650
  178SOL     ow  709   2.996   4.739   1.338  0.7591 -0.6286 -0.4338
  178SOL     hw  710   2.951   4.704   1.415  0.2267  0.0785 -0.4190
  178SOL     hw  711   2.946   4.705   1.264  0.6855 -0.5053 -0.4406
  178SOL     vw  712   2.983   4.730   1.339  0.6793 -0.5193 -0.4327
  179SOL     ow  713   0.979   0.318   3.560 -0.4869  0.3864 -0.7804
  179SOL     hw  714   1.071   0.334   3.579 -1.1222  2.8734  0.5599
  179SOL     hw  715   0.959   0.376   3.487 -1.2969  0.9674 -0.1217
  179SOL     vw  716   0.989   0.327   3.553 -0.6776  0.7912 -0.5168
  180SOL     ow  717   2.310   4.826   2.460  0.4083 -0.5665  0.4299
  180SOL     hw  718   2.279   4.828   2.370  2.5288  0.0070 -0.3376
  180SOL     hw  719   2.309   4.733   2.484  1.2284 -0.8909 -0.7324
  180SOL     vw  720   2.306   4.814   2.452  0.7963 -0.5336  0.1754
  181SOL     ow  721   4.404   4.791   1.171  0.7995  0.3413  0.1572
  181SOL     hw  722   4.448   4.842   1.103  1.3215  1.8853  1.5878
  181SOL     hw  723   4.343   4.853   1.211 -2.6831 -1.6701 -1.6249
  181SOL     vw  724   4.402   4.806   1.167  0.4089  0.2797  0.1108
  182SOL     ow  725   1.247   4.695   1.458 -0.7226  0.0713 -0.0200
  182SOL     hw  726   1.339   4.673   1.473 -0.3507  1.4334 -0.2062
  182SOL     hw  727   1.201   4.653   1.531  0.0571 -0.4900  0.1668
  182SOL     vw  728   1.253   4.686   1.470 -0.5707  0.1767 -0.0198
  183SOL     ow  729   3.523   2.412   0.944 -0.4951 -0.2942  0.0305
  183SOL     hw  730   3.599   2.373   0.901  0.5793  0.7561  0.9183
  183SOL     hw  731   3.548   2.503   0.961 -1.7165 -0.0844  0.8796
  183SOL     vw  732   3.536   2.419   0.941 -0.5145 -0.1279  0.2597
  184SOL     ow  733   4.750   2.955   0.449 -0.3813  0.3188 -0.2825
  184SOL     hw  734   4.837   2.961   0.489 -0.7064 -0.9543  0.6758
  184SOL     hw  735   4.715   3.044   0.456 -0.1072  0.3312  1.6034
  184SOL     vw  736   4.757   2.968   0.456 -0.3881  0.1526  0.0928
  185SOL     ow  737   0.488   1.539   2.297 -0.4962 -0.3178 -0.4964
  185SOL     hw  738   0.429   1.511   2.367  0.1171 -0.1720  0.0934
  185SOL     hw  739   0.552   1.469   2.289  0.4633  0.4385  0.3069
  185SOL     vw  740   0.489   1.526   2.305 -0.2887 -0.1988 -0.3126
  186SOL     ow  741   0.965   2.847   6.703 -0.5528 -0.3076 -0.1199
  186SOL     hw  742   1.056   2.825   6.721 -0.8673 -0.5381  1.2971
  186SOL     hw  743   0.968   2.897   6.621  0.8545 -0.1337  0.0152
  186SOL     vw  744   0.977   2.851   6.694 -0.4086 -0.3152  0.0849
  187SOL     ow  745   2.233   4.373   0.489  0.3273  0.0411  0.0391
  187SOL     hw  746   2.183   4.399   0.567  1.1668  0.3120  0.4951
  187SOL     hw  747   2.270   4.288   0.511 -0.7932 -0.6823 -0.7145
  187SOL     vw  748   2.231   4.366   0.502  0.2903 -0.0184 -0.0001
  188SOL     ow  749   4.865   1.055   6.093 -0.1346  0.0299  0.4254
  188SOL     hw  750   4.871   1.116   6.020 -2.0456  0.4397  0.5579
  188SOL     hw  751   4.916   1.096   6.163  0.3784  0.4098 -0.1628
  188SOL     vw  752   4.873   1.069   6.093 -0.3192  0.1341  0.3650
  189SOL     ow  753   5.869   2.428   1.293 -0.0968 -0.3612 -0.2260
  189SOL     hw  754   5.783   2.433   1.251  0.0809 -1.1881 -0.7083
  189SOL     hw  755   5.894   2.336   1.285  1.3224  0.0705 -1.0644
  189SOL     vw  756   5.861   2.416   1.287  0.1137 -0.4134 -0.4002
  190SOL     ow  757   3.725   6.368   3.642  0.6412 -0.3287  0.3873
  190SOL     hw  758   3.788   6.423   3.596  1.1885 -1.7015 -0.5676
  190SOL     hw  759   3.740   6.387   3.734  0.9057  0.9961  0.1003
  190SOL     vw  760   3.735   6.378   3.648  0.7483 -0.3352  0.2234
  191SOL     ow  761   0.597   6.681   5.229  0.0898 -0.2581 -0.3891
  191SOL     hw  762   0.680   6.644   5.259 -0.6147 -0.8863  0.8415
  191SOL     hw  763   0.572   6.626   5.154  1.6452  1.0638 -1.9687
  191SOL     vw  764   0.604   6.668   5.223  0.2021 -0.1667 -0.4354
  192SOL     ow  765   4.502   5.947   5.842  0.9717  0.1058 -0.3085
  192SOL     hw  766   4.458   5.877   5.890  0.7541  1.4350  1.5509
  192SOL     hw  767   4.438   5.975   5.776  0.3109 -0.1540  0.2188
  192SOL     vw  768   4.488   5.941   5.840  0.8557  0.2468  0.0062
  193SOL     ow  769   6.276   1.082   5.336  0.1783 -0.0072  0.2469
  193SOL     hw  770   6.203   1.021   5.346  0.6617 -0.5111  0.7408
  193SOL     hw  771   6.267   1.115   5.247 -0.8528  0.2008  0.4205
  193SOL     vw  772   6.265   1.078   5.325  0.1056 -0.0462  0.3350
  194SOL     ow  773   3.032   2.322   2.976 -0.2398 -0.3125  0.4736
  194SOL     hw  774   3.049   2.300   2.885  0.8424 -0.5339  0.7185
  194SOL     hw  775   3.056   2.243   3.025 -0.6775 -0.1509  0.9674
  194SOL     vw  776   3.037   2.309   2.971 -0.1549 -0.3204  0.5710
  195SOL     ow  777   1.925   1.979   0.778  0.0498  0.7409  0.4793
  195SOL     hw  778   1.993   2.017   0.723 -1.5346  0.6299 -1.6602
  195SOL     hw  779   1.883   2.055   0.820  0.2203  0.9445  0.2839
  195SOL     vw  780   1.928   1.994   0.776 -0.1368  0.7532  0.1712
  196SOL     ow  781   4.229   0.994   1.952  0.7538 -0.7016 -0.0929
  196SOL     hw  782   4.279   0.950   1.884  0.3012 -0.8883 -0.3040
  196SOL     hw  783   4.201   0.924   2.012  1.7405 -0.4613  0.6757
  196SOL     vw  784   4.232   0.979   1.951  0.8242 -0.6945 -0.0194
  197SOL     ow  785   2.692   1.440   3.209 -0.3620 -0.7746  0.7294
  197SOL     hw  786   2.664   1.488   3.287  0.1910 -1.4021  1.3284
  197SOL     hw  787   2.704   1.507   3.143  0.4729 -0.0647  1.5699
  197SOL     vw  788   2.690   1.455   3.211 -0.1789 -0.7638  0.9195
  198SOL     ow  789   5.583   1.646   1.691 -0.2707  0.2227  0.3849
  198SOL     hw  790   5.579   1.556   1.659  0.3440  0.3141  0.0503
  198SOL     hw  791   5.499   1.659   1.737  0.3214 -1.0752  1.9132
  198SOL     vw  792   5.571   1.636   1.693 -0.1116  0.0635  0.5423
  199SOL     ow  793   1.481   0.808   0.018 -0.2948  0.2248 -0.1148
  199SOL     hw  794   1.443   0.873  -0.041  0.0986 -0.7316 -1.4533
  199SOL     hw  795   1.408   0.749   0.038 -0.7804  1.2958  1.4944
  199SOL     vw  796   1.467   0.809   0.013 -0.3070  0.2399 -0.0791
  200SOL     ow  797   2.360   6.241   6.161 -0.2221  0.3995 -0.2493
  200SOL     hw  798   2.425   6.275   6.222  0.3391 -0.4374 -0.3479
  200SOL     hw  799   2.306   6.316   6.138  0.9771  1.2249 -0.4841
  200SOL     vw  800   2.362   6.255   6.166  0.0101  0.3977 -0.2930
  201SOL     ow  801   0.426   0.763   6.491 -0.2332 -0.3972  0.7378
  201SOL     hw  802   0.433   0.695   6.424  0.7598 -0.1019  0.5257
  201SOL     hw  803   0.445   0.845   6.444  1.2946 -0.2659  1.5218
  201SOL     vw  804   0.429   0.765   6.476  0.0994 -0.3410  0.8132
  202SOL     ow  805   1.661   0.980   1.865 -0.1034  0.0088  0.2089
  202SOL     hw  806   1.697   1.068   1.852  1.1947 -0.8064 -2.5548
  202SOL     hw  807   1.598   0.970   1.794  0.6348 -1.6785 -0.2471
  202SOL     vw  808   1.658   0.991   1.854  0.1652 -0.3214 -0.2158
  203SOL     ow  809   2.471   3.861   5.384 -0.0347  0.4140  0.0686
  203SOL     hw  810   2.507   3.803   5.318 -1.0726  0.9278 -0.9866
  203SOL     hw  811   2.513   3.945   5.369 -1.4626  0.9670 -1.0498
  203SOL     vw  812   2.481   3.864   5.373 -0.3601  0.5547 -0.2184
  204SOL     ow  813   3.838   4.575   5.765 -0.4167  0.2313 -0.6564
  204SOL     hw  814   3.919   4.576   5.817 -0.3819  2.1039 -0.6752
  204SOL     hw  815   3.865   4.544   5.679  0.0316 -0.3818 -0.3012
  204SOL     vw  816   3.852   4.571   5.760 -0.3531  0.3974 -0.6123
  205SOL     ow  817   5.680   5.811   6.020  0.1267  0.2461 -0.0511
  205SOL     hw  818   5.649   5.750   5.952  0.0759  0.7536 -0.4871
  205SOL     hw  819   5.765   5.776   6.045  0.5352  0.5198 -0.9889
  205SOL     vw  820   5.687   5.798   6.014  0.1738  0.3493 -0.2325
  206SOL     ow  821   4.293   2.207   0.689  0.0746 -0.6422  0.1234
  206SOL     hw  822   4.330   2.234   0.773  0.3471 -1.8387  0.4149
  206SOL     hw  823   4.312   2.113   0.684 -1.3534 -0.9153 -0.5565
  206SOL     vw  824   4.301   2.198   0.699 -0.0775 -0.8361  0.0721
  207SOL     ow  825   5.601   4.824   5.023  0.1689  0.3169 -0.3467
  207SOL     hw  826   5.586   4.875   5.102 -0.5031 -1.0945  0.4754
  207SOL     hw  827   5.655   4.750   5.051 -1.5631 -1.1826 -0.7889
  207SOL     vw  828   5.606   4.821   5.037 -0.1481 -0.0670 -0.2964
  208SOL     ow  829   3.674   2.695   2.766  0.0452  0.0687  0.0018
  208SOL     hw  830   3.650   2.739   2.684 -1.6036  2.4790  1.6434
  208SOL     hw  831   3.769   2.687   2.761  0.3408  2.9490 -0.9035
  208SOL     vw  832   3.684   2.700   2.754 -0.1333  0.7668  0.0988
  209SOL     ow  833   0.342   5.328   2.460 -0.4401 -0.4180 -0.5604
  209SOL     hw  834   0.346   5.261   2.528  0.5239  0.2142  0.0359
  209SOL     hw  835   0.353   5.279   2.378  2.8181 -0.8162 -0.0184
  209SOL     vw  836   0.344   5.312   2.458  0.1170 -0.3874 -0.4102
  210SOL     ow  837   3.154   3.974   1.380 -0.3487 -0.3107 -0.1861
  210SOL     hw  838   3.248   3.993   1.386 -0.4882  0.0355  1.7682
  210SOL     hw  839   3.112   4.059   1.390 -0.8835 -0.6461  0.5146
  210SOL     vw  840   3.161   3.988   1.382 -0.4377 -0.3093  0.1642
  211SOL     ow  841   3.481   4.072   5.059  0.1967 -0.0026 -0.6716
  211SOL     hw  842   3.518   4.142   5.006 -0.1667  2.1341  1.6657
  211SOL     hw  843   3.551   4.008   5.067  1.7290  1.6315 -0.3097
  211SOL     vw  844   3.495   4.073   5.053  0.3511  0.4950 -0.3157
  212SOL     ow  845   4.955   4.581   6.544 -0.1627 -0.6091  0.7301
  212SOL     hw  846   5.038   4.617   6.513 -0.3496  0.1405  1.0748
  212SOL     hw  847   4.974   4.552   6.634 -0.7168  1.2611  1.4927
  212SOL     vw  848   4.968   4.582   6.552 -0.2604 -0.2635  0.8762
  213SOL     ow  849   0.494   5.940   1.986  0.4558  0.7475 -0.0798
  213SOL     hw  850   0.420   5.888   1.952  1.8581 -0.7528 -0.9679
  213SOL     hw  851   0.472   5.956   2.077 -0.8946  0.2060 -0.2833
  213SOL     vw  852   0.481   5.935   1.993  0.4626  0.4780 -0.2238
  214SOL     ow  853   3.853   2.315   4.185 -0.0616 -0.1049  0.5123
  214SOL     hw  854   3.882   2.253   4.117 -2.0699 -0.4269 -0.1191
  214SOL     hw  855   3.878   2.401   4.151  0.7463 -0.4058  0.3278
  214SOL     vw  856   3.860   2.318   4.171 -0.2199 -0.1872  0.4044
  215SOL     ow  857   2.425   3.244   1.417  0.1632  1.1298 -0.4332
  215SOL     hw  858   2.356   3.220   1.479  1.5659 -0.2333  0.6800
  215SOL     hw  859   2.382   3.246   1.332 -1.2295  0.2063  0.2219
  215SOL     vw  860   2.411   3.241   1.414  0.1645  0.8280 -0.1999
  216SOL     ow  861   2.521   3.957   2.115 -0.4300  0.1613  0.2281
  216SOL     hw  862   2.565   3.877   2.144 -0.3700  0.0202 -0.2531
  216SOL     hw  863   2.430   3.945   2.143 -0.5135 -0.2609 -0.2160
  216SOL     vw  864   2.514   3.945   2.123 -0.4331  0.0869  0.1061
  217SOL     ow  865   2.378   1.325   1.700 -0.1671 -0.1537  0.3044
  217SOL     hw  866   2.449   1.370   1.745 -0.4546 -0.3513  0.9782
  217SOL     hw  867   2.359   1.379   1.623 -0.5196  0.8822  1.1032
  217SOL     vw  868   2.385   1.338   1.696 -0.2515 -0.0431  0.4987
  218SOL     ow  869   0.655   1.907   6.476 -0.0920  0.0681  0.2508
  218SOL     hw  870   0.687   1.962   6.548 -0.2177 -1.1348  1.2635
  218SOL     hw  871   0.663   1.818   6.509 -3.0426 -0.3899 -0.0321
  218SOL     vw  872   0.660   1.903   6.490 -0.4979 -0.1510  0.3469
  219SOL     ow  873   0.402   4.399   2.185  0.1639 -0.1313 -0.0354
  219SOL     hw  874   0.377   4.307   2.197  1.9216 -0.2916  3.4132
  219SOL     hw  875   0.495   4.397   2.165  0.0385  0.9077 -0.8284
  219SOL     vw  876   0.411   4.387   2.184  0.3793 -0.0153  0.3151
  220SOL     ow  877   5.355   1.373   2.256  0.0166 -0.3019 -0.4715
  220SOL     hw  878   5.268   1.333   2.246 -0.6223  1.1720 -1.1013
  220SOL     hw  879   5.370   1.373   2.351 -0.1733 -1.5608 -0.4292
  220SOL     vw  880   5.345   1.368   2.267 -0.0927 -0.2735 -0.5491
  221SOL     ow  881   6.382   2.704   6.107  0.4511  0.0791  0.1978
  221SOL     hw  882   6.452   2.648   6.139  1.3478  1.5943  1.0098
  221SOL     hw  883   6.426   2.784   6.079 -0.6553 -0.0315 -2.0583
  221SOL     vw  884   6.397   2.707   6.108  0.4234  0.2645  0.0072
  222SOL     ow  885   1.738   5.480   3.345  0.7516  0.0673 -0.1500
  222SOL     hw  886   1.651   5.447   3.325  0.1265  1.2881  0.4449
  222SOL     hw  887   1.724   5.571   3.373  2.1870  0.2281  0.1457
  222SOL     vw  888   1.725   5.488   3.346  0.8584  0.2499 -0.0325
  223SOL     ow  889   0.779   0.131   3.400  0.5161  0.0177  1.1949
  223SOL     hw  890   0.782   0.072   3.325  0.8373 -0.3509  1.5001
  223SOL     hw  891   0.699   0.182   3.387  0.7655  0.2181  0.4008
  223SOL     vw  892   0.769   0.130   3.388  0.5914 -0.0045  1.1303
  224SOL     ow  893   0.624   5.944   3.882  0.0154  0.4796  0.4221
  224SOL     hw  894   0.706   5.899   3.863 -0.5860  0.1004 -1.5033
  224SOL     hw  895   0.642   6.036   3.863  0.2109  0.5129  0.7671
  224SOL     vw  896   0.637   5.950   3.877 -0.0381  0.4337  0.2136
  225SOL     ow  897   4.192   5.661   4.262 -0.3109  0.5940  0.1076
  225SOL     hw  898   4.140   5.684   4.185 -0.6480 -2.4337 -0.7141
  225SOL     hw  899   4.212   5.568   4.250  0.0230  0.1141  3.4569
  225SOL     vw  900   4.188   5.651   4.250 -0.3114  0.1311  0.4411
  226SOL     ow  901   4.640   1.352   3.807 -0.1478 -0.0896 -0.1483
  226SOL     hw  902   4.601   1.401   3.879 -4.9503 -3.0972 -0.2513
  226SOL     hw  903   4.628   1.260   3.832 -0.2371 -1.2623 -3.8462
  226SOL     vw  904   4.633   1.346   3.820 -0.7932 -0.6412 -0.6496
  227SOL     ow  905   1.833   4.209   6.240  0.1182 -0.1518  0.2119
  227SOL     hw  906   1.749   4.173   6.268 -0.0188  0.0218  0.0311
  227SOL     hw  907   1.821   4.227   6.146 -0.8164  3.0975  0.8390
  227SOL     vw  908   1.820   4.207   6.231 -0.0232  0.2999  0.2708
  228SOL     ow  909   2.201   4.853   2.756  0.0113  0.3931 -0.3581
  228SOL     hw  910   2.140   4.813   2.694 -0.3164 -0.3399  0.4047
  228SOL     hw  911   2.157   4.843   2.841  0.3449  1.5767 -0.0342
  228SOL     vw  912   2.187   4.847   2.759  0.0120  0.4523 -0.2148
  229SOL     ow  913   6.271   5.048   3.001  0.2411  0.4652 -0.3080
  229SOL     hw  914   6.205   5.059   2.932 -0.6311 -0.2344  0.3760
  229SOL     hw  915   6.224   5.066   3.082  0.6883 -0.7155  0.2494
  229SOL     vw  916   6.256   5.052   3.003  0.1848  0.2172 -0.1442
  230SOL     ow  917   3.992   4.130   3.109 -0.5241 -0.1943  0.3248
  230SOL     hw  918   3.965   4.213   3.071  0.4334 -0.1282 -0.2617
  230SOL     hw  919   4.068   4.104   3.057 -2.1627 -2.6087 -1.0520
  230SOL     vw  920   3.999   4.137   3.097 -0.6140 -0.5040  0.0658
  231SOL     ow  921   0.336   4.206   4.203  0.2305  0.2699  0.5395
  231SOL     hw  922   0.297   4.292   4.219 -1.0416 -0.0613 -0.6590
  231SOL     hw  923   0.405   4.223   4.139  0.1307  0.4285  0.4715
  231SOL     vw  924   0.340   4.220   4.197  0.0495  0.2472  0.3722
  232SOL     ow  925   0.480   4.743   6.393  0.4718  0.5276  0.0692
  232SOL     hw  926   0.467   4.820   6.338 -1.0276 -0.6378 -1.2813
  232SOL     hw  927   0.408   4.746   6.456 -2.5051 -2.0398 -2.8306
  232SOL     vw  928   0.469   4.753   6.394 -0.1188  0.0350 -0.4921
  233SOL     ow  929   1.948   5.647   0.597  0.1046  0.1733 -0.1456
  233SOL     hw  930   1.915   5.570   0.643 -0.2474 -0.5255 -1.5156
  233SOL     hw  931   2.041   5.628   0.584  0.7490  1.3477  2.1276
  233SOL     vw  932   1.956   5.634   0.602  0.1432  0.2360 -0.0265
  234SOL     ow  933   4.741   2.524   1.033  0.1402 -0.0970 -0.5648
  234SOL     hw  934   4.665   2.580   1.017  0.9544  1.0221 -0.6608
  234SOL     hw  935   4.715   2.438   1.001 -2.7465 -0.9712  3.3247
  234SOL     vw  936   4.728   2.520   1.027 -0.1335 -0.0647 -0.0643
  235SOL     ow  937   2.166   1.541   6.165 -0.3879  0.2243  0.1289
  235SOL     hw  938   2.186   1.634   6.174  0.7379 -0.0692  0.9731
  235SOL     hw  939   2.182   1.504   6.252 -0.5813 -0.7931 -0.2463
  235SOL     vw  940   2.171   1.548   6.178 -0.2648  0.0513  0.1910
  236SOL     ow  941   5.212   5.213   6.302  0.1935 -0.1093 -0.2074
  236SOL     hw  942   5.301   5.236   6.278  0.4651 -0.0874  0.7800
  236SOL     hw  943   5.175   5.172   6.224  1.5695 -1.5322 -0.1523
  236SOL     vw  944   5.219   5.211   6.289  0.4108 -0.2942 -0.0699
  237SOL     ow  945   3.023   6.469   4.342  0.3195 -0.4490  0.0161
  237SOL     hw  946   3.099   6.417   4.316  1.0577  0.9604 -0.7418
  237SOL     hw  947   3.012   6.451   4.435  0.1140 -2.4820 -0.3608
  237SOL     vw  948   3.031   6.460   4.350  0.3898 -0.5312 -0.1338
  238SOL     ow  949   3.148   3.574   4.509  0.2607 -0.3565  0.6205
  238SOL     hw  950   3.087   3.559   4.581  1.7273 -3.3134  1.4023
  238SOL     hw  951   3.188   3.659   4.530 -1.5629  0.3353  1.5403
  238SOL     vw  952   3.145   3.584   4.522  0.2135 -0.6555  0.8450
  239SOL     ow  953   4.090   4.602   4.232 -0.0885 -0.2634 -0.1351
  239SOL     hw  954   4.152   4.533   4.208 -0.4687 -0.3783 -0.8092
  239SOL     hw  955   4.015   4.556   4.269  0.7646 -0.0581  1.9989
  239SOL     vw  956   4.089   4.587   4.233 -0.0260 -0.2515  0.0577
  240SOL     ow  957   1.682   0.333   1.369 -0.1021 -0.0997  0.4350
  240SOL     hw  958   1.698   0.280   1.447 -0.4669 -0.2395  0.4165
  240SOL     hw  959   1.639   0.412   1.402  2.3837  1.2548  0.7617
  240SOL     vw  960   1.679   0.337   1.384  0.1777  0.0606  0.4757
  241SOL     ow  961   1.625   5.943   3.007 -0.0497 -0.0958 -0.7530
  241SOL     hw  962   1.675   5.986   3.077  2.4178 -2.8622 -0.6229
  241SOL     hw  963   1.645   5.850   3.017  0.9232 -0.6309 -5.4959
  241SOL     vw  964   1.634   5.936   3.018  0.4042 -0.5312 -1.3616
  242SOL     ow  965   0.658   0.331   4.538  0.3900 -0.3127 -0.2530
  242SOL     hw  966   0.605   0.402   4.575  0.1592 -0.7406  0.2502
  242SOL     hw  967   0.739   0.334   4.587  0.2427 -0.6201  0.0134
  242SOL     vw  968   0.661   0.341   4.549  0.3401 -0.4098 -0.1512
  243SOL     ow  969   5.603   2.334   1.892 -0.0155 -0.1276  0.2374
  243SOL     hw  970   5.638   2.356   1.978  0.8027 -0.6557  0.0420
  243SOL     hw  971   5.670   2.363   1.830 -0.0643 -0.8493 -0.1583
  243SOL     vw  972   5.616   2.341   1.895  0.0861 -0.2925  0.1594
  244SOL     ow  973   6.652   2.073   2.334 -0.4855  0.0728  0.0086
  244SOL     hw  974   6.650   2.035   2.422 -0.5538  0.6741  0.2690
  244SOL     hw  975   6.575   2.037   2.290 -2.3274  2.2481  1.2374
  244SOL     vw  976   6.642   2.063   2.340 -0.7374  0.4392  0.2052
  245SOL     ow  977   2.872   6.317   3.261 -0.1944  0.6002  0.4964
  245SOL     hw  978   2.963   6.291   3.279 -0.6980 -1.6330  0.0380
  245SOL     hw  979   2.829   6.315   3.346  0.3338  2.5307  0.8609
  245SOL     vw  980   2.879   6.313   3.275 -0.1912  0.5603  0.4840
  246SOL     ow  981   2.960   4.857   2.088  0.2800  0.1352 -0.0262
  246SOL     hw  982   3.001   4.800   2.023 -2.1106 -2.3776  0.4895
  246SOL     hw  983   2.866   4.840   2.080 -0.1937  0.1081  3.6116
  246SOL     vw  984   2.953   4.847   2.079 -0.0979 -0.1996  0.5219
  247SOL     ow  985   1.275   2.507   3.338 -0.8910  0.0976  0.4474
  247SOL     hw  986   1.322   2.575   3.387 -0.3183 -0.9186  1.3490
  247SOL     hw  987   1.205   2.554   3.294 -0.0260  1.4007  0.4006
  247SOL     vw  988   1.272   2.522   3.339 -0.7013  0.1355  0.5602
  248SOL     ow  989   0.817   0.971   2.473  0.2614  0.0740 -0.4487
  248SOL     hw  990   0.861   0.891   2.445 -0.8015  0.4179 -3.3973
  248SOL     hw  991   0.888   1.031   2.496  1.0888 -1.2967  0.7191
  248SOL     vw  992   0.832   0.969   2.473  0.2304 -0.0615 -0.6835
  249SOL     ow  993   0.867   0.534   4.938 -0.5458 -0.2741  0.4761
  249SOL     hw  994   0.911   0.489   4.866  2.0212 -0.8875  2.3025
  249SOL     hw  995   0.868   0.626   4.912 -0.7600 -0.6060 -0.7885
  249SOL     vw  996   0.873   0.540   4.925 -0.2353 -0.3988  0.5505
  250SOL     ow  997   2.270   3.012   2.805  0.6374  0.0479  0.1297
  250SOL     hw  998   2.316   2.987   2.724 -1.5143  1.7761 -1.7537
  250SOL     hw  999   2.202   2.945   2.816 -0.1136  0.6954 -0.4621
  250SOL     vw 1000   2.267   3.000   2.796  0.2544  0.3614 -0.1968
  251SOL     ow 1001   0.984   3.371   1.716  0.4398  0.1920 -0.2330
  251SOL     hw 1002   0.937   3.420   1.647 -1.2553 -2.0012 -0.7426
  251SOL     hw 1003   1.055   3.327   1.670  1.0309  0.9372 -0.0478
  251SOL     vw 1004   0.987   3.372   1.701  0.2941  0.0008 -0.2758
  252SOL     ow 1005   4.024   2.908   0.555  0.6688 -0.1568 -0.0005
  252SOL     hw 1006   4.034   2.831   0.611  0.5658 -1.6846 -1.9813
  252SOL     hw 1007   4.111   2.948   0.553  1.0190 -0.9024  0.1089
  252SOL     vw 1008   4.037   2.903   0.562  0.7014 -0.4567 -0.2474
  253SOL     ow 1009   4.638   1.769   3.303  0.1940  0.2482 -0.0363
  253SOL     hw 1010   4.630   1.821   3.223 -3.5887  1.2455  0.8116
  253SOL     hw 1011   4.681   1.827   3.365  0.9927  0.3091 -0.6172
  253SOL     vw 1012   4.643   1.783   3.300 -0.1996  0.3878 -0.0011
  254SOL     ow 1013   0.175   6.604   3.210 -0.1140  0.2514  0.0202
  254SOL     hw 1014   0.111   6.654   3.161 -0.5624 -0.2446  0.0891
  254SOL     hw 1015   0.177   6.645   3.296  0.4492  0.9298 -0.3126
  254SOL     vw 1016   0.167   6.616   3.215 -0.0989  0.2754 -0.0144
  255SOL     ow 1017   3.030   5.006   1.156 -0.2058 -0.2239 -0.2476
  255SOL     hw 1018   3.005   4.973   1.069  2.0472  0.5182 -1.2435
  255SOL     hw 1019   3.045   5.099   1.142 -2.7770  0.5893  1.6883
  255SOL     vw 1020   3.029   5.014   1.143 -0.2477 -0.0186 -0.1236
  256SOL     ow 1021   2.365   0.905   5.466  0.1261 -0.1644  0.4780
  256SOL     hw 1022   2.353   0.893   5.560 -1.3847  0.2303  0.3671
  256SOL     hw 1023   2.315   0.834   5.426 -0.8705  0.7839 -0.0290
  256SOL     vw 1024   2.356   0.894   5.473 -0.2048  0.0128  0.3965
  257SOL     ow 1025   2.898   6.417   2.490  0.3277 -0.0602 -0.2191
  257SOL     hw 1026   2.987   6.385   2.500  0.9922  1.4120 -1.1777
  257SOL     hw 1027   2.899   6.505   2.526 -1.0480 -0.4363  0.8328
  257SOL     vw 1028   2.910   6.424   2.496  0.2339  0.0846 -0.2067
  258SOL     ow 1029   2.873   1.642   3.785  0.1298  0.8009  0.0931
  258SOL     hw 1030   2.920   1.724   3.797  0.1046  0.7057  0.9691
  258SOL     hw 1031   2.940   1.579   3.759 -0.0127  1.2977 -1.6046
  258SOL     vw 1032   2.888   1.644   3.783  0.1075  0.8539 -0.0154
  259SOL     ow 1033   6.330   6.087   1.177  0.1545  0.0063  0.1899
  259SOL     hw 1034   6.244   6.071   1.138  0.4520  0.3433 -0.6412
  259SOL     hw 1035   6.337   6.182   1.179  0.3564 -0.0184  0.6037
  259SOL     vw 1036   6.319   6.097   1.172  0.2205  0.0472  0.1349
  260SOL     ow 1037   1.700   5.031   1.929 -0.0909  0.4494  0.7029
  260SOL     hw 1038   1.760   5.072   1.866 -1.4300 -0.2937 -1.1421
  260SOL     hw 1039   1.735   4.942   1.941  0.4866  0.7719  1.4907
  260SOL     vw 1040   1.713   5.024   1.922 -0.1915  0.3939  0.5635
  261SOL     ow 1041   3.798   3.839   0.730 -0.1564 -0.0338 -0.2444
  261SOL     hw 1042   3.830   3.848   0.640 -2.4362  0.5465 -1.0590
  261SOL     hw 1043   3.844   3.908   0.779  1.2085 -0.4404 -0.8968
  261SOL     vw 1044   3.808   3.849   0.725 -0.2773 -0.0110 -0.4379
  262SOL     ow 1045   6.623   4.755   0.570  0.0021  0.3762 -0.8088
  262SOL     hw 1046   6.533   4.741   0.540  0.7585 -2.5168 -2.0520
  262SOL     hw 1047   6.654   4.829   0.518 -1.6568  1.5195 -0.2625
  262SOL     vw 1048   6.615   4.763   0.559 -0.1171  0.1454 -0.9008
  263SOL     ow 1049   2.274   1.778   4.376 -0.2824 -0.4962  0.2269
  263SOL     hw 1050   2.330   1.753   4.450 -0.2873  2.7672  1.5080
  263SOL     hw 1051   2.324   1.846   4.330 -0.8360 -1.5521 -2.0921
  263SOL     vw 1052   2.288   1.784   4.380 -0.3561 -0.2049  0.0899
  264SOL     ow 1053   4.390   0.353   3.571 -0.9837  0.2058  0.3188
  264SOL     hw 1054   4.414   0.307   3.490 -0.1357  0.3543  0.4755
  264SOL     hw 1055   4.378   0.283   3.635 -1.5342  0.0949  0.0983
  264SOL     vw 1056   4.392   0.338   3.568 -0.9444  0.2108  0.3104
  265SOL     ow 1057   0.245   3.183   3.153 -0.0158 -0.0771  0.4357
  265SOL     hw 1058   0.166   3.146   3.192  0.3993 -0.6919  0.7178
  265SOL     hw 1059   0.230   3.278   3.153 -1.5012 -0.2616 -1.1704
  265SOL     vw 1060   0.233   3.191   3.158 -0.1570 -0.1825  0.2612
  266SOL     ow 1061   5.336   6.007   0.325  0.1418 -0.0567  0.2476
  266SOL     hw 1062   5.422   6.047   0.310  0.5883  0.0375  2.5762
  266SOL     hw 1063   5.346   5.916   0.296  1.4640 -0.3873  1.6039
  266SOL     vw 1064   5.349   6.000   0.319  0.3750 -0.0877  0.7337
  267SOL     ow 1065   5.781   2.926   0.844  0.1245 -0.4837  0.5549
  267SOL     hw 1066   5.807   2.834   0.835  0.3300 -0.2745 -1.6023
  267SOL     hw 1067   5.690   2.923   0.872  0.5355 -1.3116  1.8572
  267SOL     vw 1068   5.773   2.913   0.846  0.2058 -0.5654  0.4421
  268SOL     ow 1069   0.792   2.588   2.160  0.0590 -0.0404 -0.0100
  268SOL     hw 1070   0.757   2.624   2.242 -0.8772 -0.3788 -0.2473
  268SOL     hw 1071   0.884   2.614   2.160  0.3578 -0.9547  1.6842
  268SOL     vw 1072   0.799   2.596   2.171 -0.0251 -0.2058  0.1823
  269SOL     ow 1073   4.111   0.844   0.981 -0.1186 -0.5316 -0.2444
  269SOL     hw 1074   4.144   0.854   0.891  2.0307  1.2391  0.6217
  269SOL     hw 1075   4.162   0.772   1.017 -0.6289 -0.9144 -0.2784
  269SOL     vw 1076   4.122   0.836   0.974  0.0980 -0.3485 -0.1346
  270SOL     ow 1077   5.052   4.057   3.958  0.0278  0.1650  0.3145
  270SOL     hw 1078   5.005   4.140   3.948 -0.6841 -0.2523  0.1688
  270SOL     hw 1079   5.138   4.083   3.992 -0.0878  0.9864  0.0230
  270SOL     vw 1080   5.057   4.072   3.961 -0.0813  0.2182  0.2568
  271poe    c31 1081   2.443   1.866   5.789  0.4972  0.1377 -0.1032
  271poe     o2 1082   2.425   2.002   5.757 -0.0034  0.0298 -0.2855
  271poe    c23 1083   2.545   2.058   5.709 -0.1106  0.4433 -0.0715
  271poe    c23 1084   2.521   2.185   5.626 -0.4086  0.3243 -0.1683
  271poe     o2 1085   2.440   2.260   5.713  0.1642  0.4057  0.2992
  271poe    c23 1086   2.373   2.368   5.652 -0.3788 -0.2203 -0.2259
  271poe    c23 1087   2.232   2.375   5.713 -0.1290 -0.0347  0.3379
  271poe     o2 1088   2.201   2.250   5.769  0.2509 -0.4689 -0.4022
  271poe    c23 1089   2.075   2.245   5.832  0.0703 -1.1131 -0.8003
  271poe    c23 1090   2.036   2.096   5.842 -0.3445 -0.9745 -0.2977
  271poe     o2 1091   2.151   2.023   5.876 -0.1175 -0.4042  0.1802
  271poe    c31 1092   2.119   1.890   5.912 -0.2967 -0.4210 -0.0444
  272poe    c31 1093   1.993   5.657   3.205  0.2715  0.1444 -0.3963
  272poe     o2 1094   1.979   5.521   3.172 -0.3383  0.0746  0.1549
  272poe    c23 1095   2.107   5.470   3.145 -0.3993  0.1082 -0.2034
  272poe    c23 1096   2.086   5.322   3.107  0.1165 -0.0101 -0.0414
  272poe     o2 1097   1.972   5.283   3.181  0.1031  0.0457 -0.0322
  272poe    c23 1098   1.933   5.150   3.154 -0.2740  0.1739 -0.1250
  272poe    c23 1099   1.801   5.129   3.229 -0.1671  0.1967  0.0688
  272poe     o2 1100   1.705   5.227   3.195 -0.1349  0.1507 -0.1563
  272poe    c23 1101   1.578   5.202   3.251 -0.1911  0.1032 -0.3050
  272poe    c23 1102   1.470   5.299   3.201 -0.3875  0.1768  0.2530
  272poe     o2 1103   1.497   5.422   3.264  0.1666 -0.1058  0.5685
  272poe    c31 1104   1.406   5.527   3.240 -0.3207 -0.6316  0.1101
  273poe    c31 1105   3.553   1.706   3.623  0.1395 -0.0995  0.2427
  273poe     o2 1106   3.497   1.713   3.493  0.5543 -0.0462  0.0644
  273poe    c23 1107   3.597   1.656   3.412 -0.2421 -1.0436 -0.2380
  273poe    c23 1108   3.573   1.684   3.263 -0.3412  0.5606  0.0711
  273poe     o2 1109   3.433   1.669   3.254 -0.3254 -0.0664  0.7938
  273poe    c23 1110   3.386   1.737   3.139  0.0319 -0.4648  0.4063
  273poe    c23 1111   3.239   1.699   3.116 -0.0643  0.3172 -0.2995
  273poe     o2 1112   3.158   1.744   3.222  0.2124  0.2496 -0.0603
  273poe    c23 1113   3.033   1.679   3.225  0.1247  0.4263  0.2573
  273poe    c23 1114   2.966   1.657   3.361 -0.3346 -0.2739 -0.0778
  273poe     o2 1115   3.014   1.534   3.411  0.0459 -0.3343 -0.5851
  273poe    c31 1116   2.923   1.502   3.514  0.0015  0.6062 -0.3184
  274poe    c31 1117   6.127   1.043   3.815  0.1473 -0.5996 -0.8466
  274poe     o2 1118   6.106   0.949   3.711 -0.5379 -0.4997 -0.8054
  274poe    c23 1119   6.174   0.993   3.596  0.0840  0.4021 -0.1113
  274poe    c23 1120   6.162   0.899   3.475  0.7165 -0.2113  0.2984
  274poe     o2 1121   6.023   0.880   3.463  0.7244 -0.5021  0.6576
  274poe    c23 1122   5.992   0.754   3.407 -0.5222  0.3079 -0.5524
  274poe    c23 1123   5.847   0.722   3.448 -0.1517 -0.2081  0.3773
  274poe     o2 1124   5.844   0.744   3.588 -0.4991 -0.0210  0.3401
  274poe    c23 1125   5.720   0.722   3.652 -0.7604  0.5650  0.0425
  274poe    c23 1126   5.759   0.746   3.799 -0.0253  0.2998 -0.1047
  274poe     o2 1127   5.844   0.858   3.808  0.2320  0.0942  0.0278
  274poe    c31 1128   5.879   0.869   3.944 -0.5301 -0.2266  0.2594
  275poe    c31 1129   4.994   4.708   2.196  0.4953 -0.0000  0.3192
  275poe     o2 1130   5.077   4.605   2.243  0.3674 -0.4003 -0.3189
  275poe    c23 1131   5.185   4.594   2.152  0.3999  0.3081 -0.3650
  275poe    c23 1132   5.309   4.546   2.229  0.2055  0.2155 -0.1087
  275poe     o2 1133   5.259   4.455   2.324  0.2950 -0.4520 -0.6973
  275poe    c23 1134   5.366   4.400   2.397 -0.0928 -0.4332 -0.1140
  275poe    c23 1135   5.324   4.265   2.458  0.4916 -0.4116  0.3500
  275poe     o2 1136   5.208   4.283   2.535  0.2427 -0.0851 -0.0976
  275poe    c23 1137   5.160   4.152   2.550 -0.4038  0.1416 -0.1375
  275poe    c23 1138   5.052   4.132   2.659 -0.4463  0.9026 -0.0403
  275poe     o2 1139   5.109   4.138   2.788  0.2648  0.0112 -0.2995
  275poe    c31 1140   5.018   4.090   2.885  0.8279  0.0368  0.2432
  276poe    c31 1141   2.975   6.293   1.039 -0.3986 -0.1774 -0.3150
  276poe     o2 1142   3.048   6.370   1.132  0.4216 -0.4037 -0.7693
  276poe    c23 1143   3.007   6.353   1.266  0.1813  0.1074 -0.7789
  276poe    c23 1144   3.119   6.411   1.356 -0.0180  0.2278 -0.6071
  276poe     o2 1145   3.140   6.537   1.296 -0.0976  0.7335  0.4149
  276poe    c23 1146   3.240   6.611   1.362  0.4254  0.1619  0.2688
  276poe    c23 1147   3.271   6.721   1.259 -0.4118  0.0426 -0.1137
  276poe     o2 1148   3.256   6.654   1.136 -0.3178 -0.1851 -0.0011
  276poe    c23 1149   3.340   6.694   1.030  0.0895 -0.7476  0.1053
  276poe    c23 1150   3.253   6.671   0.905 -0.3869  0.5507  0.1769
  276poe     o2 1151   3.201   6.541   0.921  0.0194  0.3687  0.0407
  276poe    c31 1152   3.176   6.474   0.799 -0.0562  0.2478  0.1223
  277poe    c31 1153   1.352   4.615   4.343 -0.0177 -0.2671 -0.2229
  277poe     o2 1154   1.440   4.514   4.299 -0.0591 -0.4924  0.1967
  277poe    c23 1155   1.501   4.445   4.405  0.1639 -0.2176  0.2513
  277poe    c23 1156   1.610   4.355   4.345  0.1602 -0.1319  0.1150
  277poe     o2 1157   1.682   4.439   4.258  0.1517 -0.5263 -0.2733
  277poe    c23 1158   1.761   4.353   4.179  0.0084 -0.6448 -0.2871
  277poe    c23 1159   1.782   4.427   4.046 -0.0018 -0.2137 -0.0501
  277poe     o2 1160   1.650   4.469   4.018  0.0620  0.0857  0.1053
  277poe    c23 1161   1.646   4.560   3.910  0.4702 -0.3334 -0.2664
  277poe    c23 1162   1.498   4.602   3.898  0.5204 -0.0319  0.1107
  277poe     o2 1163   1.424   4.596   4.017 -0.0501  0.4685 -0.2123
  277poe    c31 1164   1.286   4.573   4.001  0.0464 -0.1152 -0.2162
  278poe    c31 1165   6.406   4.036   6.565  0.0022  0.6920  0.1126
  278poe     o2 1166   6.423   3.960   6.683  0.1393  0.0767 -0.3006
  278poe    c23 1167   6.303   3.930   6.750  0.4741 -0.0783  0.2331
  278poe    c23 1168   6.347   3.844   6.870  0.1019 -0.1742  0.3020
  278poe     o2 1169   6.402   3.720   6.832  0.7662  0.2532 -0.1537
  278poe    c23 1170   6.527   3.709   6.895  0.8725  0.0722 -0.3992
  278poe    c23 1171   6.560   3.560   6.914  0.4043  0.0689  0.4341
  278poe     o2 1172   6.562   3.501   6.786 -0.4203  0.5627  0.1910
  278poe    c23 1173   6.547   3.361   6.790  0.3944  0.4724  0.1680
  278poe    c23 1174   6.596   3.294   6.660 -0.7047  0.1963 -0.1119
  278poe     o2 1175   6.541   3.367   6.553 -0.3768  0.2684 -0.2334
  278poe    c31 1176   6.544   3.289   6.436 -0.2249 -0.2721  0.1329
  279poe    c31 1177   1.955   0.772   2.109 -0.3851  0.0117 -0.5335
  279poe     o2 1178   1.827   0.831   2.121 -0.1881  0.3317  0.0425
  279poe    c23 1179   1.825   0.891   2.249 -0.6857 -0.4281  0.4048
  279poe    c23 1180   1.728   1.009   2.231 -0.1273  0.1321  1.0205
  279poe     o2 1181   1.616   0.946   2.174  0.0675  0.0675  0.7012
  279poe    c23 1182   1.509   1.036   2.157 -0.0785 -0.0760  0.8555
  279poe    c23 1183   1.383   0.970   2.098  0.2650  0.3077 -0.3332
  279poe     o2 1184   1.429   0.896   1.987  0.0590 -0.1980 -0.0849
  279poe    c23 1185   1.386   0.762   1.990 -0.1883 -0.1111  0.6298
  279poe    c23 1186   1.484   0.673   1.910 -0.5731 -0.3813  0.4531
  279poe     o2 1187   1.616   0.694   1.956 -0.2669 -0.2296 -0.4790
  279poe    c31 1188   1.704   0.632   1.865  0.8939 -0.0828  0.5214
  280poe    c31 1189   2.717   4.702   5.211 -0.6502  0.1929 -0.2938
  280poe     o2 1190   2.697   4.766   5.335 -0.6316 -0.0434 -0.1693
  280poe    c23 1191   2.803   4.850   5.372 -0.5166 -0.3367  0.1804
  280poe    c23 1192   2.766   4.922   5.503 -0.2484  0.0922  0.0245
  280poe     o2 1193   2.687   4.832   5.578 -0.8603  0.2398 -0.4349
  280poe    c23 1194   2.612   4.896   5.680 -0.0958 -0.2960  0.4818
  280poe    c23 1195   2.513   4.800   5.749 -0.2390 -0.2810  0.2986
  280poe     o2 1196   2.439   4.741   5.644 -0.0303 -0.4293  0.2337
  280poe    c23 1197   2.309   4.703   5.684 -0.1264 -0.5285 -0.1673
  280poe    c23 1198   2.220   4.644   5.574 -0.4536  0.4936 -0.4648
  280poe     o2 1199   2.181   4.734   5.473 -0.2353  0.6962 -0.3682
  280poe    c31 1200   2.076   4.687   5.392  0.3583 -0.3810 -0.5340
  281poe    c31 1201   1.832   1.004   0.055  0.8654 -0.0265 -0.3060
  281poe     o2 1202   1.772   0.903  -0.022  0.0452  0.0786  0.1816
  281poe    c23 1203   1.853   0.863  -0.130 -0.1258 -0.7126  0.3406
  281poe    c23 1204   1.762   0.777  -0.219 -0.2108 -0.0097 -0.2563
  281poe     o2 1205   1.711   0.682  -0.128  0.1272 -0.0874 -0.1459
  281poe    c23 1206   1.619   0.601  -0.198 -0.3061  0.4069 -0.1620
  281poe    c23 1207   1.591   0.480  -0.106 -0.2297  0.5457  0.0461
  281poe     o2 1208   1.524   0.540   0.001 -0.3638  0.0424  0.2460
  281poe    c23 1209   1.436   0.444   0.056 -0.0192 -0.1926  0.3934
  281poe    c23 1210   1.354   0.517   0.164  0.9154  0.3934  0.7189
  281poe     o2 1211   1.275   0.623   0.114  0.1276 -0.3587  0.3443
  281poe    c31 1212   1.175   0.656   0.207  0.0549 -0.2536  0.2289
  282poe    c31 1213   0.162   1.919   5.667 -0.0702  0.0550  0.5546
  282poe     o2 1214   0.246   2.008   5.598 -0.5028  0.2070  0.2209
  282poe    c23 1215   0.327   1.929   5.514 -0.7233  0.3274 -0.1051
  282poe    c23 1216   0.419   2.016   5.427 -0.7291  0.6422  0.2007
  282poe     o2 1217   0.455   2.129   5.502 -0.0387  0.9054 -0.5095
  282poe    c23 1218   0.477   2.246   5.426 -0.1419  1.0633 -0.2972
  282poe    c23 1219   0.487   2.355   5.535  0.7337  0.1266  0.5847
  282poe     o2 1220   0.384   2.321   5.626 -0.3052  0.5763 -0.3947
  282poe    c23 1221   0.376   2.423   5.723 -0.0414 -0.3457  0.6129
  282poe    c23 1222   0.287   2.356   5.830 -0.8197  0.5914  0.5667
  282poe     o2 1223   0.307   2.217   5.823  0.0945  0.7456 -0.0525
  282poe    c31 1224   0.237   2.143   5.921  0.1590 -0.0188 -0.5721
  283poe    c31 1225   1.397   1.207   4.322 -0.1703 -0.0312 -0.0355
  283poe     o2 1226   1.378   1.172   4.457  0.1182 -0.0861 -0.0096
  283poe    c23 1227   1.348   1.037   4.484  0.4928 -0.1627  0.0206
  283poe    c23 1228   1.385   1.011   4.631  0.0485 -0.3386  0.1009
  283poe     o2 1229   1.329   1.119   4.702  0.1138 -0.3937  0.2378
  283poe    c23 1230   1.276   1.091   4.830  0.0667 -0.1520  0.2720
  283poe    c23 1231   1.257   1.214   4.920 -0.0404  0.3182 -0.3825
  283poe     o2 1232   1.214   1.330   4.852 -0.4742  0.1779 -0.3509
  283poe    c23 1233   1.167   1.429   4.941  0.0794 -0.1469  0.3130
  283poe    c23 1234   1.094   1.532   4.853  0.1989 -0.6626 -0.3987
  283poe     o2 1235   1.191   1.591   4.770 -0.2485  0.1235 -0.3762
  283poe    c31 1236   1.123   1.667   4.673  0.0826  0.5819 -0.2489
  284poe    c31 1237   0.548   5.548   6.450 -0.3321  0.1282 -0.2666
  284poe     o2 1238   0.420   5.497   6.478 -0.4348  0.3637 -0.3046
  284poe    c23 1239   0.325   5.574   6.408 -0.1653  0.3071 -0.7342
  284poe    c23 1240   0.185   5.532   6.457  0.2699  0.2203  0.4531
  284poe     o2 1241   0.187   5.394   6.485  0.1364  0.0479 -0.3757
  284poe    c23 1242   0.074   5.343   6.552  0.4259 -0.1004 -0.0025
  284poe    c23 1243   0.115   5.196   6.575 -0.0327 -0.2373 -0.0650
  284poe     o2 1244   0.241   5.192   6.638  0.2033  0.6130 -0.4740
  284poe    c23 1245   0.311   5.071   6.655  0.0695  0.6229  0.1814
  284poe    c23 1246   0.442   5.093   6.733  0.2379 -0.1743  0.1381
  284poe     o2 1247   0.518   5.194   6.670 -0.6470  0.3818 -0.0742
  284poe    c31 1248   0.639   5.200   6.743 -0.3451  0.0078 -0.5362
  285poe    c31 1249   3.514   0.086   0.062  0.6119 -0.1421  0.2484
  285poe     o2 1250   3.396   0.150   0.105  0.5687 -0.1258  0.1040
  285poe    c23 1251   3.414   0.282   0.150  0.1835 -0.1391  0.3024
  285poe    c23 1252   3.280   0.326   0.212  0.1494  0.5582 -0.2615
  285poe     o2 1253   3.174   0.319   0.119  0.2345  0.3247 -0.3427
  285poe    c23 1254   3.054   0.364   0.177  0.2025 -0.1013 -0.0813
  285poe    c23 1255   2.950   0.410   0.073 -0.1641 -0.0192  0.3185
  285poe     o2 1256   2.952   0.298  -0.013 -0.1771 -0.1733  0.5167
  285poe    c23 1257   2.847   0.317  -0.105  0.0403 -0.3515  0.2326
  285poe    c23 1258   2.887   0.219  -0.217  0.6224  0.0487  0.0902
  285poe     o2 1259   3.025   0.227  -0.244  0.5983  0.1089 -0.0169
  285poe    c31 1260   3.052   0.150  -0.359  0.4136  0.2209 -0.1355
  286poe    c31 1261   5.239   4.957   0.633 -0.3274 -0.1907  0.2689
  286poe     o2 1262   5.177   4.960   0.507  0.3386 -0.3391 -0.0651
  286poe    c23 1263   5.081   4.857   0.514 -0.5909  0.4958 -0.2277
  286poe    c23 1264   4.983   4.885   0.399 -0.7214 -0.7096 -0.4266
  286poe     o2 1265   5.052   4.902   0.278 -0.2055 -0.0785 -0.0519
  286poe    c23 1266   4.981   4.967   0.174  0.0629 -0.1509 -0.2820
  286poe    c23 1267   5.017   5.116   0.184  0.2316 -0.2268  0.2756
  286poe     o2 1268   5.156   5.133   0.201  0.1229  0.5756  0.4243
  286poe    c23 1269   5.192   5.267   0.227  0.6436  0.5366 -0.0530
  286poe    c23 1270   5.340   5.267   0.269  0.7605 -0.7069 -0.4294
  286poe     o2 1271   5.343   5.182   0.382 -0.5183  0.0169  0.1644
  286poe    c31 1272   5.474   5.190   0.432 -0.3606  0.1057 -0.2570
  287poe    c31 1273   2.870   5.395   6.066  0.1946  0.1738  0.4948
  287poe     o2 1274   2.857   5.369   5.928  0.4271 -0.1782  0.5399
  287poe    c23 1275   2.909   5.241   5.896  0.1798 -0.1107 -0.1425
  287poe    c23 1276   2.865   5.215   5.751 -0.7955  0.0330  0.1196
  287poe     o2 1277   2.902   5.331   5.679  0.0650 -0.2332  0.1161
  287poe    c23 1278   2.873   5.340   5.541  0.3574  0.1583  0.0780
  287poe    c23 1279   2.919   5.483   5.510  1.2996 -0.0684  0.4205
  287poe     o2 1280   2.906   5.560   5.628  0.1059 -0.3271  0.4625
  287poe    c23 1281   2.870   5.694   5.609 -0.0632 -0.3721  0.4648
  287poe    c23 1282   2.888   5.772   5.741 -0.4404  0.5541 -0.0176
  287poe     o2 1283   2.845   5.688   5.845  0.5602  0.2130  0.1362
  287poe    c31 1284   2.829   5.774   5.956 -0.2110 -0.1098  0.2812
  288poe    c31 1285   6.658   1.675   2.328  0.0836  0.5059 -0.0561
  288poe     o2 1286   6.781   1.691   2.395  0.1286 -0.1504  0.0250
  288poe    c23 1287   6.756   1.762   2.514 -0.0812 -0.7322  0.3318
  288poe    c23 1288   6.886   1.741   2.594  0.3805  0.3209 -0.1259
  288poe     o2 1289   6.990   1.802   2.521  0.1706  0.5535 -0.2323
  288poe    c23 1290   7.116   1.811   2.583  0.0372 -0.4827  0.2162
  288poe    c23 1291   7.202   1.910   2.503 -0.3288 -0.2875  0.0626
  288poe     o2 1292   7.242   1.858   2.378  0.3228  0.0364  0.1336
  288poe    c23 1293   7.283   1.963   2.293 -0.5269  0.2318 -0.0379
  288poe    c23 1294   7.354   1.893   2.176  0.0493  0.2429  0.3041
  288poe     o2 1295   7.268   1.796   2.119  0.1882  0.3279 -0.0530
  288poe    c31 1296   7.332   1.743   2.006 -0.1142  0.4426 -0.2777
  289poe    c31 1297   2.414   0.164   5.503  0.0170 -0.2130  0.1457
  289poe     o2 1298   2.433   0.095   5.624 -0.8342  0.1029  0.4642
  289poe    c23 1299   2.449  -0.044   5.604 -0.3237  0.1874  0.2579
  289poe    c23 1300   2.454  -0.127   5.734  0.4095 -0.2949 -0.0742
  289poe     o2 1301   2.548  -0.055   5.812 -0.2320  0.2619  0.2047
  289poe    c23 1302   2.551  -0.098   5.946  0.1679  0.2502  0.1949
  289poe    c23 1303   2.653   0.000   6.007  0.4191  0.0028  0.1746
  289poe     o2 1304   2.629   0.132   5.962  0.3421  0.0382  0.3195
  289poe    c23 1305   2.555   0.216   6.048 -0.4781 -0.3596  0.0143
  289poe    c23 1306   2.487   0.334   5.977 -0.3310 -0.3656 -0.1373
  289poe     o2 1307   2.442   0.298   5.849  0.1831 -0.0479 -0.4129
  289poe    c31 1308   2.347   0.385   5.792  0.2081  0.5129  0.3918
  290poe    c31 1309   4.682   0.250   4.603 -0.6771 -0.0710  0.2184
  290poe     o2 1310   4.673   0.167   4.717  0.2456 -0.2364  0.1808
  290poe    c23 1311   4.671   0.031   4.681 -0.3338 -0.1649 -0.0719
  290poe    c23 1312   4.666  -0.058   4.807  0.1830 -0.2024 -0.0763
  290poe     o2 1313   4.734   0.010   4.911 -0.0404  0.0681 -0.1062
  290poe    c23 1314   4.714  -0.046   5.039  0.4980  0.5686  0.1956
  290poe    c23 1315   4.767   0.049   5.149  0.4361  0.4251  0.3484
  290poe     o2 1316   4.730   0.179   5.109 -0.1084  0.0442 -0.4295
  290poe    c23 1317   4.831   0.272   5.142 -0.2079  0.0472 -0.1319
  290poe    c23 1318   4.803   0.401   5.062  0.1130  0.0451 -0.2470
  290poe     o2 1319   4.790   0.388   4.923 -0.2177 -0.0384 -0.2081
  290poe    c31 1320   4.781   0.517   4.866  0.4719  0.0341 -0.1562
  291poe    c31 1321   0.892   4.563   1.261 -0.8096  0.4741  0.3529
  291poe     o2 1322   0.782   4.510   1.190 -0.5006 -0.0923  0.2936
  291poe    c23 1323   0.673   4.513   1.279 -0.2253  0.4080  0.6208
  291poe    c23 1324   0.540   4.476   1.210  0.3360  0.1505 -0.3440
  291poe     o2 1325   0.565   4.529   1.081  0.2698  0.0490 -0.3983
  291poe    c23 1326   0.457   4.493   0.998  0.1461  0.2104 -0.3075
  291poe    c23 1327   0.502   4.481   0.851 -0.0959  0.5990 -0.4162
  291poe     o2 1328   0.619   4.403   0.838 -0.5069 -0.1731  0.4260
  291poe    c23 1329   0.626   4.263   0.855  0.0320 -0.1719  0.2222
  291poe    c23 1330   0.777   4.236   0.868  0.0496  0.0543  0.4941
  291poe     o2 1331   0.820   4.314   0.978 -0.1844  0.1051  0.5490
  291poe    c31 1332   0.955   4.281   0.998 -0.1965 -0.3868 -0.1494
  292poe    c31 1333   2.118   3.847   3.861 -0.1907  0.2733 -0.0524
  292poe     o2 1334   2.028   3.927   3.935  0.2254  0.1902  0.5524
  292poe    c23 1335   1.933   3.999   3.860  0.1805 -0.0750  0.3521
  292poe    c23 1336   1.792   4.002   3.921  0.1111 -0.3169  0.2043
  292poe     o2 1337   1.774   4.040   4.056 -0.6786  0.2916 -0.0597
  292poe    c23 1338   1.680   3.948   4.106  0.2089 -0.4126  0.3513
  292poe    c23 1339   1.736   3.880   4.232  0.5712  0.0315  0.4308
  292poe     o2 1340   1.843   3.790   4.211 -0.2448 -0.7043 -0.7188
  292poe    c23 1341   1.879   3.728   4.333  0.3580  0.3953 -0.3186
  292poe    c23 1342   2.007   3.648   4.301 -0.0347 -0.2128 -0.3917
  292poe     o2 1343   2.071   3.717   4.197 -0.5668  0.1745 -0.4641
  292poe    c31 1344   2.207   3.686   4.180 -0.5457  0.0324 -0.0311
  293poe    c31 1345   0.801   0.076   4.433 -0.0297 -0.0541 -0.8728
  293poe     o2 1346   0.661   0.066   4.444  0.0797 -0.2036  0.6999
  293poe    c23 1347   0.609   0.006   4.327  0.2811  0.7399  0.1156
  293poe    c23 1348   0.463  -0.012   4.374  0.3177 -0.0725 -0.0766
  293poe     o2 1349   0.423   0.104   4.443  0.4892 -0.4128  0.6051
  293poe    c23 1350   0.295   0.095   4.502 -0.1485  0.5337 -0.5860
  293poe    c23 1351   0.248   0.240   4.524 -0.0976  0.4173  0.3285
  293poe     o2 1352   0.334   0.309   4.612  0.4018  0.1597  0.0427
  293poe    c23 1353   0.287   0.440   4.635 -0.2829 -0.0515 -0.1353
  293poe    c23 1354   0.377   0.530   4.723 -0.0019 -0.1080 -0.3628
  293poe     o2 1355   0.507   0.532   4.669  0.0739 -0.0946 -0.1815
  293poe    c31 1356   0.592   0.608   4.752  0.1200 -0.5459  0.1865
  294poe    c31 1357   2.461   3.504   4.647  0.6789  0.0976  0.2318
  294poe     o2 1358   2.389   3.563   4.753 -0.0419  0.1661 -0.2993
  294poe    c23 1359   2.334   3.462   4.835  0.8125  0.0457  0.1280
  294poe    c23 1360   2.255   3.528   4.950  0.3497 -0.4576  0.0987
  294poe     o2 1361   2.321   3.639   5.006 -0.3419 -0.1803  0.3761
  294poe    c23 1362   2.240   3.747   5.046 -0.0707  0.0285  0.3670
  294poe    c23 1363   2.324   3.875   5.036  0.4165 -0.2576  0.7883
  294poe     o2 1364   2.404   3.869   4.920 -0.0191  0.4240  0.4456
  294poe    c23 1365   2.484   3.985   4.910 -0.0752  0.4202 -0.1285
  294poe    c23 1366   2.540   3.990   4.767  0.6996  0.1563  0.1600
  294poe     o2 1367   2.519   3.860   4.716 -0.0282  0.3943 -0.1639
  294poe    c31 1368   2.596   3.853   4.598 -0.4819 -0.2799 -0.4251
  295poe    c31 1369   3.743   2.011   5.148 -0.1279 -0.1693  0.0681
  295poe     o2 1370   3.731   2.000   5.288  0.1001  0.2927  0.1260
  295poe    c23 1371   3.847   1.941   5.342  0.0155 -0.2753 -0.3015
  295poe    c23 1372   3.825   1.903   5.490  0.0152  0.2139 -0.1736
  295poe     o2 1373   3.722   1.987   5.536 -0.2512 -0.2665  0.1200
  295poe    c23 1374   3.680   1.948   5.665  0.1355  0.0288  0.3372
  295poe    c23 1375   3.565   2.042   5.706  0.5169  0.5145  0.3150
  295poe     o2 1376   3.501   2.069   5.583  0.1346  0.2511  0.4536
  295poe    c23 1377   3.376   2.135   5.591  0.1953  0.4825 -0.4088
  295poe    c23 1378   3.325   2.125   5.446 -0.2144 -0.4064 -0.2101
  295poe     o2 1379   3.432   2.134   5.355 -0.2442  0.0116 -0.2036
  295poe    c31 1380   3.387   2.140   5.222 -0.6385  0.5613 -0.0479
  296poe    c31 1381   5.019   6.046   1.050 -0.4394 -0.0748 -0.1407
  296poe     o2 1382   5.058   5.971   0.937 -0.0123 -0.0112 -0.0387
  296poe    c23 1383   5.033   5.833   0.956  0.1071  0.0039  0.2246
  296poe    c23 1384   5.142   5.754   1.031  0.1573 -0.2203 -0.0876
  296poe     o2 1385   5.276   5.744   0.987  0.1810 -0.2084 -0.0170
  296poe    c23 1386   5.350   5.706   1.101  0.1520  0.3236  0.1844
  296poe    c23 1387   5.485   5.648   1.055 -0.2320 -0.0879 -0.4425
  296poe     o2 1388   5.531   5.736   0.955  0.2019  0.9448  0.6299
  296poe    c23 1389   5.666   5.702   0.935 -0.1563 -0.0979 -0.1949
  296poe    c23 1390   5.733   5.815   0.854  0.0218  0.0913  0.2085
  296poe     o2 1391   5.659   5.856   0.741 -0.0018 -0.3048  0.0766
  296poe    c31 1392   5.721   5.815   0.622  0.4184  0.5884 -0.0248
  297poe    c31 1393   3.589   3.622   5.309 -0.1689  0.5722  0.4233
  297poe     o2 1394   3.618   3.556   5.430 -0.9020  0.2433  0.4289
  297poe    c23 1395   3.749   3.571   5.481 -0.6714 -0.3584  0.0269
  297poe    c23 1396   3.743   3.502   5.618  0.3133 -0.0357  0.2382
  297poe     o2 1397   3.618   3.517   5.681  0.2123  0.1442 -0.0039
  297poe    c23 1398   3.613   3.446   5.803  0.2948  0.8169  0.3982
  297poe    c23 1399   3.464   3.465   5.834  0.1070  0.5629 -0.3399
  297poe     o2 1400   3.384   3.436   5.721 -0.2542  0.1548  0.0176
  297poe    c23 1401   3.256   3.494   5.717 -0.2526  0.1466 -0.1542
  297poe    c23 1402   3.206   3.487   5.571 -0.4311  0.0751 -0.0912
  297poe     o2 1403   3.316   3.505   5.484 -0.4363 -0.8901 -0.2977
  297poe    c31 1404   3.269   3.557   5.361  0.0179 -0.0171 -0.1036
  298poe    c31 1405   2.093   6.691   5.584 -0.3208  0.4765  0.0256
  298poe     o2 1406   2.033   6.674   5.710 -0.0783  0.1704  0.1005
  298poe    c23 1407   1.972   6.795   5.747  0.0953  0.2919 -0.0107
  298poe    c23 1408   1.841   6.767   5.825  0.0387  0.3434 -0.0868
  298poe     o2 1409   1.728   6.739   5.746 -0.0364 -0.0329  0.1510
  298poe    c23 1410   1.664   6.864   5.732 -0.0908 -0.1249 -0.4479
  298poe    c23 1411   1.520   6.835   5.686 -0.1307 -0.1243 -0.3247
  298poe     o2 1412   1.464   6.728   5.759  0.2393 -0.2362 -0.2056
  298poe    c23 1413   1.335   6.698   5.713 -0.0738  0.5092  0.1746
  298poe    c23 1414   1.297   6.572   5.793 -0.4131  0.2410 -0.4034
  298poe     o2 1415   1.404   6.488   5.757 -0.0908  0.3255  0.3448
  298poe    c31 1416   1.358   6.357   5.778 -0.4892  0.4118  0.0264
  299poe    c31 1417   1.738   2.177   5.401  0.3402 -0.7271 -0.3358
  299poe     o2 1418   1.631   2.202   5.313  0.5572 -0.5392 -0.5474
  299poe    c23 1419   1.656   2.317   5.236  0.1618 -0.1847 -0.1483
  299poe    c23 1420   1.552   2.324   5.123 -0.2061 -0.7840  0.1493
  299poe     o2 1421   1.564   2.244   5.008  0.6106 -0.4964  0.0292
  299poe    c23 1422   1.633   2.307   4.902 -0.1860  0.1294 -0.1309
  299poe    c23 1423   1.605   2.228   4.773 -0.3587  0.1947 -0.1330
  299poe     o2 1424   1.629   2.095   4.813  0.2606  0.3702  0.0828
  299poe    c23 1425   1.593   2.013   4.704  0.1917  0.4106  0.0754
  299poe    c23 1426   1.537   1.881   4.761 -0.2594  0.5147 -0.1200
  299poe     o2 1427   1.445   1.920   4.861 -0.3247  0.0518  0.0025
  299poe    c31 1428   1.354   1.813   4.862  0.0035 -0.2373 -0.5443
  300poe    c31 1429   6.557   2.634   4.042 -0.0697 -0.1793  0.2542
  300poe     o2 1430   6.674   2.561   4.012  0.1076  0.2530 -0.1249
  300poe    c23 1431   6.648   2.445   3.935  0.5198  0.2728 -0.2966
  300poe    c23 1432   6.778   2.363   3.934  0.1437 -0.3364  0.0427
  300poe     o2 1433   6.851   2.367   4.054  0.5604  0.4992 -0.2257
  300poe    c23 1434   6.982   2.314   4.054  0.0963 -0.6894 -0.0907
  300poe    c23 1435   7.047   2.356   4.187 -0.2485  0.3850 -0.2517
  300poe     o2 1436   7.024   2.495   4.181 -0.0773  0.4257  0.0174
  300poe    c23 1437   7.044   2.563   4.303 -0.0957  0.2435  0.1217
  300poe    c23 1438   6.980   2.699   4.272  0.1668  0.3321 -0.0365
  300poe     o2 1439   6.847   2.687   4.227  0.0960  0.0981  0.2319
  300poe    c31 1440   6.778   2.810   4.234 -0.6277 -0.2637 -0.4316
  301poe    c31 1441   0.581   3.935   2.742  0.1131  0.1204  0.4414
  301poe     o2 1442   0.690   3.845   2.743 -0.2449 -0.3285  0.1171
  301poe    c23 1443   0.696   3.772   2.623  0.4135  0.2463 -0.2094
  301poe    c23 1444   0.844   3.750   2.584  0.5296 -0.0159  0.3711
  301poe     o2 1445   0.889   3.714   2.713  0.1803  0.1628  0.5459
  301poe    c23 1446   1.028   3.696   2.721  0.2715  0.4443 -0.2704
  301poe    c23 1447   1.064   3.659   2.866 -0.0840  0.0337 -0.2846
  301poe     o2 1448   0.991   3.750   2.946 -0.1232 -0.2535  0.0100
  301poe    c23 1449   0.980   3.699   3.077  0.3464  0.6264  0.4061
  301poe    c23 1450   0.869   3.776   3.151 -0.8218 -0.5428 -0.0758
  301poe     o2 1451   0.772   3.800   3.052  0.0102  0.4918 -0.6606
  301poe    c31 1452   0.643   3.811   3.109  0.2728 -0.1332  0.0669
  302poe    c31 1453   1.856   5.878   1.142 -0.4191 -0.4622 -0.0280
  302poe     o2 1454   1.958   5.937   1.219 -0.5722  0.2066 -0.3287
  302poe    c23 1455   2.077   5.862   1.202 -0.4433  0.3930 -0.2458
  302poe    c23 1456   2.198   5.937   1.262  0.0212 -0.9341  0.5044
  302poe     o2 1457   2.134   6.008   1.366  0.3172  0.2336 -0.1011
  302poe    c23 1458   2.220   6.081   1.451  0.2433  0.3991 -0.1680
  302poe    c23 1459   2.128   6.128   1.566 -0.3164  0.2705 -0.5548
  302poe     o2 1460   2.009   6.166   1.501 -0.6614 -0.1002 -0.1406
  302poe    c23 1461   1.907   6.207   1.589 -0.2006  0.8193 -0.0232
  302poe    c23 1462   1.793   6.242   1.492 -0.2564 -0.0590 -0.2828
  302poe     o2 1463   1.777   6.122   1.419 -0.0801 -0.3264  0.1161
  302poe    c31 1464   1.650   6.116   1.358 -0.0053 -0.3845 -0.0325
  303poe    c31 1465   6.045   3.570   4.556  0.4034  1.0809 -0.3673
  303poe     o2 1466   5.981   3.602   4.435 -0.7754 -0.0257 -0.0614
  303poe    c23 1467   6.011   3.502   4.340 -0.1381  0.0083  0.1012
  303poe    c23 1468   5.898   3.485   4.238  0.3525 -0.4205 -0.3722
  303poe     o2 1469   5.861   3.614   4.197  0.2744 -0.2242  0.3127
  303poe    c23 1470   5.773   3.608   4.087  0.7171 -0.0494 -0.0518
  303poe    c23 1471   5.750   3.754   4.043  0.0550  0.0082  0.4804
  303poe     o2 1472   5.738   3.840   4.155 -0.5735  0.1282  0.3231
  303poe    c23 1473   5.699   3.970   4.118  0.1124  0.3147  0.2407
  303poe    c23 1474   5.680   4.070   4.233 -0.0844 -0.0491  0.5253
  303poe     o2 1475   5.793   4.078   4.318  0.1245 -0.3809  0.2822
  303poe    c31 1476   5.760   4.153   4.433 -0.0760  0.3049 -0.2119
  304poe    c31 1477   3.928   2.091   3.410 -0.1062 -0.0894  0.5201
  304poe     o2 1478   3.990   2.147   3.524  0.3637  0.7824 -0.1512
  304poe    c23 1479   4.121   2.095   3.514  0.0408 -0.0188 -0.2799
  304poe    c23 1480   4.176   2.115   3.657 -0.2082  0.3111 -0.2289
  304poe     o2 1481   4.123   2.231   3.717  0.4514  0.5088 -0.0286
  304poe    c23 1482   4.157   2.235   3.853  0.5374  0.1100 -0.0370
  304poe    c23 1483   4.158   2.378   3.912  0.2248 -0.0817  0.4411
  304poe     o2 1484   4.031   2.435   3.891  0.1763 -0.2983  0.1268
  304poe    c23 1485   4.030   2.566   3.944  0.2258 -0.3992  0.3820
  304poe    c23 1486   3.884   2.614   3.945  0.3638  0.0887 -0.6572
  304poe     o2 1487   3.795   2.528   4.013  0.3369  0.3538 -0.3532
  304poe    c31 1488   3.662   2.573   4.001 -0.0652 -0.7635 -0.1915
  305poe    c31 1489   2.316   2.269   4.668  0.2872 -0.1362  0.1943
  305poe     o2 1490   2.352   2.398   4.623 -0.1427 -0.1337 -0.1449
  305poe    c23 1491   2.254   2.439   4.530  0.1104  0.4341 -0.1601
  305poe    c23 1492   2.298   2.584   4.498  0.1405  0.5142  0.2404
  305poe     o2 1493   2.423   2.574   4.434 -0.2320 -0.2634 -0.3821
  305poe    c23 1494   2.479   2.701   4.409  0.0160 -0.2173  0.3886
  305poe    c23 1495   2.631   2.673   4.409  0.1033  0.2270 -0.3021
  305poe     o2 1496   2.678   2.582   4.506 -0.6666 -0.3271 -0.4408
  305poe    c23 1497   2.818   2.592   4.492 -0.6296 -0.3215 -0.0880
  305poe    c23 1498   2.896   2.515   4.599  0.0274  0.1540 -0.2153
  305poe     o2 1499   2.884   2.375   4.584  0.0137  0.0948  0.3332
  305poe    c31 1500   2.980   2.306   4.660  0.4626 -0.0591 -0.3678
  306poe    c31 1501   3.416   2.372   0.144 -0.1564 -0.2800 -0.5208
  306poe     o2 1502   3.555   2.382   0.124 -0.0847  0.0047  0.0866
  306poe    c23 1503   3.630   2.368   0.243  0.3010 -0.2981 -0.1875
  306poe    c23 1504   3.776   2.401   0.208  0.3503  0.0551  0.3450
  306poe     o2 1505   3.777   2.479   0.091 -0.0714 -0.0134  0.2951
  306poe    c23 1506   3.911   2.511   0.062  0.0425 -0.4720  0.3127
  306poe    c23 1507   3.889   2.584  -0.072 -0.1710 -0.7413  0.1999
  306poe     o2 1508   3.771   2.544  -0.139 -0.1637 -0.0815 -0.2152
  306poe    c23 1509   3.719   2.642  -0.226 -0.3712 -0.0571 -0.0657
  306poe    c23 1510   3.572   2.604  -0.250 -0.4157 -0.1363  0.3287
  306poe     o2 1511   3.521   2.560  -0.126 -0.3399 -0.3875  0.2704
  306poe    c31 1512   3.383   2.537  -0.143 -0.1771 -1.3882  0.2074
  307poe    c31 1513   4.951   4.968   3.014 -0.2954 -0.0062 -0.0917
  307poe     o2 1514   4.867   5.047   3.095 -0.2906  0.1614 -0.2499
  307poe    c23 1515   4.936   5.063   3.217 -0.3508 -0.1147 -0.1808
  307poe    c23 1516   4.845   5.147   3.308 -0.2044 -0.1980  0.0431
  307poe     o2 1517   4.713   5.105   3.281 -0.0555 -0.4203 -0.3338
  307poe    c23 1518   4.607   5.164   3.353  0.1346 -0.1607 -0.2651
  307poe    c23 1519   4.474   5.099   3.309 -0.0257 -0.0122  0.0029
  307poe     o2 1520   4.463   5.094   3.169 -0.4034 -0.0575  0.0334
  307poe    c23 1521   4.387   4.984   3.124 -0.3508 -0.4307  0.8380
  307poe    c23 1522   4.465   4.851   3.125  0.0387 -0.2161  0.0858
  307poe     o2 1523   4.598   4.887   3.096 -0.2000  0.3231 -0.3639
  307poe    c31 1524   4.662   4.774   3.040  0.1433  0.0660  0.5331
  308poe    c31 1525   4.902   4.297   4.223  0.2859 -0.2208 -0.0183
  308poe     o2 1526   4.840   4.415   4.176  1.1681  0.5821  0.7872
  308poe    c23 1527   4.913   4.470   4.068 -0.0642  0.1210 -0.3100
  308poe    c23 1528   4.846   4.589   3.997  0.1278  0.2058 -0.3516
  308poe     o2 1529   4.818   4.686   4.095  0.1436  0.1340 -0.2754
  308poe    c23 1530   4.767   4.798   4.026  0.4818  0.5971  0.2122
  308poe    c23 1531   4.796   4.924   4.110  0.1522  0.8468 -0.0475
  308poe     o2 1532   4.749   4.894   4.239  0.1334  0.3824 -0.1610
  308poe    c23 1533   4.764   5.001   4.329 -0.3621  0.1313  0.2237
  308poe    c23 1534   4.723   4.944   4.466  0.1614 -0.4949  0.1230
  308poe     o2 1535   4.788   4.820   4.487  0.7809 -0.2814 -0.5212
  308poe    c31 1536   4.760   4.782   4.619  0.0595  0.4829 -0.4447
  309poe    c31 1537   1.842   1.876   3.600 -0.3580 -0.2519  0.2036
  309poe     o2 1538   1.853   1.735   3.606 -0.2323 -0.2454  0.1259
  309poe    c23 1539   1.742   1.669   3.662 -0.2117 -0.6201 -0.2746
  309poe    c23 1540   1.789   1.590   3.785  0.2146 -0.1748 -0.1468
  309poe     o2 1541   1.899   1.510   3.749  0.6007  0.4603 -0.3840
  309poe    c23 1542   1.856   1.388   3.693  0.4089  0.1550  0.4167
  309poe    c23 1543   1.937   1.336   3.573  0.2071  0.1438  0.2856
  309poe     o2 1544   1.947   1.441   3.480 -0.2279 -0.1699 -0.1214
  309poe    c23 1545   2.000   1.400   3.357  0.0796  0.1350 -0.0918
  309poe    c23 1546   2.040   1.521   3.270 -0.6331  0.3366 -0.1383
  309poe     o2 1547   2.037   1.632   3.356  0.3320 -0.1347  0.5238
  309poe    c31 1548   2.080   1.747   3.287 -0.0426 -0.1373  0.2822
  310poe    c31 1549   3.459   4.128   3.998  0.5355  0.8802  0.1089
  310poe     o2 1550   3.513   4.164   3.873 -0.2902  0.1832 -0.4608
  310poe    c23 1551   3.634   4.095   3.853 -0.0979  0.2205  0.5464
  310poe    c23 1552   3.739   4.175   3.773  0.2494 -1.1299 -0.3889
  310poe     o2 1553   3.687   4.216   3.649 -0.2925 -0.3438  0.0902
  310poe    c23 1554   3.719   4.350   3.617 -0.2648 -0.0098  1.4464
  310poe    c23 1555   3.585   4.422   3.592 -0.1633 -0.3559 -0.2214
  310poe     o2 1556   3.505   4.406   3.707  0.0920 -0.4022 -0.0494
  310poe    c23 1557   3.401   4.500   3.726 -0.0448 -0.7298  0.8392
  310poe    c23 1558   3.328   4.464   3.857 -0.2483 -0.1881  0.8775
  310poe     o2 1559   3.280   4.332   3.845 -0.0686 -0.1760 -0.0733
  310poe    c31 1560   3.149   4.332   3.897  0.0764 -0.2863  0.2959
  311poe    c31 1561   2.613   3.871   6.204  0.7021 -0.1216  0.5006
  311poe     o2 1562   2.509   3.817   6.283  0.0859  0.0130 -0.2044
  311poe    c23 1563   2.552   3.716   6.371 -0.1639  0.2498  0.1967
  311poe    c23 1564   2.507   3.741   6.516 -0.0972  0.1784  0.2303
  311poe     o2 1565   2.599   3.822   6.586  0.2378 -0.1471  0.1674
  311poe    c23 1566   2.588   3.961   6.566 -0.3695 -0.2056  0.0758
  311poe    c23 1567   2.729   4.022   6.576 -0.2872 -0.3755 -0.0446
  311poe     o2 1568   2.806   3.986   6.688  0.0106  0.7066  0.1115
  311poe    c23 1569   2.938   4.027   6.664  0.2075  0.0486  0.0363
  311poe    c23 1570   3.028   3.984   6.781 -0.3678  0.0693  0.4929
  311poe     o2 1571   2.988   3.854   6.816  0.1533 -0.3675 -0.4949
  311poe    c31 1572   3.088   3.797   6.898  0.1912  0.0665 -0.2407
  312poe    c31 1573   1.872   2.920   6.046  0.6292  0.0445 -0.2763
  312poe     o2 1574   1.812   3.023   5.971  0.1662 -0.0256 -0.0065
  312poe    c23 1575   1.876   3.071   5.855  0.0447  0.1237 -0.0127
  312poe    c23 1576   1.801   3.204   5.834 -0.6965 -0.2859  0.0105
  312poe     o2 1577   1.788   3.268   5.959 -0.4030  0.0120 -0.1089
  312poe    c23 1578   1.712   3.386   5.948 -0.1572  0.1825  0.0063
  312poe    c23 1579   1.703   3.430   6.095 -0.5607 -0.0103  0.0415
  312poe     o2 1580   1.650   3.328   6.177 -0.1877 -0.1918  0.0622
  312poe    c23 1581   1.609   3.379   6.302  0.0062 -0.2875  0.1646
  312poe    c23 1582   1.493   3.306   6.372 -0.3947  0.0619 -0.1281
  312poe     o2 1583   1.538   3.178   6.411  0.2844  0.2180 -0.3794
  312poe    c31 1584   1.428   3.114   6.472  0.1711  0.2586 -0.5402
  313poe    c31 1585   2.579   3.251   1.805  0.7872  0.1153  0.4485
  313poe     o2 1586   2.595   3.187   1.681  0.1846  0.3893  0.2248
  313poe    c23 1587   2.576   3.048   1.697  0.3390  0.3072 -0.2832
  313poe    c23 1588   2.663   2.965   1.601  0.3286 -0.0537  0.0174
  313poe     o2 1589   2.634   3.014   1.472 -0.4017  0.1520  0.2516
  313poe    c23 1590   2.724   2.972   1.372 -0.5668  0.0324  0.1527
  313poe    c23 1591   2.693   3.059   1.248  0.4867  0.1060 -0.0683
  313poe     o2 1592   2.670   3.192   1.288 -0.0111  0.1037 -0.3379
  313poe    c23 1593   2.786   3.273   1.284 -0.1850  0.3672 -0.0296
  313poe    c23 1594   2.750   3.398   1.367  0.3481  0.2133  0.4371
  313poe     o2 1595   2.699   3.370   1.495  0.1318  0.1881  0.3449
  313poe    c31 1596   2.636   3.485   1.546 -0.0968  0.7640 -1.1780
  314poe    c31 1597   5.968   3.143   1.479  0.2860  0.1749  0.1624
  314poe     o2 1598   5.838   3.193   1.458  0.1907 -0.0643  0.1782
  314poe    c23 1599   5.781   3.130   1.346 -0.1857  0.5228  0.0371
  314poe    c23 1600   5.664   3.220   1.304 -0.4196  0.1943 -0.0220
  314poe     o2 1601   5.579   3.259   1.411  0.1744 -0.0193  0.5332
  314poe    c23 1602   5.453   3.302   1.366  0.4698  0.3616  0.0495
  314poe    c23 1603   5.376   3.323   1.498 -0.0855  0.6223 -0.3118
  314poe     o2 1604   5.466   3.370   1.596 -0.2596  0.0210  0.1442
  314poe    c23 1605   5.436   3.313   1.721 -0.0925  0.6023  0.4500
  314poe    c23 1606   5.563   3.292   1.804  0.3673 -0.1865 -0.4436
  314poe     o2 1607   5.650   3.225   1.715  0.5561 -0.6727  0.0919
  314poe    c31 1608   5.773   3.191   1.774  0.5345 -0.1096  0.4673
  315poe    c31 1609   0.373   1.492   1.473 -0.5726  0.2393  0.0902
  315poe     o2 1610   0.335   1.449   1.344 -0.1570 -0.0396  0.0594
  315poe    c23 1611   0.288   1.549   1.256 -0.2031 -0.1749 -0.0707
  315poe    c23 1612   0.263   1.480   1.121 -0.5824  0.1446 -0.1670
  315poe     o2 1613   0.210   1.355   1.159  0.1697 -0.2484 -0.3873
  315poe    c23 1614   0.170   1.295   1.038 -0.0921 -0.2048 -0.3234
  315poe    c23 1615   0.073   1.181   1.073 -0.2308  0.0322  0.0656
  315poe     o2 1616   0.134   1.097   1.168 -0.5495  0.1767  0.4023
  315poe    c23 1617   0.064   0.978   1.196 -0.5655  0.1392  0.2017
  315poe    c23 1618   0.114   0.909   1.324  0.2054 -0.0653 -0.2036
  315poe     o2 1619   0.082   0.981   1.441 -0.1502 -0.1451 -0.2513
  315poe    c31 1620   0.079   0.882   1.542  0.3693 -0.1197 -0.2084
  316poe    c31 1621   1.573   0.274   5.048 -0.1271 -0.3259  0.1010
  316poe     o2 1622   1.578   0.364   5.157  0.6070 -0.2507  0.0074
  316poe    c23 1623   1.605   0.303   5.282 -0.1031 -0.1190  0.2269
  316poe    c23 1624   1.676   0.396   5.382  0.0983 -0.0269 -0.0003
  316poe     o2 1625   1.601   0.514   5.374 -0.2662 -0.2463  0.1359
  316poe    c23 1626   1.643   0.608   5.470 -0.3851 -0.1163  0.0631
  316poe    c23 1627   1.546   0.724   5.440 -0.1950 -0.0854 -0.4333
  316poe     o2 1628   1.536   0.732   5.299 -0.1794  0.0644 -0.4248
  316poe    c23 1629   1.413   0.796   5.273 -0.1494  0.6699  0.8264
  316poe    c23 1630   1.371   0.737   5.137 -0.1656 -0.0455  1.1379
  316poe     o2 1631   1.395   0.598   5.151 -0.2952 -0.1811  0.1045
  316poe    c31 1632   1.317   0.526   5.059  0.1957 -0.0945 -0.3848
  317poe    c31 1633   0.716   4.557   2.100  0.0364 -0.0945  0.2226
  317poe     o2 1634   0.653   4.470   2.191  0.4074 -0.7275 -0.1118
  317poe    c23 1635   0.700   4.516   2.316 -0.2601  0.4658 -0.2797
  317poe    c23 1636   0.650   4.431   2.434 -0.0293  0.4833 -0.1690
  317poe     o2 1637   0.512   4.438   2.459 -0.1028  0.2396 -0.4966
  317poe    c23 1638   0.476   4.378   2.582 -0.0450  0.5048 -0.3485
  317poe    c23 1639   0.332   4.326   2.560  0.0183  0.0863  0.2074
  317poe     o2 1640   0.258   4.417   2.481 -0.1966 -0.0555  0.2473
  317poe    c23 1641   0.129   4.373   2.446 -0.0103 -0.3508 -0.0667
  317poe    c23 1642   0.059   4.456   2.337  0.1508 -0.3052 -0.1353
  317poe     o2 1643   0.163   4.511   2.260  0.1366 -0.8239 -0.5368
  317poe    c31 1644   0.102   4.610   2.180  0.8273  0.1720  0.1413
  318poe    c31 1645   3.124   3.871   0.568 -0.2887  0.5309  0.0365
  318poe     o2 1646   3.039   3.952   0.646 -0.2426 -0.0025  0.6525
  318poe    c23 1647   2.905   3.926   0.613 -0.1822 -0.0391  0.4318
  318poe    c23 1648   2.806   4.014   0.692 -0.0948  0.0878  0.3995
  318poe     o2 1649   2.863   4.013   0.821 -0.0329 -0.4284  0.3686
  318poe    c23 1650   2.807   4.114   0.902 -0.1127 -0.1979  0.0272
  318poe    c23 1651   2.892   4.121   1.030 -0.0585  0.2023 -0.0282
  318poe     o2 1652   3.024   4.132   0.983 -0.0172 -0.1062  0.0118
  318poe    c23 1653   3.136   4.091   1.058  0.2464  0.1243 -0.2560
  318poe    c23 1654   3.184   3.952   1.012 -0.7885 -0.2902 -0.0897
  318poe     o2 1655   3.208   3.963   0.874 -0.0615 -0.0366  0.0539
  318poe    c31 1656   3.326   3.894   0.838 -0.2872 -0.3138 -0.1569
  319poe    c31 1657   4.546   2.363   5.237  0.1360 -0.4422  0.0577
  319poe     o2 1658   4.681   2.393   5.265 -0.0220  0.0529  0.3155
  319poe    c23 1659   4.737   2.488   5.178 -0.2856 -0.2754 -0.2215
  319poe    c23 1660   4.885   2.495   5.220 -0.2356 -0.2491 -0.4002
  319poe     o2 1661   4.883   2.500   5.361  0.2600  0.0494 -0.4012
  319poe    c23 1662   5.006   2.500   5.430 -0.4194  0.2561  0.8543
  319poe    c23 1663   4.975   2.418   5.556  0.0259 -0.7488  0.3254
  319poe     o2 1664   4.885   2.314   5.522 -0.6573  0.0426 -0.3407
  319poe    c23 1665   4.835   2.254   5.639 -0.0559  0.0458 -0.0780
  319poe    c23 1666   4.716   2.164   5.603  0.1051 -0.3286  0.3109
  319poe     o2 1667   4.639   2.240   5.512  0.7838 -0.4397 -0.3658
  319poe    c31 1668   4.519   2.168   5.501  0.1930  0.3943  0.4777
  320poe    c31 1669   4.217   3.987   6.620 -0.6011  0.0753 -0.5689
  320poe     o2 1670   4.229   3.876   6.707  0.3984  0.6283  0.0287
  320poe    c23 1671   4.351   3.819   6.666  0.0800  0.2164 -0.3650
  320poe    c23 1672   4.400   3.748   6.793 -0.0345 -0.2008 -0.5524
  320poe     o2 1673   4.286   3.694   6.854 -0.1363  0.0419 -0.5271
  320poe    c23 1674   4.310   3.588   6.945 -0.1076  0.3736 -0.1478
  320poe    c23 1675   4.192   3.492   6.927  0.2609  0.0420 -0.8432
  320poe     o2 1676   4.069   3.561   6.938  0.3530  0.2269 -0.9679
  320poe    c23 1677   3.982   3.517   6.836  0.1699  0.0150 -0.7211
  320poe    c23 1678   3.915   3.644   6.782  0.1337  0.4633  0.3536
  320poe     o2 1679   4.000   3.727   6.706  0.2555 -0.0256 -0.0482
  320poe    c31 1680   3.917   3.800   6.618  0.2815 -0.1245 -0.1546
  321poe    c31 1681   2.093   1.215   5.013 -0.0041 -0.3817  0.7458
  321poe     o2 1682   2.039   1.311   5.100  0.3566  0.1352  0.4058
  321poe    c23 1683   2.051   1.439   5.042 -0.7587 -0.1198 -0.4326
  321poe    c23 1684   2.016   1.539   5.153 -0.1020  0.1777 -0.4852
  321poe     o2 1685   1.906   1.481   5.220 -0.2678  0.5134 -0.4645
  321poe    c23 1686   1.836   1.573   5.301  0.3800  0.2381  0.4218
  321poe    c23 1687   1.719   1.499   5.369  0.4337 -0.2575 -0.0163
  321poe     o2 1688   1.763   1.372   5.412  0.3513 -0.1220  0.4781
  321poe    c23 1689   1.687   1.352   5.529 -0.4705 -0.5765 -0.1164
  321poe    c23 1690   1.715   1.228   5.615  0.2838 -0.1836  0.2173
  321poe     o2 1691   1.842   1.222   5.676  0.4135 -0.1325 -0.0467
  321poe    c31 1692   1.851   1.099   5.745  0.1274 -0.3727 -0.4292
  322poe    c31 1693   2.978   5.530   3.624  0.0577  0.1026  0.3012
  322poe     o2 1694   2.940   5.407   3.681  0.2187 -0.2418 -0.3248
  322poe    c23 1695   2.835   5.363   3.597 -0.3083  0.2017  0.0951
  322poe    c23 1696   2.752   5.250   3.660 -0.1988  0.2215  0.2733
  322poe     o2 1697   2.847   5.173   3.732 -0.3934  0.0526  0.3509
  322poe    c23 1698   2.788   5.061   3.792 -0.1188 -0.1166  0.3044
  322poe    c23 1699   2.892   4.976   3.868  0.0319  0.1060  0.3472
  322poe     o2 1700   2.981   5.062   3.935  0.7322 -0.0876 -0.3245
  322poe    c23 1701   3.058   4.989   4.027  0.0463 -0.2477  0.1243
  322poe    c23 1702   3.124   5.089   4.124  0.5215 -0.3739 -0.0643
  322poe     o2 1703   3.226   5.156   4.055 -0.1714  0.3886 -0.3605
  322poe    c31 1704   3.290   5.253   4.135  0.5583 -0.1253 -0.3100
  323poe    c31 1705   5.591   3.627   3.187 -0.2092  0.4481  0.0106
  323poe     o2 1706   5.617   3.762   3.154  0.2167  0.2705 -0.3862
  323poe    c23 1707   5.723   3.771   3.061 -0.1193  0.2350 -0.7765
  323poe    c23 1708   5.776   3.915   3.043  0.0871  0.2543 -0.0549
  323poe     o2 1709   5.690   4.015   2.993 -0.0419 -0.0785 -0.5130
  323poe    c23 1710   5.687   4.001   2.853 -0.2740  0.3111 -0.5491
  323poe    c23 1711   5.623   4.127   2.792 -0.2881  0.4902 -0.1712
  323poe     o2 1712   5.503   4.144   2.865 -0.3085 -0.2640 -0.0197
  323poe    c23 1713   5.415   4.245   2.822 -0.4338 -0.0751  0.6788
  323poe    c23 1714   5.348   4.307   2.947 -0.6119  0.3222  0.3872
  323poe     o2 1715   5.361   4.219   3.056 -0.2620 -0.3248 -0.1625
  323poe    c31 1716   5.292   4.264   3.171  0.1887  0.3698 -0.1579
  324poe    c31 1717   0.631   4.596   3.180  0.0321  0.6785  0.0023
  324poe     o2 1718   0.753   4.596   3.251 -0.1073 -0.2289  0.2575
  324poe    c23 1719   0.860   4.654   3.180 -0.1649  0.1662  0.4905
  324poe    c23 1720   0.984   4.662   3.271  0.0910  0.6355  0.1075
  324poe     o2 1721   0.994   4.535   3.331 -0.3828  0.5217 -0.0493
  324poe    c23 1722   1.056   4.528   3.457  0.4972 -0.3277 -0.5143
  324poe    c23 1723   0.991   4.423   3.549  0.0329  0.5775  0.1985
  324poe     o2 1724   0.856   4.421   3.509 -0.0792 -0.5637  0.6098
  324poe    c23 1725   0.772   4.351   3.599 -0.4706 -0.1816  0.5456
  324poe    c23 1726   0.635   4.360   3.531 -0.1129 -0.1343 -0.1817
  324poe     o2 1727   0.652   4.357   3.391  0.2598 -0.1127 -0.1370
  324poe    c31 1728   0.539   4.295   3.334  0.1946  0.1500 -0.2909
  325poe    c31 1729   4.967   3.294   4.879  0.2156 -0.1948 -0.4869
  325poe     o2 1730   4.951   3.191   4.973 -0.1231  0.1603 -0.1503
  325poe    c23 1731   5.035   3.084   4.937 -0.4181 -0.1630  0.1092
  325poe    c23 1732   5.008   2.962   5.028  0.3220 -0.3437  0.0919
  325poe     o2 1733   5.015   3.008   5.161 -0.1865  0.2352 -0.0777
  325poe    c23 1734   5.000   2.907   5.257  0.6625 -0.0208 -0.2063
  325poe    c23 1735   4.981   2.978   5.392  0.6426 -0.3298 -0.0445
  325poe     o2 1736   4.908   3.096   5.365  0.2192 -0.5189  0.2752
  325poe    c23 1737   4.767   3.089   5.362  0.1956  0.0858 -0.0563
  325poe    c23 1738   4.727   3.229   5.311  0.0878 -0.0938 -0.4674
  325poe     o2 1739   4.814   3.264   5.205  0.1939  0.0949 -0.3180
  325poe    c31 1740   4.778   3.396   5.168 -0.3033  0.0177 -0.1239
  326poe    c31 1741   3.812   1.734   4.809  0.2720  0.0522 -0.0751
  326poe     o2 1742   3.946   1.691   4.827  0.3729  0.4557  0.1377
  326poe    c23 1743   3.932   1.603   4.936  0.0181  0.6126  0.2234
  326poe    c23 1744   4.063   1.594   5.016  0.2100 -0.0686 -0.1580
  326poe     o2 1745   4.155   1.554   4.917  0.3460 -0.5191  0.1451
  326poe    c23 1746   4.285   1.562   4.972  0.5038  0.4187 -0.3345
  326poe    c23 1747   4.380   1.575   4.852  0.5990  0.3892 -0.2629
  326poe     o2 1748   4.330   1.671   4.760 -0.1534  0.2966  0.0445
  326poe    c23 1749   4.400   1.684   4.639  0.2531  0.1291  0.2576
  326poe    c23 1750   4.316   1.765   4.538  0.2973  0.1514  0.2395
  326poe     o2 1751   4.211   1.696   4.473  0.3418  0.1541  0.1639
  326poe    c31 1752   4.160   1.759   4.357  0.1156  0.0460  0.2041
  327poe    c31 1753   5.700   0.613   1.724  0.1526 -0.1184  0.3109
  327poe     o2 1754   5.671   0.722   1.809 -0.1150  0.0396  0.0190
  327poe    c23 1755   5.617   0.813   1.717 -0.1742 -0.2211 -0.2047
  327poe    c23 1756   5.569   0.943   1.785  0.0306 -0.3419  0.1709
  327poe     o2 1757   5.449   0.920   1.855 -0.2596  0.0794 -0.1903
  327poe    c23 1758   5.389   1.032   1.918  0.5177  0.4329 -0.0705
  327poe    c23 1759   5.465   1.076   2.045  0.0128  0.1397  0.3374
  327poe     o2 1760   5.503   0.977   2.138  0.5740  0.1036  0.0748
  327poe    c23 1761   5.517   1.032   2.267  0.4025  0.0900  0.1001
  327poe    c23 1762   5.607   0.945   2.356  0.3601 -0.2227 -0.1618
  327poe     o2 1763   5.584   0.811   2.318 -0.5620 -0.1140 -0.0115
  327poe    c31 1764   5.617   0.739   2.435  1.0016  0.3504 -0.1352
  328poe    c31 1765   2.683   3.268   4.033  0.1863 -0.3949  0.2554
  328poe     o2 1766   2.680   3.288   3.894 -0.1028  0.0102  0.3188
  328poe    c23 1767   2.749   3.182   3.833 -0.6426 -0.3640  0.3491
  328poe    c23 1768   2.721   3.169   3.682  0.4159  0.4500  0.0727
  328poe     o2 1769   2.716   3.301   3.631 -0.2694  0.3666 -0.0915
  328poe    c23 1770   2.660   3.309   3.502  0.0939 -0.5391 -0.3173
  328poe    c23 1771   2.638   3.461   3.487  0.4188 -0.4380  0.1785
  328poe     o2 1772   2.591   3.518   3.607  0.0572  0.1890 -0.2529
  328poe    c23 1773   2.451   3.528   3.602  0.0637  0.4078 -0.0270
  328poe    c23 1774   2.410   3.562   3.747 -0.1743  0.1060 -0.0218
  328poe     o2 1775   2.474   3.480   3.841 -0.2193  0.1252  0.0250
  328poe    c31 1776   2.389   3.477   3.953 -0.1014  0.6180  0.1276
  329poe    c31 1777   4.588   3.060   5.776  0.2779  0.5709  0.2613
  329poe     o2 1778   4.550   3.092   5.908  0.0374 -0.1157  0.3659
  329poe    c23 1779   4.569   3.231   5.919 -0.7833  0.0077  0.2692
  329poe    c23 1780   4.551   3.299   6.056 -0.1385  0.5285  0.1009
  329poe     o2 1781   4.620   3.220   6.149 -0.0665  0.2678 -0.1744
  329poe    c23 1782   4.594   3.262   6.281 -0.4306 -0.1599 -0.1053
  329poe    c23 1783   4.676   3.177   6.380  0.4561  0.0546 -0.6434
  329poe     o2 1784   4.652   3.040   6.362 -0.2895  0.0732  0.1496
  329poe    c23 1785   4.724   2.944   6.437 -0.0064  0.3007  0.1734
  329poe    c23 1786   4.652   2.812   6.474  0.5842 -0.1477 -0.2687
  329poe     o2 1787   4.588   2.749   6.365 -0.4475 -0.1493  0.3294
  329poe    c31 1788   4.513   2.641   6.417 -0.3122 -0.3463  0.1177
  330poe    c31 1789   4.244   3.025   3.259  0.5633  0.4184  0.2389
  330poe     o2 1790   4.259   3.061   3.395  0.4085  0.2182  0.3086
  330poe    c23 1791   4.355   2.976   3.454  0.4414  0.0590  0.0308
  330poe    c23 1792   4.367   3.005   3.605  0.3135  0.0873  0.0352
  330poe     o2 1793   4.347   3.145   3.615 -0.1335  0.0222  0.0625
  330poe    c23 1794   4.343   3.197   3.745  0.4549  0.1504  0.0308
  330poe    c23 1795   4.277   3.336   3.748 -0.4426 -0.2747  0.3219
  330poe     o2 1796   4.174   3.316   3.653 -0.1295 -0.3138 -0.0102
  330poe    c23 1797   4.094   3.431   3.633 -0.1059 -0.2447  0.2891
  330poe    c23 1798   3.990   3.393   3.527  0.3004 -0.2262 -0.1190
  330poe     o2 1799   4.050   3.323   3.420  0.0959 -0.5079 -0.0509
  330poe    c31 1800   3.977   3.338   3.300  0.2762 -0.1543 -0.1155
  331poe    c31 1801   6.103   1.250   1.091 -0.0465 -0.1015 -0.6115
  331poe     o2 1802   6.080   1.112   1.075 -0.5133 -0.0766 -0.1964
  331poe    c23 1803   6.081   1.079   0.938 -0.1846 -0.5984 -0.0706
  331poe    c23 1804   6.144   0.941   0.908 -0.0945 -0.5782  0.0289
  331poe     o2 1805   6.074   0.853   0.993 -0.6930  0.0333  0.1786
  331poe    c23 1806   6.132   0.725   0.998  0.3564  0.5106  0.4253
  331poe    c23 1807   6.139   0.685   1.147 -0.2126 -0.1987  0.2718
  331poe     o2 1808   6.135   0.806   1.219 -0.2771 -0.2284  0.3178
  331poe    c23 1809   6.135   0.782   1.358 -0.1477 -0.1896  0.3245
  331poe    c23 1810   6.151   0.922   1.422 -0.0713 -0.1032  0.1159
  331poe     o2 1811   6.057   0.998   1.350  0.2997  0.5777  0.3502
  331poe    c31 1812   5.989   1.086   1.437  0.0821  1.1564 -0.3885
  332poe    c31 1813   2.320   5.892   6.039  0.3156 -0.1793 -0.2555
  332poe     o2 1814   2.285   5.923   6.172 -0.1960 -0.1793 -0.3883
  332poe    c23 1815   2.377   5.878   6.269 -0.0899 -0.0395 -0.4224
  332poe    c23 1816   2.341   5.944   6.404  0.2996  0.0865 -0.3791
  332poe     o2 1817   2.317   6.082   6.385 -0.5997 -0.0235 -0.0545
  332poe    c23 1818   2.269   6.131   6.508  0.0377 -0.4647  0.3729
  332poe    c23 1819   2.217   6.273   6.481  0.5301 -0.3535 -0.0142
  332poe     o2 1820   2.179   6.292   6.347  0.0870  0.1931  0.1814
  332poe    c23 1821   2.127   6.422   6.335 -0.2883  0.0335  0.0417
  332poe    c23 1822   2.077   6.452   6.192  0.3295  0.1119 -0.1626
  332poe     o2 1823   2.167   6.406   6.093  0.3454  0.0132 -0.1033
  332poe    c31 1824   2.155   6.469   5.968  0.2841  0.1280 -0.0403
  333poe    c31 1825   5.565   0.198   4.565 -0.1065  0.1711 -0.1136
  333poe     o2 1826   5.695   0.224   4.519  0.0788 -0.0735  0.2676
  333poe    c23 1827   5.743   0.347   4.568  0.3009  0.0481 -0.2431
  333poe    c23 1828   5.890   0.364   4.527  0.3848 -0.1119 -0.0134
  333poe     o2 1829   5.899   0.334   4.389 -0.1189  0.2608 -0.1291
  333poe    c23 1830   6.030   0.344   4.339  0.0091 -0.5545  0.0332
  333poe    c23 1831   6.009   0.278   4.201  0.4472 -0.1206 -0.2475
  333poe     o2 1832   5.907   0.181   4.206  0.1333  0.1689 -1.0006
  333poe    c23 1833   5.865   0.115   4.088 -0.1094  0.2225 -0.9435
  333poe    c23 1834   5.759   0.014   4.135  0.4064  0.1862  0.1796
  333poe     o2 1835   5.712   0.044   4.265 -0.4312 -0.1838 -0.0255
  333poe    c31 1836   5.671  -0.078   4.322  0.0286 -0.3014  0.0570
  334poe    c31 1837   3.309   4.393   1.158  0.9476 -0.1450  0.2466
  334poe     o2 1838   3.340   4.526   1.191 -0.4346  0.2712 -0.0355
  334poe    c23 1839   3.254   4.605   1.112  0.0854  0.0862 -0.7971
  334poe    c23 1840   3.266   4.758   1.112 -0.3328  0.1215 -0.0776
  334poe     o2 1841   3.246   4.814   1.241  0.0288  0.2330 -0.0681
  334poe    c23 1842   3.365   4.835   1.312  0.0863 -0.2327 -0.0189
  334poe    c23 1843   3.326   4.856   1.459  0.2403  0.1278 -0.0273
  334poe     o2 1844   3.210   4.937   1.460 -0.0520 -0.2906  0.1535
  334poe    c23 1845   3.184   5.009   1.578  0.1722 -0.2343  0.1691
  334poe    c23 1846   3.058   5.092   1.547  0.3910  0.0621  0.0698
  334poe     o2 1847   2.976   5.031   1.450 -0.1048  0.3685  0.2912
  334poe    c31 1848   2.840   5.066   1.457 -0.3047 -0.3358 -0.0361
  335poe    c31 1849   5.143   4.510   5.819  0.1754  0.0101  0.4299
  335poe     o2 1850   5.167   4.540   5.684 -1.1442 -0.0272  0.1688
  335poe    c23 1851   5.197   4.677   5.669 -0.1110 -0.2852 -0.2293
  335poe    c23 1852   5.207   4.711   5.519  0.1909  0.3504 -0.0677
  335poe     o2 1853   5.282   4.603   5.468 -0.0228  0.2827 -0.2395
  335poe    c23 1854   5.344   4.639   5.346  0.1411  0.4768 -0.0999
  335poe    c23 1855   5.437   4.524   5.301 -0.6536 -0.0432 -0.4414
  335poe     o2 1856   5.359   4.409   5.325  0.0315 -0.3664  0.2868
  335poe    c23 1857   5.433   4.301   5.378  0.1740 -0.3520  0.1201
  335poe    c23 1858   5.421   4.319   5.530  0.4527  0.2024  0.0769
  335poe     o2 1859   5.289   4.321   5.578  0.3757  0.0304 -0.1274
  335poe    c31 1860   5.258   4.199   5.641 -0.3915  0.0084 -0.5324
  336poe    c31 1861   2.874   6.384   5.906  0.0190  0.2258  0.4198
  336poe     o2 1862   2.842   6.305   6.018 -0.4026  0.2904  0.3472
  336poe    c23 1863   2.748   6.205   5.986 -0.4208  0.4855 -0.2204
  336poe    c23 1864   2.699   6.141   6.118 -0.0393  0.1523 -0.2380
  336poe     o2 1865   2.817   6.107   6.187 -0.3802 -0.2307  0.1601
  336poe    c23 1866   2.805   6.029   6.304 -0.4123 -0.2047  0.1737
  336poe    c23 1867   2.945   6.038   6.366 -0.4161 -0.8329  0.2840
  336poe     o2 1868   2.989   6.172   6.361  0.0350 -0.9704  0.5652
  336poe    c23 1869   3.128   6.190   6.374 -0.0551  0.1974  0.0016
  336poe    c23 1870   3.151   6.330   6.313  0.1429  0.1399 -0.0600
  336poe     o2 1871   3.061   6.343   6.205  0.2057 -0.2952 -0.1683
  336poe    c31 1872   3.084   6.474   6.157  0.0961 -0.3585 -0.3910
  337poe    c31 1873   1.733   2.600   6.504  0.1042  0.3194 -0.3409
  337poe     o2 1874   1.814   2.583   6.618  0.2160  0.2222 -0.4346
  337poe    c23 1875   1.836   2.444   6.632  0.1184  0.2047 -0.4523
  337poe    c23 1876   1.884   2.431   6.778 -0.1019  0.0218 -0.3963
  337poe     o2 1877   1.988   2.525   6.792 -0.1086 -0.0004 -0.1904
  337poe    c23 1878   2.057   2.524   6.914 -0.1346 -0.1807 -0.1775
  337poe    c23 1879   2.174   2.618   6.876  0.0861 -0.3096  0.1738
  337poe     o2 1880   2.123   2.748   6.863 -0.1338 -0.4727 -0.6725
  337poe    c23 1881   2.226   2.843   6.881 -0.2765 -0.3721 -0.3764
  337poe    c23 1882   2.161   2.972   6.934  0.4056 -0.1488 -0.0767
  337poe     o2 1883   2.110   2.949   7.063  0.0620  0.2027 -0.1481
  337poe    c31 1884   2.058   3.068   7.119 -0.1008  0.0945 -0.0657
  338poe    c31 1885   1.321   1.177   3.377  0.3096 -0.1684 -0.6240
  338poe     o2 1886   1.311   1.313   3.412  0.5739 -0.2663 -0.1665
  338poe    c23 1887   1.399   1.380   3.325 -0.0393 -0.1919 -0.7401
  338poe    c23 1888   1.416   1.520   3.387 -0.3000 -0.6052  0.2819
  338poe     o2 1889   1.290   1.572   3.421 -0.0080  0.4960 -0.3028
  338poe    c23 1890   1.293   1.695   3.491  0.1173  0.1815  0.2482
  338poe    c23 1891   1.155   1.702   3.559  0.0892  0.1787  0.1916
  338poe     o2 1892   1.103   1.580   3.606 -0.1503  0.2450  0.1055
  338poe    c23 1893   0.975   1.590   3.663 -0.3657 -0.2456 -0.2869
  338poe    c23 1894   0.966   1.637   3.810 -0.3016  0.0363 -0.3734
  338poe     o2 1895   0.979   1.775   3.835  0.1213 -0.1001  0.1647
  338poe    c31 1896   0.942   1.809   3.967  0.6222 -0.0582  0.2949
  339poe    c31 1897   4.684   6.436   6.619  0.5067 -0.1728 -0.2801
  339poe     o2 1898   4.737   6.543   6.693  0.0191 -0.0678 -0.0805
  339poe    c23 1899   4.872   6.512   6.716 -0.2139 -0.6120  0.6003
  339poe    c23 1900   4.935   6.619   6.806  0.5175 -0.2584 -0.3175
  339poe     o2 1901   4.841   6.653   6.904  0.6466  0.2960 -0.3817
  339poe    c23 1902   4.886   6.720   7.020  0.3335 -0.0167 -0.0767
  339poe    c23 1903   4.764   6.705   7.113 -0.0322 -0.1708 -0.5778
  339poe     o2 1904   4.646   6.706   7.035 -0.3482 -0.3298 -0.1035
  339poe    c23 1905   4.606   6.838   7.007  0.0930 -0.2126 -0.1896
  339poe    c23 1906   4.515   6.833   6.883  0.0549 -0.2742 -0.1587
  339poe     o2 1907   4.578   6.756   6.783 -0.0871 -0.4208 -0.1355
  339poe    c31 1908   4.495   6.753   6.669 -0.2990  0.4110 -0.0102
  340poe    c31 1909   5.942   4.450   0.152 -0.1105 -0.1371  0.5196
  340poe     o2 1910   5.838   4.395   0.231 -0.2596 -0.0587  0.3798
  340poe    c23 1911   5.709   4.403   0.175 -0.0199  0.0702 -0.1567
  340poe    c23 1912   5.601   4.380   0.282  0.3840  0.0419  0.2485
  340poe     o2 1913   5.641   4.269   0.359  0.2559 -0.3966 -0.3090
  340poe    c23 1914   5.530   4.240   0.442  0.3572 -0.0333 -0.0452
  340poe    c23 1915   5.528   4.100   0.505  0.2845 -0.0640 -0.1162
  340poe     o2 1916   5.629   4.090   0.603  0.0224  0.1544  0.1799
  340poe    c23 1917   5.686   3.961   0.599  0.2070  0.2440 -0.1617
  340poe    c23 1918   5.798   3.953   0.704  0.1423 -0.8403 -0.1624
  340poe     o2 1919   5.750   3.943   0.837  0.1536 -0.9168 -0.1634
  340poe    c31 1920   5.859   3.981   0.917 -0.0342 -0.0896 -0.2849
  341poe    c31 1921   0.669   2.997   4.266 -0.0038 -0.8100  0.4286
  341poe     o2 1922   0.749   2.952   4.159 -0.7194  0.0187 -0.4818
  341poe    c23 1923   0.729   2.814   4.137 -0.2102 -0.1244 -0.0635
  341poe    c23 1924   0.820   2.756   4.027  0.1961  0.3571  0.0142
  341poe     o2 1925   0.789   2.835   3.914  0.1357  0.2252 -0.0618
  341poe    c23 1926   0.871   2.794   3.808  0.1988  0.4824 -0.1137
  341poe    c23 1927   0.856   2.889   3.688  0.3096  0.2542 -0.3115
  341poe     o2 1928   0.862   3.020   3.741 -0.3313  0.1128  0.1206
  341poe    c23 1929   0.779   3.106   3.667  0.2677  0.2083 -0.4449
  341poe    c23 1930   0.779   3.223   3.767  0.0610  0.0824 -0.2978
  341poe     o2 1931   0.764   3.180   3.901  0.7201 -0.0560 -0.2683
  341poe    c31 1932   0.762   3.291   3.987 -0.5878  0.1260 -0.5063
  342poe    c31 1933   6.007   4.469   1.617  0.6089 -0.0979 -0.4793
  342poe     o2 1934   6.038   4.332   1.610  0.3738 -0.1771  0.0084
  342poe    c23 1935   6.020   4.279   1.740 -0.2962 -0.2924 -0.1261
  342poe    c23 1936   6.106   4.152   1.751 -0.0457 -0.1339 -0.2362
  342poe     o2 1937   6.110   4.097   1.621  0.0476  0.3646 -0.4482
  342poe    c23 1938   6.152   3.962   1.625 -0.5191  0.1964  0.0870
  342poe    c23 1939   6.215   3.945   1.486  0.1552  0.2814  0.3766
  342poe     o2 1940   6.162   4.044   1.401  0.6409 -0.0756 -0.3534
  342poe    c23 1941   6.078   3.997   1.298  0.2408  0.1401 -0.1269
  342poe    c23 1942   6.012   4.124   1.239 -0.1054  0.0279  0.0151
  342poe     o2 1943   5.953   4.203   1.339  0.4254  0.0121  0.3454
  342poe    c31 1944   5.891   4.323   1.297  0.0617 -0.3349 -0.1210
  343poe    c31 1945   6.054   1.673   1.584 -0.2166  0.4639  0.6214
  343poe     o2 1946   6.175   1.742   1.601 -0.1954  0.4875  0.3858
  343poe    c23 1947   6.205   1.763   1.738 -0.2872  0.1689  0.4555
  343poe    c23 1948   6.303   1.881   1.749 -0.1705  0.1318 -0.1550
  343poe     o2 1949   6.399   1.857   1.648  0.1563  0.3079  0.1139
  343poe    c23 1950   6.460   1.982   1.622  0.2959  0.3184  0.4819
  343poe    c23 1951   6.568   1.954   1.516 -0.0609  0.7245  0.0047
  343poe     o2 1952   6.495   1.892   1.413 -0.2210  0.6393  0.1675
  343poe    c23 1953   6.558   1.829   1.303 -0.1447  0.6920  0.1801
  343poe    c23 1954   6.446   1.755   1.227  0.1016 -0.3253  0.7799
  343poe     o2 1955   6.359   1.716   1.330 -0.3427 -0.0827  0.4987
  343poe    c31 1956   6.260   1.634   1.273 -0.2810 -0.2510  0.6336
  344poe    c31 1957   5.038   6.223   5.539 -0.5745 -0.2057 -0.1996
  344poe     o2 1958   5.109   6.193   5.421  0.0593  0.1179  0.0966
  344poe    c23 1959   5.070   6.064   5.379  0.2704  0.0496  0.1098
  344poe    c23 1960   5.190   6.021   5.293  0.0937 -0.2454  0.0097
  344poe     o2 1961   5.238   6.127   5.213  0.7518 -0.1681  0.4969
  344poe    c23 1962   5.355   6.116   5.136  0.6355  0.1410  0.2745
  344poe    c23 1963   5.350   6.253   5.065 -0.0395 -0.1296 -0.2033
  344poe     o2 1964   5.304   6.349   5.157 -0.2742 -0.0199 -0.4341
  344poe    c23 1965   5.231   6.446   5.086  0.0431  0.3480 -0.2636
  344poe    c23 1966   5.172   6.534   5.198 -0.1156  0.1522 -0.1922
  344poe     o2 1967   5.110   6.449   5.292  0.1291 -0.0205 -0.1865
  344poe    c31 1968   5.019   6.519   5.374  0.0570  0.1361 -0.3983
  345poe    c31 1969   4.212   3.715   3.857 -0.7698  0.4738 -0.3239
  345poe     o2 1970   4.259   3.785   3.969  0.0732  0.2263 -0.5175
  345poe    c23 1971   4.349   3.710   4.047 -0.4826  0.2006  0.1099
  345poe    c23 1972   4.402   3.792   4.167  0.3551  0.4210 -0.4013
  345poe     o2 1973   4.298   3.834   4.252  0.2465 -0.2289 -0.2035
  345poe    c23 1974   4.348   3.892   4.370 -0.2031 -0.0507 -0.0977
  345poe    c23 1975   4.225   3.887   4.462  0.0715  0.0953  0.2781
  345poe     o2 1976   4.113   3.925   4.385  0.0485  0.1920  0.3589
  345poe    c23 1977   3.997   3.872   4.446  0.0183 -0.2119 -0.0422
  345poe    c23 1978   3.874   3.913   4.364 -0.1426 -0.4940  0.0582
  345poe     o2 1979   3.924   3.889   4.234  0.0310 -0.1112  0.0529
  345poe    c31 1980   3.827   3.889   4.132  0.3242  0.0970 -0.2268
  346poe    c31 1981   2.601   1.052   5.182  0.1382 -0.0328  0.0945
  346poe     o2 1982   2.569   0.926   5.236 -0.5513  0.0793 -0.0331
  346poe    c23 1983   2.637   0.816   5.179 -0.1080  0.4715 -0.2667
  346poe    c23 1984   2.595   0.695   5.264  0.6731  0.2813 -0.1420
  346poe     o2 1985   2.612   0.739   5.397  0.2973 -0.0712  0.0264
  346poe    c23 1986   2.599   0.628   5.483  0.0559  0.2145  0.3602
  346poe    c23 1987   2.633   0.683   5.623  0.0132 -0.3452  0.5897
  346poe     o2 1988   2.543   0.786   5.654  0.4162  0.1713  0.0542
  346poe    c23 1989   2.484   0.759   5.779  0.3361  0.3353  0.0531
  346poe    c23 1990   2.394   0.875   5.824 -0.3392 -0.1330 -0.0720
  346poe     o2 1991   2.288   0.887   5.731 -0.1162  0.5927 -0.2327
  346poe    c31 1992   2.173   0.956   5.776 -0.0192  0.5635  0.0635
  347poe    c31 1993   6.198   2.378   4.357 -0.1017 -0.1722 -0.3374
  347poe     o2 1994   6.129   2.499   4.377  0.3901  0.0442  0.0772
  347poe    c23 1995   6.153   2.589   4.271  0.2723  0.0666  0.0688
  347poe    c23 1996   6.017   2.653   4.239  0.2059 -0.0754  0.0704
  347poe     o2 1997   5.949   2.661   4.363 -0.1629 -0.2470 -0.1182
  347poe    c23 1998   5.814   2.686   4.332 -0.1615 -0.3486 -0.2067
  347poe    c23 1999   5.748   2.650   4.466 -0.0781  0.0203 -0.0673
  347poe     o2 2000   5.806   2.523   4.487  0.2459  0.1945  0.1110
  347poe    c23 2001   5.767   2.463   4.608  0.0392 -0.1150 -0.1078
  347poe    c23 2002   5.867   2.349   4.631 -0.2026 -0.3068  0.0038
  347poe     o2 2003   5.999   2.398   4.624 -0.1496 -0.3928  0.3957
  347poe    c31 2004   6.085   2.317   4.701  0.1277  0.0669  0.5745
  348poe    c31 2005   5.166   0.111   5.954  0.6099  0.1920  0.5459
  348poe     o2 2006   5.094   0.024   6.039  0.2669  0.0903  0.1546
  348poe    c23 2007   5.101  -0.109   5.993  0.1814 -0.1200  0.7413
  348poe    c23 2008   4.997  -0.187   6.076 -0.2075 -0.7454 -0.3235
  348poe     o2 2009   4.886  -0.101   6.083  0.0051 -0.4999  0.0079
  348poe    c23 2010   4.794  -0.144   6.181  0.1863 -0.2256  0.3017
  348poe    c23 2011   4.689  -0.033   6.193  0.2930 -0.1213  0.2753
  348poe     o2 2012   4.771   0.080   6.210  0.3909 -0.1956  0.2965
  348poe    c23 2013   4.700   0.201   6.191  0.1732 -0.3481  0.1331
  348poe    c23 2014   4.801   0.317   6.182 -0.1215 -0.1418 -0.5377
  348poe     o2 2015   4.926   0.256   6.160  0.0288  0.1505 -0.4941
  348poe    c31 2016   5.018   0.358   6.192  0.1651 -0.1182 -0.0314
  349poe    c31 2017   6.474   1.052   1.845  0.5885 -0.3392 -0.0680
  349poe     o2 2018   6.517   1.098   1.971 -0.4820 -0.3316  0.3109
  349poe    c23 2019   6.410   1.148   2.047 -0.2906 -0.0817  0.4181
  349poe    c23 2020   6.473   1.151   2.188  0.1165  0.1511  0.2308
  349poe     o2 2021   6.603   1.204   2.171  0.2131 -0.1036  0.1786
  349poe    c23 2022   6.657   1.218   2.300 -0.3234  0.3473  0.3544
  349poe    c23 2023   6.774   1.315   2.280  0.1647 -0.1735  0.6351
  349poe     o2 2024   6.884   1.272   2.203 -0.1854  0.1508 -0.0679
  349poe    c23 2025   6.915   1.367   2.104 -0.0813  0.0226 -0.1576
  349poe    c23 2026   6.931   1.297   1.968 -0.0892  0.1899 -0.2442
  349poe     o2 2027   6.813   1.241   1.915 -0.3143  1.0648 -0.6817
  349poe    c31 2028   6.839   1.200   1.782  0.1771  0.0949 -0.2951
  350poe    c31 2029   0.253   2.164   2.348 -0.2004 -0.1994  0.1167
  350poe     o2 2030   0.149   2.253   2.315 -0.2083 -0.2192  0.0882
  350poe    c23 2031   0.181   2.382   2.363 -0.1494  0.0171 -0.5743
  350poe    c23 2032   0.054   2.441   2.427 -0.2360 -0.2533 -0.4979
  350poe     o2 2033  -0.036   2.423   2.320 -0.3779  0.3115 -0.4778
  350poe    c23 2034  -0.163   2.470   2.358 -0.2962  0.2179 -0.0858
  350poe    c23 2035  -0.260   2.428   2.246  0.2307  0.1021 -0.4995
  350poe     o2 2036  -0.234   2.291   2.223 -0.2940 -0.0699 -0.0815
  350poe    c23 2037  -0.335   2.232   2.146 -0.4272  0.1753 -0.0968
  350poe    c23 2038  -0.278   2.105   2.080 -0.3566  0.2447 -0.1685
  350poe     o2 2039  -0.237   2.001   2.167 -0.2069  0.3418 -0.1215
  350poe    c31 2040  -0.248   1.871   2.113  0.5550  0.1628  0.1508
  351poe    c31 2041   6.668   6.577   6.647  0.3416  0.0193  0.2911
  351poe     o2 2042   6.697   6.460   6.575  0.2023  0.2656 -0.1660
  351poe    c23 2043   6.824   6.407   6.607  0.4864  0.6368 -0.6669
  351poe    c23 2044   6.855   6.292   6.508  0.3204  0.0212 -0.0107
  351poe     o2 2045   6.774   6.178   6.521  0.0268  0.2097 -0.1840
  351poe    c23 2046   6.845   6.060   6.491 -0.1274  0.0989 -0.1198
  351poe    c23 2047   6.772   5.941   6.555  0.2753  0.2091  0.5642
  351poe     o2 2048   6.634   5.971   6.549  0.2381 -0.0915 -0.3002
  351poe    c23 2049   6.547   5.865   6.585  0.2139 -0.0801 -0.3246
  351poe    c23 2050   6.402   5.891   6.542  0.1123  0.5745  0.3902
  351poe     o2 2051   6.350   5.983   6.636 -0.3297  0.3218  0.3987
  351poe    c31 2052   6.210   5.972   6.636 -0.3149  0.0860 -0.1667
  352poe    c31 2053   3.314   4.862   0.658  0.3628 -0.2465  0.1218
  352poe     o2 2054   3.428   4.890   0.736  0.2973  0.1474  0.0791
  352poe    c23 2055   3.415   5.020   0.789 -0.5149 -0.0048  0.2717
  352poe    c23 2056   3.478   5.018   0.929 -0.0587 -0.5285  0.0654
  352poe     o2 2057   3.606   4.964   0.904 -0.0801 -0.4727 -0.1670
  352poe    c23 2058   3.661   4.907   1.020  0.0684 -0.0702 -0.0365
  352poe    c23 2059   3.744   4.786   0.973 -0.0793 -0.0588 -0.3240
  352poe     o2 2060   3.660   4.710   0.889 -0.0849  0.1727 -0.5293
  352poe    c23 2061   3.738   4.612   0.823  0.4531 -0.1350  0.5312
  352poe    c23 2062   3.662   4.557   0.700  0.1691  0.7645  0.2893
  352poe     o2 2063   3.582   4.661   0.649  0.1423  0.4391 -0.3342
  352poe    c31 2064   3.525   4.617   0.528 -0.4460 -0.0418  0.1160
  353poe    c31 2065   5.702   6.622   5.207 -0.2630 -0.2598 -0.4279
  353poe     o2 2066   5.704   6.762   5.197  0.5212 -0.2077  0.2868
  353poe    c23 2067   5.644   6.820   5.310  0.7411  0.0843  0.2562
  353poe    c23 2068   5.632   6.970   5.279  0.0063 -0.1313 -0.5546
  353poe     o2 2069   5.758   7.004   5.225  0.0347  0.9002  0.1299
  353poe    c23 2070   5.776   7.141   5.200  0.0425  1.0167  0.7444
  353poe    c23 2071   5.914   7.158   5.133 -0.1232  0.1089  0.1525
  353poe     o2 2072   5.940   7.058   5.038  0.3159  0.1119  0.2653
  353poe    c23 2073   6.012   7.112   4.930  0.2452  0.6022  0.4609
  353poe    c23 2074   6.096   7.003   4.860  0.2434  0.5742  0.5027
  353poe     o2 2075   6.145   6.908   4.953  0.7496  0.5793  0.2431
  353poe    c31 2076   6.251   6.832   4.901  0.4122  0.0076  0.3851
  354poe    c31 2077   5.457   5.872   3.991  0.9488  0.0259  0.7181
  354poe     o2 2078   5.531   5.921   3.882  0.1312 -0.2502  0.0283
  354poe    c23 2079   5.665   5.918   3.927  0.0942 -0.0340  0.1487
  354poe    c23 2080   5.757   5.911   3.804  0.0174 -0.2607  0.1050
  354poe     o2 2081   5.693   5.991   3.708  0.4918  0.0353  0.0330
  354poe    c23 2082   5.754   5.999   3.581  0.2890  0.2365 -0.0536
  354poe    c23 2083   5.660   6.090   3.501  0.3021  0.2706 -0.0298
  354poe     o2 2084   5.528   6.047   3.527  0.2367  0.2114 -0.4547
  354poe    c23 2085   5.431   6.148   3.513 -0.5091 -0.4450 -0.1327
  354poe    c23 2086   5.305   6.124   3.599 -0.3129  0.4499  0.4222
  354poe     o2 2087   5.349   6.068   3.721  0.0836  0.2453  0.1871
  354poe    c31 2088   5.240   6.042   3.805 -0.0452 -0.1046 -0.0859
  355poe    c31 2089   3.772   0.869   3.221  0.5106 -0.5490  0.1887
  355poe     o2 2090   3.832   0.889   3.095  0.3470 -0.3951  0.1357
  355poe    c23 2091   3.820   0.775   3.014  0.3037 -0.2564 -0.0550
  355poe    c23 2092   3.885   0.779   2.874 -0.0857 -0.0764 -0.2312
  355poe     o2 2093   3.829   0.890   2.807 -0.1264  0.2921  0.4109
  355poe    c23 2094   3.901   0.929   2.693  0.8190  0.3753  1.0237
  355poe    c23 2095   3.914   1.083   2.690  0.2260  0.4154 -0.3692
  355poe     o2 2096   3.956   1.113   2.821  0.8262  0.2703 -0.5261
  355poe    c23 2097   3.975   1.252   2.833 -0.4053  0.4268 -0.2467
  355poe    c23 2098   4.011   1.278   2.981  0.3193 -0.1823 -0.3077
  355poe     o2 2099   3.923   1.193   3.051 -0.1897  0.4522 -0.1721
  355poe    c31 2100   3.904   1.240   3.183 -0.1000  0.3199 -0.1125
  356poe    c31 2101   4.085   5.037   0.154  0.2008 -0.2269  0.2967
  356poe     o2 2102   4.155   5.005   0.036 -0.6593  0.1658 -0.3286
  356poe    c23 2103   4.165   5.121  -0.044  0.2557  0.0161 -0.4408
  356poe    c23 2104   4.264   5.092  -0.158  0.6019  0.0711 -0.1548
  356poe     o2 2105   4.230   4.964  -0.207  0.2866  0.1237 -0.0764
  356poe    c23 2106   4.314   4.929  -0.314  0.0027  0.2346 -0.3340
  356poe    c23 2107   4.274   4.780  -0.328 -0.1430  0.2234  0.1739
  356poe     o2 2108   4.259   4.722  -0.201  0.0522  0.3314  0.2479
  356poe    c23 2109   4.195   4.596  -0.193 -0.9414  0.8207  0.2018
  356poe    c23 2110   4.188   4.579  -0.040  0.0683  0.0255  0.1725
  356poe     o2 2111   4.130   4.694   0.018 -0.3883 -0.0099 -0.2108
  356poe    c31 2112   4.093   4.687   0.154  0.4916  0.1316  0.0400
  357poe    c31 2113   6.085   4.586   6.534  0.1823  0.2759 -0.0192
  357poe     o2 2114   6.141   4.680   6.623  0.5501  0.0714 -0.0296
  357poe    c23 2115   6.043   4.753   6.694  0.2295 -0.1099 -0.2849
  357poe    c23 2116   6.087   4.898   6.716  0.3224 -0.1943  0.0837
  357poe     o2 2117   6.221   4.880   6.755  0.2831 -0.5428  0.0565
  357poe    c23 2118   6.296   4.997   6.732  0.0118 -0.2834  0.4767
  357poe    c23 2119   6.438   4.953   6.692  0.1246  0.6094 -0.1348
  357poe     o2 2120   6.416   4.832   6.624  0.4390  0.0268  0.7833
  357poe    c23 2121   6.526   4.761   6.572 -0.0207  0.3060 -0.5997
  357poe    c23 2122   6.490   4.623   6.514 -0.3347  0.1644 -0.0760
  357poe     o2 2123   6.410   4.557   6.609 -0.0245 -0.0477  0.0381
  357poe    c31 2124   6.423   4.422   6.570  0.3138  0.0995 -0.3634
  358poe    c31 2125   6.069   6.320   2.141  0.7410  0.2124  0.1947
  358poe     o2 2126   6.021   6.290   2.011  0.3860  0.0783  0.3574
  358poe    c23 2127   5.880   6.296   2.009  0.4104  0.3835 -0.4116
  358poe    c23 2128   5.843   6.213   1.884 -0.3176  0.0820 -0.0012
  358poe     o2 2129   5.950   6.222   1.793 -0.3757 -0.4492 -0.1254
  358poe    c23 2130   5.928   6.155   1.671  0.1549 -0.2309 -0.3421
  358poe    c23 2131   6.041   6.198   1.574  0.5222 -0.6908 -0.1221
  358poe     o2 2132   6.146   6.219   1.665  0.3260 -0.0762 -0.0328
  358poe    c23 2133   6.271   6.252   1.608  0.3645  0.1775  0.1924
  358poe    c23 2134   6.338   6.336   1.718  0.2163  0.0138  0.4082
  358poe     o2 2135   6.310   6.288   1.848 -0.2556  0.0954  0.3390
  358poe    c31 2136   6.394   6.348   1.945  0.1824  0.2534 -0.1363
  359poe    c31 2137   6.542   2.993   6.160 -0.1462 -0.3689  0.1538
  359poe     o2 2138   6.535   2.893   6.060 -0.3773  0.2196 -0.4215
  359poe    c23 2139   6.651   2.861   5.988 -0.2431 -0.3971  0.0675
  359poe    c23 2140   6.624   2.773   5.865 -0.5197  0.1550 -0.2706
  359poe     o2 2141   6.550   2.656   5.890 -0.4041  0.1518  0.0587
  359poe    c23 2142   6.547   2.558   5.788 -0.0468 -0.1061  0.2924
  359poe    c23 2143   6.494   2.427   5.849  0.0202 -0.2694  0.0024
  359poe     o2 2144   6.360   2.450   5.890  0.1642 -0.1296  0.3998
  359poe    c23 2145   6.288   2.333   5.924  0.0123 -0.0517  0.3429
  359poe    c23 2146   6.151   2.378   5.978 -0.0810  0.2770 -0.1643
  359poe     o2 2147   6.171   2.488   6.063  0.5352  0.1057 -0.0886
  359poe    c31 2148   6.076   2.485   6.167  0.4742  0.3533 -0.1375
  360poe    c31 2149   0.722   5.819   6.633 -0.1421  0.5069 -0.5057
  360poe     o2 2150   0.719   5.781   6.769  0.4516 -0.0770 -0.6496
  360poe    c23 2151   0.823   5.688   6.792  0.3212 -0.0375  0.1201
  360poe    c23 2152   0.855   5.677   6.943 -0.0269 -0.0289  0.1954
  360poe     o2 2153   0.729   5.678   7.006 -0.2707  0.1038 -0.2824
  360poe    c23 2154   0.738   5.680   7.147 -0.1699  0.1212 -0.2892
  360poe    c23 2155   0.596   5.705   7.201 -0.1073  0.4683 -0.2787
  360poe     o2 2156   0.531   5.812   7.135  0.0116  0.4330 -0.4553
  360poe    c23 2157   0.583   5.943   7.144  0.0864  0.3697  0.1024
  360poe    c23 2158   0.520   6.022   7.028  1.2099  0.8958 -0.1667
  360poe     o2 2159   0.551   5.966   6.902  0.3601 -0.1987  0.0914
  360poe    c31 2160   0.513   6.056   6.800  0.2471  0.0155  0.3189
  361poe    c31 2161   2.166   0.289   4.852 -0.4438 -0.0945 -0.2580
  361poe     o2 2162   2.088   0.280   4.735 -0.1842 -0.5066 -0.4018
  361poe    c23 2163   1.965   0.347   4.758 -0.0130 -0.1017 -0.6421
  361poe    c23 2164   1.881   0.348   4.630 -0.5712 -0.6578 -0.2891
  361poe     o2 2165   1.873   0.215   4.584  0.3531 -0.8762  0.1558
  361poe    c23 2166   1.843   0.208   4.446 -0.3003  0.1351  0.2296
  361poe    c23 2167   1.921   0.080   4.411 -0.3661  0.0627  0.3465
  361poe     o2 2168   2.061   0.083   4.431 -0.2744  0.1821 -0.3142
  361poe    c23 2169   2.129  -0.036   4.398  0.1715  0.4723 -0.4549
  361poe    c23 2170   2.268  -0.029   4.463 -0.1115  0.1365  0.2025
  361poe     o2 2171   2.261   0.027   4.592 -0.4945 -0.4675  0.4483
  361poe    c31 2172   2.389   0.031   4.650 -0.3459 -0.3095  0.1156
  362poe    c31 2173   4.309   4.593   1.428  0.4414  0.4526  0.5001
  362poe     o2 2174   4.378   4.545   1.315 -0.1287  0.1421  0.2782
  362poe    c23 2175   4.399   4.407   1.299  0.2525  0.2429 -0.1212
  362poe    c23 2176   4.455   4.389   1.157  0.0299 -0.4047 -0.1325
  362poe     o2 2177   4.383   4.465   1.063 -0.7464 -0.6478  0.2584
  362poe    c23 2178   4.426   4.429   0.933 -0.8524 -0.1344  0.0799
  362poe    c23 2179   4.411   4.543   0.831  0.4245 -0.0160  0.0096
  362poe     o2 2180   4.491   4.646   0.885  0.3038  0.1297 -0.0846
  362poe    c23 2181   4.504   4.759   0.801  0.1016  0.0835 -0.1768
  362poe    c23 2182   4.601   4.865   0.855 -0.1773  0.1320  0.2432
  362poe     o2 2183   4.539   4.931   0.963 -0.0102  0.1043  0.3572
  362poe    c31 2184   4.461   5.038   0.915 -0.0364 -0.1879 -0.2746
  363poe    c31 2185   1.313   0.688   3.722 -0.0809 -0.4800 -0.0016
  363poe     o2 2186   1.428   0.607   3.732  0.0423 -0.3200 -0.1399
  363poe    c23 2187   1.463   0.564   3.602 -0.1625 -0.1276 -0.2600
  363poe    c23 2188   1.604   0.505   3.624 -0.1296 -0.1575 -0.5464
  363poe     o2 2189   1.671   0.604   3.699 -0.3136 -0.1205 -0.4310
  363poe    c23 2190   1.804   0.600   3.743 -0.3963 -0.0703 -0.1730
  363poe    c23 2191   1.841   0.729   3.819  0.1004 -0.3165  0.0148
  363poe     o2 2192   1.726   0.724   3.900  0.1038  0.2066  0.0575
  363poe    c23 2193   1.719   0.839   3.982 -0.3664  0.5085 -0.3974
  363poe    c23 2194   1.591   0.819   4.065 -0.1542  0.7661 -0.0070
  363poe     o2 2195   1.478   0.807   3.982 -0.1372  0.0613  0.0613
  363poe    c31 2196   1.368   0.814   4.070 -0.0628  0.5441  0.1213
  364poe    c31 2197   1.471   0.951   0.360  0.2728  0.7757 -0.2291
  364poe     o2 2198   1.350   1.021   0.381 -0.1589 -0.0454  0.0913
  364poe    c23 2199   1.269   1.019   0.266  0.0849 -0.2272 -0.0792
  364poe    c23 2200   1.160   1.122   0.301  0.2491 -0.0810  0.0095
  364poe     o2 2201   1.140   1.115   0.440 -0.4957 -0.2160 -0.0972
  364poe    c23 2202   1.030   1.197   0.472  0.0971  0.4306  0.2989
  364poe    c23 2203   1.025   1.170   0.623  0.0168  0.1343  0.2432
  364poe     o2 2204   1.152   1.176   0.686  0.3430  0.0631 -0.4038
  364poe    c23 2205   1.131   1.196   0.824  0.3130 -0.2007 -0.3707
  364poe    c23 2206   1.262   1.178   0.903  0.1130  0.5869  0.1490
  364poe     o2 2207   1.295   1.044   0.876  0.0151  0.5526  0.2005
  364poe    c31 2208   1.411   1.001   0.944 -0.4761 -0.6870  0.2834
  365poe    c31 2209   5.867   4.965   0.719 -0.3666 -0.3098  0.3248
  365poe     o2 2210   5.914   4.971   0.852  0.0291 -0.1389  0.1785
  365poe    c23 2211   5.924   4.840   0.903 -0.5399 -0.1514  0.2594
  365poe    c23 2212   5.963   4.835   1.052 -0.2235 -0.2412  0.1752
  365poe     o2 2213   6.085   4.903   1.073 -0.3752  0.1039 -0.0574
  365poe    c23 2214   6.118   4.883   1.208  0.1806  0.0668 -0.1992
  365poe    c23 2215   6.210   5.002   1.244  0.2940 -0.1719  0.3083
  365poe     o2 2216   6.305   5.005   1.140  0.2929 -0.3293  0.3012
  365poe    c23 2217   6.378   5.126   1.144  0.4360 -0.3886 -0.3729
  365poe    c23 2218   6.466   5.122   1.017  0.8279 -0.4906 -0.1012
  365poe     o2 2219   6.418   5.018   0.935 -0.0846 -0.0938 -0.0811
  365poe    c31 2220   6.513   5.002   0.831 -0.0502  0.0009 -0.0645
  366poe    c31 2221   4.210   6.332   3.767 -0.3388 -0.1614  0.2068
  366poe     o2 2222   4.322   6.256   3.805 -0.1077  0.3314  0.5139
  366poe    c23 2223   4.414   6.283   3.702 -0.2523  0.5487  0.4429
  366poe    c23 2224   4.555   6.245   3.752 -0.2486 -0.4547 -0.3033
  366poe     o2 2225   4.582   6.301   3.878 -0.3503 -0.0102 -0.4748
  366poe    c23 2226   4.710   6.256   3.917 -0.5360 -0.0819  0.0660
  366poe    c23 2227   4.737   6.276   4.067  0.1578 -0.7119  0.0296
  366poe     o2 2228   4.645   6.231   4.164  0.1370 -0.1600  0.2716
  366poe    c23 2229   4.614   6.094   4.155  0.2559 -0.1751  0.0770
  366poe    c23 2230   4.462   6.069   4.148  0.2995 -0.3531 -0.2531
  366poe     o2 2231   4.391   6.129   4.042  0.0233 -0.0406  0.1060
  366poe    c31 2232   4.257   6.099   4.073 -0.1528  0.7143  0.1002
  367poe    c31 2233   5.794   3.252   5.030  0.7227 -0.6772 -0.1119
  367poe     o2 2234   5.881   3.248   5.141  0.4214 -0.1115  0.1434
  367poe    c23 2235   5.926   3.116   5.161  0.3052 -0.1746 -0.0089
  367poe    c23 2236   6.018   3.115   5.284  0.3625 -0.1933 -0.0515
  367poe     o2 2237   5.945   3.191   5.378  0.0803 -0.2382 -0.2359
  367poe    c23 2238   6.026   3.211   5.491 -0.1662  0.7050 -0.2177
  367poe    c23 2239   5.931   3.287   5.586  0.2383  0.4085  0.4348
  367poe     o2 2240   5.891   3.395   5.505  0.0856  0.0164 -0.0200
  367poe    c23 2241   5.775   3.464   5.546  0.0474 -0.0119 -0.0796
  367poe    c23 2242   5.734   3.557   5.430 -0.3727 -0.3461 -0.2020
  367poe     o2 2243   5.735   3.477   5.314  0.1852 -0.0353 -0.4163
  367poe    c31 2244   5.691   3.559   5.209 -0.0191  0.3827 -0.0079
  368poe    c31 2245   2.332   3.775   2.341  0.5233 -0.2211 -0.4653
  368poe     o2 2246   2.295   3.847   2.225  0.4851  0.5733  0.0281
  368poe    c23 2247   2.168   3.906   2.230  0.4680  0.5304  0.1189
  368poe    c23 2248   2.160   4.017   2.122 -0.2935  0.1767 -0.1970
  368poe     o2 2249   2.274   4.099   2.123  0.1051 -0.3775  0.2371
  368poe    c23 2250   2.244   4.219   2.056  0.0962 -0.1862  0.5806
  368poe    c23 2251   2.366   4.312   2.063  0.5335 -0.6786 -0.3001
  368poe     o2 2252   2.491   4.260   2.023  0.6810 -0.2340 -0.4315
  368poe    c23 2253   2.592   4.351   2.059  0.0121  0.1847  0.4236
  368poe    c23 2254   2.730   4.297   2.017 -0.0425  0.6018 -0.3127
  368poe     o2 2255   2.719   4.160   2.049  0.1209  0.6493 -0.0543
  368poe    c31 2256   2.846   4.098   2.049 -0.4541 -0.5519  0.1885
  369poe    c31 2257   3.495   0.715   2.646 -0.7331  0.3826 -0.1838
  369poe     o2 2258   3.432   0.707   2.772  0.0775  0.3401  0.2251
  369poe    c23 2259   3.439   0.841   2.815  0.5137  0.2188  0.5344
  369poe    c23 2260   3.363   0.859   2.948 -0.4203 -0.4065  0.0935
  369poe     o2 2261   3.238   0.794   2.950 -0.7659  0.2563 -0.0503
  369poe    c23 2262   3.174   0.757   3.071 -0.8064 -0.0026 -0.1511
  369poe    c23 2263   3.104   0.624   3.036 -0.3795 -0.3220  0.2033
  369poe     o2 2264   3.188   0.547   2.953 -0.1241  0.3729 -0.1970
  369poe    c23 2265   3.133   0.421   2.922 -0.0004  0.2945 -0.1011
  369poe    c23 2266   3.243   0.341   2.849 -0.1306 -0.0568  0.0854
  369poe     o2 2267   3.301   0.433   2.760 -0.1366  0.0654  0.2073
  369poe    c31 2268   3.382   0.368   2.665 -0.7348 -0.3312 -0.0382
  370poe    c31 2269   2.492   4.720   1.378  0.1142  0.1980 -0.5384
  370poe     o2 2270   2.381   4.669   1.448 -0.1734  0.7351 -0.5968
  370poe    c23 2271   2.294   4.778   1.470  0.0907  0.8095  0.1205
  370poe    c23 2272   2.185   4.728   1.567 -0.1642  0.3996 -0.3692
  370poe     o2 2273   2.144   4.599   1.527 -0.0292  0.1921  0.1471
  370poe    c23 2274   2.067   4.526   1.619 -0.0557 -0.3275 -0.2831
  370poe    c23 2275   2.169   4.427   1.679  0.3696  0.6870  0.7092
  370poe     o2 2276   2.239   4.390   1.562 -0.2773  0.0109  0.5252
  370poe    c23 2277   2.335   4.296   1.604 -0.0752  0.0084  0.0611
  370poe    c23 2278   2.445   4.287   1.497 -0.0494 -0.2219  0.1074
  370poe     o2 2279   2.478   4.410   1.438  0.4648 -0.1970  0.4520
  370poe    c31 2280   2.568   4.391   1.332 -0.3921 -0.0923 -0.3035
  371poe    c31 2281   0.972   4.086   2.320 -0.2550 -0.4065 -0.3961
  371poe     o2 2282   1.110   4.105   2.297 -0.2084 -0.1311  0.0823
  371poe    c23 2283   1.196   4.087   2.407  0.3223 -0.7176 -0.4164
  371poe    c23 2284   1.336   4.121   2.353  0.3676 -0.1168  0.0650
  371poe     o2 2285   1.351   4.062   2.226  0.0019  0.1444 -0.1017
  371poe    c23 2286   1.473   4.086   2.160 -0.0634  0.2587 -0.1814
  371poe    c23 2287   1.464   4.000   2.032  0.0892  0.0214 -0.0330
  371poe     o2 2288   1.335   4.012   1.975  0.1275  0.0680 -0.1088
  371poe    c23 2289   1.336   3.971   1.840  0.1849 -0.0887 -0.0619
  371poe    c23 2290   1.195   3.931   1.792  0.2163 -0.1869 -0.0716
  371poe     o2 2291   1.123   3.838   1.869 -0.1358  0.2654  0.1489
  371poe    c31 2292   1.003   3.808   1.801  0.1756  0.1819 -0.3621
  372poe    c31 2293   4.748   0.539   0.508  0.4866  0.5311 -0.7947
  372poe     o2 2294   4.862   0.457   0.511 -0.0261 -0.1627  0.3100
  372poe    c23 2295   4.897   0.436   0.646  0.6087 -0.3462  0.1187
  372poe    c23 2296   4.964   0.300   0.670  0.3844 -0.5173 -0.2186
  372poe     o2 2297   5.083   0.284   0.595  0.5391  0.1054 -0.1063
  372poe    c23 2298   5.149   0.167   0.638 -0.0336 -0.0725  0.3006
  372poe    c23 2299   5.244   0.114   0.529 -0.6776 -0.6874  0.0361
  372poe     o2 2300   5.211   0.183   0.410 -0.3660  0.0986  0.4046
  372poe    c23 2301   5.308   0.154   0.312 -0.7060 -0.0744  0.1185
  372poe    c23 2302   5.266   0.231   0.185  0.6485  0.1831 -0.1848
  372poe     o2 2303   5.228   0.358   0.233  0.3529 -0.0102  0.0940
  372poe    c31 2304   5.229   0.449   0.125 -0.0080  0.2697  0.3261
  373poe    c31 2305   3.781   1.345   3.792 -0.0126 -0.6606  0.0116
  373poe     o2 2306   3.902   1.321   3.860  0.1120 -0.0017  0.0295
  373poe    c23 2307   3.909   1.376   3.990 -0.1124 -0.4206  0.2196
  373poe    c23 2308   4.059   1.381   4.023 -0.2827  0.4133  0.9103
  373poe     o2 2309   4.117   1.256   3.990 -0.1166  0.8344 -0.4550
  373poe    c23 2310   4.257   1.276   3.989  0.0443 -0.1138  0.7354
  373poe    c23 2311   4.295   1.157   3.899 -0.2088 -0.0423  0.5326
  373poe     o2 2312   4.202   1.143   3.793  0.1019 -0.3880  0.3004
  373poe    c23 2313   4.230   1.216   3.675 -0.5219  0.2630  0.5449
  373poe    c23 2314   4.119   1.165   3.581 -0.0640 -0.0735  0.1799
  373poe     o2 2315   3.999   1.155   3.655 -0.2219  0.2853 -0.0281
  373poe    c31 2316   3.901   1.089   3.578  0.0731 -0.4701  0.2382
  374poe    c31 2317   6.486   6.382   0.761 -0.5194  0.3143  0.2094
  374poe     o2 2318   6.454   6.519   0.772 -0.6891  0.2984 -0.0822
  374poe    c23 2319   6.492   6.558   0.902 -0.1895 -0.2420 -0.0622
  374poe    c23 2320   6.432   6.698   0.926  0.2296 -0.0301 -0.2267
  374poe     o2 2321   6.409   6.755   0.799 -0.2849 -0.3197 -0.2679
  374poe    c23 2322   6.320   6.863   0.809  0.6573  0.4659 -0.1772
  374poe    c23 2323   6.265   6.893   0.668 -0.1526 -0.1047  0.0055
  374poe     o2 2324   6.236   6.765   0.618  0.3383 -0.1530 -0.1612
  374poe    c23 2325   6.205   6.771   0.480 -0.2145 -0.0379 -0.0356
  374poe    c23 2326   6.279   6.655   0.411  0.0104  0.0486  0.0580
  374poe     o2 2327   6.390   6.603   0.481 -0.2112  0.0291  0.3937
  374poe    c31 2328   6.445   6.497   0.406 -0.2561 -0.0683  0.4974
  375poe    c31 2329   1.767   1.928   5.104 -0.3817  0.1759  0.1955
  375poe     o2 2330   1.629   1.945   5.084 -0.3740  0.0118  0.0034
  375poe    c23 2331   1.561   1.917   5.205  0.1254 -0.4661  0.1774
  375poe    c23 2332   1.412   1.943   5.179  0.2039  0.0437  0.2103
  375poe     o2 2333   1.389   2.059   5.103  0.1603 -0.0995  0.0018
  375poe    c23 2334   1.249   2.072   5.110  0.1097 -0.4559 -0.3372
  375poe    c23 2335   1.185   2.181   5.023 -0.3297 -0.2166  0.2772
  375poe     o2 2336   1.189   2.135   4.889  0.7683  0.0558  0.2096
  375poe    c23 2337   1.142   2.244   4.813 -0.7355 -0.3949  0.4662
  375poe    c23 2338   1.188   2.246   4.666  0.6692 -0.0439  0.8987
  375poe     o2 2339   1.323   2.273   4.635  0.4852 -0.0691  0.0729
  375poe    c31 2340   1.344   2.295   4.497  0.3029 -0.0585  0.0465
  376poe    c31 2341   3.880   2.400   1.554  0.4654  0.0200 -0.0369
  376poe     o2 2342   3.988   2.412   1.464  0.2887 -0.1686 -0.2764
  376poe    c23 2343   3.964   2.331   1.351 -0.3311  0.1908 -0.4083
  376poe    c23 2344   4.086   2.340   1.257  0.0585 -0.1959  0.0587
  376poe     o2 2345   4.202   2.307   1.330  0.0792  0.0523  0.1381
  376poe    c23 2346   4.310   2.304   1.240 -0.0072 -0.6437  0.0492
  376poe    c23 2347   4.442   2.272   1.314  0.4407  0.3831 -0.2844
  376poe     o2 2348   4.412   2.307   1.447  0.2977 -0.1418 -0.1777
  376poe    c23 2349   4.501   2.273   1.550  0.2087 -0.8137 -0.3163
  376poe    c23 2350   4.449   2.322   1.687  0.0076  0.1069 -0.7164
  376poe     o2 2351   4.308   2.318   1.689  0.0179 -0.0823 -0.3399
  376poe    c31 2352   4.265   2.325   1.823 -0.8448 -0.8268 -0.5663
  377poe    c31 2353   5.427   1.453   6.630  0.7747  0.3847 -0.3115
  377poe     o2 2354   5.496   1.368   6.719  0.4247  0.1042 -0.3066
  377poe    c23 2355   5.554   1.441   6.825 -0.4954 -0.0252  0.2997
  377poe    c23 2356   5.611   1.336   6.922  0.0816 -0.2956 -0.3208
  377poe     o2 2357   5.522   1.235   6.961 -0.6136  0.4079 -0.0546
  377poe    c23 2358   5.581   1.124   7.025 -0.7816  0.1160 -0.3969
  377poe    c23 2359   5.489   1.001   7.024 -0.2974 -0.2630  0.2806
  377poe     o2 2360   5.434   0.998   6.894 -0.1083  0.3434  0.1839
  377poe    c23 2361   5.353   0.883   6.882  0.3404  0.0983 -0.5179
  377poe    c23 2362   5.333   0.851   6.733 -0.1374 -0.7265 -0.2824
  377poe     o2 2363   5.272   0.954   6.657  0.0420 -0.3825  0.0421
  377poe    c31 2364   5.276   0.933   6.518 -0.0287  0.3317 -0.0747
  378poe    c31 2365   3.607   1.910   2.708 -0.4478 -0.1403  0.5570
  378poe     o2 2366   3.562   2.044   2.702  0.2133  0.0775  0.3354
  378poe    c23 2367   3.564   2.128   2.814  0.4170 -0.2080  0.5458
  378poe    c23 2368   3.498   2.264   2.785  0.2871 -0.4079 -0.0921
  378poe     o2 2369   3.554   2.314   2.666 -0.1723  0.4355  0.0398
  378poe    c23 2370   3.516   2.446   2.632 -0.6486  0.2506 -0.1493
  378poe    c23 2371   3.562   2.464   2.486  0.2663 -0.0461  0.0966
  378poe     o2 2372   3.501   2.353   2.424  0.5604  0.0671 -0.3999
  378poe    c23 2373   3.548   2.342   2.291 -0.3114  0.3685 -0.7452
  378poe    c23 2374   3.508   2.199   2.253  0.1483  0.0958 -0.2287
  378poe     o2 2375   3.523   2.116   2.366  0.5662 -0.1295 -0.4489
  378poe    c31 2376   3.494   1.985   2.323  0.1156 -0.0924 -0.2542
  379poe    c31 2377   2.923   1.481   1.187  0.6130 -0.4027  0.2058
  379poe     o2 2378   3.016   1.425   1.098  0.0187 -0.2807 -0.4962
  379poe    c23 2379   2.985   1.443   0.961  0.3891 -0.1457 -0.5643
  379poe    c23 2380   3.081   1.358   0.877  0.6457 -0.0902 -0.3299
  379poe     o2 2381   3.204   1.391   0.939  0.4167  0.3425 -0.1006
  379poe    c23 2382   3.312   1.331   0.871 -0.3328 -0.3711 -0.6834
  379poe    c23 2383   3.432   1.357   0.963 -0.7348  0.0373 -0.2661
  379poe     o2 2384   3.382   1.322   1.090 -0.4577  0.2038 -0.1089
  379poe    c23 2385   3.468   1.385   1.182 -0.1183  0.1011 -0.3502
  379poe    c23 2386   3.385   1.389   1.312 -0.1813 -0.1476 -0.3807
  379poe     o2 2387   3.258   1.445   1.289 -0.1515  0.1844  0.2332
  379poe    c31 2388   3.184   1.443   1.409 -0.1814 -0.0457  0.2121
  380poe    c31 2389   0.638   2.685   5.608  0.0507 -0.5730 -0.2081
  380poe     o2 2390   0.688   2.777   5.514  0.8556 -0.6042  0.1832
  380poe    c23 2391   0.823   2.810   5.540  0.9139 -0.0481 -0.7828
  380poe    c23 2392   0.855   2.949   5.481  0.1844  0.5978  0.3024
  380poe     o2 2393   0.797   2.950   5.352  0.1872  0.2380  0.2952
  380poe    c23 2394   0.828   3.059   5.269 -0.5006 -0.0196 -0.3074
  380poe    c23 2395   0.739   3.054   5.143 -0.5651 -0.0010 -0.2621
  380poe     o2 2396   0.619   3.005   5.200  0.0243 -0.4204  0.6530
  380poe    c23 2397   0.546   2.949   5.093  0.2204 -0.0346  0.3129
  380poe    c23 2398   0.441   2.855   5.155  0.0517 -0.1870 -0.1959
  380poe     o2 2399   0.499   2.763   5.245  0.3687  0.4532  0.2661
  380poe    c31 2400   0.420   2.647   5.256  0.3672  0.5276  1.0792
  381poe    c31 2401   5.620   2.943   4.696 -0.1153 -0.2667 -0.0136
  381poe     o2 2402   5.511   3.002   4.627  0.0268 -0.0072 -0.0157
  381poe    c23 2403   5.406   2.991   4.720 -0.1802  0.2064 -0.2241
  381poe    c23 2404   5.276   3.031   4.648 -0.7101 -0.9065  0.0921
  381poe     o2 2405   5.286   3.147   4.568 -0.5103 -0.2741  1.0296
  381poe    c23 2406   5.187   3.164   4.469  0.3871  0.1807  0.1986
  381poe    c23 2407   5.254   3.109   4.342  0.3009  0.4604  0.0298
  381poe     o2 2408   5.394   3.125   4.342  0.3856 -0.2345 -0.0332
  381poe    c23 2409   5.457   3.092   4.220 -0.1787  0.3532 -0.4962
  381poe    c23 2410   5.605   3.131   4.243 -0.1629 -0.2024  0.4273
  381poe     o2 2411   5.649   3.082   4.367 -0.1545 -0.8193  0.1851
  381poe    c31 2412   5.785   3.117   4.375 -0.3814  0.0470  0.3529
  382poe    c31 2413   1.399   6.649   3.912 -0.1363  0.1981 -0.0814
  382poe     o2 2414   1.508   6.570   3.868 -0.0324  0.2184  0.1411
  382poe    c23 2415   1.606   6.645   3.801  0.4653  0.0769  0.6993
  382poe    c23 2416   1.694   6.541   3.730 -0.0758  0.0125  0.1146
  382poe     o2 2417   1.737   6.445   3.823 -0.4966 -0.1161  0.1806
  382poe    c23 2418   1.810   6.341   3.761 -0.0365  0.3649 -0.0888
  382poe    c23 2419   1.783   6.211   3.839  0.3982  0.6718  0.5890
  382poe     o2 2420   1.647   6.212   3.876  0.1293 -0.1669 -0.3182
  382poe    c23 2421   1.570   6.104   3.829  0.1179 -0.3388  0.0874
  382poe    c23 2422   1.428   6.149   3.868  0.1730 -0.2548  0.1917
  382poe     o2 2423   1.413   6.289   3.877 -0.1799 -0.2606 -0.2326
  382poe    c31 2424   1.280   6.318   3.914 -0.0818  0.2042 -0.2293
  383poe    c31 2425   6.149   0.978   0.343 -0.7840 -0.0663 -0.4115
  383poe     o2 2426   6.146   1.072   0.237 -0.3745  0.1059 -0.2698
  383poe    c23 2427   6.089   1.194   0.277 -0.7525 -0.2390  0.2618
  383poe    c23 2428   6.123   1.295   0.166 -0.1214 -0.4746  0.2355
  383poe     o2 2429   6.121   1.215   0.049 -0.2761 -0.0315 -0.0673
  383poe    c23 2430   6.180   1.290  -0.055 -0.6435  0.3484 -0.0056
  383poe    c23 2431   6.187   1.205  -0.183  0.5862 -0.1015  0.3464
  383poe     o2 2432   6.265   1.090  -0.159  0.5001 -0.2315  0.0045
  383poe    c23 2433   6.285   1.021  -0.281 -0.1846 -0.1003 -0.1884
  383poe    c23 2434   6.397   0.916  -0.271  0.0899  0.2134  0.0617
  383poe     o2 2435   6.380   0.833  -0.159 -0.0253  0.1581  0.0029
  383poe    c31 2436   6.458   0.717  -0.172 -0.5812 -0.2522  0.2764
  384poe    c31 2437   6.119   6.290   5.080 -0.2944 -0.4893 -0.4680
  384poe     o2 2438   6.021   6.292   5.182  0.0237  0.1819 -0.1723
  384poe    c23 2439   6.072   6.372   5.287 -0.3504  0.2688 -0.0563
  384poe    c23 2440   5.981   6.381   5.410  0.0899  0.2103  0.2754
  384poe     o2 2441   5.971   6.255   5.472  0.2869  0.2194  0.3244
  384poe    c23 2442   5.888   6.249   5.586 -0.0924  0.0101  0.0418
  384poe    c23 2443   5.939   6.139   5.680  0.3811  0.3040  0.1325
  384poe     o2 2444   5.954   6.023   5.601 -0.8074  0.1852  0.0712
  384poe    c23 2445   5.996   5.912   5.678  0.4475  0.3601 -0.3533
  384poe    c23 2446   5.957   5.787   5.598 -0.0213  0.2313  0.0746
  384poe     o2 2447   6.023   5.825   5.479  0.0001 -0.4155 -0.1269
  384poe    c31 2448   6.021   5.731   5.374 -0.2719 -0.4553 -0.0874
  385poe    c31 2449   1.772   1.247   1.004 -0.4033  0.0407  0.1752
  385poe     o2 2450   1.889   1.191   0.949 -0.3817  0.1871  0.0705
  385poe    c23 2451   1.977   1.296   0.917  0.3701 -0.3941  0.1927
  385poe    c23 2452   2.033   1.285   0.774  0.0974  0.3019  0.0229
  385poe     o2 2453   2.061   1.147   0.759 -0.2719  0.2708 -0.3772
  385poe    c23 2454   2.013   1.102   0.634 -0.3480 -0.0779 -0.2237
  385poe    c23 2455   1.999   0.950   0.652 -0.0843 -0.0613  0.1336
  385poe     o2 2456   1.924   0.937   0.771 -0.3159  0.2478  0.0245
  385poe    c23 2457   1.889   0.803   0.797  0.2399  0.1306  0.1916
  385poe    c23 2458   1.812   0.813   0.930 -0.2468 -0.1960 -0.0612
  385poe     o2 2459   1.874   0.913   1.009  0.1146 -0.6988  0.2994
  385poe    c31 2460   1.829   0.898   1.141  0.0583 -0.2830  0.3299
  386poe    c31 2461   2.748   0.020   0.208 -0.5286 -0.5644 -0.0102
  386poe     o2 2462   2.668   0.100   0.293  0.3338 -0.1259  0.4068
  386poe    c23 2463   2.546   0.112   0.223  0.3042  0.4216  0.5483
  386poe    c23 2464   2.445   0.193   0.306 -0.4231  0.0123  0.0663
  386poe     o2 2465   2.443   0.127   0.430  0.2233 -0.0582  0.0377
  386poe    c23 2466   2.400   0.193   0.547 -0.2205  0.5817 -0.4853
  386poe    c23 2467   2.515   0.284   0.596  0.4578 -0.4395 -0.1537
  386poe     o2 2468   2.636   0.215   0.577  0.2875 -0.6338 -0.5380
  386poe    c23 2469   2.738   0.309   0.553  0.0075 -0.2869 -0.3781
  386poe    c23 2470   2.872   0.235   0.570  0.0818 -0.1150 -0.2145
  386poe     o2 2471   2.867   0.129   0.476 -0.1906 -0.0235 -0.3056
  386poe    c31 2472   2.996   0.074   0.458  0.0586  0.3746  0.1976
  387poe    c31 2473   2.160   3.981   2.630  0.3555  0.1255 -0.1346
  387poe     o2 2474   2.117   4.086   2.714  0.2793 -0.0512  0.0475
  387poe    c23 2475   2.177   4.056   2.838  0.7652  0.9785  0.0681
  387poe    c23 2476   2.077   4.103   2.945  0.6632  0.6345  0.1261
  387poe     o2 2477   2.060   4.242   2.927  0.3679  0.5464 -0.2755
  387poe    c23 2478   1.935   4.300   2.956  0.1675 -0.3221  0.6462
  387poe    c23 2479   1.823   4.261   2.858  0.4133 -0.1928  0.3105
  387poe     o2 2480   1.874   4.287   2.729  0.4466 -0.7922  0.2008
  387poe    c23 2481   1.786   4.239   2.630  0.1078 -0.4145  0.3147
  387poe    c23 2482   1.844   4.296   2.499 -0.0351 -0.3629  0.2734
  387poe     o2 2483   1.983   4.271   2.494  0.0826  0.2867  0.2236
  387poe    c31 2484   2.042   4.294   2.368 -0.6601 -0.0801 -0.1981
  388poe    c31 2485   0.734   2.866   6.435 -0.6131 -0.5417  0.0625
  388poe     o2 2486   0.716   2.876   6.575  0.3188 -0.2328  0.1664
  388poe    c23 2487   0.593   2.938   6.608  0.4313  0.3228 -0.4292
  388poe    c23 2488   0.589   2.949   6.762  0.1549 -0.4051 -0.3817
  388poe     o2 2489   0.665   2.843   6.814 -0.1774 -0.2520  0.4355
  388poe    c23 2490   0.677   2.846   6.954 -0.2706 -0.1691  0.4415
  388poe    c23 2491   0.770   2.728   6.987  0.0355 -0.1698 -0.3844
  388poe     o2 2492   0.882   2.719   6.903  0.3485  0.1418 -0.0032
  388poe    c23 2493   0.983   2.646   6.970 -0.2872 -0.5417  0.2251
  388poe    c23 2494   1.090   2.595   6.872 -0.2228  0.1311 -0.0607
  388poe     o2 2495   1.153   2.691   6.790  0.0172  0.0790  0.0614
  388poe    c31 2496   1.270   2.628   6.742  0.1226 -0.3265  0.8380
  389poe    c31 2497   4.828   5.644   0.120  0.0597  0.0404  0.4719
  389poe     o2 2498   4.745   5.530   0.131 -0.2592  0.1635 -0.5871
  389poe    c23 2499   4.803   5.419   0.068 -0.4492 -0.3767  0.1817
  389poe    c23 2500   4.679   5.331   0.043 -0.5305 -0.0709 -0.5078
  389poe     o2 2501   4.621   5.330   0.171  0.3201 -0.5345 -0.1217
  389poe    c23 2502   4.514   5.239   0.174  0.2243 -0.4272 -0.3007
  389poe    c23 2503   4.441   5.273   0.305  0.2283 -0.0495 -0.3956
  389poe     o2 2504   4.412   5.411   0.293  0.4002  0.0259  0.0586
  389poe    c23 2505   4.382   5.465   0.420 -0.1146  0.3306 -0.1922
  389poe    c23 2506   4.401   5.617   0.397  0.1380  0.2827 -0.2968
  389poe     o2 2507   4.525   5.640   0.332  0.4431 -0.1591  0.1208
  389poe    c31 2508   4.553   5.777   0.345  0.2530 -0.0674 -0.4402
  390poe    c31 2509   6.684   2.995   3.903 -0.5164 -0.0449  0.1769
  390poe     o2 2510   6.605   3.104   3.944 -0.6628  0.0979 -0.4800
  390poe    c23 2511   6.673   3.163   4.053 -0.6379 -0.2840 -0.2885
  390poe    c23 2512   6.624   3.308   4.068 -0.1621 -0.1861  0.3243
  390poe     o2 2513   6.485   3.297   4.051 -0.1268 -0.2972  0.1086
  390poe    c23 2514   6.422   3.421   4.071  0.2662 -0.0187 -0.3704
  390poe    c23 2515   6.272   3.390   4.051  0.1987 -0.0228  0.1236
  390poe     o2 2516   6.259   3.315   3.932 -0.0967 -0.1779  0.2531
  390poe    c23 2517   6.146   3.361   3.861  0.3221  0.4096 -0.0450
  390poe    c23 2518   6.165   3.327   3.712 -0.2969  0.3063 -0.0996
  390poe     o2 2519   6.278   3.386   3.653  0.1450 -0.0244  0.4063
  390poe    c31 2520   6.236   3.445   3.532  0.4425  0.1232  0.3736
  391poe    c31 2521   5.289   0.913   0.954  0.1117  0.0888  0.4856
  391poe     o2 2522   5.207   0.946   1.064 -0.3223 -0.3082  0.2844
  391poe    c23 2523   5.192   1.081   1.102 -0.7116 -0.0733 -0.6539
  391poe    c23 2524   5.109   1.088   1.232 -0.1413  0.4739 -0.3087
  391poe     o2 2525   5.167   1.033   1.347 -0.4440  0.9232  0.0614
  391poe    c23 2526   5.092   1.069   1.461  0.1659  0.5319  0.5933
  391poe    c23 2527   5.148   1.009   1.592 -0.3653  0.2416  0.6875
  391poe     o2 2528   5.161   0.871   1.566 -0.2047  0.3006  0.4514
  391poe    c23 2529   5.175   0.798   1.686  0.2319 -0.0084  0.2149
  391poe    c23 2530   5.209   0.659   1.629 -0.5879  0.0227 -0.3605
  391poe     o2 2531   5.272   0.667   1.504 -0.4437  0.2739 -0.2728
  391poe    c31 2532   5.331   0.542   1.473 -0.0884  0.4736 -0.4120
  392poe    c31 2533   2.162   4.362   3.701 -0.1396 -0.4058 -0.3412
  392poe     o2 2534   2.187   4.347   3.563  0.2614 -0.1871 -0.2930
  392poe    c23 2535   2.321   4.307   3.547  0.3702 -0.2117  0.6338
  392poe    c23 2536   2.344   4.274   3.399 -0.1873  0.7413  0.3216
  392poe     o2 2537   2.282   4.374   3.322 -0.0808  0.1722 -0.5202
  392poe    c23 2538   2.251   4.335   3.190  0.1914 -0.3150 -0.4423
  392poe    c23 2539   2.174   4.455   3.132  0.0209 -0.2878 -0.1610
  392poe     o2 2540   2.060   4.461   3.214  0.1815  0.3803  0.0264
  392poe    c23 2541   1.985   4.581   3.217  0.0521  0.3061 -0.1727
  392poe    c23 2542   1.906   4.588   3.349  0.4993  0.3147  0.1005
  392poe     o2 2543   1.954   4.505   3.452 -0.3508 -0.6305 -0.2450
  392poe    c31 2544   1.886   4.543   3.570  0.0774  0.1587 -0.2466
  393poe    c31 2545   6.213   1.495   3.298 -0.3862 -0.3471  0.1861
  393poe     o2 2546   6.266   1.616   3.249 -0.1354 -0.5158  0.0419
  393poe    c23 2547   6.339   1.596   3.130 -0.0781  0.0152 -0.0145
  393poe    c23 2548   6.346   1.735   3.063 -0.3024  0.0383  0.0087
  393poe     o2 2549   6.217   1.792   3.065 -0.4110 -0.1849 -0.6144
  393poe    c23 2550   6.237   1.925   3.021  0.8110 -0.0545  0.2884
  393poe    c23 2551   6.173   2.010   3.132 -0.0872 -0.1162 -0.1744
  393poe     o2 2552   6.170   1.935   3.251 -0.2806  0.0933 -0.0460
  393poe    c23 2553   6.165   2.019   3.365 -0.3446 -0.2537  0.2070
  393poe    c23 2554   6.147   1.924   3.485  0.4506 -0.5003  0.1390
  393poe     o2 2555   6.216   1.806   3.448  0.5136 -0.4150 -0.0160
  393poe    c31 2556   6.275   1.757   3.566 -0.2344 -0.4239  0.3605
  394poe    c31 2557   2.244   5.440   6.176  0.6993 -0.5872 -0.2786
  394poe     o2 2558   2.240   5.433   6.317  0.1213 -0.3706 -0.2776
  394poe    c23 2559   2.151   5.529   6.368  0.3221 -0.3427  0.0234
  394poe    c23 2560   2.168   5.535   6.521  0.1698 -0.0429  0.0282
  394poe     o2 2561   2.168   5.396   6.545  0.2732 -0.0951 -0.2716
  394poe    c23 2562   2.210   5.375   6.678  0.1208  0.9526 -0.0451
  394poe    c23 2563   2.243   5.226   6.696 -0.2063  0.9008  0.1392
  394poe     o2 2564   2.334   5.192   6.593 -0.2027 -0.1379  0.4664
  394poe    c23 2565   2.325   5.056   6.558 -0.4730 -0.0452  0.1692
  394poe    c23 2566   2.392   5.037   6.421 -0.4213  0.2808  0.1486
  394poe     o2 2567   2.357   5.141   6.332 -0.0874  0.1254 -0.1697
  394poe    c31 2568   2.457   5.150   6.233  0.1422  0.4571  0.0861
  395poe    c31 2569   3.442   1.670   6.012  0.3215  0.5075  0.3330
  395poe     o2 2570   3.466   1.543   5.953  0.2240  0.8587 -0.4842
  395poe    c23 2571   3.599   1.533   5.909  0.2743 -0.3753 -0.0752
  395poe    c23 2572   3.619   1.386   5.866  0.4011 -0.3385 -0.1447
  395poe     o2 2573   3.506   1.330   5.802  0.0094 -0.1793  0.3932
  395poe    c23 2574   3.508   1.192   5.772 -0.4165 -0.2163  0.5327
  395poe    c23 2575   3.381   1.191   5.685  0.1073 -0.0697 -0.2434
  395poe     o2 2576   3.280   1.257   5.758  0.2871  0.4946 -0.4986
  395poe    c23 2577   3.162   1.273   5.682  0.1480  0.1176 -0.3645
  395poe    c23 2578   3.090   1.399   5.733 -0.1019 -0.0625 -0.2719
  395poe     o2 2579   3.191   1.485   5.781 -0.5224  0.0951  0.3398
  395poe    c31 2580   3.141   1.617   5.789 -0.0244  0.3495 -0.5978
  396poe    c31 2581   5.707   1.929   6.529  0.0783 -0.3043  0.5300
  396poe     o2 2582   5.623   2.029   6.582  0.3246  0.0948  0.1773
  396poe    c23 2583   5.608   2.003   6.720 -0.1767 -0.2512  0.0606
  396poe    c23 2584   5.539   2.128   6.778  0.4618  0.0171  0.2443
  396poe     o2 2585   5.443   2.172   6.686  0.2787 -0.0501  0.4025
  396poe    c23 2586   5.411   2.304   6.723 -0.2047 -0.0357 -0.0540
  396poe    c23 2587   5.335   2.365   6.603  0.5014  0.5387 -0.2192
  396poe     o2 2588   5.416   2.326   6.495  0.5513  0.1539 -0.0478
  396poe    c23 2589   5.361   2.361   6.369 -0.2030  0.3889  0.3381
  396poe    c23 2590   5.480   2.299   6.293 -0.4865  0.0483  0.1717
  396poe     o2 2591   5.509   2.167   6.333 -0.1598  0.0958  0.0948
  396poe    c31 2592   5.593   2.107   6.238  0.1119  0.0077  0.3886
  397poe    c31 2593   3.316   2.724   2.885  0.0010  0.3341 -0.7548
  397poe     o2 2594   3.438   2.792   2.903  0.2992 -0.2206 -0.6537
  397poe    c23 2595   3.409   2.913   2.969  0.3758 -0.2793 -0.5126
  397poe    c23 2596   3.538   2.977   3.025  0.2842 -0.1022 -0.5043
  397poe     o2 2597   3.636   2.881   3.058 -0.0265 -0.0407  0.6414
  397poe    c23 2598   3.770   2.925   3.067  0.2169 -0.5899 -0.2033
  397poe    c23 2599   3.882   2.820   3.079  0.3602 -0.3699  0.4019
  397poe     o2 2600   3.911   2.787   2.945 -0.0135  0.2893  0.1547
  397poe    c23 2601   4.013   2.692   2.924 -0.1777  0.2012 -0.2538
  397poe    c23 2602   4.031   2.679   2.771 -0.4804 -0.2612 -0.2481
  397poe     o2 2603   3.911   2.664   2.698 -0.6141 -0.7239  0.0588
  397poe    c31 2604   3.942   2.673   2.561 -0.0131 -0.0134  0.2362
  398poe    c31 2605   3.868   0.218   5.863  0.2122  0.5362 -0.3380
  398poe     o2 2606   3.737   0.168   5.877  0.4171  0.0296 -0.2085
  398poe    c23 2607   3.655   0.208   5.769 -0.0936  0.1223  0.2113
  398poe    c23 2608   3.509   0.175   5.806 -0.0337 -0.1576  0.2009
  398poe     o2 2609   3.517   0.036   5.829  0.0396 -0.1961 -0.0565
  398poe    c23 2610   3.397  -0.034   5.853  0.1271 -0.3639 -0.1035
  398poe    c23 2611   3.443  -0.170   5.908  0.1085 -0.2460  0.2073
  398poe     o2 2612   3.550  -0.147   5.997 -0.0617 -0.2312  0.4077
  398poe    c23 2613   3.620  -0.269   6.013  0.0767 -0.1669  0.2821
  398poe    c23 2614   3.764  -0.231   6.054  0.0893  0.2859 -0.1687
  398poe     o2 2615   3.808  -0.114   5.988 -0.3501  0.1151 -0.7709
  398poe    c31 2616   3.949  -0.111   5.994 -0.3652  0.2600 -0.4460
  399poe    c31 2617   1.499   6.326   1.710 -0.1426  0.3247  0.5645
  399poe     o2 2618   1.465   6.225   1.802  0.1803  0.1548  0.4973
  399poe    c23 2619   1.361   6.256   1.893  0.0071  0.0387  0.3396
  399poe    c23 2620   1.330   6.142   1.992  0.2006 -0.3194 -0.0048
  399poe     o2 2621   1.272   6.026   1.938 -0.5484 -0.0089  0.1218
  399poe    c23 2622   1.236   5.929   2.033 -0.3176 -0.3520 -0.1390
  399poe    c23 2623   1.191   5.798   1.965 -0.6447 -0.0626 -0.4871
  399poe     o2 2624   1.284   5.790   1.860  0.2835 -0.8558  0.3668
  399poe    c23 2625   1.265   5.668   1.791 -0.2607 -0.2097 -0.6575
  399poe    c23 2626   1.362   5.668   1.671  0.1653 -0.2452 -0.3172
  399poe     o2 2627   1.369   5.800   1.624  0.4459 -0.1416  0.0111
  399poe    c31 2628   1.371   5.823   1.484 -0.1459 -0.8965 -0.1259
  400poe    c31 2629   5.788   0.707   4.934 -0.2216  0.1649  0.0620
  400poe     o2 2630   5.824   0.802   5.032 -0.4234  0.7536 -0.4271
  400poe    c23 2631   5.710   0.810   5.114 -0.0117 -0.2243  0.2638
  400poe    c23 2632   5.741   0.906   5.229  0.2525  0.5213 -0.4215
  400poe     o2 2633   5.783   1.027   5.169  0.2261  0.4253 -0.6317
  400poe    c23 2634   5.821   1.123   5.265  0.5570 -0.3783  0.0504
  400poe    c23 2635   5.876   1.239   5.181 -0.4001 -0.0673 -0.1576
  400poe     o2 2636   5.977   1.195   5.094 -0.1566  0.3263 -0.0800
  400poe    c23 2637   6.065   1.303   5.072  0.2499  0.1222  0.5224
  400poe    c23 2638   6.201   1.268   5.011 -0.0913  0.1064 -0.2354
  400poe     o2 2639   6.285   1.186   5.089 -0.4669 -0.1899 -0.1376
  400poe    c31 2640   6.408   1.174   5.021 -0.2135  0.3695  0.2126
  401poe    c31 2641   3.331   5.793   3.822 -0.3660  0.4234  0.4061
  401poe     o2 2642   3.406   5.785   3.940 -0.0355 -0.0183  0.1687
  401poe    c23 2643   3.528   5.715   3.929  0.3904  0.6345  0.6176
  401poe    c23 2644   3.595   5.690   4.065  0.0969  0.0231  0.6525
  401poe     o2 2645   3.478   5.682   4.143 -0.0966 -0.1864  0.3453
  401poe    c23 2646   3.510   5.675   4.281 -0.1751 -0.4806  0.3485
  401poe    c23 2647   3.368   5.661   4.339 -0.2627  0.0658  0.2641
  401poe     o2 2648   3.295   5.767   4.281  0.0643 -0.1033 -0.4803
  401poe    c23 2649   3.156   5.752   4.305  0.2747  0.0518  0.9090
  401poe    c23 2650   3.111   5.880   4.234  0.1788 -0.3988  0.1528
  401poe     o2 2651   3.180   5.901   4.113 -0.1641  0.2711  0.0633
  401poe    c31 2652   3.129   6.013   4.044 -0.0139  0.1531 -0.2402
  402poe    c31 2653   5.449   6.061   1.035  0.7946  0.3948  0.2323
  402poe     o2 2654   5.399   5.982   0.930 -0.4080  0.3561  0.8236
  402poe    c23 2655   5.369   6.057   0.814  0.6375 -0.6942 -0.1556
  402poe    c23 2656   5.286   5.974   0.714 -0.0616  0.2740 -0.3935
  402poe     o2 2657   5.358   5.853   0.703  0.2932  0.4677 -0.2214
  402poe    c23 2658   5.329   5.790   0.580 -0.2717  0.5842 -0.1519
  402poe    c23 2659   5.352   5.639   0.606 -0.0292  0.6540  0.0534
  402poe     o2 2660   5.274   5.598   0.716  0.2670  0.1511  0.0781
  402poe    c23 2661   5.288   5.458   0.726 -0.3155  0.0460 -0.5155
  402poe    c23 2662   5.205   5.381   0.830  0.3399  0.1773  0.1124
  402poe     o2 2663   5.247   5.402   0.963  0.5746  0.0819  0.0527
  402poe    c31 2664   5.189   5.314   1.057  0.4579  0.6378  0.5004
  403poe    c31 2665   6.199   0.478   2.350  0.0447  0.2099 -0.1136
  403poe     o2 2666   6.118   0.365   2.376 -0.1503  0.3345 -0.1769
  403poe    c23 2667   6.184   0.288   2.473 -0.3726 -0.1726 -0.4279
  403poe    c23 2668   6.106   0.159   2.504  0.0890 -0.2743  0.3411
  403poe     o2 2669   6.064   0.092   2.387  0.0613  0.2471  0.0498
  403poe    c23 2670   5.931   0.045   2.400  0.1895 -0.2366 -0.3688
  403poe    c23 2671   5.830   0.116   2.308 -0.0539 -0.0601  0.0363
  403poe     o2 2672   5.826   0.255   2.333 -0.0138 -0.1037  0.2860
  403poe    c23 2673   5.724   0.316   2.258 -0.0200 -0.1713  0.2401
  403poe    c23 2674   5.784   0.451   2.214 -0.1330 -0.1497  0.1528
  403poe     o2 2675   5.907   0.414   2.156 -0.1878  0.0305 -0.0800
  403poe    c31 2676   5.942   0.503   2.052  0.2239  0.3460  0.3276
  404poe    c31 2677   6.697   5.900   5.859 -0.3894 -0.2545  0.5151
  404poe     o2 2678   6.710   5.785   5.939 -0.1418 -0.3318  0.3628
  404poe    c23 2679   6.620   5.791   6.048  0.0132  0.1177  0.4697
  404poe    c23 2680   6.579   5.648   6.086  0.1332 -0.1412 -0.3463
  404poe     o2 2681   6.704   5.583   6.079  0.3079  0.1782 -0.1999
  404poe    c23 2682   6.689   5.443   6.089 -0.0966  0.2387  0.0745
  404poe    c23 2683   6.832   5.387   6.078 -0.3075 -0.2693 -0.0697
  404poe     o2 2684   6.889   5.454   5.968 -0.2039 -0.1664  0.0468
  404poe    c23 2685   7.030   5.465   5.972 -0.2187 -0.1032  0.4325
  404poe    c23 2686   7.058   5.540   5.841 -0.2019 -0.5211  0.1944
  404poe     o2 2687   6.974   5.653   5.834  0.6275  0.0898 -0.0240
  404poe    c31 2688   7.006   5.714   5.711  0.0949  0.0817 -0.1702
  405poe    c31 2689   4.687   4.369   2.877 -0.1926 -0.4151  0.0588
  405poe     o2 2690   4.608   4.321   2.984 -0.3284  0.2768  0.2720
  405poe    c23 2691   4.703   4.258   3.068  0.0801  0.2415 -0.2145
  405poe    c23 2692   4.624   4.167   3.163  0.1528  0.4641  0.0580
  405poe     o2 2693   4.534   4.238   3.247  0.0022  0.0826  0.2214
  405poe    c23 2694   4.493   4.148   3.348 -0.5770 -0.2173 -0.2708
  405poe    c23 2695   4.413   4.210   3.463 -0.1179 -0.3896  0.1445
  405poe     o2 2696   4.305   4.285   3.413  0.1899 -0.0063  0.0461
  405poe    c23 2697   4.237   4.356   3.515  0.0377 -0.3266  0.1700
  405poe    c23 2698   4.131   4.439   3.441  0.5802  0.5176  0.3170
  405poe     o2 2699   4.204   4.489   3.331  0.3086  0.4987  0.1250
  405poe    c31 2700   4.128   4.565   3.239 -0.3376 -0.7895 -0.4285
  406poe    c31 2701   0.169   0.936   6.643  0.0228  0.1818  0.1281
  406poe     o2 2702   0.300   0.951   6.690 -0.0699 -0.0630  0.4715
  406poe    c23 2703   0.351   1.082   6.675  0.0744 -0.1678  0.0106
  406poe    c23 2704   0.501   1.088   6.709  0.1415  0.1976 -0.3376
  406poe     o2 2705   0.573   0.989   6.639  0.0149 -0.0344 -0.1450
  406poe    c23 2706   0.693   0.962   6.706 -0.3341 -0.4428  0.3155
  406poe    c23 2707   0.698   0.808   6.718  0.0947 -0.4373  0.2214
  406poe     o2 2708   0.572   0.762   6.760  0.1230 -0.2080  0.5623
  406poe    c23 2709   0.579   0.622   6.753  0.0906 -0.1955  0.2801
  406poe    c23 2710   0.444   0.568   6.806 -0.1166 -0.5589 -0.5891
  406poe     o2 2711   0.339   0.651   6.762  0.2927  0.2312 -0.0947
  406poe    c31 2712   0.212   0.604   6.802  0.4748  0.0741  0.3108
  407poe    c31 2713   0.538   5.143   3.962  0.3153 -0.5690  0.0571
  407poe     o2 2714   0.537   5.044   4.063 -0.2335  0.0499  0.6668
  407poe    c23 2715   0.422   5.055   4.144 -0.8104  0.4257 -0.1856
  407poe    c23 2716   0.439   4.935   4.238  0.2828  0.7791  0.0847
  407poe     o2 2717   0.575   4.931   4.274  0.3987  0.0210 -0.4036
  407poe    c23 2718   0.599   4.807   4.337 -0.1735 -0.3094 -0.8309
  407poe    c23 2719   0.738   4.816   4.402 -0.3868 -0.4063 -0.3509
  407poe     o2 2720   0.807   4.894   4.307 -0.1897  0.4674  0.4935
  407poe    c23 2721   0.903   4.979   4.365 -0.1090  0.4424  0.3967
  407poe    c23 2722   0.952   5.069   4.250 -0.1073 -0.3633 -0.2407
  407poe     o2 2723   0.844   5.127   4.179 -0.3727 -0.0983  0.3789
  407poe    c31 2724   0.837   5.266   4.206 -0.4958  0.0210 -0.2546
  408poe    c31 2725   5.061   5.333   5.936  0.2372  0.7499  0.8461
  408poe     o2 2726   5.124   5.356   5.812 -0.2374  0.0532  0.4699
  408poe    c23 2727   5.168   5.230   5.767  0.0365  0.2835  0.0836
  408poe    c23 2728   5.206   5.245   5.619  0.1195  0.1368  0.0888
  408poe     o2 2729   5.269   5.371   5.621  0.0908  0.1495  0.1996
  408poe    c23 2730   5.310   5.429   5.499  0.0716  0.6352  0.4208
  408poe    c23 2731   5.386   5.557   5.537  0.7645  0.2257  0.4353
  408poe     o2 2732   5.301   5.622   5.628  0.2460 -0.0502  0.1540
  408poe    c23 2733   5.346   5.744   5.683  0.5821 -0.3479  0.5486
  408poe    c23 2734   5.259   5.775   5.807  0.8157  0.1488  0.5894
  408poe     o2 2735   5.234   5.655   5.876 -0.1566 -0.0395 -0.0754
  408poe    c31 2736   5.183   5.686   6.004  0.4478 -0.5665  0.2994
  409poe    c31 2737   2.533   2.570   5.309  0.3345 -0.0104  0.3173
  409poe     o2 2738   2.529   2.688   5.231  0.0187 -0.1244  0.1586
  409poe    c23 2739   2.601   2.787   5.301 -0.2898  0.3412 -0.1835
  409poe    c23 2740   2.556   2.918   5.233 -0.1421  0.2112 -0.5350
  409poe     o2 2741   2.427   2.890   5.184 -0.3037  0.2702 -0.1495
  409poe    c23 2742   2.372   2.997   5.110 -0.2254  0.1431 -0.3935
  409poe    c23 2743   2.229   2.970   5.060 -0.4129 -0.5760  0.5008
  409poe     o2 2744   2.242   2.837   5.014  0.1649 -0.3231 -0.0804
  409poe    c23 2745   2.117   2.774   5.026 -0.0585  0.1874  0.3083
  409poe    c23 2746   2.162   2.628   5.005  0.3008  0.3338  0.0523
  409poe     o2 2747   2.277   2.606   5.084  0.3735 -0.0954 -0.1735
  409poe    c31 2748   2.299   2.467   5.077  0.0088 -0.2041  0.7314
  410poe    c31 2749   3.628   5.288   3.435  0.0689 -0.5139 -0.1800
  410poe     o2 2750   3.524   5.298   3.340 -0.1583 -0.3476  0.0830
  410poe    c23 2751   3.508   5.180   3.264  0.0738 -0.5941  0.4138
  410poe    c23 2752   3.380   5.192   3.180  0.6827 -0.2721 -0.4870
  410poe     o2 2753   3.277   5.252   3.255  0.2117 -0.9385 -0.5863
  410poe    c23 2754   3.168   5.294   3.176  0.1165  0.4636  0.2544
  410poe    c23 2755   3.119   5.423   3.245 -0.4448  0.0151  0.7073
  410poe     o2 2756   3.239   5.491   3.275 -0.3178  0.1055  0.0121
  410poe    c23 2757   3.215   5.598   3.363  0.1737 -0.6763  1.1125
  410poe    c23 2758   3.347   5.672   3.391 -0.1352  0.1984  0.3200
  410poe     o2 2759   3.444   5.575   3.424  0.0333  0.2855  0.0816
  410poe    c31 2760   3.570   5.637   3.417  0.1107  0.0455 -0.7482
  411poe    c31 2761   6.367   3.103   4.785 -0.3706  0.1659  0.2449
  411poe     o2 2762   6.376   3.000   4.881  0.4783 -0.0312 -0.0402
  411poe    c23 2763   6.416   3.052   5.006  0.5999  0.0115 -0.0968
  411poe    c23 2764   6.427   2.921   5.087  0.4293 -0.0646 -0.1975
  411poe     o2 2765   6.461   2.815   5.001  0.3545 -0.7040  0.5584
  411poe    c23 2766   6.464   2.692   5.071  0.0987 -0.5525  0.8349
  411poe    c23 2767   6.485   2.575   4.974 -0.2822 -0.2770  0.4156
  411poe     o2 2768   6.384   2.605   4.881 -0.2342  0.4538  0.5908
  411poe    c23 2769   6.394   2.558   4.748 -0.8747  1.0857  0.3101
  411poe    c23 2770   6.505   2.635   4.675 -0.3795 -0.1557 -0.2705
  411poe     o2 2771   6.483   2.773   4.691 -0.4098 -0.1400 -0.4403
  411poe    c31 2772   6.600   2.834   4.640 -0.2444 -0.3031 -0.2555
  412poe    c31 2773   1.963   4.405   0.684  0.0168 -0.0833  0.2106
  412poe     o2 2774   2.075   4.479   0.642 -0.0642 -0.1505 -0.1316
  412poe    c23 2775   2.033   4.606   0.598 -0.6909 -0.1678  0.3924
  412poe    c23 2776   2.129   4.679   0.501 -0.9164 -0.4303 -0.0322
  412poe     o2 2777   2.125   4.622   0.372 -0.0215  0.0795 -0.2897
  412poe    c23 2778   2.163   4.717   0.275 -0.3458  0.2598 -0.2410
  412poe    c23 2779   2.107   4.661   0.143  0.3145 -0.3032 -0.2869
  412poe     o2 2780   2.141   4.524   0.143 -0.3951 -0.4823  0.1578
  412poe    c23 2781   2.055   4.454   0.055 -0.6652 -0.1758  0.1765
  412poe    c23 2782   2.061   4.309   0.106 -0.6646 -0.2394 -0.0063
  412poe     o2 2783   2.078   4.316   0.246  0.1732 -0.0948 -0.1100
  412poe    c31 2784   2.035   4.191   0.297 -0.1069  0.0714  0.0613
  413poe    c31 2785   5.589   1.449   1.977  0.0713 -0.3700  0.1690
  413poe     o2 2786   5.526   1.529   2.075  0.4150 -0.3534  0.3764
  413poe    c23 2787   5.584   1.658   2.080 -0.3575  0.0290 -0.2632
  413poe    c23 2788   5.541   1.704   2.221 -0.0053  0.1184 -0.1846
  413poe     o2 2789   5.400   1.701   2.212 -0.0067  0.2072 -0.1978
  413poe    c23 2790   5.355   1.758   2.333  0.3874  0.5024 -0.1864
  413poe    c23 2791   5.206   1.720   2.343  0.6528 -0.4297  0.3483
  413poe     o2 2792   5.205   1.583   2.309  0.5360 -0.3292 -0.0652
  413poe    c23 2793   5.085   1.524   2.352  0.5586 -0.2050  0.1712
  413poe    c23 2794   5.037   1.410   2.261  0.6070  0.0710 -0.2007
  413poe     o2 2795   5.106   1.287   2.258  0.2470 -0.1375 -0.0362
  413poe    c31 2796   5.045   1.201   2.165 -0.3978  0.0328  0.2249
  414poe    c31 2797   6.318   4.435   4.208  0.4408  0.3969  0.4935
  414poe     o2 2798   6.408   4.537   4.172  0.1903  0.3275 -0.3476
  414poe    c23 2799   6.356   4.652   4.236 -0.2230  0.2463 -0.5293
  414poe    c23 2800   6.463   4.760   4.211  0.2654 -0.1688 -0.2454
  414poe     o2 2801   6.498   4.758   4.075 -0.0176 -0.0059 -0.3204
  414poe    c23 2802   6.594   4.856   4.041 -0.0562  0.0885 -0.1576
  414poe    c23 2803   6.626   4.821   3.895  0.1915  0.2449 -0.1424
  414poe     o2 2804   6.631   4.680   3.892  0.3459  0.2524 -0.2540
  414poe    c23 2805   6.661   4.626   3.765  0.0183 -0.1754 -0.1542
  414poe    c23 2806   6.647   4.474   3.780 -0.2323 -0.1267  0.1190
  414poe     o2 2807   6.532   4.446   3.856 -0.6676 -0.0713 -0.5094
  414poe    c31 2808   6.500   4.309   3.860  0.2215 -0.2715  0.4278
  415poe    c31 2809   5.010   1.071   4.352  0.3218 -0.0593  0.1651
  415poe     o2 2810   5.150   1.078   4.339  0.2632  0.2059 -0.3394
  415poe    c23 2811   5.208   1.200   4.378 -0.0821  0.2298  0.1145
  415poe    c23 2812   5.335   1.229   4.295 -0.1109  0.1285  0.0343
  415poe     o2 2813   5.397   1.104   4.317 -0.0848  0.1537  0.1027
  415poe    c23 2814   5.529   1.112   4.270 -0.0937 -0.1224  0.0339
  415poe    c23 2815   5.588   0.981   4.327 -0.1715 -0.1130  0.1361
  415poe     o2 2816   5.484   0.887   4.319 -0.2888  0.0578 -0.3700
  415poe    c23 2817   5.485   0.792   4.422  0.1179 -0.2534 -0.6597
  415poe    c23 2818   5.346   0.727   4.437  0.0971 -0.0181  0.2381
  415poe     o2 2819   5.255   0.833   4.451  0.3388  0.2096  0.0799
  415poe    c31 2820   5.199   0.821   4.580 -0.3368  0.4164 -0.1940
  416poe    c31 2821   1.087   1.806   0.472  0.5331  0.0035  0.1475
  416poe     o2 2822   1.174   1.917   0.465  0.6010 -0.1103 -1.0150
  416poe    c23 2823   1.104   2.026   0.411  0.3203  0.0946 -0.2503
  416poe    c23 2824   1.157   2.164   0.454  0.3572 -0.0836  0.2820
  416poe     o2 2825   1.281   2.202   0.397  0.3386 -0.0897  0.2376
  416poe    c23 2826   1.332   2.317   0.460 -0.6006  0.6744 -0.3589
  416poe    c23 2827   1.481   2.332   0.426 -0.3056 -0.0681  0.5459
  416poe     o2 2828   1.554   2.213   0.446 -0.1896 -0.1623 -0.3757
  416poe    c23 2829   1.693   2.231   0.447 -0.1618 -0.3883  0.0682
  416poe    c23 2830   1.752   2.096   0.491 -0.4026 -0.7014 -0.5637
  416poe     o2 2831   1.690   1.990   0.421 -0.8377 -0.7752 -0.0767
  416poe    c31 2832   1.756   1.869   0.449  0.4284 -0.2073 -0.5094
  417poe    c31 2833   1.549   4.147   6.446  0.2559 -0.0948 -0.1412
  417poe     o2 2834   1.608   4.110   6.324  0.2812  0.0066 -0.1604
  417poe    c23 2835   1.560   3.983   6.285  0.0798 -0.1602  0.6088
  417poe    c23 2836   1.629   3.952   6.150 -0.2286  0.3227  0.3396
  417poe     o2 2837   1.769   3.941   6.148 -0.2528 -0.0003  0.4272
  417poe    c23 2838   1.829   3.927   6.021 -0.3200 -0.1751  0.4146
  417poe    c23 2839   1.981   3.906   6.035 -0.3842 -0.6449  0.4421
  417poe     o2 2840   2.037   3.997   6.128  0.5091 -0.6662 -0.0641
  417poe    c23 2841   2.165   3.958   6.172  0.4674 -0.3596  0.3281
  417poe    c23 2842   2.202   4.061   6.280  0.8637 -0.0992 -0.0522
  417poe     o2 2843   2.095   4.097   6.364  0.8477 -0.3368  0.0307
  417poe    c31 2844   2.137   4.167   6.479 -0.0772  0.0395  0.1510
  418poe    c31 2845   1.482   2.549   1.511 -0.7009 -0.1266 -0.2451
  418poe     o2 2846   1.576   2.521   1.612 -0.5128  0.4789 -0.2465
  418poe    c23 2847   1.519   2.572   1.730 -0.1042 -0.4379  0.3548
  418poe    c23 2848   1.449   2.465   1.816 -0.7340 -0.4138 -0.1264
  418poe     o2 2849   1.527   2.401   1.914  0.9340  1.1021 -0.4228
  418poe    c23 2850   1.612   2.302   1.862  0.0400  0.2240 -0.2324
  418poe    c23 2851   1.689   2.257   1.988 -0.3314  0.3347  0.0333
  418poe     o2 2852   1.596   2.255   2.094 -0.1015 -0.2555  0.2302
  418poe    c23 2853   1.642   2.209   2.219 -0.2052 -0.0506  0.3442
  418poe    c23 2854   1.534   2.231   2.327 -0.1249  0.0157  0.4116
  418poe     o2 2855   1.457   2.342   2.287 -0.2431 -0.3119 -0.2796
  418poe    c31 2856   1.372   2.388   2.389 -0.2043 -1.2772  0.1956
  419poe    c31 2857   0.897   1.592   2.382 -0.4662  0.7174 -0.2047
  419poe     o2 2858   0.985   1.698   2.413  0.3774 -0.2725  0.9133
  419poe    c23 2859   0.917   1.818   2.442  0.0169 -0.2873  0.1681
  419poe    c23 2860   1.020   1.930   2.468  0.1436 -0.3628 -0.0084
  419poe     o2 2861   1.095   1.901   2.584 -0.0056 -0.0858  0.1595
  419poe    c23 2862   1.156   2.020   2.627 -0.4424  0.1029  0.2588
  419poe    c23 2863   1.264   1.981   2.729  0.0279  0.3740 -0.1329
  419poe     o2 2864   1.206   1.893   2.822  0.1609  0.3320 -0.0888
  419poe    c23 2865   1.304   1.825   2.896  0.0360  0.5742  0.3034
  419poe    c23 2866   1.239   1.716   2.984 -0.1846  0.0546 -0.4977
  419poe     o2 2867   1.160   1.643   2.892 -0.1260 -0.2155 -0.3356
  419poe    c31 2868   1.176   1.510   2.936  0.4815  0.0088  0.1383
  420poe    c31 2869   0.555   1.159   1.029 -0.2878 -0.6077 -0.4773
  420poe     o2 2870   0.659   1.063   1.027  0.7656  0.4937 -0.1602
  420poe    c23 2871   0.699   1.036   0.895  0.1088 -0.0144 -0.2597
  420poe    c23 2872   0.801   0.921   0.899  0.4498  0.2647 -0.8480
  420poe     o2 2873   0.895   0.965   0.995 -0.0500 -0.2517 -0.1142
  420poe    c23 2874   0.988   0.862   1.021 -0.2413 -0.3488  0.1885
  420poe    c23 2875   1.066   0.922   1.139  0.0993  0.2367 -0.3318
  420poe     o2 2876   0.974   0.988   1.222 -0.0963 -0.1264 -0.2587
  420poe    c23 2877   1.034   1.095   1.292 -0.2276 -0.2772  0.0897
  420poe    c23 2878   0.913   1.186   1.321 -0.0641 -0.0187 -0.0343
  420poe     o2 2879   0.846   1.205   1.198 -0.5249 -0.3725  0.1616
  420poe    c31 2880   0.835   1.340   1.161  0.0812 -0.3678 -0.0041
  421poe    c31 2881   5.718   1.925   1.810  0.3216  0.3100 -0.5446
  421poe     o2 2882   5.623   1.912   1.707  0.0849  0.3343 -0.3304
  421poe    c23 2883   5.516   1.998   1.740 -0.2060 -0.0701 -0.2033
  421poe    c23 2884   5.425   1.999   1.616 -0.3844  0.0318 -0.0708
  421poe     o2 2885   5.408   1.864   1.577 -0.1261  0.1373 -0.5556
  421poe    c23 2886   5.355   1.862   1.446 -0.1187 -0.3863 -0.5527
  421poe    c23 2887   5.370   1.720   1.391 -0.3281 -0.4325 -0.4895
  421poe     o2 2888   5.499   1.680   1.432 -0.4665 -0.1722  0.2147
  421poe    c23 2889   5.543   1.561   1.371 -0.2300 -0.0887  0.2206
  421poe    c23 2890   5.512   1.427   1.440  0.0067 -0.2216  0.0682
  421poe     o2 2891   5.571   1.422   1.568  0.0555 -0.6237  0.0332
  421poe    c31 2892   5.563   1.297   1.632  0.3604 -0.7942 -0.2578
  422poe    c31 2893   4.437   4.536   5.796  0.2363  0.1712 -0.0929
  422poe     o2 2894   4.548   4.620   5.774  0.3151  0.1705  0.3070
  422poe    c23 2895   4.663   4.539   5.759  0.0107 -0.1516 -0.3088
  422poe    c23 2896   4.768   4.651   5.744  0.5170 -0.5694  0.1177
  422poe     o2 2897   4.733   4.764   5.668  0.4913 -0.4740  0.2709
  422poe    c23 2898   4.819   4.874   5.686 -0.1868  0.0990  0.0939
  422poe    c23 2899   4.776   4.992   5.598  0.0435  0.3873  0.3646
  422poe     o2 2900   4.641   5.032   5.610 -0.0328  0.2599 -0.0772
  422poe    c23 2901   4.620   5.157   5.548  0.1682  0.1484 -0.3738
  422poe    c23 2902   4.469   5.165   5.516  0.0870  0.0321 -0.0146
  422poe     o2 2903   4.421   5.046   5.458  0.0530  0.2579 -0.4482
  422poe    c31 2904   4.438   5.029   5.319  0.0035  0.0408 -0.4287
  423poe    c31 2905   0.085   3.983   4.408  0.1509 -0.7132 -0.0641
  423poe     o2 2906   0.194   4.069   4.431 -0.2036 -0.3746  0.3677
  423poe    c23 2907   0.203   4.096   4.570  0.3491 -0.3131  0.3212
  423poe    c23 2908   0.322   4.193   4.582  0.3229 -0.3322  0.7494
  423poe     o2 2909   0.421   4.147   4.492 -0.2013  0.0752 -0.0443
  423poe    c23 2910   0.550   4.189   4.531  0.0582 -0.5363 -0.2425
  423poe    c23 2911   0.591   4.312   4.448 -0.2405 -0.2526  0.0312
  423poe     o2 2912   0.606   4.246   4.324 -0.7044  0.1398 -0.2397
  423poe    c23 2913   0.653   4.340   4.231 -0.4968  0.3822  0.1077
  423poe    c23 2914   0.661   4.287   4.086 -0.2437  0.5176  0.0710
  423poe     o2 2915   0.556   4.217   4.023  0.3160 -0.1718 -0.1050
  423poe    c31 2916   0.594   4.171   3.895 -0.3186 -0.1537 -0.3001
  424poe    c31 2917   4.964   5.052   1.777  0.6798 -0.1406  0.4792
  424poe     o2 2918   4.970   5.186   1.820  0.5954  0.1847 -0.4940
  424poe    c23 2919   5.056   5.206   1.930  0.8005 -0.6574 -0.4947
  424poe    c23 2920   5.081   5.358   1.941 -0.3600 -0.4633 -0.3792
  424poe     o2 2921   4.956   5.423   1.949 -0.0411  0.0456  0.5161
  424poe    c23 2922   4.968   5.563   1.931  0.0265 -0.0480 -0.2141
  424poe    c23 2923   4.826   5.620   1.921 -0.1963 -0.5238  0.1815
  424poe     o2 2924   4.752   5.537   1.834 -0.0376  0.1664 -0.6232
  424poe    c23 2925   4.621   5.588   1.845  0.0607  0.2704  0.1302
  424poe    c23 2926   4.515   5.496   1.782  0.3750 -0.0581  0.0793
  424poe     o2 2927   4.495   5.383   1.865  0.3054 -0.2169 -0.1525
  424poe    c31 2928   4.409   5.285   1.811 -0.1993 -0.0355  0.3212
  425poe    c31 2929   1.665   2.579   5.971  0.2415  0.1260  0.3639
  425poe     o2 2930   1.601   2.485   6.055 -0.3587 -0.0418 -0.2799
  425poe    c23 2931   1.690   2.417   6.139  0.0002  0.2070 -0.4546
  425poe    c23 2932   1.623   2.297   6.209 -0.2989  0.3611 -0.4754
  425poe     o2 2933   1.495   2.340   6.249 -0.1437  0.3732  0.0198
  425poe    c23 2934   1.431   2.241   6.326  0.1630 -0.0823 -0.3084
  425poe    c23 2935   1.310   2.286   6.411  0.1961 -0.1844 -0.2070
  425poe     o2 2936   1.206   2.319   6.322  0.3727  0.3099 -0.2356
  425poe    c23 2937   1.096   2.389   6.375  0.4982  0.1587  0.2260
  425poe    c23 2938   1.115   2.539   6.407  0.4253  0.0651  0.7285
  425poe     o2 2939   1.156   2.624   6.302  0.4423 -0.2881  0.4454
  425poe    c31 2940   1.150   2.759   6.341 -0.4392 -0.3067  0.3917
  426poe    c31 2941   6.378   1.370   5.410  0.0333  0.0635 -0.2111
  426poe     o2 2942   6.411   1.290   5.521 -0.1500  0.1807 -0.0702
  426poe    c23 2943   6.410   1.377   5.631  0.1869 -0.1643  0.2082
  426poe    c23 2944   6.444   1.311   5.767 -0.0417 -0.4021  0.1496
  426poe     o2 2945   6.578   1.269   5.759 -0.0675 -0.3682 -0.5846
  426poe    c23 2946   6.609   1.156   5.838  0.2217 -0.4929 -0.8754
  426poe    c23 2947   6.756   1.112   5.850  0.1508 -0.5324 -0.0852
  426poe     o2 2948   6.841   1.221   5.880 -0.1169 -0.2435 -0.3572
  426poe    c23 2949   6.975   1.176   5.891 -0.0044  0.2361  0.2918
  426poe    c23 2950   7.055   1.308   5.897 -0.0785  0.2977 -0.0325
  426poe     o2 2951   7.001   1.397   5.802 -0.0582 -0.2161 -0.5333
  426poe    c31 2952   7.116   1.471   5.766  0.0838 -0.0151  0.3016
  427poe    c31 2953   4.725   2.285   3.628  0.0752  0.0998  0.4142
  427poe     o2 2954   4.794   2.227   3.736 -0.0763  0.3627  0.6570
  427poe    c23 2955   4.698   2.182   3.828 -0.1786 -0.1793  0.2917
  427poe    c23 2956   4.775   2.089   3.924  0.2573  0.1323  0.2453
  427poe     o2 2957   4.872   2.176   3.977  0.3392  0.1254  0.1073
  427poe    c23 2958   4.955   2.123   4.078  0.6263  0.1472 -0.1152
  427poe    c23 2959   5.059   2.234   4.102  0.4717  0.2443  0.1008
  427poe     o2 2960   5.096   2.277   3.973 -0.1520 -0.1039 -0.2034
  427poe    c23 2961   5.160   2.403   3.970  0.2461 -0.3089 -0.3853
  427poe    c23 2962   5.176   2.453   3.825  0.4053 -0.0868 -0.2914
  427poe     o2 2963   5.047   2.436   3.771  0.0782 -0.0241  0.4623
  427poe    c31 2964   5.030   2.535   3.673  0.2395 -1.1304 -0.7019
  428poe    c31 2965   2.111   0.134   3.048  0.3049  0.0603  0.3399
  428poe     o2 2966   2.082   0.190   2.922 -0.5101 -0.6948  0.1794
  428poe    c23 2967   2.158   0.134   2.818 -0.5499 -0.0844 -0.1781
  428poe    c23 2968   2.152   0.209   2.683  0.1842  0.5295  0.1185
  428poe     o2 2969   2.020   0.230   2.639  0.2706  0.4625 -0.1800
  428poe    c23 2970   2.032   0.284   2.510 -0.2704 -0.2441 -0.5313
  428poe    c23 2971   1.893   0.322   2.455 -0.2289 -0.1184 -0.5506
  428poe     o2 2972   1.794   0.227   2.491 -0.0045 -0.0663  0.2324
  428poe    c23 2973   1.771   0.123   2.399 -0.2884 -0.0530  0.2869
  428poe    c23 2974   1.645   0.047   2.444 -0.7005  0.5286  0.1159
  428poe     o2 2975   1.661   0.023   2.582  0.0418  0.3455  0.0037
  428poe    c31 2976   1.565  -0.071   2.626 -0.2889  0.5125 -0.3529
  429poe    c31 2977   6.481   1.938   4.883 -0.3801  0.7630  0.3421
  429poe     o2 2978   6.417   1.897   5.002 -0.1347  0.0500  0.2348
  429poe    c23 2979   6.454   1.767   5.040 -0.4534 -0.2097 -0.3227
  429poe    c23 2980   6.395   1.743   5.180  0.2302 -0.1694 -0.0211
  429poe     o2 2981   6.407   1.865   5.249 -0.5901 -0.0955  0.0055
  429poe    c23 2982   6.379   1.852   5.386  0.0091  0.1972  0.1585
  429poe    c23 2983   6.402   1.989   5.452 -0.0228  0.3691 -0.1861
  429poe     o2 2984   6.351   2.088   5.366 -0.3635  0.5259  0.1880
  429poe    c23 2985   6.332   2.210   5.434  0.0794  0.6847  0.0273
  429poe    c23 2986   6.209   2.284   5.380 -0.2095  0.3659  0.2449
  429poe     o2 2987   6.225   2.313   5.243 -0.6577 -0.3330  0.0405
  429poe    c31 2988   6.125   2.407   5.211 -0.1267  0.1210 -0.2980
  430poe    c31 2989   4.484   1.356   4.546 -0.2908  0.4784 -0.1654
  430poe     o2 2990   4.389   1.258   4.582 -0.1622  0.3011 -0.3093
  430poe    c23 2991   4.392   1.155   4.485  0.1945  0.2623 -0.2617
  430poe    c23 2992   4.275   1.057   4.508  0.0417  0.5727  0.3225
  430poe     o2 2993   4.266   1.018   4.643 -0.3321 -0.6145 -0.0363
  430poe    c23 2994   4.168   0.917   4.661 -0.5378 -0.4606 -0.2835
  430poe    c23 2995   4.178   0.856   4.802  0.1071  0.3601  0.0361
  430poe     o2 2996   4.200   0.961   4.893 -0.2888  0.6363 -0.1878
  430poe    c23 2997   4.197   0.914   5.026 -0.1962  0.0758 -0.3817
  430poe    c23 2998   4.172   1.044   5.105  0.1366 -0.1675  0.1272
  430poe     o2 2999   4.259   1.148   5.063 -0.1321  0.0125  0.0177
  430poe    c31 3000   4.246   1.256   5.152 -0.4552 -0.2137  0.2494
  431poe    c31 3001   2.499   3.230   2.712 -0.4859 -0.0453 -0.2305
  431poe     o2 3002   2.468   3.177   2.839  0.0426  0.7488  0.2390
  431poe    c23 3003   2.568   3.208   2.933  0.4128 -0.4984  0.2815
  431poe    c23 3004   2.526   3.130   3.059 -0.0521 -0.3495  0.2234
  431poe     o2 3005   2.387   3.141   3.076  0.0351  0.4866  0.4455
  431poe    c23 3006   2.330   3.047   3.165 -0.2962 -0.0275 -0.2949
  431poe    c23 3007   2.185   3.100   3.176 -0.3559 -0.2687  0.1186
  431poe     o2 3008   2.142   3.104   3.042 -0.6421 -0.2260  0.2124
  431poe    c23 3009   2.031   3.187   3.018 -0.2919  0.1114 -0.2504
  431poe    c23 3010   2.025   3.223   2.868 -0.3923 -0.6247 -0.4257
  431poe     o2 3011   2.153   3.270   2.834 -0.2979 -0.3583  0.2840
  431poe    c31 3012   2.152   3.342   2.713  0.2926  0.0981  0.5454
  432poe    c31 3013   1.436   0.352   1.632 -0.1989 -0.8443  0.4788
  432poe     o2 3014   1.375   0.241   1.569  0.0258 -0.6736 -0.0538
  432poe    c23 3015   1.348   0.269   1.434  0.1720  0.3104  0.1081
  432poe    c23 3016   1.308   0.137   1.365  0.1726  0.2019  0.3153
  432poe     o2 3017   1.207   0.073   1.440 -0.4673  0.5004 -0.2817
  432poe    c23 3018   1.215  -0.067   1.420  0.4645  0.4575  0.3241
  432poe    c23 3019   1.163  -0.141   1.545  0.4936 -0.7517 -0.3657
  432poe     o2 3020   1.224  -0.076   1.655  0.0606 -0.3571 -0.3589
  432poe    c23 3021   1.187  -0.131   1.780  0.1720  0.0522 -0.1446
  432poe    c23 3022   1.272  -0.043   1.874  0.2566 -0.1423 -0.0381
  432poe     o2 3023   1.238   0.090   1.843  0.0117 -0.1422  0.2292
  432poe    c31 3024   1.293   0.181   1.935 -0.0474  0.1283  0.0005
  433poe    c31 3025   1.241   5.558   5.651 -0.2164  0.1585  0.0917
  433poe     o2 3026   1.153   5.451   5.681  0.1814 -0.0300  0.6167
  433poe    c23 3027   1.206   5.321   5.669 -0.3830 -0.2606  0.5655
  433poe    c23 3028   1.086   5.227   5.680 -0.5509 -0.2055 -0.6697
  433poe     o2 3029   0.996   5.283   5.774  0.2481  0.1211 -0.0927
  433poe    c23 3030   0.861   5.243   5.768  0.1500  0.4831 -0.3653
  433poe    c23 3031   0.788   5.346   5.857  0.1006  0.1584 -0.0268
  433poe     o2 3032   0.840   5.476   5.837 -0.5597  0.4340  0.0158
  433poe    c23 3033   0.797   5.568   5.935 -0.1197  0.2289  0.4123
  433poe    c23 3034   0.861   5.694   5.876 -0.0503 -0.1174 -0.2624
  433poe     o2 3035   0.997   5.676   5.842 -0.0592 -0.0110 -0.3569
  433poe    c31 3036   1.065   5.797   5.865  0.5631 -0.3727 -0.2750
  434poe    c31 3037   0.057   3.440   5.460  0.0439  0.0622  0.5292
  434poe     o2 3038  -0.024   3.452   5.576  0.0944 -0.1245  0.5833
  434poe    c23 3039  -0.002   3.574   5.643  0.1897  0.2234 -0.0673
  434poe    c23 3040  -0.109   3.588   5.753  0.3839  0.4588  0.0918
  434poe     o2 3041  -0.098   3.468   5.826 -0.3757  0.1045 -0.3716
  434poe    c23 3042  -0.192   3.469   5.931 -0.2103 -0.0143 -0.2223
  434poe    c23 3043  -0.200   3.322   5.979 -0.2502  0.0230 -0.1152
  434poe     o2 3044  -0.225   3.241   5.867  0.1816 -0.1186 -0.1098
  434poe    c23 3045  -0.361   3.230   5.830  0.0149 -0.1060  0.4845
  434poe    c23 3046  -0.342   3.176   5.687 -0.1772  0.4467  0.2485
  434poe     o2 3047  -0.234   3.251   5.635  0.0010 -0.1601 -0.2554
  434poe    c31 3048  -0.245   3.253   5.494 -0.3842 -0.2154 -0.2286
  435poe    c31 3049   3.255   4.510   6.284  0.3420 -0.2125  0.6032
  435poe     o2 3050   3.136   4.500   6.360 -0.3351 -0.0967 -0.4325
  435poe    c23 3051   3.139   4.536   6.496 -0.1224 -1.0534 -0.1815
  435poe    c23 3052   2.997   4.505   6.547 -0.0227 -0.4686  0.4629
  435poe     o2 3053   2.914   4.511   6.434 -0.1357  0.3765  0.5844
  435poe    c23 3054   2.784   4.490   6.486 -0.0481  0.0067  0.6528
  435poe    c23 3055   2.681   4.486   6.372  0.6656  0.6253 -0.0246
  435poe     o2 3056   2.731   4.391   6.281 -0.1304  0.0765  0.1013
  435poe    c23 3057   2.649   4.377   6.167 -0.2353  0.0277  0.1828
  435poe    c23 3058   2.681   4.241   6.104 -0.2981  0.0930  0.0105
  435poe     o2 3059   2.798   4.224   6.027 -0.2559 -0.3815  0.1747
  435poe    c31 3060   2.787   4.260   5.891 -0.0451 -0.4064  0.1503
  436poe    c31 3061   5.356   0.662   3.612 -0.0749  0.0855  0.7708
  436poe     o2 3062   5.283   0.541   3.615  0.1525 -0.0652  0.1796
  436poe    c23 3063   5.150   0.558   3.657  0.3023 -0.6652  0.9144
  436poe    c23 3064   5.089   0.418   3.668  0.1049 -0.6145  0.4436
  436poe     o2 3065   5.190   0.336   3.722  0.8183  0.0652  0.1678
  436poe    c23 3066   5.158   0.198   3.725 -0.1158  0.2823  0.7511
  436poe    c23 3067   5.279   0.136   3.799  0.2344  0.5466  0.4055
  436poe     o2 3068   5.383   0.189   3.720  0.2687 -0.2868 -0.1125
  436poe    c23 3069   5.511   0.174   3.777  0.0495 -0.1703  0.4106
  436poe    c23 3070   5.604   0.241   3.675 -0.5762 -0.0812 -0.1126
  436poe     o2 3071   5.548   0.360   3.623 -0.4607 -0.0005 -0.0538
  436poe    c31 3072   5.625   0.397   3.510 -0.1390  0.3456  0.2743
  437poe    c31 3073   2.262   0.500   2.962  0.4607  0.4335 -0.2333
  437poe     o2 3074   2.194   0.575   3.060 -0.3922 -0.1082 -0.3952
  437poe    c23 3075   2.139   0.476   3.143 -0.4028  0.2013 -0.0310
  437poe    c23 3076   2.058   0.555   3.248 -0.6617  0.0785 -0.1382
  437poe     o2 3077   2.151   0.643   3.308 -0.6426  0.0284 -0.0944
  437poe    c23 3078   2.096   0.725   3.408 -0.4747  0.4695 -0.3624
  437poe    c23 3079   2.174   0.857   3.395  0.2668  0.0114 -0.6346
  437poe     o2 3080   2.180   0.878   3.256 -0.3741  0.1261 -0.6507
  437poe    c23 3081   2.236   1.003   3.219  0.1780 -0.0160 -0.3040
  437poe    c23 3082   2.255   0.991   3.067 -0.5531 -0.2522 -0.3800
  437poe     o2 3083   2.300   0.858   3.049 -0.5781 -0.2765 -0.2607
  437poe    c31 3084   2.357   0.844   2.921 -0.2500  0.4674 -0.2025
  438poe    c31 3085   6.286   4.434   2.781 -0.4135  0.3251  0.0547
  438poe     o2 3086   6.424   4.405   2.787 -0.4044  0.3960  0.1905
  438poe    c23 3087   6.478   4.372   2.914 -0.4605 -0.0107  0.1120
  438poe    c23 3088   6.621   4.316   2.920 -0.5030 -0.1562 -0.1870
  438poe     o2 3089   6.632   4.177   2.900 -0.1210 -0.1470 -0.0496
  438poe    c23 3090   6.738   4.141   2.986 -0.0164  0.6014  0.1387
  438poe    c23 3091   6.716   3.992   3.018 -0.0645  0.5806  0.0093
  438poe     o2 3092   6.684   3.919   2.902  0.1930 -0.1122  0.3667
  438poe    c23 3093   6.669   3.781   2.923  0.5873 -0.2587 -0.2780
  438poe    c23 3094   6.667   3.722   2.781  0.3926 -0.0820 -0.3479
  438poe     o2 3095   6.587   3.800   2.695  0.4186  0.2366 -0.0844
  438poe    c31 3096   6.548   3.736   2.576 -0.0260 -0.3806  0.3895
  439poe    c31 3097   4.911   0.751   0.886  0.0047  0.2402  0.7675
  439poe     o2 3098   4.800   0.762   0.799  0.3983  0.0666  0.2362
  439poe    c23 3099   4.727   0.879   0.828  0.6061  0.2676 -0.0431
  439poe    c23 3100   4.606   0.900   0.736  0.1787 -0.4359  0.3464
  439poe     o2 3101   4.646   0.954   0.611 -0.1841 -0.2226  0.3220
  439poe    c23 3102   4.553   0.975   0.507  0.0203 -0.7486  0.0357
  439poe    c23 3103   4.619   0.979   0.368  0.6959  0.4535  0.3817
  439poe     o2 3104   4.706   1.090   0.371  0.9792  0.2396  0.2033
  439poe    c23 3105   4.750   1.114   0.239 -0.3537  0.6851 -0.1781
  439poe    c23 3106   4.882   1.190   0.216  0.0419  0.1316  0.2490
  439poe     o2 3107   4.959   1.198   0.334  0.1830 -0.6855  0.2232
  439poe    c31 3108   5.090   1.246   0.317 -0.0463 -0.0856  0.0999
  440poe    c31 3109   2.982   5.772   1.618 -0.2379 -0.2636  1.0405
  440poe     o2 3110   2.870   5.695   1.653 -0.4345 -0.4468  0.0494
  440poe    c23 3111   2.906   5.564   1.689 -0.0684 -0.3000  0.2153
  440poe    c23 3112   2.783   5.478   1.722 -0.2147 -0.0210  0.3979
  440poe     o2 3113   2.688   5.560   1.787 -0.5360  0.3666 -0.5369
  440poe    c23 3114   2.558   5.508   1.801 -0.4190  0.1182 -0.3493
  440poe    c23 3115   2.472   5.634   1.827  0.0256  0.3020  0.2551
  440poe     o2 3116   2.524   5.731   1.739  0.4275  0.1051  0.2693
  440poe    c23 3117   2.492   5.858   1.793 -0.5519  0.0973 -0.2802
  440poe    c23 3118   2.533   5.958   1.683  1.0919 -0.0259  0.2035
  440poe     o2 3119   2.657   5.911   1.635  0.8117 -0.4465 -0.1127
  440poe    c31 3120   2.694   5.994   1.527 -0.2343  0.2459  0.0577
  441poe    c31 3121   1.129   5.004   5.347  0.0489  0.0811  0.0328
  441poe     o2 3122   1.116   4.951   5.477  0.4917  0.3092  0.1721
  441poe    c23 3123   1.221   4.866   5.518  0.0556 -0.1302  0.3860
  441poe    c23 3124   1.196   4.840   5.668 -0.2894 -0.3814  0.2874
  441poe     o2 3125   1.096   4.744   5.694 -0.2621 -0.4418  0.1708
  441poe    c23 3126   0.968   4.799   5.712  0.0299  0.4450 -0.3920
  441poe    c23 3127   0.869   4.681   5.720  0.4556  0.1428  0.5071
  441poe     o2 3128   0.925   4.591   5.812  0.3932 -0.2914  0.1240
  441poe    c23 3129   0.869   4.462   5.825 -0.0582 -0.0601  0.5076
  441poe    c23 3130   0.949   4.395   5.938  0.3709 -0.0956  0.1890
  441poe     o2 3131   1.087   4.420   5.933  0.2644  0.4226 -0.2056
  441poe    c31 3132   1.171   4.312   5.968  0.0084  0.0503 -0.7403
  442poe    c31 3133   6.391   5.941   3.855  0.5851 -0.7254 -0.0456
  442poe     o2 3134   6.383   5.972   3.718 -0.5347  0.1121  0.1998
  442poe    c23 3135   6.451   5.860   3.665 -0.2260  0.4472 -0.1183
  442poe    c23 3136   6.499   5.898   3.524 -0.2165  0.2150 -0.1767
  442poe     o2 3137   6.385   5.952   3.462 -0.2536  0.3551  0.0133
  442poe    c23 3138   6.414   6.015   3.339 -0.0355 -0.8941 -0.5906
  442poe    c23 3139   6.282   6.081   3.295  0.3619  0.2398 -0.1122
  442poe     o2 3140   6.239   6.138   3.417 -0.0700 -0.3573  0.0154
  442poe    c23 3141   6.099   6.158   3.420  0.0042  0.2036 -0.1835
  442poe    c23 3142   6.066   6.185   3.568 -0.3231 -0.0536 -0.2083
  442poe     o2 3143   6.127   6.085   3.646 -0.1943  0.3384  0.1962
  442poe    c31 3144   6.093   6.130   3.775  0.1520 -0.2739  0.5048
  443poe    c31 3145   4.371   6.358   2.458 -0.1497  0.0409  0.1397
  443poe     o2 3146   4.325   6.492   2.462 -0.3999 -0.0407 -0.0062
  443poe    c23 3147   4.351   6.553   2.337 -0.6441 -0.1458 -0.1112
  443poe    c23 3148   4.274   6.686   2.347  0.4755  0.5182 -0.1169
  443poe     o2 3149   4.283   6.730   2.480 -0.9003 -0.1984  0.2287
  443poe    c23 3150   4.235   6.861   2.501  0.0673  0.1384  0.3822
  443poe    c23 3151   4.221   6.873   2.654  0.6463  0.2103  0.4307
  443poe     o2 3152   4.188   6.750   2.714 -0.5546  0.3613  0.1125
  443poe    c23 3153   4.237   6.720   2.843 -0.3525 -0.3592 -0.1289
  443poe    c23 3154   4.198   6.572   2.860 -0.1889 -0.4011 -0.1121
  443poe     o2 3155   4.260   6.500   2.756  0.2293 -0.1352 -0.0465
  443poe    c31 3156   4.271   6.370   2.811  0.3356 -0.1756 -0.1618
  444poe    c31 3157   0.765   0.645   5.667  0.3200  1.0067  0.3585
  444poe     o2 3158   0.643   0.670   5.733  0.1885  0.1816  0.4374
  444poe    c23 3159   0.607   0.801   5.694 -0.1298 -0.0548 -0.0633
  444poe    c23 3160   0.453   0.812   5.693 -0.1333 -0.0867  0.1506
  444poe     o2 3161   0.410   0.773   5.822 -0.1140 -0.3233  0.0845
  444poe    c23 3162   0.271   0.772   5.845 -0.1741 -0.1631 -0.2680
  444poe    c23 3163   0.253   0.657   5.945  0.6032 -0.0251  0.0335
  444poe     o2 3164   0.312   0.537   5.900  0.1613 -0.3049  0.1892
  444poe    c23 3165   0.333   0.436   5.997 -0.2533 -0.1770  0.4146
  444poe    c23 3166   0.444   0.341   5.947  0.0508  0.1744  0.4140
  444poe     o2 3167   0.551   0.426   5.913  0.0417 -0.0287 -0.1278
  444poe    c31 3168   0.662   0.340   5.898 -0.0119 -0.1085 -0.0692
  445poe    c31 3169   1.922   0.646   5.958  0.5772 -0.5185  0.3078
  445poe     o2 3170   1.802   0.585   5.917  0.2423  0.4446 -0.1680
  445poe    c23 3171   1.726   0.668   5.832 -0.0402  0.6125  0.2419
  445poe    c23 3172   1.634   0.769   5.903 -0.5640  0.3718 -0.0859
  445poe     o2 3173   1.552   0.721   6.007 -0.0786 -0.5377 -0.1177
  445poe    c23 3174   1.444   0.807   6.036  0.4927  0.0390  0.3146
  445poe    c23 3175   1.357   0.757   6.152  0.5059 -0.3187  0.1733
  445poe     o2 3176   1.334   0.620   6.128 -0.0984 -0.1290 -0.3591
  445poe    c23 3177   1.262   0.557   6.232 -0.4295  0.7533 -0.0457
  445poe    c23 3178   1.267   0.407   6.200  0.3979  0.6621  0.4749
  445poe     o2 3179   1.393   0.366   6.152  0.1071 -0.0232  0.2746
  445poe    c31 3180   1.403   0.226   6.151  0.1741 -0.0172  0.1252
  446poe    c31 3181   5.251   3.730   5.734  0.0539 -0.1336 -0.2105
  446poe     o2 3182   5.242   3.593   5.702  0.0526 -0.1469 -0.1539
  446poe    c23 3183   5.368   3.538   5.732  0.1031  0.2044  0.2894
  446poe    c23 3184   5.383   3.391   5.688  0.0454  0.3486 -0.2167
  446poe     o2 3185   5.256   3.337   5.716 -0.1164  0.6096 -0.4307
  446poe    c23 3186   5.246   3.200   5.682 -0.6584  0.5089  0.1167
  446poe    c23 3187   5.094   3.174   5.680 -0.5018 -0.3852 -0.5983
  446poe     o2 3188   5.034   3.296   5.643 -0.5177 -0.3285 -0.3862
  446poe    c23 3189   4.893   3.302   5.641 -0.5062  0.6323  0.6930
  446poe    c23 3190   4.855   3.446   5.602 -0.0877  0.3923 -0.6361
  446poe     o2 3191   4.945   3.538   5.658 -0.0745 -0.0734  0.1110
  446poe    c31 3192   4.912   3.670   5.623  0.6242  0.1534  0.2882
  447poe    c31 3193   2.820   0.754   1.199 -0.7631 -0.4194  0.0064
  447poe     o2 3194   2.924   0.726   1.291 -0.5196 -0.4002 -0.2638
  447poe    c23 3195   3.002   0.624   1.233  0.2028  0.2429 -0.4402
  447poe    c23 3196   3.112   0.586   1.334 -0.0394  0.1364 -0.2153
  447poe     o2 3197   3.161   0.710   1.380  0.0072  0.0975 -0.1595
  447poe    c23 3198   3.235   0.715   1.499  0.0244 -0.3563 -0.1480
  447poe    c23 3199   3.246   0.866   1.527 -0.2492 -0.4236  0.3349
  447poe     o2 3200   3.115   0.919   1.527 -0.1062 -0.0682  0.1253
  447poe    c23 3201   3.101   1.059   1.540  0.3319 -0.0159  0.0447
  447poe    c23 3202   2.949   1.082   1.529  0.2697 -0.4314  0.0086
  447poe     o2 3203   2.895   0.987   1.440  0.4515  0.0199 -0.5857
  447poe    c31 3204   2.759   1.023   1.426  0.4302 -0.0769 -0.6222
  448poe    c31 3205   2.813   2.483   2.704 -0.1605  0.1892 -0.0681
  448poe     o2 3206   2.850   2.501   2.839 -0.2042 -0.0246 -0.0279
  448poe    c23 3207   2.810   2.626   2.890  0.6954  0.2021  0.1409
  448poe    c23 3208   2.893   2.678   3.009  0.3539  0.0404  0.4492
  448poe     o2 3209   2.891   2.575   3.106 -0.6802  0.0534  0.4558
  448poe    c23 3210   2.973   2.610   3.216 -0.2301 -0.2445  0.2200
  448poe    c23 3211   2.972   2.494   3.318 -0.4871 -0.2131  0.2537
  448poe     o2 3212   2.982   2.376   3.242  0.8730  0.4028 -0.5581
  448poe    c23 3213   3.025   2.269   3.322  0.5306 -0.1256 -1.0723
  448poe    c23 3214   2.961   2.137   3.274  0.0170 -0.4355  0.3780
  448poe     o2 3215   2.979   2.121   3.135 -0.9784  0.4342  0.1325
  448poe    c31 3216   2.911   2.005   3.093  0.4716 -0.3382 -0.1679
  449poe    c31 3217   3.813   2.756   2.196  0.1794 -0.3314 -0.4042
  449poe     o2 3218   3.904   2.864   2.188 -0.1486  0.0056  0.2894
  449poe    c23 3219   3.861   2.950   2.291 -0.1280  0.5340 -0.1425
  449poe    c23 3220   3.958   3.069   2.297  0.1402  0.3307 -0.4208
  449poe     o2 3221   4.087   3.015   2.320  0.2933  0.8662  0.0050
  449poe    c23 3222   4.191   3.107   2.297  0.5276  0.5920 -0.0297
  449poe    c23 3223   4.294   3.033   2.209 -0.2346 -0.4616 -0.0475
  449poe     o2 3224   4.237   2.974   2.094  0.2489 -0.7363 -0.1491
  449poe    c23 3225   4.314   2.912   1.994  0.4982  0.0305 -0.4359
  449poe    c23 3226   4.210   2.842   1.905 -0.2676  0.4374  0.1247
  449poe     o2 3227   4.105   2.784   1.978 -0.1682 -0.3979 -0.3844
  449poe    c31 3228   4.011   2.723   1.892 -0.3538  0.0095 -0.4706
  450poe    c31 3229   1.558   4.404   6.164  0.1813 -0.1421 -0.0067
  450poe     o2 3230   1.524   4.492   6.268 -0.2473  0.2928 -0.5059
  450poe    c23 3231   1.639   4.523   6.343 -0.1922 -0.2697 -0.3517
  450poe    c23 3232   1.631   4.670   6.387 -0.1393 -0.2730 -0.3304
  450poe     o2 3233   1.498   4.688   6.430  0.0307  0.2222  0.0074
  450poe    c23 3234   1.472   4.825   6.450 -0.3092  0.1978 -0.2664
  450poe    c23 3235   1.335   4.850   6.516 -0.1673 -0.0235  0.1122
  450poe     o2 3236   1.246   4.762   6.450 -0.0857 -0.1040  0.1091
  450poe    c23 3237   1.202   4.673   6.549 -0.0010  0.3019  0.5140
  450poe    c23 3238   1.158   4.542   6.482  0.4480  0.3393  0.1473
  450poe     o2 3239   1.259   4.474   6.409  0.0607 -0.1190  0.0313
  450poe    c31 3240   1.226   4.355   6.341 -0.0486 -0.1371  0.1161
  451poe    c31 3241   2.737   2.470   3.953 -0.0913  0.1841 -0.3342
  451poe     o2 3242   2.781   2.565   3.858 -0.2534  0.1024 -0.4919
  451poe    c23 3243   2.706   2.684   3.854 -0.6834 -0.1272  0.4721
  451poe    c23 3244   2.773   2.788   3.763  0.1688 -0.5550  0.5947
  451poe     o2 3245   2.906   2.807   3.803  0.1782 -0.2370  0.4166
  451poe    c23 3246   2.990   2.883   3.718 -0.5154 -0.0151 -0.0793
  451poe    c23 3247   3.141   2.872   3.747 -0.4569  0.2154 -0.3005
  451poe     o2 3248   3.175   2.735   3.751 -0.2140  0.2929  0.4547
  451poe    c23 3249   3.312   2.708   3.767 -0.2157  0.1368  0.2057
  451poe    c23 3250   3.348   2.561   3.792 -0.5627 -0.0271 -0.2443
  451poe     o2 3251   3.288   2.476   3.697 -0.3173 -0.5538  0.0672
  451poe    c31 3252   3.364   2.451   3.580 -0.2999 -0.6702  0.1031
  452poe    c31 3253   5.430   2.523   2.943  0.0144  0.1627 -0.6950
  452poe     o2 3254   5.522   2.416   2.937 -0.2357 -0.1216  0.2947
  452poe    c23 3255   5.642   2.441   3.007  0.1920  0.0022 -0.4713
  452poe    c23 3256   5.714   2.305   3.008 -0.3582 -0.2930  0.1755
  452poe     o2 3257   5.756   2.269   2.878 -0.1697  0.0110  0.1506
  452poe    c23 3258   5.827   2.148   2.863  0.3002  0.2994  0.0405
  452poe    c23 3259   5.791   2.074   2.733  0.0491  0.2975  0.1106
  452poe     o2 3260   5.672   2.003   2.759  0.0441  0.3479  0.2273
  452poe    c23 3261   5.613   1.977   2.633  0.7650 -0.3997  0.0356
  452poe    c23 3262   5.504   1.872   2.660  0.2601  0.1209  0.0358
  452poe     o2 3263   5.428   1.919   2.769  0.0786  0.1185 -0.0875
  452poe    c31 3264   5.343   1.826   2.831 -0.1140  0.0470 -0.4553
  453poe    c31 3265   6.607   5.626   0.424  0.4586  0.0130  0.1008
  453poe     o2 3266   6.654   5.518   0.502  0.7255 -0.2424 -0.4095
  453poe    c23 3267   6.569   5.407   0.485 -0.2343  0.3576  0.3508
  453poe    c23 3268   6.576   5.324   0.615 -0.6164  0.4545  0.4343
  453poe     o2 3269   6.710   5.323   0.657 -0.4191 -0.0953 -0.1846
  453poe    c23 3270   6.733   5.276   0.788  0.1146  0.4619 -0.0746
  453poe    c23 3271   6.879   5.321   0.805  0.2634 -0.0223 -0.0783
  453poe     o2 3272   6.886   5.456   0.766 -0.1737  0.0274  0.0217
  453poe    c23 3273   7.018   5.505   0.759 -0.1888  0.0837  0.1254
  453poe    c23 3274   7.010   5.651   0.712  0.0449 -0.0445 -0.3077
  453poe     o2 3275   6.929   5.650   0.596 -0.0516  0.1569 -0.2444
  453poe    c31 3276   6.923   5.784   0.553  0.1480  0.3855  0.4342
  454poe    c31 3277   0.848   0.596   3.829  0.0603  0.2990  0.1930
  454poe     o2 3278   0.841   0.626   3.967  0.0267  0.0773  0.2396
  454poe    c23 3279   0.788   0.517   4.040  0.5790 -0.4455 -0.1260
  454poe    c23 3280   0.765   0.538   4.191  0.1510 -0.1868 -0.2259
  454poe     o2 3281   0.667   0.636   4.217  0.6975  0.3265 -0.0726
  454poe    c23 3282   0.628   0.628   4.352 -0.2550 -0.3129 -0.3694
  454poe    c23 3283   0.496   0.704   4.375 -0.1435 -0.1002 -0.4290
  454poe     o2 3284   0.482   0.817   4.292  0.3292 -0.0087 -0.3867
  454poe    c23 3285   0.373   0.902   4.323  0.3430  0.0765 -0.5696
  454poe    c23 3286   0.395   1.036   4.251  0.1293  0.4781  0.1055
  454poe     o2 3287   0.473   1.011   4.135 -0.1219 -0.0247  0.0406
  454poe    c31 3288   0.447   1.102   4.030 -0.5409  0.0966  0.2466
  455poe    c31 3289   4.384   2.173   2.727  0.1057 -0.1854  0.1701
  455poe     o2 3290   4.299   2.062   2.704  0.0411 -0.0828 -0.0965
  455poe    c23 3291   4.367   1.966   2.627  0.3116  0.2243 -0.2462
  455poe    c23 3292   4.260   1.856   2.617 -0.1377  0.6863 -0.5493
  455poe     o2 3293   4.191   1.855   2.740  0.8363 -0.8524  0.0125
  455poe    c23 3294   4.074   1.775   2.739  0.0961  0.2140 -0.2694
  455poe    c23 3295   3.987   1.806   2.862 -0.0703  0.3526 -0.4212
  455poe     o2 3296   4.008   1.943   2.887  0.0938  0.2684 -0.0915
  455poe    c23 3297   3.893   2.001   2.944  0.1994 -0.0610  0.4731
  455poe    c23 3298   3.946   2.144   2.966  0.3152  0.0081 -0.2284
  455poe     o2 3299   4.034   2.171   2.859  0.4715 -0.2934 -0.1742
  455poe    c31 3300   4.060   2.309   2.862 -0.1980 -0.1647 -0.2309
  456poe    c31 3301   5.703   5.310   2.234 -0.0962 -0.0479 -0.2172
  456poe     o2 3302   5.676   5.289   2.371 -0.1961  0.2641 -0.1881
  456poe    c23 3303   5.782   5.217   2.430 -0.3313  0.0558 -0.1975
  456poe    c23 3304   5.773   5.229   2.584  0.0723 -0.2013 -0.1537
  456poe     o2 3305   5.808   5.346   2.653 -0.2274 -0.0804 -0.2105
  456poe    c23 3306   5.767   5.351   2.788  0.0786  0.2024 -0.1277
  456poe    c23 3307   5.803   5.492   2.838 -0.3302  0.2927 -0.0855
  456poe     o2 3308   5.918   5.541   2.772 -0.1473 -0.1984 -0.1344
  456poe    c23 3309   5.957   5.667   2.821  0.1569 -0.2635 -0.2067
  456poe    c23 3310   6.076   5.733   2.750  0.0163  0.1137 -0.0981
  456poe     o2 3311   6.055   5.742   2.610  0.1417 -0.1173 -0.1324
  456poe    c31 3312   6.134   5.843   2.552  0.1081  0.1650  0.3030
  457poe    c31 3313   3.389   5.798   1.385 -0.1049  0.4745 -0.6024
  457poe     o2 3314   3.512   5.751   1.333 -0.1100 -0.1285 -0.0811
  457poe    c23 3315   3.559   5.849   1.243 -0.4665 -0.1611 -0.3040
  457poe    c23 3316   3.642   5.776   1.137  0.2813 -0.2298  0.3185
  457poe     o2 3317   3.733   5.705   1.217 -0.1427 -0.7006  0.3909
  457poe    c23 3318   3.817   5.609   1.157  0.2983 -0.1581  0.1222
  457poe    c23 3319   3.870   5.517   1.269 -0.0990 -0.2503  0.2372
  457poe     o2 3320   3.750   5.493   1.339 -0.4863  0.6189 -0.1105
  457poe    c23 3321   3.754   5.392   1.438 -0.0615  0.8363  0.0976
  457poe    c23 3322   3.606   5.388   1.482  0.0267  0.1005  0.3387
  457poe     o2 3323   3.561   5.519   1.507  0.0941  0.1795  0.0513
  457poe    c31 3324   3.439   5.526   1.577 -0.0137 -0.0815 -0.1099
  458poe    c31 3325   6.448   5.545   2.939  0.0022  0.4258  0.4865
  458poe     o2 3326   6.316   5.524   2.894  0.2704 -0.3583  0.0490
  458poe    c23 3327   6.334   5.414   2.808  0.1652 -0.4823  0.1844
  458poe    c23 3328   6.199   5.346   2.779  0.2020 -0.3435 -0.3239
  458poe     o2 3329   6.123   5.398   2.673 -0.0515 -0.1027 -0.0286
  458poe    c23 3330   6.164   5.352   2.546 -0.1132 -0.0027 -0.0841
  458poe    c23 3331   6.113   5.462   2.450 -0.0579  0.0167 -0.0912
  458poe     o2 3332   5.975   5.489   2.440 -0.0104  0.2904 -0.0137
  458poe    c23 3333   5.949   5.600   2.358  0.1448  0.5442  0.2788
  458poe    c23 3334   5.796   5.609   2.376  0.0380 -0.1221 -0.2406
  458poe     o2 3335   5.774   5.587   2.513  0.2138  0.5511 -0.0992
  458poe    c31 3336   5.644   5.635   2.541  0.1476  0.5502 -0.4044
  459poe    c31 3337   0.618   3.661   6.464  0.6676 -0.6836  0.0231
  459poe     o2 3338   0.738   3.694   6.398  0.4110 -0.2380 -0.2237
  459poe    c23 3339   0.843   3.616   6.451  0.1931 -0.1489  0.3422
  459poe    c23 3340   0.974   3.697   6.452 -0.2288  0.5432  0.5551
  459poe     o2 3341   0.979   3.764   6.329  0.2149 -0.1356  0.1974
  459poe    c23 3342   1.097   3.836   6.303  0.1189  0.1198  0.4606
  459poe    c23 3343   1.061   3.894   6.165  0.1528 -0.1831  0.3230
  459poe     o2 3344   0.931   3.948   6.174  0.1841 -0.0125 -0.2210
  459poe    c23 3345   0.865   3.961   6.050  0.0882 -0.2894 -0.1992
  459poe    c23 3346   0.713   3.978   6.065  0.1459  0.0832 -0.0160
  459poe     o2 3347   0.672   3.895   6.171 -0.1109  0.1497 -0.0629
  459poe    c31 3348   0.536   3.916   6.202  0.0252  0.2018  0.5151
  460poe    c31 3349   0.960   2.876   1.099 -0.2259  0.2296  0.3622
  460poe     o2 3350   1.021   3.002   1.080 -0.1683  0.0488 -0.6914
  460poe    c23 3351   0.924   3.102   1.103  0.1554  0.3744 -0.7234
  460poe    c23 3352   0.965   3.243   1.059  0.1271  0.4880 -0.3842
  460poe     o2 3353   1.096   3.257   1.111  0.1950 -0.5098 -0.2833
  460poe    c23 3354   1.127   3.394   1.102 -0.4817 -0.3752 -0.6509
  460poe    c23 3355   1.267   3.405   1.165 -0.6526 -0.3257 -0.2775
  460poe     o2 3356   1.353   3.297   1.137  0.1058  0.1833  0.0512
  460poe    c23 3357   1.489   3.327   1.158  0.1687 -0.3766  0.4847
  460poe    c23 3358   1.586   3.212   1.126  0.1914 -0.1005 -0.4883
  460poe     o2 3359   1.557   3.109   1.219 -0.0491  0.4106  0.0080
  460poe    c31 3360   1.654   3.008   1.213 -0.4977  0.0147 -0.7437
  461poe    c31 3361   6.193   0.700   2.913  0.0037  0.3313  0.0927
  461poe     o2 3362   6.309   0.743   2.846  0.3204 -0.2795  0.2453
  461poe    c23 3363   6.327   0.688   2.717 -0.0927  1.1399 -0.4345
  461poe    c23 3364   6.470   0.714   2.666  0.4735  0.0787  0.5747
  461poe     o2 3365   6.489   0.848   2.703 -0.2203  0.3301  0.0343
  461poe    c23 3366   6.621   0.886   2.670 -0.0397  0.0141  0.3928
  461poe    c23 3367   6.644   1.007   2.762 -0.6680  0.4246  0.0176
  461poe     o2 3368   6.583   0.977   2.886 -0.1632 -0.3547  0.0871
  461poe    c23 3369   6.591   1.078   2.985 -0.2610 -0.2009 -0.0600
  461poe    c23 3370   6.503   1.019   3.097  0.1105 -0.1913  0.2390
  461poe     o2 3371   6.385   0.983   3.028  0.0817  0.0732  0.1467
  461poe    c31 3372   6.275   0.984   3.116  0.2071 -0.4603  0.3166
  462poe    c31 3373   2.245   3.797   0.037  0.3779  0.3802 -0.3355
  462poe     o2 3374   2.161   3.690   0.076  0.4561  0.1613 -0.7523
  462poe    c23 3375   2.076   3.729   0.182  0.7747 -0.5204 -0.2405
  462poe    c23 3376   2.005   3.611   0.250  0.0447  0.3184  0.4862
  462poe     o2 3377   1.974   3.542   0.131  0.2480  0.0799  0.5699
  462poe    c23 3378   1.915   3.416   0.158 -0.6228  0.3750  0.1005
  462poe    c23 3379   1.868   3.363   0.021  0.7910 -0.2071 -0.1758
  462poe     o2 3380   1.970   3.396  -0.071  0.5522 -0.3635 -0.4962
  462poe    c23 3381   1.929   3.376  -0.205 -0.2783  0.1031 -0.3219
  462poe    c23 3382   2.051   3.417  -0.289 -0.1621  0.3380 -0.0445
  462poe     o2 3383   2.106   3.531  -0.228 -0.3268  0.4322 -0.0717
  462poe    c31 3384   2.148   3.609  -0.337  0.2948  0.5800  0.2682
  463poe    c31 3385   1.163   1.675   6.068  0.3191  0.0892  0.8652
  463poe     o2 3386   1.232   1.559   6.026 -0.2169  0.1234 -0.1372
  463poe    c23 3387   1.322   1.594   5.922  0.1277 -0.1061  0.0834
  463poe    c23 3388   1.432   1.487   5.907 -0.1706 -0.3011 -0.7577
  463poe     o2 3389   1.369   1.361   5.913  0.1042 -0.4043  0.1021
  463poe    c23 3390   1.326   1.315   5.787 -0.6662  0.2827  0.1059
  463poe    c23 3391   1.217   1.209   5.814 -0.8494  0.3834 -0.2414
  463poe     o2 3392   1.128   1.286   5.892 -0.1377  0.3714  0.5978
  463poe    c23 3393   1.028   1.205   5.949 -0.3745  0.0823 -0.2041
  463poe    c23 3394   0.953   1.301   6.043 -0.3781 -0.0411 -0.0798
  463poe     o2 3395   1.044   1.384   6.112 -0.4936  0.3470 -0.3885
  463poe    c31 3396   0.992   1.415   6.239 -0.0952 -0.4244 -0.0274
  464poe    c31 3397   2.985   5.824   3.117 -0.0682 -0.2451  0.0577
  464poe     o2 3398   2.845   5.836   3.112 -0.0876 -0.4810  0.0221
  464poe    c23 3399   2.807   5.948   3.189  0.1234 -0.2706 -0.1761
  464poe    c23 3400   2.656   5.962   3.162  0.2666  0.8423 -0.4452
  464poe     o2 3401   2.611   5.918   3.036  0.1249  0.2740 -0.2022
  464poe    c23 3402   2.471   5.903   3.029  0.2333 -0.9338  0.0892
  464poe    c23 3403   2.442   5.864   2.882 -0.7111  0.1373 -0.0246
  464poe     o2 3404   2.523   5.749   2.873  0.4359  0.9324 -0.1761
  464poe    c23 3405   2.590   5.718   2.752 -0.3412 -0.2640 -0.3157
  464poe    c23 3406   2.690   5.604   2.780  0.2193  0.2345 -0.2762
  464poe     o2 3407   2.764   5.644   2.892  0.2170 -0.1351 -0.1425
  464poe    c31 3408   2.876   5.560   2.908 -0.1257 -0.6435 -0.4014
  465poe    c31 3409   0.865   0.689   2.653  0.4841  0.2964 -0.2628
  465poe     o2 3410   0.876   0.570   2.727  0.4488  0.5719  0.1843
  465poe    c23 3411   0.992   0.504   2.681  0.2064  0.5049 -0.3374
  465poe    c23 3412   1.041   0.407   2.791 -0.8239 -0.0578 -0.3649
  465poe     o2 3413   0.924   0.341   2.833 -0.6737 -0.1875 -0.1488
  465poe    c23 3414   0.940   0.261   2.948  0.0278  0.9033  0.5298
  465poe    c23 3415   0.803   0.194   2.964  0.4064 -0.0209 -0.0112
  465poe     o2 3416   0.716   0.305   2.958 -0.1499 -0.4197  0.4705
  465poe    c23 3417   0.599   0.284   2.883 -0.1932  0.3602  0.3146
  465poe    c23 3418   0.526   0.418   2.863 -0.2993  0.2555 -0.0106
  465poe     o2 3419   0.620   0.514   2.818 -0.0830 -0.1069 -0.3454
  465poe    c31 3420   0.548   0.636   2.819  0.0639 -0.0228  0.0436
  466poe    c31 3421   3.500   3.437   3.321  0.0632 -0.0505  0.0053
  466poe     o2 3422   3.409   3.432   3.429 -0.1469 -0.0337 -0.1705
  466poe    c23 3423   3.400   3.304   3.487  0.1084  0.2705  0.5466
  466poe    c23 3424   3.303   3.309   3.607 -0.5421 -0.4366  0.0618
  466poe     o2 3425   3.194   3.381   3.555 -0.2561  0.1873  0.3178
  466poe    c23 3426   3.093   3.405   3.651 -0.4713 -0.5727  0.2866
  466poe    c23 3427   2.993   3.506   3.592  0.1492  0.2573  0.6359
  466poe     o2 3428   3.073   3.600   3.523  0.0880 -0.1491 -0.0006
  466poe    c23 3429   2.999   3.674   3.428 -0.0750 -0.1741  0.1057
  466poe    c23 3430   3.105   3.759   3.356 -0.0942  0.1832  0.4993
  466poe     o2 3431   3.217   3.676   3.340 -0.0866  0.1677  0.6358
  466poe    c31 3432   3.319   3.751   3.278  0.1764 -0.4596  0.3008
  467poe    c31 3433   4.439   0.889   2.843 -0.0176 -0.0780 -0.5065
  467poe     o2 3434   4.411   0.788   2.749 -0.2604  0.0953 -0.6203
  467poe    c23 3435   4.313   0.695   2.791 -0.0437 -0.0359 -0.3984
  467poe    c23 3436   4.318   0.580   2.689 -0.1656 -0.3445 -0.0598
  467poe     o2 3437   4.349   0.635   2.562 -0.4675 -0.3817 -0.1485
  467poe    c23 3438   4.324   0.545   2.457 -0.2795 -0.2570 -0.2998
  467poe    c23 3439   4.326   0.638   2.334  0.1237 -0.4042 -0.4064
  467poe     o2 3440   4.432   0.729   2.354  0.2685 -0.6134 -0.2208
  467poe    c23 3441   4.454   0.791   2.230 -0.1762  0.2707  0.1301
  467poe    c23 3442   4.558   0.905   2.232  0.1822 -0.0511 -0.0023
  467poe     o2 3443   4.513   1.018   2.303 -0.3081 -0.0924 -0.2457
  467poe    c31 3444   4.602   1.124   2.278 -0.2042 -0.1332 -0.0578
  468poe    c31 3445   1.209   3.613   0.235 -0.7060 -0.0635  0.0264
  468poe     o2 3446   1.268   3.726   0.174  0.3044 -0.7380 -0.2806
  468poe    c23 3447   1.188   3.761   0.064  0.2633  0.2527  0.0551
  468poe    c23 3448   1.181   3.914   0.046 -0.5401  0.1788 -0.2910
  468poe     o2 3449   1.307   3.967   0.012 -0.0936 -0.1620  0.8221
  468poe    c23 3450   1.341   4.093   0.066  0.0587  0.0478  0.2425
  468poe    c23 3451   1.490   4.085   0.105  0.1942 -0.2510 -0.3232
  468poe     o2 3452   1.497   3.975   0.194  0.3252 -0.4891 -0.6274
  468poe    c23 3453   1.601   3.984   0.289 -0.2194 -0.3223 -0.0415
  468poe    c23 3454   1.563   3.873   0.388 -0.4107  0.0345  0.2877
  468poe     o2 3455   1.528   3.761   0.310  0.0356  0.2731 -0.2679
  468poe    c31 3456   1.542   3.630   0.363 -0.0425  0.3225 -0.1234
  469poe    c31 3457   2.328   3.526   5.418  0.3108  0.1960  0.0738
  469poe     o2 3458   2.396   3.623   5.494  0.2422  0.4933 -0.2424
  469poe    c23 3459   2.513   3.563   5.544  0.2550  0.5402 -0.2164
  469poe    c23 3460   2.563   3.634   5.672  0.1090  0.2239  0.0192
  469poe     o2 3461   2.537   3.771   5.653  0.1557  0.1684 -0.4797
  469poe    c23 3462   2.509   3.826   5.780  0.8208  0.4926 -0.4715
  469poe    c23 3463   2.456   3.970   5.766 -0.2316  0.1134 -0.4429
  469poe     o2 3464   2.331   3.958   5.702 -0.5293 -0.2661  0.1952
  469poe    c23 3465   2.295   4.078   5.637  0.1802 -0.4377 -0.5446
  469poe    c23 3466   2.182   4.073   5.532 -0.0768  0.3484 -0.3140
  469poe     o2 3467   2.225   4.001   5.418 -0.1927 -0.0445 -0.1134
  469poe    c31 3468   2.110   3.965   5.346 -0.2440 -0.1722  0.0317
  470poe    c31 3469   0.244   1.455   3.124  0.0505  0.2406 -0.1434
  470poe     o2 3470   0.343   1.358   3.098  0.1839  0.3060  0.1136
  470poe    c23 3471   0.281   1.238   3.138  0.4824  0.2323  0.3600
  470poe    c23 3472   0.374   1.126   3.088  0.2250  0.2102 -0.0692
  470poe     o2 3473   0.502   1.184   3.082  0.2008  0.2311 -0.4363
  470poe    c23 3474   0.603   1.101   3.030  0.1612  0.0382 -0.2043
  470poe    c23 3475   0.695   1.186   2.941 -0.5244  0.3663 -0.6047
  470poe     o2 3476   0.704   1.307   3.013  0.9420 -0.0568 -0.0432
  470poe    c23 3477   0.763   1.406   2.931  0.7126  0.2526  0.1650
  470poe    c23 3478   0.714   1.535   2.999 -0.3835  0.0821 -0.2922
  470poe     o2 3479   0.576   1.525   3.028 -0.2343 -0.0971  0.3783
  470poe    c31 3480   0.531   1.658   3.032 -0.4130 -0.1575  0.3716
  471poe    c31 3481   1.208   2.872   5.333 -0.1689  0.6835  0.2959
  471poe     o2 3482   1.335   2.932   5.322  0.3024 -0.2394  0.5975
  471poe    c23 3483   1.423   2.861   5.237 -0.1677 -0.2926  0.1486
  471poe    c23 3484   1.563   2.914   5.276 -0.2517  0.4741 -0.5605
  471poe     o2 3485   1.558   3.050   5.315 -0.0698  0.3186  0.0053
  471poe    c23 3486   1.684   3.084   5.369 -0.0409 -0.0728  0.1923
  471poe    c23 3487   1.672   3.232   5.413  0.1157 -0.0880  0.2872
  471poe     o2 3488   1.557   3.242   5.494  0.2571  0.0004  0.4785
  471poe    c23 3489   1.516   3.373   5.526 -0.1977  0.1641 -0.6921
  471poe    c23 3490   1.383   3.345   5.599  0.3748 -0.2415  0.2128
  471poe     o2 3491   1.298   3.269   5.516  0.2945 -0.1541  0.2157
  471poe    c31 3492   1.167   3.274   5.570  0.4516  0.4907  0.5435
  472poe    c31 3493   3.992   5.387   3.261  0.4002 -0.4422 -0.0304
  472poe     o2 3494   4.024   5.513   3.314 -0.0793 -0.2424 -0.2108
  472poe    c23 3495   3.960   5.609   3.232 -0.3888 -0.1977  0.0768
  472poe    c23 3496   3.979   5.750   3.290  0.3644 -0.3034  0.1018
  472poe     o2 3497   4.117   5.780   3.299  0.3498 -0.2748  0.2246
  472poe    c23 3498   4.141   5.893   3.380 -0.2019 -0.1868  0.2716
  472poe    c23 3499   4.281   5.856   3.432 -0.2302  0.4878  0.8340
  472poe     o2 3500   4.264   5.731   3.494 -0.5276  0.2741  0.3232
  472poe    c23 3501   4.390   5.672   3.511 -0.2734  0.6925 -0.0885
  472poe    c23 3502   4.367   5.528   3.561 -0.5349  0.8315  0.1983
  472poe     o2 3503   4.269   5.477   3.474  0.1204  0.2689 -0.2220
  472poe    c31 3504   4.254   5.345   3.520 -0.5418  0.3538 -0.1839
  473poe    c31 3505   5.000   3.689   2.949 -0.0072  0.6115  0.0155
  473poe     o2 3506   5.106   3.708   2.858 -0.1016  0.4781 -0.1237
  473poe    c23 3507   5.224   3.764   2.912  0.5099 -0.3749 -0.5529
  473poe    c23 3508   5.299   3.849   2.808  0.0886  0.2185 -0.3814
  473poe     o2 3509   5.295   3.766   2.694 -1.1897 -0.2278 -0.0295
  473poe    c23 3510   5.397   3.807   2.606 -0.3697 -0.4048  0.8176
  473poe    c23 3511   5.376   3.741   2.468  0.3521  0.2802  0.3714
  473poe     o2 3512   5.255   3.779   2.407  0.3637  0.3532  0.3927
  473poe    c23 3513   5.227   3.709   2.288  0.1007 -0.0851  0.7083
  473poe    c23 3514   5.078   3.716   2.248  0.1416 -0.5432  0.4630
  473poe     o2 3515   4.992   3.649   2.337 -0.0541 -0.5075  0.2990
  473poe    c31 3516   4.874   3.632   2.261 -0.0807 -0.0943  0.2445
  474poe    c31 3517   5.118   4.240   5.065 -0.8341  0.1298 -0.2235
  474poe     o2 3518   4.985   4.285   5.077 -0.7618  0.2076  0.3227
  474poe    c23 3519   4.919   4.250   5.197 -0.3100 -0.3135  0.4243
  474poe    c23 3520   4.776   4.307   5.194 -0.2905 -0.2899 -0.3021
  474poe     o2 3521   4.727   4.294   5.062 -0.1341 -0.0081 -0.3894
  474poe    c23 3522   4.605   4.359   5.035 -0.2273  0.1370  0.3399
  474poe    c23 3523   4.596   4.347   4.881  0.4617 -0.3191  0.3307
  474poe     o2 3524   4.715   4.397   4.825  0.4971  0.1468  0.8194
  474poe    c23 3525   4.725   4.376   4.686  0.5124 -0.3135  0.8897
  474poe    c23 3526   4.867   4.434   4.669  0.1420  0.2657 -0.3142
  474poe     o2 3527   4.956   4.358   4.748 -0.4644 -0.0482  0.0786
  474poe    c31 3528   5.087   4.386   4.705 -0.5452  0.1121 -0.0665
  475poe    c31 3529   5.300   4.661   4.794 -0.1924  0.0526  0.5447
  475poe     o2 3530   5.439   4.677   4.776 -0.2900  0.0967 -0.2062
  475poe    c23 3531   5.507   4.554   4.773 -0.2534  0.1158 -0.1741
  475poe    c23 3532   5.650   4.582   4.723 -0.1946  0.1544  0.0165
  475poe     o2 3533   5.703   4.688   4.800  0.2322 -0.4316  0.5467
  475poe    c23 3534   5.833   4.721   4.756  0.0853 -0.2966  0.2052
  475poe    c23 3535   5.889   4.848   4.824  0.2800 -0.1569 -0.2153
  475poe     o2 3536   5.794   4.950   4.803  0.3011  0.0053  0.4672
  475poe    c23 3537   5.829   5.056   4.890 -0.1382 -0.3224  1.0479
  475poe    c23 3538   5.763   5.181   4.829  0.0361 -0.3164  0.8719
  475poe     o2 3539   5.624   5.175   4.807  0.0528  0.2829  0.5658
  475poe    c31 3540   5.574   5.304   4.780  0.0536  0.0245 -0.7058
  476poe    c31 3541   2.884   4.184   0.379 -0.0559 -0.3040 -0.1616
  476poe     o2 3542   2.825   4.056   0.373 -0.2035 -0.2541  0.1731
  476poe    c23 3543   2.720   4.071   0.281  0.0352 -0.0191 -0.0644
  476poe    c23 3544   2.627   3.947   0.278  0.0112  0.0092 -0.5464
  476poe     o2 3545   2.699   3.832   0.240  0.0837 -0.1124 -0.0383
  476poe    c23 3546   2.630   3.714   0.277 -0.3923 -0.0325 -0.6547
  476poe    c23 3547   2.717   3.597   0.225 -0.0607 -0.2181  0.2884
  476poe     o2 3548   2.772   3.638   0.102 -0.2391  0.1422  0.3261
  476poe    c23 3549   2.820   3.534   0.020  0.0051  0.6750 -0.2184
  476poe    c23 3550   2.927   3.577  -0.082 -0.0983 -0.5013 -0.8484
  476poe     o2 3551   2.896   3.708  -0.126 -0.1006 -0.4006 -0.5534
  476poe    c31 3552   2.920   3.717  -0.265  0.3458  0.0418 -0.4472
  477poe    c31 3553   3.360   6.508   4.090 -0.3896 -0.4575 -0.0212
  477poe     o2 3554   3.261   6.540   4.185 -0.4359  0.4466 -0.3620
  477poe    c23 3555   3.296   6.662   4.246  0.0452  0.3611 -0.4639
  477poe    c23 3556   3.202   6.709   4.358  0.3555  0.8587 -0.4077
  477poe     o2 3557   3.076   6.746   4.306  0.0688  0.9907  0.3589
  477poe    c23 3558   3.000   6.811   4.405 -0.1585  0.1968  0.7155
  477poe    c23 3559   2.852   6.824   4.363  0.0551 -0.0765 -0.1480
  477poe     o2 3560   2.827   6.709   4.286 -0.2438 -0.0905 -0.0294
  477poe    c23 3561   2.698   6.700   4.228 -0.2321 -0.4747 -0.0030
  477poe    c23 3562   2.686   6.564   4.157 -0.1937 -0.2653 -0.4137
  477poe     o2 3563   2.810   6.524   4.102  0.0451  0.1042 -0.1584
  477poe    c31 3564   2.810   6.403   4.029 -0.2278  0.1006 -0.1527
  478poe    c31 3565   5.630   5.573   4.434 -0.5190  0.0197  0.7207
  478poe     o2 3566   5.674   5.699   4.481  0.0611  0.2194 -0.3117
  478poe    c23 3567   5.568   5.791   4.469 -0.3091  0.0098  1.1135
  478poe    c23 3568   5.619   5.926   4.524  0.1796  0.4166 -0.2998
  478poe     o2 3569   5.706   5.893   4.629 -0.2877 -0.1599 -0.0875
  478poe    c23 3570   5.767   6.005   4.690  0.2827 -0.5215  0.0185
  478poe    c23 3571   5.828   5.949   4.819 -0.3853 -0.4129  0.3884
  478poe     o2 3572   5.908   5.840   4.778  0.4342  0.3228  0.0008
  478poe    c23 3573   5.996   5.803   4.881 -0.0176 -0.2888  0.1758
  478poe    c23 3574   6.099   5.699   4.834  0.4061  0.1142  0.2079
  478poe     o2 3575   6.029   5.582   4.799 -0.4251  0.6128  0.1858
  478poe    c31 3576   6.128   5.506   4.734 -0.8479 -0.0187  0.2706
  479poe    c31 3577   1.737   3.281   2.376  0.1072  0.3397  0.0774
  479poe     o2 3578   1.689   3.391   2.301 -0.5057 -0.0541 -0.1201
  479poe    c23 3579   1.595   3.479   2.358  0.0440  0.0394  0.6699
  479poe    c23 3580   1.567   3.604   2.271  0.5363 -0.3269 -0.0235
  479poe     o2 3581   1.516   3.574   2.143  0.0880  0.0072  0.0765
  479poe    c23 3582   1.391   3.639   2.132 -0.2520 -0.5648  0.4969
  479poe    c23 3583   1.321   3.567   2.015 -0.0657 -0.2109  0.1676
  479poe     o2 3584   1.423   3.561   1.917  0.1937  0.1752  0.4083
  479poe    c23 3585   1.385   3.483   1.806  0.0492 -0.0257  0.5977
  479poe    c23 3586   1.502   3.491   1.706  0.1215 -0.5039  0.6386
  479poe     o2 3587   1.621   3.462   1.776  0.4214  0.1613  0.4108
  479poe    c31 3588   1.728   3.469   1.684  0.2578  0.4097  0.2377
  480poe    c31 3589   3.524   2.330   4.194 -0.1254  0.7334 -0.0284
  480poe     o2 3590   3.595   2.268   4.299 -0.4572  0.0750 -0.1888
  480poe    c23 3591   3.565   2.130   4.308 -0.2379  0.0475  0.1746
  480poe    c23 3592   3.643   2.058   4.419  0.5002  0.0508 -0.3400
  480poe     o2 3593   3.770   2.120   4.429  0.3914  0.2417 -0.1458
  480poe    c23 3594   3.839   2.075   4.542 -0.4192 -0.6065  0.0212
  480poe    c23 3595   3.976   2.137   4.507 -0.4307 -0.2291  0.6256
  480poe     o2 3596   3.971   2.274   4.477  0.4431 -0.2890  0.1759
  480poe    c23 3597   4.107   2.313   4.476  0.2804  0.2866  0.0039
  480poe    c23 3598   4.108   2.467   4.478 -0.7587  0.2977  0.2881
  480poe     o2 3599   4.050   2.505   4.355 -0.8113 -0.4075  0.0912
  480poe    c31 3600   4.013   2.640   4.367 -0.2586 -0.2278 -0.1596
  481poe    c31 3601   3.729   1.436   1.963 -0.0475 -0.5217 -0.1564
  481poe     o2 3602   3.759   1.567   1.921 -0.3310 -0.2781  0.3979
  481poe    c23 3603   3.789   1.642   2.036 -0.1060 -0.0483  0.1905
  481poe    c23 3604   3.807   1.790   1.997 -0.1384 -0.1209 -0.0968
  481poe     o2 3605   3.701   1.826   1.912  0.0462  0.1561 -0.2118
  481poe    c23 3606   3.715   1.952   1.850 -0.2467  0.2408 -0.1069
  481poe    c23 3607   3.632   1.948   1.720  0.2506  0.2916 -0.4265
  481poe     o2 3608   3.664   1.822   1.667 -0.1521  0.0347 -0.0659
  481poe    c23 3609   3.583   1.769   1.565 -0.0281  0.3641 -0.3355
  481poe    c23 3610   3.657   1.641   1.523 -0.4111 -0.1024  0.3844
  481poe     o2 3611   3.689   1.574   1.642  0.0975 -0.5460  0.0025
  481poe    c31 3612   3.765   1.463   1.601 -0.2777 -0.8458  0.1096
  482poe    c31 3613   3.027   4.317   1.437  0.1220 -0.0861  0.0786
  482poe     o2 3614   3.088   4.207   1.501  0.0381  0.2783  0.7937
  482poe    c23 3615   3.051   4.208   1.638  0.1441  0.1982  0.8226
  482poe    c23 3616   3.126   4.097   1.715  0.0759 -0.5918 -0.2176
  482poe     o2 3617   3.088   3.963   1.693 -0.0999 -0.5500 -0.1703
  482poe    c23 3618   3.161   3.878   1.779 -0.4182 -0.0686  0.5929
  482poe    c23 3619   3.095   3.739   1.781 -0.2895 -0.1382  0.1915
  482poe     o2 3620   3.080   3.710   1.644  0.3786 -0.1407  0.1122
  482poe    c23 3621   3.058   3.575   1.609  0.2706 -0.0937 -0.0032
  482poe    c23 3622   3.086   3.554   1.460  0.5014  0.0110  0.0256
  482poe     o2 3623   3.074   3.684   1.407  0.0346 -0.1315 -0.2235
  482poe    c31 3624   3.078   3.676   1.267  0.0034  0.0508 -0.2351
  483poe    c31 3625   4.936   1.759   1.569  0.1607 -0.0897  0.5964
  483poe     o2 3626   4.801   1.727   1.545  0.1963  0.3260 -0.1774
  483poe    c23 3627   4.721   1.817   1.618  0.1923  0.1749  0.0030
  483poe    c23 3628   4.579   1.757   1.627  0.3591 -0.2271 -0.0179
  483poe     o2 3629   4.572   1.714   1.493 -0.1412 -0.4767  0.0863
  483poe    c23 3630   4.443   1.714   1.436 -0.1612 -0.4094  0.1330
  483poe    c23 3631   4.447   1.619   1.315  0.0087 -0.0905 -0.1126
  483poe     o2 3632   4.579   1.644   1.273 -0.0205  0.2922  0.0165
  483poe    c23 3633   4.631   1.541   1.192  0.2032  0.6959 -0.3610
  483poe    c23 3634   4.784   1.536   1.180  0.2298  0.1056  0.1446
  483poe     o2 3635   4.815   1.538   1.317 -0.0298 -0.7006  0.2178
  483poe    c31 3636   4.950   1.510   1.344  0.1326  0.0459  0.1842
  484poe    c31 3637   3.553   3.313   1.288 -0.2118 -0.4465  0.3491
  484poe     o2 3638   3.633   3.253   1.388  0.1229 -0.0541  0.3206
  484poe    c23 3639   3.701   3.140   1.339  0.1405  0.2198 -0.2955
  484poe    c23 3640   3.800   3.074   1.436 -0.2473 -0.4468 -0.3463
  484poe     o2 3641   3.729   3.052   1.556 -0.0151 -0.0737 -0.1365
  484poe    c23 3642   3.777   2.933   1.615  0.0917  0.0472  0.0187
  484poe    c23 3643   3.707   2.900   1.748  0.0007 -0.0632 -0.0565
  484poe     o2 3644   3.704   3.016   1.827 -0.3143 -0.2808  0.2514
  484poe    c23 3645   3.627   3.008   1.945  0.5056  0.0948  0.8265
  484poe    c23 3646   3.606   3.153   1.993 -0.0758  0.3373 -0.1303
  484poe     o2 3647   3.591   3.231   1.877 -0.8972 -0.1692 -0.3732
  484poe    c31 3648   3.576   3.367   1.910  0.5508 -0.0822 -0.0176
  485poe    c31 3649   0.998   1.960   4.470  0.3296 -0.2001 -0.0070
  485poe     o2 3650   1.015   1.839   4.399  0.8276  0.0613 -0.3360
  485poe    c23 3651   1.122   1.833   4.307  0.7229 -0.1523 -0.4447
  485poe    c23 3652   1.138   1.689   4.256 -0.2327 -0.3924 -0.0790
  485poe     o2 3653   1.016   1.627   4.220 -0.5305  0.2860 -0.2437
  485poe    c23 3654   1.041   1.499   4.168 -0.3294  0.1896  0.0833
  485poe    c23 3655   0.908   1.439   4.118 -0.0718 -0.2642 -0.0600
  485poe     o2 3656   0.802   1.434   4.211  0.1251 -0.4108  0.1583
  485poe    c23 3657   0.687   1.365   4.169 -0.3519  0.4575 -0.0051
  485poe    c23 3658   0.612   1.347   4.302 -0.1013 -0.0188  0.0761
  485poe     o2 3659   0.613   1.469   4.373  0.8123  0.0987 -0.1222
  485poe    c31 3660   0.519   1.449   4.477  0.3047 -0.0963 -0.6072
  486poe    c31 3661   1.572   2.267   3.451 -0.2402  0.2402 -0.2836
  486poe     o2 3662   1.541   2.362   3.352  0.1390  0.2301 -0.4167
  486poe    c23 3663   1.656   2.437   3.321 -0.1152  0.6497 -0.3561
  486poe    c23 3664   1.654   2.490   3.176  0.3614 -0.2366 -0.6916
  486poe     o2 3665   1.518   2.518   3.152  0.2136 -0.6348 -0.3288
  486poe    c23 3666   1.502   2.557   3.018 -0.6448  0.8777  0.1875
  486poe    c23 3667   1.358   2.508   2.997 -0.4362  0.2194  0.2545
  486poe     o2 3668   1.344   2.380   3.053 -0.1106  0.0264 -0.1072
  486poe    c23 3669   1.212   2.331   3.044 -0.0797 -0.0506 -0.1431
  486poe    c23 3670   1.198   2.202   3.126 -0.4422 -0.0612 -0.2206
  486poe     o2 3671   1.261   2.238   3.247 -0.7434  0.0235 -0.0884
  486poe    c31 3672   1.231   2.144   3.347  0.3530  0.1260  0.3506
  487poe    c31 3673   6.251   6.214   4.684  0.1253 -0.4283 -0.0518
  487poe     o2 3674   6.221   6.236   4.548 -0.2235  0.2644  0.1348
  487poe    c23 3675   6.154   6.133   4.479  0.1274  0.2537 -0.1926
  487poe    c23 3676   6.189   6.146   4.330 -0.4016 -0.1079 -0.3495
  487poe     o2 3677   6.175   6.283   4.303  0.3095  0.0808  0.2167
  487poe    c23 3678   6.179   6.310   4.165 -0.0070 -0.1070  0.1707
  487poe    c23 3679   6.145   6.459   4.142  0.5320 -0.0714 -0.4326
  487poe     o2 3680   6.247   6.543   4.189  0.2700  0.0380 -0.0559
  487poe    c23 3681   6.223   6.680   4.167  0.0835  0.1473  0.7925
  487poe    c23 3682   6.338   6.766   4.225  0.0749  0.7741 -0.1071
  487poe     o2 3683   6.464   6.743   4.167  0.0004  0.0262  0.0191
  487poe    c31 3684   6.550   6.847   4.209 -0.1382  0.1175  0.0790
  488poe    c31 3685   0.300   0.409   2.140  0.0834  0.1097  0.0096
  488poe     o2 3686   0.171   0.373   2.186  0.2864 -0.1956  0.3445
  488poe    c23 3687   0.120   0.257   2.126 -0.1422  0.2176 -0.0961
  488poe    c23 3688  -0.022   0.239   2.183 -0.0454  0.0600  0.0941
  488poe     o2 3689  -0.004   0.268   2.320 -0.3103  0.1128  0.1191
  488poe    c23 3690  -0.119   0.244   2.398 -0.3525  0.5171  0.1855
  488poe    c23 3691  -0.093   0.281   2.545 -0.2380 -0.0555  0.3151
  488poe     o2 3692  -0.003   0.390   2.535 -0.0062 -0.2775 -0.0308
  488poe    c23 3693   0.053   0.399   2.664  0.3285  0.0556 -0.1951
  488poe    c23 3694   0.172   0.492   2.640  0.0410  0.3823 -0.3605
  488poe     o2 3695   0.226   0.479   2.510 -0.1324 -0.5505 -0.3405
  488poe    c31 3696   0.342   0.558   2.511 -0.6287  0.1909 -0.2036
  489poe    c31 3697   4.380   3.949   1.155 -0.4334 -0.0143 -0.0355
  489poe     o2 3698   4.401   3.876   1.274 -0.1018  0.0810 -0.0359
  489poe    c23 3699   4.279   3.838   1.332 -0.0025 -0.6370 -0.2887
  489poe    c23 3700   4.280   3.724   1.435  0.1463 -0.3841 -0.0096
  489poe     o2 3701   4.385   3.733   1.528  0.1832  0.1225 -0.1011
  489poe    c23 3702   4.361   3.645   1.636 -0.7748  0.1606 -0.2742
  489poe    c23 3703   4.494   3.615   1.708 -0.9914  0.5290  0.2807
  489poe     o2 3704   4.548   3.740   1.743 -0.4539  0.1927  0.6630
  489poe    c23 3705   4.659   3.731   1.830  0.2614 -0.6576 -0.3127
  489poe    c23 3706   4.746   3.848   1.781 -0.0600  0.2405  1.1894
  489poe     o2 3707   4.662   3.961   1.764  0.1333  0.1798 -0.2770
  489poe    c31 3708   4.753   4.068   1.751  0.5975 -0.2192 -0.3785
  490poe    c31 3709   0.655   6.207   5.384  0.1614  0.4461 -0.0855
  490poe     o2 3710   0.725   6.155   5.495  0.0204  0.2035 -0.1100
  490poe    c23 3711   0.647   6.180   5.611 -0.6460 -0.8328 -0.3196
  490poe    c23 3712   0.717   6.121   5.735  0.1728  0.4775 -0.1402
  490poe     o2 3713   0.854   6.153   5.745  0.3830 -0.5647  0.4598
  490poe    c23 3714   0.883   6.263   5.828  0.3308 -0.4035  0.2658
  490poe    c23 3715   1.003   6.319   5.749  0.3481 -0.3768  0.3114
  490poe     o2 3716   0.975   6.314   5.611  0.1897 -0.6503  0.3528
  490poe    c23 3717   1.080   6.376   5.541 -0.0119 -0.7675 -0.0561
  490poe    c23 3718   1.049   6.354   5.391  0.0136  0.1558 -0.2049
  490poe     o2 3719   0.999   6.223   5.375  0.4744 -0.0833  0.2744
  490poe    c31 3720   1.021   6.170   5.246 -0.4107  0.2172 -0.0079
  491poe    c31 3721   0.050   1.599   0.570 -0.2577  0.6289 -0.5182
  491poe     o2 3722   0.154   1.680   0.520  0.3260  0.1615 -0.0771
  491poe    c23 3723   0.102   1.805   0.479 -0.2740 -0.1128 -0.1647
  491poe    c23 3724   0.227   1.893   0.458 -0.4527  0.3281  0.5859
  491poe     o2 3725   0.325   1.813   0.397 -0.1385  0.8436  0.4117
  491poe    c23 3726   0.450   1.879   0.397  0.1953  0.2176  0.5239
  491poe    c23 3727   0.547   1.807   0.302 -0.2117  0.3850 -0.0243
  491poe     o2 3728   0.549   1.671   0.339  0.2113  0.3525 -0.1659
  491poe    c23 3729   0.624   1.595   0.246  0.2522 -0.5352  0.5764
  491poe    c23 3730   0.579   1.450   0.218 -0.0990 -0.3906  0.3740
  491poe     o2 3731   0.455   1.431   0.156 -0.3466  0.7754  0.4885
  491poe    c31 3732   0.444   1.478   0.023  0.0455  0.2737  0.2737
  492poe    c31 3733   3.161   5.998   5.533 -0.0441 -0.5748 -0.6736
  492poe     o2 3734   3.299   6.023   5.516 -0.1643  0.4635 -0.1498
  492poe    c23 3735   3.335   6.146   5.575 -0.1659  0.3122  0.1674
  492poe    c23 3736   3.486   6.176   5.571 -0.0689 -0.1878  0.0359
  492poe     o2 3737   3.559   6.096   5.662 -0.1631 -0.2720  0.0374
  492poe    c23 3738   3.693   6.133   5.685 -0.2327  0.0909 -0.1427
  492poe    c23 3739   3.750   6.037   5.791  0.0854  0.3490 -0.0756
  492poe     o2 3740   3.707   5.907   5.756 -0.1461  0.3499  0.1982
  492poe    c23 3741   3.706   5.813   5.861 -0.1808  0.2033  0.0679
  492poe    c23 3742   3.646   5.685   5.802  0.2379 -0.0151  0.1154
  492poe     o2 3743   3.525   5.724   5.742  0.2121  0.0112  0.1853
  492poe    c31 3744   3.457   5.602   5.723 -0.0319  0.0977  0.4982
  493poe    c31 3745   0.789   5.462   2.792  0.6000  0.1093  0.6711
  493poe     o2 3746   0.801   5.353   2.704 -0.7153  0.1136  0.4644
  493poe    c23 3747   0.704   5.365   2.603 -0.6332 -0.3127  0.3318
  493poe    c23 3748   0.695   5.225   2.539 -0.4916 -0.4440  0.5935
  493poe     o2 3749   0.824   5.183   2.503 -0.4158  0.2739 -0.0120
  493poe    c23 3750   0.819   5.046   2.470  0.3277  0.2000  0.1556
  493poe    c23 3751   0.966   5.002   2.471  0.0373 -0.8106  0.7315
  493poe     o2 3752   1.019   5.061   2.588 -0.1401  0.7379  0.0497
  493poe    c23 3753   1.159   5.077   2.588 -0.0246 -0.1972  0.0412
  493poe    c23 3754   1.200   5.168   2.706  0.0843 -0.2131  0.0154
  493poe     o2 3755   1.101   5.265   2.728  0.2634 -0.0041 -0.0938
  493poe    c31 3756   1.141   5.349   2.834 -0.0031 -0.3024  0.2493
  494poe    c31 3757   2.089   2.593   0.893 -0.0256 -0.1596  0.4279
  494poe     o2 3758   2.164   2.587   0.774  0.3396 -0.4879  0.6746
  494poe    c23 3759   2.090   2.627   0.661  1.2604 -1.0051 -0.1287
  494poe    c23 3760   2.153   2.749   0.591 -0.1124 -0.2954 -0.1665
  494poe     o2 3761   2.291   2.721   0.586 -0.1750 -0.5385 -0.5994
  494poe    c23 3762   2.390   2.815   0.552 -0.2513 -0.3697 -0.3518
  494poe    c23 3763   2.517   2.731   0.573  0.1699  0.3552  0.0525
  494poe     o2 3764   2.507   2.682   0.704 -0.2840  0.0994 -0.0776
  494poe    c23 3765   2.546   2.759   0.815 -0.0603  0.0129 -0.0953
  494poe    c23 3766   2.557   2.647   0.921  0.7391 -0.6778 -0.8965
  494poe     o2 3767   2.438   2.572   0.910 -0.2224  0.5521  0.5914
  494poe    c31 3768   2.437   2.484   1.021 -0.7981  0.3660  0.4430
  495poe    c31 3769   5.433   3.142   0.417 -0.5430 -0.2335  0.1424
  495poe     o2 3770   5.416   3.003   0.404  0.3827 -0.3604  0.2393
  495poe    c23 3771   5.406   2.948   0.533 -0.0782 -0.2251  0.2629
  495poe    c23 3772   5.404   2.794   0.527 -0.3565 -0.2006 -0.4169
  495poe     o2 3773   5.315   2.766   0.422 -0.2953  0.0308 -0.5295
  495poe    c23 3774   5.315   2.626   0.406  0.1445 -0.0293 -0.0282
  495poe    c23 3775   5.426   2.586   0.308  0.1885  0.3918 -0.1511
  495poe     o2 3776   5.423   2.682   0.204 -0.0104  0.5932  0.0418
  495poe    c23 3777   5.558   2.709   0.174  0.0287  0.0128 -0.3172
  495poe    c23 3778   5.562   2.833   0.084 -0.3218  0.1474 -0.1491
  495poe     o2 3779   5.494   2.935   0.154 -0.0768 -0.1274  0.4951
  495poe    c31 3780   5.533   3.064   0.113 -0.1413 -0.0635  0.6310
  496poe    c31 3781   4.832   0.712   6.170 -0.0162  0.2223 -0.2520
  496poe     o2 3782   4.755   0.827   6.200 -0.2900  0.1910 -0.8285
  496poe    c23 3783   4.668   0.790   6.305 -0.0647  0.2012 -0.6364
  496poe    c23 3784   4.622   0.922   6.369 -0.5914 -0.3556  0.1433
  496poe     o2 3785   4.584   1.010   6.266 -0.5302 -0.2292  0.2295
  496poe    c23 3786   4.545   1.134   6.322  0.1958  0.1553 -0.0978
  496poe    c23 3787   4.544   1.248   6.219 -0.0095  0.0182 -0.2484
  496poe     o2 3788   4.661   1.233   6.141  0.4673  0.0027  0.4637
  496poe    c23 3789   4.695   1.343   6.059  0.2099 -0.1602  0.1383
  496poe    c23 3790   4.724   1.296   5.915 -0.1950 -0.4240  0.1385
  496poe     o2 3791   4.837   1.212   5.904 -0.2666 -0.5212  0.1398
  496poe    c31 3792   4.865   1.201   5.766  0.0253 -0.6242  0.2057
  497poe    c31 3793   0.950   0.580   1.409  0.4017  0.3317  0.2925
  497poe     o2 3794   0.950   0.653   1.530  0.2685 -0.1975  0.6151
  497poe    c23 3795   1.053   0.749   1.530 -0.3206  0.4520 -0.3048
  497poe    c23 3796   1.049   0.811   1.671 -0.1026 -0.4200  0.0956
  497poe     o2 3797   0.913   0.832   1.705  0.0766  0.6199  0.2048
  497poe    c23 3798   0.906   0.869   1.841  0.0655  0.3437  0.2798
  497poe    c23 3799   0.753   0.878   1.855  0.0184 -0.2700  0.1928
  497poe     o2 3800   0.693   0.759   1.811  0.2842 -0.2753 -0.1670
  497poe    c23 3801   0.558   0.772   1.773 -0.0331 -0.2735  0.9174
  497poe    c23 3802   0.524   0.630   1.726 -0.2880  0.0210  0.1908
  497poe     o2 3803   0.608   0.597   1.618 -0.2825  0.0579  0.1837
  497poe    c31 3804   0.554   0.484   1.553 -0.0566  0.2074 -0.2695
  498poe    c31 3805   6.696   1.819   4.286  0.1412  0.2797 -0.2185
  498poe     o2 3806   6.618   1.736   4.204 -0.3101  0.4376  0.0472
  498poe    c23 3807   6.572   1.825   4.105 -0.2373  0.0431 -0.3426
  498poe    c23 3808   6.478   1.749   4.009 -0.2778 -0.2261 -0.0887
  498poe     o2 3809   6.557   1.636   3.979 -0.0252 -0.0814  0.0208
  498poe    c23 3810   6.507   1.558   3.873 -0.1292  0.0921 -0.0586
  498poe    c23 3811   6.603   1.437   3.869  0.3625  0.4846 -0.1544
  498poe     o2 3812   6.624   1.411   4.006  0.0833  0.4513 -0.1177
  498poe    c23 3813   6.736   1.327   4.009 -0.4702 -0.2902  0.0756
  498poe    c23 3814   6.779   1.315   4.156 -0.6930 -0.3625  0.1352
  498poe     o2 3815   6.767   1.442   4.217  0.0414 -0.1173 -0.2169
  498poe    c31 3816   6.852   1.448   4.329 -0.3014  0.1648  0.0278
  499poe    c31 3817   3.113   2.854   5.729 -0.5398 -0.0588  0.0364
  499poe     o2 3818   3.132   2.760   5.832  0.3785  0.0200 -0.0518
  499poe    c23 3819   3.021   2.776   5.917  0.3001 -0.4674 -0.0585
  499poe    c23 3820   3.046   2.683   6.037  0.2116 -0.0504  0.2869
  499poe     o2 3821   3.177   2.711   6.084  0.1510  0.1077  0.3631
  499poe    c23 3822   3.232   2.634   6.188 -0.3262 -0.5211  0.1592
  499poe    c23 3823   3.328   2.530   6.128  0.4016  0.1572  0.1324
  499poe     o2 3824   3.390   2.596   6.020 -0.2402 -0.0402 -0.3650
  499poe    c23 3825   3.487   2.517   5.954 -0.1671  0.2340 -0.5866
  499poe    c23 3826   3.527   2.595   5.828  0.3660 -0.0702 -0.6081
  499poe     o2 3827   3.409   2.651   5.775  0.3634  0.5729  0.0651
  499poe    c31 3828   3.383   2.601   5.646 -0.6016 -0.3725  0.6131
  500poe    c31 3829   5.947   0.087   5.504 -0.0298 -0.0247 -0.1839
  500poe     o2 3830   5.965   0.037   5.634  0.4103 -0.3243 -0.3548
  500poe    c23 3831   5.864  -0.056   5.666 -0.2845  0.6445  0.3470
  500poe    c23 3832   5.913  -0.124   5.796 -0.3864 -0.0296  0.0409
  500poe     o2 3833   5.947  -0.025   5.891 -0.6816  0.3746 -0.2656
  500poe    c23 3834   5.988  -0.073   6.017 -0.4876  0.0479 -0.4496
  500poe    c23 3835   6.054   0.047   6.087 -0.4529  0.1877 -0.7215
  500poe     o2 3836   6.129   0.111   5.986  0.4581 -0.3151 -0.3756
  500poe    c23 3837   6.141   0.248   6.017  0.8082 -0.3972 -0.1401
  500poe    c23 3838   6.204   0.317   5.895 -0.0976  0.0646 -0.3519
  500poe     o2 3839   6.150   0.251   5.783 -0.4567 -0.3311  0.0544
  500poe    c31 3840   6.216   0.304   5.670 -0.2281 -0.0796  0.3044
  501poe    c31 3841   6.213   4.048   5.167 -0.1098  0.6523  0.2978
  501poe     o2 3842   6.080   4.027   5.127 -0.0454  0.3116  0.2613
  501poe    c23 3843   5.994   4.026   5.238  0.0303 -0.0478  0.3191
  501poe    c23 3844   5.866   3.949   5.199  0.0380  0.1276 -0.0512
  501poe     o2 3845   5.852   3.964   5.060 -0.2472 -0.4235 -0.0854
  501poe    c23 3846   5.739   3.901   5.005 -0.4735 -0.2126  0.1356
  501poe    c23 3847   5.752   3.892   4.852 -0.5142 -0.0885  0.1255
  501poe     o2 3848   5.890   3.914   4.835 -0.5364 -0.0247  0.0251
  501poe    c23 3849   5.928   3.948   4.703 -0.0066 -0.4947  0.0499
  501poe    c23 3850   6.079   3.960   4.679 -0.0985 -0.2110 -0.4075
  501poe     o2 3851   6.140   4.019   4.791 -0.6837  0.2322 -0.3237
  501poe    c31 3852   6.280   4.029   4.783 -0.5997 -0.4756  0.2300
  502poe    c31 3853   3.695   3.514   0.552 -0.3313 -0.1396 -0.5008
  502poe     o2 3854   3.701   3.515   0.692  0.3631 -0.1738 -0.5263
  502poe    c23 3855   3.576   3.559   0.740  0.3878 -0.1810 -0.4553
  502poe    c23 3856   3.586   3.569   0.893  0.4869 -0.1061 -0.4664
  502poe     o2 3857   3.677   3.673   0.924  0.4476 -0.1400 -0.2301
  502poe    c23 3858   3.719   3.659   1.057  0.3177 -0.6101 -0.2360
  502poe    c23 3859   3.853   3.733   1.075  0.2655 -0.5511 -0.0851
  502poe     o2 3860   3.923   3.692   0.959  0.1502  0.2531 -0.4474
  502poe    c23 3861   4.050   3.752   0.944  0.2993  0.2259  0.6118
  502poe    c23 3862   4.108   3.671   0.827 -0.0806  0.4182  0.2886
  502poe     o2 3863   4.007   3.652   0.730  0.4984 -0.4378 -0.1650
  502poe    c31 3864   4.059   3.624   0.602  0.4819  0.1989 -0.3151
  503poe    c31 3865   4.929   6.511   1.845 -0.3146  0.5958 -0.0973
  503poe     o2 3866   4.887   6.644   1.861 -0.0229  0.6383  0.3181
  503poe    c23 3867   4.956   6.725   1.769  0.4125  0.0850  0.1556
  503poe    c23 3868   4.889   6.863   1.763  0.1042 -0.0711 -0.0569
  503poe     o2 3869   4.872   6.892   1.900 -0.5013 -0.3234 -0.0798
  503poe    c23 3870   4.793   7.007   1.919 -0.3023 -0.1263 -0.4421
  503poe    c23 3871   4.776   7.014   2.072  0.4646 -0.3173 -0.3489
  503poe     o2 3872   4.761   6.880   2.113  1.0576 -0.1330  0.4966
  503poe    c23 3873   4.759   6.854   2.251  0.4784  0.3700  0.5844
  503poe    c23 3874   4.866   6.743   2.259 -0.3038 -0.4323  0.1331
  503poe     o2 3875   4.873   6.653   2.151  0.3652 -0.3992  0.1471
  503poe    c31 3876   4.925   6.528   2.190 -0.2363 -0.7486 -0.1552
  504poe    c31 3877   3.318   0.479   0.797  0.5361 -0.0007 -0.6580
  504poe     o2 3878   3.276   0.538   0.676 -0.0955 -0.7265 -0.7978
  504poe    c23 3879   3.135   0.543   0.689 -0.0128 -0.0870 -0.0693
  504poe    c23 3880   3.087   0.583   0.549 -0.7116 -0.0578  0.1772
  504poe     o2 3881   3.166   0.692   0.506 -0.4371 -0.3994 -0.1859
  504poe    c23 3882   3.155   0.741   0.374 -0.6422  0.4654  0.1504
  504poe    c23 3883   3.244   0.867   0.380  0.0627 -0.0369  0.3143
  504poe     o2 3884   3.369   0.814   0.418  0.0321 -0.4131 -0.1011
  504poe    c23 3885   3.471   0.911   0.426 -0.1054 -0.2310 -0.5623
  504poe    c23 3886   3.597   0.838   0.475 -0.2538 -0.2369 -0.1887
  504poe     o2 3887   3.555   0.757   0.583  0.2054 -0.0708  0.1224
  504poe    c31 3888   3.668   0.688   0.630  0.1988  0.2225  0.5674
  505poe    c31 3889   2.636   0.791   4.782 -0.1186 -0.5369  0.3687
  505poe     o2 3890   2.618   0.765   4.645  0.0072 -0.3393  0.3131
  505poe    c23 3891   2.692   0.660   4.588 -0.7533 -0.7087 -0.0172
  505poe    c23 3892   2.678   0.664   4.435  0.4888  0.2821 -0.1248
  505poe     o2 3893   2.662   0.794   4.383 -0.5358  0.0789 -0.3428
  505poe    c23 3894   2.611   0.790   4.251 -0.2705  0.0865 -0.4468
  505poe    c23 3895   2.517   0.911   4.240 -0.3145  0.0611 -0.3532
  505poe     o2 3896   2.429   0.885   4.347  0.0404  0.3427  0.0096
  505poe    c23 3897   2.309   0.958   4.342 -0.0357  0.2384  0.2855
  505poe    c23 3898   2.223   0.929   4.467  0.0022 -0.3618  0.1723
  505poe     o2 3899   2.325   0.921   4.564  0.1070 -0.0768  0.0862
  505poe    c31 3900   2.282   0.889   4.695  0.1989 -0.0072  0.1339
  506poe    c31 3901   3.209   3.883   2.573 -0.0384  0.0151 -0.6772
  506poe     o2 3902   3.128   3.826   2.674  0.3107  0.0991 -0.3497
  506poe    c23 3903   3.179   3.833   2.806  0.4803  0.3920 -0.4297
  506poe    c23 3904   3.089   3.753   2.901  0.3628  0.8157 -0.1807
  506poe     o2 3905   2.971   3.819   2.860 -0.0420  0.1055 -0.1874
  506poe    c23 3906   2.856   3.762   2.917  0.0797 -0.2433 -0.2910
  506poe    c23 3907   2.733   3.840   2.866 -0.0951 -0.2540  0.1105
  506poe     o2 3908   2.744   3.832   2.726  0.2462 -0.1437  0.1302
  506poe    c23 3909   2.660   3.924   2.660  0.2654 -0.4257 -0.2933
  506poe    c23 3910   2.727   3.944   2.523  0.1196  0.8021 -0.1986
  506poe     o2 3911   2.866   3.948   2.547  0.1820  0.0051 -0.3830
  506poe    c31 3912   2.912   4.020   2.435  0.1715  0.7118  0.0596
  507poe    c31 3913   0.465   3.553   4.681 -0.6905  0.0417 -0.4158
  507poe     o2 3914   0.348   3.497   4.736 -0.4169  0.5658  0.7377
  507poe    c23 3915   0.250   3.481   4.636  0.4512 -0.0461 -0.0389
  507poe    c23 3916   0.116   3.434   4.697  0.7033 -0.5546  0.1299
  507poe     o2 3917   0.090   3.485   4.825  0.2415 -0.6040  0.0572
  507poe    c23 3918  -0.036   3.445   4.875  0.1448 -0.5494 -0.1409
  507poe    c23 3919  -0.032   3.458   5.029  0.3940 -0.4044 -0.1590
  507poe     o2 3920   0.100   3.431   5.072  0.3607  0.2594  0.3646
  507poe    c23 3921   0.155   3.302   5.068 -0.3551 -0.0317 -0.3041
  507poe    c23 3922   0.308   3.310   5.088 -0.2591 -0.0921 -0.9693
  507poe     o2 3923   0.367   3.415   5.016  0.2503  0.1462 -0.2163
  507poe    c31 3924   0.505   3.419   5.045  0.2388 -0.0548 -0.1338
  508poe    c31 3925   4.131   3.218   6.032  0.2449 -0.1270  0.1248
  508poe     o2 3926   4.149   3.088   5.980  0.3534 -0.0110 -0.1279
  508poe    c23 3927   4.270   3.038   6.032 -0.1981 -0.6759  0.5442
  508poe    c23 3928   4.305   2.909   5.956  0.2027 -0.0879 -0.2830
  508poe     o2 3929   4.185   2.843   5.923 -0.2075  0.4966  0.0199
  508poe    c23 3930   4.220   2.759   5.816 -0.2468  0.3196  0.1466
  508poe    c23 3931   4.092   2.735   5.733 -0.3348 -0.1120  0.4021
  508poe     o2 3932   4.042   2.867   5.726  0.1481  0.0574  0.0419
  508poe    c23 3933   3.978   2.908   5.607  0.1679  0.0914  0.0432
  508poe    c23 3934   3.959   3.060   5.615 -0.2445  0.0474 -0.0731
  508poe     o2 3935   3.943   3.089   5.752  0.0132 -0.0902 -0.0143
  508poe    c31 3936   3.917   3.224   5.779  0.3244 -0.0133 -0.0862
  509poe    c31 3937   4.941   1.869   0.727 -0.1257  0.5548  0.0309
  509poe     o2 3938   5.016   1.782   0.646 -0.2283 -0.2363  0.7707
  509poe    c23 3939   4.931   1.695   0.573  0.2641 -0.2553  0.2128
  509poe    c23 3940   5.014   1.605   0.480  0.0562 -0.1789 -0.0474
  509poe     o2 3941   5.100   1.685   0.402 -0.4467 -0.2136 -0.6419
  509poe    c23 3942   5.194   1.617   0.321 -0.3458 -0.2616 -0.4846
  509poe    c23 3943   5.285   1.727   0.263  0.0724 -0.4595 -0.2090
  509poe     o2 3944   5.315   1.817   0.367  0.4179 -0.7677 -0.0397
  509poe    c23 3945   5.437   1.794   0.435  0.4401  0.5446  0.4008
  509poe    c23 3946   5.424   1.876   0.564  0.3790  0.3916  0.4924
  509poe     o2 3947   5.290   1.895   0.606  0.2644  0.2566  0.1879
  509poe    c31 3948   5.284   1.989   0.710  0.5593 -0.0836  0.5147
  510poe    c31 3949   1.440   5.422   0.221  0.1641  0.0719 -0.8816
  510poe     o2 3950   1.575   5.396   0.251 -0.0230  0.1256  0.0422
  510poe    c23 3951   1.655   5.509   0.222  0.0846  0.0197 -0.0820
  510poe    c23 3952   1.800   5.459   0.238 -0.0608 -0.2089  0.5938
  510poe     o2 3953   1.815   5.369   0.345  0.2010 -0.1544  0.6029
  510poe    c23 3954   1.929   5.289   0.321  0.6788  0.5159  0.6128
  510poe    c23 3955   1.891   5.147   0.368  0.2456  0.1729 -0.7173
  510poe     o2 3956   1.764   5.116   0.316 -0.2166 -0.0794  0.5268
  510poe    c23 3957   1.718   4.988   0.353 -0.5032 -0.2125 -0.2598
  510poe    c23 3958   1.567   4.993   0.326 -0.5320  0.3519 -0.0136
  510poe     o2 3959   1.530   5.122   0.369 -0.1756  0.4534 -0.0068
  510poe    c31 3960   1.406   5.134   0.435 -0.2526  0.1037 -0.0856
  511poe    c31 3961   0.177   1.962   3.175 -0.1546 -0.0201  0.0297
  511poe     o2 3962   0.259   2.038   3.260  0.4082 -0.4090 -0.1581
  511poe    c23 3963   0.355   2.108   3.184  0.3405 -0.3457 -0.1848
  511poe    c23 3964   0.384   2.241   3.257 -0.0109 -0.1908 -0.3253
  511poe     o2 3965   0.389   2.202   3.392 -0.2070  0.1515 -0.2178
  511poe    c23 3966   0.363   2.306   3.484 -0.1753  0.0712 -0.1174
  511poe    c23 3967   0.372   2.244   3.625 -0.3303  0.0458 -0.1189
  511poe     o2 3968   0.312   2.119   3.597  0.0699 -0.2278  0.2334
  511poe    c23 3969   0.347   2.023   3.694  0.4442 -0.1265  0.1995
  511poe    c23 3970   0.295   1.893   3.628  0.2954 -0.3588  0.7707
  511poe     o2 3971   0.323   1.904   3.490 -0.1738 -0.4846  0.6652
  511poe    c31 3972   0.369   1.779   3.445  0.0949 -0.1750  0.0754
  512poe    c31 3973   4.465   3.743   6.356 -0.0709  0.2454  0.3668
  512poe     o2 3974   4.436   3.822   6.243  0.1924  0.2269  0.2859
  512poe    c23 3975   4.480   3.755   6.127  0.5146  1.0689 -0.0927
  512poe    c23 3976   4.464   3.853   6.010  0.1338  0.8052 -0.2664
  512poe     o2 3977   4.326   3.876   5.999  0.0056  0.0268 -0.3248
  512poe    c23 3978   4.316   3.994   5.922 -0.1451  0.0817 -0.2232
  512poe    c23 3979   4.169   4.015   5.881  0.0001 -0.1010 -0.8496
  512poe     o2 3980   4.093   3.994   5.998  0.3442  0.0241 -0.5994
  512poe    c23 3981   3.955   4.020   5.982  0.3370  0.2278 -0.2137
  512poe    c23 3982   3.906   4.143   6.060 -0.0692  0.0061 -0.1178
  512poe     o2 3983   3.952   4.153   6.193  0.5288 -0.0139 -0.3189
  512poe    c31 3984   3.902   4.273   6.249  0.6055  0.0317 -0.3485
  513poe    c31 3985   1.715   1.642   0.963  0.1610  0.5781  0.1799
  513poe     o2 3986   1.822   1.685   0.883  0.2242 -0.0741 -0.0867
  513poe    c23 3987   1.793   1.643   0.751  0.2280  0.1794 -0.1702
  513poe    c23 3988   1.924   1.608   0.679  0.2147 -0.2259 -0.0018
  513poe     o2 3989   2.010   1.720   0.682  0.0557 -0.0970 -0.2585
  513poe    c23 3990   2.145   1.691   0.651 -0.0178 -0.1927 -0.4947
  513poe    c23 3991   2.222   1.786   0.745 -0.3050  0.0454 -0.4963
  513poe     o2 3992   2.161   1.772   0.871  0.4189  0.3804 -0.1002
  513poe    c23 3993   2.229   1.841   0.973 -0.2795  0.4755  0.3096
  513poe    c23 3994   2.134   1.818   1.091 -0.0464  0.4998  0.5032
  513poe     o2 3995   2.011   1.863   1.039 -0.2486 -0.0014  0.5357
  513poe    c31 3996   1.936   1.946   1.124 -0.0757 -0.2472  0.9276
  514poe    c31 3997   6.204   3.115   6.559  0.0914  0.0540 -0.1583
  514poe     o2 3998   6.250   3.221   6.639  0.2187 -0.1023 -0.0224
  514poe    c23 3999   6.149   3.320   6.634  0.2058 -0.1181 -0.0750
  514poe    c23 4000   6.203   3.451   6.693  0.1884  0.0091 -0.3410
  514poe     o2 4001   6.299   3.514   6.610 -0.0928  0.6522 -0.1895
  514poe    c23 4002   6.238   3.592   6.510 -0.0217  0.3688 -0.4570
  514poe    c23 4003   6.340   3.692   6.451  0.0445  0.1166 -0.7696
  514poe     o2 4004   6.466   3.631   6.466  0.2563  0.6314 -0.4458
  514poe    c23 4005   6.563   3.712   6.403  0.5042  0.2944 -0.5022
  514poe    c23 4006   6.704   3.664   6.441  0.2926  0.1011  0.0427
  514poe     o2 4007   6.697   3.646   6.581  0.2289  0.0834  0.0377
  514poe    c31 4008   6.819   3.585   6.615  0.1310 -0.3593 -0.3993
  515poe    c31 4009   5.552   1.636   6.285  0.4846  0.1061 -0.3439
  515poe     o2 4010   5.529   1.558   6.169  0.2329  0.2508 -0.3939
  515poe    c23 4011   5.645   1.538   6.092  0.1994 -0.3073 -0.3002
  515poe    c23 4012   5.608   1.439   5.979 -0.1624  0.0656 -0.5096
  515poe     o2 4013   5.492   1.502   5.928 -0.3775 -0.2736 -0.4379
  515poe    c23 4014   5.434   1.429   5.822 -0.4723 -0.6284 -0.1459
  515poe    c23 4015   5.310   1.499   5.764 -0.0351  0.1033 -0.2095
  515poe     o2 4016   5.219   1.516   5.871  0.2397  0.5510 -0.0436
  515poe    c23 4017   5.092   1.531   5.813  0.1479  0.0167  0.0164
  515poe    c23 4018   4.997   1.611   5.905  0.1722 -0.0218  0.0750
  515poe     o2 4019   4.873   1.649   5.850 -0.0463 -0.2042  0.4353
  515poe    c31 4020   4.830   1.774   5.900 -0.2901 -0.0353 -0.1849
  516poe    c31 4021   6.382   2.646   3.627  0.0544  0.1220  0.2851
  516poe     o2 4022   6.503   2.654   3.555  0.0058 -0.5694  0.1110
  516poe    c23 4023   6.606   2.735   3.608 -0.2428  0.1253 -0.4428
  516poe    c23 4024   6.729   2.711   3.519 -0.1571 -0.1239 -0.2609
  516poe     o2 4025   6.683   2.745   3.390 -0.2663 -0.4167 -0.2989
  516poe    c23 4026   6.783   2.726   3.292  0.0296  0.3517 -0.1531
  516poe    c23 4027   6.703   2.733   3.160 -0.3417  0.4390  0.0744
  516poe     o2 4028   6.575   2.681   3.189 -0.1039 -0.3320 -0.2305
  516poe    c23 4029   6.494   2.698   3.074 -0.0425  0.6341 -0.1364
  516poe    c23 4030   6.362   2.637   3.124  0.0797  0.1445 -0.4094
  516poe     o2 4031   6.358   2.676   3.259 -0.1330  0.1802 -0.4255
  516poe    c31 4032   6.226   2.678   3.307 -0.1119  0.6980 -0.3820
  517poe    c31 4033   3.581   4.507   5.526  1.0019  0.4011  0.2050
  517poe     o2 4034   3.545   4.520   5.662  0.0309 -0.2746  0.0214
  517poe    c23 4035   3.472   4.641   5.657  0.3509 -0.0626  0.4593
  517poe    c23 4036   3.422   4.680   5.798 -0.2001  0.3804  0.1425
  517poe     o2 4037   3.528   4.647   5.884  0.2265  0.2417 -0.4259
  517poe    c23 4038   3.501   4.681   6.019  0.0709 -0.3134 -0.3160
  517poe    c23 4039   3.636   4.722   6.081 -0.2604  0.5369 -0.1460
  517poe     o2 4040   3.736   4.622   6.082 -0.5071  0.2897  0.3314
  517poe    c23 4041   3.856   4.690   6.111 -0.0846 -0.1532 -0.3466
  517poe    c23 4042   3.975   4.594   6.123 -0.3858 -0.4800  0.0889
  517poe     o2 4043   4.004   4.532   5.999 -0.3872 -0.3938  0.0450
  517poe    c31 4044   4.133   4.475   6.006 -0.5945 -0.7611  1.1269
  518poe    c31 4045   0.015   5.075   3.507  0.0285  0.1879  0.0163
  518poe     o2 4046   0.131   5.147   3.473 -0.0383  0.1805 -0.2324
  518poe    c23 4047   0.095   5.280   3.446  0.1086  0.2463 -0.1082
  518poe    c23 4048   0.223   5.363   3.423  0.4313 -0.1538  0.2171
  518poe     o2 4049   0.307   5.280   3.346 -0.0294 -0.2018 -0.2429
  518poe    c23 4050   0.442   5.302   3.380 -0.2503 -0.1113  0.6114
  518poe    c23 4051   0.524   5.177   3.342  0.2012  0.1676  0.6610
  518poe     o2 4052   0.454   5.068   3.398 -0.0726 -0.1004 -0.1907
  518poe    c23 4053   0.538   4.957   3.421  0.3266  0.3352  0.4758
  518poe    c23 4054   0.433   4.857   3.471  0.5610 -0.1048  0.0901
  518poe     o2 4055   0.318   4.919   3.522  0.3989 -0.1751 -0.1867
  518poe    c31 4056   0.284   4.892   3.656  1.0377  0.0323  0.0184
  519poe    c31 4057   4.314   6.215   0.734 -0.0166 -0.2740  0.7386
  519poe     o2 4058   4.221   6.318   0.756 -0.0321 -0.2780  0.6927
  519poe    c23 4059   4.093   6.264   0.733 -0.0923  0.3133 -0.4050
  519poe    c23 4060   3.986   6.347   0.806 -0.5827 -0.4465 -0.2506
  519poe     o2 4061   4.024   6.480   0.778  0.1352 -0.6040 -0.0578
  519poe    c23 4062   3.946   6.580   0.838  0.2818 -0.4708 -0.0880
  519poe    c23 4063   4.028   6.709   0.817 -0.1239 -0.1760  0.1158
  519poe     o2 4064   4.166   6.681   0.820 -0.0725  0.1136  0.8747
  519poe    c23 4065   4.251   6.787   0.783  0.1913 -0.5440 -0.4675
  519poe    c23 4066   4.397   6.737   0.776  0.2841 -0.4246  0.5546
  519poe     o2 4067   4.387   6.614   0.708 -0.2992 -0.0680 -0.0092
  519poe    c31 4068   4.514   6.556   0.688 -0.2411  0.0411  0.0437
  520poe    c31 4069   0.046   5.762   4.050 -0.2064  0.0294  0.1169
  520poe     o2 4070   0.015   5.711   4.178 -0.1221 -0.1817  0.0533
  520poe    c23 4071  -0.126   5.711   4.188 -0.1416 -0.1526 -0.2096
  520poe    c23 4072  -0.161   5.668   4.331  0.1723 -0.0604 -0.1035
  520poe     o2 4073  -0.138   5.773   4.423 -0.4305 -0.1728  0.1833
  520poe    c23 4074  -0.196   5.732   4.545  0.4702 -0.5393  0.4938
  520poe    c23 4075  -0.166   5.841   4.649 -0.3611 -0.0981  0.2735
  520poe     o2 4076  -0.029   5.871   4.640 -0.4108  0.0598  0.0277
  520poe    c23 4077  -0.012   5.986   4.720 -0.4850 -0.2396  0.4765
  520poe    c23 4078   0.131   6.039   4.699 -0.7052  0.0407 -0.3411
  520poe     o2 4079   0.144   6.052   4.559  0.1529  0.0581 -0.2672
  520poe    c31 4080   0.247   6.143   4.529 -0.3465  0.4539 -0.8249
  521poe    c31 4081   6.073   2.408   3.184 -0.4899 -0.4721 -0.1664
  521poe     o2 4082   5.994   2.428   3.298  0.1055  0.0694  0.1566
  521poe    c23 4083   6.029   2.348   3.409  0.4631 -0.1888 -0.1422
  521poe    c23 4084   5.925   2.316   3.518  0.5001 -0.0035 -0.0514
  521poe     o2 4085   5.893   2.425   3.601 -1.0495 -0.3897 -0.1063
  521poe    c23 4086   5.894   2.402   3.740 -0.4032 -0.1200 -0.0640
  521poe    c23 4087   5.895   2.529   3.827 -0.4527 -0.2959  0.1928
  521poe     o2 4088   5.777   2.597   3.790 -0.1199  0.5057  0.5692
  521poe    c23 4089   5.725   2.691   3.881 -0.0393  0.2602  0.8714
  521poe    c23 4090   5.581   2.730   3.846  0.0747  0.2902  0.4299
  521poe     o2 4091   5.599   2.757   3.709 -0.0787 -0.4923  0.2496
  521poe    c31 4092   5.481   2.817   3.660  0.3556  0.3017  0.1712
  522poe    c31 4093   3.038   2.652   2.356 -0.1081 -0.3210 -0.7376
  522poe     o2 4094   3.050   2.527   2.293  0.1706 -0.4835 -0.3640
  522poe    c23 4095   3.153   2.457   2.360 -0.0769 -0.6421 -0.1484
  522poe    c23 4096   3.150   2.306   2.329  0.1652 -0.7315  0.2603
  522poe     o2 4097   3.124   2.287   2.192 -0.0031  0.7461  0.0695
  522poe    c23 4098   3.104   2.150   2.169  0.0585  0.8298 -0.4997
  522poe    c23 4099   3.033   2.151   2.032 -0.3565 -0.2872 -0.3079
  522poe     o2 4100   2.954   2.267   2.038 -0.4095 -0.3212 -0.3537
  522poe    c23 4101   2.884   2.293   1.918 -0.2742  0.3928 -0.2807
  522poe    c23 4102   2.823   2.432   1.945 -0.3493  0.1941  0.5860
  522poe     o2 4103   2.916   2.522   2.000  0.0216  0.3061 -0.2103
  522poe    c31 4104   2.842   2.640   2.024 -0.0053  0.1088  0.7348
  523poe    c31 4105   0.337   5.685   3.856 -0.7159 -0.5106  0.2270
  523poe     o2 4106   0.371   5.764   3.968 -0.0431  0.0736 -0.3781
  523poe    c23 4107   0.392   5.683   4.081  0.1530  0.2140 -0.3139
  523poe    c23 4108   0.528   5.710   4.149 -0.2803 -0.3997  0.8177
  523poe     o2 4109   0.547   5.850   4.149 -0.0078 -0.4373  0.2308
  523poe    c23 4110   0.501   5.915   4.265  0.3433 -0.0143  0.1360
  523poe    c23 4111   0.469   6.059   4.223 -0.3307 -0.1139  0.2987
  523poe     o2 4112   0.385   6.049   4.111  0.1428 -0.0326 -0.0653
  523poe    c23 4113   0.345   6.178   4.068 -0.2069 -0.1283 -0.0303
  523poe    c23 4114   0.302   6.165   3.921 -0.1086 -0.3172 -0.0434
  523poe     o2 4115   0.373   6.056   3.866  0.0566 -0.2196 -0.0236
  523poe    c31 4116   0.355   6.028   3.729 -0.1424  0.4199 -0.1326
  524poe    c31 4117   3.470   6.412   0.004  0.0872 -0.6681 -0.7254
  524poe     o2 4118   3.398   6.359   0.113 -0.4595  1.0073 -0.2384
  524poe    c23 4119   3.455   6.408   0.233  0.2587 -0.4417  0.0465
  524poe    c23 4120   3.391   6.324   0.344 -0.0045  0.1178  0.3253
  524poe     o2 4121   3.383   6.189   0.302  0.6813  0.0613  0.3715
  524poe    c23 4122   3.356   6.103   0.410  0.5097 -0.2216  0.1029
  524poe    c23 4123   3.321   5.958   0.370  0.1411 -0.0674 -0.1427
  524poe     o2 4124   3.239   5.946   0.256 -0.3256  0.2141  0.1602
  524poe    c23 4125   3.109   6.000   0.253 -0.3390  0.1590 -0.5513
  524poe    c23 4126   3.086   6.068   0.117 -0.0515 -0.3679 -0.8648
  524poe     o2 4127   3.181   6.167   0.086  0.4432 -0.6679 -0.3101
  524poe    c31 4128   3.117   6.271   0.016  0.1108 -0.9283 -0.3956
  525poe    c31 4129   4.072   4.292   4.418  0.5000  0.1966  0.6640
  525poe     o2 4130   4.007   4.413   4.451 -0.3022 -0.1221  0.2771
  525poe    c23 4131   4.011   4.438   4.590  0.4365 -0.0098  0.2364
  525poe    c23 4132   3.905   4.538   4.638  0.2629 -0.0115 -0.1385
  525poe     o2 4133   3.934   4.663   4.581  0.1535 -0.0027 -0.1750
  525poe    c23 4134   3.828   4.722   4.509 -0.0077 -0.1052 -0.0213
  525poe    c23 4135   3.874   4.863   4.470  0.3712 -0.1275  0.3376
  525poe     o2 4136   3.990   4.852   4.390  0.1736  0.2835 -0.0119
  525poe    c23 4137   4.034   4.983   4.361 -0.2323  0.3528 -0.3296
  525poe    c23 4138   4.146   4.977   4.257 -0.0044  0.6785 -0.1049
  525poe     o2 4139   4.217   4.858   4.286  0.2107  0.7637 -0.2719
  525poe    c31 4140   4.345   4.876   4.230  0.3305  0.2713 -0.1593
  526poe    c31 4141   5.665   4.156   1.713 -0.8031 -0.4308 -0.5598
  526poe     o2 4142   5.592   4.040   1.748 -0.3224 -0.5853 -0.0621
  526poe    c23 4143   5.672   3.943   1.812  0.2979  0.0684  0.1691
  526poe    c23 4144   5.582   3.835   1.874  0.0311  0.2328  0.0683
  526poe     o2 4145   5.482   3.834   1.774 -0.0512  0.1408  0.1521
  526poe    c23 4146   5.375   3.745   1.795  0.0557  0.0100  0.1429
  526poe    c23 4147   5.263   3.782   1.696  0.2997  0.3923  0.0107
  526poe     o2 4148   5.289   3.916   1.658  0.4101  0.2893 -0.2745
  526poe    c23 4149   5.191   3.982   1.581  0.2024  0.2403 -0.0532
  526poe    c23 4150   5.249   4.125   1.581  0.4900  0.1250  0.0780
  526poe     o2 4151   5.387   4.126   1.555  0.3836 -0.1540 -0.5149
  526poe    c31 4152   5.428   4.249   1.501  0.4001 -0.0932 -0.3656
  527poe    c31 4153   0.838   4.504   5.287  0.1954  0.0969 -0.0510
  527poe     o2 4154   0.856   4.491   5.148 -0.2251  0.3010 -0.1290
  527poe    c23 4155   0.806   4.367   5.104  0.1779  0.0131  0.2130
  527poe    c23 4156   0.825   4.355   4.951  0.2564  0.2378  0.2062
  527poe     o2 4157   0.950   4.409   4.911 -0.0397  0.4525 -0.4430
  527poe    c23 4158   0.965   4.433   4.773  0.2377 -0.3081 -0.5518
  527poe    c23 4159   1.115   4.440   4.740  0.3999 -0.1165  0.2083
  527poe     o2 4160   1.147   4.567   4.791 -0.2011  0.2145 -0.2270
  527poe    c23 4161   1.277   4.614   4.761 -0.0078 -0.1582  0.0117
  527poe    c23 4162   1.340   4.712   4.862 -0.0859 -0.1561  0.0591
  527poe     o2 4163   1.378   4.640   4.977 -0.3099 -0.2107  0.1006
  527poe    c31 4164   1.422   4.729   5.078 -0.2641 -0.3523  0.2061
  528poe    c31 4165   3.531   4.514   1.456 -0.4358 -0.1223 -0.2706
  528poe     o2 4166   3.567   4.449   1.576  0.1239  0.2666 -0.2241
  528poe    c23 4167   3.448   4.409   1.641  0.2914 -0.3194 -0.2734
  528poe    c23 4168   3.486   4.328   1.766  0.8109  0.6827  0.2334
  528poe     o2 4169   3.583   4.232   1.734 -0.0081  0.0482 -0.4145
  528poe    c23 4170   3.619   4.171   1.856 -0.7576 -0.1830 -0.3036
  528poe    c23 4171   3.702   4.043   1.830 -0.2949  0.0522 -0.0032
  528poe     o2 4172   3.803   4.071   1.736 -0.1361 -0.0018  0.1521
  528poe    c23 4173   3.870   3.948   1.714 -0.0959 -0.0390  0.4720
  528poe    c23 4174   3.954   3.965   1.586 -0.1309  0.8885  0.5668
  528poe     o2 4175   3.890   4.038   1.483 -0.4346 -0.3997 -0.1723
  528poe    c31 4176   3.985   4.058   1.381 -0.1282  0.3358  0.2490
  529poe    c31 4177   2.919   1.137   4.823 -0.4562  0.0835 -0.1157
  529poe     o2 4178   3.040   1.196   4.781 -0.2037 -0.3281  0.0243
  529poe    c23 4179   3.037   1.231   4.645  0.6219 -0.0420  0.0749
  529poe    c23 4180   3.162   1.318   4.620  0.6586 -0.2918 -0.6566
  529poe     o2 4181   3.159   1.414   4.724  0.1712 -0.7794 -0.2139
  529poe    c23 4182   3.281   1.484   4.730 -0.1709 -0.2329  0.4703
  529poe    c23 4183   3.288   1.552   4.868 -0.1044 -0.0094  0.3565
  529poe     o2 4184   3.259   1.446   4.957  0.3871 -0.1372  0.3653
  529poe    c23 4185   3.233   1.492   5.087 -1.0658  0.3876 -0.0906
  529poe    c23 4186   3.179   1.373   5.169  0.1045 -0.0094  0.1267
  529poe     o2 4187   3.080   1.312   5.090  0.0802  0.1134  0.0617
  529poe    c31 4188   3.011   1.218   5.169  0.6207  0.2953  0.7600
  530poe    c31 4189   2.696   0.312   1.436 -0.4117 -0.0767 -0.3672
  530poe     o2 4190   2.717   0.174   1.454  0.2562  0.0565 -0.0999
  530poe    c23 4191   2.852   0.153   1.490  0.1326  0.2730  0.5082
  530poe    c23 4192   2.853   0.013   1.555 -0.1511  0.2275  0.4159
  530poe     o2 4193   2.764  -0.057   1.471 -0.0220  0.2920  0.2255
  530poe    c23 4194   2.760  -0.195   1.496 -0.2511  0.3068  0.2711
  530poe    c23 4195   2.615  -0.231   1.457 -0.1554  0.3375 -0.1195
  530poe     o2 4196   2.584  -0.174   1.332  0.2337  0.8383  0.0106
  530poe    c23 4197   2.444  -0.169   1.318  0.2003  0.3317  0.1586
  530poe    c23 4198   2.408  -0.048   1.230  0.1040  0.4057  0.3002
  530poe     o2 4199   2.467   0.067   1.287 -0.0414  0.3487  0.5684
  530poe    c31 4200   2.394   0.182   1.252 -0.9424 -0.3006  0.2690
  531poe    c31 4201   5.597   4.800   3.193  0.0343  0.2759 -0.0280
  531poe     o2 4202   5.654   4.729   3.301  0.3208 -0.1545 -0.4620
  531poe    c23 4203   5.793   4.752   3.298  0.2418  0.3957 -0.0978
  531poe    c23 4204   5.854   4.702   3.431 -0.4459 -0.0638  0.0558
  531poe     o2 4205   5.778   4.596   3.482 -0.3500 -0.0613  0.2060
  531poe    c23 4206   5.814   4.553   3.611  0.1244  0.9010  0.3989
  531poe    c23 4207   5.701   4.460   3.659  0.2608  0.2864 -0.4329
  531poe     o2 4208   5.584   4.530   3.623  0.2993  0.6032  0.0317
  531poe    c23 4209   5.463   4.458   3.636  0.3574  0.3744 -0.6442
  531poe    c23 4210   5.356   4.545   3.568  0.0267  0.5439  0.0911
  531poe     o2 4211   5.411   4.615   3.459  0.4479 -0.0827 -0.1003
  531poe    c31 4212   5.315   4.650   3.362  0.0535 -0.4075  0.1682
  532poe    c31 4213   2.876   1.805   2.187  0.4867 -0.0541  1.0846
  532poe     o2 4214   2.789   1.768   2.291 -0.1767  0.0253  0.5690
  532poe    c23 4215   2.659   1.813   2.259  0.1063  0.3538 -0.1401
  532poe    c23 4216   2.568   1.762   2.373 -0.0688  0.7014 -0.1205
  532poe     o2 4217   2.609   1.627   2.385  0.3306  0.8617  0.3729
  532poe    c23 4218   2.576   1.569   2.509  0.4166  0.1550  0.0687
  532poe    c23 4219   2.663   1.443   2.528  0.1048 -0.0097  0.4103
  532poe     o2 4220   2.791   1.500   2.512  0.0104 -0.1717 -1.0574
  532poe    c23 4221   2.899   1.410   2.510  0.2255  0.0521 -0.0324
  532poe    c23 4222   3.021   1.503   2.511  0.2201  0.0596 -0.0405
  532poe     o2 4223   2.997   1.606   2.418  0.0505 -0.1528 -0.2310
  532poe    c31 4224   3.116   1.681   2.400 -0.2472  0.4650  0.3364
  533poe    c31 4225   6.539   2.040   6.521 -0.1887  0.0325  0.1390
  533poe     o2 4226   6.512   2.173   6.481 -0.1065 -0.0094 -0.0526
  533poe    c23 4227   6.372   2.181   6.481 -0.1050  0.0266  0.2446
  533poe    c23 4228   6.327   2.325   6.447 -0.1073 -0.0122  0.0811
  533poe     o2 4229   6.397   2.414   6.531 -0.1377  0.0760  0.0129
  533poe    c23 4230   6.379   2.550   6.499  0.3961  0.1378 -0.0393
  533poe    c23 4231   6.455   2.636   6.601  0.3056  0.2028 -0.0257
  533poe     o2 4232   6.577   2.565   6.610  0.0997 -0.1956 -0.3720
  533poe    c23 4233   6.668   2.617   6.704 -0.0996 -0.1500 -0.2023
  533poe    c23 4234   6.796   2.538   6.670  0.0460  0.0662 -0.1602
  533poe     o2 4235   6.773   2.401   6.644 -0.3458  0.1987 -0.5260
  533poe    c31 4236   6.888   2.334   6.597 -0.3242 -0.2271  0.1030
  534poe    c31 4237   0.322   2.687   1.023 -0.2145  0.3112 -0.0045
  534poe     o2 4238   0.183   2.699   1.039 -0.2630 -0.6551  0.3759
  534poe    c23 4239   0.130   2.830   1.036 -0.0435 -0.5688  0.1931
  534poe    c23 4240  -0.021   2.832   1.065 -0.0727  0.1634  0.0178
  534poe     o2 4241  -0.028   2.789   1.200 -0.1645  0.8079  0.2209
  534poe    c23 4242  -0.162   2.781   1.243 -0.1457  0.1234  0.1554
  534poe    c23 4243  -0.153   2.746   1.393  0.0039  0.0246  0.1235
  534poe     o2 4244  -0.089   2.622   1.417 -0.2218 -0.1503 -0.1636
  534poe    c23 4245  -0.130   2.559   1.536 -0.4477 -0.4422 -0.3955
  534poe    c23 4246  -0.066   2.419   1.538 -0.2974 -0.3717 -0.1388
  534poe     o2 4247   0.061   2.434   1.478 -0.0856  0.0053  0.4008
  534poe    c31 4248   0.127   2.310   1.490  0.4932  0.2499 -0.2162
  535poe    c31 4249   0.811   5.474   4.796  0.1625 -0.2115  0.1453
  535poe     o2 4250   0.905   5.575   4.824  0.2570 -0.1141 -0.5060
  535poe    c23 4251   0.859   5.695   4.767 -0.2557 -0.0806 -0.0244
  535poe    c23 4252   0.884   5.816   4.860  0.4150 -0.1218 -0.1492
  535poe     o2 4253   1.023   5.827   4.877  0.4350  0.0374 -0.4056
  535poe    c23 4254   1.060   5.863   5.009 -0.2761 -0.2259 -0.1324
  535poe    c23 4255   1.183   5.782   5.055  0.0103 -0.0127 -0.5207
  535poe     o2 4256   1.162   5.643   5.052  0.2887 -0.0553 -0.5288
  535poe    c23 4257   1.270   5.556   5.077  0.2155  0.0887  0.3166
  535poe    c23 4258   1.203   5.421   5.109 -0.2431  0.2773  0.1628
  535poe     o2 4259   1.094   5.401   5.023  0.2147  0.4482 -0.4695
  535poe    c31 4260   1.050   5.270   5.051  1.0203  0.4288  0.7665
  536poe    c31 4261   3.306   2.550   4.697  0.6566 -0.4896  0.1773
  536poe     o2 4262   3.240   2.606   4.808  0.0893 -0.3957 -0.2058
  536poe    c23 4263   3.276   2.519   4.912 -0.7246 -0.7869 -0.2391
  536poe    c23 4264   3.218   2.546   5.052 -0.5996  0.2223 -0.3795
  536poe     o2 4265   3.239   2.683   5.078 -0.4129  0.0388  0.4372
  536poe    c23 4266   3.133   2.733   5.156 -0.2821  0.3507  0.4161
  536poe    c23 4267   3.129   2.887   5.144  0.0161  0.3400  0.1716
  536poe     o2 4268   3.117   2.887   5.003 -0.0400 -0.5905  0.1709
  536poe    c23 4269   3.131   3.015   4.947 -0.2183 -0.5892  0.1274
  536poe    c23 4270   3.099   2.988   4.799  0.3981 -0.2276 -0.0784
  536poe     o2 4271   3.184   2.881   4.763  0.5372 -0.0021 -0.4286
  536poe    c31 4272   3.217   2.882   4.626 -0.2203 -0.0759 -0.6157
  537poe    c31 4273   0.942   1.254   2.629 -0.6871  0.0579 -0.1926
  537poe     o2 4274   0.991   1.125   2.603 -0.2380  0.2495 -0.3048
  537poe    c23 4275   1.132   1.118   2.591 -0.1944 -0.3677  0.4266
  537poe    c23 4276   1.165   0.977   2.540  0.3497 -0.0431 -0.1333
  537poe     o2 4277   1.078   0.929   2.440  0.3998 -0.3938 -0.0095
  537poe    c23 4278   1.126   0.811   2.380  0.2692 -0.1811 -0.5340
  537poe    c23 4279   1.029   0.776   2.266 -0.5497  0.1898  0.0453
  537poe     o2 4280   0.907   0.753   2.334 -0.3218 -0.7713  0.1441
  537poe    c23 4281   0.826   0.674   2.251 -0.3393  0.2015 -0.7798
  537poe    c23 4282   0.679   0.670   2.296 -0.0172 -0.1401  0.2692
  537poe     o2 4283   0.629   0.801   2.294  0.4460  0.0343 -0.2559
  537poe    c31 4284   0.557   0.818   2.173  0.0735 -0.6915 -0.1402
  538poe    c31 4285   4.957   5.320   4.211 -1.0829 -0.5251 -0.4021
  538poe     o2 4286   4.939   5.422   4.115  0.3335 -0.2545 -0.4054
  538poe    c23 4287   5.059   5.458   4.050  0.5301  0.6078  0.4041
  538poe    c23 4288   5.008   5.533   3.926 -0.4289 -0.8347 -0.1055
  538poe     o2 4289   4.913   5.628   3.970  0.1444 -0.2098 -0.2010
  538poe    c23 4290   4.860   5.695   3.858  0.0019  0.5674  0.3245
  538poe    c23 4291   4.720   5.744   3.899 -0.1551  0.1154  0.3284
  538poe     o2 4292   4.670   5.634   3.972 -0.2610 -0.0788 -0.0335
  538poe    c23 4293   4.554   5.656   4.049 -0.1552 -0.2270  0.1697
  538poe    c23 4294   4.509   5.521   4.108 -0.0755 -0.4310 -0.2331
  538poe     o2 4295   4.624   5.474   4.175  0.0563  0.2245  0.0083
  538poe    c31 4296   4.595   5.362   4.256  0.5066 -0.3335 -0.5961
  539poe    c31 4297   5.585   4.653   0.551 -0.0475 -0.0987 -0.2954
  539poe     o2 4298   5.641   4.525   0.572 -0.1571 -0.1167 -0.1165
  539poe    c23 4299   5.769   4.548   0.627 -0.3173 -0.6178  0.4811
  539poe    c23 4300   5.840   4.412   0.642  0.0276 -0.4775  0.1404
  539poe     o2 4301   5.884   4.345   0.526 -0.5332  0.0570 -0.3859
  539poe    c23 4302   5.966   4.242   0.575 -0.3272  0.2946 -0.2311
  539poe    c23 4303   6.020   4.173   0.448 -0.2810 -0.2365  0.0771
  539poe     o2 4304   5.911   4.148   0.362  0.0035  0.0948 -0.3766
  539poe    c23 4305   5.955   4.080   0.246 -0.1722 -0.1125 -0.3225
  539poe    c23 4306   5.849   3.974   0.212 -0.1787 -0.3075  0.2881
  539poe     o2 4307   5.722   4.034   0.198  0.1773  0.4090  0.1015
  539poe    c31 4308   5.615   3.953   0.154  0.1739  0.4791 -0.0208
  540poe    c31 4309   0.092   6.381   4.917  0.3956 -0.3216  0.0011
  540poe     o2 4310   0.140   6.300   5.023  0.1300 -0.1777  0.2325
  540poe    c23 4311   0.280   6.310   5.037  0.3295 -0.5849 -1.2412
  540poe    c23 4312   0.335   6.215   5.145 -0.3234  0.5581  0.1296
  540poe     o2 4313   0.263   6.226   5.266 -0.4131 -0.2822  0.1557
  540poe    c23 4314   0.302   6.131   5.363  0.4250 -0.1620 -0.0555
  540poe    c23 4315   0.225   6.153   5.495  0.4783  0.3585 -0.1096
  540poe     o2 4316   0.101   6.196   5.444  0.3260 -0.0912 -0.1215
  540poe    c23 4317   0.012   6.265   5.529  0.2855 -0.2399 -0.0425
  540poe    c23 4318  -0.114   6.295   5.446  0.1012 -0.1252  0.2751
  540poe     o2 4319  -0.068   6.359   5.329  0.0574 -0.4638  0.0712
  540poe    c31 4320  -0.181   6.416   5.265  0.7248  1.1176  0.2603
  541poe    c31 4321   4.151   2.768   5.109 -0.2548 -0.1698 -0.0909
  541poe     o2 4322   4.014   2.738   5.109 -0.3321  0.1875 -0.3631
  541poe    c23 4323   3.953   2.816   5.210 -0.0780  0.4827 -0.4350
  541poe    c23 4324   3.800   2.801   5.200 -0.0522 -0.3395  0.2216
  541poe     o2 4325   3.768   2.666   5.178 -0.0611 -0.2295 -0.4497
  541poe    c23 4326   3.631   2.646   5.148 -0.3641  0.5813  0.3587
  541poe    c23 4327   3.631   2.500   5.099 -0.3275  0.5902  0.3323
  541poe     o2 4328   3.752   2.481   5.030 -0.7340  0.3779 -0.3337
  541poe    c23 4329   3.767   2.347   4.986 -0.0162  0.2107  0.3824
  541poe    c23 4330   3.889   2.367   4.894 -0.0043 -0.0240  0.3478
  541poe     o2 4331   3.971   2.461   4.960  0.0824  0.2498 -0.1461
  541poe    c31 4332   4.095   2.479   4.897  0.3703 -0.1357  0.3057
  542poe    c31 4333   6.520   3.256   1.821  0.3233  0.3392 -0.0631
  542poe     o2 4334   6.543   3.385   1.873  0.4293  0.1709  0.3091
  542poe    c23 4335   6.420   3.447   1.905  0.1044 -0.3864  0.1637
  542poe    c23 4336   6.446   3.508   2.044  0.0441 -0.1623  0.0779
  542poe     o2 4337   6.576   3.561   2.045  0.1537 -0.4304  0.0049
  542poe    c23 4338   6.633   3.572   2.173 -0.0233 -0.0558  0.0526
  542poe    c23 4339   6.783   3.601   2.157 -0.1528  0.2547 -0.6264
  542poe     o2 4340   6.806   3.515   2.048 -0.4112  0.0096 -0.4876
  542poe    c23 4341   6.941   3.517   2.007 -0.2342 -0.1514  0.0686
  542poe    c23 4342   6.932   3.400   1.907  0.0978 -0.1837  0.0755
  542poe     o2 4343   6.834   3.430   1.811  0.0438  0.0098  0.1922
  542poe    c31 4344   6.843   3.332   1.711  0.4719  0.4458 -0.2032
  543poe    c31 4345   2.547   0.223   5.124  0.5599  0.2078  0.5182
  543poe     o2 4346   2.666   0.169   5.070 -0.1615 -0.6609 -0.2533
  543poe    c23 4347   2.679   0.204   4.934  0.7069  0.1268  0.0123
  543poe    c23 4348   2.780   0.105   4.875  0.2461 -0.1542 -0.3177
  543poe     o2 4349   2.914   0.129   4.913  0.0829 -0.3744  0.4000
  543poe    c23 4350   3.005   0.034   4.860  0.1985  0.0709 -0.2087
  543poe    c23 4351   3.150   0.064   4.900  0.1864 -0.0468 -0.0756
  543poe     o2 4352   3.156   0.113   5.032  0.1012  0.4735 -0.2662
  543poe    c23 4353   3.282   0.173   5.049  0.2092 -0.0089  0.6473
  543poe    c23 4354   3.277   0.207   5.200  0.1298 -0.0516  0.6541
  543poe     o2 4355   3.146   0.248   5.231 -0.1429 -0.9709  0.7642
  543poe    c31 4356   3.134   0.305   5.360  0.0007 -0.0053  0.3572
  544poe    c31 4357   0.661   4.994   0.348 -0.2828 -0.0107  0.3692
  544poe     o2 4358   0.734   4.889   0.408  0.1119 -0.2914 -0.5946
  544poe    c23 4359   0.646   4.788   0.450  0.3020 -0.2556 -0.1088
  544poe    c23 4360   0.709   4.661   0.510 -0.1103 -0.5225 -0.2322
  544poe     o2 4361   0.766   4.592   0.401  0.5012 -0.1304 -0.1639
  544poe    c23 4362   0.791   4.456   0.428 -0.4461 -0.3024 -0.1089
  544poe    c23 4363   0.881   4.395   0.318 -0.4519 -0.3318 -0.0973
  544poe     o2 4364   0.974   4.498   0.295  0.0120 -0.6249  0.4327
  544poe    c23 4365   1.100   4.437   0.283  0.0242 -0.5633  0.2477
  544poe    c23 4366   1.196   4.538   0.217 -0.4851 -0.1427  0.1491
  544poe     o2 4367   1.198   4.655   0.296 -0.3351 -0.0665  0.0352
  544poe    c31 4368   1.322   4.720   0.308 -0.2853 -0.1673  0.0639
  545poe    c31 4369   3.201   1.476   3.783  0.3924  0.2129  0.2461
  545poe     o2 4370   3.066   1.447   3.808  0.4517 -0.0646  0.2425
  545poe    c23 4371   3.036   1.309   3.798  0.0934 -0.0442  0.9568
  545poe    c23 4372   2.899   1.267   3.854 -0.5881 -0.2637 -0.8337
  545poe     o2 4373   2.792   1.325   3.783 -0.6044 -0.0822 -0.6607
  545poe    c23 4374   2.668   1.267   3.814 -0.4864 -0.1799 -0.3666
  545poe    c23 4375   2.605   1.328   3.940  0.1240 -0.1828 -0.0588
  545poe     o2 4376   2.614   1.469   3.946  0.0006 -0.1705 -0.1601
  545poe    c23 4377   2.576   1.527   4.069  0.3179 -0.0019 -0.1402
  545poe    c23 4378   2.555   1.676   4.039  0.4202 -0.0153 -0.2811
  545poe     o2 4379   2.666   1.717   3.963  0.2875  0.3551 -0.2768
  545poe    c31 4380   2.666   1.856   3.937 -0.7799  0.4273  0.0691
  546poe    c31 4381   1.596   0.491   1.011  0.1300 -0.2407  0.7254
  546poe     o2 4382   1.674   0.389   1.068  0.5025 -0.5028 -0.2392
  546poe    c23 4383   1.650   0.268   1.001 -0.1355 -0.1220 -0.6988
  546poe    c23 4384   1.789   0.203   1.002 -0.0084  0.1478  0.3623
  546poe     o2 4385   1.834   0.202   1.136  0.0960 -0.1005  0.3254
  546poe    c23 4386   1.970   0.178   1.164  0.2221  0.5707  0.2925
  546poe    c23 4387   2.006   0.185   1.314  0.3427 -0.2438  0.3083
  546poe     o2 4388   1.956   0.307   1.365 -0.1284 -0.1493 -0.3599
  546poe    c23 4389   2.023   0.378   1.467 -0.4328 -1.0441  0.4829
  546poe    c23 4390   1.949   0.501   1.522 -0.1177 -0.5315 -0.2261
  546poe     o2 4391   1.939   0.607   1.429 -0.0488 -0.3356 -0.0101
  546poe    c31 4392   1.927   0.732   1.494 -0.3445 -0.7822  0.8135
  547poe    c31 4393   1.313   1.725   0.197  0.1060 -0.4593 -0.3273
  547poe     o2 4394   1.394   1.649   0.110  0.3790  0.3181 -0.7660
  547poe    c23 4395   1.499   1.595   0.187  0.2003  0.2162 -0.5902
  547poe    c23 4396   1.573   1.485   0.108 -0.3782 -0.6326  0.0301
  547poe     o2 4397   1.612   1.554  -0.009  0.3170 -0.7776  0.1753
  547poe    c23 4398   1.673   1.461  -0.096 -0.5868 -0.7146 -0.5342
  547poe    c23 4399   1.693   1.549  -0.221 -0.1440 -0.4178 -0.2603
  547poe     o2 4400   1.568   1.611  -0.242  0.0319  0.1354  0.3195
  547poe    c23 4401   1.573   1.720  -0.331 -0.1906 -0.2579 -0.1752
  547poe    c23 4402   1.433   1.782  -0.312  0.4898  1.1366  0.4196
  547poe     o2 4403   1.411   1.788  -0.173 -0.1267  0.6526  0.3486
  547poe    c31 4404   1.280   1.830  -0.145 -0.1552  0.6186  0.2686
  548poe    c31 4405   4.958   2.123   6.652 -0.6633 -0.6245  0.2499
  548poe     o2 4406   4.924   2.174   6.525 -0.2808 -0.1614  0.3321
  548poe    c23 4407   4.912   2.315   6.533 -0.0433 -0.1445  0.3989
  548poe    c23 4408   4.911   2.362   6.386  0.3057 -0.1730  0.3872
  548poe     o2 4409   4.833   2.267   6.317  0.1966  0.1427  0.0716
  548poe    c23 4410   4.870   2.269   6.181  0.8489 -0.1213  0.2384
  548poe    c23 4411   4.781   2.156   6.125  0.7598  0.3018 -0.4815
  548poe     o2 4412   4.802   2.057   6.223 -0.1516  0.3886 -0.1915
  548poe    c23 4413   4.723   1.941   6.206  0.6146 -0.2192  0.3427
  548poe    c23 4414   4.781   1.838   6.304  0.3993 -0.5592  0.1133
  548poe     o2 4415   4.772   1.883   6.438  0.7244  0.0491 -0.0648
  548poe    c31 4416   4.767   1.776   6.530  0.2957  0.2106  0.1040
  549poe    c31 4417   4.653   4.462   2.350  0.4044  0.4044 -0.1607
  549poe     o2 4418   4.542   4.503   2.274  0.1861 -0.3254 -0.2475
  549poe    c23 4419   4.517   4.396   2.186  0.6954 -0.0610 -0.7272
  549poe    c23 4420   4.407   4.447   2.091  0.2341 -0.3176 -0.3385
  549poe     o2 4421   4.313   4.490   2.186  0.2408 -0.3644 -0.3113
  549poe    c23 4422   4.199   4.553   2.133  0.2464 -0.0207  0.0801
  549poe    c23 4423   4.138   4.634   2.249 -0.6566  0.0040 -0.3971
  549poe     o2 4424   4.253   4.672   2.321 -0.8871 -0.0842  0.0180
  549poe    c23 4425   4.225   4.769   2.420 -0.1105 -0.6529  0.8207
  549poe    c23 4426   4.356   4.799   2.494  0.0063 -0.0706  0.3862
  549poe     o2 4427   4.427   4.677   2.493 -0.4669 -0.3472  0.1026
  549poe    c31 4428   4.531   4.682   2.588 -0.3739 -0.2547 -0.0035
  550poe    c31 4429   4.601   2.212   4.257  0.4178 -0.0210 -0.3528
  550poe     o2 4430   4.659   2.284   4.363  0.2054 -0.4864  0.0860
  550poe    c23 4431   4.568   2.383   4.404  0.4830 -0.4262  0.5766
  550poe    c23 4432   4.636   2.470   4.511  0.0765  0.1199  0.4012
  550poe     o2 4433   4.703   2.376   4.592  0.6105 -0.0534 -0.2254
  550poe    c23 4434   4.762   2.445   4.700 -0.1582 -0.4145  0.4404
  550poe    c23 4435   4.833   2.351   4.800  0.2415 -0.3326  0.2341
  550poe     o2 4436   4.920   2.275   4.720  0.3300 -0.2624  0.2626
  550poe    c23 4437   4.925   2.138   4.755 -0.0567 -0.2180  0.4914
  550poe    c23 4438   4.801   2.063   4.703  0.2317 -0.3290 -0.0446
  550poe     o2 4439   4.784   2.075   4.564  0.2755  0.0944 -0.0162
  550poe    c31 4440   4.726   1.957   4.512  0.1638 -0.3286  1.0546
  551poe    c31 4441   3.828   6.397   0.439 -0.3507 -0.4964  0.1207
  551poe     o2 4442   3.863   6.272   0.383 -0.0940 -0.2651 -0.2365
  551poe    c23 4443   3.801   6.168   0.455 -0.1486 -0.2381 -0.2435
  551poe    c23 4444   3.895   6.046   0.455 -0.3755 -0.4133  0.1003
  551poe     o2 4445   4.023   6.093   0.419 -0.3494  0.0611  0.7881
  551poe    c23 4446   4.114   5.995   0.373  0.0379  0.9577 -0.4033
  551poe    c23 4447   4.110   5.994   0.219  0.1066 -0.2717 -0.4032
  551poe     o2 4448   4.119   6.128   0.176  0.1173 -0.1500 -0.0231
  551poe    c23 4449   4.112   6.158   0.039  0.1116  0.0978  0.0304
  551poe    c23 4450   4.066   6.305   0.033 -0.6755 -0.1474 -0.0705
  551poe     o2 4451   3.969   6.324   0.134 -0.1369  0.2267  0.3756
  551poe    c31 4452   3.888   6.436   0.106 -0.0839  0.1659 -0.0288
  552poe    c31 4453   5.377   6.514   6.696 -0.3336 -0.1144  0.1746
  552poe     o2 4454   5.490   6.587   6.654 -0.3033 -0.0503  0.3647
  552poe    c23 4455   5.561   6.632   6.767 -0.1195  0.4616  0.0477
  552poe    c23 4456   5.704   6.679   6.734  0.0706  0.0263  0.2444
  552poe     o2 4457   5.703   6.714   6.597  0.1604  0.0665  0.2539
  552poe    c23 4458   5.829   6.713   6.534 -0.0113 -0.4018 -0.0886
  552poe    c23 4459   5.813   6.760   6.389  0.1331 -0.3192 -0.0786
  552poe     o2 4460   5.694   6.690   6.362 -0.2518  0.1688  0.3518
  552poe    c23 4461   5.641   6.693   6.232 -0.0058  0.3453  0.2576
  552poe    c23 4462   5.527   6.590   6.233  0.6350 -0.3723  0.3090
  552poe     o2 4463   5.455   6.600   6.353  0.1281 -0.2617 -0.0009
  552poe    c31 4464   5.353   6.504   6.338 -0.2335  0.0072  0.6574
  553poe    c31 4465   4.655   5.753   2.294  0.6143 -0.8941 -0.3264
  553poe     o2 4466   4.545   5.751   2.382  0.5832  0.3055 -0.3200
  553poe    c23 4467   4.565   5.650   2.478 -0.2908 -0.0296 -0.4832
  553poe    c23 4468   4.455   5.614   2.580  0.0551 -0.2616 -0.1901
  553poe     o2 4469   4.334   5.578   2.517 -0.0800 -0.0738 -0.0396
  553poe    c23 4470   4.246   5.510   2.603  0.1963 -0.5144 -0.1010
  553poe    c23 4471   4.136   5.447   2.515  0.0980 -0.4049 -0.0562
  553poe     o2 4472   4.100   5.548   2.424 -0.0423 -0.3848  0.0200
  553poe    c23 4473   3.965   5.581   2.445 -0.0062 -0.2022 -0.0306
  553poe    c23 4474   3.926   5.706   2.364  0.2029 -0.2541 -0.2107
  553poe     o2 4475   3.973   5.695   2.231 -0.1652 -0.6378 -0.3129
  553poe    c31 4476   3.875   5.655   2.138 -0.9333 -0.5531  0.4416
  554poe    c31 4477   1.783   4.313   1.418 -0.0058 -0.0651  0.2362
  554poe     o2 4478   1.658   4.250   1.397 -0.0463 -0.0628  0.4758
  554poe    c23 4479   1.560   4.266   1.497 -0.0135 -0.1996  0.5306
  554poe    c23 4480   1.417   4.279   1.441 -0.0181  0.1092  0.6129
  554poe     o2 4481   1.412   4.380   1.343  0.2187 -0.4316  0.0444
  554poe    c23 4482   1.284   4.407   1.293  0.3400 -0.0659 -0.0726
  554poe    c23 4483   1.285   4.452   1.145 -0.2292 -0.0731 -0.0807
  554poe     o2 4484   1.339   4.359   1.054  0.2644 -0.0270  0.1649
  554poe    c23 4485   1.350   4.416   0.925 -0.1228 -0.2131  0.0488
  554poe    c23 4486   1.378   4.297   0.832 -0.4782 -0.0869 -0.2214
  554poe     o2 4487   1.485   4.219   0.882  0.0303  0.3986 -0.5390
  554poe    c31 4488   1.520   4.121   0.787 -0.3591 -0.7096  0.4436
  555poe    c31 4489   0.926   1.593   1.928 -0.6980  0.2312 -0.2472
  555poe     o2 4490   1.058   1.541   1.936 -0.2350  1.3146 -0.6572
  555poe    c23 4491   1.144   1.637   1.994 -0.0110  0.4190  0.5292
  555poe    c23 4492   1.265   1.565   2.057 -0.4981 -0.4483  0.4901
  555poe     o2 4493   1.305   1.479   1.953  0.2467  0.5343 -0.0489
  555poe    c23 4494   1.423   1.404   1.969  0.1055  0.2409 -0.3551
  555poe    c23 4495   1.436   1.329   1.836  0.0448 -0.7172  0.1684
  555poe     o2 4496   1.305   1.277   1.823 -0.2141 -0.0881  0.1861
  555poe    c23 4497   1.276   1.259   1.686  0.3317  0.1614  0.0327
  555poe    c23 4498   1.123   1.238   1.676  0.3530  0.0556 -0.0711
  555poe     o2 4499   1.059   1.344   1.743 -0.2487 -0.1661 -0.2913
  555poe    c31 4500   0.923   1.335   1.707 -0.2194 -0.4876 -0.3204
  556poe    c31 4501   2.548   4.790   2.716  0.0800 -0.5041 -0.3878
  556poe     o2 4502   2.491   4.911   2.671  0.1223 -0.0477  0.7389
  556poe    c23 4503   2.541   5.034   2.717 -0.7179  0.4198  0.4261
  556poe    c23 4504   2.488   5.142   2.620  0.1576  0.2542 -0.2550
  556poe     o2 4505   2.348   5.128   2.608  0.1320  0.3527 -0.0795
  556poe    c23 4506   2.295   5.207   2.503  0.2504  0.4320 -0.0797
  556poe    c23 4507   2.143   5.197   2.520  0.2667  0.2603 -0.0365
  556poe     o2 4508   2.118   5.058   2.510 -0.0654  0.3413 -0.3900
  556poe    c23 4509   1.988   5.021   2.547  0.1824  0.0313  0.1877
  556poe    c23 4510   1.952   4.876   2.507  0.5076  0.0634 -0.2235
  556poe     o2 4511   2.031   4.786   2.581 -0.4048 -0.5411  0.0287
  556poe    c31 4512   2.003   4.648   2.569 -0.0563 -0.6402  0.3425
  557poe    c31 4513   5.563   0.546   0.959 -0.2817 -0.3771 -0.0059
  557poe     o2 4514   5.657   0.446   0.929 -0.0675 -0.0801 -0.3321
  557poe    c23 4515   5.764   0.492   0.849  0.2266  0.3912  0.3294
  557poe    c23 4516   5.864   0.375   0.848 -0.0387  0.1676 -0.0820
  557poe     o2 4517   5.793   0.257   0.819 -0.3365  0.3039  0.0827
  557poe    c23 4518   5.857   0.155   0.746  0.1279  0.3246  0.4548
  557poe    c23 4519   5.748   0.067   0.682 -0.0317  0.7521  0.1393
  557poe     o2 4520   5.670  -0.012   0.769 -0.0952  0.3671 -0.2658
  557poe    c23 4521   5.575  -0.090   0.700  0.0319  0.0720 -0.1127
  557poe    c23 4522   5.456  -0.127   0.791  0.1062 -0.0499 -0.0648
  557poe     o2 4523   5.391  -0.008   0.830 -0.0831 -0.0713 -0.3079
  557poe    c31 4524   5.317  -0.036   0.948 -0.3646  0.2680 -0.4011
  558poe    c31 4525   6.663   4.687   1.263 -0.1482  0.3009 -0.8779
  558poe     o2 4526   6.697   4.568   1.329 -0.0813  0.4262 -0.6867
  558poe    c23 4527   6.740   4.597   1.460 -0.0685 -0.2353 -0.5416
  558poe    c23 4528   6.637   4.544   1.562 -0.2065  0.5633 -0.2641
  558poe     o2 4529   6.619   4.412   1.516 -0.2119  0.6409 -0.4856
  558poe    c23 4530   6.540   4.324   1.592 -0.0031  0.5352 -0.3927
  558poe    c23 4531   6.583   4.185   1.541 -0.2533  0.5439 -0.6299
  558poe     o2 4532   6.590   4.181   1.401  0.2095 -0.0088 -0.5949
  558poe    c23 4533   6.598   4.047   1.356 -0.1742 -0.1858 -0.1419
  558poe    c23 4534   6.582   4.054   1.203 -1.0393 -0.8514 -0.0857
  558poe     o2 4535   6.689   4.125   1.146 -0.7258 -1.0731  0.2249
  558poe    c31 4536   6.694   4.104   1.007 -0.0361 -0.0709  0.0836
  559poe    c31 4537   0.655   1.709   1.524  0.1997  0.2636  0.0698
  559poe     o2 4538   0.606   1.746   1.397  0.1492 -0.1850 -0.0433
  559poe    c23 4539   0.689   1.701   1.293  0.2165  0.6930 -0.3759
  559poe    c23 4540   0.629   1.739   1.156  0.0433  0.1764 -0.4445
  559poe     o2 4541   0.604   1.877   1.144 -0.2491  0.1746  0.0978
  559poe    c23 4542   0.589   1.913   1.009  0.7082  0.4797  0.0644
  559poe    c23 4543   0.628   2.060   0.984  0.0822  0.5835 -0.3259
  559poe     o2 4544   0.579   2.136   1.092  0.1143  0.0971  0.0322
  559poe    c23 4545   0.606   2.272   1.069 -0.0566  0.0135 -0.6959
  559poe    c23 4546   0.570   2.370   1.182  0.4511 -0.3497 -0.2120
  559poe     o2 4547   0.665   2.372   1.286  0.0468 -0.6088  0.1673
  559poe    c31 4548   0.764   2.473   1.282 -0.1319 -0.4385 -0.0052
  560poe    c31 4549   4.368   5.505   6.271 -0.0029 -0.3736  0.0559
  560poe     o2 4550   4.230   5.499   6.245  0.0565  0.0600 -0.3902
  560poe    c23 4551   4.197   5.418   6.135  0.2875  0.0546 -0.4552
  560poe    c23 4552   4.048   5.380   6.137  0.3071  0.0120  0.2823
  560poe     o2 4553   3.974   5.485   6.196 -0.1599 -0.1380 -0.0231
  560poe    c23 4554   3.835   5.469   6.188 -0.2313  0.1111  0.6105
  560poe    c23 4555   3.781   5.610   6.217  0.2790  0.4361  0.0037
  560poe     o2 4556   3.855   5.662   6.325  0.0781  0.1027  0.3067
  560poe    c23 4557   3.807   5.782   6.382  0.1815  0.4548 -0.3292
  560poe    c23 4558   3.907   5.882   6.443  0.0411  0.0353  0.6106
  560poe     o2 4559   3.992   5.933   6.343 -0.3638 -0.2647  0.1076
  560poe    c31 4560   4.071   6.039   6.392 -0.7605  0.0909 -0.0146
  561poe    c31 4561   1.675   5.352   4.414  0.2579  0.2254  0.3238
  561poe     o2 4562   1.787   5.278   4.458 -0.0877 -0.2052  0.4925
  561poe    c23 4563   1.881   5.261   4.355 -0.4008  0.1362  0.1484
  561poe    c23 4564   2.000   5.188   4.418 -0.4550  0.0322  0.1303
  561poe     o2 4565   1.968   5.113   4.533  0.3019 -0.3882  0.0731
  561poe    c23 4566   2.076   5.090   4.621  0.3202 -0.1974  0.0994
  561poe    c23 4567   2.012   5.072   4.760 -0.4600 -0.1177 -0.2438
  561poe     o2 4568   1.919   5.177   4.768 -0.5033 -0.1582 -0.2114
  561poe    c23 4569   1.862   5.184   4.897  0.0188  0.3740 -0.0065
  561poe    c23 4570   1.746   5.282   4.872  0.0392  0.3932 -0.0261
  561poe     o2 4571   1.676   5.227   4.763  0.1350 -0.2247  0.2221
  561poe    c31 4572   1.550   5.178   4.804 -0.3054  0.5070 -0.2511
  562poe    c31 4573   1.898   5.677   5.071 -0.2261 -0.2042 -0.6754
  562poe     o2 4574   1.841   5.773   4.985 -0.2388  0.1589 -0.2650
  562poe    c23 4575   1.745   5.717   4.897 -0.3573 -0.1102  0.0359
  562poe    c23 4576   1.758   5.816   4.780 -0.5642 -0.2353 -0.0936
  562poe     o2 4577   1.762   5.946   4.835 -0.6039 -0.1945 -0.1893
  562poe    c23 4578   1.814   6.047   4.750  0.6560 -0.1876  0.5583
  562poe    c23 4579   1.810   6.175   4.836 -0.0334  0.3852 -0.3029
  562poe     o2 4580   1.868   6.133   4.958 -1.0347 -0.2451 -0.0250
  562poe    c23 4581   1.887   6.242   5.046  0.0225 -0.5617  0.1576
  562poe    c23 4582   1.978   6.188   5.157 -0.1493 -0.1831  0.4837
  562poe     o2 4583   1.947   6.051   5.154  0.7609 -0.3857 -0.2747
  562poe    c31 4584   2.047   5.985   5.228  0.6851 -0.0072  0.1708
  563poe    c31 4585   6.640   1.693   6.507  0.2711  0.1226  0.2405
  563poe     o2 4586   6.599   1.598   6.412 -0.2604  0.0737  0.5191
  563poe    c23 4587   6.463   1.566   6.432 -0.1181 -0.3937  0.7609
  563poe    c23 4588   6.418   1.492   6.305  0.1920  0.6019  0.0612
  563poe     o2 4589   6.498   1.376   6.302 -0.3419  0.2378 -0.3663
  563poe    c23 4590   6.453   1.266   6.225  0.2433  0.0696 -0.4776
  563poe    c23 4591   6.571   1.168   6.221  0.1950 -0.0662  0.7570
  563poe     o2 4592   6.691   1.239   6.198  0.0470 -0.0645 -0.0560
  563poe    c23 4593   6.798   1.175   6.264 -0.1035  0.0149  0.2661
  563poe    c23 4594   6.900   1.289   6.278 -0.4687  0.3689  0.0748
  563poe     o2 4595   6.843   1.410   6.323 -0.1960  0.4981  0.0812
  563poe    c31 4596   6.942   1.507   6.347  0.4926 -0.2372  0.2353
  564poe    c31 4597   5.851   1.557   0.840  0.4858 -0.4119  0.5411
  564poe     o2 4598   5.803   1.688   0.818  0.1589 -0.6699 -0.3322
  564poe    c23 4599   5.665   1.685   0.845  0.2439 -0.5117  0.1300
  564poe    c23 4600   5.609   1.823   0.884 -0.1148 -0.4967 -0.4410
  564poe     o2 4601   5.628   1.917   0.780 -0.4810  0.2130  0.1262
  564poe    c23 4602   5.642   2.053   0.816  0.2219  0.2429 -0.2454
  564poe    c23 4603   5.772   2.074   0.895 -0.1112 -0.2112  0.4318
  564poe     o2 4604   5.880   1.994   0.853 -0.1970 -0.0881 -0.0191
  564poe    c23 4605   6.003   2.016   0.918  0.0540  0.2207 -0.5804
  564poe    c23 4606   6.098   1.909   0.861  0.0802 -0.0412 -0.0574
  564poe     o2 4607   6.046   1.842   0.748 -0.0056  0.3729 -0.2664
  564poe    c31 4608   6.143   1.747   0.708 -0.0807  0.5147 -0.7839
  565poe    c31 4609   6.152   2.682   0.514 -0.2518  0.2073  0.1186
  565poe     o2 4610   6.048   2.775   0.493 -0.3382  0.1830  0.4409
  565poe    c23 4611   5.945   2.727   0.410 -0.0315  0.3071 -0.0153
  565poe    c23 4612   5.818   2.806   0.443 -0.2074  0.0304 -0.0267
  565poe     o2 4613   5.868   2.937   0.435  0.0361 -0.0302  0.4752
  565poe    c23 4614   5.770   3.033   0.467  0.1846  0.3237 -0.1107
  565poe    c23 4615   5.822   3.162   0.533 -0.1855  0.5352 -0.2311
  565poe     o2 4616   5.855   3.158   0.670 -0.1970 -0.2671 -0.2504
  565poe    c23 4617   5.902   3.284   0.712  0.4820 -0.5454 -0.1490
  565poe    c23 4618   5.927   3.282   0.864 -0.0207  0.0034 -0.0536
  565poe     o2 4619   5.991   3.159   0.892  0.3430  0.0141 -0.8191
  565poe    c31 4620   6.037   3.156   1.025  0.2863 -0.5933 -0.8114
  566poe    c31 4621   4.783   1.875   2.976  0.2389  0.0258  0.6684
  566poe     o2 4622   4.652   1.844   3.015  0.2080 -0.1694  0.4084
  566poe    c23 4623   4.624   1.720   2.952  0.0837  0.0501  0.0258
  566poe    c23 4624   4.493   1.651   2.993  0.0398  0.1989  0.1397
  566poe     o2 4625   4.519   1.581   3.113  0.0806  0.1140  0.0822
  566poe    c23 4626   4.469   1.450   3.106 -0.1185  0.1698  0.4177
  566poe    c23 4627   4.537   1.362   3.213 -0.3228 -0.4168  0.0712
  566poe     o2 4628   4.528   1.439   3.330 -0.1475  0.3425 -0.4078
  566poe    c23 4629   4.481   1.366   3.441  0.3661  0.1883 -0.2889
  566poe    c23 4630   4.492   1.483   3.541  0.0538  0.0174 -0.0537
  566poe     o2 4631   4.478   1.614   3.490 -0.2026  0.0122  0.0044
  566poe    c31 4632   4.511   1.712   3.585  0.2577  0.2023 -0.3517
  567poe    c31 4633   6.338   3.353   1.305 -0.0757  0.0859  0.1685
  567poe     o2 4634   6.446   3.391   1.221 -0.2104  0.4967  0.1801
  567poe    c23 4635   6.402   3.461   1.107 -0.1394  0.2114 -0.0208
  567poe    c23 4636   6.530   3.507   1.034  0.5076 -0.5706  0.5971
  567poe     o2 4637   6.619   3.398   1.029  0.2556 -0.7689  0.3775
  567poe    c23 4638   6.748   3.439   0.989  0.0942 -0.2378  0.3929
  567poe    c23 4639   6.834   3.314   1.015  0.1190 -0.3260 -0.1003
  567poe     o2 4640   6.821   3.276   1.150  0.2623 -0.3263 -0.0868
  567poe    c23 4641   6.853   3.141   1.175  0.0397 -0.4577 -0.5254
  567poe    c23 4642   6.786   3.121   1.312  0.0319  0.3258 -0.4100
  567poe     o2 4643   6.649   3.155   1.314  0.0042  0.1705  0.4933
  567poe    c31 4644   6.591   3.107   1.433  0.3627 -0.2916  0.4853
  568poe    c31 4645   3.550   5.343   2.396  1.0791  0.4507 -0.0835
  568poe     o2 4646   3.569   5.262   2.510  0.2303 -0.0524 -0.2899
  568poe    c23 4647   3.442   5.268   2.572  0.4335  0.1234  0.1123
  568poe    c23 4648   3.426   5.138   2.652 -0.8049  0.3325  0.2306
  568poe     o2 4649   3.552   5.136   2.715 -0.3533 -0.1572 -0.6666
  568poe    c23 4650   3.590   5.012   2.772 -0.2492  0.3851  0.4884
  568poe    c23 4651   3.722   5.005   2.849  0.1936  0.0503 -0.2860
  568poe     o2 4652   3.823   5.029   2.754  0.7094 -0.8353  0.0218
  568poe    c23 4653   3.957   5.016   2.795  0.7692 -0.4531 -0.0435
  568poe    c23 4654   4.016   5.118   2.894  0.1747  0.3933 -0.5498
  568poe     o2 4655   4.031   5.245   2.836  0.5529  0.3934 -0.4488
  568poe    c31 4656   4.083   5.336   2.930 -0.1500  0.1012  0.2308
  569poe    c31 4657   2.952   0.758   3.791  0.1085 -0.0520  0.0812
  569poe     o2 4658   3.015   0.666   3.705  0.1946 -0.3107  0.4191
  569poe    c23 4659   3.149   0.706   3.684 -0.0122  0.1979  0.0500
  569poe    c23 4660   3.218   0.609   3.586 -0.2631 -0.2461  0.3081
  569poe     o2 4661   3.190   0.487   3.651  0.4204 -0.3899  0.3404
  569poe    c23 4662   3.243   0.375   3.584 -0.4858 -0.6247 -0.0055
  569poe    c23 4663   3.130   0.319   3.497 -0.4138 -0.3503 -0.2763
  569poe     o2 4664   3.015   0.327   3.579  0.1153  0.0993  0.4257
  569poe    c23 4665   2.898   0.296   3.508  0.2132 -0.0995  0.3497
  569poe    c23 4666   2.776   0.332   3.595 -0.1142  0.0585 -0.1704
  569poe     o2 4667   2.816   0.443   3.671  0.5405 -0.4942  0.2950
  569poe    c31 4668   2.689   0.489   3.712  0.5476 -0.0891 -0.1311
  570poe    c31 4669   2.117   2.664   3.429 -0.6258 -0.2371  0.3495
  570poe     o2 4670   2.163   2.559   3.512  0.2906 -0.0245  0.1182
  570poe    c23 4671   2.222   2.611   3.629 -0.1456 -0.3835  0.5017
  570poe    c23 4672   2.301   2.494   3.691 -0.1729 -0.7834 -0.1988
  570poe     o2 4673   2.242   2.375   3.646 -0.1381 -0.8528 -0.0598
  570poe    c23 4674   2.305   2.266   3.712  0.3348 -0.3194  0.3794
  570poe    c23 4675   2.269   2.132   3.646  0.2041 -0.2357  0.2770
  570poe     o2 4676   2.336   2.120   3.522 -0.3914  0.4081 -0.1148
  570poe    c23 4677   2.266   2.058   3.417 -0.1588 -0.6126  0.3114
  570poe    c23 4678   2.131   2.126   3.385  0.2755  0.2187  0.2273
  570poe     o2 4679   2.148   2.266   3.381  0.4567  0.2046  0.4560
  570poe    c31 4680   2.047   2.300   3.288  0.3020 -0.4368  0.3830
  571poe    c31 4681   5.018   3.093   0.626  0.3891  0.1733  0.1064
  571poe     o2 4682   4.982   2.971   0.565 -0.1798  0.3039  0.1776
  571poe    c23 4683   5.000   2.863   0.654  0.1494  0.0282 -0.2184
  571poe    c23 4684   4.995   2.736   0.568  0.0430 -0.0353 -0.1182
  571poe     o2 4685   4.882   2.710   0.488  0.1604  0.0556 -0.3146
  571poe    c23 4686   4.883   2.573   0.453  0.4157  0.0434 -0.2597
  571poe    c23 4687   4.754   2.540   0.375  0.2412  0.5957 -0.2118
  571poe     o2 4688   4.737   2.643   0.281 -0.5554  0.6863  0.0279
  571poe    c23 4689   4.603   2.635   0.236 -0.4838 -0.1853 -0.0445
  571poe    c23 4690   4.597   2.754   0.139  0.3743 -0.1404 -0.0530
  571poe     o2 4691   4.634   2.869   0.212  0.0529 -0.0647 -0.0070
  571poe    c31 4692   4.609   2.992   0.148 -0.1349  0.0179  0.2224
  572poe    c31 4693   3.730   2.673   0.915 -0.5848  0.3987 -0.4255
  572poe     o2 4694   3.602   2.637   0.963 -0.2202  0.1948  0.4072
  572poe    c23 4695   3.515   2.739   0.920  0.2781  0.3688 -0.2039
  572poe    c23 4696   3.393   2.741   1.014  0.2696 -0.2572 -0.1952
  572poe     o2 4697   3.309   2.628   1.007  0.0519 -0.0688 -0.6566
  572poe    c23 4698   3.235   2.606   1.125  0.0252  0.0417 -0.6521
  572poe    c23 4699   3.154   2.475   1.107 -0.4716  0.2756 -0.1545
  572poe     o2 4700   3.230   2.371   1.049  0.0085  0.3542  0.3243
  572poe    c23 4701   3.140   2.284   0.985 -0.0086  0.3437  0.3630
  572poe    c23 4702   3.215   2.208   0.874 -0.0519  0.1161  0.4878
  572poe     o2 4703   3.300   2.294   0.802 -0.7250  0.0810 -0.3663
  572poe    c31 4704   3.364   2.230   0.694 -0.2167 -0.0829  0.0277
  573poe    c31 4705   5.151   3.630   4.772 -0.1171 -0.0556 -0.3097
  573poe     o2 4706   5.234   3.744   4.780 -0.0131 -0.1595  0.0894
  573poe    c23 4707   5.307   3.734   4.900  0.0583 -0.0515  0.0550
  573poe    c23 4708   5.359   3.877   4.923 -0.5785  0.1260  0.4162
  573poe     o2 4709   5.397   3.932   4.798 -0.1098 -0.4770  0.2872
  573poe    c23 4710   5.377   4.071   4.796  0.3387 -0.4187 -0.1917
  573poe    c23 4711   5.403   4.113   4.650 -0.1994 -0.0867 -0.1939
  573poe     o2 4712   5.358   4.008   4.568  0.7813 -0.2738 -0.4954
  573poe    c23 4713   5.314   4.041   4.438  0.0059  0.1951 -0.1144
  573poe    c23 4714   5.199   3.951   4.389 -0.0475  0.0098  0.3411
  573poe     o2 4715   5.209   3.830   4.461  0.3514 -0.2311 -0.1089
  573poe    c31 4716   5.103   3.745   4.422  0.0545 -0.2421  0.6941
  574poe    c31 4717   3.850   5.896   5.447  0.3332  0.3187 -0.1045
  574poe     o2 4718   3.733   5.881   5.368  0.1026 -0.2306  0.3383
  574poe    c23 4719   3.757   5.875   5.229 -0.6520 -0.0859  0.1986
  574poe    c23 4720   3.629   5.865   5.145 -0.2556 -0.5305 -0.3538
  574poe     o2 4721   3.548   5.979   5.132 -0.0131 -0.3942 -0.6720
  574poe    c23 4722   3.423   5.954   5.072 -0.2112 -0.2866 -0.3085
  574poe    c23 4723   3.353   6.079   5.015  0.2857 -0.0022 -0.3057
  574poe     o2 4724   3.438   6.154   4.932  0.2056 -0.2229 -0.5867
  574poe    c23 4725   3.356   6.230   4.846  0.1624  0.4043  0.0010
  574poe    c23 4726   3.440   6.244   4.718 -0.3169  0.5594 -0.3003
  574poe     o2 4727   3.568   6.293   4.753 -0.2315  0.0532  0.1098
  574poe    c31 4728   3.634   6.326   4.633 -0.0040  0.1664  0.2664
  575poe    c31 4729   2.350   6.542   0.768  0.0509  0.2438  0.2031
  575poe     o2 4730   2.329   6.404   0.752  0.0274  0.2782 -0.0617
  575poe    c23 4731   2.397   6.320   0.842 -0.3119 -0.1962 -0.2416
  575poe    c23 4732   2.368   6.174   0.802 -0.3673 -0.3316  0.2786
  575poe     o2 4733   2.387   6.155   0.663 -1.0948  0.2368  0.0946
  575poe    c23 4734   2.354   6.029   0.609 -1.4788  0.3847 -0.0180
  575poe    c23 4735   2.413   6.035   0.467 -0.9922 -0.3505  0.1464
  575poe     o2 4736   2.359   6.150   0.405 -0.3527  0.1825  0.5644
  575poe    c23 4737   2.409   6.173   0.276 -0.6207  0.2294  0.4678
  575poe    c23 4738   2.361   6.300   0.202 -0.2037  0.0568 -0.1143
  575poe     o2 4739   2.392   6.418   0.273  0.5441 -0.1734 -0.0558
  575poe    c31 4740   2.342   6.527   0.200  0.0994 -0.5126 -0.2639
  576poe    c31 4741   2.385   1.208   2.018  0.3535  0.1266 -0.1280
  576poe     o2 4742   2.365   1.127   1.904 -0.1214  0.1427 -0.0547
  576poe    c23 4743   2.331   0.995   1.937 -0.3574  0.1996 -0.0605
  576poe    c23 4744   2.356   0.893   1.824 -0.2287  0.1539  0.0084
  576poe     o2 4745   2.348   0.972   1.708  0.0559 -0.5753 -0.5110
  576poe    c23 4746   2.418   0.904   1.606  0.1286 -0.7618 -0.3385
  576poe    c23 4747   2.405   0.979   1.472  0.3845  0.1269  0.1281
  576poe     o2 4748   2.435   1.115   1.494  0.3638  0.1923 -0.2303
  576poe    c23 4749   2.424   1.199   1.382 -0.1014  0.0972 -0.2600
  576poe    c23 4750   2.304   1.294   1.366 -0.1521  0.1561  0.4432
  576poe     o2 4751   2.315   1.395   1.463  0.3460  0.0984  0.4509
  576poe    c31 4752   2.215   1.493   1.449  0.1169 -0.2598 -0.4691
  577poe    c31 4753   1.992   1.966   4.483  0.0197  0.0863 -0.0436
  577poe     o2 4754   2.009   1.889   4.365 -0.5329 -0.1226  0.0099
  577poe    c23 4755   2.029   1.970   4.251  0.1102 -0.2532  0.0259
  577poe    c23 4756   2.005   1.872   4.134 -0.0198  0.1821 -0.3111
  577poe     o2 4757   2.068   1.749   4.162  0.4037  0.4458 -0.0930
  577poe    c23 4758   2.053   1.647   4.067  0.6154  0.0601  0.2862
  577poe    c23 4759   2.133   1.527   4.121 -0.0221 -0.4896  0.0244
  577poe     o2 4760   2.110   1.539   4.260  0.1977 -0.1987  0.0364
  577poe    c23 4761   2.182   1.446   4.336  0.1815 -0.1349  0.1303
  577poe    c23 4762   2.141   1.463   4.483  0.2546 -0.0917  0.1455
  577poe     o2 4763   2.114   1.600   4.503  0.7030 -0.0715  0.6378
  577poe    c31 4764   2.054   1.635   4.626  0.0195  0.3068  0.2040
  578poe    c31 4765   0.560   0.251   1.135  0.1743  0.6155 -0.2543
  578poe     o2 4766   0.612   0.193   1.018 -0.7394 -0.4761 -0.1320
  578poe    c23 4767   0.570   0.284   0.918  0.5144  0.3169  0.0466
  578poe    c23 4768   0.606   0.224   0.781 -0.0811 -0.3357  0.1691
  578poe     o2 4769   0.725   0.148   0.786 -0.0390 -0.2524  0.4842
  578poe    c23 4770   0.743   0.058   0.679  0.1366 -0.3747  0.6149
  578poe    c23 4771   0.860  -0.031   0.723  0.2498 -0.4573  0.1580
  578poe     o2 4772   0.822  -0.074   0.852 -0.1524  0.1504  0.2456
  578poe    c23 4773   0.931  -0.087   0.941  0.2292  0.0542 -0.2285
  578poe    c23 4774   0.867  -0.118   1.078  0.1350  0.9447 -0.0641
  578poe     o2 4775   0.775  -0.017   1.114 -0.1944  0.4596  0.4659
  578poe    c31 4776   0.717  -0.052   1.238 -0.2255 -0.0545  0.3084
  579poe    c31 4777   0.385   0.194   0.254 -0.0723  0.1879  0.0160
  579poe     o2 4778   0.282   0.220   0.346  0.2594 -0.5254  0.6024
  579poe    c23 4779   0.336   0.289   0.458 -0.1586 -0.1046  0.5501
  579poe    c23 4780   0.218   0.326   0.549 -0.2965  0.1316  0.2793
  579poe     o2 4781   0.133   0.213   0.540 -0.1909  0.0428  0.3844
  579poe    c23 4782   0.018   0.233   0.618 -0.2337  0.0521  0.3184
  579poe    c23 4783  -0.072   0.112   0.585  0.2611 -0.2893  0.2252
  579poe     o2 4784  -0.096   0.095   0.447  0.1189 -0.2187  0.2413
  579poe    c23 4785  -0.174   0.195   0.385  0.1704 -0.1906  0.2209
  579poe    c23 4786  -0.119   0.190   0.241 -0.3181 -0.4690  0.0416
  579poe     o2 4787   0.020   0.207   0.233 -0.3832  0.2913  0.3734
  579poe    c31 4788   0.052   0.196   0.096 -0.2511 -0.6612  0.4741
  580poe    c31 4789   4.319   1.771   2.252 -0.7732  0.1466 -0.4363
  580poe     o2 4790   4.408   1.873   2.288 -0.1970 -0.3734 -0.3703
  580poe    c23 4791   4.541   1.844   2.251 -0.1290 -0.2293 -0.2439
  580poe    c23 4792   4.639   1.908   2.351 -0.0658  0.3329 -0.6606
  580poe     o2 4793   4.656   2.047   2.332 -0.2698  0.4981  0.3199
  580poe    c23 4794   4.758   2.088   2.420  0.0422  0.0525  0.1710
  580poe    c23 4795   4.780   2.240   2.408 -0.0979  0.0681  0.1146
  580poe     o2 4796   4.655   2.306   2.411 -0.2377 -0.2061  0.4648
  580poe    c23 4797   4.676   2.445   2.395  0.2304 -0.2778  0.4430
  580poe    c23 4798   4.548   2.491   2.323  0.2905 -0.7264  0.0391
  580poe     o2 4799   4.508   2.407   2.218 -0.1589 -0.5209  0.0415
  580poe    c31 4800   4.436   2.490   2.129 -0.3592 -0.4245  0.2954
  581poe    c31 4801   1.137   6.144   3.463  0.0883  0.2546 -0.3219
  581poe     o2 4802   1.003   6.104   3.444  0.2774 -0.6397  0.1583
  581poe    c23 4803   0.936   6.130   3.565 -0.2990  0.1795 -0.3208
  581poe    c23 4804   0.788   6.086   3.557 -0.3231  0.1145  0.3850
  581poe     o2 4805   0.742   6.098   3.425  0.2969  0.1720  0.1697
  581poe    c23 4806   0.617   6.035   3.406  0.3902  0.0278  0.0273
  581poe    c23 4807   0.609   6.017   3.254 -0.0084  0.4053  0.0027
  581poe     o2 4808   0.727   5.956   3.207  0.0513  0.0883  0.5700
  581poe    c23 4809   0.703   5.885   3.088  0.4060 -0.2914  0.7235
  581poe    c23 4810   0.774   5.748   3.075  0.3293 -0.2159 -0.5758
  581poe     o2 4811   0.913   5.765   3.064  0.3064  0.2147 -0.2223
  581poe    c31 4812   0.982   5.643   3.084  0.2832  0.2319 -0.0336
  582poe    c31 4813   4.736   5.209   5.190 -0.0240 -0.1475 -0.4027
  582poe     o2 4814   4.838   5.200   5.093  0.0025  0.3843 -0.4236
  582poe    c23 4815   4.781   5.224   4.966 -1.0911  0.5589  0.0868
  582poe    c23 4816   4.843   5.347   4.897  0.3461  0.2595  0.7994
  582poe     o2 4817   4.979   5.311   4.905  0.3859  0.1289 -0.2766
  582poe    c23 4818   5.060   5.415   4.855  0.3032  0.0261 -0.6238
  582poe    c23 4819   5.197   5.351   4.882  0.1854  0.0249 -0.0201
  582poe     o2 4820   5.197   5.292   5.010 -0.0537  0.1089  0.0186
  582poe    c23 4821   5.263   5.168   5.016  0.0658  0.1849  0.3012
  582poe    c23 4822   5.236   5.110   5.156  0.2884 -0.0053  0.2664
  582poe     o2 4823   5.096   5.124   5.167  0.3008  0.0136  0.4107
  582poe    c31 4824   5.052   5.051   5.280 -0.7761 -0.3870 -0.2469
  583poe    c31 4825   4.739   3.383   2.948  0.1220  0.0674 -0.1109
  583poe     o2 4826   4.774   3.370   2.812  0.2790 -0.3195 -0.0335
  583poe    c23 4827   4.669   3.434   2.742  0.0225 -0.1710  0.4825
  583poe    c23 4828   4.705   3.424   2.593  0.2124 -0.1273  0.5255
  583poe     o2 4829   4.759   3.295   2.576 -0.6883 -0.4893  0.3766
  583poe    c23 4830   4.785   3.263   2.442 -0.4658 -0.0179  0.3038
  583poe    c23 4831   4.830   3.115   2.447  0.5288  0.2827  0.4533
  583poe     o2 4832   4.933   3.076   2.535  0.6532  0.0924  0.2247
  583poe    c23 4833   4.957   2.938   2.516 -0.1484 -0.0356  0.1076
  583poe    c23 4834   5.049   2.891   2.631  0.0257  0.4703  0.1768
  583poe     o2 4835   4.977   2.892   2.752 -0.4644  0.1113 -0.1066
  583poe    c31 4836   4.985   2.765   2.814  0.0925  0.1175 -0.1552
  584poe    c31 4837   4.778   1.096   2.902  0.5010  0.0768 -0.2083
  584poe     o2 4838   4.891   1.014   2.921  0.2883  0.0114  0.8294
  584poe    c23 4839   5.011   1.087   2.933  0.3636  0.0965 -0.3722
  584poe    c23 4840   5.127   1.008   2.868  0.4042 -0.1311 -0.0248
  584poe     o2 4841   5.091   0.873   2.888 -0.0573 -0.0689 -0.4162
  584poe    c23 4842   5.183   0.783   2.830  0.1551 -0.2305  0.1614
  584poe    c23 4843   5.175   0.650   2.907 -0.0564 -0.4243 -0.1932
  584poe     o2 4844   5.036   0.626   2.919 -0.1357  0.1769  0.1690
  584poe    c23 4845   5.003   0.556   3.037 -0.2962  0.0879  0.0715
  584poe    c23 4846   4.860   0.594   3.077 -0.4259 -0.0185 -0.2848
  584poe     o2 4847   4.814   0.722   3.039 -0.0129  0.3723  0.4958
  584poe    c31 4848   4.680   0.707   3.079 -0.2506  0.4550 -0.2422
  585poe    c31 4849   2.427   2.004   1.689 -0.5046 -0.2206 -0.1356
  585poe     o2 4850   2.557   1.990   1.638 -0.3645 -0.0068  0.1584
  585poe    c23 4851   2.656   2.037   1.727 -0.1220 -0.2039 -0.0045
  585poe    c23 4852   2.786   1.962   1.693  0.0948  0.2926 -0.2707
  585poe     o2 4853   2.789   1.953   1.553  0.4729  0.2784 -0.2618
  585poe    c23 4854   2.898   1.887   1.492  0.1136 -0.1415 -0.4531
  585poe    c23 4855   2.854   1.741   1.467 -0.4061 -0.0667  0.0170
  585poe     o2 4856   2.725   1.765   1.414 -0.1769  0.6189 -0.2475
  585poe    c23 4857   2.645   1.648   1.414 -0.0071  0.5015 -0.1650
  585poe    c23 4858   2.500   1.682   1.377 -0.2326 -0.0738  0.1841
  585poe     o2 4859   2.467   1.806   1.434  0.1416  0.2365 -0.2598
  585poe    c31 4860   2.330   1.837   1.414 -0.0796 -0.2973  0.3857
  586poe    c31 4861   3.441   4.802   3.080 -0.2219 -0.0978  0.4054
  586poe     o2 4862   3.334   4.803   2.988  0.3261  0.1107 -0.2293
  586poe    c23 4863   3.341   4.683   2.914 -0.0403  0.0088 -0.0989
  586poe    c23 4864   3.216   4.658   2.828  0.0855 -0.1114 -0.2469
  586poe     o2 4865   3.103   4.672   2.910  0.0381  0.1647 -0.3601
  586poe    c23 4866   2.989   4.628   2.840 -0.1947 -0.1059  0.1772
  586poe    c23 4867   2.877   4.601   2.941 -0.7921 -0.3898 -0.5507
  586poe     o2 4868   2.850   4.727   2.997 -0.1510 -0.4666 -0.0581
  586poe    c23 4869   2.758   4.717   3.103  0.1054  0.0586  0.2213
  586poe    c23 4870   2.706   4.848   3.166  0.2009  0.2305 -0.0559
  586poe     o2 4871   2.819   4.932   3.174 -0.0433  0.5837 -0.3136
  586poe    c31 4872   2.784   5.044   3.252 -0.1144  0.0156  0.4842
  587poe    c31 4873   0.141   4.125   6.701 -0.4166  0.2161 -0.1937
  587poe     o2 4874   0.122   4.071   6.830  0.2770 -0.1660 -0.2447
  587poe    c23 4875  -0.011   4.103   6.864  0.4165 -0.1063  0.2531
  587poe    c23 4876  -0.021   4.079   7.016 -0.4512 -0.2213  0.1837
  587poe     o2 4877   0.024   3.947   7.035 -0.0056 -0.1439 -0.2939
  587poe    c23 4878   0.036   3.914   7.172 -0.2938 -0.3534 -0.3178
  587poe    c23 4879   0.129   3.791   7.168  0.4267  0.1805 -0.2632
  587poe     o2 4880   0.230   3.845   7.086  0.2727  0.3500 -0.3427
  587poe    c23 4881   0.320   3.742   7.052 -0.3407 -0.0827 -0.6618
  587poe    c23 4882   0.418   3.813   6.956 -0.0768  0.1636 -0.2126
  587poe     o2 4883   0.346   3.893   6.865 -0.5161 -0.4839 -0.4417
  587poe    c31 4884   0.453   3.938   6.786 -0.2384  0.1908  0.3026
  588poe    c31 4885   6.088   4.384   2.362 -0.1645 -0.3444  0.1494
  588poe     o2 4886   5.985   4.461   2.420  0.3172  0.4494 -0.0226
  588poe    c23 4887   5.948   4.401   2.542 -0.0546 -0.1219 -0.4129
  588poe    c23 4888   5.843   4.494   2.606  0.3651  0.3635 -0.4229
  588poe     o2 4889   5.754   4.542   2.507 -0.3119 -0.1218 -0.0649
  588poe    c23 4890   5.683   4.647   2.570 -0.1947 -0.1908  0.1856
  588poe    c23 4891   5.653   4.729   2.443  0.1582 -0.3660 -0.0142
  588poe     o2 4892   5.771   4.739   2.367 -0.1593 -0.0376 -0.4717
  588poe    c23 4893   5.750   4.813   2.249 -0.0137  0.7771  0.0070
  588poe    c23 4894   5.872   4.799   2.156 -0.2266  0.2455 -0.1915
  588poe     o2 4895   5.930   4.670   2.160 -0.1107  0.2954 -0.2757
  588poe    c31 4896   6.019   4.659   2.051  0.4186  0.4586  0.1350
  589poe    c31 4897   1.915   2.909   3.894 -0.2096 -0.3764  0.0631
  589poe     o2 4898   1.789   2.884   3.953 -0.1962 -0.1371  0.1975
  589poe    c23 4899   1.697   2.990   3.944 -0.0406 -0.0434 -0.3042
  589poe    c23 4900   1.562   2.975   4.016 -0.0290  0.1739 -0.2360
  589poe     o2 4901   1.512   2.858   3.956 -0.0968  0.1264 -0.0867
  589poe    c23 4902   1.390   2.808   4.006  0.1341 -0.4103 -0.0552
  589poe    c23 4903   1.408   2.707   4.121 -0.1015 -0.0829  0.2684
  589poe     o2 4904   1.533   2.646   4.099 -0.2327 -0.1899 -0.1884
  589poe    c23 4905   1.565   2.548   4.196  0.2541  0.2230  0.0747
  589poe    c23 4906   1.695   2.483   4.145 -0.2931 -0.3559 -0.6026
  589poe     o2 4907   1.770   2.586   4.084  0.0839 -0.5053 -0.3919
  589poe    c31 4908   1.900   2.551   4.043  0.1147 -0.1770 -0.5704
  590poe    c31 4909   1.358   3.219   2.460  0.1377  0.0648  0.1256
  590poe     o2 4910   1.329   3.211   2.597  0.2358  0.1135  0.1497
  590poe    c23 4911   1.216   3.294   2.614  0.0443 -0.1415  0.1381
  590poe    c23 4912   1.148   3.247   2.744 -0.5118  0.0985 -0.0646
  590poe     o2 4913   1.161   3.107   2.740 -0.5787  0.0973 -0.2491
  590poe    c23 4914   1.088   3.051   2.847 -0.1215 -0.2626 -0.1222
  590poe    c23 4915   1.105   2.899   2.828 -0.2772 -0.2490 -0.3614
  590poe     o2 4916   1.243   2.884   2.804 -0.1825 -0.1504  0.1131
  590poe    c23 4917   1.279   2.800   2.697  0.3344 -0.0019  0.1672
  590poe    c23 4918   1.429   2.814   2.669  0.3628 -0.5330  0.0351
  590poe     o2 4919   1.455   2.945   2.623  0.2165 -0.5408 -0.0695
  590poe    c31 4920   1.590   2.954   2.584  0.3274 -0.3799  0.3494
  591poe    c31 4921   4.754   4.619   1.299  0.2578 -0.7654 -0.2997
  591poe     o2 4922   4.852   4.674   1.384 -0.0081 -0.1806 -0.3647
  591poe    c23 4923   4.901   4.781   1.307 -0.1739 -0.0672 -0.3130
  591poe    c23 4924   5.045   4.815   1.352 -0.1641 -0.0736 -0.3408
  591poe     o2 4925   5.042   4.817   1.493  0.0850 -0.3507 -0.3304
  591poe    c23 4926   5.155   4.744   1.534  0.1922 -0.1647 -0.2949
  591poe    c23 4927   5.118   4.703   1.677 -0.3321 -0.0534 -0.3977
  591poe     o2 4928   5.004   4.622   1.658 -0.0119 -0.5401 -0.2611
  591poe    c23 4929   4.957   4.556   1.774 -0.3100  0.1655  0.0209
  591poe    c23 4930   4.845   4.459   1.732 -0.1526  0.1170 -0.2924
  591poe     o2 4931   4.763   4.524   1.638 -0.5023  0.5729  0.3245
  591poe    c31 4932   4.641   4.454   1.640  0.0522 -0.4347 -0.3585
  592poe    c31 4933   0.581   0.381   3.266  0.2022 -0.7990 -0.1028
  592poe     o2 4934   0.627   0.312   3.380  0.6226 -0.1626  0.1249
  592poe    c23 4935   0.641   0.408   3.481 -0.1773  0.0579  0.0354
  592poe    c23 4936   0.639   0.353   3.625 -0.1528 -0.1381 -0.0397
  592poe     o2 4937   0.734   0.249   3.637 -0.0573 -0.1181 -0.5903
  592poe    c23 4938   0.722   0.191   3.765 -0.3070  0.1026 -0.5128
  592poe    c23 4939   0.787   0.052   3.775 -0.3198  0.1041 -0.4068
  592poe     o2 4940   0.902   0.059   3.694  0.0795 -0.3055  0.1172
  592poe    c23 4941   0.968  -0.066   3.686 -0.1307 -0.4013 -0.1404
  592poe    c23 4942   1.081  -0.031   3.587 -0.0847  0.5263  0.2265
  592poe     o2 4943   1.032   0.049   3.481  0.2974  0.2441 -0.1678
  592poe    c31 4944   1.131   0.052   3.381  0.1758  0.0011 -0.2943
  593poe    c31 4945   3.306   3.601   2.375  0.3259  0.1858  0.1250
  593poe     o2 4946   3.249   3.475   2.346 -0.1597  0.2964  0.5758
  593poe    c23 4947   3.237   3.470   2.206  0.1603 -0.0167  0.5572
  593poe    c23 4948   3.220   3.322   2.166  0.2233  0.1482 -0.1034
  593poe     o2 4949   3.123   3.274   2.257  0.6388 -0.0545  0.2334
  593poe    c23 4950   3.100   3.136   2.235 -0.0871  0.1196 -0.1126
  593poe    c23 4951   3.024   3.094   2.363  0.0705 -0.0571 -0.0769
  593poe     o2 4952   3.089   3.164   2.467 -0.5823 -0.1909  0.4232
  593poe    c23 4953   3.018   3.152   2.589 -0.1284 -0.7661  0.6365
  593poe    c23 4954   3.108   3.236   2.682 -0.1483 -0.0460  0.0185
  593poe     o2 4955   3.165   3.347   2.617 -0.1528 -0.0291  0.0437
  593poe    c31 4956   3.236   3.417   2.716 -0.0981 -0.4214  0.2841
  594poe    c31 4957   3.003   1.596   4.396 -0.3754  0.2241 -0.1035
  594poe     o2 4958   2.990   1.730   4.355  0.1876  0.3328  0.0547
  594poe    c23 4959   2.895   1.787   4.442  0.4838 -0.3538  0.8391
  594poe    c23 4960   2.877   1.929   4.385  0.4703 -0.7143 -0.0717
  594poe     o2 4961   3.003   1.969   4.338  0.3944 -0.2711  0.0952
  594poe    c23 4962   3.001   2.101   4.290  0.3299 -0.0789  0.6216
  594poe    c23 4963   3.151   2.136   4.282  0.3606 -0.2175  0.5867
  594poe     o2 4964   3.217   2.027   4.223 -0.0341 -0.1537  0.0254
  594poe    c23 4965   3.211   2.020   4.082 -0.0058 -0.0309  0.0176
  594poe    c23 4966   3.233   1.876   4.032  0.1626  0.0994 -0.2895
  594poe     o2 4967   3.136   1.801   4.101  0.3227  0.2359  0.0888
  594poe    c31 4968   3.140   1.664   4.069  0.1635  0.1950  0.2395
  595poe    c31 4969   0.039   2.582   0.782 -0.0378  0.1367  0.3435
  595poe     o2 4970   0.138   2.549   0.687 -0.2693 -0.1631  0.2057
  595poe    c23 4971   0.181   2.419   0.720  0.6286  0.0900  0.0509
  595poe    c23 4972   0.298   2.357   0.641 -0.1097 -0.2858 -0.7613
  595poe     o2 4973   0.274   2.400   0.508 -0.1034 -0.2595 -0.7539
  595poe    c23 4974   0.382   2.380   0.420  0.6147  0.1766  0.0030
  595poe    c23 4975   0.360   2.475   0.300  0.1130  0.4040  0.2712
  595poe     o2 4976   0.320   2.589   0.371 -0.2903  0.3788  0.0843
  595poe    c23 4977   0.296   2.700   0.287 -0.6216 -0.0564 -0.3969
  595poe    c23 4978   0.262   2.812   0.387 -0.0438  0.2127 -0.4985
  595poe     o2 4979   0.166   2.763   0.477  0.1466 -0.1329 -0.4811
  595poe    c31 4980   0.082   2.851   0.548  0.3634 -0.4184  0.1378
  596poe    c31 4981   0.246   5.499   5.438  0.3606 -0.2191  0.0343
  596poe     o2 4982   0.338   5.394   5.421  0.2188 -0.3348 -0.0169
  596poe    c23 4983   0.341   5.302   5.528 -0.0571 -0.4188 -0.0811
  596poe    c23 4984   0.484   5.258   5.562  0.1368  0.4678  0.2837
  596poe     o2 4985   0.559   5.227   5.446 -0.0866 -0.0426  0.2708
  596poe    c23 4986   0.549   5.094   5.400 -0.1876 -0.1401  0.5695
  596poe    c23 4987   0.641   5.078   5.277 -0.3272 -0.3634  0.4938
  596poe     o2 4988   0.628   5.192   5.195 -0.2725 -0.5422  0.2389
  596poe    c23 4989   0.551   5.155   5.083 -0.1363 -0.2680  0.0521
  596poe    c23 4990   0.499   5.289   5.029  0.3776 -0.1043 -0.0360
  596poe     o2 4991   0.453   5.371   5.134  0.0797  0.4304 -0.5783
  596poe    c31 4992   0.409   5.498   5.090 -0.0770  0.5963  0.0483
  597poe    c31 4993   6.508   5.248   3.167  0.1259  0.0256  0.1974
  597poe     o2 4994   6.498   5.198   3.035  0.1020 -0.1852  0.2788
  597poe    c23 4995   6.621   5.205   2.968 -0.1632  0.4718 -0.1500
  597poe    c23 4996   6.621   5.126   2.836  0.0511  0.2285 -0.0074
  597poe     o2 4997   6.584   4.999   2.884  0.0578  0.3134  0.2217
  597poe    c23 4998   6.553   4.917   2.774 -0.1938  0.6720  0.0249
  597poe    c23 4999   6.514   4.778   2.828  0.1767  0.4273 -0.3357
  597poe     o2 5000   6.438   4.805   2.944 -0.3028 -0.5340 -0.4092
  597poe    c23 5001   6.429   4.690   3.025  0.3776 -0.1063  0.2970
  597poe    c23 5002   6.334   4.726   3.141 -0.3519  0.0969 -0.3541
  597poe     o2 5003   6.389   4.845   3.193 -0.8566  0.2757 -0.2202
  597poe    c31 5004   6.357   4.855   3.330 -0.2949 -0.6806 -0.0100
  598poe    c31 5005   5.269   1.167   3.675  0.2906 -0.6687  0.0905
  598poe     o2 5006   5.155   1.176   3.756  0.2114  0.1181 -0.1013
  598poe    c23 5007   5.178   1.129   3.887  0.4702 -0.3620 -0.3154
  598poe    c23 5008   5.071   1.170   3.990 -0.2522 -0.2675 -1.0908
  598poe     o2 5009   5.045   1.308   4.000 -0.0201 -0.3147  0.3235
  598poe    c23 5010   4.930   1.335   4.077 -0.1178  0.1848  0.0105
  598poe    c23 5011   4.895   1.483   4.054  0.8433  0.4201  0.0462
  598poe     o2 5012   4.843   1.507   3.926  0.4325  0.0602  0.1446
  598poe    c23 5013   4.871   1.642   3.899  0.1130  0.0681 -0.1628
  598poe    c23 5014   4.814   1.679   3.761  0.0996  0.3375 -0.0866
  598poe     o2 5015   4.830   1.564   3.681  0.4690  0.1991  0.1871
  598poe    c31 5016   4.869   1.603   3.551  0.5650  0.3079  0.2485
  599poe    c31 5017   4.795   5.273   1.080  0.7631  0.3862 -0.3276
  599poe     o2 5018   4.737   5.399   1.106  0.0836  0.0225 -0.0390
  599poe    c23 5019   4.790   5.485   1.007  0.1871 -0.0130 -0.0146
  599poe    c23 5020   4.723   5.624   1.004 -0.3230 -0.2625 -0.1435
  599poe     o2 5021   4.765   5.688   1.122  0.0164  0.4456 -0.6469
  599poe    c23 5022   4.677   5.784   1.175  0.1759  0.2454 -0.0008
  599poe    c23 5023   4.623   5.746   1.314  0.1435  0.2148 -0.0218
  599poe     o2 5024   4.574   5.615   1.294  0.2161  0.1333  0.3385
  599poe    c23 5025   4.453   5.597   1.364 -0.1122  0.0487 -0.2467
  599poe    c23 5026   4.396   5.462   1.317  0.4394 -0.3671  0.2710
  599poe     o2 5027   4.504   5.372   1.312  0.6217 -0.1683  0.6045
  599poe    c31 5028   4.457   5.252   1.254  0.6408  0.1551 -0.0830
  600poe    c31 5029   0.359   1.997   1.324  0.0054  0.0483  0.2089
  600poe     o2 5030   0.499   2.015   1.334 -0.0277  0.3398  0.1641
  600poe    c23 5031   0.539   2.069   1.458  0.5259  0.1191  0.0854
  600poe    c23 5032   0.690   2.047   1.478  0.6083  0.6360  0.0481
  600poe     o2 5033   0.741   2.079   1.351  0.0400  0.2728 -0.2762
  600poe    c23 5034   0.881   2.060   1.360  0.0654  0.7235  0.3457
  600poe    c23 5035   0.956   2.050   1.225 -0.0091 -0.7588  0.4011
  600poe     o2 5036   0.893   1.942   1.159 -0.0652 -0.3456 -0.2253
  600poe    c23 5037   0.993   1.861   1.100 -0.0706 -0.7726  0.3406
  600poe    c23 5038   0.966   1.833   0.951 -0.3610 -0.4439  0.3301
  600poe     o2 5039   0.934   1.955   0.887  0.0157 -0.3504  0.3197
  600poe    c31 5040   0.892   1.936   0.754 -0.2877  0.4273  0.2980
  601poe    c31 5041   5.688   4.474   6.119  0.8112 -0.2877 -0.2258
  601poe     o2 5042   5.664   4.607   6.159  0.8872 -0.0813 -0.8440
  601poe    c23 5043   5.726   4.625   6.285 -1.0007 -0.3069  0.1573
  601poe    c23 5044   5.674   4.761   6.336 -0.5381 -0.0017 -0.1784
  601poe     o2 5045   5.717   4.857   6.243  0.0337  0.2108  0.2959
  601poe    c23 5046   5.652   4.982   6.257  0.4644  0.5431 -0.5969
  601poe    c23 5047   5.544   4.989   6.146 -0.1518 -0.3509 -0.0702
  601poe     o2 5048   5.578   4.906   6.038 -0.4223  0.3830 -0.7294
  601poe    c23 5049   5.478   4.889   5.940 -0.5158  0.0850 -0.5862
  601poe    c23 5050   5.535   4.807   5.823 -0.4652 -0.2353 -0.3391
  601poe     o2 5051   5.581   4.695   5.894 -0.1553 -0.0461 -0.2426
  601poe    c31 5052   5.618   4.596   5.801 -0.4889 -0.2361 -0.1744
  602poe    c31 5053   5.583   1.855   5.197  0.6600 -1.1410 -0.1708
  602poe     o2 5054   5.584   1.907   5.328  0.9021 -0.2630 -0.5121
  602poe    c23 5055   5.538   1.818   5.427  0.8738  0.3724  0.0520
  602poe    c23 5056   5.503   1.884   5.562 -0.0098  0.2290 -0.0994
  602poe     o2 5057   5.432   2.002   5.529 -0.2538 -0.0244 -0.4893
  602poe    c23 5058   5.432   2.097   5.633 -0.5040 -0.5346 -0.0150
  602poe    c23 5059   5.359   2.224   5.585 -0.3344 -0.3999  0.0852
  602poe     o2 5060   5.421   2.279   5.471 -1.2364 -0.4937 -0.4571
  602poe    c23 5061   5.368   2.401   5.425  0.0372  0.4131  0.4228
  602poe    c23 5062   5.438   2.465   5.303  0.3013 -0.0415  0.3366
  602poe     o2 5063   5.413   2.394   5.184 -0.0357 -0.1702  0.4837
  602poe    c31 5064   5.451   2.467   5.070 -0.2467 -0.8787 -0.0471
  603poe    c31 5065   2.066   6.210   2.001  0.3180  0.3736  0.1793
  603poe     o2 5066   1.954   6.236   2.083  0.5276  0.6472  0.3822
  603poe    c23 5067   1.890   6.343   2.017  0.1332  0.2176  0.0608
  603poe    c23 5068   1.788   6.395   2.121 -0.4286 -0.6376 -0.0531
  603poe     o2 5069   1.741   6.275   2.179 -0.3679 -0.5521  0.1709
  603poe    c23 5070   1.650   6.291   2.285 -0.3764  0.1283  0.0695
  603poe    c23 5071   1.615   6.147   2.330 -0.2511  0.2914  0.6999
  603poe     o2 5072   1.740   6.083   2.323 -0.4357  0.0030 -0.0551
  603poe    c23 5073   1.746   5.944   2.345 -0.2352 -0.0009 -0.1345
  603poe    c23 5074   1.896   5.909   2.340 -0.0759  0.6438  0.0260
  603poe     o2 5075   1.953   5.973   2.228  0.4359  0.4841  0.1947
  603poe    c31 5076   2.075   5.908   2.197  0.1986  0.0684  0.1207
  604poe    c31 5077   3.959   1.182   0.093 -0.5173 -0.5578  0.2617
  604poe     o2 5078   3.986   1.309   0.148 -0.3162 -0.3393 -0.3312
  604poe    c23 5079   3.899   1.403   0.089 -0.2927 -0.0568  0.0782
  604poe    c23 5080   3.917   1.535   0.167  0.0173 -0.2514  0.3385
  604poe     o2 5081   4.053   1.561   0.194  0.0354  0.1408 -0.1232
  604poe    c23 5082   4.078   1.644   0.306 -0.7989 -0.1279  0.2709
  604poe    c23 5083   4.074   1.574   0.443 -0.3607 -0.8594 -0.0820
  604poe     o2 5084   4.146   1.458   0.407  0.3840 -0.4568  0.0848
  604poe    c23 5085   4.128   1.375   0.520  0.2389 -0.4898  0.0370
  604poe    c23 5086   4.201   1.243   0.488  0.0821 -0.4645 -0.4353
  604poe     o2 5087   4.171   1.216   0.353 -0.2300  0.0461 -0.4716
  604poe    c31 5088   4.213   1.086   0.318 -0.3409 -0.1634  0.1609
  605poe    c31 5089   6.398   4.398   6.019  0.1013  0.3673 -0.1935
  605poe     o2 5090   6.265   4.411   5.974  0.0479 -0.6125 -0.3452
  605poe    c23 5091   6.175   4.344   6.059 -0.2690 -0.0228 -0.2049
  605poe    c23 5092   6.044   4.340   5.980 -0.2118  0.4153 -0.3211
  605poe     o2 5093   6.081   4.313   5.846  0.1857  0.8001 -0.2921
  605poe    c23 5094   5.974   4.330   5.756 -0.3580 -0.1705  0.1497
  605poe    c23 5095   6.026   4.360   5.614 -0.1825 -0.3915  0.1681
  605poe     o2 5096   6.126   4.453   5.651 -0.1552 -0.3344 -0.0526
  605poe    c23 5097   6.196   4.516   5.546  0.5535 -0.8630  0.0980
  605poe    c23 5098   6.303   4.607   5.611 -0.0864 -0.3267  0.4166
  605poe     o2 5099   6.375   4.529   5.703  0.4332 -0.3935 -0.0416
  605poe    c31 5100   6.493   4.590   5.753  0.2670 -0.5562  0.5635
  606poe    c31 5101   2.255   2.024   2.908  0.0179 -0.1777 -0.6680
  606poe     o2 5102   2.303   2.115   2.812  0.2924  0.0882 -0.2833
  606poe    c23 5103   2.279   2.056   2.686 -0.4594 -0.2884  0.0303
  606poe    c23 5104   2.406   2.091   2.605 -0.5038  0.3638  0.2339
  606poe     o2 5105   2.405   2.231   2.620 -0.1109  0.3700  0.1965
  606poe    c23 5106   2.511   2.291   2.549 -0.0918  0.1998  0.0825
  606poe    c23 5107   2.465   2.436   2.568 -0.4779  0.1242 -0.2542
  606poe     o2 5108   2.442   2.455   2.706 -0.7715  0.0215 -0.2880
  606poe    c23 5109   2.381   2.582   2.721 -0.4292  0.1863 -0.2883
  606poe    c23 5110   2.313   2.556   2.857  0.1148  0.2054 -0.0095
  606poe     o2 5111   2.261   2.425   2.868 -0.6713  0.5110 -0.0346
  606poe    c31 5112   2.145   2.418   2.948 -0.2834  0.8848  0.5683
  607poe    c31 5113   2.313   3.986   1.201 -0.5764  0.2009  0.2548
  607poe     o2 5114   2.304   3.851   1.162  0.3381  0.1891  0.0555
  607poe    c23 5115   2.430   3.787   1.160  0.1448 -0.1997  0.1754
  607poe    c23 5116   2.458   3.646   1.107 -0.2882 -0.2669  0.1256
  607poe     o2 5117   2.418   3.629   0.973  0.1732  0.0866 -0.0574
  607poe    c23 5118   2.525   3.578   0.896  0.0249 -0.1325 -0.1191
  607poe    c23 5119   2.487   3.566   0.748 -0.0088 -0.3154 -0.0963
  607poe     o2 5120   2.357   3.512   0.734 -0.1570  0.0516 -0.1412
  607poe    c23 5121   2.320   3.518   0.598  0.1570 -0.4218 -0.2489
  607poe    c23 5122   2.173   3.471   0.597  0.0128  0.0234 -0.1067
  607poe     o2 5123   2.114   3.535   0.708  0.0387 -0.3148  0.1025
  607poe    c31 5124   1.980   3.490   0.716 -0.0897 -0.0130 -0.3206
  608poe    c31 5125   2.860   3.599   4.648 -0.1563 -0.1042 -0.0626
  608poe     o2 5126   2.939   3.486   4.621  0.0104 -0.0000 -0.0069
  608poe    c23 5127   2.866   3.376   4.573 -0.4366  0.2584  0.0729
  608poe    c23 5128   2.967   3.269   4.525 -0.2870  0.3144  0.2615
  608poe     o2 5129   3.024   3.339   4.417 -0.0190  0.2329  0.3494
  608poe    c23 5130   3.133   3.263   4.370 -0.2085  0.2324 -0.0928
  608poe    c23 5131   3.177   3.308   4.229 -0.3684 -0.0256 -0.2257
  608poe     o2 5132   3.221   3.442   4.242  0.4933 -0.3087 -0.0964
  608poe    c23 5133   3.268   3.480   4.115 -0.0868 -0.1547 -0.2694
  608poe    c23 5134   3.301   3.628   4.142  0.0878 -0.2677  0.1413
  608poe     o2 5135   3.204   3.684   4.229  0.6156 -0.0012  0.5641
  608poe    c31 5136   3.186   3.823   4.223 -1.2516 -0.2329  0.3505
  609poe    c31 5137   3.918   6.233   2.948  0.1891 -0.1789  0.0825
  609poe     o2 5138   3.828   6.336   2.982 -0.2839 -0.4622 -0.2997
  609poe    c23 5139   3.717   6.332   2.895 -0.5720  0.0529  0.0414
  609poe    c23 5140   3.606   6.420   2.955 -0.5743  0.0061  0.1065
  609poe     o2 5141   3.626   6.559   2.944  0.5009 -0.2058 -0.7733
  609poe    c23 5142   3.567   6.603   2.824 -0.2287 -0.4658 -0.5137
  609poe    c23 5143   3.557   6.757   2.819  0.7134 -0.3618  0.4475
  609poe     o2 5144   3.673   6.798   2.887  0.4295 -0.3530  0.9250
  609poe    c23 5145   3.715   6.928   2.852  0.1401 -0.6074 -0.3903
  609poe    c23 5146   3.857   6.952   2.906  0.0476 -0.3965 -0.2399
  609poe     o2 5147   3.867   6.877   3.026  0.1275 -0.2582 -0.1612
  609poe    c31 5148   3.978   6.925   3.100 -0.2921  0.0701  0.2614
  610poe    c31 5149   5.948   2.826   3.565  0.5371 -0.2701  0.3386
  610poe     o2 5150   5.850   2.732   3.527  0.1639  0.4002 -0.3874
  610poe    c23 5151   5.806   2.769   3.398  0.0176  0.1050 -0.4241
  610poe    c23 5152   5.734   2.644   3.344  0.3497 -0.3080  0.0812
  610poe     o2 5153   5.642   2.610   3.446 -0.4021  0.2020 -0.4193
  610poe    c23 5154   5.563   2.503   3.402 -0.3552 -0.0725  0.1583
  610poe    c23 5155   5.462   2.467   3.513  0.2801 -0.6835  0.5415
  610poe     o2 5156   5.516   2.462   3.644 -0.1088 -0.0444  0.7300
  610poe    c23 5157   5.502   2.337   3.707  0.2285 -0.1747  0.5465
  610poe    c23 5158   5.562   2.316   3.847  0.1288 -0.5322  0.5370
  610poe     o2 5159   5.494   2.408   3.930  0.1428 -0.1040  0.0739
  610poe    c31 5160   5.533   2.392   4.064 -0.1674 -0.0812  0.1674
  611poe    c31 5161   6.592   0.648   4.851 -0.0039 -0.2495  0.8053
  611poe     o2 5162   6.608   0.578   4.972  0.2325 -0.3160  0.7344
  611poe    c23 5163   6.557   0.448   4.952 -0.3649  0.0022  0.1466
  611poe    c23 5164   6.507   0.390   5.086 -0.1213  0.2923  0.3629
  611poe     o2 5165   6.622   0.386   5.168  0.0291 -0.0410  0.1354
  611poe    c23 5166   6.581   0.387   5.302 -0.1818  0.0758  0.0694
  611poe    c23 5167   6.684   0.482   5.365 -0.4538  0.2009  0.3317
  611poe     o2 5168   6.674   0.599   5.288 -0.5717  0.2664  0.4483
  611poe    c23 5169   6.742   0.709   5.345  0.1332  0.2890 -0.4343
  611poe    c23 5170   6.740   0.822   5.241 -0.0772  0.6050 -0.0860
  611poe     o2 5171   6.759   0.774   5.110  0.0116  0.1610  0.0879
  611poe    c31 5172   6.823   0.874   5.034  0.1242 -0.3754 -0.5407
  612poe    c31 5173   3.762   5.085   3.769 -0.1722  0.1483 -0.2773
  612poe     o2 5174   3.807   4.954   3.795 -0.4296  0.0964 -0.0953
  612poe    c23 5175   3.784   4.934   3.932 -0.2981 -0.4926 -0.1538
  612poe    c23 5176   3.870   4.817   3.982  0.1308 -0.2736 -0.3755
  612poe     o2 5177   3.839   4.705   3.902 -0.1696 -0.3136 -0.2074
  612poe    c23 5178   3.931   4.604   3.936 -0.4868 -0.4923  0.1174
  612poe    c23 5179   3.972   4.532   3.806  0.0186 -0.0786  0.0465
  612poe     o2 5180   4.017   4.631   3.715  0.2219 -0.5286 -0.3476
  612poe    c23 5181   4.151   4.668   3.739 -0.0996  0.0442  0.6263
  612poe    c23 5182   4.174   4.797   3.657 -0.2280 -0.2153  0.1782
  612poe     o2 5183   4.064   4.876   3.695 -0.3489 -0.1252 -0.3628
  612poe    c31 5184   4.099   5.010   3.664 -0.4406  0.0033  0.0877
  613poe    c31 5185   5.319   3.832   6.691 -0.2047 -0.2244  0.1879
  613poe     o2 5186   5.236   3.719   6.673 -0.3596 -0.1011  0.1180
  613poe    c23 5187   5.317   3.630   6.598 -0.2091  0.1619 -0.0308
  613poe    c23 5188   5.221   3.540   6.518  0.0527 -0.3403  0.2241
  613poe     o2 5189   5.113   3.499   6.599  0.0943 -0.5245  0.1869
  613poe    c23 5190   5.028   3.399   6.547 -0.3495  0.1058 -0.3166
  613poe    c23 5191   4.915   3.370   6.647 -0.0492 -0.1064 -0.0333
  613poe     o2 5192   4.844   3.489   6.674  0.1309  0.0003 -0.0252
  613poe    c23 5193   4.739   3.479   6.768 -0.0038  0.6664 -0.0941
  613poe    c23 5194   4.626   3.378   6.742  0.3659  0.2602 -0.1488
  613poe     o2 5195   4.530   3.390   6.639  0.0141 -0.3741  0.0930
  613poe    c31 5196   4.427   3.296   6.658 -0.3179 -0.1311 -0.4749
  614poe    c31 5197   6.415   0.921   4.114  0.5237 -0.1437 -0.6260
  614poe     o2 5198   6.487   0.913   4.235  0.1009 -0.4888 -0.3987
  614poe    c23 5199   6.569   1.026   4.246 -0.5457 -0.0320 -0.2082
  614poe    c23 5200   6.650   1.000   4.375  0.4838  0.1610 -0.7991
  614poe     o2 5201   6.548   0.957   4.463  0.4472  0.4949 -0.6790
  614poe    c23 5202   6.555   0.989   4.600  0.6312 -0.5362 -0.4421
  614poe    c23 5203   6.412   0.971   4.652  0.4466  0.2344 -0.6785
  614poe     o2 5204   6.368   0.861   4.576 -0.3894 -0.0162  0.1427
  614poe    c23 5205   6.231   0.838   4.600 -0.4110 -0.3946 -0.3284
  614poe    c23 5206   6.166   0.744   4.497 -0.1674 -0.6977 -0.2098
  614poe     o2 5207   6.213   0.776   4.368  0.3925 -0.8729 -0.0500
  614poe    c31 5208   6.126   0.726   4.270 -0.5410  0.2696  0.1687
  615poe    c31 5209   1.345   1.807   3.870 -0.2007  0.0636 -0.7187
  615poe     o2 5210   1.342   1.936   3.814 -0.0864  0.2746 -0.2359
  615poe    c23 5211   1.369   2.039   3.908  0.1833  0.1275 -0.1516
  615poe    c23 5212   1.399   2.166   3.826 -0.1775  0.0996 -0.3297
  615poe     o2 5213   1.277   2.220   3.781 -0.3318 -0.0038 -0.0379
  615poe    c23 5214   1.308   2.341   3.716 -0.3920 -0.0505 -0.1538
  615poe    c23 5215   1.181   2.411   3.664 -0.4383  0.1388  0.2062
  615poe     o2 5216   1.110   2.311   3.595  0.2371 -0.1343 -0.1037
  615poe    c23 5217   0.989   2.368   3.551  0.2048 -0.2481 -0.1622
  615poe    c23 5218   0.897   2.247   3.521  0.1179 -0.2506  0.1157
  615poe     o2 5219   0.905   2.161   3.632 -0.3054 -0.2444  0.1495
  615poe    c31 5220   0.805   2.064   3.605 -0.1911 -0.1679 -0.5620
  616poe    c31 5221   3.323   1.261   2.263 -0.0599  0.1886 -0.3738
  616poe     o2 5222   3.384   1.134   2.276  0.0705  0.1911 -0.8959
  616poe    c23 5223   3.463   1.144   2.393 -0.2547 -0.3019 -0.6297
  616poe    c23 5224   3.580   1.044   2.390  0.0919  0.0772  0.0567
  616poe     o2 5225   3.533   0.912   2.374 -0.0402  0.1585 -0.2337
  616poe    c23 5226   3.609   0.840   2.280 -0.1119 -0.2585  0.0251
  616poe    c23 5227   3.522   0.749   2.191 -0.2128  0.3989 -0.5545
  616poe     o2 5228   3.421   0.834   2.143 -0.5329  0.0810 -0.4470
  616poe    c23 5229   3.306   0.763   2.100 -0.3867 -0.4567  0.0383
  616poe    c23 5230   3.214   0.862   2.027  0.0275 -0.0983 -0.0021
  616poe     o2 5231   3.202   0.976   2.110  0.0277 -0.4966  0.5476
  616poe    c31 5232   3.071   1.026   2.100  0.1302 -0.2903  0.1887
  617poe    c31 5233   2.553   2.854   0.015 -0.4351 -0.2217 -0.3501
  617poe     o2 5234   2.609   2.894  -0.107  0.4617 -0.0243  0.1234
  617poe    c23 5235   2.532   2.835  -0.209  0.5929  0.4540 -0.2621
  617poe    c23 5236   2.543   2.932  -0.328 -0.0270  0.1263 -0.5908
  617poe     o2 5237   2.684   2.940  -0.338  0.0710 -0.2017  0.3806
  617poe    c23 5238   2.727   3.029  -0.439 -0.4191 -0.4042 -0.0154
  617poe    c23 5239   2.753   3.166  -0.373  0.0057 -0.3061 -0.3808
  617poe     o2 5240   2.820   3.122  -0.257 -0.0490 -0.1037 -0.2716
  617poe    c23 5241   2.893   3.216  -0.182 -0.3071 -0.0440 -0.0954
  617poe    c23 5242   2.944   3.125  -0.069  0.2518 -0.0978 -0.3892
  617poe     o2 5243   2.843   3.043  -0.015  0.5455 -0.0439  0.2538
  617poe    c31 5244   2.858   2.983   0.112 -0.1574 -0.7261  0.0186
  618poe    c31 5245   3.273   4.861   2.275 -0.0090 -0.2131 -0.7123
  618poe     o2 5246   3.152   4.789   2.270 -0.2358 -0.0253  1.2228
  618poe    c23 5247   3.159   4.678   2.357  0.7959 -0.5636  0.4753
  618poe    c23 5248   3.033   4.599   2.314  0.3532  0.5825 -0.3818
  618poe     o2 5249   2.914   4.674   2.304  0.1353  0.2548 -0.2453
  618poe    c23 5250   2.801   4.593   2.277  0.3921 -0.0254 -0.4954
  618poe    c23 5251   2.676   4.683   2.263  0.0997 -0.3400  0.0760
  618poe     o2 5252   2.707   4.775   2.161 -0.2391  0.0541  0.3284
  618poe    c23 5253   2.589   4.847   2.133 -0.3677 -0.0554  0.5830
  618poe    c23 5254   2.615   4.943   2.015  0.0371  0.1951  0.8718
  618poe     o2 5255   2.710   5.035   2.061  0.3084  0.1200  0.4657
  618poe    c31 5256   2.771   5.099   1.951 -0.5150 -0.0800 -0.1161
  619poe    c31 5257   3.133   3.057   0.457 -0.4111  0.3216 -0.1558
  619poe     o2 5258   3.080   3.085   0.584 -0.2752 -0.0419 -0.0153
  619poe    c23 5259   2.940   3.087   0.567 -0.2284 -0.0315 -0.4009
  619poe    c23 5260   2.875   3.063   0.704  0.5411 -0.2660 -0.0745
  619poe     o2 5261   2.960   3.141   0.785 -0.2412  0.6646 -0.1306
  619poe    c23 5262   2.929   3.138   0.923  0.0897 -0.2710 -0.0707
  619poe    c23 5263   3.053   3.176   1.005 -0.0705 -0.1800  0.1277
  619poe     o2 5264   3.158   3.101   0.948  0.2168  0.2977  0.0124
  619poe    c23 5265   3.280   3.148   1.001  0.2296  0.6572 -0.3299
  619poe    c23 5266   3.388   3.133   0.892  0.7454  0.1908  0.2350
  619poe     o2 5267   3.324   3.139   0.767  0.6032 -0.1607  0.2901
  619poe    c31 5268   3.415   3.170   0.664  0.1042 -0.9583 -0.3963
  620poe    c31 5269   4.199   0.323   6.567  0.3810 -0.3076  0.4231
  620poe     o2 5270   4.083   0.299   6.644 -0.0775 -0.3631 -0.2727
  620poe    c23 5271   4.018   0.179   6.610  0.1595 -0.4354 -0.4763
  620poe    c23 5272   3.889   0.167   6.694  0.5057  0.2307  0.1571
  620poe     o2 5273   3.930   0.198   6.825 -0.2765 -0.1494  0.4925
  620poe    c23 5274   3.825   0.217   6.918 -0.8232  0.0886 -0.1624
  620poe    c23 5275   3.881   0.193   7.060 -0.3356  0.1664 -0.3376
  620poe     o2 5276   3.988   0.281   7.084 -0.0376 -0.2895  0.0189
  620poe    c23 5277   4.055   0.260   7.206  0.1331 -0.3970 -0.0935
  620poe    c23 5278   4.172   0.358   7.224 -0.3287  0.0804  0.2950
  620poe     o2 5279   4.275   0.342   7.130 -0.5254 -0.1534  0.1184
  620poe    c31 5280   4.369   0.444   7.157 -0.2763 -0.3386 -0.0385
  621poe    c31 5281   5.444   5.949   2.700 -0.1293 -0.4375 -0.0458
  621poe     o2 5282   5.443   6.022   2.820  0.4201  0.0027 -0.3031
  621poe    c23 5283   5.312   6.040   2.869  0.6468  0.3215  0.1997
  621poe    c23 5284   5.314   6.080   3.018 -0.0397  0.1719  0.2517
  621poe     o2 5285   5.407   6.184   3.037 -0.1604  0.3934 -0.3438
  621poe    c23 5286   5.471   6.195   3.162  0.3405  0.2053 -0.5827
  621poe    c23 5287   5.604   6.265   3.128  0.8273 -0.2469  0.3594
  621poe     o2 5288   5.668   6.176   3.039 -0.0283 -0.3226 -0.1900
  621poe    c23 5289   5.793   6.228   2.999 -0.3553  0.1540 -0.6072
  621poe    c23 5290   5.839   6.131   2.888  0.2641 -0.5610  0.2659
  621poe     o2 5291   5.739   6.099   2.794 -0.3326  0.1047  0.6630
  621poe    c31 5292   5.798   6.036   2.683 -0.3177  0.1923  0.6206
  622poe    c31 5293   0.832   3.648   1.541  0.4384  0.1317  0.1974
  622poe     o2 5294   0.842   3.508   1.526  0.0090  0.0880  0.3107
  622poe    c23 5295   0.719   3.454   1.483 -0.2543  0.4092  0.6591
  622poe    c23 5296   0.713   3.301   1.474 -0.1879  0.4491 -0.2174
  622poe     o2 5297   0.726   3.257   1.608 -0.0095 -0.1453 -0.4256
  622poe    c23 5298   0.729   3.116   1.607  0.0611 -0.1482  0.0210
  622poe    c23 5299   0.747   3.059   1.749 -0.2618 -0.0726  0.0942
  622poe     o2 5300   0.872   3.096   1.802  0.0491 -0.0332 -0.6458
  622poe    c23 5301   0.911   3.004   1.902 -0.4743  0.1978 -0.2218
  622poe    c23 5302   1.052   3.037   1.955 -0.3230  0.2029 -0.6257
  622poe     o2 5303   1.058   3.176   1.972 -0.1822  0.1777 -0.4753
  622poe    c31 5304   1.190   3.214   2.004 -0.2454  0.1129 -0.1242
  623poe    c31 5305   0.958   4.864   1.512 -0.6259  0.2401  0.1692
  623poe     o2 5306   1.051   4.929   1.429 -0.6798  0.4121  0.2409
  623poe    c23 5307   0.994   4.986   1.313  0.1433  0.4855 -0.1382
  623poe    c23 5308   1.102   5.033   1.214  0.2232  0.1494 -0.2088
  623poe     o2 5309   1.210   4.948   1.246 -0.4522 -0.5622  0.2226
  623poe    c23 5310   1.316   4.973   1.156 -0.6504 -0.7180 -0.0576
  623poe    c23 5311   1.413   4.854   1.157  0.2030 -0.0427 -0.4380
  623poe     o2 5312   1.465   4.842   1.288 -0.0413 -0.0257 -0.3389
  623poe    c23 5313   1.560   4.738   1.297 -0.4451 -0.3359  0.3828
  623poe    c23 5314   1.607   4.729   1.443  0.2139 -0.3069  0.1726
  623poe     o2 5315   1.507   4.686   1.532 -0.1396  0.3607  0.1072
  623poe    c31 5316   1.573   4.644   1.649  0.1433 -0.7952 -0.4510
  624poe    c31 5317   3.229   5.971   2.219 -0.0330  0.4025  0.1922
  624poe     o2 5318   3.129   5.872   2.227  0.2923  0.0186 -0.3924
  624poe    c23 5319   3.033   5.901   2.127 -0.5301  0.3221  0.4709
  624poe    c23 5320   2.921   5.795   2.132 -0.0687 -0.1966 -0.1076
  624poe     o2 5321   2.989   5.671   2.138 -0.0999 -0.1895  0.4853
  624poe    c23 5322   2.902   5.567   2.173  0.1983 -0.5477  0.1715
  624poe    c23 5323   2.908   5.549   2.326  0.0151 -0.3730  0.1999
  624poe     o2 5324   3.036   5.588   2.369 -0.1010  0.3867 -0.1242
  624poe    c23 5325   3.051   5.583   2.509 -0.3945 -0.1445 -0.1066
  624poe    c23 5326   3.201   5.603   2.537 -0.4895 -0.0217  0.3265
  624poe     o2 5327   3.248   5.677   2.427  0.1900 -0.1576  0.5177
  624poe    c31 5328   3.387   5.687   2.444  0.2376  0.7040 -0.2549
  625poe    c31 5329   5.810   5.218   0.059 -0.4900  1.2194 -0.3491
  625poe     o2 5330   5.880   5.340   0.056  0.3419  0.7670  0.2174
  625poe    c23 5331   5.835   5.408  -0.059  0.2798 -0.2076 -0.3433
  625poe    c23 5332   5.900   5.547  -0.070 -0.0871 -0.0125 -0.0738
  625poe     o2 5333   5.926   5.577   0.065  0.6133 -0.1161 -0.1770
  625poe    c23 5334   5.943   5.715   0.090 -0.6599  0.0300 -0.0042
  625poe    c23 5335   6.013   5.722   0.227 -0.0384 -0.0495 -0.3117
  625poe     o2 5336   5.940   5.643   0.318 -0.3536  0.6406  0.0414
  625poe    c23 5337   6.010   5.594   0.430  0.2266  0.2618 -0.4777
  625poe    c23 5338   6.100   5.473   0.398 -0.1237 -0.2393  0.3934
  625poe     o2 5339   6.021   5.380   0.326  0.2514  0.0722 -0.4302
  625poe    c31 5340   6.054   5.243   0.329  0.2037  0.0663 -0.1467
  626poe    c31 5341   5.644   1.658   3.560 -0.4577  0.7106  0.1076
  626poe     o2 5342   5.597   1.674   3.692 -0.0171  0.0104  0.3553
  626poe    c23 5343   5.697   1.731   3.773  0.1792 -0.3156  0.3431
  626poe    c23 5344   5.626   1.781   3.900 -0.0071 -0.6003  0.3522
  626poe     o2 5345   5.554   1.673   3.957  0.1821 -0.7759  0.2564
  626poe    c23 5346   5.480   1.723   4.066  0.4061  0.0954  0.0203
  626poe    c23 5347   5.378   1.610   4.095 -0.1462  0.4836 -0.3796
  626poe     o2 5348   5.326   1.550   3.978  0.4302 -0.4017 -0.1912
  626poe    c23 5349   5.229   1.630   3.916  0.2557 -0.5948 -0.1675
  626poe    c23 5350   5.198   1.561   3.782  0.0175 -0.4671 -0.1800
  626poe     o2 5351   5.317   1.579   3.707 -0.2109 -0.2261 -0.4871
  626poe    c31 5352   5.298   1.518   3.581 -0.0176  0.3815 -0.8127
  627poe    c31 5353   0.943   1.931   6.278  0.5179  0.1875  0.1235
  627poe     o2 5354   0.818   1.994   6.262  0.3694 -0.0360  0.3709
  627poe    c23 5355   0.836   2.108   6.181  0.2100  0.2627  0.7527
  627poe    c23 5356   0.720   2.206   6.210 -0.2349 -0.1093  0.2564
  627poe     o2 5357   0.599   2.134   6.216 -0.2058 -0.2063 -0.3072
  627poe    c23 5358   0.512   2.200   6.306 -0.2315 -0.1222 -0.3936
  627poe    c23 5359   0.383   2.118   6.325 -0.0892 -0.2397  0.0723
  627poe     o2 5360   0.420   1.990   6.370  0.4205  0.0792  0.5809
  627poe    c23 5361   0.309   1.924   6.427  0.0949  0.0903 -0.0296
  627poe    c23 5362   0.286   1.924   6.579 -0.2685  0.6705 -0.0848
  627poe     o2 5363   0.153   1.892   6.614 -0.0958  0.0961  0.0506
  627poe    c31 5364   0.138   1.890   6.754 -0.2838 -0.0599  0.0290
  628poe    c31 5365   0.374   2.790   2.279 -0.7629 -0.3465  0.4128
  628poe     o2 5366   0.412   2.919   2.319  0.2084 -0.3766 -0.3835
  628poe    c23 5367   0.458   3.004   2.216  0.1346 -0.2018 -0.2741
  628poe    c23 5368   0.517   3.138   2.264 -0.3255  0.0703 -0.4623
  628poe     o2 5369   0.421   3.179   2.358 -0.1789  0.0786 -0.3148
  628poe    c23 5370   0.447   3.303   2.421 -0.5982 -0.3059  0.6369
  628poe    c23 5371   0.336   3.350   2.516 -0.8681 -0.2830  0.3121
  628poe     o2 5372   0.319   3.243   2.607  0.6325 -0.3041  0.6015
  628poe    c23 5373   0.199   3.256   2.680  0.0358  0.1333 -0.4207
  628poe    c23 5374   0.218   3.173   2.809  0.2610  0.1850 -0.4209
  628poe     o2 5375   0.244   3.035   2.796 -0.2337  0.0236  0.2530
  628poe    c31 5376   0.127   2.958   2.815 -0.2557 -0.1763 -0.6234
  629poe    c31 5377   5.367   5.343   2.609  0.1289 -0.0537  0.4375
  629poe     o2 5378   5.311   5.258   2.512  0.1092  0.0331  0.3735
  629poe    c23 5379   5.392   5.269   2.397 -0.5305 -0.1120 -0.0991
  629poe    c23 5380   5.341   5.171   2.290  0.2066 -0.2751 -0.3089
  629poe     o2 5381   5.200   5.173   2.294  0.2351 -0.1352  0.7438
  629poe    c23 5382   5.137   5.067   2.226 -0.3904  0.4610  0.3724
  629poe    c23 5383   4.992   5.104   2.260 -0.5972 -0.0955  0.1136
  629poe     o2 5384   4.988   5.123   2.400  0.0820  0.3319  0.0804
  629poe    c23 5385   4.863   5.146   2.462 -0.3573  0.2994 -0.7835
  629poe    c23 5386   4.898   5.176   2.609  0.1526 -0.0541 -0.8296
  629poe     o2 5387   5.011   5.259   2.603  0.2385 -0.1393 -0.3630
  629poe    c31 5388   5.056   5.259   2.737  0.0238 -0.2971 -0.2909
  630poe    c31 5389   3.262   6.375   5.207  0.1257  0.2127 -0.0814
  630poe     o2 5390   3.382   6.346   5.140  0.0327 -0.1929 -0.0729
  630poe    c23 5391   3.464   6.456   5.108  0.0663 -0.1542  0.1520
  630poe    c23 5392   3.611   6.422   5.142  0.3458  0.7912 -0.0831
  630poe     o2 5393   3.669   6.348   5.037 -0.0316  0.2870  0.0598
  630poe    c23 5394   3.801   6.301   5.053  0.0142  0.3201 -0.2056
  630poe    c23 5395   3.842   6.216   4.931 -0.4190 -0.1520 -0.0263
  630poe     o2 5396   3.754   6.109   4.904 -0.5190 -0.0616 -0.0622
  630poe    c23 5397   3.807   6.040   4.793  0.2548  0.0070  0.2594
  630poe    c23 5398   3.718   5.917   4.771  0.0633  0.1992 -0.0458
  630poe     o2 5399   3.590   5.953   4.723  0.0194 -0.1806 -0.2169
  630poe    c31 5400   3.514   5.845   4.674 -0.2171  0.0201 -0.2926
  631poe    c31 5401   0.699   6.601   2.256  0.5826  0.3390 -0.0354
  631poe     o2 5402   0.789   6.583   2.364 -0.1921 -0.5235  0.4852
  631poe    c23 5403   0.729   6.512   2.470 -0.1491 -0.5554  0.4881
  631poe    c23 5404   0.838   6.510   2.579  0.3742 -0.5275 -0.0289
  631poe     o2 5405   0.906   6.631   2.558 -0.1006 -0.1955  0.3344
  631poe    c23 5406   1.019   6.651   2.641  0.0448 -0.4568  0.1988
  631poe    c23 5407   1.064   6.792   2.599  0.1678 -0.5416  0.0415
  631poe     o2 5408   1.061   6.798   2.458 -0.8644  0.2839  0.0870
  631poe    c23 5409   1.082   6.930   2.413 -0.2209  0.0422 -0.3264
  631poe    c23 5410   1.067   6.929   2.259 -0.3543  0.0263 -0.3134
  631poe     o2 5411   0.954   6.850   2.229 -0.1023 -0.2709 -0.4930
  631poe    c31 5412   0.929   6.863   2.091 -0.4137  0.1079 -0.4040
  632poe    c31 5413   4.839   5.597   6.338  0.3904 -0.3196 -0.3149
  632poe     o2 5414   4.840   5.462   6.380 -0.2323 -0.2003  0.1057
  632poe    c23 5415   4.774   5.375   6.291 -0.4134  0.0525 -0.0099
  632poe    c23 5416   4.763   5.235   6.355  0.3547  0.2029  0.4661
  632poe     o2 5417   4.883   5.175   6.398  0.2881 -0.0022  0.3624
  632poe    c23 5418   4.854   5.045   6.445 -0.0704 -0.0907 -0.0879
  632poe    c23 5419   4.991   4.975   6.449 -0.3865 -0.6935  0.3596
  632poe     o2 5420   5.078   5.061   6.520 -0.2642 -0.6043  0.1029
  632poe    c23 5421   5.207   5.007   6.534  0.1014  0.0656 -0.6034
  632poe    c23 5422   5.296   5.101   6.619 -0.4433 -0.2097  0.2854
  632poe     o2 5423   5.287   5.228   6.560  0.6091 -0.0826  0.3786
  632poe    c31 5424   5.391   5.321   6.581  0.4054  0.2072  0.1311
  633poe    c31 5425   0.703   5.008   1.818  0.1145 -0.0959  0.0247
  633poe     o2 5426   0.582   4.939   1.804 -0.0004  0.0756  0.1685
  633poe    c23 5427   0.592   4.801   1.832 -0.3007  0.0145 -0.0137
  633poe    c23 5428   0.482   4.718   1.763 -0.3669  0.4126 -0.3895
  633poe     o2 5429   0.372   4.805   1.757 -0.3329  0.4711 -0.1640
  633poe    c23 5430   0.252   4.764   1.695 -0.0512 -0.0530 -0.3647
  633poe    c23 5431   0.157   4.884   1.718  0.0749  0.0449 -0.3501
  633poe     o2 5432   0.222   5.000   1.671  0.1777  0.1520  0.0539
  633poe    c23 5433   0.156   5.119   1.705 -0.5338 -0.1078 -0.3879
  633poe    c23 5434   0.257   5.236   1.696 -0.5902  0.0241  0.5725
  633poe     o2 5435   0.375   5.183   1.754 -0.1728 -0.0334 -0.3117
  633poe    c31 5436   0.457   5.297   1.766 -0.1990 -0.0315 -0.1528
  634poe    c31 5437   0.690   4.672   6.089  0.3120  0.5028 -1.1718
  634poe     o2 5438   0.726   4.710   6.219  0.1563 -0.9081 -0.6940
  634poe    c23 5439   0.853   4.772   6.220 -0.4376  0.3404 -0.0684
  634poe    c23 5440   0.855   4.859   6.347  0.1713 -0.1186  0.2377
  634poe     o2 5441   0.809   4.784   6.458  0.2160 -0.0794  0.2833
  634poe    c23 5442   0.798   4.862   6.575 -0.2771  0.3156 -0.0234
  634poe    c23 5443   0.749   4.785   6.699 -0.3922  0.8735  0.2799
  634poe     o2 5444   0.641   4.705   6.655  0.1443  0.2505  0.0718
  634poe    c23 5445   0.564   4.676   6.769  0.4732  0.1103  0.2585
  634poe    c23 5446   0.444   4.592   6.720  0.4010  0.4247 -0.1068
  634poe     o2 5447   0.352   4.667   6.644  0.1887  0.1201 -0.1495
  634poe    c31 5448   0.268   4.568   6.590 -0.0791  0.3476 -0.1506
  635poe    c31 5449   3.064   5.825   1.111  0.1616  1.0829 -0.4116
  635poe     o2 5450   3.024   5.795   0.980  0.0536  0.0064 -0.1454
  635poe    c23 5451   3.119   5.835   0.883  0.0478 -0.1227 -0.2041
  635poe    c23 5452   3.094   5.759   0.751  0.3455 -0.0235 -0.3173
  635poe     o2 5453   3.071   5.629   0.802 -0.0964  0.3231  0.3877
  635poe    c23 5454   3.098   5.531   0.705  0.2412  0.0907  0.7160
  635poe    c23 5455   3.047   5.392   0.748 -0.4344  0.0519 -0.1730
  635poe     o2 5456   2.909   5.409   0.772 -0.3542  0.7145 -0.1485
  635poe    c23 5457   2.836   5.289   0.784  0.0747  0.4343 -0.2824
  635poe    c23 5458   2.686   5.298   0.750  0.0266  0.5563 -0.0420
  635poe     o2 5459   2.659   5.331   0.615 -0.8229 -0.3268 -0.1015
  635poe    c31 5460   2.525   5.363   0.587 -0.8886 -0.4777  0.0380
  636poe    c31 5461   4.943   0.862   6.685 -0.2041  0.2593 -0.2101
  636poe     o2 5462   4.984   0.890   6.817 -0.1985 -0.1941 -0.1144
  636poe    c23 5463   4.931   0.797   6.909 -0.6260  0.1723  0.0092
  636poe    c23 5464   4.979   0.815   7.054 -0.4453  0.1559 -0.0491
  636poe     o2 5465   4.948   0.927   7.134  0.0852  0.4995 -0.3162
  636poe    c23 5466   5.009   0.891   7.255 -0.1420 -0.0177 -0.3514
  636poe    c23 5467   5.057   1.016   7.332 -0.1247 -0.2130 -0.0421
  636poe     o2 5468   4.943   1.098   7.341  0.1512  0.1783 -0.1116
  636poe    c23 5469   4.962   1.214   7.420  0.2813 -0.0268  0.1589
  636poe    c23 5470   4.831   1.295   7.419  0.2456 -0.0842  0.1344
  636poe     o2 5471   4.789   1.292   7.284  0.2996  0.2810  0.1068
  636poe    c31 5472   4.671   1.369   7.275 -0.0556 -0.3326 -0.6033
  637poe    c31 5473   6.216   0.679   1.809 -0.2113  0.3610  0.0848
  637poe     o2 5474   6.327   0.592   1.797 -0.5773 -0.2889  1.2837
  637poe    c23 5475   6.434   0.648   1.869 -0.0140  0.0069  0.2252
  637poe    c23 5476   6.558   0.582   1.805 -0.2893  0.2390 -0.5610
  637poe     o2 5477   6.535   0.445   1.830 -0.0337  0.2547 -0.2344
  637poe    c23 5478   6.634   0.375   1.756  0.1563  0.4030 -0.1214
  637poe    c23 5479   6.577   0.236   1.721  0.5565  0.1600  0.1838
  637poe     o2 5480   6.467   0.284   1.647  0.2533 -0.3116  0.3279
  637poe    c23 5481   6.375   0.179   1.629 -0.2816  0.1630  0.2421
  637poe    c23 5482   6.252   0.252   1.574 -0.0083  0.1173 -0.4418
  637poe     o2 5483   6.211   0.337   1.679 -0.3286 -0.2298 -0.2832
  637poe    c31 5484   6.083   0.381   1.640 -0.3976 -0.0829  0.1026
  638poe    c31 5485   0.540   3.010   2.965  0.1164 -0.1540  0.0101
  638poe     o2 5486   0.505   3.012   3.101 -0.0804 -0.0129 -0.0417
  638poe    c23 5487   0.549   2.905   3.181  0.5375  0.2819  0.0166
  638poe    c23 5488   0.490   2.912   3.323 -0.0718  0.0774 -0.2260
  638poe     o2 5489   0.481   3.050   3.346 -0.0652  0.0437 -0.0204
  638poe    c23 5490   0.426   3.082   3.472  0.0712  0.0195  0.0461
  638poe    c23 5491   0.445   3.235   3.480 -0.1293  0.0572 -0.1747
  638poe     o2 5492   0.423   3.292   3.353 -0.5846  0.0354 -0.1062
  638poe    c23 5493   0.377   3.424   3.375  0.1000  0.3141 -0.3354
  638poe    c23 5494   0.380   3.498   3.239  0.7470 -0.1119 -0.5600
  638poe     o2 5495   0.295   3.433   3.148  0.3013 -0.5811  0.1730
  638poe    c31 5496   0.297   3.504   3.026 -0.0288 -0.9825 -0.0702
  639poe    c31 5497   0.226   0.598   0.965  0.1864  0.4095  0.5070
  639poe     o2 5498   0.138   0.654   0.870 -0.1597 -0.6058  0.2104
  639poe    c23 5499   0.015   0.674   0.935 -0.1621  0.1475 -0.0172
  639poe    c23 5500  -0.083   0.772   0.867 -0.0818  0.2398 -0.0006
  639poe     o2 5501  -0.020   0.897   0.856 -0.4926  0.4202 -0.3335
  639poe    c23 5502  -0.125   0.989   0.836 -0.5360  0.4681  0.1052
  639poe    c23 5503  -0.079   1.096   0.736  0.5438  0.0786  0.1733
  639poe     o2 5504  -0.039   1.034   0.615  0.2601  0.3107 -0.0404
  639poe    c23 5505  -0.008   1.130   0.516  0.1985  0.0824 -0.2818
  639poe    c23 5506   0.016   1.056   0.384 -0.5968 -0.3084 -0.2157
  639poe     o2 5507   0.102   0.953   0.426 -0.0630  0.1790 -0.1027
  639poe    c31 5508   0.185   0.920   0.317  0.0467  0.8299 -0.2204
  640poe    c31 5509   2.331   3.218   4.441  0.3080  0.0944 -0.6880
  640poe     o2 5510   2.205   3.280   4.431  0.2771  0.1181 -0.1698
  640poe    c23 5511   2.116   3.208   4.348  0.0950  0.7826 -0.5622
  640poe    c23 5512   1.979   3.275   4.329 -0.1872  0.4211  0.1570
  640poe     o2 5513   1.874   3.286   4.423 -0.4783  0.3199 -0.1549
  640poe    c23 5514   1.910   3.355   4.540 -0.2078 -0.0248 -0.0335
  640poe    c23 5515   1.822   3.296   4.653 -0.2844  0.2858  0.0703
  640poe     o2 5516   1.686   3.310   4.617 -0.2270  0.3339 -0.1318
  640poe    c23 5517   1.610   3.206   4.674 -0.2264  0.4558  0.0903
  640poe    c23 5518   1.479   3.208   4.593  0.0245  0.1292 -0.3244
  640poe     o2 5519   1.513   3.145   4.472 -0.0044 -0.8455  0.1581
  640poe    c31 5520   1.409   3.092   4.393  0.2185  0.3116 -0.9605
  641poe    c31 5521   5.327   3.872   3.973 -0.5639  0.3909 -0.0339
  641poe     o2 5522   5.196   3.858   3.922 -0.6656 -0.1804  0.3616
  641poe    c23 5523   5.189   3.723   3.885  0.0127  0.0200 -0.5396
  641poe    c23 5524   5.055   3.664   3.836  0.2522 -0.3132 -0.8020
  641poe     o2 5525   4.984   3.769   3.775  0.0533  0.1273  0.1604
  641poe    c23 5526   4.845   3.746   3.788  0.1282 -0.2291  0.3328
  641poe    c23 5527   4.770   3.877   3.758  0.3480 -0.2938 -0.5298
  641poe     o2 5528   4.844   3.993   3.788 -0.0321 -0.2242  0.1478
  641poe    c23 5529   4.762   4.105   3.812 -0.2356 -0.4466  0.5034
  641poe    c23 5530   4.824   4.232   3.751  0.0960 -0.9106 -0.1324
  641poe     o2 5531   4.952   4.254   3.807 -0.0499  0.0267 -0.1482
  641poe    c31 5532   5.032   4.353   3.747  0.3982 -0.3894 -0.2453
  642poe    c31 5533   4.133   5.159   0.853 -0.2266  0.4273  0.2114
  642poe     o2 5534   4.020   5.232   0.809 -0.2558 -0.0242 -0.4902
  642poe    c23 5535   3.928   5.246   0.915  0.1560  0.3716 -0.1780
  642poe    c23 5536   3.783   5.262   0.866 -0.0332 -0.6172  0.0321
  642poe     o2 5537   3.787   5.355   0.760 -0.7292  0.0687  0.5939
  642poe    c23 5538   3.667   5.369   0.687 -0.4336 -0.2433  0.0415
  642poe    c23 5539   3.705   5.409   0.543 -0.6833  0.2713  0.1184
  642poe     o2 5540   3.830   5.351   0.515 -0.6241  0.3530  0.2154
  642poe    c23 5541   3.896   5.405   0.403 -0.3725 -0.6733 -0.1372
  642poe    c23 5542   4.024   5.320   0.393  0.1598  0.1017  0.0522
  642poe     o2 5543   4.074   5.291   0.521 -0.0630 -0.3449  0.0400
  642poe    c31 5544   4.162   5.182   0.511  0.2902 -0.0649  0.0560
  643poe    c31 5545   3.543   3.999   0.482 -0.0435 -0.1436  0.2866
  643poe     o2 5546   3.561   4.036   0.347  0.1447 -0.3402  0.2559
  643poe    c23 5547   3.481   3.961   0.258  0.2376 -0.1751  0.0356
  643poe    c23 5548   3.515   4.009   0.115  0.1705 -0.6786 -0.1490
  643poe     o2 5549   3.516   4.150   0.121  0.4010 -0.6882  0.0318
  643poe    c23 5550   3.551   4.212  -0.001 -0.7731 -0.1134 -0.0220
  643poe    c23 5551   3.584   4.359   0.028 -0.4494 -0.2033  0.0774
  643poe     o2 5552   3.674   4.347   0.135 -0.1721  0.1433 -0.1164
  643poe    c23 5553   3.723   4.463   0.200  0.1594 -0.1686  0.1950
  643poe    c23 5554   3.783   4.427   0.337 -0.1104  0.2934  0.4366
  643poe     o2 5555   3.687   4.336   0.387 -0.0583  0.0623  0.1254
  643poe    c31 5556   3.727   4.293   0.515 -0.0569 -0.3764 -0.0229
  644poe    c31 5557   3.480   0.615   4.286  0.2196 -0.3496  0.1406
  644poe     o2 5558   3.506   0.753   4.280  0.4247 -0.4107 -0.4350
  644poe    c23 5559   3.604   0.783   4.376  0.1046  0.0890 -0.2581
  644poe    c23 5560   3.653   0.928   4.355 -0.2962  0.3497  0.5498
  644poe     o2 5561   3.540   1.004   4.318 -0.1595  0.0235 -0.5835
  644poe    c23 5562   3.558   1.138   4.279 -0.1910  0.2060  0.0167
  644poe    c23 5563   3.426   1.165   4.204  0.1792 -0.6208 -0.9563
  644poe     o2 5564   3.389   1.048   4.133 -0.4292 -0.9145 -0.1691
  644poe    c23 5565   3.401   1.070   3.995 -0.2225  0.5480  0.0621
  644poe    c23 5566   3.365   0.928   3.949  0.7153  0.3141  0.0330
  644poe     o2 5567   3.421   0.821   4.021  0.2999 -0.1642 -0.3438
  644poe    c31 5568   3.414   0.704   3.943 -0.0403 -0.1816 -0.2895
  645poe    c31 5569   4.418   0.208   3.247  0.3631 -0.3554  0.4364
  645poe     o2 5570   4.484   0.291   3.341 -0.6566  0.1281  0.7357
  645poe    c23 5571   4.585   0.366   3.278 -0.2483 -0.5771  0.5335
  645poe    c23 5572   4.653   0.469   3.371  0.2458 -0.1289 -0.3133
  645poe     o2 5573   4.574   0.565   3.437  0.4013 -0.2235  0.0099
  645poe    c23 5574   4.665   0.634   3.520 -0.2576  0.1156  0.4550
  645poe    c23 5575   4.585   0.751   3.581  0.3421  0.1965  1.1019
  645poe     o2 5576   4.473   0.687   3.638 -0.2139  0.1314 -0.0424
  645poe    c23 5577   4.395   0.769   3.722  0.1015  0.5318 -0.1330
  645poe    c23 5578   4.250   0.725   3.691  0.1792 -0.2124  0.5134
  645poe     o2 5579   4.247   0.589   3.656  0.0925 -0.0989  0.0796
  645poe    c31 5580   4.115   0.545   3.632  0.2360 -0.6416  0.2769
  646poe    c31 5581   5.178   3.908   6.258 -0.1330 -0.2485  0.5125
  646poe     o2 5582   5.125   3.812   6.347 -0.5265 -0.1338  0.4032
  646poe    c23 5583   4.990   3.851   6.362 -0.3986  0.3056  0.4424
  646poe    c23 5584   4.924   3.753   6.461  0.3623 -0.7851 -0.1069
  646poe     o2 5585   4.976   3.761   6.592 -0.4029 -0.0331  0.1594
  646poe    c23 5586   4.933   3.867   6.674  0.3901  0.3375  0.0997
  646poe    c23 5587   4.925   3.823   6.822 -0.2068  0.3040  0.0581
  646poe     o2 5588   5.024   3.725   6.843  0.0798  0.6333  0.2457
  646poe    c23 5589   5.028   3.685   6.978 -0.5881 -0.2905  0.0021
  646poe    c23 5590   5.129   3.570   6.990 -0.2072  0.0571  0.1798
  646poe     o2 5591   5.093   3.453   6.919  0.3641  0.0961 -0.1756
  646poe    c31 5592   5.189   3.349   6.921  0.1530 -0.0880  0.3873
  647poe    c31 5593   1.427   4.858   2.102  0.1623 -0.0509  0.4593
  647poe     o2 5594   1.451   4.994   2.071  0.0856 -0.2800 -0.6403
  647poe    c23 5595   1.357   5.073   2.140  0.3263 -0.6453  0.1212
  647poe    c23 5596   1.424   5.211   2.151  0.4055 -0.6440 -0.3463
  647poe     o2 5597   1.480   5.241   2.025  0.4416  0.1283 -0.1497
  647poe    c23 5598   1.517   5.376   2.011  0.3377  0.1419 -0.2921
  647poe    c23 5599   1.584   5.401   1.875 -0.2455  0.1367 -0.5800
  647poe     o2 5600   1.695   5.316   1.854  0.0502  0.3256  0.2006
  647poe    c23 5601   1.731   5.294   1.719  0.0702 -0.0720  0.2723
  647poe    c23 5602   1.865   5.219   1.709 -0.2197 -0.5561 -0.0553
  647poe     o2 5603   1.862   5.082   1.741  0.3715 -0.5510  0.0312
  647poe    c31 5604   1.965   5.009   1.677  0.4101 -0.5624  0.1059
  648poe    c31 5605   3.498   0.606   6.155 -0.1322  0.1043 -0.8782
  648poe     o2 5606   3.371   0.666   6.164 -0.1766 -0.1489  0.3819
  648poe    c23 5607   3.364   0.744   6.281 -0.0014 -0.1177  0.3709
  648poe    c23 5608   3.333   0.892   6.253 -0.2948 -0.2542 -0.0213
  648poe     o2 5609   3.218   0.881   6.171 -0.6417 -0.1638  0.4501
  648poe    c23 5610   3.182   0.995   6.098 -0.6382 -0.4978 -0.0768
  648poe    c23 5611   3.084   0.962   5.984 -0.3602 -0.2413 -0.3941
  648poe     o2 5612   3.141   0.851   5.918  0.1212 -0.1167 -0.1839
  648poe    c23 5613   3.044   0.781   5.845 -0.0912 -0.3036  0.2746
  648poe    c23 5614   3.098   0.639   5.817 -0.4451 -0.3544 -0.1784
  648poe     o2 5615   3.149   0.594   5.941  0.2551  0.3588 -0.1970
  648poe    c31 5616   3.180   0.457   5.949 -0.2144  0.2479 -0.2433
  649poe    c31 5617   1.225   1.875   5.664  0.1409 -0.4659 -0.7814
  649poe     o2 5618   1.186   1.994   5.598  0.1609  0.0371  0.1013
  649poe    c23 5619   1.062   1.978   5.533  0.3591  0.8505 -0.4848
  649poe    c23 5620   1.017   2.125   5.521  0.3362  0.8806 -0.0481
  649poe     o2 5621   1.132   2.198   5.487  0.6634  0.6482  0.5401
  649poe    c23 5622   1.098   2.335   5.499 -0.7140  0.3448  0.2459
  649poe    c23 5623   1.214   2.424   5.452 -0.0804 -0.5303  0.1123
  649poe     o2 5624   1.329   2.380   5.521  0.1005 -0.0732  0.1104
  649poe    c23 5625   1.438   2.469   5.526 -0.1126  0.1790  0.2438
  649poe    c23 5626   1.525   2.440   5.650 -0.0800 -0.1281  0.1489
  649poe     o2 5627   1.586   2.313   5.641 -0.2318 -0.2114  0.2852
  649poe    c31 5628   1.666   2.282   5.753  0.0242  0.3099  0.2505
  650poe    c31 5629   0.087   0.490   3.662  0.3720 -0.2532  0.4452
  650poe     o2 5630  -0.005   0.401   3.604  0.4917 -0.0301 -0.0968
  650poe    c23 5631   0.003   0.279   3.674 -0.2503 -0.0423 -0.0235
  650poe    c23 5632  -0.027   0.165   3.574  0.4995  0.2677 -0.6112
  650poe     o2 5633  -0.147   0.199   3.509  0.2763 -0.0085 -0.3434
  650poe    c23 5634  -0.165   0.113   3.399  0.3930 -0.2974 -0.1387
  650poe    c23 5635  -0.262   0.189   3.307  0.3597  0.0928  0.2167
  650poe     o2 5636  -0.231   0.325   3.328  0.4449  0.1001  0.0459
  650poe    c23 5637  -0.324   0.417   3.275  0.5203  0.2713  0.2109
  650poe    c23 5638  -0.266   0.549   3.330  0.0626  0.5463  0.0372
  650poe     o2 5639  -0.229   0.529   3.465  0.0341  0.3520  0.0161
  650poe    c31 5640  -0.210   0.653   3.527 -0.2840  0.2523  0.3153
  651poe    c31 5641   5.292   3.996   1.181  0.0182  0.7037 -0.0512
  651poe     o2 5642   5.319   4.055   1.056 -0.2954 -0.4599 -0.6826
  651poe    c23 5643   5.445   4.006   1.016 -0.0233 -0.2426 -0.1053
  651poe    c23 5644   5.525   4.118   0.947  0.4649 -0.4697  0.0808
  651poe     o2 5645   5.439   4.203   0.873  0.3620 -0.4152  0.2623
  651poe    c23 5646   5.503   4.326   0.852 -0.1874 -0.2296 -0.3603
  651poe    c23 5647   5.402   4.418   0.781 -0.1618  0.2981  0.2750
  651poe     o2 5648   5.295   4.419   0.872 -0.3621 -0.3314  0.0566
  651poe    c23 5649   5.190   4.496   0.817 -0.0916  0.1169  0.1556
  651poe    c23 5650   5.124   4.572   0.933 -0.2438  0.5884 -0.2375
  651poe     o2 5651   4.989   4.611   0.925 -0.4237 -0.0708 -0.5393
  651poe    c31 5652   4.971   4.746   0.962 -0.4585 -0.2178 -0.0119
  652poe    c31 5653   1.898   1.434   5.934  0.0867 -0.2777 -0.2747
  652poe     o2 5654   2.037   1.446   5.915  0.0398  0.4492 -0.2028
  652poe    c23 5655   2.082   1.450   5.781  0.0596 -0.0833 -0.2158
  652poe    c23 5656   2.207   1.360   5.786  0.3903  0.3749 -0.1458
  652poe     o2 5657   2.280   1.399   5.900  0.0073  0.1520  0.1806
  652poe    c23 5658   2.398   1.323   5.903 -0.1959 -0.1548  0.4153
  652poe    c23 5659   2.467   1.348   6.038  0.0761 -0.0805  0.2639
  652poe     o2 5660   2.371   1.332   6.140  0.0708  0.0100  0.2737
  652poe    c23 5661   2.431   1.373   6.261  0.5302 -0.4276  0.1966
  652poe    c23 5662   2.332   1.338   6.373 -0.3073 -0.2825 -0.4888
  652poe     o2 5663   2.215   1.417   6.376 -0.0150  0.1318  0.0152
  652poe    c31 5664   2.158   1.383   6.500 -0.4587  0.1605 -0.1815
  653poe    c31 5665   6.364   2.899   0.261  0.5864 -0.1569  0.0783
  653poe     o2 5666   6.332   3.014   0.335  0.2876 -0.5292  0.5360
  653poe    c23 5667   6.193   3.029   0.352  0.3627  0.1540  0.6067
  653poe    c23 5668   6.152   3.176   0.334  0.0648 -0.0083 -0.0817
  653poe     o2 5669   6.236   3.246   0.423 -0.1730 -0.0045  0.1375
  653poe    c23 5670   6.244   3.386   0.405  0.0400 -0.0792 -0.3567
  653poe    c23 5671   6.313   3.449   0.527 -0.1149 -0.0937 -0.2615
  653poe     o2 5672   6.445   3.400   0.519  0.0604  0.2678  0.3080
  653poe    c23 5673   6.549   3.472   0.581  0.1518  0.2284  0.2027
  653poe    c23 5674   6.681   3.392   0.582 -0.0165 -0.0547 -0.0852
  653poe     o2 5675   6.657   3.253   0.582 -0.3247 -0.0035  0.2479
  653poe    c31 5676   6.768   3.189   0.642  0.2018  0.4209 -0.2575
  654poe    c31 5677   0.582   2.351   2.259  0.2385  0.5109 -0.2653
  654poe     o2 5678   0.576   2.394   2.126 -0.3309  0.6002 -0.2126
  654poe    c23 5679   0.507   2.292   2.058 -0.0694  0.4697 -0.2826
  654poe    c23 5680   0.537   2.318   1.909 -0.0285 -0.0643 -0.3707
  654poe     o2 5681   0.668   2.359   1.878 -0.0526  0.6274  0.3969
  654poe    c23 5682   0.692   2.464   1.787  0.0430 -0.2406 -0.6047
  654poe    c23 5683   0.839   2.509   1.783  0.0714 -0.2432  0.1566
  654poe     o2 5684   0.892   2.497   1.913 -0.0047  0.1806  0.2294
  654poe    c23 5685   1.017   2.562   1.912 -0.0634  0.2880 -0.1783
  654poe    c23 5686   1.100   2.575   2.041  0.1058  0.6319 -0.3204
  654poe     o2 5687   1.052   2.670   2.134  0.5418  0.7441 -0.2102
  654poe    c31 5688   1.139   2.673   2.245  0.4860  0.0900 -0.1472
  655poe    c31 5689   4.607   2.184   0.997  0.4425  0.0491 -0.0213
  655poe     o2 5690   4.688   2.281   0.933 -0.2771  0.2465 -0.6432
  655poe    c23 5691   4.765   2.221   0.832  0.1920  0.0028 -0.1476
  655poe    c23 5692   4.882   2.310   0.787 -0.1236  0.3933 -0.1991
  655poe     o2 5693   4.958   2.360   0.895 -0.1379  0.0070 -0.0088
  655poe    c23 5694   5.072   2.427   0.846  0.2448 -0.2738  0.4840
  655poe    c23 5695   5.162   2.492   0.953  0.1545  0.1470  0.3051
  655poe     o2 5696   5.066   2.562   1.029 -0.3751 -0.1518 -0.0817
  655poe    c23 5697   5.131   2.645   1.122 -0.3340 -0.0555 -0.1969
  655poe    c23 5698   5.039   2.685   1.238  0.1190 -0.6050  0.3577
  655poe     o2 5699   4.950   2.577   1.256 -0.0599 -0.5422 -0.1548
  655poe    c31 5700   4.907   2.578   1.390  0.1214 -0.3782 -0.0963
  656poe    c31 5701   0.081   0.233   5.801  0.1341  0.1730 -0.1692
  656poe     o2 5702  -0.032   0.185   5.870  0.2667 -0.1155 -0.1500
  656poe    c23 5703  -0.112   0.300   5.886 -0.0425 -0.2925 -0.4012
  656poe    c23 5704  -0.135   0.305   6.038 -0.5714  0.0754 -0.4941
  656poe     o2 5705  -0.203   0.185   6.067 -0.4613 -0.0340 -0.6925
  656poe    c23 5706  -0.203   0.169   6.207  0.9788  0.6333 -0.5943
  656poe    c23 5707  -0.214   0.016   6.222 -0.2316  0.7942  0.3346
  656poe     o2 5708  -0.142  -0.037   6.112  0.1138 -0.0057  0.9312
  656poe    c23 5709  -0.124  -0.176   6.106  0.3070  0.0268  0.7835
  656poe    c23 5710  -0.007  -0.207   6.010 -0.2969  0.2392 -0.0346
  656poe     o2 5711   0.001  -0.100   5.918  0.3559 -0.1064 -0.3818
  656poe    c31 5712   0.086  -0.127   5.809  0.2632 -0.2104 -0.4284
  657poe    c31 5713   2.805   6.292   2.940 -0.3059  0.0868 -0.5433
  657poe     o2 5714   2.829   6.412   3.009  0.3254 -0.3705  0.0406
  657poe    c23 5715   2.896   6.501   2.923 -0.0722  0.0238  0.1354
  657poe    c23 5716   2.894   6.637   2.994 -0.1638  0.2372 -0.2698
  657poe     o2 5717   2.931   6.608   3.127  0.1234  0.0379 -0.3939
  657poe    c23 5718   2.982   6.716   3.203  0.2838 -0.2444 -0.0956
  657poe    c23 5719   3.001   6.659   3.344  0.6243  0.1717  0.0265
  657poe     o2 5720   2.887   6.590   3.389  0.4831  0.3255 -0.0950
  657poe    c23 5721   2.919   6.536   3.515 -0.0126 -0.2874 -0.2264
  657poe    c23 5722   2.794   6.463   3.567  0.0326 -0.1689  0.0533
  657poe     o2 5723   2.753   6.356   3.484 -0.1906  0.0126 -0.0720
  657poe    c31 5724   2.635   6.301   3.538 -0.0443 -0.1417  0.0908
  658poe    c31 5725   0.319   1.215   3.720 -0.1929 -0.4749 -0.1434
  658poe     o2 5726   0.348   1.142   3.603 -0.0000 -0.5690 -0.0375
  658poe    c23 5727   0.244   1.147   3.508 -0.2803  0.0369  0.2947
  658poe    c23 5728   0.239   1.004   3.450  0.0003 -0.0418  0.4653
  658poe     o2 5729   0.373   0.971   3.420 -0.0777 -0.0567  0.1318
  658poe    c23 5730   0.393   0.836   3.384  0.1317  0.1092 -0.3791
  658poe    c23 5731   0.543   0.811   3.406 -0.0284 -0.2229  0.3676
  658poe     o2 5732   0.564   0.849   3.540 -0.5354  0.1128  0.3545
  658poe    c23 5733   0.703   0.865   3.564 -0.3588 -0.0596 -0.5187
  658poe    c23 5734   0.730   0.945   3.693 -1.0233 -0.6942  0.0276
  658poe     o2 5735   0.641   1.053   3.706 -0.0830  0.0821  0.1316
  658poe    c31 5736   0.704   1.153   3.783 -0.1040  0.0470  0.1945
  659poe    c31 5737   4.094   0.045   1.213 -0.0627  0.5529 -0.1042
  659poe     o2 5738   3.989  -0.007   1.292  0.0724  0.5383  0.0661
  659poe    c23 5739   3.914  -0.102   1.220 -0.0464  0.1157  0.7391
  659poe    c23 5740   3.778  -0.137   1.285 -0.1142 -0.4056  0.3185
  659poe     o2 5741   3.819  -0.159   1.418  0.2602 -0.4132  0.2051
  659poe    c23 5742   3.723  -0.160   1.521 -0.1613  0.1835 -0.1742
  659poe    c23 5743   3.815  -0.163   1.645 -0.0297  0.7461 -0.2555
  659poe     o2 5744   3.896  -0.049   1.630  0.2453  0.6191  0.2625
  659poe    c23 5745   3.985  -0.024   1.737 -0.4757  0.4850  0.8989
  659poe    c23 5746   4.066   0.098   1.691  0.2589 -0.2339  0.2547
  659poe     o2 5747   4.081   0.088   1.551 -0.2279  0.0831  0.1765
  659poe    c31 5748   4.144   0.204   1.501  0.4669 -0.2792  0.2001
  660poe    c31 5749   4.458   0.126   1.321  0.2231  0.0451  0.1242
  660poe     o2 5750   4.545   0.017   1.344  0.1611 -0.0149  0.0739
  660poe    c23 5751   4.612   0.027   1.468  0.2706 -0.1824  0.0282
  660poe    c23 5752   4.664  -0.115   1.499 -0.1278 -0.2775  0.2632
  660poe     o2 5753   4.724  -0.147   1.376 -0.0358  0.1842  0.1833
  660poe    c23 5754   4.748  -0.286   1.381  0.3388  0.2323 -0.2287
  660poe    c23 5755   4.791  -0.332   1.240  0.7597  0.5548 -0.2065
  660poe     o2 5756   4.714  -0.260   1.147  0.3025 -0.1158 -0.3529
  660poe    c23 5757   4.794  -0.215   1.041  0.1345 -0.4414 -0.6176
  660poe    c23 5758   4.721  -0.089   0.993 -0.0036 -0.2572  0.0739
  660poe     o2 5759   4.683  -0.010   1.104  0.5868 -0.0768  0.1502
  660poe    c31 5760   4.691   0.124   1.059  0.3655 -0.0895  0.0698
  661poe    c31 5761   1.752   5.416   6.067 -0.2154 -0.2917 -0.5581
  661poe     o2 5762   1.742   5.275   6.061  0.0389 -0.3452  0.1733
  661poe    c23 5763   1.609   5.237   6.036  0.1018 -0.1481 -0.4771
  661poe    c23 5764   1.599   5.084   6.049  0.1122 -0.0891  0.2330
  661poe     o2 5765   1.718   5.038   5.989  0.0185  0.2745 -0.2401
  661poe    c23 5766   1.735   4.900   6.014 -0.8908  0.2241  0.1445
  661poe    c23 5767   1.870   4.856   5.955 -0.5845  0.1866  0.8607
  661poe     o2 5768   1.965   4.951   5.998  0.1294  0.0086 -0.2807
  661poe    c23 5769   2.066   4.957   5.900 -0.1243 -0.2993 -0.5655
  661poe    c23 5770   2.124   5.100   5.893 -0.1292 -0.2633  0.0632
  661poe     o2 5771   2.008   5.179   5.900 -0.2496 -0.4514  0.2040
  661poe    c31 5772   2.030   5.301   5.832 -0.1585 -0.7240 -0.2575
  662poe    c31 5773   5.701   5.096   4.026 -0.0426  0.3438 -0.1134
  662poe     o2 5774   5.822   5.162   4.055  0.4429 -0.7101  0.3087
  662poe    c23 5775   5.872   5.203   3.930 -0.0199 -0.4107  0.2197
  662poe    c23 5776   5.996   5.291   3.956  0.1256 -0.3677 -0.5762
  662poe     o2 5777   6.073   5.228   4.056 -0.2396  0.3742  0.1778
  662poe    c23 5778   6.179   5.300   4.114 -0.2046  0.3336  0.1632
  662poe    c23 5779   6.222   5.202   4.225  0.2562  0.1587 -0.1653
  662poe     o2 5780   6.097   5.178   4.285  0.2753  0.4056 -0.0265
  662poe    c23 5781   6.097   5.076   4.382 -0.3945  0.4295  0.0068
  662poe    c23 5782   5.956   5.074   4.444 -0.4663 -0.3874 -0.1683
  662poe     o2 5783   5.861   5.094   4.342 -0.1052  0.3896 -0.3619
  662poe    c31 5784   5.732   5.106   4.397  0.0513  0.3695  0.0119
  663poe    c31 5785   4.343   2.938   0.474  0.3105 -0.1482  0.4035
  663poe     o2 5786   4.231   3.019   0.502  0.1359 -0.2716  0.0799
  663poe    c23 5787   4.210   3.121   0.407  0.4918 -0.3720 -0.1075
  663poe    c23 5788   4.091   3.214   0.435  0.4281 -0.5697  0.2845
  663poe     o2 5789   3.969   3.145   0.422  0.1174  0.1706 -0.9669
  663poe    c23 5790   3.848   3.215   0.440  0.0486 -0.1725 -0.0373
  663poe    c23 5791   3.718   3.138   0.412 -0.2778  0.2182  0.3768
  663poe     o2 5792   3.725   3.009   0.469 -0.2766  0.0115 -0.0895
  663poe    c23 5793   3.620   2.925   0.426 -0.2193  0.0222 -0.2502
  663poe    c23 5794   3.667   2.786   0.470  0.1467  0.1179 -0.3349
  663poe     o2 5795   3.806   2.779   0.447  0.1482 -0.1559 -0.2497
  663poe    c31 5796   3.838   2.645   0.475 -0.1226  0.0346  1.0843
  664poe    c31 5797   1.775   3.070   3.363 -0.1179  0.3605  0.2628
  664poe     o2 5798   1.648   3.122   3.397 -0.2761  0.0902  0.0927
  664poe    c23 5799   1.677   3.234   3.478  0.0543  0.3093 -0.3227
  664poe    c23 5800   1.557   3.261   3.571  0.1565 -0.3967  0.0132
  664poe     o2 5801   1.456   3.269   3.474  0.1503  0.1218  0.0613
  664poe    c23 5802   1.332   3.303   3.533 -0.2318 -0.1855 -0.5425
  664poe    c23 5803   1.225   3.284   3.425 -0.8530  0.1485  0.0092
  664poe     o2 5804   1.271   3.165   3.365 -0.4534  0.1813  0.2496
  664poe    c23 5805   1.208   3.137   3.242 -0.1016 -0.5712  0.2398
  664poe    c23 5806   1.285   3.008   3.207 -0.1290 -0.4833 -0.1530
  664poe     o2 5807   1.424   3.027   3.194 -0.0944 -0.0784  0.7427
  664poe    c31 5808   1.481   2.928   3.112 -0.1149 -0.1114  0.7681
  665poe    c31 5809   2.118   0.700   4.068 -0.0520  0.0862 -0.1359
  665poe     o2 5810   2.059   0.575   4.038 -0.1708  0.2384 -0.5399
  665poe    c23 5811   1.984   0.538   4.151  0.2938 -0.0052 -0.3094
  665poe    c23 5812   1.913   0.408   4.107 -0.5730  0.3822 -0.0911
  665poe     o2 5813   2.000   0.318   4.042 -0.5300  0.5499 -0.2652
  665poe    c23 5814   1.937   0.197   4.004 -0.3472  0.3261  0.1448
  665poe    c23 5815   2.038   0.108   3.929 -0.2595  0.3590  0.2237
  665poe     o2 5816   2.094   0.182   3.824 -0.0845 -0.1035 -0.0143
  665poe    c23 5817   2.206   0.113   3.773 -0.3939 -0.7654  0.1913
  665poe    c23 5818   2.244   0.166   3.633  0.2653 -0.1557  0.5895
  665poe     o2 5819   2.278   0.302   3.638  0.7095 -0.2476  0.1338
  665poe    c31 5820   2.329   0.344   3.514  0.3807  0.0103  0.0836
  666poe    c31 5821   0.088   5.417   4.382  0.1204  0.0145 -0.0652
  666poe     o2 5822   0.047   5.289   4.425  0.2416  0.0131  0.0429
  666poe    c23 5823   0.006   5.209   4.317  0.7494 -0.2976  0.0768
  666poe    c23 5824  -0.024   5.074   4.385  0.1670 -0.5653 -0.6982
  666poe     o2 5825   0.090   5.036   4.460  0.1126 -0.3693 -0.5185
  666poe    c23 5826   0.070   4.921   4.539  0.1079 -0.1483 -0.1922
  666poe    c23 5827   0.151   4.937   4.668 -0.2331  0.3385 -0.0362
  666poe     o2 5828   0.111   5.065   4.712 -0.2077  0.4901 -0.4513
  666poe    c23 5829   0.189   5.099   4.825 -0.0979  0.2122 -0.4408
  666poe    c23 5830   0.158   5.247   4.857 -0.0455  0.1645 -0.1689
  666poe     o2 5831   0.149   5.320   4.737  0.2363  0.1770 -0.1818
  666poe    c31 5832   0.124   5.454   4.774 -0.0196  0.1518 -0.2596
  667poe    c31 5833   1.675   0.810   2.613  0.5176  0.2737 -0.1995
  667poe     o2 5834   1.676   0.728   2.728  0.2880  0.0200 -0.3756
  667poe    c23 5835   1.803   0.667   2.734  0.5236  0.5633  0.5444
  667poe    c23 5836   1.796   0.543   2.826 -0.2319  0.2084  0.0174
  667poe     o2 5837   1.729   0.586   2.943  0.4958  0.1309  0.4635
  667poe    c23 5838   1.665   0.486   3.018  0.2622  0.1394  0.2771
  667poe    c23 5839   1.558   0.558   3.103  0.2303  0.5314 -0.0937
  667poe     o2 5840   1.494   0.646   3.013  0.2702  0.1575 -0.4909
  667poe    c23 5841   1.419   0.744   3.081  0.1550 -0.2625 -0.0086
  667poe    c23 5842   1.363   0.840   2.975  0.1147 -0.0726  0.1839
  667poe     o2 5843   1.468   0.872   2.886 -0.1496 -0.2051 -0.1798
  667poe    c31 5844   1.427   0.993   2.827 -0.1255 -0.0076  0.2014
  668poe    c31 5845   5.474   6.114   5.967  0.6978  0.2951 -0.0015
  668poe     o2 5846   5.481   6.029   6.079 -0.0125  0.2155 -0.0091
  668poe    c23 5847   5.424   6.087   6.194  0.3219  0.3950  0.0671
  668poe    c23 5848   5.425   5.975   6.299 -0.1830 -0.1073 -0.4617
  668poe     o2 5849   5.563   5.947   6.305 -0.1354  0.2450  0.1100
  668poe    c23 5850   5.595   5.845   6.397  0.0569  0.1837 -0.0262
  668poe    c23 5851   5.746   5.817   6.407 -0.1696 -1.0110  0.2265
  668poe     o2 5852   5.795   5.799   6.276 -0.2566 -0.3721  0.1058
  668poe    c23 5853   5.929   5.756   6.286 -0.1798 -0.2868 -0.5149
  668poe    c23 5854   5.993   5.769   6.146  0.3352 -0.1181 -0.2644
  668poe     o2 5855   5.905   5.711   6.053 -0.0187 -0.1955  0.1126
  668poe    c31 5856   5.984   5.632   5.967  0.6552  0.4740  0.1101
  669poe    c31 5857   3.852   0.197   2.026  0.6777 -0.0235 -0.2694
  669poe     o2 5858   3.807   0.286   1.926 -0.3981 -0.5355 -0.2613
  669poe    c23 5859   3.883   0.405   1.929 -0.6013 -0.3930 -0.6614
  669poe    c23 5860   3.825   0.502   1.825 -0.2052  0.0442 -0.4773
  669poe     o2 5861   3.684   0.502   1.827 -0.2013  0.1792 -0.0508
  669poe    c23 5862   3.617   0.581   1.731 -0.0772  0.1422 -0.1688
  669poe    c23 5863   3.470   0.556   1.770 -0.0085 -0.3278 -0.1991
  669poe     o2 5864   3.464   0.422   1.812  0.1957 -0.2921 -0.0558
  669poe    c23 5865   3.361   0.375   1.897 -0.2241  0.2478 -0.2612
  669poe    c23 5866   3.381   0.224   1.914  0.6930  0.3475 -0.3779
  669poe     o2 5867   3.517   0.188   1.913  0.4781 -0.4950 -0.5472
  669poe    c31 5868   3.533   0.061   1.970  0.4095 -0.2840 -0.0555
  670poe    c31 5869   4.144   5.320   4.120 -0.3933  0.4797  0.1402
  670poe     o2 5870   4.198   5.390   4.231 -0.2789  0.1808  0.2751
  670poe    c23 5871   4.180   5.303   4.340 -0.1840 -0.1112  0.0600
  670poe    c23 5872   4.267   5.360   4.453 -0.0313 -0.2847  0.0317
  670poe     o2 5873   4.236   5.495   4.481  0.1997 -0.0447 -0.8342
  670poe    c23 5874   4.292   5.529   4.606  0.5823  0.1354 -1.0540
  670poe    c23 5875   4.305   5.682   4.594 -0.0281  0.2604 -0.2402
  670poe     o2 5876   4.173   5.727   4.573 -0.1925 -0.0140  0.1939
  670poe    c23 5877   4.167   5.868   4.564 -0.0992  0.0018  0.3728
  670poe    c23 5878   4.026   5.905   4.515  0.2670  0.2551 -0.5054
  670poe     o2 5879   4.002   5.814   4.410 -0.3064  0.0755 -0.2239
  670poe    c31 5880   3.886   5.853   4.340 -0.8659 -0.6849  0.2707
  671poe    c31 5881   3.405   0.546   5.033 -0.1645 -0.4782 -0.1050
  671poe     o2 5882   3.413   0.672   5.095 -0.2217 -0.6252  0.2042
  671poe    c23 5883   3.484   0.670   5.217 -0.7100 -0.7175  0.4920
  671poe    c23 5884   3.475   0.814   5.272  0.2002 -0.5314  0.1711
  671poe     o2 5885   3.482   0.910   5.169 -0.4072  0.0003  0.6185
  671poe    c23 5886   3.445   1.043   5.196 -0.3837  0.1526 -0.0871
  671poe    c23 5887   3.462   1.117   5.062  0.4389 -0.2819 -0.2266
  671poe     o2 5888   3.372   1.049   4.977 -0.1400  0.4821 -0.2279
  671poe    c23 5889   3.386   1.076   4.839  0.6532 -0.5419 -0.3519
  671poe    c23 5890   3.314   0.964   4.760 -0.3795 -0.0137 -0.1744
  671poe     o2 5891   3.341   0.844   4.830 -0.9667  0.0369  0.1481
  671poe    c31 5892   3.316   0.729   4.753  0.5380  0.1519 -0.5448
  672poe    c31 5893   0.591   2.227   4.391 -0.1277  0.4059 -0.2893
  672poe     o2 5894   0.550   2.259   4.522  0.3238 -0.1687 -0.0033
  672poe    c23 5895   0.648   2.317   4.605 -0.1718  0.4342  0.1667
  672poe    c23 5896   0.588   2.338   4.745 -0.2175  0.0979  0.1971
  672poe     o2 5897   0.556   2.216   4.808 -0.4808  0.2704  0.3981
  672poe    c23 5898   0.451   2.248   4.896 -0.8928 -0.1714  0.0719
  672poe    c23 5899   0.418   2.127   4.986 -0.7820  0.0164  0.3655
  672poe     o2 5900   0.352   2.037   4.901 -0.1591 -0.1266  0.0237
  672poe    c23 5901   0.275   1.939   4.967 -0.2026  0.0845  0.2894
  672poe    c23 5902   0.230   1.832   4.865 -0.0608  0.1921  0.1140
  672poe     o2 5903   0.340   1.790   4.787 -0.3446  0.5770 -0.4991
  672poe    c31 5904   0.299   1.675   4.718  0.1745  0.0784  0.0184
  673poe    c31 5905   1.464   3.822   3.255 -0.3791 -0.3876 -0.3058
  673poe     o2 5906   1.586   3.767   3.299 -0.2491  0.0305 -0.1422
  673poe    c23 5907   1.578   3.705   3.425  0.0058  0.1024 -0.0894
  673poe    c23 5908   1.723   3.683   3.473 -0.1673 -0.6435  0.1118
  673poe     o2 5909   1.782   3.618   3.363 -0.2154  0.1078 -0.3662
  673poe    c23 5910   1.914   3.573   3.384 -0.3207 -0.0017  0.0711
  673poe    c23 5911   1.949   3.493   3.257 -0.3302 -0.1464  0.1593
  673poe     o2 5912   1.878   3.547   3.148  0.3508 -0.5257 -0.4882
  673poe    c23 5913   1.966   3.629   3.075  0.8571 -0.2810  0.3851
  673poe    c23 5914   1.887   3.728   2.987  0.5777 -0.5616  0.3220
  673poe     o2 5915   1.791   3.785   3.073  0.2294  0.3371 -0.6417
  673poe    c31 5916   1.728   3.889   3.003 -0.0955  0.7929  0.3093
  674poe    c31 5917   4.956   6.462   3.568  0.2260 -0.2023 -0.0763
  674poe     o2 5918   5.050   6.485   3.466  0.4794 -0.5919  0.0661
  674poe    c23 5919   5.177   6.494   3.526  0.3707 -0.3258  0.2584
  674poe    c23 5920   5.262   6.566   3.418 -0.0970 -0.2192 -0.0420
  674poe     o2 5921   5.264   6.478   3.308  0.3535 -0.1194 -0.1163
  674poe    c23 5922   5.295   6.534   3.183  0.3915  0.1466  0.0110
  674poe    c23 5923   5.218   6.451   3.078  0.5421 -0.6736  0.5457
  674poe     o2 5924   5.093   6.436   3.143  0.0450 -0.1931 -0.2804
  674poe    c23 5925   4.996   6.377   3.061 -0.3832 -0.2725  0.2760
  674poe    c23 5926   4.857   6.409   3.120 -0.6530 -0.3992 -0.2735
  674poe     o2 5927   4.874   6.400   3.260 -0.1876  0.9137 -0.2324
  674poe    c31 5928   4.746   6.413   3.319 -0.0497 -0.3208  0.3614
  675poe    c31 5929   5.039   2.932   1.724 -0.3306  0.1619 -0.5536
  675poe     o2 5930   5.080   2.895   1.854 -0.2618  0.4384 -0.4945
  675poe    c23 5931   4.961   2.860   1.921  0.2248 -0.2330  0.0329
  675poe    c23 5932   5.001   2.762   2.033  0.0785 -0.1925  0.1217
  675poe     o2 5933   5.120   2.824   2.078 -0.1156  0.1727  0.1371
  675poe    c23 5934   5.150   2.815   2.215  0.0988 -0.4837  0.0516
  675poe    c23 5935   5.301   2.820   2.246  0.0781  0.1463  0.0646
  675poe     o2 5936   5.355   2.946   2.214  0.3562  0.0413  0.1203
  675poe    c23 5937   5.372   3.030   2.326  0.4330 -0.0804  0.2002
  675poe    c23 5938   5.422   3.174   2.301 -0.0460  0.0011 -0.3125
  675poe     o2 5939   5.348   3.222   2.191  0.2459 -0.3779 -0.6805
  675poe    c31 5940   5.374   3.357   2.157 -0.1477 -0.2242 -0.3802
  676poe    c31 5941   4.105   5.015   5.074 -0.5001  0.6103  0.0975
  676poe     o2 5942   3.989   4.937   5.060 -0.0293 -0.1182  0.1865
  676poe    c23 5943   4.004   4.832   4.966 -0.2046 -0.3112  0.3733
  676poe    c23 5944   3.868   4.761   4.955 -0.0403 -0.5536 -0.1395
  676poe     o2 5945   3.766   4.853   4.924  0.2631  0.0326  0.5624
  676poe    c23 5946   3.650   4.790   4.874  0.2371  0.1198  0.5115
  676poe    c23 5947   3.581   4.853   4.751  0.3532 -0.0239  0.3738
  676poe     o2 5948   3.551   4.986   4.783  0.2475 -0.1105  0.6394
  676poe    c23 5949   3.414   5.000   4.815  0.0443  0.4410 -0.3945
  676poe    c23 5950   3.383   5.151   4.823 -0.0834  0.4028 -0.1505
  676poe     o2 5951   3.504   5.191   4.886  0.1117 -0.0472 -0.2325
  676poe    c31 5952   3.480   5.316   4.947 -0.4055 -0.4799  0.4654
  677poe    c31 5953   0.602   4.217   1.935  0.0023  0.2082  0.1657
  677poe     o2 5954   0.566   4.118   1.842  0.0501 -0.3034  0.6854
  677poe    c23 5955   0.681   4.045   1.806 -0.2378 -0.3247 -0.2199
  677poe    c23 5956   0.650   3.928   1.710  0.6359 -0.6603 -0.1061
  677poe     o2 5957   0.542   3.861   1.771  0.7365 -0.7721 -0.0516
  677poe    c23 5958   0.480   3.774   1.680 -0.4719  0.3161 -0.3022
  677poe    c23 5959   0.336   3.748   1.729 -0.4051  0.1287 -0.2053
  677poe     o2 5960   0.290   3.875   1.767 -0.1326  0.1059  0.2055
  677poe    c23 5961   0.183   3.878   1.859 -0.5081 -0.2164 -0.2186
  677poe    c23 5962   0.128   4.021   1.870 -0.4040 -0.1850 -0.0989
  677poe     o2 5963   0.236   4.111   1.883 -0.5728 -0.0020  0.0478
  677poe    c31 5964   0.191   4.235   1.931  0.6801  0.5070 -0.0520
  678poe    c31 5965   1.835   5.782   5.500  0.0403 -0.1442 -0.2623
  678poe     o2 5966   1.942   5.702   5.545 -0.0413  0.0845  0.3590
  678poe    c23 5967   2.049   5.784   5.587  0.1240  0.2406 -0.3560
  678poe    c23 5968   2.194   5.754   5.544  0.2259  0.5220 -0.2108
  678poe     o2 5969   2.203   5.735   5.405  0.1077 -0.4752 -0.0936
  678poe    c23 5970   2.327   5.688   5.357  0.4372  0.1321  0.1410
  678poe    c23 5971   2.313   5.629   5.215 -0.2467  0.0452  0.2381
  678poe     o2 5972   2.240   5.509   5.219 -0.4724  0.1713 -0.0609
  678poe    c23 5973   2.267   5.440   5.099 -0.2509  0.3458 -0.1123
  678poe    c23 5974   2.175   5.316   5.100  0.2884 -0.0545  0.0804
  678poe     o2 5975   2.166   5.275   5.235  0.6091 -0.2010  0.0587
  678poe    c31 5976   2.133   5.139   5.249  0.1400 -0.1202 -0.2140
  679poe    c31 5977   1.265   2.198   1.613 -0.0019  0.1290 -0.1964
  679poe     o2 5978   1.260   2.234   1.477 -0.4315 -0.4789 -0.3434
  679poe    c23 5979   1.161   2.332   1.457  0.1807  0.2168 -0.0102
  679poe    c23 5980   1.177   2.408   1.324 -0.6031  0.0337 -0.2115
  679poe     o2 5981   1.161   2.323   1.213 -0.3716 -0.7682  0.3684
  679poe    c23 5982   1.105   2.411   1.118 -0.5691 -0.7630  0.4889
  679poe    c23 5983   1.088   2.318   0.997  0.0292 -0.0762 -0.1331
  679poe     o2 5984   1.197   2.231   0.979 -0.0067 -0.0635 -0.4154
  679poe    c23 5985   1.163   2.152   0.867 -0.2368 -0.6065  0.0360
  679poe    c23 5986   1.299   2.084   0.841 -0.0998 -0.1651 -0.3998
  679poe     o2 5987   1.347   2.029   0.961  0.0784  0.0778 -0.3586
  679poe    c31 5988   1.459   1.949   0.930  0.2651 -0.0149  0.5239
  680poe    c31 5989   3.648   4.563   2.505 -0.2101  0.0854 -0.1876
  680poe     o2 5990   3.690   4.428   2.507 -0.0031  0.1451 -0.4516
  680poe    c23 5991   3.776   4.411   2.397  0.3210 -0.3902 -0.1175
  680poe    c23 5992   3.879   4.307   2.448 -0.0185 -0.5119  0.3277
  680poe     o2 5993   3.804   4.193   2.481 -0.1375 -0.3593  0.5924
  680poe    c23 5994   3.881   4.091   2.540  0.1954  0.0687  0.9031
  680poe    c23 5995   3.784   4.009   2.627 -0.9519  0.0699 -0.3394
  680poe     o2 5996   3.716   4.111   2.697  0.0450  0.5041  0.0138
  680poe    c23 5997   3.618   4.046   2.774  0.5983 -0.1705  0.1623
  680poe    c23 5998   3.539   4.155   2.849  0.3327 -0.2287 -0.0316
  680poe     o2 5999   3.514   4.254   2.752  0.0964 -0.0795  0.1789
  680poe    c31 6000   3.419   4.345   2.802  0.3880  0.0587  0.4881
  681poe    c31 6001   2.776   4.664   3.642 -0.0019  0.1956 -0.8033
  681poe     o2 6002   2.755   4.525   3.629  0.5432 -0.0382  0.6197
  681poe    c23 6003   2.651   4.503   3.721 -0.3813 -0.2110 -0.4458
  681poe    c23 6004   2.668   4.357   3.768 -0.3808 -0.1220 -0.1700
  681poe     o2 6005   2.709   4.290   3.651 -0.1695  0.3172 -0.3508
  681poe    c23 6006   2.674   4.154   3.650 -0.4001  0.3698  0.1036
  681poe    c23 6007   2.744   4.092   3.527  0.0320  0.4981  0.2835
  681poe     o2 6008   2.682   4.154   3.417  0.5694  0.6241  0.0483
  681poe    c23 6009   2.742   4.109   3.298 -0.7231 -0.7385 -0.1254
  681poe    c23 6010   2.674   4.163   3.170  0.4074  0.0485 -0.4066
  681poe     o2 6011   2.681   4.303   3.154  0.2567  0.1214  0.1437
  681poe    c31 6012   2.615   4.337   3.034  0.4326  0.4632  0.1417
  682poe    c31 6013   5.894   1.393   2.375 -0.0070 -0.1497  0.5648
  682poe     o2 6014   5.971   1.511   2.371 -0.3024  0.0269  0.0189
  682poe    c23 6015   5.977   1.553   2.236  0.0932  0.8979  0.2990
  682poe    c23 6016   6.125   1.589   2.213  0.3477 -0.4114 -0.2138
  682poe     o2 6017   6.151   1.652   2.337 -0.0146 -0.2928 -0.1965
  682poe    c23 6018   6.273   1.723   2.342 -0.5060  0.5563 -0.0374
  682poe    c23 6019   6.261   1.801   2.474  0.0979  0.3993  0.1130
  682poe     o2 6020   6.198   1.708   2.560  0.2333  0.2224  0.0203
  682poe    c23 6021   6.143   1.768   2.675 -0.0243  0.0330 -0.0035
  682poe    c23 6022   6.062   1.662   2.753 -0.3150  0.3918  0.1846
  682poe     o2 6023   5.987   1.597   2.653 -0.0730  0.0163  0.2442
  682poe    c31 6024   5.887   1.513   2.704 -0.2848  0.1969  0.1297
  683poe    c31 6025   3.627   5.342   0.035  0.0221 -0.2618  0.1285
  683poe     o2 6026   3.553   5.358  -0.084  0.3175 -0.5571 -0.0968
  683poe    c23 6027   3.616   5.439  -0.181 -0.0358 -0.4251 -0.2145
  683poe    c23 6028   3.521   5.463  -0.300 -0.2531 -0.2352 -0.0031
  683poe     o2 6029   3.515   5.354  -0.388  0.0109 -0.3092  0.0722
  683poe    c23 6030   3.410   5.394  -0.473  0.3514  0.2079 -0.1146
  683poe    c23 6031   3.360   5.281  -0.565 -0.1001  0.2404  0.0860
  683poe     o2 6032   3.333   5.174  -0.477  0.5878  0.1109  0.1486
  683poe    c23 6033   3.301   5.063  -0.559 -0.1427  0.1290  0.3962
  683poe    c23 6034   3.267   4.954  -0.456 -0.4341  0.4077  0.5971
  683poe     o2 6035   3.384   4.935  -0.379 -0.3591 -0.0652  0.3712
  683poe    c31 6036   3.375   4.822  -0.295  0.5937 -0.4777 -0.0634
  684poe    c31 6037   1.462   6.665   4.859  0.3020 -0.1563 -0.2715
  684poe     o2 6038   1.412   6.710   4.735 -0.5906  0.1706  0.2015
  684poe    c23 6039   1.515   6.791   4.682  0.2318 -0.7410  0.3709
  684poe    c23 6040   1.448   6.855   4.559  0.3860 -0.3137  0.5092
  684poe     o2 6041   1.382   6.755   4.485  0.0595  0.1915  0.1126
  684poe    c23 6042   1.285   6.799   4.393 -0.7752 -0.2378  0.7762
  684poe    c23 6043   1.212   6.674   4.342 -0.7068  0.1882 -0.4059
  684poe     o2 6044   1.193   6.599   4.460 -0.3519  0.3668 -0.2370
  684poe    c23 6045   1.115   6.483   4.439  0.1353  0.0083 -0.0783
  684poe    c23 6046   1.080   6.413   4.571  0.0970  0.1462 -0.0147
  684poe     o2 6047   1.201   6.420   4.643  0.1080  0.2973 -0.0480
  684poe    c31 6048   1.194   6.356   4.769 -0.0250  0.2948 -0.0574
  685poe    c31 6049   1.900   5.989   0.708  0.0094  0.2860  0.5695
  685poe     o2 6050   1.893   5.967   0.569  0.0499  0.2156  0.5786
  685poe    c23 6051   1.903   6.094   0.509  0.1354 -0.1427 -0.1862
  685poe    c23 6052   1.840   6.093   0.368  0.3092  0.2696 -0.2688
  685poe     o2 6053   1.709   6.042   0.378  0.4222  0.0319  0.0439
  685poe    c23 6054   1.649   6.025   0.251  0.2135  0.8016  0.0381
  685poe    c23 6055   1.511   5.956   0.251  0.7014 -0.1925 -0.8865
  685poe     o2 6056   1.509   5.825   0.303  0.3385  0.1458 -0.0437
  685poe    c23 6057   1.383   5.805   0.365  0.2067  0.1051 -0.3245
  685poe    c23 6058   1.361   5.670   0.435  0.6531  0.0330 -0.3212
  685poe     o2 6059   1.447   5.644   0.544 -0.1973  0.3368  0.4297
  685poe    c31 6060   1.406   5.535   0.623  0.0183  0.0524  0.1512
  686poe    c31 6061   1.966   5.061   1.280  0.4206 -0.4173  0.0559
  686poe     o2 6062   1.974   5.178   1.200  0.0625 -0.1544  0.4008
  686poe    c23 6063   1.865   5.260   1.233 -0.0275 -0.0264 -0.2050
  686poe    c23 6064   1.870   5.385   1.142 -0.0920  0.0993 -0.0372
  686poe     o2 6065   2.002   5.435   1.141  0.1228 -0.4451  0.1385
  686poe    c23 6066   2.029   5.525   1.036  0.1385  0.1809  0.6654
  686poe    c23 6067   2.180   5.513   1.004 -0.0286  0.1185 -0.1414
  686poe     o2 6068   2.214   5.376   1.007 -0.2369  0.0711  0.2758
  686poe    c23 6069   2.346   5.347   0.966 -0.3195  0.0586  0.0160
  686poe    c23 6070   2.352   5.194   0.956 -0.2242  0.1032 -0.6638
  686poe     o2 6071   2.270   5.145   1.060 -0.1562  0.2510 -0.5418
  686poe    c31 6072   2.268   5.005   1.053  0.4552  0.2015  0.1005
  687poe    c31 6073   5.121   3.607   1.366 -0.2897  0.3939 -0.1695
  687poe     o2 6074   5.173   3.528   1.261  0.2182 -0.2076  0.5208
  687poe    c23 6075   5.073   3.484   1.172  0.1361 -0.1477  0.5828
  687poe    c23 6076   5.130   3.414   1.047 -0.0721 -0.0079  0.4103
  687poe     o2 6077   5.193   3.505   0.959 -0.2127 -0.0788  0.2348
  687poe    c23 6078   5.139   3.470   0.834 -0.0779  0.1048  0.1246
  687poe    c23 6079   5.203   3.573   0.740 -0.3926  0.4013  0.2363
  687poe     o2 6080   5.340   3.568   0.775 -0.2164  0.1109 -0.4895
  687poe    c23 6081   5.422   3.661   0.708  0.1206 -0.4159 -0.8242
  687poe    c23 6082   5.562   3.638   0.766 -0.1033  0.2924  0.0287
  687poe     o2 6083   5.563   3.613   0.905  0.2894 -0.1064 -0.0411
  687poe    c31 6084   5.686   3.632   0.970  0.2565 -0.3674  0.1005
  688poe    c31 6085   2.631   0.979   2.544 -0.7642 -0.1383 -0.3254
  688poe     o2 6086   2.681   0.884   2.452 -0.3803 -0.0025 -0.2597
  688poe    c23 6087   2.742   0.948   2.343 -0.0560 -0.3725 -0.3008
  688poe    c23 6088   2.773   0.845   2.233 -0.7169 -0.5002 -0.3678
  688poe     o2 6089   2.871   0.752   2.271 -0.2873  0.0943 -0.0204
  688poe    c23 6090   2.857   0.629   2.204 -0.4323  0.0086  0.1651
  688poe    c23 6091   2.886   0.513   2.301  0.1350  0.0957  0.1047
  688poe     o2 6092   2.822   0.554   2.419  0.8357  0.5340  0.3376
  688poe    c23 6093   2.858   0.477   2.532 -0.0461 -0.3773  0.0071
  688poe    c23 6094   2.746   0.503   2.634  0.2779  0.1224  0.2365
  688poe     o2 6095   2.726   0.642   2.624  0.4335  0.1721  0.5853
  688poe    c31 6096   2.657   0.695   2.735 -0.0489  0.2754  0.2412
  689poe    c31 6097   2.885   6.406   2.102  0.5283 -0.0575  0.4585
  689poe     o2 6098   2.785   6.387   2.199  0.0729 -0.3182 -0.0558
  689poe    c23 6099   2.732   6.259   2.174 -0.2266 -0.3593  0.7659
  689poe    c23 6100   2.606   6.240   2.262 -0.5967  0.4264  0.4136
  689poe     o2 6101   2.639   6.295   2.387  0.1668  0.0137  0.4015
  689poe    c23 6102   2.573   6.252   2.504 -0.6230 -0.1326 -0.0974
  689poe    c23 6103   2.569   6.365   2.609 -0.2314  0.0838 -0.3128
  689poe     o2 6104   2.527   6.480   2.540 -0.2896 -0.0921 -0.5709
  689poe    c23 6105   2.477   6.589   2.614  0.1714 -0.1955 -0.1025
  689poe    c23 6106   2.468   6.714   2.524  0.1496 -0.1422 -0.0260
  689poe     o2 6107   2.591   6.780   2.510  0.2016 -0.2208  0.0633
  689poe    c31 6108   2.558   6.904   2.452  0.6306  0.1568  0.6148
  690poe    c31 6109   3.425   6.536   2.316  0.3317  0.0207 -0.3275
  690poe     o2 6110   3.511   6.437   2.368 -0.1969 -0.1629  0.2102
  690poe    c23 6111   3.481   6.416   2.504  0.1079 -0.0874  0.2911
  690poe    c23 6112   3.553   6.288   2.551 -1.0075 -0.6974  0.3838
  690poe     o2 6113   3.564   6.204   2.438 -0.2217 -0.1080  0.0171
  690poe    c23 6114   3.639   6.086   2.453 -0.1671 -0.0180  0.4727
  690poe    c23 6115   3.618   5.986   2.337  0.1812 -0.0212  0.4113
  690poe     o2 6116   3.631   6.045   2.210 -0.5490 -0.0435  0.3233
  690poe    c23 6117   3.602   5.957   2.104  0.1024  0.3192 -0.1641
  690poe    c23 6118   3.619   6.030   1.969  0.0127  0.0744 -0.3081
  690poe     o2 6119   3.561   6.158   1.975  0.2869  0.1610  0.5975
  690poe    c31 6120   3.565   6.204   1.842  0.2450 -0.2120  0.4657
  691poe    c31 6121   5.638   6.182   0.383 -0.3409 -0.1526 -0.1013
  691poe     o2 6122   5.561   6.130   0.277  0.1384 -0.5071 -0.2783
  691poe    c23 6123   5.602   6.182   0.153  0.3222  0.7698  0.2954
  691poe    c23 6124   5.493   6.160   0.046  0.4837  0.4001  0.2052
  691poe     o2 6125   5.369   6.226   0.053  0.0084 -0.5087  0.5989
  691poe    c23 6126   5.266   6.180  -0.031  0.3054 -0.5785  0.2670
  691poe    c23 6127   5.134   6.219   0.040  0.2529  0.0909 -0.1927
  691poe     o2 6128   5.103   6.156   0.162  0.5416  0.2907 -0.0156
  691poe    c23 6129   4.988   6.080   0.137  0.3586  0.3417  0.6498
  691poe    c23 6130   4.927   6.062   0.277 -0.7413 -0.5358  0.0754
  691poe     o2 6131   5.021   6.051   0.381 -0.4414  0.3587 -0.0926
  691poe    c31 6132   4.955   6.036   0.505  0.2635  0.3813  0.2924
  692poe    c31 6133   3.164   1.191   6.649 -0.0878  0.3837  0.0603
  692poe     o2 6134   3.229   1.313   6.676  0.3896  0.1458  0.0190
  692poe    c23 6135   3.355   1.309   6.615  0.3095  0.0343 -0.1385
  692poe    c23 6136   3.455   1.410   6.676 -0.0599  0.0479  0.4474
  692poe     o2 6137   3.376   1.527   6.684  0.0971  0.2015 -0.2106
  692poe    c23 6138   3.428   1.620   6.776  0.7521  0.0333 -0.4015
  692poe    c23 6139   3.330   1.739   6.770  0.3087 -0.2885  0.3297
  692poe     o2 6140   3.195   1.699   6.774  0.1841  0.0608 -0.3206
  692poe    c23 6141   3.153   1.666   6.904  0.1144  0.0473 -0.3462
  692poe    c23 6142   3.020   1.593   6.878 -0.0087  0.4953 -0.9634
  692poe     o2 6143   3.019   1.494   6.778  0.2542 -0.4648 -0.0228
  692poe    c31 6144   2.888   1.444   6.762  0.1265 -0.2968  0.4696
  693poe    c31 6145   0.960   5.541   1.336  0.4919  0.2596  0.1764
  693poe     o2 6146   0.946   5.628   1.225  0.1821 -0.1396 -0.0999
  693poe    c23 6147   1.002   5.756   1.245 -0.6262  0.1405  0.4232
  693poe    c23 6148   0.987   5.839   1.117 -0.0738 -0.0648  0.2221
  693poe     o2 6149   1.011   5.761   1.002 -0.0549 -0.3106  0.3930
  693poe    c23 6150   0.985   5.844   0.891  0.1684 -0.0803  0.5087
  693poe    c23 6151   0.989   5.741   0.776 -0.2498  0.1410  0.2933
  693poe     o2 6152   0.935   5.619   0.823  0.7826 -0.4293  0.0315
  693poe    c23 6153   0.978   5.509   0.746 -0.7965 -0.4409 -0.8787
  693poe    c23 6154   0.891   5.394   0.799 -0.0772 -0.6153 -0.0444
  693poe     o2 6155   0.863   5.416   0.935 -0.2970 -0.2958 -0.1403
  693poe    c31 6156   0.787   5.311   0.990  0.0815 -0.3952  0.1906
  694poe    c31 6157   6.630   5.435   1.936  0.0761 -0.2609 -0.1261
  694poe     o2 6158   6.496   5.404   1.965 -0.0749  0.2430 -0.2768
  694poe    c23 6159   6.427   5.527   1.973 -0.2055  0.1823 -0.4505
  694poe    c23 6160   6.280   5.482   1.971 -0.0289 -0.3980 -0.5982
  694poe     o2 6161   6.256   5.386   2.072 -0.6636  0.0342 -0.3353
  694poe    c23 6162   6.129   5.325   2.062 -0.4316 -0.5075 -0.0031
  694poe    c23 6163   6.144   5.187   2.129 -0.0469 -0.4941 -0.0581
  694poe     o2 6164   6.267   5.135   2.084  0.1244 -0.1897  0.0567
  694poe    c23 6165   6.322   5.039   2.171 -0.1958 -0.2527  0.1913
  694poe    c23 6166   6.449   5.005   2.090 -0.0560  0.6001  0.0435
  694poe     o2 6167   6.511   5.123   2.044  0.4761  0.3092 -0.0004
  694poe    c31 6168   6.634   5.089   1.984  0.3185 -0.1711 -0.0588
  695poe    c31 6169   3.623   4.223   4.800  0.1839  0.2005 -0.4645
  695poe     o2 6170   3.573   4.284   4.917  0.6415 -0.1983 -0.0570
  695poe    c23 6171   3.475   4.383   4.892  0.0001 -0.6633  0.5671
  695poe    c23 6172   3.339   4.345   4.832 -0.2042  0.0681  0.5548
  695poe     o2 6173   3.280   4.243   4.910 -0.1510 -0.0542  0.4362
  695poe    c23 6174   3.152   4.276   4.960 -0.4510 -0.6006  0.0458
  695poe    c23 6175   3.121   4.210   5.096 -0.4998 -0.5803  0.0446
  695poe     o2 6176   3.141   4.071   5.086 -0.2793 -0.5431 -0.0359
  695poe    c23 6177   3.110   3.987   5.195 -0.0033 -0.2528  0.2661
  695poe    c23 6178   3.158   3.851   5.141  0.4621  0.0448 -0.0822
  695poe     o2 6179   3.284   3.866   5.080 -0.0774 -0.0622 -1.2600
  695poe    c31 6180   3.343   3.739   5.062  0.4978  0.0574 -0.3152
  696poe    c31 6181   5.284   3.448   3.563 -0.1422 -0.0492  0.0843
  696poe     o2 6182   5.234   3.318   3.540  0.0950 -0.1378  0.0721
  696poe    c23 6183   5.324   3.227   3.599  0.3830  0.1637  0.1056
  696poe    c23 6184   5.235   3.138   3.687 -0.2001  0.2954 -0.3374
  696poe     o2 6185   5.119   3.108   3.614 -0.2358  0.1459 -0.2216
  696poe    c23 6186   5.023   3.044   3.695 -0.0089  0.4491  0.2895
  696poe    c23 6187   4.901   3.073   3.605  0.1480 -0.2607 -0.1607
  696poe     o2 6188   4.913   3.207   3.562  0.1052 -0.0888  0.3537
  696poe    c23 6189   4.818   3.256   3.470 -0.0711  0.3348  0.7558
  696poe    c23 6190   4.874   3.396   3.440 -0.0546 -0.0136 -0.9362
  696poe     o2 6191   5.006   3.375   3.397  0.3195 -0.2515  0.2957
  696poe    c31 6192   5.027   3.471   3.295  0.1528 -0.1797  0.3290
  697poe    c31 6193   3.938   0.604   6.087 -0.0026  0.0777 -0.2693
  697poe     o2 6194   3.975   0.642   6.217 -1.2079  0.3642  0.0049
  697poe    c23 6195   3.932   0.553   6.318  0.2615 -0.6174 -0.1859
  697poe    c23 6196   3.990   0.611   6.449  0.0860 -0.5183 -0.1504
  697poe     o2 6197   4.124   0.651   6.432 -0.1284  0.2540 -0.0700
  697poe    c23 6198   4.193   0.715   6.537  0.1006 -0.1859  0.0515
  697poe    c23 6199   4.173   0.865   6.510  0.1494 -0.2366 -0.2735
  697poe     o2 6200   4.212   0.882   6.376  0.2525  0.3020 -0.1762
  697poe    c23 6201   4.184   1.017   6.346 -0.1889  0.2540  0.0118
  697poe    c23 6202   4.164   1.018   6.193  0.0584  0.1080 -0.0215
  697poe     o2 6203   4.083   0.911   6.151  0.7395 -0.2425 -0.4600
  697poe    c31 6204   4.041   0.944   6.020  0.1894 -0.2047 -0.2769
  698poe    c31 6205   4.550   1.005   1.244  0.0148  0.0626 -0.4693
  698poe     o2 6206   4.594   0.882   1.298  0.1685  0.3713  0.1107
  698poe    c23 6207   4.670   0.812   1.202  0.5690  0.6921  0.1923
  698poe    c23 6208   4.746   0.695   1.266 -0.0500  0.0348 -0.2670
  698poe     o2 6209   4.672   0.598   1.337 -0.3187  0.3163 -0.1619
  698poe    c23 6210   4.750   0.502   1.405 -0.1373  0.7412  0.2314
  698poe    c23 6211   4.643   0.417   1.475  0.5416 -0.0875  0.2828
  698poe     o2 6212   4.553   0.501   1.545  0.4137  0.4072 -0.4710
  698poe    c23 6213   4.453   0.428   1.612  0.1641  0.4480 -0.7936
  698poe    c23 6214   4.328   0.511   1.647 -0.2163 -0.4060 -0.0843
  698poe     o2 6215   4.244   0.534   1.536  0.4157 -0.0245 -0.4895
  698poe    c31 6216   4.141   0.623   1.570 -0.0743 -0.6267 -0.3747
  699poe    c31 6217   4.237   1.961   1.034 -0.0009 -0.1170 -0.0939
  699poe     o2 6218   4.329   1.957   0.928 -0.0760  0.5074 -0.1831
  699poe    c23 6219   4.312   1.838   0.854 -0.4695  0.3470  0.1666
  699poe    c23 6220   4.380   1.835   0.716 -0.5338 -0.0818  0.1420
  699poe     o2 6221   4.327   1.925   0.621  0.0736 -0.3298 -0.4422
  699poe    c23 6222   4.410   1.945   0.509  0.1998 -0.1096 -0.3101
  699poe    c23 6223   4.324   1.998   0.393 -0.5803 -0.3687  0.1454
  699poe     o2 6224   4.277   2.131   0.391  0.3506 -0.0370 -0.3366
  699poe    c23 6225   4.343   2.209   0.294  0.3883  0.1782 -0.1385
  699poe    c23 6226   4.264   2.340   0.276 -0.0182 -0.0200  0.1547
  699poe     o2 6227   4.232   2.396   0.401 -0.7207 -0.0839  0.0053
  699poe    c31 6228   4.179   2.523   0.370  0.4253  0.3377 -0.2767
  700poe    c31 6229   5.165   6.186   2.550 -0.3827  0.2518  0.1042
  700poe     o2 6230   5.169   6.161   2.412  0.1936  0.1310  0.1421
  700poe    c23 6231   5.071   6.067   2.373 -0.3000  0.6914  0.0125
  700poe    c23 6232   5.045   6.076   2.222  0.1035  0.4794 -0.0724
  700poe     o2 6233   5.155   6.050   2.138  0.1182  0.1815  0.0370
  700poe    c23 6234   5.119   6.033   2.003  0.0571  0.2470  0.0450
  700poe    c23 6235   5.245   6.029   1.914 -0.0454 -0.2756 -0.0839
  700poe     o2 6236   5.349   5.968   1.987 -0.1074  0.3038  0.4993
  700poe    c23 6237   5.473   5.958   1.921 -0.5775 -0.8125 -0.2342
  700poe    c23 6238   5.562   5.863   2.003  0.5051  0.4415  0.0697
  700poe     o2 6239   5.542   5.914   2.133 -0.1171  0.4270 -0.0194
  700poe    c31 6240   5.666   5.927   2.197 -0.1417  0.0321  0.1117
  701poe    c31 6241   5.415   5.039   3.478  0.3335  0.2656 -0.7370
  701poe     o2 6242   5.341   4.970   3.577  0.0704  0.2504 -0.9447
  701poe    c23 6243   5.202   4.980   3.559 -0.1135 -0.3083  0.0915
  701poe    c23 6244   5.149   4.868   3.651 -0.1975 -0.0828  0.3175
  701poe     o2 6245   5.208   4.896   3.776 -0.1928 -0.1422  0.3286
  701poe    c23 6246   5.152   4.806   3.869  0.2102 -0.3365  0.3862
  701poe    c23 6247   5.269   4.794   3.967  0.0353 -0.3227  0.5970
  701poe     o2 6248   5.384   4.781   3.886 -0.0750  0.1326  0.3688
  701poe    c23 6249   5.509   4.766   3.948 -0.0571 -0.9542  0.0835
  701poe    c23 6250   5.605   4.789   3.830 -0.0049  0.3255  0.3644
  701poe     o2 6251   5.552   4.894   3.751 -0.0176  0.0540  0.0094
  701poe    c31 6252   5.664   4.933   3.673  0.2059  0.6176  0.6033
  702poe    c31 6253   4.703   6.103   4.604  0.1414  0.5775 -0.6472
  702poe     o2 6254   4.797   6.207   4.581  0.2737  0.5514 -0.2182
  702poe    c23 6255   4.720   6.305   4.516  0.1725  0.5935 -0.0356
  702poe    c23 6256   4.812   6.427   4.496  0.7083  0.1537 -0.2654
  702poe     o2 6257   4.922   6.367   4.431  0.5198 -0.7100  0.2012
  702poe    c23 6258   5.020   6.463   4.398 -0.3590  0.0135 -0.3451
  702poe    c23 6259   5.153   6.386   4.405 -0.2595  0.2422  0.4587
  702poe     o2 6260   5.134   6.292   4.509  0.2961 -0.0971  0.2588
  702poe    c23 6261   5.239   6.198   4.515  0.3093 -0.0491  0.8276
  702poe    c23 6262   5.207   6.110   4.637 -0.3306  0.2999  0.9187
  702poe     o2 6263   5.071   6.075   4.634 -0.1729 -0.2920  0.1667
  702poe    c31 6264   5.035   5.998   4.747 -0.3370 -0.4811 -0.0112
  703poe    c31 6265   6.255   3.832   3.168  0.2237  0.5249 -0.2234
  703poe     o2 6266   6.153   3.869   3.258  0.7124 -0.0211  0.5694
  703poe    c23 6267   6.066   3.767   3.304  0.0208  0.1395 -0.3519
  703poe    c23 6268   5.953   3.836   3.383 -0.1250 -0.1247 -0.3286
  703poe     o2 6269   6.013   3.915   3.484 -0.1260 -0.1678 -0.2945
  703poe    c23 6270   5.917   3.972   3.570  0.2975  0.2172 -0.0720
  703poe    c23 6271   5.986   4.080   3.655 -0.3226  0.5072  0.0730
  703poe     o2 6272   6.073   4.155   3.573 -0.1158  0.1140 -0.0708
  703poe    c23 6273   6.106   4.273   3.643  0.0508 -0.2268  0.4383
  703poe    c23 6274   6.242   4.335   3.603 -0.1174 -0.2757 -0.2213
  703poe     o2 6275   6.246   4.362   3.465  0.4069 -0.5370 -0.2587
  703poe    c31 6276   6.366   4.429   3.432  0.0885  0.2167  0.0949
  704poe    c31 6277   4.768   3.026   1.535  0.0213 -0.1458  0.1216
  704poe     o2 6278   4.638   3.045   1.484 -0.1272 -0.1718  0.4870
  704poe    c23 6279   4.583   3.149   1.563 -0.1913  0.5758 -0.5247
  704poe    c23 6280   4.433   3.158   1.533 -0.2420  0.5102 -0.2897
  704poe     o2 6281   4.412   3.128   1.397  0.5625 -0.4683 -0.2119
  704poe    c23 6282   4.279   3.165   1.368  0.4375 -0.5927  0.1958
  704poe    c23 6283   4.210   3.071   1.267  0.2283 -0.2378  0.0075
  704poe     o2 6284   4.306   3.047   1.166 -0.0413 -0.3151 -0.2308
  704poe    c23 6285   4.247   2.981   1.056 -0.4347  0.0668 -0.2518
  704poe    c23 6286   4.344   2.969   0.937 -0.0150 -0.1640  0.1114
  704poe     o2 6287   4.375   3.095   0.883  0.2837 -0.1495  0.3166
  704poe    c31 6288   4.443   3.068   0.762 -0.1127 -0.0131  0.0604
  705poe    c31 6289   0.429   2.903   5.889 -0.4251 -0.0235 -0.0666
  705poe     o2 6290   0.550   2.917   5.959 -0.5049 -0.2265  0.1098
  705poe    c23 6291   0.544   2.838   6.076  0.0688  0.0080  0.3000
  705poe    c23 6292   0.682   2.772   6.097 -0.0346 -0.1606  0.4496
  705poe     o2 6293   0.776   2.875   6.112 -0.0904 -0.1232  0.5424
  705poe    c23 6294   0.901   2.855   6.049 -0.2652  0.5302 -0.0239
  705poe    c23 6295   0.951   2.992   6.001  0.0296  0.4218 -0.0252
  705poe     o2 6296   0.846   3.055   5.932 -0.3745  0.4362  0.5982
  705poe    c23 6297   0.889   3.180   5.883  0.0581 -0.0704 -0.3333
  705poe    c23 6298   0.777   3.232   5.792 -0.3637 -0.2262  0.0937
  705poe     o2 6299   0.662   3.207   5.870 -0.0519 -0.1689  0.5697
  705poe    c31 6300   0.551   3.262   5.803  0.2441  0.3260  0.4767
  706poe    c31 6301   1.250   0.009   5.292  0.4298 -0.4400 -0.5657
  706poe     o2 6302   1.380  -0.008   5.343  0.0276 -0.4427  0.5055
  706poe    c23 6303   1.423  -0.136   5.301  0.0964 -0.3525  0.2977
  706poe    c23 6304   1.570  -0.153   5.343  0.1620  0.2213  0.3074
  706poe     o2 6305   1.581  -0.181   5.480 -0.3422 -0.2926  0.2431
  706poe    c23 6306   1.692  -0.265   5.503 -0.2398 -0.2487 -0.0887
  706poe    c23 6307   1.692  -0.345   5.635  0.0366 -0.3557 -0.1523
  706poe     o2 6308   1.698  -0.266   5.752 -0.3462 -0.3265 -0.1490
  706poe    c23 6309   1.714  -0.350   5.864 -0.5253  0.1494  0.2340
  706poe    c23 6310   1.710  -0.254   5.985  0.0124  0.3981  0.0596
  706poe     o2 6311   1.605  -0.161   5.968 -0.4195 -0.0587  0.1801
  706poe    c31 6312   1.573  -0.122   6.099  0.7136  0.4084  0.3306
  707poe    c31 6313   2.102   0.064   2.144 -0.6576 -0.0860  0.0536
  707poe     o2 6314   2.238   0.066   2.110 -0.5780  0.2771  0.3836
  707poe    c23 6315   2.301  -0.032   2.190  0.0553 -0.0691 -0.5153
  707poe    c23 6316   2.449  -0.029   2.148  0.2907 -0.2089  0.2860
  707poe     o2 6317   2.479   0.099   2.097  0.2530 -0.4260 -0.2895
  707poe    c23 6318   2.616   0.129   2.086  0.0563  0.7683  0.3742
  707poe    c23 6319   2.636   0.265   2.017 -0.1818  0.5675 -0.0872
  707poe     o2 6320   2.536   0.256   1.918 -0.5240  0.0193  0.3019
  707poe    c23 6321   2.525   0.374   1.841  0.0190  0.0439  0.2565
  707poe    c23 6322   2.381   0.380   1.786  0.1691  0.0018 -0.1437
  707poe     o2 6323   2.301   0.320   1.886 -0.0420  0.4531 -0.0397
  707poe    c31 6324   2.168   0.360   1.862 -0.1433  0.0447 -0.1602
  708poe    c31 6325   2.926   5.585   4.606 -0.1742  0.1416 -0.1966
  708poe     o2 6326   2.981   5.458   4.581  0.1563  0.2047  0.2015
  708poe    c23 6327   3.117   5.469   4.546  0.1583 -0.1164  0.1040
  708poe    c23 6328   3.180   5.333   4.511  0.3707 -0.1324  0.5481
  708poe     o2 6329   3.136   5.237   4.604  0.4220  0.0107  0.7208
  708poe    c23 6330   3.096   5.117   4.541  0.0603  0.4247  0.1569
  708poe    c23 6331   2.976   5.047   4.607  0.0018  0.0154 -0.3758
  708poe     o2 6332   2.879   5.147   4.631 -0.0551 -0.1120 -0.0609
  708poe    c23 6333   2.778   5.106   4.720 -0.3719 -0.2376 -0.4763
  708poe    c23 6334   2.661   5.207   4.728 -0.4705 -0.3743 -0.1886
  708poe     o2 6335   2.722   5.333   4.743 -0.1307 -0.5772  0.1890
  708poe    c31 6336   2.632   5.430   4.793 -0.0856 -0.4359 -0.0021
  709poe    c31 6337   2.632   1.719   3.029  0.0696 -0.4797 -0.3575
  709poe     o2 6338   2.726   1.613   3.035  0.2510 -0.3093 -0.1945
  709poe    c23 6339   2.788   1.594   2.911  0.1938 -0.0057 -0.2715
  709poe    c23 6340   2.879   1.469   2.919 -0.0949 -0.2018 -0.0526
  709poe     o2 6341   2.816   1.347   2.952  0.0547 -0.1386  0.4693
  709poe    c23 6342   2.915   1.252   2.982  0.2135 -0.1637 -0.1414
  709poe    c23 6343   2.862   1.117   3.033  0.3186 -0.0916  0.1567
  709poe     o2 6344   2.792   1.140   3.154  0.1056 -0.1285  0.0408
  709poe    c23 6345   2.752   1.026   3.226  0.6423 -0.1981  0.2367
  709poe    c23 6346   2.675   1.079   3.348  0.1182  0.3254 -0.3162
  709poe     o2 6347   2.581   1.172   3.300 -0.4176 -0.2100 -0.3195
  709poe    c31 6348   2.501   1.231   3.401  0.3333  0.0089  0.1503
  710poe    c31 6349   5.930   0.045   2.803 -0.5266 -0.4158  0.1201
  710poe     o2 6350   6.012  -0.022   2.896  0.0581  0.2318  0.0840
  710poe    c23 6351   6.005  -0.163   2.885  0.1528  0.2197  0.1700
  710poe    c23 6352   6.060  -0.236   3.009 -0.4687 -0.5189  0.0237
  710poe     o2 6353   6.179  -0.179   3.060 -0.2415 -0.5442 -0.4613
  710poe    c23 6354   6.212  -0.260   3.171  0.4158  0.6455  0.2367
  710poe    c23 6355   6.360  -0.258   3.215  0.5031 -0.2275  0.0009
  710poe     o2 6356   6.445  -0.326   3.126 -0.1236 -0.0531 -0.7445
  710poe    c23 6357   6.569  -0.343   3.191 -0.5057 -0.1660 -0.0324
  710poe    c23 6358   6.649  -0.436   3.097 -0.0475 -0.0536  0.2464
  710poe     o2 6359   6.625  -0.396   2.964  0.0351  0.2662  0.3250
  710poe    c31 6360   6.715  -0.457   2.874 -0.3469 -0.0986  0.1838
  711poe    c31 6361   4.365   1.612   6.415  0.3077  0.6980 -0.0477
  711poe     o2 6362   4.241   1.679   6.406  0.1785  0.4728  0.0466
  711poe    c23 6363   4.178   1.670   6.532 -0.1372 -0.1475 -0.1509
  711poe    c23 6364   4.053   1.760   6.543 -0.1157 -0.1409  0.0382
  711poe     o2 6365   3.993   1.742   6.417 -0.1892 -0.0792  0.0648
  711poe    c23 6366   3.860   1.787   6.404 -0.1241  0.2023  0.3654
  711poe    c23 6367   3.834   1.756   6.255 -0.3556 -0.5036  0.5504
  711poe     o2 6368   3.931   1.808   6.168 -0.9325  0.3831  0.4269
  711poe    c23 6369   3.927   1.732   6.050 -0.4870 -0.2083  0.7867
  711poe    c23 6370   4.071   1.711   5.998 -0.4401  0.6443  0.5666
  711poe     o2 6371   4.142   1.662   6.109  0.0431  0.4050  0.1566
  711poe    c31 6372   4.277   1.663   6.070 -0.1103 -0.3146 -0.4163
  712poe    c31 6373   0.902   0.879   4.899  0.8684  0.1936  0.0122
  712poe     o2 6374   0.924   0.779   4.997 -0.1245  0.1243  0.1669
  712poe    c23 6375   0.927   0.822   5.131  0.1078  0.3504  0.0902
  712poe    c23 6376   1.002   0.719   5.217  0.4848 -0.2471 -0.9348
  712poe     o2 6377   0.953   0.586   5.218 -0.0045 -0.0670 -0.2971
  712poe    c23 6378   1.036   0.522   5.311  0.3540  0.3703 -0.3159
  712poe    c23 6379   0.985   0.379   5.332  0.2723  0.4297 -0.1036
  712poe     o2 6380   0.927   0.347   5.207 -0.3878 -0.0805  0.3240
  712poe    c23 6381   0.862   0.223   5.210 -0.3899 -0.0845  0.0695
  712poe    c23 6382   0.778   0.222   5.080  0.2377 -0.1391 -0.3381
  712poe     o2 6383   0.714   0.347   5.075  0.0740 -0.2073  0.0257
  712poe    c31 6384   0.600   0.331   4.993  0.1409  0.3415 -0.1820
  713poe    c31 6385   0.348   0.030   2.959  0.2266  0.3548  0.4962
  713poe     o2 6386   0.398  -0.096   2.996  0.4489  0.0975 -0.6459
  713poe    c23 6387   0.379  -0.193   2.896 -0.5356  0.0508 -0.4210
  713poe    c23 6388   0.400  -0.333   2.958 -0.1583  0.4290  0.3088
  713poe     o2 6389   0.320  -0.334   3.074  0.2160  0.0970  0.5639
  713poe    c23 6390   0.317  -0.457   3.144 -0.4532 -0.0339  0.3104
  713poe    c23 6391   0.264  -0.442   3.287  0.2180 -0.4540  0.6096
  713poe     o2 6392   0.325  -0.323   3.330 -0.1028  0.1621 -0.5953
  713poe    c23 6393   0.284  -0.285   3.459  0.2745 -0.3341 -0.3253
  713poe    c23 6394   0.358  -0.167   3.525  0.1608 -0.2132 -0.4155
  713poe     o2 6395   0.318  -0.048   3.460 -0.1869  0.1912  0.5324
  713poe    c31 6396   0.400   0.065   3.480 -0.2496  0.3921 -0.3176
  714poe    c31 6397   0.458   3.852   0.680 -0.1585 -0.6364 -0.1994
  714poe     o2 6398   0.598   3.835   0.687 -0.0728  0.0341 -0.2019
  714poe    c23 6399   0.642   3.870   0.816 -0.4770 -0.4312  0.0634
  714poe    c23 6400   0.790   3.840   0.789 -0.2583  0.4753  0.2365
  714poe     o2 6401   0.789   3.708   0.740 -0.1881  0.3871  0.4746
  714poe    c23 6402   0.923   3.664   0.738 -0.3094  0.0295  0.1876
  714poe    c23 6403   0.921   3.527   0.667 -0.8125 -0.1669  0.5781
  714poe     o2 6404   0.874   3.550   0.536 -0.6316 -0.2238  0.5033
  714poe    c23 6405   0.890   3.433   0.459 -0.2507  0.2699 -0.1711
  714poe    c23 6406   0.837   3.471   0.319 -0.4218  0.9278  0.0669
  714poe     o2 6407   0.700   3.497   0.305 -0.6047  0.0333  0.1012
  714poe    c31 6408   0.619   3.395   0.252 -0.2621 -0.6054  0.7897
  715poe    c31 6409   5.544   2.158   4.554 -0.3372 -0.2180 -0.4393
  715poe     o2 6410   5.485   2.100   4.667  0.1635 -0.1936 -0.1618
  715poe    c23 6411   5.398   2.200   4.716  0.3858 -0.0956  0.0377
  715poe    c23 6412   5.356   2.139   4.851  0.2985 -0.3460 -0.1022
  715poe     o2 6413   5.332   2.001   4.834  0.1000 -0.2958 -0.2429
  715poe    c23 6414   5.301   1.932   4.953  0.3466 -0.1688 -0.1038
  715poe    c23 6415   5.336   1.783   4.937  0.8762 -0.0484 -0.0835
  715poe     o2 6416   5.467   1.780   4.885  0.7212 -0.0936 -0.4758
  715poe    c23 6417   5.526   1.654   4.862  0.1636 -0.6135  0.8582
  715poe    c23 6418   5.649   1.713   4.790 -0.8224  0.1134 -0.2860
  715poe     o2 6419   5.624   1.817   4.699 -0.1087  0.7484  0.2345
  715poe    c31 6420   5.740   1.856   4.629  0.0855  0.1656  0.2282
  716poe    c31 6421   2.428   5.444   3.865  0.0268  0.4154 -0.2045
  716poe     o2 6422   2.324   5.531   3.827 -0.0428  0.5807  0.3475
  716poe    c23 6423   2.338   5.664   3.874  0.1666  0.4179  0.7505
  716poe    c23 6424   2.245   5.759   3.797  0.1431  0.1143  0.3982
  716poe     o2 6425   2.132   5.675   3.780  0.2780 -0.0506  0.3181
  716poe    c23 6426   2.043   5.733   3.688  0.0715 -0.5952  0.1761
  716poe    c23 6427   1.954   5.616   3.642 -0.4860  0.0250 -0.3556
  716poe     o2 6428   2.027   5.502   3.600 -0.2296  0.0193  0.1056
  716poe    c23 6429   1.954   5.382   3.604  0.3291 -0.3329 -0.1168
  716poe    c23 6430   2.044   5.260   3.576  0.2221 -0.3164 -0.5450
  716poe     o2 6431   2.159   5.283   3.654 -0.2287 -0.2085  0.1035
  716poe    c31 6432   2.255   5.181   3.640  0.3854  0.4047 -0.2454
  717poe    c31 6433   6.146   5.974   0.898 -0.0750  0.1192  0.0362
  717poe     o2 6434   6.155   5.963   1.038 -0.1433  0.4624  0.0690
  717poe    c23 6435   6.153   5.827   1.075  0.4875  0.4117 -0.0694
  717poe    c23 6436   6.108   5.814   1.222 -0.6036  0.9822 -0.3414
  717poe     o2 6437   6.204   5.869   1.310 -0.4759  0.3789 -0.0994
  717poe    c23 6438   6.154   5.859   1.441 -0.4524  0.2416 -0.1002
  717poe    c23 6439   6.285   5.851   1.522 -0.1292  0.0569 -0.6333
  717poe     o2 6440   6.381   5.931   1.457  0.5058 -0.4033 -0.2733
  717poe    c23 6441   6.508   5.929   1.516  0.5311 -0.3688 -0.3263
  717poe    c23 6442   6.598   6.015   1.425  0.2547 -0.1197 -0.3635
  717poe     o2 6443   6.572   5.993   1.288  0.2709 -0.5940 -0.2931
  717poe    c31 6444   6.682   6.038   1.212 -0.1735 -0.0451 -0.6263
  718poe    c31 6445   6.542   3.697   3.775 -0.5999  0.2076  0.3452
  718poe     o2 6446   6.680   3.680   3.796 -0.6717 -0.4416  0.3081
  718poe    c23 6447   6.717   3.555   3.742 -0.2031 -0.2105  0.0827
  718poe    c23 6448   6.867   3.536   3.770 -0.0671  0.1990 -0.3448
  718poe     o2 6449   6.933   3.660   3.769  0.2853  0.0194  0.0167
  718poe    c23 6450   7.068   3.670   3.806 -0.0099  0.0437  1.1379
  718poe    c23 6451   7.096   3.821   3.814  0.2277  0.0648  0.1337
  718poe     o2 6452   6.985   3.875   3.882  0.1479  0.3793 -0.2462
  718poe    c23 6453   6.974   4.016   3.893  0.8112  0.4038  0.1742
  718poe    c23 6454   6.850   4.039   3.981  0.2505  0.3955 -0.5975
  718poe     o2 6455   6.748   3.951   3.941  0.0535  0.4725 -0.2679
  718poe    c31 6456   6.635   3.964   4.024  0.5018  0.2017  0.3918
  719poe    c31 6457   3.650   0.586   3.626  0.7744  0.2219 -0.8616
  719poe     o2 6458   3.725   0.475   3.668 -0.0610 -0.1218 -0.2546
  719poe    c23 6459   3.676   0.361   3.601 -0.0855 -0.0483 -0.3607
  719poe    c23 6460   3.745   0.227   3.632 -0.3158 -0.1699 -0.3726
  719poe     o2 6461   3.704   0.179   3.759  0.2966  0.2571 -0.0099
  719poe    c23 6462   3.729   0.040   3.766  0.0467  0.1960 -0.2828
  719poe    c23 6463   3.688  -0.016   3.904  0.4570 -0.2840 -0.3555
  719poe     o2 6464   3.771   0.012   4.014  0.4304 -0.1419 -0.3710
  719poe    c23 6465   3.715  -0.054   4.126 -0.1193  0.8764 -0.0316
  719poe    c23 6466   3.808  -0.021   4.245  0.1756 -0.3791  0.1009
  719poe     o2 6467   3.834   0.116   4.229 -0.3181 -0.3037 -0.1020
  719poe    c31 6468   3.929   0.160   4.324  0.0197 -0.2296 -0.4708
  720poe    c31 6469   6.647   5.006   0.340 -0.6314  0.2786 -0.4004
  720poe     o2 6470   6.731   4.963   0.445 -0.3490 -0.0077 -0.7416
  720poe    c23 6471   6.851   4.923   0.384  0.0075  0.0588 -0.0856
  720poe    c23 6472   6.954   4.886   0.493 -0.0463  0.2798  0.0432
  720poe     o2 6473   6.908   4.798   0.593  0.4535 -0.2699 -0.2024
  720poe    c23 6474   7.001   4.779   0.698  0.2714 -0.3844 -0.0607
  720poe    c23 6475   6.914   4.772   0.824  0.8312 -0.7392  0.3147
  720poe     o2 6476   6.829   4.660   0.810 -0.4298  0.2821 -0.5030
  720poe    c23 6477   6.723   4.650   0.902 -0.2343  0.0179 -0.3053
  720poe    c23 6478   6.651   4.520   0.862 -0.7511  0.1336  0.2396
  720poe     o2 6479   6.650   4.512   0.722 -0.5969  0.2750  0.2295
  720poe    c31 6480   6.553   4.420   0.678 -0.2755  0.1804 -0.2923
  721poe    c31 6481   3.137   4.333   5.514  0.3395  0.3169  0.2268
  721poe     o2 6482   3.174   4.276   5.638  0.4204  0.3213  0.2045
  721poe    c23 6483   3.177   4.372   5.740  0.1026 -0.0802  0.5952
  721poe    c23 6484   3.229   4.286   5.857  0.3735 -0.9059 -0.1255
  721poe     o2 6485   3.150   4.170   5.865 -1.0065  0.0416  0.3680
  721poe    c23 6486   3.198   4.080   5.962  0.1722 -0.3635 -0.5717
  721poe    c23 6487   3.085   3.976   5.963  0.5159 -0.7377 -0.0474
  721poe     o2 6488   3.043   3.943   5.832  0.1940  0.0479 -0.1461
  721poe    c23 6489   2.956   3.833   5.843  0.4891 -0.1850 -0.1422
  721poe    c23 6490   2.914   3.777   5.706  0.3454  0.2540 -0.2798
  721poe     o2 6491   2.842   3.867   5.625 -0.3048 -0.1542 -0.1607
  721poe    c31 6492   2.840   3.830   5.489 -0.2423  0.6244 -0.3755
  722poe    c31 6493   2.150   5.990   3.341  0.3682 -0.1003  0.0459
  722poe     o2 6494   2.111   6.121   3.375 -0.1070 -0.2525  0.0861
  722poe    c23 6495   2.116   6.144   3.514 -0.0659 -0.0734  0.0558
  722poe    c23 6496   2.156   6.292   3.523 -0.6126  0.0523  0.4303
  722poe     o2 6497   2.059   6.362   3.448  0.1656  0.0920 -0.5629
  722poe    c23 6498   2.097   6.494   3.419 -0.0484  0.2181 -0.2765
  722poe    c23 6499   2.015   6.552   3.302 -0.0126  0.7555 -0.0385
  722poe     o2 6500   2.011   6.452   3.203  0.5949  0.4760  0.2120
  722poe    c23 6501   1.912   6.455   3.102  0.7220 -0.0151  0.0713
  722poe    c23 6502   1.955   6.328   3.026 -0.0219 -0.2243 -0.0042
  722poe     o2 6503   1.974   6.216   3.109 -0.3596 -0.3045 -0.0341
  722poe    c31 6504   1.966   6.099   3.031 -0.7166 -0.3024 -0.0016
  723poe    c31 6505   1.532   5.472   3.672 -0.1746 -0.2328 -0.4140
  723poe     o2 6506   1.455   5.407   3.770  0.4880  0.3341  0.4978
  723poe    c23 6507   1.432   5.491   3.881 -0.1681  0.3826  0.3316
  723poe    c23 6508   1.355   5.416   3.991 -0.3402  0.0393 -0.0228
  723poe     o2 6509   1.256   5.333   3.936 -0.1445 -0.3933  0.2746
  723poe    c23 6510   1.217   5.227   4.021  0.2454 -0.1133  0.8066
  723poe    c23 6511   1.129   5.131   3.938  0.4642  0.2002  0.2014
  723poe     o2 6512   1.210   5.100   3.827 -0.2925 -0.0115 -0.3021
  723poe    c23 6513   1.152   5.071   3.702 -0.4219  0.5299 -0.3711
  723poe    c23 6514   1.121   5.203   3.631 -0.1403  0.4450 -0.6564
  723poe     o2 6515   1.238   5.282   3.634  0.4260 -0.4083  0.0302
  723poe    c31 6516   1.214   5.397   3.557 -0.7378 -0.4795  0.2697
  724poe    c31 6517   4.091   2.152   5.818 -0.6664  0.0799 -0.2825
  724poe     o2 6518   4.162   2.231   5.910 -0.5247 -0.2453 -0.1085
  724poe    c23 6519   4.264   2.295   5.837 -0.3946 -0.4307 -0.0902
  724poe    c23 6520   4.344   2.368   5.947  0.0836 -0.2030 -0.5861
  724poe     o2 6521   4.240   2.443   6.006  0.2615 -0.0369 -0.4816
  724poe    c23 6522   4.305   2.526   6.099  0.1196 -0.1113 -0.3165
  724poe    c23 6523   4.198   2.568   6.202  0.1436  0.0455 -0.3544
  724poe     o2 6524   4.101   2.465   6.207  0.0026  0.2084  0.5026
  724poe    c23 6525   3.969   2.512   6.216 -0.0549  0.0723  0.3760
  724poe    c23 6526   3.887   2.383   6.191  0.3825 -0.0773 -0.3077
  724poe     o2 6527   3.948   2.299   6.096  0.4466 -0.2655 -0.1022
  724poe    c31 6528   3.863   2.190   6.068  0.0968  0.1380 -0.6567
  725poe    c31 6529   2.622   2.067   4.866  0.9731  0.0110 -0.5817
  725poe     o2 6530   2.645   1.958   4.953 -0.5372  0.4736  0.4260
  725poe    c23 6531   2.637   1.847   4.867 -0.5363  0.3143  0.6319
  725poe    c23 6532   2.657   1.721   4.954  0.5819  0.0184 -0.0340
  725poe     o2 6533   2.739   1.768   5.059  0.3729 -0.0889  0.1779
  725poe    c23 6534   2.773   1.660   5.144  0.0442 -0.3222  0.0156
  725poe    c23 6535   2.833   1.718   5.273 -0.0818  0.4843 -0.2794
  725poe     o2 6536   2.779   1.848   5.279 -0.1751  0.4393 -0.1222
  725poe    c23 6537   2.848   1.946   5.354  0.0265  0.5253 -0.4169
  725poe    c23 6538   2.765   2.072   5.324 -0.1410  0.5266  0.0459
  725poe     o2 6539   2.749   2.082   5.184  0.4292  0.1200 -0.0510
  725poe    c31 6540   2.733   2.221   5.165 -0.6944  0.0747  0.4487
  726poe    c31 6541   1.266   5.859   6.592  0.2634 -0.3833 -0.1879
  726poe     o2 6542   1.371   5.764   6.596 -0.0039 -0.6642  0.1833
  726poe    c23 6543   1.483   5.833   6.645 -0.1736 -0.5391  0.3993
  726poe    c23 6544   1.610   5.781   6.575 -0.3288  0.1072 -0.3685
  726poe     o2 6545   1.587   5.653   6.522  0.2061 -0.1482  0.0057
  726poe    c23 6546   1.707   5.585   6.490  0.1361 -0.1377 -0.2831
  726poe    c23 6547   1.650   5.447   6.453 -0.2640 -0.0049 -0.1721
  726poe     o2 6548   1.528   5.467   6.385 -0.3748  0.3363  0.1240
  726poe    c23 6549   1.453   5.348   6.376  0.0153  0.0673  0.4070
  726poe    c23 6550   1.385   5.343   6.514  0.0786 -0.4597  0.4236
  726poe     o2 6551   1.331   5.468   6.551  0.2318 -0.2358 -0.0918
  726poe    c31 6552   1.237   5.463   6.656 -0.3147  0.6290 -0.5289
  727poe    c31 6553   5.977   2.480   2.706  0.8280 -0.3023 -0.1338
  727poe     o2 6554   5.960   2.513   2.570  0.1630  0.0186  0.0236
  727poe    c23 6555   6.080   2.474   2.508 -0.1228 -0.6290 -0.1235
  727poe    c23 6556   6.066   2.479   2.354  0.2322  0.2002 -0.1335
  727poe     o2 6557   5.971   2.579   2.326  0.4271  0.4719  0.1641
  727poe    c23 6558   5.935   2.572   2.190  0.4668  0.4872  0.1526
  727poe    c23 6559   5.811   2.664   2.191 -0.1255 -0.3008  0.2065
  727poe     o2 6560   5.743   2.620   2.306 -0.2139  0.2989  0.3886
  727poe    c23 6561   5.627   2.691   2.343 -0.4838  0.1754 -0.2140
  727poe    c23 6562   5.561   2.605   2.453 -0.0792  0.1617  0.0203
  727poe     o2 6563   5.680   2.551   2.504 -0.0861  0.0432 -0.0868
  727poe    c31 6564   5.661   2.452   2.603  0.2796 -0.2223 -0.2771
  728poe    c31 6565   2.168   4.527   4.438  0.3015 -0.0471 -0.1424
  728poe     o2 6566   2.217   4.657   4.416 -0.0148  0.1312  0.1989
  728poe    c23 6567   2.355   4.671   4.437 -0.0332 -0.0368  0.4283
  728poe    c23 6568   2.389   4.816   4.477 -0.2504  0.1014  0.1163
  728poe     o2 6569   2.391   4.907   4.370  0.0279  0.0816  0.1034
  728poe    c23 6570   2.430   5.035   4.416 -0.2521  0.2238 -0.0494
  728poe    c23 6571   2.406   5.134   4.301 -0.0523  0.2326 -0.0839
  728poe     o2 6572   2.279   5.115   4.243 -0.0496 -0.0779  0.0128
  728poe    c23 6573   2.257   5.204   4.136  0.6612 -0.4667 -0.4660
  728poe    c23 6574   2.135   5.147   4.062 -0.0090  0.3350  0.0055
  728poe     o2 6575   2.175   5.013   4.043 -0.4686  0.1340  0.4362
  728poe    c31 6576   2.086   4.958   3.948  0.0982 -0.0629  0.0133
  729poe    c31 6577   3.556   5.127   5.316  0.1634  0.2670  0.1499
  729poe     o2 6578   3.661   5.062   5.384  0.1778  0.1269 -0.0026
  729poe    c23 6579   3.638   4.924   5.400  0.1210  0.1358 -0.0141
  729poe    c23 6580   3.776   4.860   5.425 -0.1645 -0.2215  0.6748
  729poe     o2 6581   3.850   4.948   5.507  0.3371  0.1364 -0.1431
  729poe    c23 6582   3.984   4.917   5.538  0.2424 -0.3567 -0.2184
  729poe    c23 6583   4.048   5.052   5.573 -0.0342 -0.1694 -0.4281
  729poe     o2 6584   4.005   5.160   5.493  0.2704 -0.0048 -0.3741
  729poe    c23 6585   4.029   5.290   5.541 -0.2987 -0.1622  0.3743
  729poe    c23 6586   3.929   5.385   5.471  0.1236 -0.0583 -0.0962
  729poe     o2 6587   3.804   5.320   5.481  0.4826 -0.7031  0.2933
  729poe    c31 6588   3.706   5.421   5.469  0.3192 -0.9530 -0.5142
  730poe    c31 6589   0.871   3.069   4.798 -0.7587  0.0546  0.4221
  730poe     o2 6590   0.880   2.935   4.755 -0.0505  0.1760  0.1812
  730poe    c23 6591   0.747   2.890   4.744  0.0994 -0.2844  0.2560
  730poe    c23 6592   0.743   2.741   4.704 -0.1383 -0.0840 -0.4907
  730poe     o2 6593   0.849   2.735   4.611  0.0436 -0.0808 -0.2862
  730poe    c23 6594   0.873   2.604   4.566  0.7043 -0.1586  0.2858
  730poe    c23 6595   0.999   2.623   4.479  0.4139 -0.3092 -0.1710
  730poe     o2 6596   1.086   2.690   4.567 -0.1968 -0.0166  0.2132
  730poe    c23 6597   1.208   2.724   4.506  0.0051  0.7062  0.9970
  730poe    c23 6598   1.289   2.786   4.621  0.3734  0.1809  1.0264
  730poe     o2 6599   1.206   2.883   4.682 -0.2776  0.1508  0.1959
  730poe    c31 6600   1.271   2.928   4.798  0.1375  0.0947 -0.0122
  731poe    c31 6601   0.690   6.301   0.936  0.4999 -0.1047 -0.2733
  731poe     o2 6602   0.567   6.248   0.894  0.0768  0.7960 -0.2089
  731poe    c23 6603   0.556   6.225   0.755  0.1496  0.4109 -0.1540
  731poe    c23 6604   0.442   6.124   0.733  0.2692  0.2674 -0.1126
  731poe     o2 6605   0.336   6.196   0.793 -0.3965 -0.1087 -0.8182
  731poe    c23 6606   0.215   6.127   0.814  0.1749 -0.6561  0.8067
  731poe    c23 6607   0.136   6.210   0.917 -0.2372 -0.0100 -0.0226
  731poe     o2 6608   0.222   6.233   1.026  0.0922  0.3347 -0.3493
  731poe    c23 6609   0.159   6.311   1.126 -0.1764 -0.2938 -0.0200
  731poe    c23 6610   0.258   6.320   1.243  0.0481  0.2024 -0.2447
  731poe     o2 6611   0.391   6.312   1.197  0.1235 -0.0711  0.0159
  731poe    c31 6612   0.483   6.338   1.300 -0.1975 -0.1053  0.3132
  732poe    c31 6613   5.726   2.936   5.900 -0.0242 -0.1180  0.0070
  732poe     o2 6614   5.734   2.804   5.852 -0.4551 -0.1310 -0.0335
  732poe    c23 6615   5.755   2.709   5.955  0.2588 -0.3590 -0.3817
  732poe    c23 6616   5.724   2.567   5.904 -0.4922 -0.3291 -0.0273
  732poe     o2 6617   5.801   2.547   5.787 -0.0382  0.3266  0.1538
  732poe    c23 6618   5.762   2.429   5.721  0.0153  0.3025  0.1653
  732poe    c23 6619   5.815   2.435   5.577  0.6979  0.4620  0.4164
  732poe     o2 6620   5.775   2.566   5.542 -0.1674  0.2270  0.4911
  732poe    c23 6621   5.839   2.613   5.425  0.0150 -0.2755  0.3842
  732poe    c23 6622   5.793   2.759   5.407 -0.1076 -0.3478  0.1176
  732poe     o2 6623   5.798   2.833   5.526 -0.0965 -0.0318 -0.0786
  732poe    c31 6624   5.707   2.940   5.512  0.0092  0.0597 -0.0606
  733poe    c31 6625   2.376   1.006   0.583 -0.0084 -0.2012 -0.6920
  733poe     o2 6626   2.451   1.119   0.546 -0.0383 -0.0496 -0.3009
  733poe    c23 6627   2.373   1.222   0.489  0.0158  0.1759  0.0321
  733poe    c23 6628   2.447   1.356   0.502  0.1338  0.0477  0.7517
  733poe     o2 6629   2.584   1.333   0.478  0.1029  0.3716  0.2557
  733poe    c23 6630   2.672   1.434   0.523  0.2871  0.4262 -0.2102
  733poe    c23 6631   2.807   1.361   0.530 -0.1846 -0.4961 -0.5959
  733poe     o2 6632   2.769   1.233   0.575  0.3823 -0.3355  0.3725
  733poe    c23 6633   2.873   1.137   0.575  0.1558 -0.5888 -0.2013
  733poe    c23 6634   2.821   1.012   0.649 -0.3182 -0.0822  0.3417
  733poe     o2 6635   2.698   0.970   0.594  0.1418 -0.3159 -0.5343
  733poe    c31 6636   2.670   0.838   0.635  0.3621 -0.2451 -0.1532
  734poe    c31 6637   5.870   1.192   3.041  0.2599  0.0785 -0.6937
  734poe     o2 6638   5.790   1.079   3.012  0.0876 -0.1636  0.6685
  734poe    c23 6639   5.873   0.970   2.980  0.0669 -0.0308  0.1557
  734poe    c23 6640   5.793   0.840   2.956  0.0334  0.0646 -0.2531
  734poe     o2 6641   5.681   0.849   3.042 -0.0208  0.1370 -0.3308
  734poe    c23 6642   5.583   0.748   3.042  0.1472 -0.0313  0.2204
  734poe    c23 6643   5.478   0.783   3.149 -0.0495 -0.0662  0.0400
  734poe     o2 6644   5.472   0.924   3.162  0.3618 -0.0867  0.4744
  734poe    c23 6645   5.391   0.985   3.260  0.0709  0.1909  0.0585
  734poe    c23 6646   5.393   1.133   3.218  0.2005  0.1376 -0.1259
  734poe     o2 6647   5.523   1.169   3.177  0.2486  0.3408  0.1971
  734poe    c31 6648   5.523   1.304   3.137  0.0848  0.2018 -0.2788
  735poe    c31 6649   1.916   1.718   2.760  0.0882 -0.6786 -0.1103
  735poe     o2 6650   1.996   1.674   2.653 -0.3830 -0.1328 -0.6989
  735poe    c23 6651   2.038   1.780   2.570 -0.0110  0.4980  0.2685
  735poe    c23 6652   2.093   1.722   2.438  0.7021 -0.0934  0.8190
  735poe     o2 6653   2.146   1.594   2.464  0.1537 -0.4000  0.4502
  735poe    c23 6654   2.160   1.517   2.347  0.0015 -0.2253  0.3176
  735poe    c23 6655   2.187   1.375   2.398 -0.3696 -0.2898  0.3340
  735poe     o2 6656   2.093   1.351   2.500 -0.2111 -0.2914  0.4804
  735poe    c23 6657   2.124   1.230   2.565 -0.1706 -0.7965 -0.4664
  735poe    c23 6658   2.028   1.215   2.685 -0.2111  0.1291 -0.3772
  735poe     o2 6659   2.012   1.345   2.737  0.4051 -0.0821  0.3656
  735poe    c31 6660   1.964   1.361   2.868  0.0066 -0.4983  0.2724
  736poe    c31 6661   0.766   1.226   5.278  0.4777 -0.1677  0.0737
  736poe     o2 6662   0.728   1.336   5.198 -0.1674 -0.5809 -0.1914
  736poe    c23 6663   0.803   1.333   5.078 -0.0247 -0.0154 -0.1171
  736poe    c23 6664   0.704   1.369   4.966 -0.7488 -0.1198  0.4763
  736poe     o2 6665   0.645   1.490   5.007 -0.3157  0.2796 -0.0659
  736poe    c23 6666   0.512   1.499   4.963 -0.5613 -0.3743  0.5404
  736poe    c23 6667   0.419   1.562   5.068 -0.5844 -0.0997  0.3554
  736poe     o2 6668   0.494   1.562   5.187 -0.1706 -0.0576  0.0950
  736poe    c23 6669   0.432   1.612   5.304 -0.1165  0.0388  0.0825
  736poe    c23 6670   0.539   1.614   5.415 -0.1761  0.3581  0.1348
  736poe     o2 6671   0.652   1.536   5.385 -0.7152 -0.4587  0.1952
  736poe    c31 6672   0.708   1.490   5.506  0.4031  0.2233 -0.0497
  737poe    c31 6673   1.483   5.734   2.266  0.2953  0.5632 -0.6807
  737poe     o2 6674   1.593   5.655   2.304 -0.4251  0.1096  0.5221
  737poe    c23 6675   1.565   5.545   2.387 -0.3183 -0.5986 -0.3602
  737poe    c23 6676   1.690   5.468   2.434 -0.1017  0.0672  0.1694
  737poe     o2 6677   1.774   5.433   2.326  0.2053  0.1577  0.3764
  737poe    c23 6678   1.782   5.292   2.325  0.1975  0.1586 -0.1214
  737poe    c23 6679   1.826   5.244   2.186  0.6364 -0.1648  0.1294
  737poe     o2 6680   1.946   5.316   2.170  0.1800  0.6392  0.3196
  737poe    c23 6681   2.010   5.276   2.051 -0.1470  0.5641  0.1664
  737poe    c23 6682   2.111   5.383   2.003  0.2782 -0.0838 -0.3988
  737poe     o2 6683   2.041   5.501   2.033  0.2776  0.0131 -0.7836
  737poe    c31 6684   2.100   5.604   1.956 -0.3801  0.5071 -0.6388
  738poe    c31 6685   1.535   4.301   4.931 -0.0411  1.0212 -0.3060
  738poe     o2 6686   1.672   4.288   4.904  0.0361  0.5635  0.2892
  738poe    c23 6687   1.703   4.354   4.783  0.0810  0.3793  0.1989
  738poe    c23 6688   1.848   4.321   4.743 -0.1580 -0.5898  0.1246
  738poe     o2 6689   1.915   4.310   4.867  0.4269  0.3634 -0.1017
  738poe    c23 6690   2.053   4.291   4.845  0.2864 -0.3779 -0.3846
  738poe    c23 6691   2.109   4.296   4.989 -0.4476  0.9223 -0.1263
  738poe     o2 6692   2.017   4.242   5.081 -0.0081  0.0877 -0.1736
  738poe    c23 6693   2.033   4.285   5.215  0.0533 -0.4749  0.0023
  738poe    c23 6694   1.892   4.297   5.275  0.3212  0.2328  0.4985
  738poe     o2 6695   1.794   4.336   5.183  0.5167  0.4207  0.3698
  738poe    c31 6696   1.673   4.375   5.245  0.2810  0.3877 -0.0638
  739poe    c31 6697   5.219   0.277   5.390 -0.3571  0.5353 -0.8205
  739poe     o2 6698   5.203   0.410   5.435 -0.2592  0.2308  0.1330
  739poe    c23 6699   5.287   0.436   5.545  0.6104  0.4404 -0.5704
  739poe    c23 6700   5.221   0.540   5.638  0.3107  0.0525 -0.3475
  739poe     o2 6701   5.201   0.672   5.593 -0.1701 -0.1248 -0.6607
  739poe    c23 6702   5.148   0.747   5.700 -0.4155 -0.2396 -0.6995
  739poe    c23 6703   4.998   0.774   5.681 -0.3501  0.5985 -0.0669
  739poe     o2 6704   4.993   0.822   5.548  0.0822  0.4801 -0.1257
  739poe    c23 6705   4.869   0.886   5.534 -0.1277  0.0104 -0.4371
  739poe    c23 6706   4.815   0.933   5.398 -0.1318  0.1451 -0.3894
  739poe     o2 6707   4.853   0.822   5.320 -0.5093 -0.3988  0.1919
  739poe    c31 6708   4.804   0.831   5.188  0.0733 -0.4915 -0.0380
  740poe    c31 6709   2.118   3.690   1.512  0.2276 -0.4616 -0.2594
  740poe     o2 6710   2.081   3.625   1.393 -0.5589 -0.0875 -0.2255
  740poe    c23 6711   2.053   3.488   1.413  0.3032 -0.1980  0.3061
  740poe    c23 6712   1.984   3.444   1.282 -0.1747  0.0360  0.4745
  740poe     o2 6713   1.908   3.551   1.232 -0.2652 -0.0350  0.4593
  740poe    c23 6714   1.843   3.495   1.120  0.2941 -0.1608  0.1935
  740poe    c23 6715   1.747   3.599   1.059  0.3486 -0.1587  0.1096
  740poe     o2 6716   1.811   3.723   1.044  0.1932 -0.0789  0.1076
  740poe    c23 6717   1.720   3.810   0.979  0.2073 -0.2305 -0.1140
  740poe    c23 6718   1.781   3.951   0.990 -0.3403 -0.0091  0.1243
  740poe     o2 6719   1.855   3.952   1.110  0.3928 -0.0737 -0.3200
  740poe    c31 6720   1.896   4.079   1.156  0.5099 -0.1291 -0.2706
  741poe    c31 6721   4.189   3.683   5.173  0.3081  0.4294 -0.1740
  741poe     o2 6722   4.238   3.602   5.068  0.0273  0.3208 -0.2214
  741poe    c23 6723   4.304   3.687   4.977  0.3636  0.3099  0.0132
  741poe    c23 6724   4.428   3.608   4.930 -0.0348 -0.2778 -0.0530
  741poe     o2 6725   4.377   3.487   4.878 -0.4850  0.0715 -0.4400
  741poe    c23 6726   4.473   3.383   4.871 -0.4146  0.0919  0.1565
  741poe    c23 6727   4.380   3.263   4.846  0.3068 -0.5503  0.5378
  741poe     o2 6728   4.285   3.248   4.949  0.2014 -0.8094  0.4051
  741poe    c23 6729   4.176   3.171   4.904 -0.5523  0.4491  0.0219
  741poe    c23 6730   4.072   3.196   5.015 -0.0679 -0.8262  0.7992
  741poe     o2 6731   4.073   3.335   5.040  0.0515 -0.5890 -0.4530
  741poe    c31 6732   3.968   3.379   5.122  0.5897 -0.5213  0.2110
  742poe    c31 6733   0.397   4.424   5.219 -0.6950  0.2740 -0.6189
  742poe     o2 6734   0.357   4.522   5.312  0.2299  0.0942 -0.0219
  742poe    c23 6735   0.399   4.655   5.289  0.2898  0.0980  0.1063
  742poe    c23 6736   0.440   4.701   5.430  0.1028  0.3218  0.0873
  742poe     o2 6737   0.331   4.689   5.520  0.1035  0.0093  0.0454
  742poe    c23 6738   0.350   4.725   5.655 -0.5322 -0.3246  0.2273
  742poe    c23 6739   0.232   4.660   5.730 -0.7086 -0.1190  0.1294
  742poe     o2 6740   0.214   4.546   5.648 -0.0956 -0.1958  0.0989
  742poe    c23 6741   0.109   4.465   5.696 -0.0688 -0.0594  0.3931
  742poe    c23 6742   0.111   4.335   5.613 -0.1043  0.2191 -0.0455
  742poe     o2 6743   0.144   4.363   5.479 -0.1414  0.3499 -0.0276
  742poe    c31 6744   0.108   4.263   5.386  0.0020  0.4315 -0.1700
  743poe    c31 6745   1.880   2.596   1.243  0.4321  0.3058 -0.3553
  743poe     o2 6746   1.983   2.528   1.310  0.3414  0.3125 -0.2083
  743poe    c23 6747   1.996   2.406   1.240 -0.4773 -0.3162  0.7167
  743poe    c23 6748   2.123   2.340   1.296 -0.2234 -1.2499 -0.9012
  743poe     o2 6749   2.114   2.354   1.436  0.1393  0.2734 -1.0183
  743poe    c23 6750   2.240   2.354   1.500 -0.2656  0.5728 -0.2043
  743poe    c23 6751   2.231   2.352   1.654  0.7030  0.5679 -0.1445
  743poe     o2 6752   2.130   2.444   1.689 -0.1296 -0.3240 -0.1537
  743poe    c23 6753   2.085   2.445   1.822 -0.1267  0.2413 -0.1557
  743poe    c23 6754   2.025   2.581   1.864 -0.3000  0.2863 -0.5477
  743poe     o2 6755   1.915   2.620   1.784 -0.2050  0.6246 -0.5144
  743poe    c31 6756   1.869   2.750   1.813 -0.6970  0.4023 -0.2987
  744poe    c31 6757   5.197   2.281   3.208 -0.3460 -0.2014 -0.2399
  744poe     o2 6758   5.073   2.320   3.153 -0.3487 -0.1489 -0.1968
  744poe    c23 6759   5.052   2.241   3.038 -0.2336  0.1229 -0.4048
  744poe    c23 6760   4.913   2.275   2.981 -0.1923  0.1533 -0.4889
  744poe     o2 6761   4.880   2.411   2.999 -0.1292  0.0971  0.0681
  744poe    c23 6762   4.762   2.450   2.933 -0.3435  0.1131  0.4546
  744poe    c23 6763   4.725   2.593   2.973 -0.5710  0.0951  0.3137
  744poe     o2 6764   4.738   2.607   3.113 -0.0888 -0.3398  0.3132
  744poe    c23 6765   4.690   2.735   3.148  0.4370 -0.1531  0.3635
  744poe    c23 6766   4.695   2.754   3.301 -0.0352 -0.0555  0.3666
  744poe     o2 6767   4.710   2.626   3.358 -0.9367 -0.5258 -0.4150
  744poe    c31 6768   4.699   2.637   3.498 -0.4454  0.5698 -0.4546
  745poe    c31 6769   5.780   1.037   6.143 -0.1716  0.2057  0.1909
  745poe     o2 6770   5.840   0.941   6.059  0.6453  0.6786  0.2243
  745poe    c23 6771   5.959   0.893   6.119 -0.0428 -0.9681  0.3481
  745poe    c23 6772   6.044   0.839   6.003  0.4732 -0.1502  0.3324
  745poe     o2 6773   5.966   0.743   5.934  0.1362  0.3259  0.0504
  745poe    c23 6774   6.002   0.732   5.798 -0.1808 -0.2383  0.0104
  745poe    c23 6775   5.873   0.697   5.722  0.0848 -0.4974 -0.3200
  745poe     o2 6776   5.787   0.808   5.734  0.1508 -0.4574 -0.2104
  745poe    c23 6777   5.661   0.800   5.671 -0.0883  0.5670  0.1363
  745poe    c23 6778   5.569   0.907   5.734 -0.1822  0.4592  0.1812
  745poe     o2 6779   5.588   0.906   5.873  0.1147 -0.4318  0.1411
  745poe    c31 6780   5.489   0.991   5.927  0.2130 -0.2920  0.1032
  746poe    c31 6781   4.574   3.486   4.544 -0.4933  0.3372  0.2112
  746poe     o2 6782   4.612   3.351   4.534 -0.5760  0.3491 -0.3390
  746poe    c23 6783   4.750   3.321   4.546 -0.6565  0.0399 -0.1691
  746poe    c23 6784   4.785   3.174   4.576 -0.2127  0.1335 -0.2343
  746poe     o2 6785   4.763   3.091   4.464  0.1867 -0.1092 -0.1348
  746poe    c23 6786   4.775   2.953   4.490 -0.0144 -0.0842  0.0884
  746poe    c23 6787   4.721   2.867   4.374 -0.0518  0.2179 -0.1182
  746poe     o2 6788   4.591   2.912   4.341  0.1297  0.4384 -0.5347
  746poe    c23 6789   4.515   2.821   4.265 -0.0862 -0.4789  0.7422
  746poe    c23 6790   4.375   2.879   4.242  0.3246  0.4005  0.3924
  746poe     o2 6791   4.374   3.011   4.192  0.1876  0.2812  0.0804
  746poe    c31 6792   4.249   3.029   4.129  0.1526 -0.7835 -0.1851
  747poe    c31 6793   1.039   3.632   4.500 -0.0673 -0.3093  0.2639
  747poe     o2 6794   1.041   3.736   4.595 -0.2526 -0.3099  0.2683
  747poe    c23 6795   0.913   3.771   4.644 -0.0075  0.1749  0.5793
  747poe    c23 6796   0.902   3.920   4.679 -0.7649  0.2612  0.0200
  747poe     o2 6797   0.993   3.950   4.783 -0.1944 -0.3059 -0.3119
  747poe    c23 6798   0.960   3.892   4.907 -0.4294 -0.1977 -0.3241
  747poe    c23 6799   1.098   3.868   4.971 -0.4107  0.0956 -0.2517
  747poe     o2 6800   1.161   3.783   4.878  0.0164  0.0822  0.0501
  747poe    c23 6801   1.282   3.738   4.935  0.2502  0.3113 -0.2656
  747poe    c23 6802   1.320   3.628   4.834 -0.1260 -0.0130 -0.0530
  747poe     o2 6803   1.300   3.682   4.705  0.8739 -0.0952 -0.2488
  747poe    c31 6804   1.388   3.616   4.617  0.6978 -0.0050 -0.4922
  748poe    c31 6805   2.209   5.740   4.296 -0.1280 -0.9336 -0.0633
  748poe     o2 6806   2.165   5.853   4.368 -0.0652 -0.4064 -0.8445
  748poe    c23 6807   2.025   5.866   4.366 -0.0829 -0.5018 -0.3429
  748poe    c23 6808   2.007   6.019   4.359  0.3573 -0.4494 -0.3637
  748poe     o2 6809   2.072   6.077   4.470 -0.2557 -0.3401 -0.0565
  748poe    c23 6810   2.065   6.218   4.457  0.3879 -0.3015  0.0238
  748poe    c23 6811   2.207   6.265   4.492  0.1256  0.2514  0.3510
  748poe     o2 6812   2.292   6.170   4.432 -0.3254 -0.1004  0.2692
  748poe    c23 6813   2.429   6.203   4.426 -0.2995 -0.4053 -1.2018
  748poe    c23 6814   2.495   6.088   4.348  0.0379 -0.4619 -0.8361
  748poe     o2 6815   2.446   5.961   4.385 -0.3911  0.0058  0.2384
  748poe    c31 6816   2.549   5.864   4.379 -0.6109 -0.2048 -0.1498
  749poe    c31 6817   0.092   6.083   0.232 -0.1887 -0.3828  0.2355
  749poe     o2 6818   0.012   6.144   0.133 -0.0482  0.0604  0.3943
  749poe    c23 6819  -0.112   6.179   0.189  0.0239  0.2907  0.4092
  749poe    c23 6820  -0.188   6.284   0.105  0.6136  0.5940  0.2461
  749poe     o2 6821  -0.209   6.231  -0.024 -0.3852  0.3201  0.5091
  749poe    c23 6822  -0.290   6.325  -0.090 -0.7387  0.0210  0.5132
  749poe    c23 6823  -0.323   6.289  -0.236  0.2790  0.2043  0.2325
  749poe     o2 6824  -0.215   6.221  -0.298 -0.3758 -0.5868 -0.0583
  749poe    c23 6825  -0.199   6.228  -0.438 -0.1381  0.3186  0.0029
  749poe    c23 6826  -0.297   6.146  -0.523  0.1991 -0.0218 -0.0618
  749poe     o2 6827  -0.294   6.006  -0.508  0.3425 -0.0143 -0.0228
  749poe    c31 6828  -0.417   5.969  -0.567  0.3962  0.1145 -0.2169
  750poe    c31 6829   4.724   4.679   6.289 -0.0543 -0.3641 -0.0823
  750poe     o2 6830   4.778   4.549   6.283  0.4339 -0.1810  0.2487
  750poe    c23 6831   4.859   4.522   6.171 -0.0582 -0.4635 -0.0452
  750poe    c23 6832   4.907   4.376   6.186  0.1807 -0.3940 -0.1281
  750poe     o2 6833   4.945   4.367   6.321 -0.4055  0.3391  0.0930
  750poe    c23 6834   5.014   4.245   6.343 -0.4214  0.4119  0.5708
  750poe    c23 6835   5.112   4.255   6.461  0.1869 -0.6794  0.1712
  750poe     o2 6836   5.041   4.316   6.566  0.2793 -0.0655 -0.1181
  750poe    c23 6837   5.125   4.314   6.680  0.3537  0.2013 -0.1678
  750poe    c23 6838   5.067   4.388   6.802  0.7636  0.1289  0.0720
  750poe     o2 6839   5.015   4.516   6.773 -0.7329 -0.4789 -0.0378
  750poe    c31 6840   4.957   4.569   6.890 -0.0788  0.2363 -0.0329
  751poe    c31 6841   3.799   6.193   1.528  0.3091 -0.1779 -0.3048
  751poe     o2 6842   3.879   6.107   1.449  0.0609 -0.6043 -0.0906
  751poe    c23 6843   3.876   6.144   1.313 -0.0297 -0.6963 -0.1141
  751poe    c23 6844   3.926   6.038   1.214  0.5542 -0.1596 -0.4049
  751poe     o2 6845   4.049   6.012   1.277  0.1291 -0.0067  0.5123
  751poe    c23 6846   4.123   5.905   1.224  0.1924  0.3507 -0.1366
  751poe    c23 6847   4.259   5.935   1.291  0.1660  0.3381 -0.0772
  751poe     o2 6848   4.244   5.921   1.430 -0.0501 -0.0501 -0.1380
  751poe    c23 6849   4.341   5.986   1.509 -0.2001 -0.1434  0.1261
  751poe    c23 6850   4.279   5.994   1.650 -0.0515 -0.6928  0.2231
  751poe     o2 6851   4.150   6.050   1.649  0.1905 -0.1268  0.4280
  751poe    c31 6852   4.115   6.070   1.784 -0.3334  0.5273  0.1999
  752poe    c31 6853   0.931   5.646   4.342  0.2210 -0.0981 -0.8663
  752poe     o2 6854   1.044   5.727   4.318 -0.0650  0.4943 -0.2402
  752poe    c23 6855   1.075   5.731   4.180 -0.3624 -0.0595 -0.3287
  752poe    c23 6856   1.201   5.819   4.163 -0.3305 -0.0475 -0.0465
  752poe     o2 6857   1.288   5.792   4.270 -0.3911  0.1659  0.0559
  752poe    c23 6858   1.416   5.841   4.237 -0.1539 -0.5633 -0.1073
  752poe    c23 6859   1.493   5.814   4.368  0.0214  0.5825  0.0304
  752poe     o2 6860   1.429   5.853   4.487  0.0655  0.1327  0.2030
  752poe    c23 6861   1.391   5.989   4.498  0.5108  0.2880 -0.1568
  752poe    c23 6862   1.258   6.014   4.571  0.3893 -0.5531 -0.0764
  752poe     o2 6863   1.173   5.939   4.488  0.1425  0.1709 -0.4899
  752poe    c31 6864   1.060   6.021   4.471  0.0003 -0.0505 -0.6135
  753poe    c31 6865   5.454   6.482   1.189  0.3130 -0.0186  0.1901
  753poe     o2 6866   5.532   6.493   1.306  0.5007  0.0881  0.0549
  753poe    c23 6867   5.447   6.556   1.400  0.0677 -0.0801 -0.2192
  753poe    c23 6868   5.528   6.543   1.530 -0.2952  0.3677  0.0537
  753poe     o2 6869   5.662   6.578   1.504 -0.1784 -0.3232 -0.3096
  753poe    c23 6870   5.757   6.542   1.601 -0.2161 -0.3489 -0.2815
  753poe    c23 6871   5.890   6.579   1.532  0.0116 -0.2351  0.2184
  753poe     o2 6872   5.869   6.507   1.413  0.6960 -0.1249  0.0287
  753poe    c23 6873   5.983   6.507   1.330  0.4787 -0.1462 -0.2722
  753poe    c23 6874   5.930   6.413   1.221 -0.2452 -0.2705  0.1785
  753poe     o2 6875   5.793   6.428   1.189 -0.1282  0.1009 -0.1703
  753poe    c31 6876   5.760   6.342   1.082  0.1285 -0.1302 -0.0664
  754poe    c31 6877   3.673   2.612   1.341 -0.1464 -0.0786  0.2462
  754poe     o2 6878   3.597   2.496   1.368  0.2404 -0.2976  0.4044
  754poe    c23 6879   3.606   2.425   1.247 -0.3785 -0.2033  0.3035
  754poe    c23 6880   3.578   2.277   1.279 -0.0886 -0.2931  0.1457
  754poe     o2 6881   3.475   2.269   1.376  0.0697  0.5341  0.3875
  754poe    c23 6882   3.454   2.143   1.435 -0.6044  0.3102 -0.3068
  754poe    c23 6883   3.310   2.139   1.490 -0.6460  0.4357 -0.4068
  754poe     o2 6884   3.282   2.268   1.538 -0.2252  0.4064 -0.0745
  754poe    c23 6885   3.144   2.261   1.566 -0.1412 -0.1271  0.2169
  754poe    c23 6886   3.101   2.380   1.654  0.0294  0.2474 -0.2052
  754poe     o2 6887   3.104   2.501   1.581 -0.0094  0.1569 -0.3552
  754poe    c31 6888   3.035   2.608   1.641 -1.0686 -0.5925 -0.2090
  755poe    c31 6889   4.413   5.202   2.329  0.0871 -0.0089 -0.5901
  755poe     o2 6890   4.379   5.333   2.289 -0.7684 -0.1729 -0.4235
  755poe    c23 6891   4.274   5.340   2.196 -0.8513 -0.4702 -0.3516
  755poe    c23 6892   4.284   5.470   2.114  0.1143  0.0766  0.6133
  755poe     o2 6893   4.276   5.587   2.193 -0.4411  0.4500  0.0236
  755poe    c23 6894   4.314   5.706   2.129  0.4201  0.3073  0.2507
  755poe    c23 6895   4.252   5.824   2.207 -0.9070 -0.1865 -0.0278
  755poe     o2 6896   4.260   5.798   2.345 -0.2306  0.0786 -0.0085
  755poe    c23 6897   4.228   5.921   2.407 -0.0525  0.1328 -0.0252
  755poe    c23 6898   4.225   5.915   2.561 -0.1942  0.0907 -0.0292
  755poe     o2 6899   4.112   5.854   2.617  0.0383 -0.2803  0.0395
  755poe    c31 6900   4.115   5.820   2.754  0.3842  0.0564  0.1153
  756poe    c31 6901   6.278   2.229   0.573  0.2560 -0.1046 -0.1864
  756poe     o2 6902   6.311   2.121   0.489  0.1325 -0.2607 -0.0359
  756poe    c23 6903   6.345   1.995   0.541 -0.5613 -0.4539 -0.0360
  756poe    c23 6904   6.383   1.884   0.441 -0.3467 -0.2810 -0.1478
  756poe     o2 6905   6.290   1.911   0.338  0.0265 -0.1601 -0.4577
  756poe    c23 6906   6.315   1.842   0.217  0.2415 -0.2348 -0.3705
  756poe    c23 6907   6.212   1.888   0.112  0.1089 -0.1715 -0.2133
  756poe     o2 6908   6.192   2.025   0.140  0.3543 -0.2101  0.1642
  756poe    c23 6909   6.099   2.084   0.052 -0.2215 -0.1563  0.8016
  756poe    c23 6910   6.107   2.230   0.100 -0.4962  0.0890  0.1220
  756poe     o2 6911   6.115   2.237   0.241 -0.1031 -0.3723  0.1247
  756poe    c31 6912   6.112   2.370   0.287 -0.1636 -0.2975 -0.0939
  757poe    c31 6913   1.703   3.017   0.544 -0.0892 -0.1663  0.4701
  757poe     o2 6914   1.603   2.940   0.606 -0.3371  0.0450  0.3310
  757poe    c23 6915   1.631   2.920   0.743 -0.2120 -0.3915  0.2422
  757poe    c23 6916   1.549   2.805   0.805 -0.1308 -0.6576 -0.1366
  757poe     o2 6917   1.423   2.834   0.749  0.0431 -0.2726 -0.3385
  757poe    c23 6918   1.333   2.726   0.734  0.1467 -0.3869 -0.1402
  757poe    c23 6919   1.212   2.779   0.655  0.1292  0.4105  0.4022
  757poe     o2 6920   1.266   2.844   0.542 -0.6732 -0.0615 -0.2641
  757poe    c23 6921   1.177   2.894   0.444 -0.4414 -0.1965 -0.5432
  757poe    c23 6922   1.273   2.930   0.329  0.2661 -0.0949  0.0646
  757poe     o2 6923   1.378   3.012   0.375  0.2624 -0.0228 -0.0514
  757poe    c31 6924   1.418   3.101   0.274 -0.2131  0.2927  0.0335
  758poe    c31 6925   4.715   6.084   5.593 -0.7181 -0.1329 -0.1814
  758poe     o2 6926   4.678   6.129   5.722  0.1598  0.1463 -0.0160
  758poe    c23 6927   4.598   6.244   5.709 -0.2830 -0.1444  0.0913
  758poe    c23 6928   4.609   6.306   5.850  0.3092 -0.0849  0.0220
  758poe     o2 6929   4.537   6.219   5.935  0.0332  0.4323  0.3222
  758poe    c23 6930   4.523   6.270   6.066 -0.4116  0.0252  0.4350
  758poe    c23 6931   4.451   6.152   6.133 -0.3148 -0.0273  0.4470
  758poe     o2 6932   4.527   6.035   6.116 -0.4160 -0.0210 -0.0647
  758poe    c23 6933   4.483   5.935   6.204 -0.0009  0.1378  0.3323
  758poe    c23 6934   4.540   5.799   6.159  0.1331  0.1604  0.4342
  758poe     o2 6935   4.499   5.768   6.028  0.1233 -0.2168  0.5254
  758poe    c31 6936   4.579   5.656   5.995  0.2356 -0.1147  0.4482
  759poe    c31 6937   5.397   5.108   1.463 -0.6895 -0.2401 -0.3638
  759poe     o2 6938   5.488   5.215   1.467 -0.6874 -0.2437 -0.3219
  759poe    c23 6939   5.423   5.336   1.438  0.2030  0.3614  0.1559
  759poe    c23 6940   5.524   5.443   1.483  0.7112  0.2898 -0.7846
  759poe     o2 6941   5.651   5.382   1.493  0.4892 -0.0203  0.1878
  759poe    c23 6942   5.756   5.470   1.525  0.3557  0.2244 -0.0446
  759poe    c23 6943   5.888   5.390   1.523  0.0189 -0.3288 -0.5148
  759poe     o2 6944   5.854   5.263   1.574 -0.4851  0.0152  0.0140
  759poe    c23 6945   5.967   5.188   1.610 -0.4212  0.0978 -0.0136
  759poe    c23 6946   5.935   5.051   1.674 -0.1083 -0.1193 -0.3177
  759poe     o2 6947   5.861   4.965   1.590 -0.3200  0.0464 -0.3014
  759poe    c31 6948   5.864   4.832   1.637 -0.2801  0.2188  0.1890
  760poe    c31 6949   2.353   1.174   0.067  0.3480  0.2175  0.3457
  760poe     o2 6950   2.369   1.041   0.022 -0.0122  0.3971 -0.3282
  760poe    c23 6951   2.294   0.948   0.097 -0.1822  0.5780 -0.2710
  760poe    c23 6952   2.293   0.816   0.017 -0.1434  0.5647 -0.2499
  760poe     o2 6953   2.423   0.786  -0.029 -0.3178  0.0904 -0.4392
  760poe    c23 6954   2.428   0.682  -0.124 -0.1850  0.2145 -0.5689
  760poe    c23 6955   2.539   0.729  -0.220 -0.1114  0.2785 -0.4523
  760poe     o2 6956   2.530   0.868  -0.237 -0.7508  0.2853 -0.0924
  760poe    c23 6957   2.629   0.936  -0.311 -0.2924 -0.0341  0.2246
  760poe    c23 6958   2.609   1.086  -0.281 -0.5341  0.0751 -0.4724
  760poe     o2 6959   2.627   1.109  -0.143 -0.2361  0.1215 -0.5187
  760poe    c31 6960   2.669   1.241  -0.121  0.1416 -0.1561  0.4849
  761poe    c31 6961   3.565   3.660   4.416 -0.0904 -0.5101  0.1758
  761poe     o2 6962   3.604   3.536   4.471  0.0673 -0.4231  0.2617
  761poe    c23 6963   3.535   3.524   4.594 -0.0379 -0.3779  0.2076
  761poe    c23 6964   3.577   3.395   4.668 -0.1819 -0.3746  0.2950
  761poe     o2 6965   3.572   3.308   4.557 -0.2024 -0.1702  0.1346
  761poe    c23 6966   3.607   3.176   4.591  0.1626 -0.1969 -0.3412
  761poe    c23 6967   3.545   3.086   4.482  0.2038 -0.5045 -0.1118
  761poe     o2 6968   3.583   3.127   4.352  0.4549 -0.3861 -0.0013
  761poe    c23 6969   3.532   3.032   4.261 -0.2666  0.2024 -0.2211
  761poe    c23 6970   3.594   3.069   4.126  0.2808 -0.3136 -0.1164
  761poe     o2 6971   3.554   3.199   4.087  0.5012 -0.0629  0.4751
  761poe    c31 6972   3.612   3.230   3.963  0.0727 -0.0822  0.2664
  762poe    c31 6973   0.330   5.072   2.693 -0.5405  0.0728 -0.0113
  762poe     o2 6974   0.355   5.211   2.686  0.4540 -0.1012  0.0035
  762poe    c23 6975   0.360   5.276   2.812 -0.0663 -0.2098  0.0825
  762poe    c23 6976   0.326   5.426   2.803  0.1322 -0.1690  0.0073
  762poe     o2 6977   0.395   5.497   2.702 -0.6768  0.3949 -0.1546
  762poe    c23 6978   0.385   5.636   2.723 -0.3107  0.4147 -0.1158
  762poe    c23 6979   0.472   5.707   2.618  0.1672 -0.1591 -0.1201
  762poe     o2 6980   0.409   5.668   2.498 -0.2148  0.3807 -0.1018
  762poe    c23 6981   0.484   5.715   2.389 -0.3533  0.0288 -0.3503
  762poe    c23 6982   0.422   5.654   2.262 -0.3641 -0.2744 -0.1993
  762poe     o2 6983   0.413   5.513   2.266 -0.1945 -0.2842 -0.1327
  762poe    c31 6984   0.348   5.459   2.153 -0.8545  0.1766  0.0165
  763poe    c31 6985   2.422   6.154   5.048  0.2508 -0.0508 -0.2716
  763poe     o2 6986   2.556   6.117   5.067  0.2927  0.1545 -0.1668
  763poe    c23 6987   2.573   5.985   5.022 -0.2966  0.1251 -0.3088
  763poe    c23 6988   2.718   5.940   5.047 -0.5242 -0.1978  0.4333
  763poe     o2 6989   2.793   6.057   5.071  0.3203 -0.6211 -0.0963
  763poe    c23 6990   2.931   6.035   5.088  0.4216 -0.0113 -0.0770
  763poe    c23 6991   2.988   6.178   5.087  0.6308 -0.0941 -0.1148
  763poe     o2 6992   2.923   6.237   5.197  0.4366 -0.4370 -0.0444
  763poe    c23 6993   2.923   6.376   5.177 -0.2209 -0.3519  0.5213
  763poe    c23 6994   2.799   6.447   5.235 -0.2746  0.0015 -0.0259
  763poe     o2 6995   2.683   6.374   5.203 -0.1550 -0.0237 -0.4163
  763poe    c31 6996   2.579   6.428   5.282  0.2615  0.1258  0.0389
  764poe    c31 6997   5.747   3.332   2.728 -0.1209 -0.4561 -0.2954
  764poe     o2 6998   5.797   3.279   2.849  0.1083  0.1463 -0.1247
  764poe    c23 6999   5.865   3.378   2.923 -0.2141  0.0962  0.2408
  764poe    c23 7000   5.878   3.332   3.069  0.0113  0.3446  0.2993
  764poe     o2 7001   5.758   3.289   3.127 -0.2729  0.6312 -0.0717
  764poe    c23 7002   5.770   3.253   3.263  0.1265 -0.8645 -0.4896
  764poe    c23 7003   5.650   3.167   3.307 -0.4633  0.2745  0.1776
  764poe     o2 7004   5.631   3.093   3.188  0.4884 -0.6061  0.5528
  764poe    c23 7005   5.534   2.991   3.201 -0.6348  0.3463 -0.0982
  764poe    c23 7006   5.531   2.912   3.069  0.1651 -0.3400  0.2814
  764poe     o2 7007   5.531   3.021   2.980  0.1721 -0.2255  0.4209
  764poe    c31 7008   5.484   2.973   2.856  0.0170 -0.6658  0.6489
  765poe    c31 7009   5.917   2.421   1.736  0.1222 -0.0206 -0.5265
  765poe     o2 7010   5.777   2.411   1.725  0.0738  0.5902 -0.5219
  765poe    c23 7011   5.740   2.462   1.599 -0.4382  0.0626 -0.5897
  765poe    c23 7012   5.608   2.400   1.549 -0.3950  0.0061 -0.6332
  765poe     o2 7013   5.498   2.428   1.632  0.2836 -0.0638  0.3021
  765poe    c23 7014   5.381   2.378   1.573  0.2559  0.0250  0.2815
  765poe    c23 7015   5.258   2.379   1.666  0.1273  0.2608  0.1112
  765poe     o2 7016   5.297   2.300   1.777 -0.0346  0.0402  0.0119
  765poe    c23 7017   5.189   2.282   1.866  0.0252  0.1365  0.1039
  765poe    c23 7018   5.247   2.281   2.008 -0.4379  0.2751  0.2961
  765poe     o2 7019   5.338   2.388   2.011  0.2115 -0.2605  0.0685
  765poe    c31 7020   5.366   2.440   2.140  0.0807  0.0075 -0.0100
  766poe    c31 7021   4.303   5.962   3.057  0.0574  0.3354 -0.0200
  766poe     o2 7022   4.442   5.947   3.045  0.0075 -0.0578 -0.0957
  766poe    c23 7023   4.478   5.934   2.909  0.2130  0.0045 -0.0477
  766poe    c23 7024   4.629   5.956   2.885  0.2710 -0.1449  0.1758
  766poe     o2 7025   4.708   5.846   2.924  0.0610 -0.3278  0.0912
  766poe    c23 7026   4.827   5.868   2.852 -0.1590 -0.7402 -0.3974
  766poe    c23 7027   4.883   5.724   2.848  0.7677 -0.3986  0.0762
  766poe     o2 7028   4.884   5.696   2.986  0.0565  0.0619  0.1794
  766poe    c23 7029   4.938   5.568   3.009  0.2046  0.0533 -0.2132
  766poe    c23 7030   4.894   5.530   3.152  0.4059 -0.6212 -0.3247
  766poe     o2 7031   4.763   5.574   3.184  0.4601 -0.5063 -0.2585
  766poe    c31 7032   4.744   5.560   3.323  0.5162 -0.0529 -0.2040
  767poe    c31 7033   3.688   6.106   3.382 -0.5351  0.4446  0.1911
  767poe     o2 7034   3.637   6.150   3.506 -0.9114  0.4393  0.0391
  767poe    c23 7035   3.600   6.035   3.579 -0.3882 -0.0316 -0.4325
  767poe    c23 7036   3.545   6.085   3.714 -0.1300  0.4539 -0.5056
  767poe     o2 7037   3.483   6.209   3.688 -0.3727  0.3134 -0.5899
  767poe    c23 7038   3.397   6.259   3.788  0.4768 -0.1118  0.3618
  767poe    c23 7039   3.336   6.381   3.717  0.0239 -0.1266  0.7252
  767poe     o2 7040   3.440   6.450   3.652 -0.2477 -0.2449  0.1622
  767poe    c23 7041   3.390   6.539   3.555  0.1963 -0.4080 -0.2176
  767poe    c23 7042   3.494   6.555   3.442 -0.0068  0.2345 -0.3136
  767poe     o2 7043   3.562   6.433   3.430  0.6659  0.4665  0.9207
  767poe    c31 7044   3.663   6.451   3.333 -0.5057 -0.2337 -0.4877
  768poe    c31 7045   0.881   6.078   2.259 -0.3110  0.7604  0.0755
  768poe     o2 7046   0.919   6.080   2.124 -0.0399  0.3538  0.1449
  768poe    c23 7047   0.910   6.200   2.050 -0.0036  0.1811 -0.1443
  768poe    c23 7048   0.766   6.242   2.016 -0.1527 -0.1284  0.1016
  768poe     o2 7049   0.694   6.173   1.916 -0.4791 -0.0169  0.2591
  768poe    c23 7050   0.672   6.241   1.795 -0.0942  0.0032  0.2004
  768poe    c23 7051   0.594   6.142   1.707 -0.0511 -0.0675  0.2421
  768poe     o2 7052   0.639   6.008   1.713  0.4589  0.0994  0.1741
  768poe    c23 7053   0.574   5.919   1.626  0.0822  0.0958  0.4599
  768poe    c23 7054   0.646   5.785   1.648  0.3879  0.2126  0.1715
  768poe     o2 7055   0.648   5.756   1.786  0.5672  0.1985  0.1667
  768poe    c31 7056   0.670   5.620   1.813 -0.1376  0.2641  1.1526
  769poe    c31 7057   1.052   3.988   5.641  0.1969  0.5248  0.0785
  769poe     o2 7058   1.151   3.897   5.599 -0.4354 -0.4394  0.6189
  769poe    c23 7059   1.107   3.826   5.485 -0.0492 -0.0125  0.1966
  769poe    c23 7060   1.210   3.723   5.436  0.0876  0.1382  0.1661
  769poe     o2 7061   1.333   3.788   5.412  0.1923 -0.0635  0.1474
  769poe    c23 7062   1.421   3.703   5.343  0.4413 -0.3291  0.7797
  769poe    c23 7063   1.553   3.781   5.331 -0.0790  0.5010  0.3535
  769poe     o2 7064   1.591   3.833   5.456  0.2395  0.1682  0.3963
  769poe    c23 7065   1.690   3.931   5.436  0.3389  0.0529  0.3239
  769poe    c23 7066   1.679   4.013   5.566 -0.2199 -0.0249  0.3292
  769poe     o2 7067   1.544   4.040   5.596 -0.2531 -0.2664  0.4056
  769poe    c31 7068   1.541   4.127   5.707  0.1367 -0.0436  0.2442
  770poe    c31 7069   4.455   4.049   5.197 -0.9439 -0.0853 -0.4967
  770poe     o2 7070   4.407   3.988   5.314 -0.4532  0.0534 -0.2220
  770poe    c23 7071   4.463   3.862   5.343  0.1209  0.4044  0.2163
  770poe    c23 7072   4.393   3.821   5.474 -0.2379 -0.3823 -0.2124
  770poe     o2 7073   4.260   3.854   5.442 -0.1045  0.5534  0.1687
  770poe    c23 7074   4.164   3.777   5.512  0.0610 -0.0214 -0.2316
  770poe    c23 7075   4.029   3.805   5.444 -0.2868  0.0012  0.4650
  770poe     o2 7076   4.015   3.945   5.434 -0.7636 -0.0349  0.5766
  770poe    c23 7077   3.879   3.982   5.430 -0.6782  0.1811 -0.5709
  770poe    c23 7078   3.856   4.134   5.411 -0.6598  0.2304 -0.1955
  770poe     o2 7079   3.896   4.186   5.287 -0.2237  0.0782 -0.1206
  770poe    c31 7080   3.785   4.216   5.204  0.3120  0.0332 -0.8682
  771poe    c31 7081   0.672   0.307   6.321 -0.3482  0.0893  0.1083
  771poe     o2 7082   0.678   0.180   6.382 -0.0223 -0.0108 -0.1344
  771poe    c23 7083   0.773   0.184   6.486 -0.0250 -0.4698 -0.1108
  771poe    c23 7084   0.703   0.113   6.603  0.1878  0.2096  0.4403
  771poe     o2 7085   0.639   0.002   6.543 -0.3506  0.5983  0.2933
  771poe    c23 7086   0.551  -0.074   6.622 -0.0361  0.2463  0.3096
  771poe    c23 7087   0.549  -0.214   6.558  0.3399  0.3391  0.0932
  771poe     o2 7088   0.502  -0.192   6.426  0.2886 -0.0553  0.0466
  771poe    c23 7089   0.526  -0.299   6.337  0.1303 -0.3505  0.3535
  771poe    c23 7090   0.528  -0.231   6.199 -0.7871  0.1166  0.5656
  771poe     o2 7091   0.599  -0.112   6.229 -0.1590 -0.1389  0.1009
  771poe    c31 7092   0.645  -0.049   6.112  0.0182 -0.4563 -0.0010
  772poe    c31 7093   3.080   4.539   4.446  0.1357  0.8006  0.7057
  772poe     o2 7094   2.959   4.525   4.516 -0.0760 -0.2519  0.1397
  772poe    c23 7095   2.939   4.601   4.633 -0.7480  0.0432 -0.1567
  772poe    c23 7096   2.818   4.556   4.717 -0.2847  0.2456  0.6324
  772poe     o2 7097   2.745   4.488   4.617  0.0274  0.2201  0.4186
  772poe    c23 7098   2.631   4.419   4.665  0.2036 -0.3449  0.0395
  772poe    c23 7099   2.566   4.353   4.542 -0.0489  0.0557 -0.0461
  772poe     o2 7100   2.664   4.285   4.466 -0.1513 -0.4937  0.3055
  772poe    c23 7101   2.623   4.249   4.337  0.1688 -0.4382  0.1882
  772poe    c23 7102   2.751   4.225   4.254  0.0932 -0.0897 -0.0318
  772poe     o2 7103   2.854   4.310   4.298  0.0949 -0.0722 -0.0707
  772poe    c31 7104   2.964   4.303   4.211  0.3927  0.4228  0.2587
  773poe    c31 7105   3.199   2.974   6.342  0.2932  0.2202 -0.5019
  773poe     o2 7106   3.303   3.017   6.427  0.1948 -0.2322 -0.1488
  773poe    c23 7107   3.359   2.919   6.511  0.1462 -0.0579  0.0906
  773poe    c23 7108   3.471   2.992   6.587 -0.0238  0.0894  0.1997
  773poe     o2 7109   3.526   3.090   6.502  0.0841 -0.2011 -0.0680
  773poe    c23 7110   3.632   3.173   6.543 -0.0512 -0.0235 -0.0772
  773poe    c23 7111   3.685   3.278   6.444 -0.1457  0.2487  0.1557
  773poe     o2 7112   3.573   3.353   6.404  0.1365  0.5242 -0.1310
  773poe    c23 7113   3.617   3.454   6.317  0.3938 -0.0258 -0.6492
  773poe    c23 7114   3.501   3.542   6.267 -0.1456 -0.3069  0.0963
  773poe     o2 7115   3.393   3.483   6.198 -0.5494 -0.1017  0.5430
  773poe    c31 7116   3.307   3.585   6.151 -0.5509 -0.2510  0.2204
  774poe    c31 7117   1.364   3.673   3.821  0.3656 -0.1384  0.7023
  774poe     o2 7118   1.259   3.700   3.911 -0.3661  0.3204 -0.2680
  774poe    c23 7119   1.209   3.573   3.946 -0.3382  0.2296 -0.5565
  774poe    c23 7120   1.102   3.598   4.054  0.1595 -0.5134  0.1163
  774poe     o2 7121   1.029   3.710   4.011 -0.1606 -0.5774  0.4833
  774poe    c23 7122   0.933   3.761   4.101 -0.1298 -0.2187  0.3176
  774poe    c23 7123   0.898   3.903   4.053 -0.2410 -0.2359  0.3477
  774poe     o2 7124   1.024   3.945   4.006  0.0181 -0.1197  1.1381
  774poe    c23 7125   0.996   4.076   3.961  0.4192 -0.2107  0.6229
  774poe    c23 7126   1.141   4.116   3.927  0.2365 -0.0456  0.0172
  774poe     o2 7127   1.207   4.002   3.875  0.1702 -0.0513 -0.0544
  774poe    c31 7128   1.329   4.034   3.813 -0.0720  0.8638 -0.0720
  775poe    c31 7129   4.326   0.274   5.736 -0.1522  0.3713  0.4513
  775poe     o2 7130   4.268   0.163   5.673  0.1745  0.2794  0.3085
  775poe    c23 7131   4.237   0.066   5.771 -0.4675  0.0144 -0.1474
  775poe    c23 7132   4.236  -0.071   5.699 -0.2001  0.0885 -0.2950
  775poe     o2 7133   4.331  -0.075   5.595 -0.1016 -0.3385 -0.1899
  775poe    c23 7134   4.320  -0.182   5.504 -0.2443 -0.5098  0.0294
  775poe    c23 7135   4.329  -0.121   5.363 -0.3267  0.2120  0.3310
  775poe     o2 7136   4.266   0.005   5.365 -0.1753  0.2811  0.8309
  775poe    c23 7137   4.272   0.080   5.246 -0.0001 -0.7237  0.1996
  775poe    c23 7138   4.373   0.192   5.275 -0.0748 -0.4728 -0.4780
  775poe     o2 7139   4.339   0.248   5.400 -0.0153 -0.0429 -0.6559
  775poe    c31 7140   4.399   0.376   5.406 -0.1876 -0.0190  0.7724
  776poe    c31 7141   4.198   2.485   3.545 -0.2821  0.0389 -0.4456
  776poe     o2 7142   4.069   2.433   3.525 -0.5357  0.2291  0.6177
  776poe    c23 7143   3.974   2.535   3.505 -0.2031  0.4567  0.1750
  776poe    c23 7144   3.833   2.474   3.492 -0.1531  0.3172  0.2844
  776poe     o2 7145   3.821   2.388   3.603  0.0481  0.1873  0.2050
  776poe    c23 7146   3.687   2.351   3.625  0.1545  0.1038  0.7336
  776poe    c23 7147   3.666   2.264   3.750 -0.5953 -0.0024  0.5380
  776poe     o2 7148   3.772   2.174   3.775 -0.3489 -0.1266 -0.8888
  776poe    c23 7149   3.750   2.091   3.887 -0.1088  0.7515 -0.1850
  776poe    c23 7150   3.875   2.025   3.948 -0.6171 -0.1848 -0.1310
  776poe     o2 7151   3.947   2.093   4.048 -0.5786 -0.2980 -0.0819
  776poe    c31 7152   4.045   2.031   4.128 -0.3395  0.6157  0.3502
  777poe    c31 7153   0.975   6.282   6.445 -0.5108  0.7474 -0.0699
  777poe     o2 7154   1.099   6.273   6.510 -0.3586  0.1337 -0.4444
  777poe    c23 7155   1.204   6.240   6.421  0.0015 -0.2527  0.1143
  777poe    c23 7156   1.324   6.225   6.516 -0.0065  0.3278  0.2201
  777poe     o2 7157   1.343   6.347   6.583 -0.2711  0.3926  0.1800
  777poe    c23 7158   1.418   6.329   6.701 -0.2061  0.1545  0.1029
  777poe    c23 7159   1.403   6.457   6.785 -0.1197  0.0726  0.2437
  777poe     o2 7160   1.264   6.475   6.773 -0.0852  0.0990 -0.1067
  777poe    c23 7161   1.212   6.580   6.851  0.2985  0.3200 -0.1463
  777poe    c23 7162   1.062   6.547   6.856  0.3332  0.1344 -0.2966
  777poe     o2 7163   1.019   6.490   6.734  0.4110  0.0211 -0.2703
  777poe    c31 7164   0.884   6.454   6.747  0.3386  0.2836 -0.3028
  778poe    c31 7165   4.559   4.423   0.219 -0.1253 -0.6926 -0.7080
  778poe     o2 7166   4.611   4.332   0.314  0.4524  0.2476 -0.1119
  778poe    c23 7167   4.581   4.203   0.266  0.1421  0.2824 -0.0174
  778poe    c23 7168   4.617   4.091   0.364 -0.4202  0.0150 -0.1125
  778poe     o2 7169   4.576   4.121   0.496  0.3071  0.3239  0.0482
  778poe    c23 7170   4.633   4.038   0.594  0.1496  0.3912  0.1979
  778poe    c23 7171   4.600   4.105   0.728 -0.3416  0.0954  0.2284
  778poe     o2 7172   4.628   4.242   0.749  0.2751 -0.0214  0.2133
  778poe    c23 7173   4.764   4.260   0.780  0.1825  0.1790  0.5000
  778poe    c23 7174   4.788   4.391   0.704 -0.2324 -0.0243  0.0163
  778poe     o2 7175   4.716   4.394   0.582  0.4991 -0.1753 -0.4254
  778poe    c31 7176   4.765   4.508   0.514  0.7006 -0.0461 -0.0711
  779poe    c31 7177   6.712   4.993   6.198  0.6428  0.0135 -0.5874
  779poe     o2 7178   6.631   5.018   6.085  0.0708  0.0977 -0.1640
  779poe    c23 7179   6.629   4.916   5.987  0.3552  0.4566 -0.5431
  779poe    c23 7180   6.574   4.967   5.853  0.1820  0.2051 -0.5661
  779poe     o2 7181   6.439   5.007   5.845 -0.0836 -0.3967  0.5885
  779poe    c23 7182   6.404   4.993   5.709 -0.1162 -0.3296  0.5897
  779poe    c23 7183   6.269   5.061   5.680  0.4464  0.3219 -0.5728
  779poe     o2 7184   6.270   5.193   5.729  0.3457 -0.0139  0.3551
  779poe    c23 7185   6.143   5.253   5.725  0.2862 -0.1423  0.3127
  779poe    c23 7186   6.075   5.253   5.863 -0.2569  0.3969  0.0518
  779poe     o2 7187   6.187   5.287   5.942 -0.0814 -0.6287  0.2537
  779poe    c31 7188   6.139   5.320   6.070 -0.3513  0.4804 -0.1241
  780poe    c31 7189   2.801   5.420   0.307 -0.0053 -0.1783 -0.4680
  780poe     o2 7190   2.867   5.374   0.191  0.2734  0.6880 -0.6564
  780poe    c23 7191   2.776   5.295   0.118 -0.0428  0.4213  0.0257
  780poe    c23 7192   2.859   5.236   0.003  0.1646  0.2677  0.2522
  780poe     o2 7193   2.937   5.339  -0.055  0.4609 -0.0954 -0.0034
  780poe    c23 7194   3.032   5.286  -0.143  0.2699 -0.6816  0.1372
  780poe    c23 7195   3.113   5.409  -0.190 -0.7007  0.0249  0.2821
  780poe     o2 7196   3.181   5.442  -0.072 -0.2115  0.1010 -0.0195
  780poe    c23 7197   3.220   5.577  -0.060 -0.7730  0.2051  0.7589
  780poe    c23 7198   3.223   5.612   0.089  0.2400  0.5695  0.6646
  780poe     o2 7199   3.102   5.568   0.146 -0.0762  0.3572 -0.1584
  780poe    c31 7200   3.117   5.608   0.281  0.0592  0.2412 -0.1381
  781poe    c31 7201   4.310   4.127   2.909  0.4384 -0.4328 -0.1617
  781poe     o2 7202   4.260   4.070   3.028  0.5592 -0.5418 -0.1623
  781poe    c23 7203   4.299   3.935   3.035 -0.3150 -0.7740  0.3319
  781poe    c23 7204   4.278   3.884   3.179  0.3422 -0.0975  0.6721
  781poe     o2 7205   4.145   3.894   3.224  0.3248  0.3401  0.5242
  781poe    c23 7206   4.126   3.800   3.327  0.5440  0.0651  0.3134
  781poe    c23 7207   4.013   3.848   3.420  0.1824  0.5591 -0.3714
  781poe     o2 7208   3.896   3.872   3.344 -0.1256  0.2683  0.0071
  781poe    c23 7209   3.791   3.907   3.431  0.1748  0.0212  0.4794
  781poe    c23 7210   3.683   3.947   3.328  0.1664 -0.0175  0.4731
  781poe     o2 7211   3.738   4.024   3.223  0.0656 -0.2702  0.2323
  781poe    c31 7212   3.664   4.140   3.192  0.0502 -0.2841  0.2187
  782poe    c31 7213   2.117   1.627   1.809  0.0067 -0.2448  0.0988
  782poe     o2 7214   1.996   1.675   1.864  0.2975  0.1056  0.4420
  782poe    c23 7215   2.026   1.771   1.963  0.1258  0.4874  0.1292
  782poe    c23 7216   1.897   1.775   2.048 -0.0270 -0.9026  0.0005
  782poe     o2 7217   1.801   1.802   1.948 -0.1051  0.1485  0.3425
  782poe    c23 7218   1.671   1.807   2.003 -0.2549  0.5831 -0.0440
  782poe    c23 7219   1.570   1.794   1.887 -0.0745  0.0239 -0.1430
  782poe     o2 7220   1.622   1.703   1.793 -0.0936  0.0221 -0.1517
  782poe    c23 7221   1.540   1.686   1.679 -0.5911  0.4430  0.1449
  782poe    c23 7222   1.585   1.576   1.582 -0.0376  0.5691  0.2522
  782poe     o2 7223   1.720   1.574   1.542 -0.2683  0.7871 -0.5685
  782poe    c31 7224   1.733   1.512   1.416 -0.3443 -0.0895 -0.1487
  783poe    c31 7225   1.355   6.398   1.042 -0.0927  0.0102 -0.1732
  783poe     o2 7226   1.458   6.310   1.002 -0.3213 -0.1522 -0.4053
  783poe    c23 7227   1.417   6.176   1.021  0.4047 -0.3055  0.1493
  783poe    c23 7228   1.524   6.092   0.949  0.1682 -0.3624 -0.1379
  783poe     o2 7229   1.546   6.143   0.819 -0.1400  0.3244  0.0741
  783poe    c23 7230   1.474   6.080   0.716  0.2668  0.2545 -0.1693
  783poe    c23 7231   1.470   6.187   0.605  0.4351 -0.2979 -0.7179
  783poe     o2 7232   1.443   6.306   0.677 -0.0088 -0.5657 -0.4400
  783poe    c23 7233   1.424   6.414   0.589  0.0999 -0.0483  0.1697
  783poe    c23 7234   1.363   6.533   0.667 -0.1961 -0.3893  0.4612
  783poe     o2 7235   1.442   6.547   0.783  0.2737 -0.1566  0.1199
  783poe    c31 7236   1.420   6.677   0.833  0.0949 -0.1885  0.1269
  784poe    c31 7237   2.097   1.873   6.550 -0.4941  0.6026 -0.5276
  784poe     o2 7238   2.186   1.982   6.543  0.9083 -0.4472  0.3322
  784poe    c23 7239   2.125   2.107   6.567  0.4076 -0.4530 -0.8478
  784poe    c23 7240   2.231   2.188   6.644 -0.5485  0.1295 -0.1224
  784poe     o2 7241   2.360   2.155   6.598 -0.2587  0.2373  0.5970
  784poe    c23 7242   2.449   2.263   6.612  0.0358  0.0836 -0.0237
  784poe    c23 7243   2.591   2.235   6.559  0.0139  0.1642 -0.1256
  784poe     o2 7244   2.652   2.122   6.617  0.1532  0.3304  0.0522
  784poe    c23 7245   2.757   2.073   6.536  0.4024  0.3552  0.3599
  784poe    c23 7246   2.845   1.971   6.611  0.1785 -0.3499 -0.3210
  784poe     o2 7247   2.773   1.853   6.636 -0.2952  0.0171  0.0722
  784poe    c31 7248   2.828   1.742   6.569 -0.1065 -0.2272  0.6292
  785poe    c31 7249   2.192   3.273   1.940 -0.2975 -0.1122  0.7017
  785poe     o2 7250   2.176   3.141   1.986  0.2868 -0.3492  0.2355
  785poe    c23 7251   2.101   3.141   2.106  0.0547 -0.1907  0.0915
  785poe    c23 7252   2.040   3.005   2.142 -0.1604  0.0357  0.6031
  785poe     o2 7253   2.147   2.919   2.174  0.3056  0.4071  0.0678
  785poe    c23 7254   2.092   2.797   2.218  0.0420  0.3542 -0.3997
  785poe    c23 7255   2.203   2.702   2.267 -0.3963 -0.0605 -0.2011
  785poe     o2 7256   2.302   2.716   2.168 -0.0630 -0.2427  0.1024
  785poe    c23 7257   2.374   2.597   2.148 -0.9957 -0.7914 -0.0293
  785poe    c23 7258   2.419   2.580   2.001  0.1463 -0.3010  0.2530
  785poe     o2 7259   2.490   2.680   1.932  0.2018 -0.4940  0.0305
  785poe    c31 7260   2.514   2.650   1.796  0.5839 -0.2504  0.0408
  786poe    c31 7261   6.193   0.633   0.021  0.2334 -0.1668 -0.4957
  786poe     o2 7262   6.095   0.531   0.027 -0.0036  0.0849 -0.0875
  786poe    c23 7263   6.056   0.500   0.159 -0.1939  0.1978 -0.1173
  786poe    c23 7264   5.944   0.396   0.139 -0.1804  0.1870 -0.1386
  786poe     o2 7265   5.872   0.436   0.024  0.0757 -0.2020 -0.4365
  786poe    c23 7266   5.761   0.351   0.005 -0.2588  0.2238 -0.3959
  786poe    c23 7267   5.695   0.385  -0.130 -0.3924 -0.0023 -0.3882
  786poe     o2 7268   5.795   0.468  -0.185 -0.3024  0.0904 -0.0875
  786poe    c23 7269   5.748   0.555  -0.286 -0.5202 -0.4394 -0.4487
  786poe    c23 7270   5.866   0.620  -0.360 -0.3765 -0.3524 -0.1461
  786poe     o2 7271   5.969   0.629  -0.264 -0.0080 -0.1276 -0.5566
  786poe    c31 7272   6.049   0.736  -0.307  0.1014 -0.0512 -0.1699
  787poe    c31 7273   0.134   3.972   5.780  0.1288 -0.2562  0.5664
  787poe     o2 7274   0.198   3.877   5.698 -0.0270  0.1217  0.0008
  787poe    c23 7275   0.206   3.909   5.560  0.1194 -0.3914 -0.1130
  787poe    c23 7276   0.227   3.782   5.475  0.1614 -0.5626  0.1511
  787poe     o2 7277   0.360   3.738   5.492  0.3821 -0.0237 -0.1624
  787poe    c23 7278   0.407   3.664   5.381 -0.1173 -0.6845  0.0653
  787poe    c23 7279   0.560   3.674   5.367 -0.1916  0.3677 -0.0485
  787poe     o2 7280   0.609   3.634   5.493  0.0437  0.0644 -0.2367
  787poe    c23 7281   0.749   3.638   5.507 -0.0178  0.7570  0.2384
  787poe    c23 7282   0.776   3.592   5.651 -0.3073 -0.2057 -0.0069
  787poe     o2 7283   0.680   3.667   5.722  0.3017  0.4716  0.1163
  787poe    c31 7284   0.703   3.654   5.861 -0.1320  0.1134  0.1555
  788poe    c31 7285   1.442   4.582   3.237 -0.0134 -0.0744  0.3732
  788poe     o2 7286   1.425   4.494   3.128 -0.0172  0.1848  0.1631
  788poe    c23 7287   1.475   4.373   3.182 -0.1857  0.2126  0.3833
  788poe    c23 7288   1.440   4.266   3.078 -0.1269  0.5496  0.0132
  788poe     o2 7289   1.454   4.321   2.948  0.5217 -0.0459 -0.1792
  788poe    c23 7290   1.391   4.238   2.853  0.3682 -0.4215  0.2460
  788poe    c23 7291   1.361   4.327   2.731 -0.2118 -0.0897  0.6190
  788poe     o2 7292   1.314   4.452   2.776  0.1274  0.1914  0.2070
  788poe    c23 7293   1.175   4.475   2.762 -0.0387 -0.5082  0.6135
  788poe    c23 7294   1.158   4.611   2.832 -0.0982 -0.2683  0.1415
  788poe     o2 7295   1.237   4.618   2.949  0.6893 -0.6753 -0.3627
  788poe    c31 7296   1.227   4.743   3.011  0.3061 -0.8498 -0.0710
  789poe    c31 7297   2.258   3.114   6.037 -0.2147 -0.2946  0.0316
  789poe     o2 7298   2.369   3.112   5.950 -0.0292  0.4337  0.2390
  789poe    c23 7299   2.375   3.207   5.846  0.1031  0.0224 -0.1359
  789poe    c23 7300   2.512   3.185   5.780  0.0146  0.4555 -0.4702
  789poe     o2 7301   2.530   3.046   5.769 -0.2503  0.4671 -1.0973
  789poe    c23 7302   2.640   3.021   5.685  0.5769  0.4901 -0.0411
  789poe    c23 7303   2.643   2.870   5.656  0.1490  0.4258  0.2449
  789poe     o2 7304   2.628   2.792   5.773  0.7187 -0.0616 -0.0040
  789poe    c23 7305   2.658   2.655   5.759  0.7669 -0.0013 -0.4999
  789poe    c23 7306   2.599   2.592   5.886  0.3721  0.4427 -0.4627
  789poe     o2 7307   2.635   2.662   6.004 -0.1705  0.1794 -0.1342
  789poe    c31 7308   2.576   2.599   6.115 -0.0283  0.3695  0.0480
  790poe    c31 7309   5.595   2.345   1.134  0.1215  0.2746 -0.3854
  790poe     o2 7310   5.636   2.466   1.193 -0.0719  0.2200 -0.1340
  790poe    c23 7311   5.590   2.584   1.132 -0.2050  0.2012 -0.0685
  790poe    c23 7312   5.660   2.712   1.181  0.2935 -0.1001  0.0131
  790poe     o2 7313   5.800   2.702   1.183  0.3371  0.2809 -0.6202
  790poe    c23 7314   5.853   2.776   1.291  0.4060 -0.1015 -0.3870
  790poe    c23 7315   6.007   2.776   1.277  0.4537  0.1744  0.1303
  790poe     o2 7316   6.055   2.644   1.271 -0.3948 -0.1175 -0.4072
  790poe    c23 7317   6.196   2.646   1.268 -0.4035  0.6348 -0.4184
  790poe    c23 7318   6.220   2.499   1.228 -0.4554  0.4650  0.1635
  790poe     o2 7319   6.129   2.449   1.134  0.1773 -0.4121  0.0036
  790poe    c31 7320   6.183   2.344   1.058  0.5065 -0.0510 -0.2669
  791poe    c31 7321   3.880   1.137   5.350  0.2394  0.4497  0.4166
  791poe     o2 7322   3.989   1.058   5.389  0.2867  0.1273 -0.3401
  791poe    c23 7323   4.082   1.124   5.472  0.2408 -0.0586 -0.1396
  791poe    c23 7324   4.196   1.024   5.502  0.3373  0.1046  0.0468
  791poe     o2 7325   4.143   0.894   5.489 -0.1324  0.2667  0.2930
  791poe    c23 7326   4.228   0.792   5.538  0.0164  0.1110 -0.2887
  791poe    c23 7327   4.165   0.655   5.569  0.4321 -0.0699 -0.2430
  791poe     o2 7328   4.096   0.624   5.451 -0.0856 -0.1730  0.0843
  791poe    c23 7329   4.022   0.504   5.453 -0.2987 -0.0400  0.2209
  791poe    c23 7330   3.977   0.452   5.315  0.4234  0.6741 -0.2936
  791poe     o2 7331   3.892   0.538   5.242  0.1725  0.5605 -0.1363
  791poe    c31 7332   3.883   0.482   5.112 -0.0707 -0.1418  0.1762
  792poe    c31 7333   5.421   3.686   6.065  0.4955 -0.1455  0.6010
  792poe     o2 7334   5.506   3.651   6.172  0.6196 -0.1519  0.5012
  792poe    c23 7335   5.547   3.758   6.254 -0.4819  0.1748  0.6440
  792poe    c23 7336   5.648   3.724   6.366 -0.1064  0.7157  0.4726
  792poe     o2 7337   5.612   3.601   6.425 -0.2636  0.6764  0.2981
  792poe    c23 7338   5.700   3.546   6.521 -0.1178 -0.3964 -0.4396
  792poe    c23 7339   5.674   3.395   6.541 -0.3884 -0.2453  0.3578
  792poe     o2 7340   5.659   3.323   6.421  0.5066 -0.1129  0.1584
  792poe    c23 7341   5.647   3.190   6.468  0.2716 -0.1574 -0.0295
  792poe    c23 7342   5.622   3.105   6.342  0.5903 -0.4922  0.1312
  792poe     o2 7343   5.507   3.142   6.269  0.8807  0.0999 -0.0299
  792poe    c31 7344   5.515   3.056   6.157 -0.6410 -0.3191  0.1689
  793poe    c31 7345   4.245   0.845   0.654  0.3794  0.4175 -0.0196
  793poe     o2 7346   4.131   0.898   0.717  0.2108  0.4357 -0.3398
  793poe    c23 7347   4.017   0.894   0.634 -0.0280  0.4298 -0.0136
  793poe    c23 7348   3.902   0.989   0.672 -0.0586  0.2837  0.2583
  793poe     o2 7349   3.866   0.953   0.804  0.0247  0.4249  0.3196
  793poe    c23 7350   3.750   1.016   0.853 -0.4051  0.0080 -0.1514
  793poe    c23 7351   3.705   0.970   0.993 -0.3317 -0.1359 -0.1754
  793poe     o2 7352   3.808   0.971   1.089 -0.2796 -0.0277 -0.2324
  793poe    c23 7353   3.769   0.941   1.221 -0.3051 -0.1241 -0.2625
  793poe    c23 7354   3.892   0.929   1.312 -0.3022  0.0686 -0.2398
  793poe     o2 7355   4.013   0.910   1.240 -0.0644  0.2448  0.1120
  793poe    c31 7356   4.127   0.905   1.323  0.0087  0.2792  0.0137
  794poe    c31 7357   5.170   1.458   5.134  0.0742  0.8281  0.2613
  794poe     o2 7358   5.031   1.456   5.156  0.0243  0.1074 -0.0903
  794poe    c23 7359   4.958   1.400   5.048  0.2117 -0.3876  0.0351
  794poe    c23 7360   4.834   1.488   5.027  0.2646 -0.2354  0.3487
  794poe     o2 7361   4.788   1.525   5.155 -0.3498 -0.0583  0.0811
  794poe    c23 7362   4.696   1.632   5.146 -0.0536  0.2009  0.1107
  794poe    c23 7363   4.621   1.625   5.281  0.0234  0.1495  0.1518
  794poe     o2 7364   4.719   1.615   5.381 -0.2033 -0.3249  0.3269
  794poe    c23 7365   4.657   1.626   5.507 -0.2981 -0.2192  0.2712
  794poe    c23 7366   4.715   1.535   5.617  0.3969  0.0102  0.0977
  794poe     o2 7367   4.706   1.397   5.592 -0.0518  0.0738 -0.1074
  794poe    c31 7368   4.579   1.341   5.568 -0.1375  0.2229  0.0003
  795poe    c31 7369   5.842   5.388   5.522  0.0430  0.3265  0.3202
  795poe     o2 7370   5.875   5.401   5.385 -0.3721 -0.9990  0.0798
  795poe    c23 7371   5.758   5.382   5.309 -0.4001 -0.5078 -0.0025
  795poe    c23 7372   5.811   5.402   5.165  0.4450  0.4968  0.4333
  795poe     o2 7373   5.928   5.324   5.164  0.1806  0.1037  0.0248
  795poe    c23 7374   6.007   5.338   5.048 -0.1445  0.1220 -0.1967
  795poe    c23 7375   6.126   5.240   5.060 -0.4050 -0.1270  0.3807
  795poe     o2 7376   6.177   5.276   5.186 -0.4852  0.3260  0.2842
  795poe    c23 7377   6.312   5.239   5.199 -0.5019  0.0947 -0.1802
  795poe    c23 7378   6.409   5.356   5.220 -0.1317 -0.2224 -0.1053
  795poe     o2 7379   6.366   5.441   5.324  0.1969 -0.2323  0.0403
  795poe    c31 7380   6.437   5.563   5.332 -0.3315  0.0673  0.2073
  796poe    c31 7381   6.336   2.864   2.567 -0.0613  0.2735  0.1608
  796poe     o2 7382   6.294   2.950   2.464 -0.3634  0.0069  0.0582
  796poe    c23 7383   6.298   2.872   2.347  0.1521 -0.1053  0.1456
  796poe    c23 7384   6.296   2.975   2.232 -0.1045 -0.2844 -0.0120
  796poe     o2 7385   6.194   3.070   2.257 -0.4879 -0.6582 -0.1505
  796poe    c23 7386   6.189   3.169   2.156 -0.4817 -0.4477  0.0556
  796poe    c23 7387   6.111   3.284   2.222 -0.4661 -0.3525 -0.0907
  796poe     o2 7388   6.155   3.285   2.356 -0.0545 -0.2535 -0.2259
  796poe    c23 7389   6.079   3.361   2.447  0.3867 -0.1691  0.0748
  796poe    c23 7390   6.139   3.329   2.585  0.5279  0.3917  0.1467
  796poe     o2 7391   6.160   3.191   2.609  0.3784  0.3308 -0.0640
  796poe    c31 7392   6.166   3.154   2.745  0.3263 -0.2256 -0.2145
  797poe    c31 7393   1.653   6.201   2.759 -0.2589 -0.0370  0.0137
  797poe     o2 7394   1.543   6.154   2.833 -0.5093 -0.1089 -0.4021
  797poe    c23 7395   1.454   6.264   2.830 -0.5229 -0.1181 -0.3390
  797poe    c23 7396   1.398   6.286   2.972  0.3230 -0.4677  0.0611
  797poe     o2 7397   1.363   6.151   2.994  0.3965 -0.4544  0.2503
  797poe    c23 7398   1.308   6.132   3.123 -0.5592 -0.0267 -0.0900
  797poe    c23 7399   1.254   5.988   3.114 -0.2264 -0.1238 -0.5829
  797poe     o2 7400   1.350   5.916   3.040  0.4624  0.0979  0.0854
  797poe    c23 7401   1.281   5.816   2.968  0.3410 -0.0932  0.4650
  797poe    c23 7402   1.372   5.770   2.852  0.1498 -0.0643  0.3024
  797poe     o2 7403   1.428   5.885   2.795 -0.4238 -0.1372 -0.4145
  797poe    c31 7404   1.512   5.842   2.691 -0.1897  0.0873 -0.3192
  798poe    c31 7405   3.553   4.796   1.761 -0.4357  0.0673  0.4417
  798poe     o2 7406   3.627   4.906   1.810  0.2471  0.1438 -0.7184
  798poe    c23 7407   3.566   5.031   1.789 -0.2165  0.0186 -0.1450
  798poe    c23 7408   3.644   5.153   1.844  0.0017 -0.2817  0.2128
  798poe     o2 7409   3.779   5.121   1.817  0.0240 -0.0908  0.1058
  798poe    c23 7410   3.871   5.199   1.891 -0.4833  1.0558 -0.4353
  798poe    c23 7411   4.010   5.145   1.852 -0.5801  0.0753  0.5409
  798poe     o2 7412   3.989   5.006   1.844 -0.4812  0.0944 -0.1025
  798poe    c23 7413   4.094   4.926   1.793 -0.0613  0.3746  0.3076
  798poe    c23 7414   4.066   4.776   1.817  0.1897  0.1933 -0.4845
  798poe     o2 7415   3.926   4.773   1.797  0.0944 -0.4855  0.2551
  798poe    c31 7416   3.894   4.637   1.778 -0.2773 -0.4579  0.6831
  799poe    c31 7417   4.083   6.414   4.071 -0.3271 -0.2053  0.5515
  799poe     o2 7418   4.172   6.522   4.051 -0.1204 -0.4041  0.4024
  799poe    c23 7419   4.088   6.630   4.018  0.1435 -0.2454  0.2423
  799poe    c23 7420   4.175   6.757   4.010  0.1180 -0.2188  0.3756
  799poe     o2 7421   4.075   6.854   3.995  0.4505  0.0212 -0.2920
  799poe    c23 7422   4.122   6.977   3.945  0.1962  0.0624 -0.4338
  799poe    c23 7423   4.020   7.082   3.993  0.5252 -0.1223  0.6908
  799poe     o2 7424   3.887   7.052   3.959  0.2168  1.2111  0.6670
  799poe    c23 7425   3.807   7.167   3.974 -0.6392  0.7884 -0.4345
  799poe    c23 7426   3.666   7.117   4.009 -0.4139  0.2398 -0.2986
  799poe     o2 7427   3.681   7.003   4.091 -0.0319  0.6688  0.2359
  799poe    c31 7428   3.546   6.980   4.121 -0.0385 -0.3138 -0.5187
  800poe    c31 7429   5.011   0.240   2.744 -0.5834  0.1819 -0.1939
  800poe     o2 7430   5.087   0.164   2.652 -0.1093 -0.1682  0.4826
  800poe    c23 7431   5.019   0.060   2.586 -0.3205  0.5676 -0.4854
  800poe    c23 7432   5.116  -0.040   2.521 -0.3101  0.2045  0.0801
  800poe     o2 7433   5.197   0.048   2.447 -0.4664  0.1688 -0.1338
  800poe    c23 7434   5.272  -0.031   2.358  0.2375  0.2691  0.3660
  800poe    c23 7435   5.364   0.082   2.309 -0.2389  0.4854 -0.0306
  800poe     o2 7436   5.409   0.161   2.416  0.1610 -0.0197  0.1786
  800poe    c23 7437   5.511   0.105   2.496 -0.2215 -0.2318  0.5144
  800poe    c23 7438   5.502   0.191   2.623  0.1898  0.1116  0.3119
  800poe     o2 7439   5.369   0.191   2.671  0.1694 -0.4598  0.2579
  800poe    c31 7440   5.373   0.260   2.794 -0.1522  0.7645 -0.4030
  801poe    c31 7441   6.303   1.966   4.503  0.0110 -0.0139 -0.5693
  801poe     o2 7442   6.196   1.874   4.504 -0.1211  0.1431  0.2461
  801poe    c23 7443   6.234   1.755   4.570 -0.0793 -0.2312 -0.4373
  801poe    c23 7444   6.119   1.655   4.587 -0.1396 -0.0583  0.2104
  801poe     o2 7445   6.058   1.606   4.470 -0.3431  0.3495  0.1437
  801poe    c23 7446   5.956   1.519   4.512  0.2648 -0.4194  0.0485
  801poe    c23 7447   5.850   1.506   4.401  0.2932 -0.6399  0.0462
  801poe     o2 7448   5.924   1.508   4.281 -0.0250 -0.4610 -0.1483
  801poe    c23 7449   5.842   1.515   4.167 -0.2315  0.6104  0.0460
  801poe    c23 7450   5.941   1.527   4.049 -0.2226 -0.0386 -0.0197
  801poe     o2 7451   6.044   1.622   4.064 -0.4478  0.2010  0.0268
  801poe    c31 7452   6.129   1.609   3.952 -0.6110  0.5530 -0.1386
  802poe    c31 7453   5.043   0.274   4.364  0.0957  0.2376 -0.1707
  802poe     o2 7454   4.940   0.359   4.409 -0.4948 -0.1151 -0.8354
  802poe    c23 7455   4.987   0.490   4.431 -0.3075 -0.2906 -0.1922
  802poe    c23 7456   4.891   0.591   4.497 -0.1340 -0.1586 -0.1411
  802poe     o2 7457   4.788   0.626   4.407 -0.0392 -0.0461 -0.2065
  802poe    c23 7458   4.703   0.728   4.453  0.0292 -0.0816  0.0014
  802poe    c23 7459   4.556   0.694   4.421  0.1249 -0.4586 -0.0415
  802poe     o2 7460   4.550   0.648   4.288 -0.6267  0.4824 -0.3429
  802poe    c23 7461   4.428   0.584   4.261 -0.1708 -0.6399  0.2115
  802poe    c23 7462   4.426   0.555   4.109  0.3391 -0.6027  0.1953
  802poe     o2 7463   4.556   0.512   4.076  0.4861  0.0796 -0.1424
  802poe    c31 7464   4.549   0.439   3.955 -0.0141 -0.7837  0.3971
  803poe    c31 7465   4.521   5.896   4.843  0.4859  0.3939 -0.0163
  803poe     o2 7466   4.435   5.944   4.943  0.5033  0.5645 -0.0829
  803poe    c23 7467   4.336   6.028   4.890  0.0725 -0.0529 -0.2695
  803poe    c23 7468   4.219   6.017   4.989 -0.0003  0.1530 -0.3319
  803poe     o2 7469   4.281   6.005   5.115 -0.4526  0.2037 -0.1015
  803poe    c23 7470   4.193   5.992   5.225  0.0472 -0.2163  0.2538
  803poe    c23 7471   4.253   5.886   5.319  0.3005  0.1694  0.5279
  803poe     o2 7472   4.390   5.917   5.313  0.2201  0.4637  0.1793
  803poe    c23 7473   4.464   5.805   5.356  0.3542  0.3084 -0.4367
  803poe    c23 7474   4.611   5.815   5.310  0.4697  0.7916  0.0204
  803poe     o2 7475   4.600   5.863   5.178  0.7512  0.6664 -0.0487
  803poe    c31 7476   4.726   5.836   5.121  0.6217 -0.3638  0.1435
  804poe    c31 7477   0.227   6.153   1.926 -0.1474 -0.1363  0.4494
  804poe     o2 7478   0.178   6.256   2.009 -0.4286  0.3949 -0.3585
  804poe    c23 7479   0.260   6.371   2.002  0.1181  0.0341 -0.0281
  804poe    c23 7480   0.193   6.498   2.057 -0.4379 -0.2466 -0.0460
  804poe     o2 7481   0.151   6.477   2.190  0.5133 -0.1412  0.2760
  804poe    c23 7482   0.066   6.576   2.243  0.6643 -0.0606  0.3698
  804poe    c23 7483  -0.003   6.511   2.365  0.0479 -0.0373  0.0376
  804poe     o2 7484  -0.038   6.384   2.315  0.5239 -0.0704 -0.2192
  804poe    c23 7485  -0.076   6.281   2.404 -0.0465  0.2634 -0.0744
  804poe    c23 7486  -0.111   6.164   2.310  0.4682  0.1748 -0.1548
  804poe     o2 7487  -0.004   6.155   2.219 -0.2174  0.0554 -0.9590
  804poe    c31 7488  -0.029   6.050   2.128 -0.2800 -0.5423 -0.2674
  805poe    c31 7489   2.130   6.716   6.551 -0.6521  0.0274 -0.4313
  805poe     o2 7490   2.091   6.820   6.638 -0.1090  0.2108 -0.4001
  805poe    c23 7491   2.204   6.877   6.699 -0.2780  0.3076 -0.1784
  805poe    c23 7492   2.148   7.013   6.745  0.2296  0.4358  0.0678
  805poe     o2 7493   2.030   6.969   6.807  0.6229 -0.0358  0.4920
  805poe    c23 7494   1.946   7.056   6.881 -0.1667  0.2218 -0.6750
  805poe    c23 7495   1.812   6.983   6.899  0.0238 -0.0540 -0.3595
  805poe     o2 7496   1.783   6.931   6.771  0.2875 -0.1518 -0.3785
  805poe    c23 7497   1.683   6.833   6.787 -0.0587  0.2403 -0.1283
  805poe    c23 7498   1.676   6.777   6.644  0.2197 -0.2790  0.0598
  805poe     o2 7499   1.805   6.741   6.598  0.4393  0.9229 -0.3011
  805poe    c31 7500   1.782   6.643   6.499 -0.1403  0.6630  0.0812
  806poe    c31 7501   2.155   1.233   5.426  0.0506  0.1482  0.1421
  806poe     o2 7502   2.029   1.218   5.365  0.0352 -0.2435  0.2648
  806poe    c23 7503   2.009   1.079   5.376 -0.1066 -0.3148 -0.8245
  806poe    c23 7504   1.868   1.057   5.318 -0.3671 -0.2292 -0.2210
  806poe     o2 7505   1.840   1.150   5.216 -0.1347 -0.0027 -0.0810
  806poe    c23 7506   1.706   1.139   5.175 -0.0876  0.3385 -0.3371
  806poe    c23 7507   1.656   1.202   5.044 -0.2001  0.2276 -0.3477
  806poe     o2 7508   1.704   1.334   5.043  0.3460  0.0290 -0.6686
  806poe    c23 7509   1.638   1.428   4.961 -0.3142  0.0850 -0.0837
  806poe    c23 7510   1.669   1.422   4.810  0.4179  0.2955  0.0552
  806poe     o2 7511   1.629   1.299   4.754 -0.1337  0.3330  0.3625
  806poe    c31 7512   1.666   1.290   4.618  0.0020  0.1606  0.4110
  807poe    c31 7513   4.284   3.458   2.488 -0.3561 -0.2745 -0.0152
  807poe     o2 7514   4.148   3.496   2.483 -0.1199  0.6572  0.3289
  807poe    c23 7515   4.057   3.399   2.530  0.2294  0.3335  0.3492
  807poe    c23 7516   3.923   3.468   2.563 -0.1726 -0.3235  0.0994
  807poe     o2 7517   3.904   3.572   2.470 -0.4702  0.1250  0.6583
  807poe    c23 7518   3.769   3.614   2.463 -0.4256  0.1936  0.2269
  807poe    c23 7519   3.734   3.693   2.336  0.4335 -0.0083 -0.1463
  807poe     o2 7520   3.841   3.784   2.326  0.4416  0.0177  0.1681
  807poe    c23 7521   3.862   3.846   2.201  0.0259 -0.2724 -0.0484
  807poe    c23 7522   3.974   3.756   2.142 -0.0283 -0.1484 -0.3441
  807poe     o2 7523   4.077   3.738   2.237  0.0091  0.3387 -0.2857
  807poe    c31 7524   4.191   3.706   2.160  0.1923 -0.2655  0.2260
  808poe    c31 7525   4.052   0.711   2.024 -0.1865 -0.5611  0.4136
  808poe     o2 7526   4.120   0.815   2.091 -0.3694  0.1314 -0.4489
  808poe    c23 7527   4.030   0.865   2.188  0.0641 -0.2089  0.1328
  808poe    c23 7528   4.079   0.993   2.258  0.3999 -0.0575 -0.3744
  808poe     o2 7529   4.069   1.105   2.173  0.3397  0.0183 -0.2682
  808poe    c23 7530   4.129   1.212   2.241  0.1799  0.0508 -0.1776
  808poe    c23 7531   4.099   1.333   2.150 -0.3250 -0.1804 -0.3157
  808poe     o2 7532   4.136   1.301   2.018 -0.4397 -0.0839 -0.3711
  808poe    c23 7533   4.111   1.403   1.923  0.2331  0.4396  0.0037
  808poe    c23 7534   4.134   1.360   1.777 -0.1457 -0.0012  0.0727
  808poe     o2 7535   4.116   1.221   1.763  0.1387 -0.0507  0.1915
  808poe    c31 7536   4.125   1.182   1.627  0.0725  0.3181  0.0792
  809poe    c31 7537   2.609   1.880   0.639 -0.3431  0.6701 -0.4060
  809poe     o2 7538   2.676   2.004   0.626  0.3434  0.3426 -0.0323
  809poe    c23 7539   2.763   2.011   0.736 -0.0546 -0.4741  0.3459
  809poe    c23 7540   2.804   2.158   0.760  0.3306 -0.5527  0.1860
  809poe     o2 7541   2.827   2.210   0.631 -0.3534  0.4146  0.4454
  809poe    c23 7542   2.958   2.205   0.581 -0.4558  0.0138  0.2139
  809poe    c23 7543   2.959   2.210   0.427  0.1596 -0.0094  0.2125
  809poe     o2 7544   2.850   2.125   0.397  0.1858  0.0642 -0.0922
  809poe    c23 7545   2.808   2.129   0.262 -0.0221 -0.0353 -0.0304
  809poe    c23 7546   2.694   2.026   0.255 -0.1924  0.1505 -0.0201
  809poe     o2 7547   2.600   2.064   0.352 -0.1714 -0.3110  0.1827
  809poe    c31 7548   2.480   1.993   0.330 -0.4803  0.2512  0.0260
  810poe    c31 7549   2.699   5.083   0.429 -0.2519 -0.3416  0.6886
  810poe     o2 7550   2.754   4.952   0.428  0.3219 -0.1072  0.8158
  810poe    c23 7551   2.893   4.970   0.423  0.2107  0.7366  0.6280
  810poe    c23 7552   2.953   4.830   0.407  0.1861  0.7455  0.4464
  810poe     o2 7553   2.885   4.751   0.502  0.5186  0.2425  0.2726
  810poe    c23 7554   2.923   4.615   0.493 -0.5029 -0.0341 -0.0129
  810poe    c23 7555   2.783   4.551   0.506 -0.5972  0.1373 -0.1788
  810poe     o2 7556   2.713   4.628   0.602 -0.0260 -0.0501  0.3966
  810poe    c23 7557   2.580   4.582   0.591  0.1912 -0.5362 -0.2693
  810poe    c23 7558   2.477   4.690   0.628  0.4913 -0.3496  0.0244
  810poe     o2 7559   2.517   4.814   0.573  0.3036 -0.3545 -0.1232
  810poe    c31 7560   2.418   4.911   0.598  0.4518 -0.2817  0.1964
  811lim     li 7561   0.986   4.540   5.034  0.5683  0.5550  0.3898
  812lim     li 7562   4.139   1.655   4.756  0.4993  0.3184  0.0683
  813lim     li 7563   4.026   2.977   5.870  1.0208 -0.8199  0.6256
  814lim     li 7564   5.437   2.406   1.842 -0.1850 -0.2997 -0.8080
  815lim     li 7565   5.086   3.227   3.481 -0.4935  0.3849 -0.2481
  816lim     li 7566   3.522   5.895   5.684  0.2042  0.2603 -0.0483
  817lim     li 7567   4.030   3.668   2.396  0.2586 -0.8909 -0.4277
  818lim     li 7568   0.334   5.516   2.467  0.1759  1.5332 -0.6107
  819lim     li 7569   4.215   6.506   0.750  0.6899 -0.2581  0.9723
  820lim     li 7570   5.639   0.271   0.910  0.6717  0.6723  0.2363
  821lim     li 7571   3.845   3.656   0.801  0.3109  0.2711  1.1410
  822lim     li 7572   0.521   0.628   5.872 -0.6538  0.0569 -0.1959
  823lim     li 7573   2.248   4.928   4.200 -0.1718 -0.4220  0.0411
  824lim     li 7574   5.548   5.470   3.380 -0.8097 -0.0524  1.0333
  825lim     li 7575   2.116   4.427   3.418 -1.1520  0.2506 -0.5851
  826lim     li 7576   0.687   3.044   5.997 -0.8374 -0.1727  0.6306
  827lim     li 7577   1.469   1.643   6.628  0.8455  0.0280 -0.5371
  828lim     li 7578   0.471   0.074   5.335 -0.7975  1.9368  0.2966
  829lim     li 7579   1.451   3.139   3.338  0.4079 -0.1190 -0.8140
  830lim     li 7580   2.703   6.201   5.164  0.5394 -0.3031 -0.1145
  831lim     li 7581   2.167   5.417   5.354  0.1379  0.5615  0.9634
  832lim     li 7582   4.552   3.071   4.321  0.1051 -0.8657 -0.1905
  833lim     li 7583   2.954   2.616   3.810  0.0504  0.2278  0.8725
  834lim     li 7584   6.586   0.378   3.466  0.1839  0.7792  0.2768
  835lim     li 7585   3.235   2.774   4.896 -0.4507 -0.1018 -0.3204
  836lim     li 7586   0.425   0.798   6.676  0.2380 -0.4181  0.7688
  837lim     li 7587   2.097   0.150   4.595 -0.0727  0.4331 -0.6693
  838lim     li 7588   4.660   5.463   1.253 -0.3001 -0.0232  1.0316
  839lim     li 7589   4.426   6.290   3.971 -0.0483  0.1264 -0.0693
  840lim     li 7590   1.303   2.152   1.101 -0.1115  0.1082  0.0436
  841lim     li 7591   1.071   2.161   3.704 -0.7905  0.0893 -0.7606
  842lim     li 7592   4.060   0.318   0.113 -0.4315 -0.0015 -0.6187
  843lim     li 7593   0.619   1.959   6.291 -0.7372 -0.6584 -0.0790
  844lim     li 7594   4.876   4.347   4.920 -0.4411  0.3217 -0.0587
  845lim     li 7595   6.011   2.537   4.497 -0.2531  0.1709  0.9071
  846lim     li 7596   5.053   6.388   3.312 -0.0549 -0.6080 -0.7390
  847lim     li 7597   4.331   0.101   5.519  0.4085 -0.4316 -1.4672
  848lim     li 7598   6.384   2.821   4.846  0.1085 -0.2832  0.2295
  849lim     li 7599   1.601   3.542   1.965 -0.0319 -0.4514  0.3989
  850lim     li 7600   3.644   6.712   5.951  0.4562 -0.4159  0.5876
  851lim     li 7601   3.309   4.038   4.995  0.1803 -0.0677  0.2378
  852lim     li 7602   3.192   1.390   1.121 -0.5121 -1.1098  0.0740
  853lim     li 7603   5.577   3.514   6.262  0.0007  0.1394  0.4541
  854lim     li 7604   5.141   5.237   2.464  1.0875  1.0716  0.2283
  855lim     li 7605   2.626   3.410   3.753  0.2033  0.0783 -0.1452
  856lim     li 7606   2.609   3.212   1.464  0.9368  0.1462 -0.4835
  857lim     li 7607   4.116   3.856   4.203  0.1385 -0.4052 -0.7198
  858lim     li 7608   3.056   2.425   2.104 -0.0196  0.4509  0.7456
  859lim     li 7609   4.770   2.814   0.308 -0.1832  0.9211  0.1921
  860lim     li 7610   5.967   0.516   6.605  0.8130 -0.1769 -0.5315
  861lim     li 7611   1.519   6.332   0.835  0.4248  0.1236  0.9908
  862lim     li 7612   1.332   5.940   1.766 -0.6132 -0.0211 -0.3108
  863lim     li 7613   0.804   1.030   1.138 -0.3162 -0.3342  0.6707
  864lim     li 7614   5.565   4.807   4.846 -0.2430  0.4116  0.0755
  865lim     li 7615   1.350   5.255   3.785 -0.1722  0.6024 -1.3630
  866lim     li 7616   3.854   1.049   2.974  0.0419 -1.3073  0.3268
  867lim     li 7617   4.696   0.983   6.138  0.3355  0.6690  0.5695
  868lim     li 7618   4.839   1.119   0.481  0.4881  0.5337 -0.8405
  869lim     li 7619   0.457   5.931   3.989 -1.2786 -1.0943  0.1678
  870lim     li 7620   2.649   0.030   1.350 -0.8002  0.2059  0.0127
  871lim     li 7621   6.513   2.691   3.355 -0.6041 -0.4071  0.8377
  872lim     li 7622   1.021   5.493   5.810  0.5569 -0.6025 -0.0483
  873lim     li 7623   5.354   0.363   3.649  0.2641 -0.1707 -0.3111
  874lim     li 7624   4.357   3.285   0.949 -0.4939 -0.8308  0.4867
  875lim     li 7625   6.277   6.031   3.570 -0.3931  0.2475 -0.3282
  876lim     li 7626   2.292   4.508   1.436 -0.0110  0.2452 -0.3742
  877lim     li 7627   4.615   6.043   5.942  0.4192 -0.5420  0.5387
  878lim     li 7628   5.840   3.749   4.308 -0.0378  0.3289 -0.0266
  879lim     li 7629   2.680   5.722   1.664 -0.4529 -0.3514  0.1360
  880lim     li 7630   6.625   0.521   4.006 -0.2844  0.7215 -0.1855
  881lim     li 7631   1.720   3.147   6.097 -0.3270 -0.1221  1.1962
  882lim     li 7632   4.175   2.009   2.832 -0.0472  0.0859 -0.9118
  883lim     li 7633   6.086   4.210   1.469 -0.2698 -0.6758  0.3749
  884lim     li 7634   0.264   4.523   5.478  1.0343  1.0028 -0.0421
  885lim     li 7635   1.384   4.585   6.343  0.0576  0.7950 -0.6673
  886lim     li 7636   0.914   5.589   1.010  0.1796 -0.5976  0.6756
  887lim     li 7637   1.743   0.153   2.661 -0.6772 -0.2803 -0.6773
  888lim     li 7638   3.355   0.671   0.548  0.4412  0.1207 -0.3601
  889lim     li 7639   5.916   1.009   5.020 -0.0544 -0.1998 -0.6229
  890lim     li 7640   4.204   4.851   6.660 -0.8691  0.7863 -0.3293
  891lim     li 7641   3.966   5.341   0.654  0.5079  0.1746  0.1568
  892lim     li 7642   3.914   3.966   3.185 -0.0831  0.4279  0.7428
  893lim     li 7643   1.827   4.246   4.999 -0.1839 -0.0674  0.5448
  894lim     li 7644   2.624   1.905   1.483  0.9215  0.1270  0.0388
  895lim     li 7645   4.908   1.503   5.285  0.2381 -0.3371  0.5868
  896lim     li 7646   5.035   3.944   3.806 -0.1784 -0.1179 -1.1294
  897lim     li 7647   0.759   1.568   4.322 -0.2521  0.2997 -0.5093
  898lim     li 7648   0.252   3.495   4.897  0.7903  0.4034 -0.6615
  899lim     li 7649   1.676   2.718   4.010  0.2429 -0.0409  1.0572
  900lim     li 7650   0.102   6.288   5.266  0.3383  0.0101  0.6817
  901lim     li 7651   4.109   1.152   1.931 -0.4599  0.4283  1.2473
  902lim     li 7652   5.653   3.157   3.007 -0.9361 -0.3549 -0.2935
  903lim     li 7653   4.102   4.721   4.367 -0.2720  0.1510  0.4514
  904lim     li 7654   5.311   3.855   4.651 -0.3213 -0.5451  1.3025
  905lim     li 7655   4.136   1.383   0.247  0.6144  0.4804  0.2071
  906lim     li 7656   1.422   5.610   6.484  0.2597  0.0604 -0.3716
  907lim     li 7657   6.169   1.763   3.252 -0.0588 -1.0438 -0.2952
  908lim     li 7658   3.125   1.832   4.290  0.4065 -0.1279  0.0967
  909lim     li 7659   1.246   0.104   1.630  0.2769 -0.2502 -0.4802
  910lim     li 7660   0.202   2.568   0.499  0.3447  0.8488 -0.2554
  911lim     li 7661   1.194   5.779   4.418 -0.3892  0.0664 -0.1045
  912lim     li 7662   1.949   1.036   0.912 -0.0009  0.9650 -0.0207
  913lim     li 7663   3.165   3.333   2.426  0.3079  0.7919  1.2489
  914lim     li 7664   2.693   0.078   0.477  0.3252  0.4367 -1.6402
  915lim     li 7665   4.939   0.823   2.948  0.5451 -0.2606 -0.4443
  916lim     li 7666   1.094   1.764   2.766 -0.2679 -0.4023 -1.1599
  917lim     li 7667   1.930   4.039   6.271 -0.4736  0.2191  0.6178
  918lim     li 7668   1.437   2.447   6.103 -0.1369 -0.8818 -0.4995
  919lim     li 7669   0.346   3.022   2.435  0.3931 -0.8526 -0.0752
  920lim     li 7670   5.206   6.311   5.321  0.1039 -0.1126 -0.0407
  921lim     li 7671   5.888   4.598   2.347 -0.0237  0.1002 -0.2773
  922lim     li 7672   3.393   0.844   5.017  0.3260  0.5361 -0.1849
  923lim     li 7673   2.981   6.615   4.225  0.5616 -0.4604  0.1078
  924lim     li 7674   1.571   6.388   3.923 -0.0694  0.6405 -0.5507
  925lim     li 7675   1.106   4.609   5.800 -0.3691 -0.6359 -0.7820
  926lim     li 7676   4.257   2.333   1.520 -0.2451 -0.4233  0.0310
  927lim     li 7677   0.911   3.260   1.852  0.2413 -0.2460  0.9127
  928lim     li 7678   6.069   0.101   5.813 -0.6072 -0.4215  0.1552
  929lim     li 7679   2.433   3.718   4.840 -0.1062  0.6567 -0.5443
  930lim     li 7680   0.884   0.167   3.555  0.8291 -0.6044  0.5845
  931lim     li 7681   6.026   3.892   5.946 -0.1148  0.0625 -0.6435
  932lim     li 7682   3.385   5.398   3.333 -0.6642  0.3210  0.1308
  933lim     li 7683   2.230   6.133   6.242  1.0429  0.4719 -0.3597
  934lim     li 7684   0.102   0.052   1.400  0.3446  0.6255 -0.6893
  935lim     li 7685   6.488   3.532   6.615  0.4216 -0.6868  0.1612
  936lim     li 7686   1.138   3.834   3.911  1.1411 -0.5449  0.6098
  937lim     li 7687   5.951   0.888   3.668 -0.2160 -0.4740 -0.9974
  938lim     li 7688   2.162   5.492   3.754 -0.1759 -0.3886 -0.0752
  939lim     li 7689   6.292   2.596   5.988 -0.4104 -1.6445  0.7879
  940lim     li 7690   4.266   6.599   2.604 -0.0743 -0.0810  0.8826
  941lim     li 7691   5.992   0.305   2.257  0.8374  0.3831  0.5135
  942lim     li 7692   5.216   5.509   5.766  0.5574  0.1839  0.0557
  943lim     li 7693   3.487   3.475   5.556 -0.2669 -0.1941  0.0530
  944lim     li 7694   2.302   4.953   2.601  0.2878  0.2762 -0.4717
  945lim     li 7695   0.105   2.545   4.125  0.0200  1.1351 -1.1291
  946lim     li 7696   4.859   4.467   6.449  0.0288 -0.7229 -0.5388
  947lim     li 7697   3.571   2.170   2.538 -0.5795  0.1051 -0.2342
  948lim     li 7698   0.541   5.328   5.278  0.1101  0.3844  0.4213
  949lim     li 7699   4.224   3.439   4.978 -0.0133 -0.2390  0.8565
  950lim     li 7700   6.389   3.152   0.432 -0.1763  0.0547  0.0388
  951lim     li 7701   3.668   1.684   1.776 -0.1855  0.5311  0.5292
  952lim     li 7702   0.797   3.012   3.927 -1.5092  0.5625  0.8827
  953lim     li 7703   4.452   0.780   2.565 -0.6664 -0.4263 -0.9846
  954lim     li 7704   5.472   3.970   1.641  0.3287 -0.2546  0.2187
  955lim     li 7705   1.391   2.391   3.248  0.3153 -0.4365 -1.1445
  956lim     li 7706   4.844   3.224   2.717 -0.0293  0.0469 -0.8544
  957lim     li 7707   2.516   0.868   4.514 -0.7833  0.6417  0.8709
  958lim     li 7708   3.826   0.200   4.065  0.5022  0.1591  1.4476
  959lim     li 7709   0.801   2.749   0.012 -0.7223  0.0984  0.3049
  960lim     li 7710   4.620   6.615   1.235  0.2964  0.6056  0.2161
  961lim     li 7711   5.488   2.136   6.510  0.6212  0.1908  0.6028
  962lim     li 7712   3.609   6.229   4.907  0.4966  1.1260  0.7343
  963lim     li 7713   5.395   1.571   6.065  0.4601  0.7800 -0.5127
  964lim     li 7714   2.367   2.290   2.787 -0.7004 -0.2442 -0.1980
  965lim     li 7715   4.588   4.321   0.504 -0.1157 -0.0554 -0.1378
  966lim     li 7716   0.973   0.466   0.524 -0.2552 -0.2944  0.1207
  967lim     li 7717   2.092   1.711   4.332  0.8636  0.3660 -1.1443
  968lim     li 7718   2.552   4.099   2.011  0.1440 -0.0578  0.0116
  969lim     li 7719   4.760   0.182   4.892  0.9797 -1.1120  0.6055
  970lim     li 7720   6.591   4.012   2.782 -0.8075 -0.1954  0.5020
  971lim     li 7721   0.434   1.950   4.770 -0.2757  0.4794 -0.5144
  972lim     li 7722   4.560   2.237   2.265  0.7275 -0.1372  0.7790
  973lim     li 7723   4.125   2.319   6.081  0.5861 -0.2076  0.2205
  974lim     li 7724   4.809   1.421   3.786 -0.2197  0.5211 -0.2254
  975lim     li 7725   1.008   2.812   4.691 -0.1855 -0.6171 -0.1337
  976lim     li 7726   5.847   3.350   5.301 -1.2472  0.0589 -0.3098
  977lim     li 7727   6.292   4.717   6.697  0.5330  0.6509 -0.5736
  978lim     li 7728   5.212   5.030   0.342 -0.1892 -0.4844  0.1823
  979lim     li 7729   0.361   6.527   3.178 -0.3071  0.7315 -0.2870
  980lim     li 7730   3.357   1.406   5.855  0.7078  0.4859 -0.9002
  981lim     li 7731   2.147   0.417   3.977  1.1802 -0.5678 -0.0345
  982lim     li 7732   4.736   2.379   5.434 -0.6569  0.4796  0.2540
  983lim     li 7733   2.913   6.266   6.219  0.4993  0.0524  0.8280
  984lim     li 7734   4.788   2.248   4.513  0.4597 -0.0972 -0.0127
  985lim     li 7735   5.836   2.586   2.449 -0.7694  0.0725  0.3696
  986lim     li 7736   2.890   5.483   5.780  0.2491  0.4615 -0.1719
  987lim     li 7737   6.352   1.759   1.491 -0.0081  1.1859  0.2385
  988lim     li 7738   4.947   0.066   6.159 -0.5548 -0.1964  0.4435
  989lim     li 7739   2.564   4.739   5.456 -0.0515  0.0152  0.7300
  990lim     li 7740   4.066   5.594   6.292 -0.6868 -0.5048 -0.1503
  991lim     li 7741   0.349   2.139   5.673 -0.8381 -0.4906  0.4986
  992lim     li 7742   1.805   5.189   4.619  0.6051 -0.2238  0.0022
  993lim     li 7743   5.599   4.592   3.434  0.1200  0.5245 -0.7950
  994lim     li 7744   4.336   4.618   1.141  0.4209  0.2804  0.0095
  995lim     li 7745   5.387   4.939   3.759  0.7882 -0.3381 -0.6125
  996lim     li 7746   6.586   6.150   6.561 -0.3991  0.6117 -0.5679
  997lim     li 7747   1.474   0.510   6.055 -0.0113 -0.7161  0.2250
  998lim     li 7748   1.548   4.540   4.157  0.2193  0.5597  0.5743
  999lim     li 7749   0.301   1.631   0.448 -0.1766  0.0345  0.3066
 1000lim     li 7750   3.605   4.230   0.266 -0.3609  0.6949 -0.2303
 1001lim     li 7751   1.731   3.653   3.204  0.0717  1.0448 -1.0416
 1002lim     li 7752   6.085   1.587   2.488 -1.1176  0.2546 -0.4217
 1003lim     li 7753   4.494   1.638   3.311  0.4850  0.3601  1.0522
 1004lim     li 7754   4.679   0.558   4.190 -0.7062 -0.1977 -0.5172
 1005lim     li 7755   6.401   5.937   1.277 -1.6007  0.4398  0.4425
 1006lim     li 7756   5.449   1.170   0.075  0.0555  0.1791 -0.2443
 1007lim     li 7757   4.677   6.614   0.131 -0.3232  0.6983 -0.2502
 1008lim     li 7758   0.931   6.698   2.392 -0.3383 -0.2036  0.0083
 1009lim     li 7759   5.560   6.136   2.886  0.0360 -0.4158  0.4002
 1010lim     li 7760   6.232   4.964   0.987  0.3355 -0.5737  0.4104
 1011lim     li 7761   3.212   0.712   6.063 -0.8757  0.7174 -0.9875
 1012lim     li 7762   5.534   2.008   2.882  0.5457 -0.0943  0.0936
 1013lim     li 7763   3.329   2.460   0.900 -0.9500 -0.4787 -0.0449
 1014lim     li 7764   4.760   2.484   3.238 -0.6837 -0.4737 -0.8761
 1015lim     li 7765   0.638   2.026   1.217  0.0490 -0.6639 -0.2819
 1016lim     li 7766   3.001   0.469   3.705 -0.4462  0.5014 -0.6904
 1017lim     li 7767   5.399   5.799   0.872 -0.3561 -1.1113 -0.8247
 1018lim     li 7768   0.524   1.363   3.092  0.0817 -0.9146  0.0507
 1019lim     li 7769   0.668   4.680   6.396 -0.5394  0.7816  0.4826
 1020lim     li 7770   1.236   4.876   1.409  0.1676 -0.8527  0.4800
 1021lim     li 7771   4.720   1.677   1.400  1.0848 -0.0142 -0.6112
 1022lim     li 7772   5.393   3.545   0.953 -0.3211  0.7086 -0.3529
 1023lim     li 7773   2.987   5.221   3.839  0.4419 -0.2167 -0.3733
 1024lim     li 7774   3.893   2.588   5.083 -1.0339 -0.1204 -0.0885
 1025lim     li 7775   5.254   4.222   0.930  0.7567  0.4410 -0.6809
 1026lim     li 7776   6.354   0.416   1.766  0.0131 -0.2047  0.4739
 1027lim     li 7777   3.089   3.850   1.528  0.8380 -0.0234  0.4711
 1028lim     li 7778   3.116   6.536   1.110  0.9722  0.9268 -1.3170
 1029lim     li 7779   4.078   6.021   1.487  0.7141 -0.1714 -0.7960
 1030lim     li 7780   0.273   5.073   3.392 -0.5496 -0.1488 -0.2227
 1031lim     li 7781   5.516   0.794   2.158  0.5968 -0.5318  0.3923
 1032lim     li 7782   6.021   3.990   4.972 -0.1757  1.3360 -0.0012
 1033lim     li 7783   4.966   6.197   4.518 -0.1036 -0.2423 -0.7104
 1034lim     li 7784   3.918   6.710   1.457  0.0829  0.1631  1.1371
 1035lim     li 7785   0.634   2.871   5.329 -0.3206 -0.5329 -0.3515
 1036lim     li 7786   0.652   5.936   1.891  0.7649  0.9877 -0.6842
 1037lim     li 7787   1.425   3.927   5.509 -1.2820 -1.0016  0.0605
 1038lim     li 7788   3.909   4.798   3.729  0.7930 -0.8871 -1.0831
 1039lim     li 7789   5.822   4.292   0.371  0.0082 -0.0314 -0.2184
 1040lim     li 7790   2.627   1.134   0.531 -0.4310  0.1334 -0.9591
 1041lim     li 7791   1.871   6.156   2.231 -0.4295 -0.0626  0.4508
 1042lim     li 7792   5.972   2.524   1.165 -0.6547 -0.8569 -0.3223
 1043lim     li 7793   2.455   2.967   5.897  0.2791 -0.1252  0.4184
 1044lim     li 7794   2.742   6.444   2.366  0.4402  0.2467  0.3145
 1045lim     li 7795   0.534   3.701   5.636  0.0669  0.3803  0.8149
 1046lim     li 7796   4.942   2.291   3.844  1.1554 -0.5380  0.0317
 1047lim     li 7797   2.826   1.629   2.387  0.1276  1.6861 -0.2334
 1048lim     li 7798   2.310   2.128   5.824 -0.5010 -0.8557  0.0343
 1049lim     li 7799   3.656   5.106   4.861 -0.6219 -0.2309 -0.0202
 1050lim     li 7800   3.013   5.445   0.053 -0.1010 -0.0563  0.3805
 1051lim     li 7801   4.016   6.226   0.285 -0.7111 -0.2343 -0.8676
 1052lim     li 7802   4.006   0.864   5.391 -0.3877 -1.3853 -1.0450
 1053lim     li 7803   0.944   5.232   2.648  0.6883  0.4205 -0.0332
 1054lim     li 7804   3.108   4.116   5.698 -0.1319 -0.1421 -0.2063
 1055lim     li 7805   2.125   5.279   1.121 -0.5378  0.2317  0.5738
 1056lim     li 7806   6.404   5.267   2.044  0.0737  0.3650 -0.3325
 1057lim     li 7807   6.386   1.105   5.493 -0.8621  0.3419  0.3343
 1058lim     li 7808   1.433   2.924   0.547  0.3379 -0.2053 -0.3702
 1059lim     li 7809   2.339   1.149   1.718 -0.9259  0.1824  0.2684
 1060lim     li 7810   1.994   1.821   0.854 -0.5024  0.3756  0.7523
 1061lim     li 7811   0.409   4.016   1.814  0.1586 -0.7900 -0.2251
 1062lim     li 7812   5.063   3.641   6.700  1.4619  0.0621 -0.4625
 1063lim     li 7813   2.982   4.825   2.265 -0.6091 -0.9934 -0.1420
 1064lim     li 7814   0.123   0.144   0.362  0.2041 -0.0680  0.7807
 1065lim     li 7815   2.764   0.723   2.473  0.1645 -0.1017 -0.6081
 1066lim     li 7816   2.227   2.392   3.470  0.0928  0.6174  0.4632
 1067lim     li 7817   5.203   4.454   5.517  0.7083 -0.0210 -1.1239
 1068lim     li 7818   4.726   5.734   3.063 -0.6071 -0.5142  0.3447
 1069lim     li 7819   2.701   1.933   5.114  1.3960  0.4632  0.0883
 1070lim     li 7820   5.105   4.491   2.373  0.6332  0.7641 -0.5274
 1071lim     li 7821   5.234   0.825   1.403  0.2221 -0.0336  0.1595
 1072lim     li 7822   5.522   2.092   5.368  0.2608  0.6152  0.2785
 1073lim     li 7823   2.915   5.317   4.681  0.0759 -0.2046  0.6959
 1074lim     li 7824   6.605   0.046   5.959 -0.3183 -0.2580 -1.4300
 1075lim     li 7825   1.289   1.253   4.603 -0.0998 -0.0250  0.1168
 1076lim     li 7826   1.963   1.613   3.507  0.2916 -0.0836  0.8593
 1077lim     li 7827   5.828   0.184   5.090  0.0076 -0.5552 -1.0586
 1078lim     li 7828   0.410   5.011   1.739 -0.0208 -0.1862 -0.0584
 1079lim     li 7829   3.983   2.302   3.619  0.1178 -0.0748  0.7830
 1080lim     li 7830   2.083   3.543   6.691  0.8691  0.6905  0.0588
 1081lim     li 7831   0.807   3.796   2.881 -0.5106  0.4027 -0.1435
 1082lim     li 7832   0.261   2.057   3.439  0.9392 -0.0831 -0.0787
 1083lim     li 7833   1.926   0.166   6.666 -0.3684  0.6711  0.0770
 1084lim     li 7834   2.721   4.811   0.542 -0.9915  0.2189 -1.5301
 1085lim     li 7835   2.974   4.465   6.273 -0.1030  0.6332 -0.7119
 1086lim     li 7836   2.748   2.982   6.566 -0.8644  0.1238 -1.4832
 1087lim     li 7837   0.343   4.081   4.341 -0.6073 -0.7009 -1.0134
 1088lim     li 7838   4.548   3.024   1.334  0.6526  0.6301 -0.6012
 1089lim     li 7839   6.033   0.948   1.157  0.4934 -0.1200  0.9431
 1090lim     li 7840   6.363   5.224   5.898  0.4629 -0.6953 -0.4402
 1091lim     li 7841   3.555   6.319   3.570 -0.6122 -0.1476  0.9789
 1092lim     li 7842   1.949   6.041   1.368 -0.9623  0.2500  0.1556
 1093lim     li 7843   1.603   6.595   5.784  1.0895  0.4592  0.0910
 1094lim     li 7844   3.135   5.697   2.268 -0.6590 -0.2190  0.5594
 1095lim     li 7845   1.511   2.049   0.407  0.6598  0.0348 -0.0719
 1096lim     li 7846   6.035   6.000   5.431 -0.5330  0.0088 -0.9716
 1097lim     li 7847   5.674   4.762   6.068  0.4074 -0.1772 -1.2649
 1098lim     li 7848   3.772   4.170   1.580 -0.7634  0.2840  0.0838
 1099lim     li 7849   3.336   1.703   3.402 -0.2651 -0.4850  0.0831
 1100lim     li 7850   5.368   2.882   0.275 -0.7916 -0.4215 -0.2722
 1101lim     li 7851   0.593   0.010   6.368 -0.4874 -0.1424 -0.6531
 1102lim     li 7852   0.185   5.730   1.173  0.0982  0.8562  0.1809
 1103lim     li 7853   4.820   4.719   4.317 -0.1884 -0.0433  0.5794
 1104lim     li 7854   0.655   2.567   2.807 -0.6635 -0.3714 -0.0971
 1105lim     li 7855   3.508   1.835   0.733  0.1187 -0.9497  0.5587
 1106lim     li 7856   2.761   4.390   3.517 -0.1069  0.1383  0.2194
 1107lim     li 7857   0.786   0.471   2.861  0.1804  0.0590 -0.2213
 1108lim     li 7858   0.110   0.399   2.379  0.3564 -0.0676 -1.0493
 1109lim     li 7859   2.058   4.250   2.674  1.3628  0.1779  0.2498
 1110lim     li 7860   2.306   2.875   2.108  0.0910 -0.3600  0.1400
 1111lim     li 7861   2.950   4.877   3.039  0.2315 -0.0581 -1.4089
 1112lim     li 7862   5.663   5.938   6.165 -0.3204 -0.1478 -0.9094
 1113lim     li 7863   5.173   1.825   0.491 -0.1803 -0.4594  0.7527
 1114lim     li 7864   3.017   0.832   1.405 -0.5368  0.5133  0.7991
 1115lim     li 7865   0.491   1.020   3.574 -0.5444 -0.3057  0.0416
 1116lim     li 7866   4.070   2.882   2.132  0.6846 -0.0702 -0.6602
 1117lim     li 7867   3.406   3.187   6.407 -0.2068  1.0463  0.4465
 1118lim     li 7868   5.712   6.515   1.329  0.5115 -1.5816 -0.4059
 1119lim     li 7869   4.284   1.098   4.815 -0.1844  0.1157  0.1821
 1120lim     li 7870   1.560   0.571   5.206 -0.6653 -0.0814  0.4384
 1121lim     li 7871   5.584   1.797   1.575  0.7632  0.3566 -0.4377
 1122lim     li 7872   4.028   1.176   3.845 -0.2635  0.1200  0.5174
 1123lim     li 7873   0.739   4.481   1.019  0.8244  0.1654  0.6605
 1124lim     li 7874   0.565   0.166   4.542 -0.1278  0.0043 -0.6058
 1125lim     li 7875   5.873   1.846   0.746 -0.7620  0.1035  0.4765
 1126lim     li 7876   3.030   0.213   5.094 -0.9467  0.8189  0.4637
 1127lim     li 7877   1.170   3.805   4.700 -0.2947  0.0464  1.0961
 1128lim     li 7878   0.697   0.054   0.955  0.1903  0.9235  0.5678
 1129lim     li 7879   2.699   1.591   3.836  0.5020 -0.4288  0.0893
 1130lim     li 7880   1.920   5.499   2.189 -0.4886  0.8953 -0.2488
 1131lim     li 7881   2.505   0.949   6.653  0.6154  0.1646  0.5283
 1132lim     li 7882   1.028   4.653   0.369  0.0048  0.4866  0.3057
 1133lim     li 7883   1.265   1.092   0.551  0.0609 -0.2975 -0.4110
 1134lim     li 7884   3.275   0.599   2.811  0.5229  0.2657  0.0362
 1135lim     li 7885   3.667   3.173   1.731  0.2591 -0.2146 -0.0773
 1136lim     li 7886   5.956   5.109   4.180 -0.4937 -0.8343 -0.6377
 1137lim     li 7887   2.376   2.751   5.095 -1.2640 -0.8538  0.3493
 1138lim     li 7888   6.255   5.476   3.293  0.8609  0.0978 -0.4894
 1139lim     li 7889   0.380   4.506   2.339  0.6497  0.5578 -1.1518
 1140lim     li 7890   5.499   3.110   4.488  0.9817 -0.1479 -0.6061
 1141lim     li 7891   6.688   3.496   1.911 -0.3254  0.3290 -0.3298
 1142lim     li 7892   2.274   5.981   4.450  0.7221  0.3485 -0.0390
 1143lim     li 7893   1.659   0.780   0.024  0.5054  0.4997  0.5549
 1144lim     li 7894   0.696   3.700   0.586  0.8351 -0.5431  0.7266
 1145lim     li 7895   1.567   0.650   3.857  0.2251 -0.8220 -0.5548
 1146lim     li 7896   4.856   4.668   1.564 -1.1228  0.4579  0.4129
 1147lim     li 7897   0.116   5.208   4.595 -0.0449 -0.2813 -0.3444
 1148lim     li 7898   4.921   2.447   1.088 -0.6578  0.1169  0.7006
 1149lim     li 7899   3.421   4.264   3.756 -0.3823  0.5081  0.6864
 1150lim     li 7900   2.355   1.992   6.545  0.3411  0.0415  0.7112
 1151lim     li 7901   0.044   5.917   4.465 -0.7396  0.1184  0.1398
 1152lim     li 7902   3.882   2.946   0.437 -0.2180  0.0516  0.2719
 1153lim     li 7903   3.365   6.142   0.127 -0.4554  0.4165  0.6228
 1154lim     li 7904   6.556   6.605   4.114 -0.2223 -0.6275  1.0148
 1155lim     li 7905   3.768   0.007   3.020  0.6062  0.4256 -1.3903
 1156lim     li 7906   5.243   0.199   2.543 -0.6198  0.0206  0.1421
 1157lim     li 7907   1.845   5.410   3.199 -0.5028 -0.0696 -0.1790
 1158lim     li 7908   2.173   4.452   0.319  0.2421 -0.3782  0.3770
 1159lim     li 7909   5.464   1.926   4.738 -0.2961 -0.1903 -0.3416
 1160lim     li 7910   3.113   0.260   6.655 -0.2033  0.2327  0.4721
 1161lim     li 7911   5.925   3.036   0.776  0.3852 -0.2005  0.3274
 1162lim     li 7912   0.103   3.800   3.815 -0.5694  0.1267 -0.4382
 1163lim     li 7913   1.810   1.693   1.767  0.2273  0.2423 -1.4479
 1164lim     li 7914   5.179   6.107   0.322  0.1867 -0.7665  0.5602
 1165lim     li 7915   4.256   5.624   2.368 -0.5817  0.8762  0.8736
 1166lim     li 7916   3.108   1.357   4.887 -0.3691  0.2759  0.4132
 1167lim     li 7917   0.813   4.441   3.339  0.2985  0.1031 -0.2838
 1168lim     li 7918   2.707   2.138   0.500 -0.3684 -0.2091 -0.6769
 1169lim     li 7919   3.663   4.259   2.606  0.0568  0.4227 -0.0430
 1170lim     li 7920   6.228   2.083   0.305  0.0079 -0.6235 -0.0509
 1171lim     li 7921   4.452   5.973   5.157  0.0245 -0.3282 -0.3401
 1172lim     li 7922   3.150   3.134   0.755  0.4372  0.2247 -0.2222
 1173lim     li 7923   0.836   0.484   5.118 -0.3637 -0.5013 -0.0807
 1174lim     li 7924   0.096   5.635   5.932 -0.0284  0.0233  0.1169
 1175lim     li 7925   3.055   4.023   0.799  0.8025 -0.0474 -1.4027
 1176lim     li 7926   5.721   2.638   3.619  0.3864 -0.4758 -0.8479
 1177lim     li 7927   4.525   3.900   1.674 -0.7060 -0.0851 -0.3385
 1178lim     li 7928   0.663   0.972   2.366  0.6272 -0.0597 -0.0393
 1179lim     li 7929   0.763   2.438   2.023 -0.4753  0.2983 -0.0084
 1180lim     li 7930   5.208   2.929   1.968  0.1059  0.0406  0.5702
 1181lim     li 7931   1.991   3.855   4.124  0.2325  0.0122 -0.2664
 1182lim     li 7932   6.692   2.247   2.257 -0.0100  0.3001  0.6805
 1183lim     li 7933   1.176   6.411   6.622 -0.9972 -0.4421  1.2834
 1184lim     li 7934   2.533   0.139   5.774 -0.1426 -0.6675 -0.2928
 1185lim     li 7935   5.894   5.486   2.595 -1.1838  0.4498 -0.1096
 1186lim     li 7936   6.650   1.565   4.136 -0.3822  1.8252 -0.5517
 1187lim     li 7937   6.585   2.395   6.587 -0.4290  0.5814 -0.6758
 1188lim     li 7938   0.878   6.048   3.321  0.5035 -0.2879  0.0808
 1189lim     li 7939   4.812   2.094   6.412  0.0316  0.5126  0.2739
 1190lim     li 7940   1.701   3.205   4.408 -0.3742 -0.0096 -0.1803
 1191lim     li 7941   4.964   3.179   5.201  0.3340 -0.1948  0.1805
 1192lim     li 7942   4.095   5.649   4.431 -0.6174 -0.1629 -0.2270
 1193lim     li 7943   1.224   3.140   1.092  0.3291  0.0304  1.4232
 1194lim     li 7944   3.450   5.114   6.355  0.1026 -0.3219  0.5386
 1195lim     li 7945   2.539   2.486   4.572 -0.2346  0.0528 -0.4139
 1196lim     li 7946   6.522   4.589   4.011 -0.4493  0.0969  0.3918
 1197lim     li 7947   2.721   5.774   3.000  0.1669  0.8209 -0.3158
 1198lim     li 7948   1.669   0.856   2.020 -0.4574 -0.3245 -0.7513
 1199lim     li 7949   3.292   2.697   5.898 -0.2512  1.1579  0.9347
 1200lim     li 7950   2.809   3.802   0.033  0.0922 -0.4246 -1.6792
 1201lim     li 7951   5.760   0.852   5.919 -0.8837 -0.2852  0.7088
 1202lim     li 7952   1.957   2.684   0.010 -0.8481  0.8874 -0.7649
 1203lim     li 7953   2.324   6.311   0.583 -0.1533 -0.6258  0.1078
 1204lim     li 7954   1.884   5.138   6.011 -0.2593 -0.9247  0.4800
 1205lim     li 7955   3.175   1.524   6.680 -0.0509  0.4851 -0.0836
 1206lim     li 7956   5.774   0.198   4.332  0.9000 -0.0050  1.0180
 1207lim     li 7957   6.111   6.230   1.867 -0.2286 -0.5508 -0.2167
 1208lim     li 7958   3.691   5.199   2.608 -0.0597  0.4059  0.1538
 1209lim     li 7959   4.665   3.041   6.162  1.0947  0.1874  0.7798
 1210lim     li 7960   4.111   1.740   6.276  0.0312  0.4755 -0.7773
 1211lim     li 7961   4.144   5.613   3.424  0.6346 -0.4092 -0.6694
 1212lim     li 7962   6.341   6.632   0.677  0.1061  0.5424  0.8537
 1213lim     li 7963   2.059   1.493   2.628  1.1161  0.8571  1.3222
 1214lim     li 7964   2.934   3.834   2.663 -0.1819 -0.2891 -0.5917
 1215lim     li 7965   6.701   0.574   5.119  1.1540 -0.0580  0.7850
 1216lim     li 7966   0.661   1.511   5.185 -0.6816 -0.0920  0.7332
 1217lim     li 7967   4.230   4.003   5.352  1.1614 -0.1069 -0.3247
 1218lim     li 7968   4.810   5.363   1.854 -0.1998  1.1463  0.2165
 1219lim     li 7969   1.395   3.113   5.417  0.7148  0.3750 -0.0901
 1220lim     li 7970   3.824   4.943   1.812  0.6488  0.5679 -0.9698
 1221lim     li 7971   4.346   4.401   3.268 -0.4382 -0.0779  0.2226
 1222lim     li 7972   5.119   3.456   5.679  0.6398 -0.4936  0.4844
 1223lim     li 7973   5.011   5.254   5.086  1.2982 -0.2381  0.5932
 1224lim     li 7974   3.987   0.954   1.066  0.8149 -0.5062  0.1593
 1225lim     li 7975   0.048   4.636   0.642 -0.3450 -0.2461  0.0992
 1226lim     li 7976   4.014   0.075   4.772 -1.0783  0.2492  0.8945
 1227lim     li 7977   2.809   6.474   3.168 -0.3938 -0.3512  0.8619
 1228lim     li 7978   4.188   3.220   3.496  0.0513 -0.6782  0.3762
 1229lim     li 7979   0.206   3.972   0.244 -0.3855 -0.0922 -0.5798
 1230lim     li 7980   2.820   4.415   4.479  0.2513 -0.1377  0.0536
 1231lim     li 7981   4.559   4.789   5.708  0.1985  0.3969  0.6433
 1232lim     li 7982   3.786   5.135   5.505 -0.2114 -0.3665  0.1273
 1233lim     li 7983   4.809   0.031   2.006  0.2943 -1.9892  0.7190
 1234lim     li 7984   1.210   4.051   2.117 -0.4731  0.2733  0.0152
 1235lim     li 7985   3.641   2.454   6.688  0.5675  0.8290  0.7653
 1236lim     li 7986   3.602   2.738   2.935 -0.3944  0.4747  0.7521
 1237lim     li 7987   6.133   1.618   5.928 -0.2587  0.1245  0.2207
 1238lim     li 7988   5.669   5.199   1.512  0.1155 -0.1791 -0.1076
 1239lim     li 7989   3.432   0.886   4.209  0.7032  0.2971 -0.6585
 1240lim     li 7990   1.584   0.738   2.888 -1.0365 -0.0150  0.2357
 1241lim     li 7991   2.221   0.736   3.158  1.1007 -0.2110  0.3510
 1242lim     li 7992   6.188   1.054   0.075 -0.4968  0.6683  0.7557
 1243lim     li 7993   6.225   3.124   2.444 -0.5080 -0.3518  0.5968
 1244lim     li 7994   1.049   5.543   4.935  0.3010 -0.5926  0.0235
 1245lim     li 7995   0.441   3.169   3.197  0.4114 -0.6281  0.3569
 1246lim     li 7996   0.095   1.387   5.817  0.2796  0.5918 -0.5162
 1247lim     li 7997   1.915   1.293   5.244 -0.5379  0.0138  1.1464
 1248lim     li 7998   3.646   4.533   5.811  0.6443  0.1760 -0.7520
 1249lim     li 7999   3.635   0.323   1.842  0.3901  0.8313 -1.4193
 1250lim     li 8000   2.663   1.258   3.167  0.2923  0.3125  0.7880
 1251lim     li 8001   4.530   0.656   1.439 -0.0646 -0.7759  0.5255
 1252lim     li 8002   6.622   3.329   1.202  0.3677 -0.4302  0.2620
 1253lim     li 8003   1.653   5.263   0.357 -0.5382  0.1936  0.0861
 1254lim     li 8004   3.088   4.911   1.323  1.3216  0.2715 -0.3164
 1255lim     li 8005   1.338   3.055   2.707  0.1231 -0.0871 -0.4191
 1256lim     li 8006   6.081   0.063   3.032  0.7666  0.6182 -0.5511
 1257lim     li 8007   3.798   2.294   4.365  0.2551  0.7370 -0.6373
 1258lim     li 8008   4.394   4.554   2.346 -0.5250  0.4427  0.3572
 1259lim     li 8009   5.371   5.977   2.160  0.6297 -0.3676  0.5120
 1260lim     li 8010   5.307   0.948   4.306  1.2448  0.4156  0.0438
 1261lim     li 8011   6.430   3.195   3.919  0.6755 -1.1792 -0.3396
 1262lim     li 8012   5.646   3.293   1.557  0.9558 -0.4529  1.0234
 1263lim     li 8013   2.297   3.155   2.926 -0.1712  0.6101 -1.3733
 1264lim     li 8014   0.034   0.880   0.570 -0.1692 -0.0239 -0.0469
 1265lim     li 8015   6.457   6.377   2.949  0.2297 -0.5215 -1.2069
 1266lim     li 8016   3.456   2.429   1.461 -0.3654 -0.6974  0.5137
 1267lim     li 8017   0.090   6.294   2.210  0.4143 -0.3160  0.6125
 1268lim     li 8018   2.018   6.279   3.289  0.2546  0.7550  0.1621
 1269lim     li 8019   5.974   3.919   2.350  0.7136 -0.8503  0.2149
 1270lim     li 8020   6.624   3.327   5.717 -0.6708 -1.3662 -0.1565
 1271lim     li 8021   1.875   5.790   0.507  0.3405 -0.5501 -0.0333
 1272lim     li 8022   1.277   2.149   5.582 -1.0430  0.2089  0.6190
 1273lim     li 8023   6.028   5.303   5.318 -0.1145  0.5279 -0.3881
 1274lim     li 8024   4.778   5.537   4.091  0.0691 -0.2305  0.6970
 1275lim     li 8025   4.689   5.062   3.110  0.2555  0.1635  0.0297
 1276lim     li 8026   0.448   1.719   2.242 -0.3460 -0.6177  0.8288
 1277lim     li 8027   1.883   3.789   1.188  0.6604  0.9073  0.3778
 1278lim     li 8028   6.666   1.177   2.007 -1.0924  0.2100  0.8195
 1279lim     li 8029   2.266   5.299   6.435  0.2396 -0.3561  0.0981
 1280lim     li 8030   1.461   4.215   1.055 -0.2682 -0.4144 -0.1073
 1281lim     li 8031   5.794   5.746   4.612 -0.5572 -0.3166 -0.3447
 1282lim     li 8032   6.152   4.021   3.455 -0.1970 -0.2786 -0.6002
 1283lim     li 8033   2.945   5.642   0.922 -0.0890 -0.4909  0.1839
 1284lim     li 8034   3.109   3.552   4.322  0.1055  0.2647 -0.4299
 1285lim     li 8035   0.803   3.847   6.290 -0.4273 -0.5741 -0.5126
 1286lim     li 8036   1.475   6.024   2.932  0.2604  0.0047  0.0632
 1287lim     li 8037   6.409   0.857   4.403  0.3516  0.1319 -0.5122
 1288lim     li 8038   1.798   0.383   1.224  0.2860 -0.1404  0.2589
 1289lim     li 8039   5.331   1.550   2.177  1.1141 -0.4514  1.0898
 1290lim     li 8040   6.637   4.348   1.349 -0.1315  0.1507 -0.7520
 1291lim     li 8041   2.353   0.165   1.975  0.0093  0.1704 -0.4208
 1292lim     li 8042   5.608   1.045   3.072  0.3044  0.5886  0.5785
 1293lim     li 8043   5.569   6.661   6.485  0.5910  0.2785 -0.1799
 1294lim     li 8044   4.197   2.321   0.575 -0.4801  0.6676  0.3358
 1295lim     li 8045   1.180   1.434   3.502 -0.5611  0.8574  0.4264
 1296lim     li 8046   0.710   4.988   4.172 -0.3361 -0.4368 -0.0416
 1297lim     li 8047   6.410   2.032   5.190 -0.3759 -0.2036  0.1347
 1298lim     li 8048   6.228   6.398   4.434  0.3572  0.2793 -0.0014
 1299lim     li 8049   2.386   3.813   5.552  0.3715 -0.3001  0.2551
 1300lim     li 8050   5.521   4.121   3.034  0.3733  0.7401 -0.1217
 1301lim     li 8051   5.141   0.344   0.417  0.0265 -0.5004  0.6797
 1302lim     li 8052   4.600   5.509   0.236 -0.4716  0.7235 -0.5825
 1303lim     li 8053   6.667   1.428   6.326 -0.2082 -0.0591  0.0542
 1304lim     li 8054   0.080   5.488   0.604  0.0892 -0.4774  0.0989
 1305lim     li 8055   5.510   5.982   3.719  0.0770  1.3092 -0.4194
 1306lim     li 8056   4.387   0.543   3.556  0.0048 -0.0976  0.1956
 1307lim     li 8057   6.437   4.960   3.028 -0.6090  0.7536  0.7979
 1308lim     li 8058   0.902   6.167   5.526 -0.7363 -0.6475 -0.0120
 1309lim     li 8059   5.129   5.233   6.464 -0.5719  0.2396 -0.6673
 1310lim     li 8060   1.539   2.067   4.970 -0.6216  0.9844 -0.5453
 1311lim     li 8061   4.204   3.899   6.134  0.9802  0.5085 -0.5757
 1312lim     li 8062   0.557   0.809   4.138 -0.9953  0.1990  0.5781
 1313lim     li 8063   1.434   3.809   0.170  0.4706 -1.1411  0.0951
 1314lim     li 8064   1.471   2.367   2.089 -0.1294  0.1591 -0.8817
 1315lim     li 8065   4.131   0.750   6.278  0.0901  0.1037  1.3010
 1316lim     li 8066   3.589   2.043   5.402 -0.2031  0.4423 -0.5618
 1317lim     li 8067   1.826   5.969   5.028 -0.2860 -0.0648 -0.7988
 1318lim     li 8068   0.340   5.316   6.575 -0.4253 -0.4911  0.2654
 1319lim     li 8069   1.214   1.380   6.027  0.5902  0.5162  1.3274
 1320lim     li 8070   3.240   3.539   3.467  1.3918 -0.0275  0.3322
 1321lim     li 8071   5.796   2.707   5.672 -0.3498 -0.6073 -0.5656
 1322lim     li 8072   2.896   2.389   3.095  0.1988 -0.7496 -0.1636
 1323lim     li 8073   3.341   5.830   4.100 -0.6145  0.5156  0.2211
 1324lim     li 8074   4.135   3.764   0.094 -0.4960 -1.0021  0.1672
 1325lim     li 8075   6.410   0.892   2.859  0.4977 -0.8081 -0.2615
 1326lim     li 8076   5.076   0.699   5.447 -0.0068 -0.1587  0.5687
 1327lim     li 8077   0.245   1.294   1.312 -0.2432  0.5124 -0.3963
 1328lim     li 8078   1.997   2.487   1.494 -0.8984 -0.5045  0.4080
 1329lim     li 8079   2.546   0.894   5.407 -0.0791  0.6179 -0.7854
 1330lim     li 8080   0.080   2.588   1.373  0.2376 -0.1131  0.3051
 1331lim     li 8081   3.577   4.796   0.764  0.4452 -0.3698 -0.2200
 1332lim     li 8082   2.247   3.556   0.861 -0.6330  0.0110  0.1330
 1333lim     li 8083   1.161   1.410   1.877  0.8327  1.2773 -0.7089
 1334lim     li 8084   1.523   5.100   1.944 -0.0684  0.6499 -0.5307
 1335lim     li 8085   3.579   6.296   2.280  0.0663 -1.3473  0.1695
 1336lim     li 8086   6.076   1.617   4.291 -0.7283 -0.5864 -0.2710
 1337lim     li 8087   0.786   0.681   1.637  0.5963 -0.3163  0.2882
 1338lim     li 8088   5.894   5.449   0.203  0.0772 -1.4097 -1.1462
 1339lim     li 8089   3.366   0.996   2.175 -1.2029  0.1329  0.5625
 1340lim     li 8090   1.387   4.512   2.939  0.8743  0.7056  0.3687
 1341lim     li 8091   0.401   6.257   1.000  0.8342 -0.7389  0.7255
 1342lim     li 8092   2.340   2.577   0.757 -0.7342  0.3795  0.3692
 1343lim     li 8093   1.307   6.623   4.597  0.3350 -1.0768  1.3020
 1344lim     li 8094   6.244   4.397   5.783  0.1225  0.5310  0.9730
 1345lim     li 8095   5.150   3.667   2.685  0.3494 -0.5335 -0.1387
 1346lim     li 8096   0.613   5.776   0.187  0.9564 -0.3849 -0.0747
 1347lim     li 8097   2.166   1.406   6.038 -0.2292 -0.3673  0.4764
 1348lim     li 8098   3.634   3.350   4.395  0.1775  0.2360  0.9424
 1349lim     li 8099   3.640   5.627   1.386  0.3855  0.2298 -0.0409
 1350lim     li 8100   5.463   1.582   3.803 -0.4353  1.4306  0.2732
 1351ntf    cn1 8101   0.219   5.636   0.084 -0.0403 -0.0710 -0.0692
 1351ntf    sn2 8102   0.373   5.551   0.130  0.0832  0.1302 -0.1092
 1351ntf    nn3 8103   0.347   5.511   0.280 -0.0964  0.2811 -0.0998
 1351ntf    sn2 8104   0.279   5.381   0.334 -0.2179  0.2903 -0.2304
 1351ntf    cn1 8105   0.428   5.289   0.381 -0.3136  0.0618 -0.3690
 1351ntf    fn4 8106   0.171   5.717   0.177 -0.1353  0.0068 -0.1853
 1351ntf    fn4 8107   0.234   5.708  -0.026  0.3621 -0.0644 -0.0101
 1351ntf    fn4 8108   0.120   5.549   0.069  0.4451 -0.6032 -0.2247
 1351ntf    on5 8109   0.390   5.444   0.034 -0.0705 -0.1986  0.2280
 1351ntf    on5 8110   0.468   5.660   0.124 -0.0447  0.2685  0.3542
 1351ntf    on5 8111   0.215   5.291   0.241 -0.0617 -0.1058  0.0400
 1351ntf    on5 8112   0.206   5.402   0.457 -0.4418  0.2906 -0.3632
 1351ntf    fn4 8113   0.517   5.267   0.286 -0.0242  0.2367 -0.1409
 1351ntf    fn4 8114   0.484   5.354   0.482 -0.5605  0.5401 -0.5371
 1351ntf    fn4 8115   0.403   5.171   0.435 -0.5544  0.1374 -0.3167
 1352ntf    cn1 8116   0.809   4.219   2.878  0.3677 -0.2649  0.2177
 1352ntf    sn2 8117   0.943   4.099   2.903  0.2005 -0.5516 -0.2458
 1352ntf    nn3 8118   0.942   4.115   3.059  0.1188  0.0898 -0.3081
 1352ntf    sn2 8119   0.998   4.235   3.142 -0.0920  0.0716 -0.1391
 1352ntf    cn1 8120   1.094   4.130   3.254  0.3090  0.5184 -0.0614
 1352ntf    fn4 8121   0.834   4.347   2.900 -0.2400 -0.0959 -0.0545
 1352ntf    fn4 8122   0.760   4.213   2.755 -0.2204  0.1066  0.4315
 1352ntf    fn4 8123   0.705   4.188   2.953 -0.3756 -0.0854 -0.7207
 1352ntf    on5 8124   0.884   3.975   2.859  0.0055 -0.4977 -0.1330
 1352ntf    on5 8125   1.053   4.151   2.825  0.0123 -0.3314 -0.3671
 1352ntf    on5 8126   0.896   4.291   3.229  0.0546 -0.0925  0.1394
 1352ntf    on5 8127   1.088   4.325   3.074 -0.2305  0.2414 -0.1000
 1352ntf    fn4 8128   1.009   4.066   3.333  0.5141 -0.0478 -0.2984
 1352ntf    fn4 8129   1.169   4.049   3.181 -0.1094  0.0838 -0.0159
 1352ntf    fn4 8130   1.174   4.197   3.336  0.2167  0.1929  0.2985
 1353ntf    cn1 8131   4.821   5.173   3.746  0.0087  0.2470  0.0451
 1353ntf    sn2 8132   4.673   5.247   3.822  0.0888 -0.0109  0.4487
 1353ntf    nn3 8133   4.598   5.122   3.882 -0.1620  0.0515  0.2641
 1353ntf    sn2 8134   4.468   5.049   3.835 -0.0231  0.1048 -0.2060
 1353ntf    cn1 8135   4.355   5.119   3.959  0.1695 -0.2318  0.1609
 1353ntf    fn4 8136   4.908   5.263   3.703  0.2719 -0.0670 -0.0806
 1353ntf    fn4 8137   4.894   5.095   3.823  0.0065  0.0197 -0.1786
 1353ntf    fn4 8138   4.773   5.109   3.640  0.4505 -0.4998  0.2888
 1353ntf    on5 8139   4.737   5.317   3.931  0.2987  0.0140  0.3097
 1353ntf    on5 8140   4.607   5.323   3.720  0.0658 -0.8850 -0.1994
 1353ntf    on5 8141   4.465   4.909   3.872 -0.9779  0.0056 -0.6176
 1353ntf    on5 8142   4.406   5.084   3.709  0.4740  0.0555 -0.4673
 1353ntf    fn4 8143   4.323   5.244   3.930  0.5741 -0.1495  0.0597
 1353ntf    fn4 8144   4.238   5.058   3.959  0.0885 -0.0757 -0.2047
 1353ntf    fn4 8145   4.400   5.126   4.083  0.4381 -0.1831  0.0622
 1354ntf    cn1 8146   0.255   3.808   3.308 -0.0831  0.1929 -0.2902
 1354ntf    sn2 8147   0.224   3.978   3.366  0.2660  0.0644  0.2808
 1354ntf    nn3 8148   0.069   3.973   3.392  0.2335 -0.0619  0.0680
 1354ntf    sn2 8149   0.004   3.950   3.533 -0.1642 -0.2552 -0.1457
 1354ntf    cn1 8150  -0.023   4.119   3.594 -0.0002 -0.2989  0.0465
 1354ntf    fn4 8151   0.192   3.721   3.386 -0.0108  0.6011  0.2342
 1354ntf    fn4 8152   0.216   3.775   3.186  0.1035 -0.8273 -0.0871
 1354ntf    fn4 8153   0.382   3.769   3.312 -0.1181  0.0676 -0.3860
 1354ntf    on5 8154   0.315   3.994   3.477  0.3286 -0.0514  0.2472
 1354ntf    on5 8155   0.248   4.056   3.248  0.1845  0.0252  0.2379
 1354ntf    on5 8156   0.082   3.878   3.630 -0.3225  0.0983  0.2488
 1354ntf    on5 8157  -0.132   3.914   3.504 -0.2438 -0.1364  0.0750
 1354ntf    fn4 8158   0.089   4.185   3.621 -0.1688 -0.2055  0.5357
 1354ntf    fn4 8159  -0.093   4.186   3.504  0.3096 -0.2805 -0.1844
 1354ntf    fn4 8160  -0.094   4.122   3.706 -0.3502 -0.0687 -0.1839
 1355ntf    cn1 8161   0.845   0.069   1.743 -0.0952  0.2873 -0.0358
 1355ntf    sn2 8162   0.930   0.225   1.706  0.1977  0.0820 -0.2351
 1355ntf    nn3 8163   0.919   0.300   1.844 -1.0340 -0.0588 -0.2520
 1355ntf    sn2 8164   0.891   0.453   1.864  0.0128  0.1072 -0.0136
 1355ntf    cn1 8165   1.063   0.499   1.900 -0.0008  0.1786 -0.0395
 1355ntf    fn4 8166   0.718   0.093   1.772 -0.2409 -0.1891 -0.2584
 1355ntf    fn4 8167   0.845  -0.019   1.644 -0.2645  0.3869 -0.1242
 1355ntf    fn4 8168   0.903   0.006   1.844 -0.0675 -0.1053 -0.2936
 1355ntf    on5 8169   1.064   0.192   1.665  0.2262  0.0002 -0.0794
 1355ntf    on5 8170   0.845   0.277   1.603 -0.4143  0.0141  0.2298
 1355ntf    on5 8171   0.838   0.487   1.993  0.1299  0.8831 -0.1659
 1355ntf    on5 8172   0.849   0.527   1.747 -0.1985  0.0026 -0.0051
 1355ntf    fn4 8173   1.117   0.422   1.993  0.0149  0.2360 -0.0012
 1355ntf    fn4 8174   1.142   0.498   1.794  0.6658  0.2157  0.4538
 1355ntf    fn4 8175   1.067   0.624   1.943 -0.1338  0.3178 -0.4325
 1356ntf    cn1 8176   4.508   4.925   2.040  0.1517  0.1995 -0.1266
 1356ntf    sn2 8177   4.657   4.913   1.938  0.1415 -0.0986 -0.1074
 1356ntf    nn3 8178   4.596   4.940   1.796 -0.3385  0.0792  0.1304
 1356ntf    sn2 8179   4.612   4.870   1.656  0.0815 -0.0538  0.2428
 1356ntf    cn1 8180   4.610   5.012   1.543  0.0063 -0.3712 -0.1583
 1356ntf    fn4 8181   4.452   5.039   2.002  0.3305  0.2331 -0.2924
 1356ntf    fn4 8182   4.422   4.829   2.010 -0.2094  0.5955 -0.3782
 1356ntf    fn4 8183   4.524   4.923   2.172  0.0888  0.3311 -0.1170
 1356ntf    on5 8184   4.736   5.019   1.996 -0.2675  0.0319  0.2123
 1356ntf    on5 8185   4.705   4.778   1.953  0.3905 -0.0198 -0.1929
 1356ntf    on5 8186   4.497   4.802   1.602  0.0513  0.3631 -0.2220
 1356ntf    on5 8187   4.742   4.812   1.635 -0.0745 -0.6056  0.7577
 1356ntf    fn4 8188   4.513   5.100   1.563  0.5348  0.1632  0.0916
 1356ntf    fn4 8189   4.717   5.086   1.568 -0.4912  0.3839 -0.2208
 1356ntf    fn4 8190   4.614   4.974   1.416 -0.3562 -0.4861 -0.1369
 1357ntf    cn1 8191   5.942   1.672   0.272 -0.1656  0.2809  0.1678
 1357ntf    sn2 8192   5.814   1.757   0.368 -0.1774  0.3458  0.0948
 1357ntf    nn3 8193   5.855   1.906   0.338 -0.0664  0.3991  0.4994
 1357ntf    sn2 8194   5.908   2.008   0.445  0.0308  0.4352  0.4168
 1357ntf    cn1 8195   5.822   2.151   0.372 -0.1567  0.1404  0.0525
 1357ntf    fn4 8196   5.954   1.720   0.149 -0.4349 -0.1026 -0.0095
 1357ntf    fn4 8197   6.059   1.675   0.334 -0.2347  0.1074  0.3083
 1357ntf    fn4 8198   5.917   1.544   0.253 -0.3885  0.3545 -0.0333
 1357ntf    on5 8199   5.700   1.721   0.286 -0.0515 -0.1655  0.1423
 1357ntf    on5 8200   5.821   1.708   0.503  0.2354  0.1678  0.0085
 1357ntf    on5 8201   6.050   2.020   0.429  0.0047  0.0448 -0.1531
 1357ntf    on5 8202   5.848   1.995   0.575  0.0165  0.0974  0.3781
 1357ntf    fn4 8203   5.853   2.149   0.244 -0.0166 -0.1023  0.0878
 1357ntf    fn4 8204   5.690   2.142   0.380 -0.1737  0.1021 -0.2881
 1357ntf    fn4 8205   5.860   2.265   0.428 -0.2264 -0.3293  1.0797
 1358ntf    cn1 8206   1.023   3.184   0.101  0.3362 -0.4014 -0.3249
 1358ntf    sn2 8207   1.060   3.302  -0.032 -0.1653  0.0721 -0.0485
 1358ntf    nn3 8208   0.945   3.283  -0.138 -0.2531 -0.5702  0.1616
 1358ntf    sn2 8209   0.945   3.178  -0.254 -0.0216  0.0376 -0.3950
 1358ntf    cn1 8210   1.033   3.254  -0.394  0.0544  0.0384 -0.3471
 1358ntf    fn4 8211   0.903   3.137   0.072  0.0960  0.0254 -0.0481
 1358ntf    fn4 8212   1.104   3.080   0.099 -0.1520 -0.7892 -0.0755
 1358ntf    fn4 8213   1.027   3.233   0.224  0.3124 -0.3364 -0.3499
 1358ntf    on5 8214   1.026   3.428   0.030  0.2558  0.0109  0.3074
 1358ntf    on5 8215   1.199   3.282  -0.062 -0.2170  0.0813 -0.3012
 1358ntf    on5 8216   0.811   3.167  -0.307 -0.2851  0.3919  0.1984
 1358ntf    on5 8217   1.013   3.055  -0.222  0.1995  0.3307  0.2707
 1358ntf    fn4 8218   1.165   3.246  -0.398  0.0606 -0.0031 -0.0857
 1358ntf    fn4 8219   0.994   3.201  -0.508  0.3548 -0.3049 -0.2890
 1358ntf    fn4 8220   1.013   3.385  -0.402  0.5676  0.1702  0.4122
 1359ntf    cn1 8221   2.127   2.257   2.348 -0.2686  0.4429  0.0226
 1359ntf    sn2 8222   2.121   2.219   2.171 -0.3162 -0.0091  0.1186
 1359ntf    nn3 8223   2.270   2.255   2.139 -0.3147 -0.0282  0.1031
 1359ntf    sn2 8224   2.403   2.179   2.176  0.0257  0.4382 -0.1508
 1359ntf    cn1 8225   2.466   2.131   2.013 -0.3514 -0.0656 -0.1509
 1359ntf    fn4 8226   2.218   2.185   2.412 -0.3452  0.4657  0.1577
 1359ntf    fn4 8227   2.164   2.380   2.378 -0.2048  0.3698  0.2511
 1359ntf    fn4 8228   2.012   2.245   2.412 -0.3452 -0.1502 -0.2224
 1359ntf    on5 8229   2.089   2.079   2.163  0.3130 -0.1420 -0.1049
 1359ntf    on5 8230   2.018   2.309   2.125 -0.4889 -0.4040 -0.2773
 1359ntf    on5 8231   2.397   2.053   2.245  0.4538  0.2801 -0.3989
 1359ntf    on5 8232   2.502   2.276   2.215  0.2568  0.2892 -0.3694
 1359ntf    fn4 8233   2.583   2.071   2.028 -0.1709  0.2565 -0.2469
 1359ntf    fn4 8234   2.387   2.037   1.965 -0.1625 -0.2857 -0.0358
 1359ntf    fn4 8235   2.473   2.225   1.920 -0.2085  0.3995  0.3209
 1360ntf    cn1 8236   2.856   1.031   0.181 -0.2992  0.3005 -0.0364
 1360ntf    sn2 8237   2.696   0.964   0.237  0.0847 -0.4044  0.2365
 1360ntf    nn3 8238   2.729   0.828   0.307  0.2115 -0.5714 -0.1407
 1360ntf    sn2 8239   2.752   0.686   0.245 -0.0608 -0.4931 -0.4195
 1360ntf    cn1 8240   2.591   0.612   0.286 -0.1273 -0.3212 -0.3711
 1360ntf    fn4 8241   2.914   0.960   0.085  0.4240  0.6907  0.1054
 1360ntf    fn4 8242   2.857   1.159   0.148 -0.1337  0.3812  0.2826
 1360ntf    fn4 8243   2.947   1.020   0.276 -0.4896  0.0048  0.1140
 1360ntf    on5 8244   2.646   1.064   0.328  0.0388  0.1854 -0.4264
 1360ntf    on5 8245   2.620   0.941   0.116  0.1082 -0.4307  0.2267
 1360ntf    on5 8246   2.847   0.605   0.317  0.3124  0.2548 -0.0638
 1360ntf    on5 8247   2.764   0.688   0.101  0.1353 -0.0115 -0.3981
 1360ntf    fn4 8248   2.488   0.691   0.265  0.0019 -0.0900 -0.1457
 1360ntf    fn4 8249   2.578   0.504   0.210 -0.3120 -0.2069 -0.5019
 1360ntf    fn4 8250   2.582   0.576   0.413  0.1242 -0.2953 -0.3458
 1361ntf    cn1 8251   2.290   0.561   4.467  0.3655 -0.2689 -0.2435
 1361ntf    sn2 8252   2.339   0.386   4.462 -0.3005 -0.4777  0.2771
 1361ntf    nn3 8253   2.419   0.390   4.326 -0.0522 -0.5702  0.4189
 1361ntf    sn2 8254   2.397   0.328   4.184  0.0525  0.1054  0.1019
 1361ntf    cn1 8255   2.485   0.448   4.079  0.1977  0.3152  0.4629
 1361ntf    fn4 8256   2.242   0.594   4.348  0.1476  0.0582 -0.0650
 1361ntf    fn4 8257   2.194   0.586   4.555  0.2300  0.0103 -0.4680
 1361ntf    fn4 8258   2.392   0.641   4.495 -0.2332  0.3356  0.2510
 1361ntf    on5 8259   2.437   0.370   4.566 -0.5262 -0.3737  0.5063
 1361ntf    on5 8260   2.219   0.307   4.472  0.0002 -0.9578  0.1036
 1361ntf    on5 8261   2.263   0.355   4.138  0.0432  0.1021  0.1270
 1361ntf    on5 8262   2.461   0.201   4.161 -0.0194 -0.0911  0.9421
 1361ntf    fn4 8263   2.508   0.394   3.961 -0.6888 -0.3365  0.5787
 1361ntf    fn4 8264   2.415   0.560   4.072 -0.6657 -0.2326  0.1017
 1361ntf    fn4 8265   2.603   0.478   4.132  0.4289  0.1671  0.0325
 1362ntf    cn1 8266   4.174   2.036   4.996  0.6044 -0.2226  0.1540
 1362ntf    sn2 8267   4.134   2.004   4.822  0.0912 -0.2464  0.2758
 1362ntf    nn3 8268   4.222   2.120   4.764  0.7181 -0.4882  0.7378
 1362ntf    sn2 8269   4.374   2.111   4.725  0.5410 -0.0342 -0.0793
 1362ntf    cn1 8270   4.439   2.259   4.808  0.0375  0.3332 -0.3394
 1362ntf    fn4 8271   4.102   2.134   5.049  0.3040 -0.2846 -0.1432
 1362ntf    fn4 8272   4.159   1.933   5.078 -0.0120 -0.0712  0.2370
 1362ntf    fn4 8273   4.300   2.073   5.017  0.5978 -0.1324  0.0354
 1362ntf    on5 8274   4.174   1.869   4.791  0.0480 -0.2975  0.4423
 1362ntf    on5 8275   3.993   2.031   4.818  0.1301 -0.0043  0.5562
 1362ntf    on5 8276   4.401   2.139   4.586 -0.1954 -0.0973 -0.2383
 1362ntf    on5 8277   4.455   2.007   4.783  0.6208 -0.0807 -0.2734
 1362ntf    fn4 8278   4.398   2.260   4.934  0.0506  0.1365 -0.3339
 1362ntf    fn4 8279   4.570   2.260   4.825 -0.0455  0.0133  0.3815
 1362ntf    fn4 8280   4.404   2.373   4.750 -0.2437  0.5318  0.2037
 1363ntf    cn1 8281   4.733   6.705   5.697 -0.0698  0.4552  0.2267
 1363ntf    sn2 8282   4.688   6.839   5.583  0.1029  0.1674 -0.1805
 1363ntf    nn3 8283   4.701   6.958   5.684  0.0786  0.4273 -0.4786
 1363ntf    sn2 8284   4.799   7.080   5.693  0.1773  0.3191 -0.0234
 1363ntf    cn1 8285   4.705   7.183   5.810 -0.0649  0.0983 -0.0228
 1363ntf    fn4 8286   4.856   6.731   5.739  0.3149 -0.0268 -0.5859
 1363ntf    fn4 8287   4.661   6.680   5.805  0.1366  0.2236  0.3116
 1363ntf    fn4 8288   4.740   6.590   5.633  0.1011  0.3908  0.3615
 1363ntf    on5 8289   4.788   6.840   5.479 -0.4710  0.3930 -0.7477
 1363ntf    on5 8290   4.552   6.810   5.544  0.0845  0.0964 -0.0624
 1363ntf    on5 8291   4.805   7.160   5.573 -0.2221  0.1935 -0.1285
 1363ntf    on5 8292   4.920   7.060   5.767 -0.1266 -0.4539  0.2717
 1363ntf    fn4 8293   4.691   7.121   5.926 -0.0907  0.0151 -0.0704
 1363ntf    fn4 8294   4.764   7.296   5.845 -0.8822  0.6862 -0.5262
 1363ntf    fn4 8295   4.593   7.226   5.753 -0.2429 -0.3177  0.0108
 1364ntf    cn1 8296   6.143   3.681   2.039 -0.3448 -0.0745 -0.0088
 1364ntf    sn2 8297   5.973   3.742   2.051 -0.2663  0.1580 -0.0703
 1364ntf    nn3 8298   5.896   3.606   2.066  0.0615 -0.0554 -0.3146
 1364ntf    sn2 8299   5.828   3.557   2.199  0.1589 -0.1298 -0.2929
 1364ntf    cn1 8300   5.658   3.595   2.147  0.1107  0.4448  0.2875
 1364ntf    fn4 8301   6.224   3.781   2.006 -0.3959 -0.1061 -0.2363
 1364ntf    fn4 8302   6.180   3.631   2.156 -0.0660 -0.2019 -0.1495
 1364ntf    fn4 8303   6.164   3.589   1.945  0.2029 -0.1910  0.2254
 1364ntf    on5 8304   5.979   3.829   2.166  0.2106 -0.1108  0.1065
 1364ntf    on5 8305   5.952   3.804   1.922 -0.6534  0.4118  0.1125
 1364ntf    on5 8306   5.852   3.636   2.317  0.2541  0.0850 -0.4555
 1364ntf    on5 8307   5.827   3.413   2.207  0.3056 -0.1251 -0.1702
 1364ntf    fn4 8308   5.630   3.725   2.143  0.2992  0.4763  0.0116
 1364ntf    fn4 8309   5.629   3.551   2.026  0.1173  0.0290  0.4364
 1364ntf    fn4 8310   5.566   3.546   2.228  0.3895  0.1301  0.4178
 1365ntf    cn1 8311   0.483   5.933   1.286  0.5438 -0.1310  0.3184
 1365ntf    sn2 8312   0.452   5.928   1.107 -0.1589  0.4064  0.4178
 1365ntf    nn3 8313   0.580   5.847   1.064 -0.7638 -0.2174 -0.2273
 1365ntf    sn2 8314   0.594   5.707   0.994  0.0710 -0.1634 -0.1777
 1365ntf    cn1 8315   0.596   5.764   0.822  0.3937  0.1339 -0.0758
 1365ntf    fn4 8316   0.390   6.007   1.345  0.0607 -0.1445 -0.4104
 1365ntf    fn4 8317   0.479   5.817   1.349  0.2815 -0.1002  0.3610
 1365ntf    fn4 8318   0.602   5.981   1.318  0.3036  0.8631 -0.2217
 1365ntf    on5 8319   0.321   5.867   1.100 -0.1635  0.3759  0.7423
 1365ntf    on5 8320   0.461   6.066   1.068 -0.3880  0.3079  0.0128
 1365ntf    on5 8321   0.479   5.621   1.005 -0.1658  0.1594 -0.1090
 1365ntf    on5 8322   0.725   5.653   1.019 -0.0363 -0.2816  0.1379
 1365ntf    fn4 8323   0.605   5.661   0.739 -0.2526 -0.1512  0.2064
 1365ntf    fn4 8324   0.490   5.831   0.782  0.2513  0.4322  0.7865
 1365ntf    fn4 8325   0.699   5.843   0.794  0.6384 -0.2203 -0.2035
 1366ntf    cn1 8326   4.771   1.334   2.557  0.1124 -0.5306 -0.3304
 1366ntf    sn2 8327   4.646   1.459   2.516  0.2401 -0.3257 -0.1032
 1366ntf    nn3 8328   4.517   1.370   2.523  0.3057 -0.4536 -0.4858
 1366ntf    sn2 8329   4.439   1.322   2.650  0.0432  0.2134 -0.3892
 1366ntf    cn1 8330   4.331   1.466   2.671 -0.2501 -0.0668  0.0620
 1366ntf    fn4 8331   4.786   1.325   2.689 -0.2869 -0.1258 -0.2568
 1366ntf    fn4 8332   4.724   1.217   2.520  0.3052 -0.6563 -0.1809
 1366ntf    fn4 8333   4.890   1.350   2.500 -0.0533  0.5296 -0.4043
 1366ntf    on5 8334   4.658   1.564   2.614  0.1269 -0.2844 -0.1332
 1366ntf    on5 8335   4.685   1.507   2.385  0.5379  0.2241  0.1852
 1366ntf    on5 8336   4.514   1.320   2.774 -0.4389  0.2445 -0.0943
 1366ntf    on5 8337   4.350   1.211   2.622 -0.0955  0.0739  0.5609
 1366ntf    fn4 8338   4.398   1.579   2.690 -0.1140 -0.2322  0.5873
 1366ntf    fn4 8339   4.269   1.492   2.557  0.4000 -0.0125 -0.2836
 1366ntf    fn4 8340   4.244   1.457   2.770 -0.2729 -0.1796  0.0307
 1367ntf    cn1 8341   5.727   3.891   1.304 -0.2863 -0.3525 -0.4737
 1367ntf    sn2 8342   5.612   3.785   1.398 -0.2776  0.2039  0.1733
 1367ntf    nn3 8343   5.716   3.711   1.490 -0.1064 -0.0919 -0.2576
 1367ntf    sn2 8344   5.797   3.581   1.456  0.0804 -0.1504  0.4000
 1367ntf    cn1 8345   5.964   3.624   1.512 -0.0589  0.1727  0.5688
 1367ntf    fn4 8346   5.794   3.967   1.390 -0.5529 -0.3207 -0.2918
 1367ntf    fn4 8347   5.822   3.828   1.239  0.2197  0.0072 -0.0921
 1367ntf    fn4 8348   5.669   3.975   1.220  0.4672  0.1484 -0.5037
 1367ntf    on5 8349   5.529   3.877   1.471  0.2081  0.2017  0.7401
 1367ntf    on5 8350   5.543   3.703   1.302  0.0136 -0.0865  0.2116
 1367ntf    on5 8351   5.814   3.552   1.315  0.5469  0.0105  0.4240
 1367ntf    on5 8352   5.752   3.469   1.536 -0.4246 -0.6464 -0.5515
 1367ntf    fn4 8353   6.046   3.522   1.493  0.1089  0.4634 -0.3403
 1367ntf    fn4 8354   6.014   3.724   1.442 -0.0522 -0.0318  0.2793
 1367ntf    fn4 8355   5.971   3.667   1.637  0.3984  0.6425  0.3831
 1368ntf    cn1 8356   2.013   5.773   0.066  0.2435  0.5482  0.0479
 1368ntf    sn2 8357   2.065   5.797   0.238 -0.0247  0.0372  0.2018
 1368ntf    nn3 8358   2.175   5.686   0.229 -0.2555 -0.1425 -0.3966
 1368ntf    sn2 8359   2.262   5.614   0.338 -0.3542  0.2082 -0.0860
 1368ntf    cn1 8360   2.428   5.670   0.288 -0.1435 -0.5099 -0.2032
 1368ntf    fn4 8361   1.919   5.859   0.029 -0.2055  0.0472  0.0124
 1368ntf    fn4 8362   2.107   5.796  -0.025  0.3116  0.4160  0.0847
 1368ntf    fn4 8363   1.970   5.651   0.038  0.3175  0.5333  0.0005
 1368ntf    on5 8364   2.108   5.935   0.238 -0.5946  0.2178  0.1185
 1368ntf    on5 8365   1.947   5.757   0.311 -0.1966 -0.2000 -0.2021
 1368ntf    on5 8366   2.275   5.473   0.314 -0.2857  0.2358 -0.2140
 1368ntf    on5 8367   2.234   5.657   0.473 -0.8331  0.3941 -0.2414
 1368ntf    fn4 8368   2.522   5.626   0.370 -0.2920  0.4486  0.5028
 1368ntf    fn4 8369   2.461   5.641   0.163 -0.0163  0.1435 -0.3270
 1368ntf    fn4 8370   2.441   5.802   0.292  0.2356 -0.5470 -0.2123
 1369ntf    cn1 8371   6.299   5.881   5.098 -0.0694  0.1676 -0.1882
 1369ntf    sn2 8372   6.422   6.014   5.107 -0.1202  0.2030 -0.0163
 1369ntf    nn3 8373   6.547   5.924   5.075 -0.0322  0.3372 -0.0517
 1369ntf    sn2 8374   6.693   5.952   5.125  0.0018 -0.0283  0.0576
 1369ntf    cn1 8375   6.713   5.828   5.256 -0.1586 -0.0465  0.0655
 1369ntf    fn4 8376   6.334   5.782   5.016 -0.0541 -0.0677  0.1028
 1369ntf    fn4 8377   6.266   5.816   5.208 -0.2068 -0.4393 -0.5797
 1369ntf    fn4 8378   6.182   5.916   5.048 -0.2614 -0.6362 -0.3222
 1369ntf    on5 8379   6.376   6.097   4.997 -0.1470  0.4673  0.1926
 1369ntf    on5 8380   6.407   6.067   5.240 -0.2490 -0.0266  0.0614
 1369ntf    on5 8381   6.733   6.075   5.189  0.1511 -0.0603  0.0260
 1369ntf    on5 8382   6.789   5.909   5.026  0.1561 -0.5041  0.4137
 1369ntf    fn4 8383   6.625   5.840   5.354  0.1880 -0.1772  0.3918
 1369ntf    fn4 8384   6.701   5.706   5.206 -0.3033 -0.0550  0.1222
 1369ntf    fn4 8385   6.834   5.835   5.310 -0.1410 -0.3680  0.0719
 1370ntf    cn1 8386   5.333   2.834   5.769 -0.2619 -0.2336  0.1354
 1370ntf    sn2 8387   5.384   2.686   5.676 -0.0615  0.0407 -0.1901
 1370ntf    nn3 8388   5.316   2.572   5.759  0.2373  0.2096  0.2884
 1370ntf    sn2 8389   5.370   2.510   5.893 -0.0378 -0.4479  0.0993
 1370ntf    cn1 8390   5.214   2.477   5.981 -0.2794 -0.2883 -0.2677
 1370ntf    fn4 8391   5.350   2.944   5.698  0.1692 -0.2549  0.2037
 1370ntf    fn4 8392   5.207   2.835   5.812 -0.2600 -0.2296  0.1404
 1370ntf    fn4 8393   5.404   2.855   5.879  0.0859  0.3924 -0.2077
 1370ntf    on5 8394   5.322   2.696   5.546  0.0517  0.5688 -0.2061
 1370ntf    on5 8395   5.528   2.682   5.678 -0.0595  0.2304  0.0519
 1370ntf    on5 8396   5.438   2.605   5.977  0.3529 -0.1057 -0.5967
 1370ntf    on5 8397   5.427   2.378   5.883  0.2790 -0.2907 -0.2178
 1370ntf    fn4 8398   5.223   2.420   6.100 -0.0974 -0.0896 -0.1858
 1370ntf    fn4 8399   5.136   2.583   5.995 -0.1066 -0.2273  0.2509
 1370ntf    fn4 8400   5.142   2.386   5.917  0.0670 -0.8008  0.0603
 1371ntf    cn1 8401   6.032   2.829   2.889  0.1825 -0.0830 -0.6748
 1371ntf    sn2 8402   5.863   2.890   2.862  0.0646 -0.0963  0.0143
 1371ntf    nn3 8403   5.884   2.943   2.716 -0.8501 -0.0975 -0.1281
 1371ntf    sn2 8404   5.830   2.893   2.577 -0.1472  0.0138 -0.4490
 1371ntf    cn1 8405   5.908   3.029   2.485 -0.2524  0.3552 -0.0369
 1371ntf    fn4 8406   6.040   2.748   2.993  0.3646  0.0516 -0.5847
 1371ntf    fn4 8407   6.078   2.760   2.787  0.2812 -0.1477 -0.5863
 1371ntf    fn4 8408   6.120   2.924   2.916 -0.2508  0.0574  0.3209
 1371ntf    on5 8409   5.785   2.769   2.879 -0.2253  0.0832 -0.0270
 1371ntf    on5 8410   5.852   2.999   2.956 -0.4129 -0.1512  0.0251
 1371ntf    on5 8411   5.690   2.922   2.557 -0.1231  0.3586 -0.1334
 1371ntf    on5 8412   5.884   2.772   2.522 -0.1497 -0.2715  0.1703
 1371ntf    fn4 8413   6.039   3.019   2.488 -0.2419  0.5010  0.0080
 1371ntf    fn4 8414   5.873   3.024   2.358  0.2086 -0.1547 -0.1468
 1371ntf    fn4 8415   5.874   3.146   2.537  0.1492  0.2847  0.3864
 1372ntf    cn1 8416   4.528   6.217   2.006 -0.4225 -0.1451  0.2929
 1372ntf    sn2 8417   4.575   6.049   1.957  0.1547  0.1517 -0.1820
 1372ntf    nn3 8418   4.600   6.076   1.804  0.3759 -0.4655 -0.2594
 1372ntf    sn2 8419   4.735   6.104   1.729  0.3065 -0.1932 -0.2843
 1372ntf    cn1 8420   4.741   5.975   1.601  0.5374 -0.2081 -0.2602
 1372ntf    fn4 8421   4.609   6.313   1.964 -0.6028  0.0041  0.2875
 1372ntf    fn4 8422   4.411   6.259   1.961 -0.1104  0.4762  0.0467
 1372ntf    fn4 8423   4.520   6.239   2.136 -0.1544  0.0374  0.2794
 1372ntf    on5 8424   4.683   6.009   2.045  0.3046 -0.0002 -0.4331
 1372ntf    on5 8425   4.451   5.978   1.974  0.4900 -0.4049  0.0143
 1372ntf    on5 8426   4.852   6.074   1.808  0.2575  0.4168  0.0268
 1372ntf    on5 8427   4.726   6.222   1.648 -0.9687  0.2244  0.4436
 1372ntf    fn4 8428   4.654   5.994   1.503  0.0829  0.2194  0.2180
 1372ntf    fn4 8429   4.855   5.989   1.535  0.1316 -0.3675 -1.0045
 1372ntf    fn4 8430   4.732   5.849   1.638 -0.0469  0.0328  0.4371
 1373ntf    cn1 8431   1.792   4.788   4.633  0.1071 -0.5267 -0.0910
 1373ntf    sn2 8432   1.651   4.880   4.566  0.0643 -0.2743  0.3409
 1373ntf    nn3 8433   1.628   4.797   4.435 -0.1089  0.8258 -0.3392
 1373ntf    sn2 8434   1.682   4.829   4.291  0.2299 -0.1552 -0.4383
 1373ntf    cn1 8435   1.572   4.961   4.232  0.2464  0.2152  0.3497
 1373ntf    fn4 8436   1.765   4.659   4.643  0.1400 -0.5366 -0.1257
 1373ntf    fn4 8437   1.904   4.802   4.564  0.0836 -0.0761 -0.0372
 1373ntf    fn4 8438   1.820   4.840   4.752 -0.1690 -0.1361 -0.1969
 1373ntf    on5 8439   1.542   4.869   4.660 -0.2080 -0.2053  0.0386
 1373ntf    on5 8440   1.708   5.012   4.552  0.0267 -0.3121 -0.1864
 1373ntf    on5 8441   1.647   4.716   4.209  0.3403 -0.2000 -0.4240
 1373ntf    on5 8442   1.818   4.875   4.279  0.0218  0.3665 -0.8145
 1373ntf    fn4 8443   1.445   4.922   4.233  0.1387  0.5450 -0.2363
 1373ntf    fn4 8444   1.582   5.072   4.303 -0.0620  0.1036  0.5734
 1373ntf    fn4 8445   1.590   4.995   4.106  0.2106  0.0244  0.2927
 1374ntf    cn1 8446   5.015   3.017   0.028 -0.0219  0.0403 -0.2558
 1374ntf    sn2 8447   5.075   2.889   0.141 -0.1242  0.1395 -0.0881
 1374ntf    nn3 8448   5.128   2.784   0.036 -0.2278 -0.0824  0.0795
 1374ntf    sn2 8449   5.045   2.676  -0.042  0.0085 -0.1165 -0.1244
 1374ntf    cn1 8450   5.105   2.710  -0.210  0.1275  0.0152 -0.0542
 1374ntf    fn4 8451   5.112   3.099  -0.011  0.1446 -0.0008  0.0690
 1374ntf    fn4 8452   4.966   2.961  -0.081  0.2677 -0.3825 -0.1681
 1374ntf    fn4 8453   4.918   3.095   0.073 -0.0384 -0.2146  0.1486
 1374ntf    on5 8454   5.182   2.949   0.216  0.1275 -0.3298 -0.0656
 1374ntf    on5 8455   4.958   2.854   0.217 -0.1188  0.5671  0.1206
 1374ntf    on5 8456   4.903   2.693  -0.059  0.0697  0.3655 -0.1598
 1374ntf    on5 8457   5.081   2.539  -0.017 -0.1063 -0.1019  0.1276
 1374ntf    fn4 8458   5.046   2.820  -0.255 -0.3877 -0.1840  0.1289
 1374ntf    fn4 8459   5.235   2.739  -0.215  0.1519 -0.0668  0.1129
 1374ntf    fn4 8460   5.083   2.610  -0.294  0.0520 -0.2277  0.2527
 1375ntf    cn1 8461   0.819   1.731   3.319 -0.2269  0.3189  0.1502
 1375ntf    sn2 8462   0.841   1.895   3.243  0.2200  0.2247  0.0737
 1375ntf    nn3 8463   0.801   1.877   3.092  0.0858 -0.0015  0.1355
 1375ntf    sn2 8464   0.869   1.923   2.958 -0.0453  0.0042  0.0716
 1375ntf    cn1 8465   0.720   1.994   2.881  0.0614 -0.1562 -0.2857
 1375ntf    fn4 8466   0.702   1.673   3.298  0.0779 -0.1740 -0.2234
 1375ntf    fn4 8467   0.914   1.647   3.282  0.0520  0.4838  0.4869
 1375ntf    fn4 8468   0.829   1.739   3.450  0.4405  0.0086  0.1230
 1375ntf    on5 8469   0.747   1.985   3.306 -0.0649 -0.2998  0.4060
 1375ntf    on5 8470   0.982   1.923   3.253  0.4117 -0.5887 -0.2186
 1375ntf    on5 8471   0.909   1.814   2.872 -0.4632 -0.1498  0.0659
 1375ntf    on5 8472   0.960   2.034   2.960  0.7186 -0.6075 -0.1367
 1375ntf    fn4 8473   0.682   2.113   2.925 -0.0724 -0.3611  0.1621
 1375ntf    fn4 8474   0.741   2.017   2.753 -0.0836 -0.1274 -0.3051
 1375ntf    fn4 8475   0.613   1.915   2.888 -0.0059 -0.0086  0.4560
 1376ntf    cn1 8476   3.951   3.110   0.047  0.3665 -0.0776 -0.1956
 1376ntf    sn2 8477   3.921   2.936   0.088 -0.1181  0.0282 -0.0926
 1376ntf    nn3 8478   4.034   2.866   0.005 -0.1945  0.2707 -0.4051
 1376ntf    sn2 8479   4.191   2.880   0.011 -0.1783 -0.1077  0.1537
 1376ntf    cn1 8480   4.236   2.878  -0.165  0.1056 -0.1224  0.2267
 1376ntf    fn4 8481   4.039   3.163   0.131  0.3935  0.3233 -0.4739
 1376ntf    fn4 8482   3.996   3.136  -0.075 -0.3655  0.8818 -0.2790
 1376ntf    fn4 8483   3.844   3.187   0.064  0.1293 -0.4889  0.1809
 1376ntf    on5 8484   3.935   2.926   0.231 -0.5769 -0.5255 -0.0817
 1376ntf    on5 8485   3.793   2.902   0.031 -0.0724  0.0703 -0.2218
 1376ntf    on5 8486   4.258   2.764   0.062  0.0737 -0.2866 -0.5739
 1376ntf    on5 8487   4.240   3.011   0.048 -0.8559  0.2422 -0.1524
 1376ntf    fn4 8488   4.368   2.873  -0.177  0.1231  0.6317  0.0365
 1376ntf    fn4 8489   4.186   2.769  -0.221 -0.2215  0.0178  0.2453
 1376ntf    fn4 8490   4.205   2.978  -0.245  0.4053 -0.1581  0.0667
 1377ntf    cn1 8491   2.147   3.036   5.531 -0.1145  0.1251 -0.0053
 1377ntf    sn2 8492   2.171   2.858   5.553  0.1132  0.1918  0.2828
 1377ntf    nn3 8493   2.062   2.810   5.451 -0.0807  0.1916  0.4884
 1377ntf    sn2 8494   1.915   2.763   5.479 -0.1320  0.0944  0.0571
 1377ntf    cn1 8495   1.946   2.598   5.547  0.0817  0.1652  0.1317
 1377ntf    fn4 8496   2.193   3.084   5.416  0.3934 -0.5524 -0.0866
 1377ntf    fn4 8497   2.019   3.068   5.546 -0.2198 -0.1824 -0.2370
 1377ntf    fn4 8498   2.218   3.095   5.626 -0.1015 -0.0113  0.0687
 1377ntf    on5 8499   2.305   2.842   5.503 -0.3120  0.0023 -0.8213
 1377ntf    on5 8500   2.144   2.832   5.693 -0.5568 -0.2421  0.0773
 1377ntf    on5 8501   1.840   2.747   5.356 -0.0452 -0.3056  0.0543
 1377ntf    on5 8502   1.853   2.840   5.584  0.0940  0.5246 -0.1193
 1377ntf    fn4 8503   1.843   2.515   5.551  0.0278  0.2474  0.4789
 1377ntf    fn4 8504   2.036   2.530   5.477 -0.1022  0.5481 -0.4766
 1377ntf    fn4 8505   2.002   2.604   5.667  0.7850 -0.2585 -0.1687
 1378ntf    cn1 8506   1.160   5.641   2.517  0.3076  0.0846  0.3248
 1378ntf    sn2 8507   1.127   5.485   2.430 -0.4863  0.2285  0.3641
 1378ntf    nn3 8508   1.075   5.544   2.294 -0.2802 -0.4934 -0.0343
 1378ntf    sn2 8509   0.927   5.576   2.251 -0.1578 -0.0233 -0.1027
 1378ntf    cn1 8510   0.898   5.417   2.168 -0.0921 -0.0560 -0.0629
 1378ntf    fn4 8511   1.232   5.730   2.450 -0.1340 -0.7158 -1.2723
 1378ntf    fn4 8512   1.045   5.702   2.538  0.1876  0.1124 -0.3738
 1378ntf    fn4 8513   1.218   5.626   2.635 -0.0234  0.0107  0.4788
 1378ntf    on5 8514   1.254   5.417   2.420 -0.7952 -0.3018 -0.0580
 1378ntf    on5 8515   1.023   5.417   2.503 -0.2653 -0.1384  0.3393
 1378ntf    on5 8516   0.926   5.673   2.144  0.5052  0.0964 -0.0061
 1378ntf    on5 8517   0.818   5.582   2.345 -0.2673  0.0218 -0.2331
 1378ntf    fn4 8518   0.902   5.309   2.245  0.3818  0.2670  0.3797
 1378ntf    fn4 8519   0.788   5.420   2.096  0.0908  0.4583 -0.3232
 1378ntf    fn4 8520   0.992   5.389   2.079  0.0772  0.0248  0.0881
 1379ntf    cn1 8521   1.914   3.101   1.475 -0.3068  0.0705 -0.3420
 1379ntf    sn2 8522   2.057   3.039   1.569 -0.5544 -0.3147 -0.2193
 1379ntf    nn3 8523   2.082   2.909   1.485 -0.4412 -0.2722 -0.2512
 1379ntf    sn2 8524   2.164   2.782   1.529 -0.0824  0.0370 -0.0245
 1379ntf    cn1 8525   2.289   2.780   1.397 -0.3754 -0.0380 -0.3017
 1379ntf    fn4 8526   1.844   3.199   1.530 -0.3168  0.1054 -0.4155
 1379ntf    fn4 8527   1.957   3.140   1.355  0.4331 -0.0375 -0.1167
 1379ntf    fn4 8528   1.833   3.001   1.449 -0.2031 -0.0807 -0.0844
 1379ntf    on5 8529   2.163   3.132   1.539 -0.5675 -0.3296 -0.3122
 1379ntf    on5 8530   2.012   3.032   1.705  0.1646 -0.2019  0.0301
 1379ntf    on5 8531   2.091   2.660   1.507 -0.1635  0.1755 -0.5441
 1379ntf    on5 8532   2.249   2.795   1.645  0.5156  0.4013 -0.4967
 1379ntf    fn4 8533   2.241   2.823   1.282 -0.0411 -0.1812 -0.4993
 1379ntf    fn4 8534   2.390   2.859   1.429 -0.3060 -0.0872 -0.3966
 1379ntf    fn4 8535   2.353   2.668   1.366 -0.2447  0.0282 -0.2743
 1380ntf    cn1 8536   3.041   0.717   5.255 -0.0560 -0.4811 -0.2399
 1380ntf    sn2 8537   3.069   0.771   5.083  0.0144 -0.1364 -0.1217
 1380ntf    nn3 8538   3.079   0.628   5.019  0.0334 -0.0636 -0.2799
 1380ntf    sn2 8539   2.966   0.527   4.978 -0.0593 -0.1704  0.2368
 1380ntf    cn1 8540   2.993   0.538   4.799  0.1501 -0.1968  0.2679
 1380ntf    fn4 8541   2.933   0.641   5.262 -0.2998 -0.1472 -0.3001
 1380ntf    fn4 8542   3.144   0.653   5.307 -0.0439 -0.1019  0.2120
 1380ntf    fn4 8543   3.014   0.820   5.334  0.2008 -0.5147 -0.1084
 1380ntf    on5 8544   2.950   0.848   5.053  0.1005  0.1672  0.3113
 1380ntf    on5 8545   3.194   0.843   5.080  0.0366 -0.1779 -0.1828
 1380ntf    on5 8546   2.828   0.566   4.997 -0.2571 -0.5381 -0.4079
 1380ntf    on5 8547   3.004   0.393   5.015 -0.2441 -0.2396  0.1780
 1380ntf    fn4 8548   3.112   0.492   4.761 -0.0261 -0.0775 -0.4482
 1380ntf    fn4 8549   2.897   0.465   4.743 -0.1669 -0.0874  0.6687
 1380ntf    fn4 8550   2.980   0.663   4.758 -0.0228 -0.3074 -0.0209
 1381ntf    cn1 8551   1.888   1.071   3.004 -0.3644  0.1006 -0.1988
 1381ntf    sn2 8552   1.849   0.916   3.091 -0.1198  0.3197  0.3039
 1381ntf    nn3 8553   1.856   0.977   3.236 -0.0620  0.4933  0.2288
 1381ntf    sn2 8554   1.736   1.002   3.334 -0.0588  0.1446  0.3241
 1381ntf    cn1 8555   1.720   0.838   3.411  0.2902 -0.0633 -0.0396
 1381ntf    fn4 8556   2.017   1.100   3.011 -0.3827  0.0735  0.3441
 1381ntf    fn4 8557   1.869   1.066   2.873  0.4079  0.5770 -0.3389
 1381ntf    fn4 8558   1.812   1.168   3.054 -0.3023  0.1295 -0.1605
 1381ntf    on5 8559   1.721   0.880   3.034 -0.3364  0.7327  0.5183
 1381ntf    on5 8560   1.966   0.840   3.058 -0.4142 -0.0056  0.0125
 1381ntf    on5 8561   1.611   1.039   3.272 -0.2703 -0.5619  0.3205
 1381ntf    on5 8562   1.769   1.083   3.449  0.2882 -0.3506  0.5800
 1381ntf    fn4 8563   1.828   0.807   3.479  0.4039  0.2346 -0.0826
 1381ntf    fn4 8564   1.616   0.831   3.493  0.3222 -0.0879 -0.0014
 1381ntf    fn4 8565   1.697   0.743   3.322 -0.5443 -0.2553  0.3710
 1382ntf    cn1 8566   0.826   0.750   6.199 -0.1175 -0.1279  0.1993
 1382ntf    sn2 8567   0.646   0.733   6.178 -0.0552 -0.1445 -0.3463
 1382ntf    nn3 8568   0.591   0.872   6.227  0.1115 -0.1770 -0.0627
 1382ntf    sn2 8569   0.554   0.999   6.143  0.1097 -0.0895  0.0692
 1382ntf    cn1 8570   0.687   1.111   6.194 -0.0059  0.0299  0.1098
 1382ntf    fn4 8571   0.895   0.641   6.171 -0.0637 -0.1637  0.4669
 1382ntf    fn4 8572   0.872   0.844   6.118 -0.3933 -0.2383 -0.0876
 1382ntf    fn4 8573   0.863   0.781   6.322 -0.1712  0.4058  0.0820
 1382ntf    on5 8574   0.622   0.695   6.041  0.1237  0.7464 -0.6300
 1382ntf    on5 8575   0.611   0.636   6.278  0.1243  0.4284  0.2811
 1382ntf    on5 8576   0.430   1.058   6.188 -0.0893 -0.6308  0.2495
 1382ntf    on5 8577   0.560   0.991   5.999 -0.2529  0.4334  0.0221
 1382ntf    fn4 8578   0.672   1.229   6.135 -0.1498  0.0576  0.2016
 1382ntf    fn4 8579   0.682   1.128   6.325 -0.3092  0.8177  0.0024
 1382ntf    fn4 8580   0.807   1.067   6.158  0.1185  0.1812  0.3384
 1383ntf    cn1 8581   3.312   1.475   1.979 -0.2175 -0.3864  0.4004
 1383ntf    sn2 8582   3.335   1.587   1.838  0.3352 -0.6201  0.3047
 1383ntf    nn3 8583   3.213   1.682   1.859  0.3943 -0.4544 -0.0983
 1383ntf    sn2 8584   3.235   1.837   1.871 -0.0799 -0.3696 -0.2947
 1383ntf    cn1 8585   3.306   1.850   2.037 -0.2594 -0.1766 -0.2325
 1383ntf    fn4 8586   3.216   1.386   1.959 -0.2302 -0.4293  0.6456
 1383ntf    fn4 8587   3.422   1.408   2.008  0.0723 -0.1188 -0.0850
 1383ntf    fn4 8588   3.282   1.539   2.091 -0.5878  0.3335 -0.0993
 1383ntf    on5 8589   3.467   1.642   1.859  0.1005 -0.0592  0.3079
 1383ntf    on5 8590   3.320   1.502   1.722  0.7799 -0.1013 -0.1358
 1383ntf    on5 8591   3.105   1.898   1.883  0.0641 -0.1425  0.1127
 1383ntf    on5 8592   3.323   1.907   1.780  0.1530 -0.5007 -0.1690
 1383ntf    fn4 8593   3.342   1.975   2.062 -0.2490 -0.2209 -0.0202
 1383ntf    fn4 8594   3.213   1.812   2.123 -0.2316 -0.3137 -0.2634
 1383ntf    fn4 8595   3.416   1.779   2.053 -0.1119 -0.1366 -1.0400
 1384ntf    cn1 8596   4.068   1.400   1.079  0.3474  0.4641  0.1769
 1384ntf    sn2 8597   4.162   1.252   1.126 -0.3042 -0.0264 -0.0416
 1384ntf    nn3 8598   4.304   1.277   1.064 -0.3432  0.5873  0.1150
 1384ntf    sn2 8599   4.362   1.263   0.919  0.0333 -0.2428  0.3392
 1384ntf    cn1 8600   4.471   1.408   0.902  0.0635 -0.3084 -0.0482
 1384ntf    fn4 8601   4.050   1.392   0.948 -0.0030  0.4492  0.2259
 1384ntf    fn4 8602   3.948   1.398   1.134  0.0904  0.3516 -0.3765
 1384ntf    fn4 8603   4.125   1.512   1.118  0.7422  0.0440  0.8242
 1384ntf    on5 8604   4.165   1.253   1.271 -0.1735  0.3958 -0.0478
 1384ntf    on5 8605   4.091   1.142   1.065  0.1430  0.0363 -0.6914
 1384ntf    on5 8606   4.272   1.285   0.809  0.5244 -0.2047 -0.0594
 1384ntf    on5 8607   4.457   1.155   0.909  0.3935  0.0969  0.0411
 1384ntf    fn4 8608   4.576   1.400   0.982  0.2939  0.0906 -0.3108
 1384ntf    fn4 8609   4.534   1.423   0.787 -0.0879 -0.4839 -0.1542
 1384ntf    fn4 8610   4.410   1.521   0.933 -0.0189 -0.2892 -0.2837
 1385ntf    cn1 8611   4.212   6.476   1.491  0.3226 -0.1744 -0.0095
 1385ntf    sn2 8612   4.245   6.332   1.385  0.4137  0.0366 -0.2687
 1385ntf    nn3 8613   4.222   6.406   1.248 -0.2027  0.3212 -0.0117
 1385ntf    sn2 8614   4.330   6.434   1.138 -0.0636 -0.0395  0.0313
 1385ntf    cn1 8615   4.414   6.278   1.100  0.3879  0.2073  0.0149
 1385ntf    fn4 8616   4.088   6.517   1.471  0.1094 -0.6642  0.3087
 1385ntf    fn4 8617   4.218   6.453   1.621 -0.2830  0.3812  0.1235
 1385ntf    fn4 8618   4.290   6.578   1.458 -0.1904  0.2174 -0.0235
 1385ntf    on5 8619   4.383   6.304   1.416  0.3308  0.3055  0.3731
 1385ntf    on5 8620   4.149   6.231   1.420 -0.1035  0.5064 -0.3178
 1385ntf    on5 8621   4.436   6.524   1.177 -0.0018 -0.0877 -0.0261
 1385ntf    on5 8622   4.268   6.463   1.011 -0.0360  0.3778  0.1098
 1385ntf    fn4 8623   4.492   6.238   1.199 -0.2010 -0.4186  0.2259
 1385ntf    fn4 8624   4.328   6.180   1.077  0.5765 -0.0352  0.3365
 1385ntf    fn4 8625   4.489   6.277   0.990  0.1875 -0.0079 -0.1204
 1386ntf    cn1 8626   2.110   6.643   1.686  0.0170 -0.5997  0.2940
 1386ntf    sn2 8627   2.286   6.685   1.703 -0.0760 -0.0115 -0.1351
 1386ntf    nn3 8628   2.352   6.544   1.683 -0.2893 -0.1752  0.2837
 1386ntf    sn2 8629   2.387   6.440   1.796  0.0935 -0.2153  0.1301
 1386ntf    cn1 8630   2.560   6.479   1.837 -0.0294  0.2059  0.2579
 1386ntf    fn4 8631   2.041   6.756   1.675  0.7194 -0.1679  0.2671
 1386ntf    fn4 8632   2.086   6.567   1.580 -0.4768 -0.5003  0.3308
 1386ntf    fn4 8633   2.065   6.576   1.791 -0.0329 -0.3326  0.4429
 1386ntf    on5 8634   2.310   6.778   1.596  0.2354 -0.6042 -0.5871
 1386ntf    on5 8635   2.303   6.745   1.833  0.3368  0.1450 -0.2614
 1386ntf    on5 8636   2.389   6.310   1.733  0.0091 -0.1179 -0.0755
 1386ntf    on5 8637   2.313   6.446   1.919 -0.6598  0.1431 -0.3282
 1386ntf    fn4 8638   2.648   6.444   1.744  0.3224  0.7163  0.3941
 1386ntf    fn4 8639   2.573   6.610   1.830 -0.1906  0.1906 -0.4430
 1386ntf    fn4 8640   2.601   6.439   1.956  0.1234 -0.0866  0.1096
 1387ntf    cn1 8641   6.150   4.063   2.880 -0.3266  0.0618 -0.1118
 1387ntf    sn2 8642   6.258   3.950   2.786 -0.1698  0.2041 -0.1056
 1387ntf    nn3 8643   6.231   3.818   2.867 -0.1228 -0.1138 -0.6072
 1387ntf    sn2 8644   6.144   3.693   2.830  0.0655 -0.3324 -0.3108
 1387ntf    cn1 8645   6.243   3.549   2.882 -0.0557 -0.1931  0.3111
 1387ntf    fn4 8646   6.022   4.046   2.852 -0.4311  0.2638  0.2349
 1387ntf    fn4 8647   6.173   4.058   3.010  0.0725  0.5584 -0.1558
 1387ntf    fn4 8648   6.178   4.191   2.857 -0.3797  0.0251 -0.3864
 1387ntf    on5 8649   6.213   3.955   2.649  0.1774  0.0391 -0.2240
 1387ntf    on5 8650   6.389   4.003   2.812  0.0060 -0.2164 -0.1341
 1387ntf    on5 8651   6.126   3.665   2.690  0.0352 -0.3321 -0.3069
 1387ntf    on5 8652   6.028   3.688   2.915 -0.1557 -0.2276 -0.6080
 1387ntf    fn4 8653   6.180   3.435   2.860 -0.1051 -0.1541  0.2508
 1387ntf    fn4 8654   6.357   3.553   2.814 -0.6150 -0.6292 -0.6639
 1387ntf    fn4 8655   6.267   3.549   3.012 -0.0733  0.1809  0.3170
 1388ntf    cn1 8656   3.558   0.538   3.035  0.1433 -0.0891  0.3131
 1388ntf    sn2 8657   3.533   0.444   3.188  0.2152 -0.0406  0.3543
 1388ntf    nn3 8658   3.538   0.296   3.136 -0.1031  0.0075  0.1867
 1388ntf    sn2 8659   3.543   0.164   3.221 -0.0965 -0.2840 -0.2640
 1388ntf    cn1 8660   3.387   0.089   3.166 -0.0318 -0.3152 -0.4055
 1388ntf    fn4 8661   3.552   0.666   3.066 -0.0417 -0.0287  0.0323
 1388ntf    fn4 8662   3.670   0.516   2.969 -0.1338  0.2904 -0.3037
 1388ntf    fn4 8663   3.461   0.521   2.946  0.2579 -0.1096  0.1911
 1388ntf    on5 8664   3.647   0.489   3.265  0.4481 -0.2778  0.1495
 1388ntf    on5 8665   3.403   0.489   3.232 -0.0271 -0.2594 -0.1308
 1388ntf    on5 8666   3.514   0.177   3.361 -0.0900 -0.4136 -0.2510
 1388ntf    on5 8667   3.645   0.073   3.176  0.1880 -0.0700 -0.0599
 1388ntf    fn4 8668   3.357  -0.024   3.226  0.2423 -0.0128  0.3071
 1388ntf    fn4 8669   3.289   0.173   3.196  0.4912  0.1341  0.0742
 1388ntf    fn4 8670   3.385   0.082   3.034 -1.0238 -0.1523 -0.4053
 1389ntf    cn1 8671   5.132   0.590   2.129  0.1762  0.0721  0.6281
 1389ntf    sn2 8672   5.308   0.544   2.128  0.2514  0.3545  0.0476
 1389ntf    nn3 8673   5.311   0.449   2.003 -0.1328  0.0294  0.2816
 1389ntf    sn2 8674   5.351   0.298   1.990 -0.1124  0.0618 -0.0446
 1389ntf    cn1 8675   5.331   0.279   1.810 -0.5805  0.3630 -0.0251
 1389ntf    fn4 8676   5.095   0.667   2.230 -0.0677  0.4184  0.2770
 1389ntf    fn4 8677   5.108   0.659   2.018  0.0322 -0.6176  0.2224
 1389ntf    fn4 8678   5.049   0.487   2.134  0.0688  0.1667  0.7777
 1389ntf    on5 8679   5.385   0.660   2.094  0.1283  0.3127 -0.3785
 1389ntf    on5 8680   5.324   0.476   2.254 -0.4896  0.8475  0.4167
 1389ntf    on5 8681   5.254   0.207   2.044  0.1697 -0.1153  0.1672
 1389ntf    on5 8682   5.492   0.268   2.001 -0.1879 -0.1114  0.4718
 1389ntf    fn4 8683   5.296   0.154   1.784 -0.3569  0.3486 -0.2554
 1389ntf    fn4 8684   5.241   0.357   1.752 -0.1428  0.7859 -0.1348
 1389ntf    fn4 8685   5.447   0.306   1.753 -0.2350 -0.3521  0.3227
 1390ntf    cn1 8686   3.469   0.539   5.622  0.0058 -0.0359  0.1341
 1390ntf    sn2 8687   3.558   0.669   5.714 -0.0045  0.1108 -0.0616
 1390ntf    nn3 8688   3.677   0.697   5.615 -0.0957 -0.1847 -0.2574
 1390ntf    sn2 8689   3.745   0.836   5.592 -0.0300 -0.1374  0.2164
 1390ntf    cn1 8690   3.788   0.883   5.763  0.3458 -0.0988  0.1105
 1390ntf    fn4 8691   3.550   0.438   5.594  0.4234  0.4102 -0.2912
 1390ntf    fn4 8692   3.366   0.498   5.693 -0.1443  0.4837  0.2231
 1390ntf    fn4 8693   3.423   0.575   5.503  0.3311 -0.0542 -0.0011
 1390ntf    on5 8694   3.457   0.770   5.733 -0.1007  0.0427 -0.2084
 1390ntf    on5 8695   3.611   0.599   5.828  1.0982 -0.3772 -0.8510
 1390ntf    on5 8696   3.668   0.944   5.534 -0.1375 -0.4266 -0.1815
 1390ntf    on5 8697   3.874   0.813   5.533 -0.1831 -0.6514  0.0793
 1390ntf    fn4 8698   3.679   0.907   5.833  0.2301  0.5505 -0.2775
 1390ntf    fn4 8699   3.864   0.799   5.830  0.0888 -0.5690 -0.1813
 1390ntf    fn4 8700   3.860   0.994   5.760  0.4493 -0.1534  0.5153
 1391ntf    cn1 8701   3.422   6.202   4.302  0.3401  0.3663  0.2245
 1391ntf    sn2 8702   3.525   6.101   4.191 -0.1753  0.1530 -0.0604
 1391ntf    nn3 8703   3.571   6.202   4.080 -0.4863  0.2820 -0.0716
 1391ntf    sn2 8704   3.707   6.277   4.058 -0.1505 -0.3573 -0.1795
 1391ntf    cn1 8705   3.814   6.134   4.021  0.3499 -0.1906  0.5823
 1391ntf    fn4 8706   3.357   6.124   4.387  0.3497  0.2956  0.1684
 1391ntf    fn4 8707   3.493   6.289   4.373  0.5119  0.4699 -0.0705
 1391ntf    fn4 8708   3.323   6.267   4.243  0.3911  0.3732  0.1469
 1391ntf    on5 8709   3.632   6.057   4.277 -0.2778  0.1072  0.0445
 1391ntf    on5 8710   3.443   5.996   4.135  0.2673 -0.0494 -0.3364
 1391ntf    on5 8711   3.768   6.335   4.175 -0.3432 -0.0097 -0.2512
 1391ntf    on5 8712   3.707   6.362   3.942  0.4989 -0.3321 -0.1643
 1391ntf    fn4 8713   3.910   6.162   3.934 -0.5613  0.4257 -0.2689
 1391ntf    fn4 8714   3.865   6.082   4.131  0.3242 -0.1855  0.5971
 1391ntf    fn4 8715   3.743   6.037   3.966  0.1918  0.1659  0.1458
 1392ntf    cn1 8716   3.181   5.677   5.125 -0.2914 -0.3303  0.1382
 1392ntf    sn2 8717   3.173   5.628   4.950 -0.1623  0.1307  0.0018
 1392ntf    nn3 8718   3.155   5.473   4.969 -0.2386  0.1537  0.1184
 1392ntf    sn2 8719   3.025   5.390   5.000 -0.2770  0.2803  0.2988
 1392ntf    cn1 8720   3.079   5.260   5.115 -0.4109 -0.3082 -0.2993
 1392ntf    fn4 8721   3.298   5.659   5.185 -0.3259 -0.4908  0.1595
 1392ntf    fn4 8722   3.144   5.803   5.144 -0.1794 -0.3384  0.4200
 1392ntf    fn4 8723   3.096   5.608   5.199 -0.5053 -0.1049  0.1053
 1392ntf    on5 8724   3.056   5.693   4.898  0.1278  1.0174  0.4358
 1392ntf    on5 8725   3.299   5.669   4.892 -0.2183  0.1696 -0.0926
 1392ntf    on5 8726   2.984   5.312   4.886  0.2503  0.1893  0.1668
 1392ntf    on5 8727   2.924   5.463   5.072  0.1173  0.7187  0.4119
 1392ntf    fn4 8728   3.197   5.212   5.078 -0.1866 -0.3454  0.4632
 1392ntf    fn4 8729   3.095   5.301   5.239  0.5030 -0.0769 -0.4813
 1392ntf    fn4 8730   2.991   5.162   5.128 -0.0964 -0.5595 -0.0324
 1393ntf    cn1 8731   1.142   1.584   5.302 -0.1811 -0.1435  0.0719
 1393ntf    sn2 8732   1.311   1.519   5.323  0.0438  0.3654 -0.1280
 1393ntf    nn3 8733   1.275   1.372   5.279 -0.0317  0.2869  0.1937
 1393ntf    sn2 8734   1.299   1.238   5.356 -0.0248  0.0697 -0.1850
 1393ntf    cn1 8735   1.128   1.208   5.409 -0.0379  0.1584 -0.1770
 1393ntf    fn4 8736   1.127   1.703   5.359 -0.5923 -0.0738 -0.1828
 1393ntf    fn4 8737   1.107   1.583   5.175  0.4002  0.5452 -0.1076
 1393ntf    fn4 8738   1.051   1.514   5.367  0.0729 -0.3690  0.1869
 1393ntf    on5 8739   1.382   1.597   5.225  0.7849 -0.2706 -0.1080
 1393ntf    on5 8740   1.342   1.542   5.461  0.3089 -0.1957 -0.0907
 1393ntf    on5 8741   1.366   1.242   5.484  0.9608 -0.0272 -0.6872
 1393ntf    on5 8742   1.341   1.132   5.267  0.0293 -0.1543  0.1066
 1393ntf    fn4 8743   1.103   1.264   5.526 -0.0490 -0.8868  0.3328
 1393ntf    fn4 8744   1.042   1.258   5.322 -0.4013  0.2183  0.2124
 1393ntf    fn4 8745   1.101   1.079   5.424 -0.3143  0.1832 -0.4620
 1394ntf    cn1 8746   3.386   2.839   2.345  0.2753 -0.4648  0.4796
 1394ntf    sn2 8747   3.458   2.922   2.491  0.1876  0.1301  0.1874
 1394ntf    nn3 8748   3.539   3.038   2.423  0.0366  0.0364 -0.1544
 1394ntf    sn2 8749   3.510   3.192   2.430  0.1272  0.0441  0.0563
 1394ntf    cn1 8750   3.595   3.249   2.580  0.3797  0.1335 -0.1193
 1394ntf    fn4 8751   3.296   2.916   2.286  0.0934 -0.8905  0.1955
 1394ntf    fn4 8752   3.466   2.794   2.250 -0.3625 -0.5554 -0.0223
 1394ntf    fn4 8753   3.319   2.733   2.389 -0.0897 -0.5971 -0.3823
 1394ntf    on5 8754   3.342   2.963   2.565 -0.1317  0.4340 -0.4745
 1394ntf    on5 8755   3.544   2.824   2.553  0.2048  0.3230  0.4638
 1394ntf    on5 8756   3.372   3.231   2.438  0.1990  0.2321  0.3854
 1394ntf    on5 8757   3.583   3.254   2.321 -0.0889 -0.1331 -0.1902
 1394ntf    fn4 8758   3.727   3.246   2.566  0.3601  0.1260 -0.3030
 1394ntf    fn4 8759   3.568   3.377   2.603  0.0565  0.0498 -0.0227
 1394ntf    fn4 8760   3.563   3.173   2.684  0.0851 -0.0204 -0.3221
 1395ntf    cn1 8761   2.295   4.096   0.731  0.4457  0.2608 -0.3083
 1395ntf    sn2 8762   2.269   4.008   0.574  0.1167 -0.1619 -0.0184
 1395ntf    nn3 8763   2.113   4.006   0.552  0.0955 -0.5516  0.1525
 1395ntf    sn2 8764   2.013   3.897   0.604 -0.2935 -0.1044  0.3399
 1395ntf    cn1 8765   1.863   4.000   0.615 -0.0719  0.2340  0.2093
 1395ntf    fn4 8766   2.210   4.064   0.827  0.2765 -0.0029 -0.5451
 1395ntf    fn4 8767   2.418   4.081   0.777  0.2067 -0.0877  0.2239
 1395ntf    fn4 8768   2.279   4.226   0.712 -0.5604  0.1846 -0.0378
 1395ntf    on5 8769   2.329   4.093   0.475  0.7382 -0.0966  0.4107
 1395ntf    on5 8770   2.330   3.879   0.600 -0.1658 -0.1374  0.8143
 1395ntf    on5 8771   2.029   3.856   0.741 -0.1899 -0.2915  0.2712
 1395ntf    on5 8772   1.971   3.799   0.507  0.2858 -0.3762  0.3626
 1395ntf    fn4 8773   1.888   4.103   0.695 -0.1737 -0.0115  0.5627
 1395ntf    fn4 8774   1.831   4.038   0.493  0.0945  0.1178  0.1286
 1395ntf    fn4 8775   1.755   3.949   0.672 -0.0945 -0.1742 -0.1977
 1396ntf    cn1 8776   6.559   5.863   0.800  0.3984 -0.1161  0.1836
 1396ntf    sn2 8777   6.668   5.735   0.869  0.3600 -0.1181  0.2413
 1396ntf    nn3 8778   6.576   5.662   0.973  0.3750 -0.2230  0.1813
 1396ntf    sn2 8779   6.565   5.683   1.128 -0.1395 -0.0028  0.1157
 1396ntf    cn1 8780   6.512   5.520   1.189 -0.2242 -0.0332 -0.0388
 1396ntf    fn4 8781   6.458   5.812   0.731  0.0405  0.4638  0.2673
 1396ntf    fn4 8782   6.508   5.935   0.899 -0.5721 -0.1208 -0.2987
 1396ntf    fn4 8783   6.627   5.946   0.723  0.0540 -0.0760 -0.0800
 1396ntf    on5 8784   6.694   5.660   0.748  0.5434  0.5187 -0.1225
 1396ntf    on5 8785   6.772   5.820   0.922  0.1319  0.3425 -0.0416
 1396ntf    on5 8786   6.461   5.775   1.168 -0.2892  0.2161 -0.7455
 1396ntf    on5 8787   6.699   5.703   1.177 -0.2112  0.2458  0.2149
 1396ntf    fn4 8788   6.509   5.520   1.321  0.0374  0.3397 -0.0311
 1396ntf    fn4 8789   6.391   5.486   1.148 -0.0052 -0.1561 -0.5899
 1396ntf    fn4 8790   6.592   5.420   1.155 -0.1562 -0.1266  0.3857
 1397ntf    cn1 8791   1.943   4.291   5.744  0.0694  0.3585  0.3279
 1397ntf    sn2 8792   1.865   4.360   5.892 -0.1745 -0.1665  0.4486
 1397ntf    nn3 8793   1.971   4.468   5.936 -0.1784 -0.1211  0.3467
 1397ntf    sn2 8794   2.107   4.445   6.012  0.0138  0.0373  0.0549
 1397ntf    cn1 8795   2.059   4.514   6.173  0.2535 -0.0813  0.1775
 1397ntf    fn4 8796   1.976   4.383   5.654  0.1497  0.3712  0.3701
 1397ntf    fn4 8797   2.055   4.226   5.771 -0.1334  0.0464  0.4276
 1397ntf    fn4 8798   1.860   4.208   5.683  0.4015 -0.4150  0.9131
 1397ntf    on5 8799   1.744   4.418   5.842 -0.1151 -0.0706  0.4161
 1397ntf    on5 8800   1.847   4.244   5.975 -0.1867  0.0412  0.7382
 1397ntf    on5 8801   2.212   4.530   5.962 -0.1753  0.2162 -0.0398
 1397ntf    on5 8802   2.137   4.308   6.047 -0.1104  0.0077  0.0484
 1397ntf    fn4 8803   2.036   4.644   6.160  0.4099 -0.0942 -0.2524
 1397ntf    fn4 8804   1.953   4.445   6.213  0.3481 -0.0376  0.5125
 1397ntf    fn4 8805   2.155   4.498   6.263  0.4785  0.5806  0.0604
 1398ntf    cn1 8806   5.201   2.141   2.360  0.0840 -0.0838 -0.0714
 1398ntf    sn2 8807   5.184   2.172   2.538 -0.3423  0.2795 -0.1728
 1398ntf    nn3 8808   5.100   2.304   2.538 -0.1578  0.3977  0.2759
 1398ntf    sn2 8809   5.151   2.453   2.530  0.0229  0.3152 -0.1111
 1398ntf    cn1 8810   5.000   2.533   2.469  0.0795  0.1888 -0.4210
 1398ntf    fn4 8811   5.269   2.234   2.294 -0.6056  0.1562 -0.4537
 1398ntf    fn4 8812   5.266   2.028   2.337 -0.1493 -0.2078 -0.1230
 1398ntf    fn4 8813   5.083   2.123   2.303  0.4625 -0.2729 -0.8180
 1398ntf    on5 8814   5.106   2.058   2.579 -0.1954  0.3393  0.2753
 1398ntf    on5 8815   5.319   2.186   2.588 -0.3663 -0.2934  0.0611
 1398ntf    on5 8816   5.254   2.480   2.433  0.3384 -0.4291  0.0064
 1398ntf    on5 8817   5.165   2.509   2.662 -0.1346  0.3683 -0.1173
 1398ntf    fn4 8818   4.903   2.526   2.559  0.3288  0.0532 -0.1644
 1398ntf    fn4 8819   5.018   2.662   2.446  0.0139  0.2105 -0.3516
 1398ntf    fn4 8820   4.953   2.473   2.360  0.2203 -0.2464 -0.2421
 1399ntf    cn1 8821   3.469   5.777   0.814  0.4553 -0.1619 -0.2888
 1399ntf    sn2 8822   3.477   5.947   0.750 -0.1906 -0.0290 -0.0280
 1399ntf    nn3 8823   3.532   6.032   0.870 -0.2029  0.4221 -0.3375
 1399ntf    sn2 8824   3.574   6.182   0.857  0.2395  0.3019 -0.3385
 1399ntf    cn1 8825   3.423   6.248   0.934  0.2775  0.3611 -0.3141
 1399ntf    fn4 8826   3.386   5.703   0.743 -0.3261  0.6489 -0.2346
 1399ntf    fn4 8827   3.586   5.716   0.812  0.3820 -0.3237  0.2216
 1399ntf    fn4 8828   3.433   5.771   0.941 -0.2681 -0.0139 -0.4848
 1399ntf    on5 8829   3.576   5.932   0.646 -0.0381  0.2586  0.0749
 1399ntf    on5 8830   3.340   5.979   0.720 -0.2760  0.4072  0.8058
 1399ntf    on5 8831   3.578   6.244   0.727 -0.0458  0.3842 -0.3096
 1399ntf    on5 8832   3.687   6.206   0.943 -0.1616 -0.2954  0.3679
 1399ntf    fn4 8833   3.406   6.199   1.056  0.5777 -0.1703 -0.4804
 1399ntf    fn4 8834   3.431   6.379   0.952  0.5332  0.2701  0.2605
 1399ntf    fn4 8835   3.315   6.220   0.863  0.0741  0.3908 -0.0206
 1400ntf    cn1 8836   2.693   5.428   6.375 -0.1532  0.3424  0.0578
 1400ntf    sn2 8837   2.575   5.498   6.494 -0.0362  0.0450  0.3513
 1400ntf    nn3 8838   2.672   5.526   6.615  0.2670 -0.4046  0.2122
 1400ntf    sn2 8839   2.766   5.650   6.623 -0.2407 -0.0064  0.0632
 1400ntf    cn1 8840   2.671   5.758   6.733  0.4117  0.0074  0.6209
 1400ntf    fn4 8841   2.794   5.508   6.345  0.3069  0.0160  0.6914
 1400ntf    fn4 8842   2.755   5.327   6.435 -0.1961  0.0965 -0.3117
 1400ntf    fn4 8843   2.641   5.379   6.264  0.1668 -0.2265  0.1516
 1400ntf    on5 8844   2.510   5.609   6.429  0.4973  0.2965  0.2455
 1400ntf    on5 8845   2.481   5.392   6.518  0.4108 -0.3816  0.2208
 1400ntf    on5 8846   2.788   5.725   6.501 -0.2492  0.0285  0.0830
 1400ntf    on5 8847   2.883   5.613   6.698 -0.2883  0.2541  0.2683
 1400ntf    fn4 8848   2.554   5.788   6.678  0.6020  0.1978  0.3195
 1400ntf    fn4 8849   2.658   5.702   6.852 -0.5210 -0.4242  0.3306
 1400ntf    fn4 8850   2.733   5.874   6.748 -0.5766  0.6198  0.0797
 1401ntf    cn1 8851   1.395   0.679   1.280  0.0763 -0.3603 -0.1623
 1401ntf    sn2 8852   1.478   0.679   1.442 -0.0001 -0.2964 -0.1231
 1401ntf    nn3 8853   1.548   0.819   1.437  0.2464 -0.3993  0.3960
 1401ntf    sn2 8854   1.491   0.956   1.489  0.2739 -0.3314  0.2508
 1401ntf    cn1 8855   1.584   1.075   1.389 -0.2644 -0.2563 -0.1658
 1401ntf    fn4 8856   1.478   0.729   1.189  0.2056 -0.2543  0.0123
 1401ntf    fn4 8857   1.356   0.562   1.234 -0.3342 -0.2084 -0.2012
 1401ntf    fn4 8858   1.292   0.762   1.269  0.3531 -0.0426 -0.3881
 1401ntf    on5 8859   1.378   0.656   1.543 -0.3466 -0.6570 -0.5408
 1401ntf    on5 8860   1.568   0.567   1.438  0.3402 -0.0298  0.0791
 1401ntf    on5 8861   1.525   0.985   1.626  0.1026 -0.2032  0.2669
 1401ntf    on5 8862   1.353   0.979   1.455  0.3391  0.3247  0.4274
 1401ntf    fn4 8863   1.555   1.066   1.260 -0.4590  0.2431 -0.1598
 1401ntf    fn4 8864   1.552   1.198   1.427 -0.3377 -0.3906  0.2158
 1401ntf    fn4 8865   1.715   1.069   1.405 -0.2657  0.3665  0.0966
 1402ntf    cn1 8866   6.624   1.184   0.021  0.8738 -0.1618 -0.3362
 1402ntf    sn2 8867   6.718   1.327  -0.041  0.5119  0.0829 -0.3247
 1402ntf    nn3 8868   6.646   1.444   0.035  0.2220 -0.4720  0.2683
 1402ntf    sn2 8869   6.644   1.486   0.186 -0.0393 -0.0370  0.1476
 1402ntf    cn1 8870   6.467   1.483   0.225 -0.0746  0.0092 -0.0099
 1402ntf    fn4 8871   6.499   1.228   0.019  0.8582 -0.1883 -0.0101
 1402ntf    fn4 8872   6.634   1.079  -0.058  0.6535 -0.4089 -0.0371
 1402ntf    fn4 8873   6.656   1.140   0.141  0.2122  0.0643 -0.0709
 1402ntf    on5 8874   6.856   1.307  -0.004  0.2870 -0.2378  0.3551
 1402ntf    on5 8875   6.681   1.327  -0.180 -0.0070 -0.5145 -0.1858
 1402ntf    on5 8876   6.669   1.627   0.205 -0.0015 -0.1625  1.0973
 1402ntf    on5 8877   6.700   1.396   0.284 -0.3288 -0.3608  0.0172
 1402ntf    fn4 8878   6.417   1.361   0.226  0.0630 -0.0483  0.5130
 1402ntf    fn4 8879   6.440   1.534   0.345 -0.3942 -0.2302  0.0205
 1402ntf    fn4 8880   6.389   1.554   0.145  0.7974  0.6840 -0.2785
 1403ntf    cn1 8881   0.812   4.041   0.269 -0.4178  0.1525 -0.0749
 1403ntf    sn2 8882   0.858   3.926   0.402 -0.1409  0.2273 -0.1066
 1403ntf    nn3 8883   0.920   4.022   0.510 -0.1274  0.1282 -0.0258
 1403ntf    sn2 8884   1.064   4.084   0.523 -0.0925  0.0345  0.0313
 1403ntf    cn1 8885   1.128   3.985   0.662  0.1785 -0.0027 -0.1188
 1403ntf    fn4 8886   0.722   4.131   0.308  0.0179  0.4288  0.3013
 1403ntf    fn4 8887   0.916   4.103   0.217 -0.0466 -0.9495 -0.6805
 1403ntf    fn4 8888   0.758   3.975   0.167 -0.5063 -0.3138  0.2701
 1403ntf    on5 8889   0.736   3.870   0.455  0.2219 -0.0594  0.4372
 1403ntf    on5 8890   0.946   3.833   0.337 -0.2716  0.0046  0.0349
 1403ntf    on5 8891   1.058   4.215   0.582  0.3364 -0.0675  0.3055
 1403ntf    on5 8892   1.156   4.060   0.414  0.3699 -0.1215  0.4494
 1403ntf    fn4 8893   1.115   3.859   0.624 -0.7320 -0.0939  0.4474
 1403ntf    fn4 8894   1.254   4.016   0.683  0.1501  0.1622 -0.1871
 1403ntf    fn4 8895   1.060   4.004   0.773  0.0422 -0.0524 -0.1928
 1404ntf    cn1 8896   0.041   5.131   1.280 -0.2787 -0.4285  0.2453
 1404ntf    sn2 8897   0.211   5.135   1.216 -0.3535  0.3134  0.0825
 1404ntf    nn3 8898   0.287   5.042   1.317 -0.0300  0.9030  0.3879
 1404ntf    sn2 8899   0.440   5.024   1.346 -0.1091 -0.0708  0.2434
 1404ntf    cn1 8900   0.467   4.855   1.285 -0.1683 -0.0876  0.2643
 1404ntf    fn4 8901  -0.001   5.005   1.281 -0.4645 -0.3743 -0.2070
 1404ntf    fn4 8902   0.021   5.188   1.398  0.1196  0.1361  0.0450
 1404ntf    fn4 8903  -0.043   5.194   1.199 -0.2505  0.4737  0.8977
 1404ntf    on5 8904   0.198   5.072   1.086  0.2471 -0.7863  0.5425
 1404ntf    on5 8905   0.241   5.276   1.210  0.7580  0.0841 -0.0077
 1404ntf    on5 8906   0.461   5.011   1.489  0.7706  0.0150  0.1267
 1404ntf    on5 8907   0.534   5.104   1.272 -0.3877  0.4178  0.4189
 1404ntf    fn4 8908   0.583   4.804   1.322 -0.0342  0.0489  0.0338
 1404ntf    fn4 8909   0.381   4.770   1.340 -0.3781 -0.0197  0.0450
 1404ntf    fn4 8910   0.466   4.845   1.153  0.3660  0.2518  0.2340
 1405ntf    cn1 8911   2.484   1.484   0.153  0.0173  0.0218  0.1798
 1405ntf    sn2 8912   2.357   1.608   0.192 -0.0142  0.0073  0.1242
 1405ntf    nn3 8913   2.225   1.526   0.167  0.2545 -0.4533  0.2009
 1405ntf    sn2 8914   2.096   1.515   0.256  0.1280  0.0122  0.0782
 1405ntf    cn1 8915   1.997   1.433   0.128  0.2145 -0.2649  0.1882
 1405ntf    fn4 8916   2.489   1.445   0.026  0.4416  0.2038  0.1373
 1405ntf    fn4 8917   2.606   1.529   0.179  0.0512  0.1866 -0.2437
 1405ntf    fn4 8918   2.481   1.374   0.225  0.5477 -0.4861 -0.5544
 1405ntf    on5 8919   2.378   1.635   0.332 -0.4502  0.1007  0.1751
 1405ntf    on5 8920   2.370   1.712   0.094  0.2087  0.1416  0.2956
 1405ntf    on5 8921   2.030   1.639   0.288  0.3284  0.2119 -0.2725
 1405ntf    on5 8922   2.105   1.415   0.360  0.8081  0.2862  0.2904
 1405ntf    fn4 8923   2.050   1.321   0.081  0.1692 -0.2421  0.0830
 1405ntf    fn4 8924   1.878   1.402   0.178  0.1112 -0.3487 -0.1100
 1405ntf    fn4 8925   1.969   1.507   0.022  0.5367 -0.7107 -0.2113
 1406ntf    cn1 8926   5.676   5.378   6.266 -0.1894 -0.1021 -0.3019
 1406ntf    sn2 8927   5.528   5.437   6.179 -0.1889  0.1899 -0.1043
 1406ntf    nn3 8928   5.593   5.494   6.048 -0.0446  0.2978  0.0134
 1406ntf    sn2 8929   5.547   5.490   5.898  0.3158  0.2134 -0.0958
 1406ntf    cn1 8930   5.636   5.345   5.834 -0.1861 -0.1865  0.1042
 1406ntf    fn4 8931   5.764   5.476   6.273 -0.5279  0.2312 -0.6766
 1406ntf    fn4 8932   5.660   5.338   6.391 -0.5290  0.7259 -0.0728
 1406ntf    fn4 8933   5.741   5.282   6.202 -0.0849  0.1896 -0.6379
 1406ntf    on5 8934   5.448   5.319   6.160 -0.1536  0.1640 -0.0907
 1406ntf    on5 8935   5.469   5.533   6.269  0.1079 -0.0415  0.3364
 1406ntf    on5 8936   5.603   5.603   5.829  0.0401  0.2482 -0.2649
 1406ntf    on5 8937   5.410   5.451   5.875  0.3752 -0.3407  0.4445
 1406ntf    fn4 8938   5.612   5.233   5.901 -0.4975 -0.1910 -0.0129
 1406ntf    fn4 8939   5.592   5.320   5.711 -0.1407 -0.0333  0.0568
 1406ntf    fn4 8940   5.766   5.364   5.841 -0.2212 -0.1917  0.8219
 1407ntf    cn1 8941   5.811   0.804   0.042  0.0549  0.1050  0.0636
 1407ntf    sn2 8942   5.877   0.972   0.016  0.0713  0.1112  0.1477
 1407ntf    nn3 8943   5.828   0.997  -0.131 -0.3805 -0.2208  0.2392
 1407ntf    sn2 8944   5.689   1.055  -0.175 -0.3973 -0.5056 -0.0870
 1407ntf    cn1 8945   5.731   1.222  -0.235  0.2422 -0.6048  0.0729
 1407ntf    fn4 8946   5.845   0.755   0.159  0.4059  0.2921  0.0420
 1407ntf    fn4 8947   5.679   0.801   0.043  0.0680 -0.5096  0.2878
 1407ntf    fn4 8948   5.847   0.715  -0.049 -0.1199  0.7552 -0.6521
 1407ntf    on5 8949   5.822   1.060   0.116 -0.4631  0.2322 -0.2513
 1407ntf    on5 8950   6.019   0.945   0.028  0.1248  0.3150 -0.0256
 1407ntf    on5 8951   5.592   1.084  -0.073  0.0299  0.2548  0.1167
 1407ntf    on5 8952   5.644   0.986  -0.293 -0.2250 -0.3163 -0.2646
 1407ntf    fn4 8953   5.636   1.289  -0.298  0.2697  0.2319  0.9037
 1407ntf    fn4 8954   5.771   1.292  -0.130 -0.1497 -0.2559 -0.0111
 1407ntf    fn4 8955   5.832   1.218  -0.320  0.2439 -0.5152  0.0710
 1408ntf    cn1 8956   1.601   5.493   2.824 -0.0396  0.3231  0.2605
 1408ntf    sn2 8957   1.754   5.545   2.909  0.0318 -0.0828  0.3803
 1408ntf    nn3 8958   1.857   5.498   2.801 -0.2260  0.1651  0.0250
 1408ntf    sn2 8959   1.949   5.581   2.705  0.0497 -0.4007 -0.2068
 1408ntf    cn1 8960   2.088   5.623   2.814 -0.0815  0.1844 -0.2615
 1408ntf    fn4 8961   1.597   5.369   2.779  0.1278  0.6375 -0.6419
 1408ntf    fn4 8962   1.492   5.496   2.899 -0.2081 -0.6536  0.0621
 1408ntf    fn4 8963   1.575   5.555   2.711 -0.1620 -0.3440 -0.0781
 1408ntf    on5 8964   1.740   5.685   2.938  0.5673  0.1236 -0.3605
 1408ntf    on5 8965   1.759   5.453   3.021  0.2780 -0.9768 -0.3555
 1408ntf    on5 8966   1.892   5.706   2.661  0.3088 -0.1866  0.0598
 1408ntf    on5 8967   2.011   5.496   2.606  0.0863 -0.3289 -0.2462
 1408ntf    fn4 8968   2.185   5.690   2.752  0.3076  0.0979  0.2473
 1408ntf    fn4 8969   2.051   5.708   2.908  0.1141  0.3101 -0.2966
 1408ntf    fn4 8970   2.143   5.517   2.870 -0.5242 -0.0321 -0.2419
 1409ntf    cn1 8971   0.037   0.870   3.794  0.2865 -0.3345  0.0797
 1409ntf    sn2 8972   0.110   0.781   3.935 -0.0392 -0.3807  0.2198
 1409ntf    nn3 8973   0.228   0.704   3.865 -0.2238 -0.3669 -0.1113
 1409ntf    sn2 8974   0.377   0.751   3.859 -0.2741 -0.2203 -0.2181
 1409ntf    cn1 8975   0.456   0.613   3.772  0.0985 -0.2691  0.1945
 1409ntf    fn4 8976  -0.086   0.905   3.828  0.3170 -0.0184 -0.1302
 1409ntf    fn4 8977   0.105   0.977   3.755 -0.0493 -0.2442 -0.2654
 1409ntf    fn4 8978   0.026   0.794   3.686 -0.0676  0.0732 -0.1782
 1409ntf    on5 8979   0.148   0.887   4.025 -0.0687 -0.1350 -0.0528
 1409ntf    on5 8980   0.013   0.683   3.978 -0.4011 -0.1884 -0.1437
 1409ntf    on5 8981   0.440   0.753   3.989 -0.5801 -0.2955 -0.0680
 1409ntf    on5 8982   0.391   0.861   3.766  0.4391 -0.3020 -0.2174
 1409ntf    fn4 8983   0.581   0.650   3.747 -0.2007  0.5522 -0.1116
 1409ntf    fn4 8984   0.469   0.506   3.850  0.2985 -0.0110  0.5175
 1409ntf    fn4 8985   0.398   0.576   3.659  0.1055 -0.0892  0.1324
 1410ntf    cn1 8986   4.609   0.501   0.958 -0.3896  0.0767  0.0287
 1410ntf    sn2 8987   4.479   0.431   0.852 -0.2399 -0.3731  0.1373
 1410ntf    nn3 8988   4.387   0.364   0.960 -0.2948 -0.4222  0.0600
 1410ntf    sn2 8989   4.282   0.429   1.056  0.1431  0.1544  0.1504
 1410ntf    cn1 8990   4.134   0.422   0.951  0.1672  0.1216  0.1193
 1410ntf    fn4 8991   4.662   0.600   0.889  0.4918 -0.4054  0.0012
 1410ntf    fn4 8992   4.568   0.548   1.075  0.1429  0.9484 -0.1286
 1410ntf    fn4 8993   4.712   0.420   0.979 -0.2584  0.0765 -0.6196
 1410ntf    on5 8994   4.422   0.535   0.770 -0.3460 -0.0939  0.5644
 1410ntf    on5 8995   4.545   0.327   0.777 -0.0077 -0.3276  0.2783
 1410ntf    on5 8996   4.298   0.570   1.082 -0.2175  0.2511 -0.1566
 1410ntf    on5 8997   4.253   0.349   1.172 -0.2765 -0.0378 -0.0856
 1410ntf    fn4 8998   4.156   0.484   0.836  0.2812  0.3521  0.2638
 1410ntf    fn4 8999   4.097   0.298   0.924  0.1427  0.1352  0.0903
 1410ntf    fn4 9000   4.028   0.479   1.007  0.0939 -0.0403  0.1451
 1411ntf    cn1 9001   1.831   3.401   3.881 -0.0865 -0.1693 -0.1240
 1411ntf    sn2 9002   1.774   3.550   3.969 -0.0761 -0.2004 -0.0652
 1411ntf    nn3 9003   1.737   3.490   4.109 -0.3295 -0.4068 -0.2207
 1411ntf    sn2 9004   1.607   3.407   4.140 -0.2590 -0.3631  0.1925
 1411ntf    cn1 9005   1.501   3.545   4.193  0.2895 -0.1223  0.6860
 1411ntf    fn4 9006   1.885   3.440   3.766 -0.0174  0.0508 -0.0163
 1411ntf    fn4 9007   1.922   3.342   3.956  0.3994  0.8332  0.0903
 1411ntf    fn4 9008   1.735   3.317   3.845 -0.0710 -0.1156 -0.2945
 1411ntf    on5 9009   1.898   3.624   3.966  0.0365 -0.3356  0.8449
 1411ntf    on5 9010   1.663   3.597   3.890 -0.1408 -0.2849 -0.0251
 1411ntf    on5 9011   1.630   3.328   4.259 -0.4766 -0.4048  0.2066
 1411ntf    on5 9012   1.537   3.336   4.036 -0.2742  0.4102 -0.3319
 1411ntf    fn4 9013   1.379   3.503   4.225 -0.0422  0.1947 -0.1144
 1411ntf    fn4 9014   1.548   3.615   4.294  0.2407  0.5384  0.2589
 1411ntf    fn4 9015   1.471   3.630   4.096 -0.8508 -0.8158  0.4066
 1412ntf    cn1 9016   4.520   1.614   4.230 -0.2220 -0.0452  0.1179
 1412ntf    sn2 9017   4.457   1.599   4.061 -0.1942 -0.0506  0.1078
 1412ntf    nn3 9018   4.509   1.738   4.008 -0.2034 -0.0266  0.1613
 1412ntf    sn2 9019   4.426   1.862   3.962 -0.0095 -0.0089 -0.1483
 1412ntf    cn1 9020   4.453   1.965   4.109 -0.0642 -0.2071  0.0006
 1412ntf    fn4 9021   4.622   1.698   4.238 -0.0829 -0.1369 -0.6205
 1412ntf    fn4 9022   4.429   1.660   4.315 -0.1866 -0.1946  0.2362
 1412ntf    fn4 9023   4.559   1.494   4.271 -0.1317 -0.2291 -0.5074
 1412ntf    on5 9024   4.535   1.495   3.998  0.6875  0.3156  0.5709
 1412ntf    on5 9025   4.315   1.585   4.080 -0.0833 -0.6726  0.4774
 1412ntf    on5 9026   4.282   1.859   3.954 -0.0425  0.6471  0.1629
 1412ntf    on5 9027   4.485   1.931   3.850  0.0441 -0.2510 -0.2687
 1412ntf    fn4 9028   4.389   1.916   4.214  0.0488  0.0803  0.2057
 1412ntf    fn4 9029   4.581   1.959   4.141 -0.1573 -0.6622  0.3046
 1412ntf    fn4 9030   4.425   2.094   4.097  0.0195 -0.2411 -0.5901
 1413ntf    cn1 9031   5.584   4.299   6.506 -0.1592 -0.1570  0.2346
 1413ntf    sn2 9032   5.604   4.119   6.495 -0.3127 -0.1466 -0.2507
 1413ntf    nn3 9033   5.754   4.108   6.539 -0.2711  0.3684 -0.2632
 1413ntf    sn2 9034   5.888   4.090   6.459 -0.3202  0.0116 -0.2683
 1413ntf    cn1 9035   5.963   3.960   6.562 -0.6045 -0.1485 -0.2625
 1413ntf    fn4 9036   5.631   4.335   6.624 -0.0038 -0.1376  0.1675
 1413ntf    fn4 9037   5.650   4.371   6.417 -0.2072  0.0550  0.3701
 1413ntf    fn4 9038   5.459   4.343   6.502 -0.1139 -0.0418  0.0701
 1413ntf    on5 9039   5.505   4.079   6.593  0.3101 -0.1947  0.3683
 1413ntf    on5 9040   5.584   4.083   6.357  0.1323  0.2279 -0.4140
 1413ntf    on5 9041   5.976   4.203   6.478 -0.1716 -0.1591  0.0603
 1413ntf    on5 9042   5.881   4.028   6.329  0.6235 -0.0237 -0.3072
 1413ntf    fn4 9043   5.994   3.993   6.686 -0.2003 -0.2599 -0.3344
 1413ntf    fn4 9044   5.883   3.855   6.569 -0.3800 -0.3354 -0.5077
 1413ntf    fn4 9045   6.078   3.917   6.512 -0.6778 -0.7067  0.0412
 1414ntf    cn1 9046   3.391   5.359   0.976 -0.4210  0.2597 -0.0928
 1414ntf    sn2 9047   3.350   5.401   1.148  0.0035  0.3183 -0.0062
 1414ntf    nn3 9048   3.212   5.474   1.131 -0.3273 -0.1876  0.4869
 1414ntf    sn2 9049   3.065   5.418   1.129 -0.3195 -0.1885 -0.1097
 1414ntf    cn1 9050   3.017   5.443   1.302 -0.2475 -0.2388 -0.0824
 1414ntf    fn4 9051   3.519   5.330   0.958 -0.3585  0.2522  0.3523
 1414ntf    fn4 9052   3.321   5.260   0.924  0.1142 -0.2231  0.1032
 1414ntf    fn4 9053   3.368   5.461   0.895  0.1334  0.5892  0.1596
 1414ntf    on5 9054   3.336   5.276   1.219  1.1799  0.2799  0.1754
 1414ntf    on5 9055   3.458   5.490   1.185  0.0978  0.2596 -0.1369
 1414ntf    on5 9056   3.048   5.275   1.117 -0.1587 -0.2485  0.3706
 1414ntf    on5 9057   2.982   5.504   1.048  0.0345  0.0489 -0.2238
 1414ntf    fn4 9058   2.900   5.385   1.322 -0.3009 -0.2578 -0.4357
 1414ntf    fn4 9059   3.103   5.401   1.393 -0.1225  0.1181 -0.0350
 1414ntf    fn4 9060   3.010   5.573   1.321  0.4708 -0.1955 -0.0885
 1415ntf    cn1 9061   0.095   2.894   5.323  0.2745 -0.2181  0.0038
 1415ntf    sn2 9062   0.111   3.058   5.401  0.5061 -0.1402 -0.2061
 1415ntf    nn3 9063   0.264   3.081   5.374  0.3878  0.5303 -0.3355
 1415ntf    sn2 9064   0.380   3.089   5.480  0.0313 -0.4710  0.1479
 1415ntf    cn1 9065   0.454   3.245   5.423 -0.1246 -0.4976 -0.1317
 1415ntf    fn4 9066  -0.029   2.849   5.329  0.2896 -0.2595  0.0005
 1415ntf    fn4 9067   0.125   2.892   5.194 -0.2709 -0.1493 -0.1265
 1415ntf    fn4 9068   0.169   2.809   5.393 -0.0502 -0.4435  0.0723
 1415ntf    on5 9069   0.027   3.141   5.317 -0.2124 -0.6450  0.0007
 1415ntf    on5 9070   0.067   3.040   5.537 -0.1965  0.6959 -0.3113
 1415ntf    on5 9071   0.484   2.991   5.461  0.1217 -0.4636  0.6058
 1415ntf    on5 9072   0.343   3.126   5.614  0.2391  0.4144 -0.0318
 1415ntf    fn4 9073   0.366   3.331   5.375  0.4950  0.4109  0.3298
 1415ntf    fn4 9074   0.523   3.307   5.518 -0.8074  0.1142 -0.0321
 1415ntf    fn4 9075   0.535   3.219   5.321 -0.1309 -0.4559 -0.1473
 1416ntf    cn1 9076   0.447   1.064   4.769  0.3391  0.3477 -0.4277
 1416ntf    sn2 9077   0.280   1.053   4.698  0.1042  0.1118  0.1533
 1416ntf    nn3 9078   0.191   1.131   4.801  0.0036  0.0312  0.1282
 1416ntf    sn2 9079   0.152   1.283   4.799 -0.0795  0.0071 -0.0849
 1416ntf    cn1 9080  -0.011   1.267   4.878 -0.0752 -0.4599 -0.1702
 1416ntf    fn4 9081   0.488   1.190   4.761  0.2687  0.3734 -0.3836
 1416ntf    fn4 9082   0.460   1.013   4.890 -0.5650 -0.0203 -0.4734
 1416ntf    fn4 9083   0.537   0.994   4.701  0.1037  0.0453 -0.4320
 1416ntf    on5 9084   0.299   1.109   4.566 -0.1005 -0.5831 -0.1724
 1416ntf    on5 9085   0.258   0.911   4.698  0.0188  0.1239  0.0180
 1416ntf    on5 9086   0.116   1.333   4.669 -0.1060  0.2788  0.0261
 1416ntf    on5 9087   0.229   1.362   4.892  0.2835 -0.2521 -0.1653
 1416ntf    fn4 9088  -0.016   1.199   4.991 -0.0121 -0.1793  0.0018
 1416ntf    fn4 9089  -0.068   1.382   4.909 -0.2143 -0.4230 -0.5600
 1416ntf    fn4 9090  -0.100   1.207   4.800 -0.0830 -0.4069 -0.2020
 1417ntf    cn1 9091   0.044   5.583   1.478 -0.1325  0.1782 -0.2930
 1417ntf    sn2 9092   0.213   5.648   1.492  0.0288 -0.3168  0.0794
 1417ntf    nn3 9093   0.208   5.755   1.607 -0.1946 -0.0830 -0.1460
 1417ntf    sn2 9094   0.200   5.728   1.762 -0.6438  0.0506 -0.1457
 1417ntf    cn1 9095   0.037   5.801   1.800 -0.3513  0.6594 -0.0501
 1417ntf    fn4 9096   0.031   5.495   1.380 -0.1469  0.0966 -0.2179
 1417ntf    fn4 9097   0.000   5.518   1.584  0.0782  0.0282 -0.2974
 1417ntf    fn4 9098  -0.046   5.678   1.459 -0.3295  0.0856  0.1718
 1417ntf    on5 9099   0.299   5.539   1.532  0.1468  0.0208  0.7554
 1417ntf    on5 9100   0.233   5.713   1.365 -0.3108 -0.4288 -0.0330
 1417ntf    on5 9101   0.297   5.807   1.833 -0.0799 -0.0691 -0.7645
 1417ntf    on5 9102   0.177   5.592   1.802  0.5093 -0.2365 -0.4398
 1417ntf    fn4 9103   0.024   5.928   1.765 -0.3770  0.5079 -0.5962
 1417ntf    fn4 9104  -0.050   5.731   1.729  0.3225 -0.3911  0.1256
 1417ntf    fn4 9105   0.001   5.795   1.927  0.2042  0.0593  0.0874
 1418ntf    cn1 9106   5.205   1.781   6.454  0.1200  0.3210 -0.1581
 1418ntf    sn2 9107   5.250   1.941   6.381  0.1283  0.4314  0.0893
 1418ntf    nn3 9108   5.327   1.897   6.252  0.0445 -0.2319  0.2655
 1418ntf    sn2 9109   5.262   1.862   6.114  0.0876  0.2258  0.1274
 1418ntf    cn1 9110   5.349   1.974   6.001  0.0117  0.0440 -0.1148
 1418ntf    fn4 9111   5.312   1.705   6.472  0.0296  0.3283  0.4468
 1418ntf    fn4 9112   5.155   1.802   6.575 -0.1165  0.1348 -0.2223
 1418ntf    fn4 9113   5.118   1.717   6.378  0.0983  0.4801 -0.2667
 1418ntf    on5 9114   5.125   2.010   6.359  0.0160  0.0485 -0.4616
 1418ntf    on5 9115   5.336   1.999   6.482  0.3085  0.6612 -0.1941
 1418ntf    on5 9116   5.122   1.884   6.088 -0.0360  0.0347  0.6218
 1418ntf    on5 9117   5.307   1.734   6.063 -0.0235 -0.0666  0.7552
 1418ntf    fn4 9118   5.479   1.983   6.025 -0.0892  0.6739  0.2222
 1418ntf    fn4 9119   5.337   1.943   5.873  0.2102 -0.6392  0.0294
 1418ntf    fn4 9120   5.305   2.099   6.010  0.4077  0.1689  0.1414
 1419ntf    cn1 9121   3.328   3.302   5.033 -0.1165 -0.0851 -0.0838
 1419ntf    sn2 9122   3.478   3.222   5.097  0.1133  0.3575 -0.0676
 1419ntf    nn3 9123   3.467   3.264   5.247 -0.3036 -0.2676  0.0792
 1419ntf    sn2 9124   3.522   3.191   5.375  0.0008  0.0320  0.1174
 1419ntf    cn1 9125   3.393   3.065   5.395 -0.0437  0.0425 -0.1004
 1419ntf    fn4 9126   3.213   3.268   5.089 -0.1025 -0.2774 -0.1710
 1419ntf    fn4 9127   3.346   3.433   5.038  0.3356 -0.1650  0.4682
 1419ntf    fn4 9128   3.314   3.271   4.905  0.4440  0.4010 -0.2636
 1419ntf    on5 9129   3.449   3.085   5.061  0.5666  0.1883  0.2093
 1419ntf    on5 9130   3.591   3.282   5.032  0.4495 -0.2750 -0.0810
 1419ntf    on5 9131   3.520   3.276   5.492  0.3488 -0.5602  0.5579
 1419ntf    on5 9132   3.642   3.118   5.341 -0.2843 -0.0893 -0.6408
 1419ntf    fn4 9133   3.409   2.997   5.507  0.0161  0.3921  0.1057
 1419ntf    fn4 9134   3.270   3.114   5.390 -0.0496  0.0025 -0.3793
 1419ntf    fn4 9135   3.401   2.975   5.298 -0.6507 -0.5630  0.3986
 1420ntf    cn1 9136   6.156   1.353   0.609 -0.4071  0.1610 -0.1513
 1420ntf    sn2 9137   6.327   1.303   0.646 -0.3456  0.2570 -0.3054
 1420ntf    nn3 9138   6.379   1.424   0.731 -0.3483  0.0607 -0.0254
 1420ntf    sn2 9139   6.380   1.447   0.887 -0.2064 -0.3270  0.0323
 1420ntf    cn1 9140   6.504   1.580   0.881 -0.1978 -0.3293  0.1645
 1420ntf    fn4 9141   6.154   1.469   0.546  0.5483  0.2959  0.0615
 1420ntf    fn4 9142   6.089   1.262   0.539  0.4161 -0.1911 -0.4896
 1420ntf    fn4 9143   6.096   1.364   0.726 -0.6033 -0.2070 -0.2143
 1420ntf    on5 9144   6.314   1.183   0.725  0.0906 -0.0975 -0.7670
 1420ntf    on5 9145   6.388   1.293   0.516  0.1690  0.1230 -0.0534
 1420ntf    on5 9146   6.438   1.337   0.959  0.0133  0.0122  0.3739
 1420ntf    on5 9147   6.271   1.519   0.948 -0.0431  0.0561 -0.1246
 1420ntf    fn4 9148   6.624   1.525   0.880  0.0116  0.1099  0.6093
 1420ntf    fn4 9149   6.496   1.663   0.778  0.1391 -0.3835  0.0969
 1420ntf    fn4 9150   6.509   1.654   0.991  0.8334  0.2891 -0.2829
 1421ntf    cn1 9151   4.846   2.088   5.195 -0.0556  0.0229 -0.1125
 1421ntf    sn2 9152   5.012   2.013   5.190 -0.1172 -0.1222  0.0174
 1421ntf    nn3 9153   4.989   1.907   5.304 -0.1655 -0.5465 -0.3829
 1421ntf    sn2 9154   5.078   1.786   5.349  0.1764 -0.0210  0.3791
 1421ntf    cn1 9155   5.095   1.821   5.526  0.7215 -0.3371  0.3925
 1421ntf    fn4 9156   4.749   2.008   5.156 -0.2523 -0.0349  0.4864
 1421ntf    fn4 9157   4.817   2.144   5.311  0.0807  0.1433 -0.1367
 1421ntf    fn4 9158   4.848   2.190   5.111  0.0327 -0.1805 -0.3581
 1421ntf    on5 9159   5.006   1.944   5.063 -0.1002  0.0621 -0.0839
 1421ntf    on5 9160   5.106   2.118   5.217 -0.2529 -0.0562  0.2411
 1421ntf    on5 9161   5.213   1.780   5.298 -0.0834  0.1169 -0.3502
 1421ntf    on5 9162   5.008   1.660   5.345  0.6612 -0.2930  0.3186
 1421ntf    fn4 9163   5.192   1.753   5.585  0.9908 -0.1387  0.1841
 1421ntf    fn4 9164   5.125   1.949   5.538 -0.2314 -0.1361  0.7238
 1421ntf    fn4 9165   4.980   1.805   5.589  0.7773  0.0950  0.6087
 1422ntf    cn1 9166   1.568   1.800   2.570 -0.3218  0.0213  0.3702
 1422ntf    sn2 9167   1.492   1.655   2.491  0.2624 -0.1227  0.0706
 1422ntf    nn3 9168   1.594   1.545   2.537  0.3085 -0.1486 -0.0922
 1422ntf    sn2 9169   1.720   1.502   2.454  0.2920 -0.1052 -0.1396
 1422ntf    cn1 9170   1.666   1.350   2.370  0.1096 -0.0688 -0.0893
 1422ntf    fn4 9171   1.495   1.910   2.570 -0.1938  0.1068 -0.0387
 1422ntf    fn4 9172   1.591   1.776   2.698 -0.0943 -0.1304  0.3016
 1422ntf    fn4 9173   1.681   1.832   2.509 -0.1642 -0.4822  0.3910
 1422ntf    on5 9174   1.371   1.629   2.564  0.0978  0.5376  0.0380
 1422ntf    on5 9175   1.488   1.695   2.352  0.0639  0.0111  0.1144
 1422ntf    on5 9176   1.823   1.445   2.537  0.3502 -0.5443 -0.5077
 1422ntf    on5 9177   1.775   1.584   2.349  0.2996 -0.2090 -0.2178
 1422ntf    fn4 9178   1.628   1.257   2.456  0.3289  0.0534  0.1425
 1422ntf    fn4 9179   1.572   1.371   2.279 -0.0871  0.0306  0.1359
 1422ntf    fn4 9180   1.763   1.287   2.305  0.4142 -0.0135  0.3065
 1423ntf    cn1 9181   6.614   3.376   3.307 -0.4837  0.1167  0.2699
 1423ntf    sn2 9182   6.601   3.198   3.342 -0.0039 -0.0472 -0.3719
 1423ntf    nn3 9183   6.455   3.178   3.287 -0.1966  0.3905 -0.0319
 1423ntf    sn2 9184   6.369   3.048   3.297  0.0585  0.2287  0.0795
 1423ntf    cn1 9185   6.258   3.101   3.431  0.2548 -0.1731  0.4042
 1423ntf    fn4 9186   6.514   3.444   3.360 -0.5595  0.0917  0.1575
 1423ntf    fn4 9187   6.724   3.430   3.359 -0.3902  0.5632 -0.3853
 1423ntf    fn4 9188   6.618   3.410   3.179 -0.3051 -0.3309  0.1558
 1423ntf    on5 9189   6.702   3.140   3.258  0.4553  0.5276 -0.2245
 1423ntf    on5 9190   6.624   3.193   3.484  0.4161 -0.0391 -0.4369
 1423ntf    on5 9191   6.437   2.927   3.336 -0.0758  0.0687 -0.1791
 1423ntf    on5 9192   6.291   3.037   3.176  0.7526 -0.0135 -0.3525
 1423ntf    fn4 9193   6.172   3.196   3.400 -0.0225 -0.3121  0.7376
 1423ntf    fn4 9194   6.181   3.000   3.467  0.3217 -0.1220  0.6896
 1423ntf    fn4 9195   6.321   3.149   3.537 -0.0631 -0.0282  0.5281
 1424ntf    cn1 9196   5.658   1.113   2.674 -0.1566  0.2997  0.0310
 1424ntf    sn2 9197   5.497   1.131   2.756 -0.2269 -0.2623  0.0233
 1424ntf    nn3 9198   5.483   1.288   2.761 -0.4394 -0.2841  0.1038
 1424ntf    sn2 9199   5.406   1.385   2.665  0.3006  0.3856  0.1886
 1424ntf    cn1 9200   5.242   1.395   2.742  0.0931 -0.5916 -0.1213
 1424ntf    fn4 9201   5.755   1.179   2.734  0.4050 -0.3344 -0.1687
 1424ntf    fn4 9202   5.692   0.985   2.685 -0.0866  0.3453  0.3588
 1424ntf    fn4 9203   5.657   1.152   2.548  0.5051  0.1715 -0.0172
 1424ntf    on5 9204   5.400   1.060   2.676 -0.7027  0.0293  0.3284
 1424ntf    on5 9205   5.528   1.083   2.888  0.2732  0.5245  0.2002
 1424ntf    on5 9206   5.395   1.338   2.529 -0.1231 -0.6350  0.5661
 1424ntf    on5 9207   5.459   1.519   2.679  0.0769  0.4378  0.5658
 1424ntf    fn4 9208   5.250   1.423   2.871  0.1562 -0.5700 -0.1298
 1424ntf    fn4 9209   5.163   1.487   2.689  0.2867 -0.1880  0.2907
 1424ntf    fn4 9210   5.171   1.284   2.729 -0.7547  0.0076 -0.7806
 1425ntf    cn1 9211   2.750   5.298   4.356  0.0977 -0.0805 -0.2730
 1425ntf    sn2 9212   2.701   5.376   4.199  0.1365  0.1772 -0.1581
 1425ntf    nn3 9213   2.824   5.469   4.172 -0.2188  0.6338 -0.2090
 1425ntf    sn2 9214   2.945   5.462   4.072 -0.1711  0.1235 -0.1191
 1425ntf    cn1 9215   2.930   5.608   3.965 -0.1876 -0.0094 -0.2978
 1425ntf    fn4 9216   2.667   5.200   4.389  0.2468  0.0262  0.4358
 1425ntf    fn4 9217   2.867   5.238   4.341  0.1726  0.0299 -0.1374
 1425ntf    fn4 9218   2.754   5.382   4.458 -0.0400 -0.0816 -0.2669
 1425ntf    on5 9219   2.687   5.263   4.110  0.1440 -0.1159  0.2098
 1425ntf    on5 9220   2.577   5.448   4.212  0.2666  0.3740  0.0023
 1425ntf    on5 9221   2.942   5.345   3.988 -0.3572 -0.1558  0.2717
 1425ntf    on5 9222   3.068   5.491   4.142 -0.3157  0.5993 -0.0558
 1425ntf    fn4 9223   3.040   5.623   3.892  0.1583 -0.0006  0.2137
 1425ntf    fn4 9224   2.836   5.595   3.873 -0.2704 -0.1777 -0.1888
 1425ntf    fn4 9225   2.906   5.717   4.036  0.3127  0.0372 -0.1902
 1426ntf    cn1 9226   1.583   6.248   3.423 -0.0718  0.2581 -0.2248
 1426ntf    sn2 9227   1.701   6.150   3.326 -0.2748 -0.0562 -0.1562
 1426ntf    nn3 9228   1.705   6.020   3.414 -0.0329 -0.0362 -0.1377
 1426ntf    sn2 9229   1.626   5.886   3.399  0.4767 -0.3223 -0.3005
 1426ntf    cn1 9230   1.559   5.885   3.568  0.0119 -0.0117 -0.4807
 1426ntf    fn4 9231   1.462   6.195   3.420  0.1687 -0.3156  0.1127
 1426ntf    fn4 9232   1.612   6.270   3.550  0.5388  0.1542 -0.3428
 1426ntf    fn4 9233   1.567   6.368   3.369 -0.0651  0.4145  0.1232
 1426ntf    on5 9234   1.653   6.144   3.190 -0.7341  0.3303 -0.0113
 1426ntf    on5 9235   1.824   6.222   3.351 -0.5605  0.2930  0.2430
 1426ntf    on5 9236   1.710   5.769   3.405  0.0306 -0.5975  0.8377
 1426ntf    on5 9237   1.516   5.881   3.306 -0.0062  0.3678  0.2253
 1426ntf    fn4 9238   1.494   5.997   3.593  0.3426  0.1556 -0.3643
 1426ntf    fn4 9239   1.463   5.796   3.586  0.3072 -0.2752 -0.1971
 1426ntf    fn4 9240   1.647   5.868   3.665  0.4479  0.4346 -0.7924
 1427ntf    cn1 9241   1.463   3.723   6.486  0.1741 -0.3069 -0.5799
 1427ntf    sn2 9242   1.599   3.709   6.606 -0.1284  0.0248 -0.1987
 1427ntf    nn3 9243   1.685   3.818   6.533 -0.0398  0.1884  0.1465
 1427ntf    sn2 9244   1.842   3.835   6.535 -0.0437  0.2433 -0.0273
 1427ntf    cn1 9245   1.857   3.964   6.662 -0.3472  0.6141 -0.3631
 1427ntf    fn4 9246   1.417   3.846   6.477  0.2010 -0.2691 -0.2254
 1427ntf    fn4 9247   1.500   3.689   6.363  0.2248 -0.1953 -0.5952
 1427ntf    fn4 9248   1.368   3.636   6.516 -0.0337  0.0642 -0.1485
 1427ntf    on5 9249   1.527   3.750   6.724 -0.1845  0.2114 -0.2966
 1427ntf    on5 9250   1.646   3.573   6.600 -0.0007  0.0723 -0.2815
 1427ntf    on5 9251   1.895   3.903   6.420  0.1809  0.6969  0.3456
 1427ntf    on5 9252   1.911   3.721   6.589  0.4341  0.5751  0.0623
 1427ntf    fn4 9253   1.819   4.084   6.622 -0.5372  0.4356 -0.7211
 1427ntf    fn4 9254   1.775   3.950   6.765  0.4949  0.3080  0.2826
 1427ntf    fn4 9255   1.979   3.976   6.713 -0.1469 -0.2758 -0.6021
 1428ntf    cn1 9256   4.921   3.482   6.101 -0.1424  0.0240 -0.0717
 1428ntf    sn2 9257   5.064   3.398   6.026 -0.1786 -0.0316 -0.0766
 1428ntf    nn3 9258   5.004   3.253   6.017 -0.1665 -0.0509  0.1393
 1428ntf    sn2 9259   4.988   3.141   6.126 -0.2388  0.0145  0.1963
 1428ntf    cn1 9260   5.134   3.038   6.089  0.0338  0.5656 -0.2811
 1428ntf    fn4 9261   4.893   3.438   6.222  1.0139  0.3546  0.3324
 1428ntf    fn4 9262   4.950   3.610   6.119 -0.1306  0.0060  0.0368
 1428ntf    fn4 9263   4.806   3.474   6.036 -0.5810 -0.0217  0.7091
 1428ntf    on5 9264   5.073   3.461   5.897 -0.0146 -0.6292 -0.3633
 1428ntf    on5 9265   5.176   3.410   6.115 -0.3542 -0.1623  0.1659
 1428ntf    on5 9266   4.866   3.067   6.105 -0.3179  0.1479  0.1853
 1428ntf    on5 9267   5.003   3.185   6.262 -0.5715  0.4152  0.1059
 1428ntf    fn4 9268   5.242   3.106   6.123  0.3433 -0.0660 -0.0005
 1428ntf    fn4 9269   5.142   2.932   6.167  0.4457  0.7417 -0.0831
 1428ntf    fn4 9270   5.155   3.004   5.963 -0.1382 -0.8929  0.0694
 1429ntf    cn1 9271   1.498   5.451   5.358 -0.2880 -0.2587  0.3281
 1429ntf    sn2 9272   1.637   5.341   5.320  0.2044  0.3612  0.3084
 1429ntf    nn3 9273   1.607   5.232   5.430 -0.0586  0.2976  0.1755
 1429ntf    sn2 9274   1.666   5.210   5.574 -0.0718 -0.1858  0.1078
 1429ntf    cn1 9275   1.789   5.083   5.532  0.1723  0.0910 -0.0203
 1429ntf    fn4 9276   1.390   5.375   5.362 -0.1696 -0.4341  0.1855
 1429ntf    fn4 9277   1.516   5.508   5.477  0.4581  0.4416 -0.1139
 1429ntf    fn4 9278   1.481   5.543   5.265  0.4692 -0.2354  0.2110
 1429ntf    on5 9279   1.608   5.300   5.185 -0.1652 -0.1331  0.5355
 1429ntf    on5 9280   1.755   5.422   5.338  0.5040 -0.0316  0.1224
 1429ntf    on5 9281   1.566   5.146   5.655  0.1129 -0.1997  0.3248
 1429ntf    on5 9282   1.738   5.321   5.631 -0.2258  0.0266 -0.1076
 1429ntf    fn4 9283   1.732   4.966   5.504  0.2158  0.0985 -0.1399
 1429ntf    fn4 9284   1.856   5.112   5.422  0.0806  0.4878  0.0293
 1429ntf    fn4 9285   1.875   5.063   5.631  0.4490 -0.2117 -0.3180
 1430ntf    cn1 9286   1.478   3.571   0.750 -0.0884 -0.0361 -0.8760
 1430ntf    sn2 9287   1.522   3.398   0.712  0.4720 -0.0501 -0.1803
 1430ntf    nn3 9288   1.395   3.340   0.784  0.5294  0.3810  0.2769
 1430ntf    sn2 9289   1.315   3.206   0.766  0.5765  0.3753  0.1123
 1430ntf    cn1 9290   1.152   3.266   0.713  0.4393 -0.0482  0.0465
 1430ntf    fn4 9291   1.576   3.646   0.704 -0.1172  0.2457 -0.4766
 1430ntf    fn4 9292   1.367   3.612   0.691 -0.3045  0.8598  0.1235
 1430ntf    fn4 9293   1.467   3.589   0.881  0.3237 -0.1212 -0.8299
 1430ntf    on5 9294   1.523   3.387   0.569  0.3109  0.1885 -0.2021
 1430ntf    on5 9295   1.645   3.379   0.784  0.3980  0.3809  0.0629
 1430ntf    on5 9296   1.290   3.144   0.894  0.5018 -0.0513 -0.1074
 1430ntf    on5 9297   1.361   3.118   0.661 -0.5609 -0.4619  0.3030
 1430ntf    fn4 9298   1.066   3.176   0.670  0.6357 -0.3137  0.2092
 1430ntf    fn4 9299   1.093   3.327   0.815  0.3605 -0.2633  0.1296
 1430ntf    fn4 9300   1.169   3.354   0.615 -0.0120  0.3102  0.2854
 1431ntf    cn1 9301   3.316   0.930   0.772  0.0944 -0.3221 -0.0492
 1431ntf    sn2 9302   3.198   0.897   0.906  0.3134  0.1380  0.2608
 1431ntf    nn3 9303   3.227   1.025   0.992 -1.0738  0.8600 -0.3172
 1431ntf    sn2 9304   3.180   1.046   1.140 -0.4615 -0.3054  0.0540
 1431ntf    cn1 9305   3.340   1.017   1.221 -0.3911 -0.3415 -0.0971
 1431ntf    fn4 9306   3.442   0.944   0.811  0.0750  0.3296 -0.1991
 1431ntf    fn4 9307   3.312   0.827   0.689  0.8392 -0.2787 -0.1518
 1431ntf    fn4 9308   3.282   1.027   0.689 -0.1581  0.2654  0.7312
 1431ntf    on5 9309   3.068   0.896   0.843  0.2916 -0.5905  0.3102
 1431ntf    on5 9310   3.254   0.777   0.962  0.1404 -0.2234 -0.3347
 1431ntf    on5 9311   3.097   0.945   1.200 -0.0983 -0.3607  0.4668
 1431ntf    on5 9312   3.151   1.184   1.169  0.4343 -0.0558 -0.2042
 1431ntf    fn4 9313   3.362   1.079   1.336 -0.6824 -0.1141 -0.1602
 1431ntf    fn4 9314   3.358   0.887   1.237  0.5748 -0.2364 -0.2916
 1431ntf    fn4 9315   3.443   1.046   1.143 -0.0696 -0.0836  0.4163
 1432ntf    cn1 9316   2.271   1.655   2.965 -0.0307 -0.1224 -0.1088
 1432ntf    sn2 9317   2.341   1.573   2.818 -0.1376 -0.0558 -0.1976
 1432ntf    nn3 9318   2.449   1.475   2.876  0.0103 -0.2301 -0.7703
 1432ntf    sn2 9319   2.435   1.329   2.932 -0.3763  0.1752  0.2049
 1432ntf    cn1 9320   2.479   1.231   2.785  0.1297  0.3414  0.2460
 1432ntf    fn4 9321   2.215   1.563   3.042 -0.3862  0.2962  0.1383
 1432ntf    fn4 9322   2.366   1.711   3.038 -0.3072 -0.3605  0.4375
 1432ntf    fn4 9323   2.182   1.749   2.934 -0.3699 -0.4803 -0.2310
 1432ntf    on5 9324   2.228   1.503   2.762 -0.0996 -0.1324 -0.1787
 1432ntf    on5 9325   2.403   1.683   2.749  0.0165  0.6808  1.0823
 1432ntf    on5 9326   2.298   1.292   2.957 -0.5188  0.5532 -0.0187
 1432ntf    on5 9327   2.526   1.278   3.032  0.0298  0.5456  0.0255
 1432ntf    fn4 9328   2.604   1.255   2.748  0.0819 -0.0545 -0.1737
 1432ntf    fn4 9329   2.464   1.101   2.802 -0.1401  0.3102 -0.2172
 1432ntf    fn4 9330   2.404   1.268   2.682  0.5758  0.9896  0.1437
 1433ntf    cn1 9331   4.856   0.875   1.887 -0.0541 -0.0108  0.1605
 1433ntf    sn2 9332   4.747   0.754   1.806 -0.1166  0.1753 -0.0359
 1433ntf    nn3 9333   4.618   0.844   1.805 -0.2068  0.0457 -0.1412
 1433ntf    sn2 9334   4.513   0.867   1.691 -0.1100  0.1345 -0.2131
 1433ntf    cn1 9335   4.568   1.035   1.649  0.1418  0.0557 -0.2018
 1433ntf    fn4 9336   4.855   0.994   1.828  0.6789  0.1782  0.5281
 1433ntf    fn4 9337   4.814   0.895   2.011  0.0091 -0.1817  0.2092
 1433ntf    fn4 9338   4.983   0.840   1.896 -0.0587 -0.2220 -0.5151
 1433ntf    on5 9339   4.805   0.726   1.677 -0.2513  0.2617 -0.1156
 1433ntf    on5 9340   4.745   0.646   1.902 -0.0338 -0.3762 -0.6446
 1433ntf    on5 9341   4.378   0.890   1.737 -0.2250 -0.1893 -0.3850
 1433ntf    on5 9342   4.519   0.790   1.569  0.0736 -0.1449 -0.0287
 1433ntf    fn4 9343   4.535   1.118   1.747 -0.1652 -0.1287 -0.1453
 1433ntf    fn4 9344   4.700   1.041   1.639  0.1642 -0.4131 -0.1915
 1433ntf    fn4 9345   4.517   1.080   1.536  0.5006  0.3249 -0.2558
 1434ntf    cn1 9346   0.910   1.750   6.705 -0.4249 -0.2473  0.2314
 1434ntf    sn2 9347   0.889   1.609   6.592  0.0020 -0.1093 -0.0220
 1434ntf    nn3 9348   0.862   1.502   6.703 -0.4901  0.3635  0.3223
 1434ntf    sn2 9349   0.959   1.387   6.751 -0.3331  0.2301 -0.3044
 1434ntf    cn1 9350   0.898   1.250   6.649 -0.2030  0.1252 -0.2410
 1434ntf    fn4 9351   0.798   1.786   6.765 -0.2702 -0.0200  0.3856
 1434ntf    fn4 9352   1.000   1.723   6.799 -0.0492 -0.0651 -0.0752
 1434ntf    fn4 9353   0.962   1.851   6.638 -0.1143 -0.4298  0.1898
 1434ntf    on5 9354   0.770   1.651   6.521  0.0466  0.4921  0.2485
 1434ntf    on5 9355   1.008   1.598   6.512 -0.1553  0.6647 -0.3777
 1434ntf    on5 9356   0.912   1.336   6.878 -0.1661 -0.0698 -0.3640
 1434ntf    on5 9357   1.100   1.400   6.724 -0.2825 -0.7230 -0.5110
 1434ntf    fn4 9358   0.766   1.238   6.648 -0.1984  0.0501 -0.0370
 1434ntf    fn4 9359   0.937   1.262   6.523 -0.0426 -0.2456 -0.2264
 1434ntf    fn4 9360   0.944   1.131   6.683 -0.4632  0.1859  0.3336
 1435ntf    cn1 9361   0.244   4.549   6.183 -0.0525  0.3311  0.1706
 1435ntf    sn2 9362   0.064   4.525   6.182  0.0412 -0.3985  0.1607
 1435ntf    nn3 9363   0.048   4.370   6.206  0.5427 -0.5230 -0.3115
 1435ntf    sn2 9364   0.022   4.283   6.333  0.2853 -0.1581 -0.1139
 1435ntf    cn1 9365   0.155   4.161   6.314  0.3461 -0.0711 -0.2417
 1435ntf    fn4 9366   0.299   4.459   6.103 -0.0147 -0.1294  0.7100
 1435ntf    fn4 9367   0.281   4.667   6.138  0.2298  0.2511  0.1903
 1435ntf    fn4 9368   0.292   4.528   6.304 -0.1830 -0.1807  0.1378
 1435ntf    on5 9369   0.028   4.611   6.292  0.4545  0.4968 -0.3979
 1435ntf    on5 9370   0.019   4.567   6.052  0.3115 -0.3506  0.0834
 1435ntf    on5 9371  -0.102   4.210   6.327  0.0697  0.1190  0.7947
 1435ntf    on5 9372   0.052   4.350   6.457 -0.5583 -0.3422  0.1979
 1435ntf    fn4 9373   0.155   4.094   6.200  0.1128  0.0244 -0.2979
 1435ntf    fn4 9374   0.273   4.221   6.322  0.3200 -0.0881  0.2572
 1435ntf    fn4 9375   0.152   4.071   6.410  0.5250 -0.0021 -0.1702
 1436ntf    cn1 9376   6.710   6.334   1.536  0.0832  0.1858 -0.0324
 1436ntf    sn2 9377   6.637   6.500   1.526 -0.1343  0.0894 -0.0605
 1436ntf    nn3 9378   6.494   6.465   1.471 -0.0687  0.0992 -0.2382
 1436ntf    sn2 9379   6.444   6.473   1.322 -0.0298  0.1540 -0.2484
 1436ntf    cn1 9380   6.364   6.635   1.337  0.0398  0.1360  0.3641
 1436ntf    fn4 9381   6.639   6.254   1.615 -0.1099  0.0561 -0.3368
 1436ntf    fn4 9382   6.717   6.265   1.423  0.5730 -0.3193  0.3044
 1436ntf    fn4 9383   6.834   6.334   1.583  0.0823  0.4349 -0.0333
 1436ntf    on5 9384   6.637   6.546   1.662 -0.0258 -0.1053  0.0065
 1436ntf    on5 9385   6.720   6.577   1.437 -0.0926 -0.0407 -0.1350
 1436ntf    on5 9386   6.335   6.385   1.289 -0.2717  0.2920  0.1853
 1436ntf    on5 9387   6.547   6.491   1.222 -0.1485  0.8523 -0.2464
 1436ntf    fn4 9388   6.265   6.644   1.424 -0.0481 -0.0813  0.2876
 1436ntf    fn4 9389   6.454   6.726   1.372  0.2689  0.1311 -0.1921
 1436ntf    fn4 9390   6.310   6.681   1.225  0.0766 -0.2791  0.1739
 1437ntf    cn1 9391   1.550   1.211   6.207  0.2025  0.2474  0.4639
 1437ntf    sn2 9392   1.377   1.236   6.255  0.1231 -0.1922  0.4159
 1437ntf    nn3 9393   1.367   1.098   6.329  0.6944 -0.4017  0.1110
 1437ntf    sn2 9394   1.372   1.050   6.478  0.0039  0.2357  0.3484
 1437ntf    cn1 9395   1.199   1.064   6.534 -0.2141 -0.1185 -0.2322
 1437ntf    fn4 9396   1.566   1.082   6.179 -0.8016  0.2466 -0.1503
 1437ntf    fn4 9397   1.585   1.282   6.101 -0.4760  0.2483  0.2369
 1437ntf    fn4 9398   1.635   1.224   6.308  0.2172  0.6664  0.3960
 1437ntf    on5 9399   1.374   1.354   6.339 -0.2044 -0.3172  0.5811
 1437ntf    on5 9400   1.307   1.246   6.129  0.4056  0.8307  0.3291
 1437ntf    on5 9401   1.450   1.124   6.574 -0.3933  0.4595  0.5036
 1437ntf    on5 9402   1.394   0.908   6.491 -0.4287  0.1131 -0.1953
 1437ntf    fn4 9403   1.153   1.186   6.515 -0.1608 -0.0456  0.1027
 1437ntf    fn4 9404   1.124   0.977   6.468 -0.3825  0.2330 -0.5060
 1437ntf    fn4 9405   1.186   1.038   6.663  0.0535  0.2757 -0.1247
 1438ntf    cn1 9406   5.543   3.246   0.777  0.0794  0.0053  0.0898
 1438ntf    sn2 9407   5.520   3.231   0.956 -0.0106  0.0743  0.0841
 1438ntf    nn3 9408   5.406   3.124   0.961  0.3824 -0.3592 -0.2327
 1438ntf    sn2 9409   5.402   2.967   0.965 -0.2033 -0.3455 -0.0860
 1438ntf    cn1 9410   5.372   2.948   1.143 -0.1493 -0.2405 -0.0655
 1438ntf    fn4 9411   5.621   3.347   0.743  0.3124 -0.3633 -0.4965
 1438ntf    fn4 9412   5.599   3.139   0.723  0.1479  0.1122 -0.0532
 1438ntf    fn4 9413   5.427   3.261   0.714  0.1143  0.2975  0.0934
 1438ntf    on5 9414   5.654   3.191   0.992  0.0780  0.3231  0.0340
 1438ntf    on5 9415   5.477   3.362   1.000  0.5597  0.3311 -0.1138
 1438ntf    on5 9416   5.533   2.908   0.946  0.1965  0.4668  0.1182
 1438ntf    on5 9417   5.291   2.912   0.891 -0.3237 -0.0485 -0.1275
 1438ntf    fn4 9418   5.478   2.993   1.207 -0.5602  0.1880  0.3193
 1438ntf    fn4 9419   5.261   2.995   1.198 -0.0822 -0.0653 -0.0804
 1438ntf    fn4 9420   5.378   2.819   1.172 -0.1323 -0.1736  0.2363
 1439ntf    cn1 9421   6.517   2.499   0.503  0.4694  0.2391  0.1033
 1439ntf    sn2 9422   6.628   2.486   0.360  0.3822  0.2640  0.0334
 1439ntf    nn3 9423   6.603   2.333   0.337  0.3727  0.3018 -0.2192
 1439ntf    sn2 9424   6.536   2.263   0.214  0.2078 -0.1028  0.0980
 1439ntf    cn1 9425   6.632   2.108   0.207 -0.0923 -0.2783 -0.1666
 1439ntf    fn4 9426   6.519   2.623   0.549 -0.0410  0.1378  0.4131
 1439ntf    fn4 9427   6.391   2.467   0.475  0.4666  0.4855 -0.1760
 1439ntf    fn4 9428   6.553   2.417   0.600 -0.2788 -0.1084  0.1017
 1439ntf    on5 9429   6.563   2.575   0.267  0.0784  0.0796  0.0702
 1439ntf    on5 9430   6.754   2.525   0.418 -0.0703  0.1604  1.1021
 1439ntf    on5 9431   6.560   2.313   0.081 -0.0569 -0.5766 -0.1328
 1439ntf    on5 9432   6.408   2.201   0.237 -0.1683  0.7823  0.3985
 1439ntf    fn4 9433   6.670   2.068   0.327  0.7491 -0.1045 -0.3718
 1439ntf    fn4 9434   6.575   2.004   0.149 -0.2445 -0.2360 -0.0922
 1439ntf    fn4 9435   6.742   2.127   0.136 -0.0880  0.0394 -0.0764
 1440ntf    cn1 9436   3.147   6.623   1.810 -0.3350 -0.1827 -0.3018
 1440ntf    sn2 9437   3.229   6.462   1.830  0.1748  0.0854 -0.2218
 1440ntf    nn3 9438   3.144   6.386   1.722  0.3920 -0.1359 -0.2387
 1440ntf    sn2 9439   3.057   6.256   1.725 -0.1241  0.2075 -0.0738
 1440ntf    cn1 9440   3.192   6.142   1.679 -0.1903  0.1172 -0.0446
 1440ntf    fn4 9441   3.133   6.658   1.684  0.3440 -0.0949 -0.3584
 1440ntf    fn4 9442   3.024   6.619   1.859 -0.1356 -0.1783  0.2010
 1440ntf    fn4 9443   3.199   6.723   1.880 -0.4468 -0.1797 -0.2227
 1440ntf    on5 9444   3.367   6.485   1.795  0.2989 -0.2786  0.0226
 1440ntf    on5 9445   3.197   6.437   1.969 -0.2190  1.1756 -0.1070
 1440ntf    on5 9446   2.962   6.246   1.617  0.3483  0.4332 -0.5163
 1440ntf    on5 9447   3.020   6.202   1.853  0.3511  0.1942  0.0589
 1440ntf    fn4 9448   3.233   6.175   1.558  0.1099 -0.4575 -0.1050
 1440ntf    fn4 9449   3.301   6.149   1.754 -0.4125  0.1961  0.2747
 1440ntf    fn4 9450   3.147   6.018   1.668 -0.7815  0.3433 -0.2154
 1441ntf    cn1 9451   5.063   5.661   5.249  0.0273  0.0951 -0.0037
 1441ntf    sn2 9452   4.968   5.514   5.294  0.1254  0.0154 -0.0568
 1441ntf    nn3 9453   4.994   5.507   5.448 -0.1844 -0.1193 -0.0098
 1441ntf    sn2 9454   4.939   5.599   5.563  0.3872  0.1248  0.0721
 1441ntf    cn1 9455   4.803   5.490   5.618  0.1988  0.2533 -0.1362
 1441ntf    fn4 9456   5.055   5.691   5.120 -0.0303  0.0348 -0.0141
 1441ntf    fn4 9457   5.024   5.774   5.306  0.0874  0.2211 -0.2121
 1441ntf    fn4 9458   5.194   5.647   5.268  0.0302  0.4070  0.2199
 1441ntf    on5 9459   4.830   5.542   5.261 -0.1463 -0.2363  0.8340
 1441ntf    on5 9460   5.027   5.406   5.218 -0.8293 -0.1332 -0.6141
 1441ntf    on5 9461   4.878   5.726   5.531  0.1055 -0.0476 -0.0796
 1441ntf    on5 9462   5.030   5.604   5.675  0.8077  0.7285 -0.2913
 1441ntf    fn4 9463   4.744   5.548   5.721  0.0768  0.0747 -0.1058
 1441ntf    fn4 9464   4.714   5.468   5.523 -0.1744  0.3294  0.1945
 1441ntf    fn4 9465   4.856   5.372   5.644  0.2678  0.1557 -0.7084
 1442ntf    cn1 9466   0.690   6.192   4.723  0.1946 -0.1295 -0.0585
 1442ntf    sn2 9467   0.756   6.239   4.886  0.1301  0.1847 -0.1212
 1442ntf    nn3 9468   0.778   6.393   4.868  0.2795  0.1323 -0.3975
 1442ntf    sn2 9469   0.770   6.513   4.969 -0.0849 -0.0999 -0.1523
 1442ntf    cn1 9470   0.945   6.557   4.986 -0.1868  0.2295  0.0596
 1442ntf    fn4 9471   0.670   6.062   4.708 -0.1881 -0.0889  0.0681
 1442ntf    fn4 9472   0.576   6.251   4.691  0.2164 -0.1479 -0.1699
 1442ntf    fn4 9473   0.776   6.231   4.631  0.3059 -0.3079 -0.0308
 1442ntf    on5 9474   0.659   6.197   4.984  0.0659 -0.3860 -0.4235
 1442ntf    on5 9475   0.884   6.171   4.888  0.5268  0.9408  0.4795
 1442ntf    on5 9476   0.724   6.480   5.102 -0.0691 -0.0707 -0.1400
 1442ntf    on5 9477   0.706   6.623   4.902 -0.1495 -0.1069 -0.1028
 1442ntf    fn4 9478   1.014   6.477   5.065 -0.2806  0.6106  0.5276
 1442ntf    fn4 9479   1.025   6.558   4.880  0.2464 -0.0224  0.3805
 1442ntf    fn4 9480   0.956   6.680   5.033  0.0891  0.2971 -0.1730
 1443ntf    cn1 9481   5.274   1.952   3.648 -0.0545  0.0619 -0.0784
 1443ntf    sn2 9482   5.105   1.986   3.704  0.1006  0.3146  0.2408
 1443ntf    nn3 9483   5.024   1.919   3.588 -0.3772  0.3040  0.5774
 1443ntf    sn2 9484   4.953   1.981   3.462  0.0864 -0.0494  0.1368
 1443ntf    cn1 9485   5.069   1.903   3.345 -0.1475 -0.1209 -0.0476
 1443ntf    fn4 9486   5.369   2.006   3.722 -0.1071  0.3120 -0.1926
 1443ntf    fn4 9487   5.291   1.821   3.654 -0.1532  0.0295 -0.4912
 1443ntf    fn4 9488   5.297   1.999   3.527 -0.0941 -0.1538 -0.1715
 1443ntf    on5 9489   5.088   1.923   3.832 -0.0582 -0.0861  0.0230
 1443ntf    on5 9490   5.087   2.130   3.704  0.0176  0.3045  0.1669
 1443ntf    on5 9491   4.968   2.121   3.431 -0.0002 -0.0668  0.0172
 1443ntf    on5 9492   4.825   1.918   3.446 -0.0330  0.3610 -0.5915
 1443ntf    fn4 9493   5.061   1.948   3.221  0.3824  0.3068  0.0704
 1443ntf    fn4 9494   5.195   1.908   3.384 -0.2384 -0.3657  0.2821
 1443ntf    fn4 9495   5.044   1.773   3.342 -0.3754 -0.0856  0.2495
 1444ntf    cn1 9496   5.387   3.914   3.563  0.0658  0.0130  0.1354
 1444ntf    sn2 9497   5.252   4.035   3.555  0.2677  0.2393  0.1512
 1444ntf    nn3 9498   5.216   4.011   3.404  0.3643  0.1402  0.1444
 1444ntf    sn2 9499   5.098   3.931   3.338  0.2106  0.3131  0.2094
 1444ntf    cn1 9500   4.972   4.061   3.330 -0.3033 -0.2118 -0.3919
 1444ntf    fn4 9501   5.341   3.790   3.567 -0.3395  0.1467 -0.2561
 1444ntf    fn4 9502   5.474   3.922   3.463 -0.0184  0.4622  0.0964
 1444ntf    fn4 9503   5.451   3.930   3.678  0.6114 -0.7173 -0.0525
 1444ntf    on5 9504   5.156   3.989   3.652 -0.0201 -0.3685 -0.4084
 1444ntf    on5 9505   5.313   4.165   3.569 -0.0473  0.4614 -0.5013
 1444ntf    on5 9506   5.039   3.831   3.423  0.3522 -0.0387 -0.0992
 1444ntf    on5 9507   5.130   3.896   3.201 -0.0903  0.2724  0.1495
 1444ntf    fn4 9508   4.858   4.034   3.268 -0.2924 -0.2721 -0.3844
 1444ntf    fn4 9509   4.932   4.097   3.451 -0.2618 -0.7304 -0.2243
 1444ntf    fn4 9510   5.021   4.171   3.273  0.1724 -0.1231  0.1812
 1445ntf    cn1 9511   6.671   3.035   2.240 -0.0035  0.2154 -0.4586
 1445ntf    sn2 9512   6.725   3.059   2.412 -0.0921  0.1858 -0.4268
 1445ntf    nn3 9513   6.689   3.210   2.436 -0.1960  0.0998 -0.0296
 1445ntf    sn2 9514   6.549   3.265   2.481 -0.1491  0.2267 -0.0370
 1445ntf    cn1 9515   6.543   3.262   2.662  0.0282  0.1856 -0.0319
 1445ntf    fn4 9516   6.565   3.105   2.202 -0.1342  0.6113  0.5880
 1445ntf    fn4 9517   6.761   3.076   2.152  0.0189 -0.3320 -0.6927
 1445ntf    fn4 9518   6.638   2.910   2.216 -0.1003  0.0821  0.3420
 1445ntf    on5 9519   6.650   2.965   2.491 -0.2941  0.4296 -0.3241
 1445ntf    on5 9520   6.867   3.038   2.402 -0.1303 -0.3466  0.1017
 1445ntf    on5 9521   6.443   3.173   2.448 -0.2381  0.5057 -0.5476
 1445ntf    on5 9522   6.527   3.404   2.449 -0.8005  0.3243  0.7968
 1445ntf    fn4 9523   6.636   3.342   2.713  0.4909 -0.1303 -0.3669
 1445ntf    fn4 9524   6.430   3.311   2.709 -0.1552  0.2238 -0.5136
 1445ntf    fn4 9525   6.569   3.139   2.705 -0.7396 -0.0595 -0.2497
 1446ntf    cn1 9526   3.479   1.831   1.174  0.2912  0.1614 -0.3822
 1446ntf    sn2 9527   3.357   1.787   1.047 -0.1893  0.0067  0.1293
 1446ntf    nn3 9528   3.254   1.902   1.071  0.3377  0.4400  0.3200
 1446ntf    sn2 9529   3.121   1.896   1.154  0.2406  0.1636  0.1476
 1446ntf    cn1 9530   2.999   1.897   1.020  0.0116 -0.5364  0.3454
 1446ntf    fn4 9531   3.415   1.850   1.288  0.3207 -0.1936 -0.3061
 1446ntf    fn4 9532   3.572   1.740   1.200  0.0807  0.1065  0.1816
 1446ntf    fn4 9533   3.534   1.948   1.145  0.0872  0.3432 -0.0436
 1446ntf    on5 9534   3.434   1.805   0.926 -0.1295 -0.0130  0.1645
 1446ntf    on5 9535   3.320   1.651   1.081 -0.3252  0.0394  0.1150
 1446ntf    on5 9536   3.105   2.015   1.234 -0.5188  0.1414  0.0360
 1446ntf    on5 9537   3.084   1.773   1.220  0.2096  0.4126  0.6044
 1446ntf    fn4 9538   3.022   1.809   0.923  0.0136  0.2104 -0.3480
 1446ntf    fn4 9539   2.875   1.872   1.059 -0.2102 -0.3390 -0.2131
 1446ntf    fn4 9540   3.002   2.011   0.952 -0.2327 -0.3303  0.6774
 1447ntf    cn1 9541   5.593   4.026   2.266  0.1782 -0.0041  0.0627
 1447ntf    sn2 9542   5.724   4.144   2.310  0.1284  0.1211 -0.1262
 1447ntf    nn3 9543   5.740   4.230   2.179  0.8526 -0.1012 -0.1889
 1447ntf    sn2 9544   5.708   4.380   2.144  0.1448 -0.2236 -0.0784
 1447ntf    cn1 9545   5.814   4.402   1.999 -0.0770  0.2579 -0.1689
 1447ntf    fn4 9546   5.475   4.085   2.258  0.3409  0.3108 -0.0173
 1447ntf    fn4 9547   5.609   3.958   2.155 -0.2550 -0.0623  0.0335
 1447ntf    fn4 9548   5.583   3.937   2.363  0.2091  0.1428  0.2030
 1447ntf    on5 9549   5.665   4.211   2.423 -0.7084 -0.5676 -0.1429
 1447ntf    on5 9550   5.838   4.059   2.330  0.1722  0.2964  0.3710
 1447ntf    on5 9551   5.763   4.476   2.237  0.0750 -0.2982  0.0411
 1447ntf    on5 9552   5.575   4.388   2.089 -0.0878 -0.0020  0.5050
 1447ntf    fn4 9553   5.799   4.523   1.948  0.0557  0.2445 -0.2422
 1447ntf    fn4 9554   5.941   4.383   2.031 -0.1198  0.1358 -0.0689
 1447ntf    fn4 9555   5.800   4.311   1.904 -0.2316  0.4098 -0.2932
 1448ntf    cn1 9556   6.424   3.664   1.635 -0.0880  0.5123 -0.1617
 1448ntf    sn2 9557   6.603   3.685   1.657 -0.0361  0.1446 -0.2146
 1448ntf    nn3 9558   6.656   3.574   1.560  0.4139 -0.1935  0.4077
 1448ntf    sn2 9559   6.679   3.589   1.405 -0.1133 -0.7324  0.2723
 1448ntf    cn1 9560   6.848   3.656   1.398 -0.3021 -0.2509  0.3083
 1448ntf    fn4 9561   6.397   3.535   1.623  0.3795  0.3857  0.1000
 1448ntf    fn4 9562   6.347   3.723   1.725 -0.6662 -0.4966  0.0233
 1448ntf    fn4 9563   6.394   3.719   1.519 -0.6972  0.3835 -0.0674
 1448ntf    on5 9564   6.630   3.822   1.619 -0.0008  0.1842 -0.0453
 1448ntf    on5 9565   6.638   3.657   1.794  0.1130 -0.3421 -0.3520
 1448ntf    on5 9566   6.591   3.686   1.346  0.0147 -0.4418  0.5573
 1448ntf    on5 9567   6.688   3.459   1.343  0.4364 -0.3710 -0.4186
 1448ntf    fn4 9568   6.851   3.781   1.441  0.2296 -0.1353 -0.0494
 1448ntf    fn4 9569   6.934   3.587   1.470  0.2420 -0.0207 -0.1050
 1448ntf    fn4 9570   6.897   3.643   1.276 -0.5765 -0.1189  0.1819
 1449ntf    cn1 9571   3.599   6.678   4.789  0.0075 -0.3362 -0.6566
 1449ntf    sn2 9572   3.671   6.797   4.672 -0.2666  0.3233 -0.1634
 1449ntf    nn3 9573   3.582   6.922   4.705  0.0934  0.5177  0.0723
 1449ntf    sn2 9574   3.469   6.988   4.619  0.0105  0.3015  0.0146
 1449ntf    cn1 9575   3.527   7.160   4.626  0.2756  0.1991  0.3585
 1449ntf    fn4 9576   3.471   6.652   4.770 -0.1121  0.0883 -0.4489
 1449ntf    fn4 9577   3.661   6.561   4.793  0.0594 -0.2992 -0.3834
 1449ntf    fn4 9578   3.618   6.729   4.910  0.2295 -0.0560 -0.8098
 1449ntf    on5 9579   3.810   6.814   4.705 -0.1845 -0.6548  0.0362
 1449ntf    on5 9580   3.648   6.739   4.541 -0.1332  0.0092 -0.0491
 1449ntf    on5 9581   3.343   6.990   4.690  0.0191  0.0651  0.0371
 1449ntf    on5 9582   3.461   6.956   4.479  0.1580 -0.3725  0.1580
 1449ntf    fn4 9583   3.650   7.170   4.578  0.1617  0.3194  0.0886
 1449ntf    fn4 9584   3.447   7.249   4.571  0.5117  0.1107 -0.1373
 1449ntf    fn4 9585   3.536   7.202   4.751 -0.2842  0.3272  0.3556
 1450ntf    cn1 9586   1.167   0.439   5.803  0.1275  0.0498 -0.3549
 1450ntf    sn2 9587   1.327   0.514   5.761  0.2026 -0.0642 -0.2754
 1450ntf    nn3 9588   1.281   0.664   5.769 -0.6414 -0.2964 -0.6117
 1450ntf    sn2 9589   1.234   0.765   5.658 -0.4087  0.3190 -0.1592
 1450ntf    cn1 9590   1.091   0.826   5.752 -0.4883  0.0158 -0.0826
 1450ntf    fn4 9591   1.164   0.307   5.802  0.2437  0.0476 -0.4149
 1450ntf    fn4 9592   1.129   0.476   5.924  0.0571  0.2318 -0.4323
 1450ntf    fn4 9593   1.071   0.476   5.720 -0.1687  0.1821  0.0460
 1450ntf    on5 9594   1.407   0.466   5.870 -0.2727  0.5192  0.3379
 1450ntf    on5 9595   1.363   0.468   5.629  0.4678 -0.1839 -0.1621
 1450ntf    on5 9596   1.187   0.704   5.536 -0.4821 -0.6322  0.3355
 1450ntf    on5 9597   1.324   0.878   5.652  0.6763 -0.4720  0.7404
 1450ntf    fn4 9598   1.002   0.733   5.783 -0.8607  0.2843 -0.3486
 1450ntf    fn4 9599   1.128   0.878   5.867 -0.0195  0.2151 -0.3214
 1450ntf    fn4 9600   1.015   0.913   5.687 -0.1522 -0.2828 -0.8949
 1451ntf    cn1 9601   1.940   1.359   2.027  0.2183  0.1658  0.0581
 1451ntf    sn2 9602   1.850   1.354   1.869 -0.0978  0.3475  0.2308
 1451ntf    nn3 9603   1.966   1.322   1.768 -0.4087 -0.0537 -0.0025
 1451ntf    sn2 9604   2.013   1.179   1.723 -0.1207  0.0476 -0.0260
 1451ntf    cn1 9605   1.906   1.151   1.579 -0.1472 -0.2072  0.0427
 1451ntf    fn4 9606   1.938   1.241   2.087  0.7798  0.1691  0.0965
 1451ntf    fn4 9607   2.070   1.380   2.012  0.1200  0.2657 -0.6717
 1451ntf    fn4 9608   1.897   1.447   2.115  0.1124 -0.1915  0.3662
 1451ntf    on5 9609   1.752   1.252   1.896  0.0955  0.3043  0.7970
 1451ntf    on5 9610   1.800   1.487   1.851 -0.2233  0.2000 -0.5508
 1451ntf    on5 9611   1.981   1.073   1.815 -0.0344 -0.1128 -0.1801
 1451ntf    on5 9612   2.147   1.176   1.669 -0.2357 -0.7040 -0.2814
 1451ntf    fn4 9613   1.936   1.230   1.478 -0.0378 -0.1290  0.1361
 1451ntf    fn4 9614   1.909   1.023   1.546  0.5968 -0.0576 -0.4963
 1451ntf    fn4 9615   1.780   1.182   1.608 -0.1333  0.0783 -0.1966
 1452ntf    cn1 9616   3.138   2.947   3.405  0.1465  0.3858 -0.0413
 1452ntf    sn2 9617   3.039   3.004   3.264 -0.0252  0.2313  0.0172
 1452ntf    nn3 9618   3.087   3.152   3.247  0.1380  0.2182  0.3553
 1452ntf    sn2 9619   3.013   3.288   3.224  0.1953  0.1305 -0.3783
 1452ntf    cn1 9620   3.007   3.318   3.045  0.3541 -0.4408 -0.4801
 1452ntf    fn4 9621   3.092   2.834   3.457  0.2625  0.2628 -0.2068
 1452ntf    fn4 9622   3.264   2.927   3.369 -0.0588 -0.1669 -0.4620
 1452ntf    fn4 9623   3.137   3.037   3.502  0.0771  0.1491  0.1786
 1452ntf    on5 9624   3.083   2.921   3.155 -0.0001  0.0759  0.1452
 1452ntf    on5 9625   2.906   2.992   3.319  0.1773  0.3093  0.5378
 1452ntf    on5 9626   3.104   3.393   3.266 -0.1269  0.3483 -0.2196
 1452ntf    on5 9627   2.874   3.296   3.262  0.1781  0.1169 -0.4402
 1452ntf    fn4 9628   3.127   3.305   2.992  0.4477  0.4972 -0.5174
 1452ntf    fn4 9629   2.922   3.237   2.985 -0.4436 -0.3360  0.4819
 1452ntf    fn4 9630   2.957   3.433   3.005 -0.0519 -0.5150 -0.1914
 1453ntf    cn1 9631   2.020   4.931   6.322  0.5624  0.2596  0.1342
 1453ntf    sn2 9632   1.963   5.101   6.350  0.1699  0.1680 -0.1033
 1453ntf    nn3 9633   1.845   5.077   6.451  0.1788  0.4325 -0.0291
 1453ntf    sn2 9634   1.819   5.113   6.602 -0.2794 -0.3727  0.0880
 1453ntf    cn1 9635   1.912   4.977   6.679 -0.0173 -0.1971  0.0816
 1453ntf    fn4 9636   2.121   4.922   6.237 -0.2483  0.2588 -0.8461
 1453ntf    fn4 9637   2.049   4.868   6.435 -0.5531 -0.3863  0.0746
 1453ntf    fn4 9638   1.918   4.861   6.276  0.2255 -0.0060  1.2367
 1453ntf    on5 9639   2.079   5.172   6.399  0.2486  0.0535 -0.1230
 1453ntf    on5 9640   1.912   5.136   6.220 -0.5153 -0.1846  0.0666
 1453ntf    on5 9641   1.683   5.092   6.642 -0.1976 -0.6168  0.2414
 1453ntf    on5 9642   1.884   5.235   6.644 -0.6729 -0.1351  0.0070
 1453ntf    fn4 9643   1.862   4.859   6.647 -0.4179 -0.0980  0.3236
 1453ntf    fn4 9644   2.042   4.980   6.655 -0.0550  0.0338 -0.0893
 1453ntf    fn4 9645   1.912   4.995   6.810  0.1712 -0.1819  0.0800
 1454ntf    cn1 9646   0.302   0.938   2.607 -0.1809  0.3389 -0.1032
 1454ntf    sn2 9647   0.431   1.065   2.597  0.0756  0.1130  0.2887
 1454ntf    nn3 9648   0.349   1.194   2.560 -0.0399 -0.1502 -0.3807
 1454ntf    sn2 9649   0.374   1.339   2.612 -0.1745 -0.2548 -0.0253
 1454ntf    cn1 9650   0.216   1.350   2.702 -0.1389  0.4977 -0.0451
 1454ntf    fn4 9651   0.222   0.940   2.502 -0.5550 -0.4214  0.1570
 1454ntf    fn4 9652   0.351   0.815   2.609 -0.0344  0.3998  0.3336
 1454ntf    fn4 9653   0.225   0.955   2.714  0.0562 -0.4041  0.1984
 1454ntf    on5 9654   0.487   1.060   2.730  0.1104  0.3603  0.2839
 1454ntf    on5 9655   0.511   1.024   2.484 -0.6577 -0.4329 -0.0365
 1454ntf    on5 9656   0.364   1.443   2.513  0.1154 -0.3097 -0.1115
 1454ntf    on5 9657   0.477   1.359   2.711  0.5457 -0.1034 -0.7996
 1454ntf    fn4 9658   0.208   1.257   2.796 -0.7854 -0.0449 -0.6219
 1454ntf    fn4 9659   0.180   1.463   2.762 -0.2065  0.6920 -0.4513
 1454ntf    fn4 9660   0.117   1.320   2.620 -0.4017 -0.0387  0.4533
 1455ntf    cn1 9661   1.867   3.715   2.545  0.0081  0.1080 -0.2509
 1455ntf    sn2 9662   1.765   3.865   2.548 -0.0824  0.0422 -0.0444
 1455ntf    nn3 9663   1.623   3.799   2.533 -0.0677  0.0775 -0.3333
 1455ntf    sn2 9664   1.491   3.839   2.607  0.1810  0.0541  0.1229
 1455ntf    cn1 9665   1.499   3.725   2.749 -0.2979 -0.0975  0.0296
 1455ntf    fn4 9666   1.864   3.651   2.660  0.8345  0.1739 -0.1864
 1455ntf    fn4 9667   1.834   3.629   2.450 -0.0055 -0.4735  0.2756
 1455ntf    fn4 9668   1.994   3.749   2.531 -0.0925  0.5088 -0.1880
 1455ntf    on5 9669   1.799   3.923   2.675 -0.2831  0.3967 -0.1513
 1455ntf    on5 9670   1.806   3.934   2.428  0.6903 -0.0246  0.1786
 1455ntf    on5 9671   1.373   3.797   2.536  0.0039  0.8310 -0.0399
 1455ntf    on5 9672   1.495   3.968   2.670  0.1762 -0.1750  0.5983
 1455ntf    fn4 9673   1.622   3.704   2.793 -0.2706  0.7174  0.3592
 1455ntf    fn4 9674   1.432   3.762   2.857 -0.6623  0.1663 -0.2865
 1455ntf    fn4 9675   1.449   3.608   2.713  0.3838 -0.3967  0.0439
 1456ntf    cn1 9676   0.801   2.902   2.508 -0.2010  0.1846  0.4072
 1456ntf    sn2 9677   0.746   2.728   2.510  0.2046  0.0498  0.0090
 1456ntf    nn3 9678   0.884   2.653   2.517  0.4792  0.5934  0.5970
 1456ntf    sn2 9679   0.926   2.544   2.621 -0.0568 -0.1568  0.0381
 1456ntf    cn1 9680   0.920   2.399   2.511 -0.1534 -0.1609  0.0483
 1456ntf    fn4 9681   0.710   2.997   2.499 -0.3605  0.0571  0.6410
 1456ntf    fn4 9682   0.867   2.936   2.617  0.4716  0.0690  0.0404
 1456ntf    fn4 9683   0.887   2.924   2.410 -0.2170 -0.3653  0.2625
 1456ntf    on5 9684   0.657   2.714   2.623 -0.0153  0.1833 -0.1472
 1456ntf    on5 9685   0.691   2.718   2.378  0.2080 -0.0628  0.0167
 1456ntf    on5 9686   0.822   2.513   2.716  0.0999 -0.7518  0.0221
 1456ntf    on5 9687   1.062   2.554   2.668 -0.0873  0.1628  0.0589
 1456ntf    fn4 9688   0.796   2.380   2.469  0.0041  0.5008 -0.7381
 1456ntf    fn4 9689   0.996   2.415   2.404 -0.5247  0.0146 -0.1910
 1456ntf    fn4 9690   0.966   2.289   2.569  0.1778  0.2276  0.5409
 1457ntf    cn1 9691   5.439   4.604   4.289  0.0388  0.4092  0.3057
 1457ntf    sn2 9692   5.383   4.445   4.356  0.2025  0.1617 -0.1428
 1457ntf    nn3 9693   5.415   4.351   4.234 -0.0675 -0.1814  0.0466
 1457ntf    sn2 9694   5.327   4.318   4.108 -0.0247  0.0875 -0.0549
 1457ntf    cn1 9695   5.454   4.316   3.977  0.1693 -0.2824  0.1371
 1457ntf    fn4 9696   5.569   4.604   4.267  0.0243 -0.2986  0.1869
 1457ntf    fn4 9697   5.379   4.637   4.176  0.0095 -0.0295  0.1911
 1457ntf    fn4 9698   5.412   4.702   4.374  0.4374  0.4661  0.3664
 1457ntf    on5 9699   5.476   4.415   4.463  0.0287  0.0783 -0.0151
 1457ntf    on5 9700   5.242   4.464   4.382  0.3078  0.6199  0.1064
 1457ntf    on5 9701   5.245   4.426   4.058 -0.0282 -0.0265 -0.2950
 1457ntf    on5 9702   5.273   4.185   4.102  0.0089  0.0795 -0.1946
 1457ntf    fn4 9703   5.566   4.254   4.007  0.1843 -0.5108 -0.3869
 1457ntf    fn4 9704   5.419   4.254   3.866 -0.2970 -0.0490  0.1500
 1457ntf    fn4 9705   5.488   4.438   3.938 -0.2133 -0.0834  0.4184
 1458ntf    cn1 9706   0.518   3.935   1.322 -0.2527  0.2150 -0.2564
 1458ntf    sn2 9707   0.528   4.114   1.293  0.0596  0.2791  0.2355
 1458ntf    nn3 9708   0.517   4.167   1.441 -0.1058 -0.1526  0.3801
 1458ntf    sn2 9709   0.391   4.215   1.522  0.0615  0.3145  0.3683
 1458ntf    cn1 9710   0.429   4.389   1.556  0.1590  0.3557  0.0575
 1458ntf    fn4 9711   0.551   3.863   1.216 -0.0940 -0.1541  0.0429
 1458ntf    fn4 9712   0.604   3.894   1.414 -0.4005 -0.0105 -0.2190
 1458ntf    fn4 9713   0.397   3.899   1.362  0.1126 -0.4761  0.2419
 1458ntf    on5 9714   0.660   4.122   1.236 -0.2010  0.3898 -0.3570
 1458ntf    on5 9715   0.415   4.147   1.210  0.0847  0.6882  0.3616
 1458ntf    on5 9716   0.391   4.147   1.649 -0.1135 -0.0133  0.1958
 1458ntf    on5 9717   0.264   4.221   1.453  0.0305 -0.1347  0.3817
 1458ntf    fn4 9718   0.558   4.407   1.578  0.1116  0.2674  0.4128
 1458ntf    fn4 9719   0.392   4.467   1.456  0.5293  0.0716 -0.3042
 1458ntf    fn4 9720   0.362   4.424   1.665 -0.0293 -0.0350  0.0681
 1459ntf    cn1 9721   5.741   4.197   3.379  0.0039 -0.4210 -0.1408
 1459ntf    sn2 9722   5.696   4.325   3.258 -0.1221 -0.1254  0.2148
 1459ntf    nn3 9723   5.837   4.382   3.219 -0.2407 -0.1208 -0.2096
 1459ntf    sn2 9724   5.916   4.345   3.089  0.0300  0.1520 -0.1237
 1459ntf    cn1 9725   6.036   4.482   3.088 -0.0953  0.2635  0.0737
 1459ntf    fn4 9726   5.799   4.253   3.484 -0.3021 -0.2757 -0.0463
 1459ntf    fn4 9727   5.634   4.132   3.423 -0.1126 -0.4774 -0.5057
 1459ntf    fn4 9728   5.829   4.114   3.326  0.0227 -0.4109 -0.1244
 1459ntf    on5 9729   5.626   4.250   3.157  0.7444 -0.3916 -0.1969
 1459ntf    on5 9730   5.614   4.415   3.335 -0.1588  0.0268 -0.0027
 1459ntf    on5 9731   5.849   4.359   2.962  0.0613  0.0239 -0.1550
 1459ntf    on5 9732   5.998   4.227   3.101  0.1070  0.2088 -0.0902
 1459ntf    fn4 9733   5.984   4.602   3.104 -0.4784  0.1319 -0.1669
 1459ntf    fn4 9734   6.129   4.467   3.181 -0.0205 -0.4870 -0.1187
 1459ntf    fn4 9735   6.098   4.489   2.971 -0.1128 -0.3798  0.0242
 1460ntf    cn1 9736   6.330   0.020   0.062  0.3781 -0.3574 -0.0146
 1460ntf    sn2 9737   6.195   0.018  -0.058 -0.0168 -0.4328  0.4276
 1460ntf    nn3 9738   6.183   0.173  -0.081  0.1524 -0.5239 -0.3070
 1460ntf    sn2 9739   6.190   0.257  -0.214  0.3272  0.3598  0.2537
 1460ntf    cn1 9740   6.351   0.336  -0.185  0.4426  0.3618 -0.3894
 1460ntf    fn4 9741   6.301   0.082   0.176  0.0501  0.0030 -0.2904
 1460ntf    fn4 9742   6.356  -0.106   0.090  0.0920 -0.5057 -0.4110
 1460ntf    fn4 9743   6.440   0.079   0.017  0.2206 -0.1352 -0.1056
 1460ntf    on5 9744   6.255  -0.062  -0.162  0.0628 -0.4371  0.4772
 1460ntf    on5 9745   6.083  -0.037   0.015 -0.8990 -0.1178 -0.6495
 1460ntf    on5 9746   6.095   0.365  -0.208 -0.2525 -0.1604  0.6360
 1460ntf    on5 9747   6.196   0.189  -0.341  0.1343  0.2142  0.3227
 1460ntf    fn4 9748   6.379   0.444  -0.256  0.0352  0.3863 -0.5122
 1460ntf    fn4 9749   6.363   0.376  -0.060 -0.4652 -0.1990 -0.1111
 1460ntf    fn4 9750   6.452   0.255  -0.216  0.2939 -0.1102  0.3366
 1461ntf    cn1 9751   2.506   5.367   2.223  0.2760 -0.3498  0.1126
 1461ntf    sn2 9752   2.473   5.489   2.353  0.1857 -0.3460  0.0849
 1461ntf    nn3 9753   2.541   5.615   2.287 -0.2828 -0.1707 -0.0715
 1461ntf    sn2 9754   2.483   5.730   2.197 -0.1961  0.0110  0.1056
 1461ntf    cn1 9755   2.444   5.852   2.326  0.2174  0.1782  0.0743
 1461ntf    fn4 9756   2.451   5.402   2.108  0.1580 -0.2164  0.2094
 1461ntf    fn4 9757   2.636   5.356   2.198  0.2991 -0.2557  0.1894
 1461ntf    fn4 9758   2.453   5.247   2.233 -0.1259 -0.2053 -0.2371
 1461ntf    on5 9759   2.329   5.499   2.366  0.1638 -0.2954 -0.1994
 1461ntf    on5 9760   2.540   5.434   2.468  0.1577 -0.3369  0.1058
 1461ntf    on5 9761   2.361   5.693   2.131 -0.3921  0.2295  0.3417
 1461ntf    on5 9762   2.584   5.792   2.115  0.0919 -0.4909  0.0759
 1461ntf    fn4 9763   2.548   5.929   2.356  0.2852  0.1138  0.0075
 1461ntf    fn4 9764   2.348   5.930   2.281 -0.1126 -0.2369  0.0524
 1461ntf    fn4 9765   2.394   5.808   2.440  0.4207 -0.1393  0.0412
 1462ntf    cn1 9766   5.396   5.250   4.309  0.1071 -0.1586 -0.2969
 1462ntf    sn2 9767   5.312   5.105   4.239 -0.0077 -0.1030 -0.2718
 1462ntf    nn3 9768   5.192   5.096   4.340  0.2160  0.0999  0.0169
 1462ntf    sn2 9769   5.187   5.019   4.477 -0.2590  0.0123 -0.0482
 1462ntf    cn1 9770   5.068   5.123   4.568  0.1161  0.1264  0.3135
 1462ntf    fn4 9771   5.427   5.238   4.437 -0.0118  0.1178 -0.2406
 1462ntf    fn4 9772   5.508   5.274   4.242  0.1718 -0.3128 -0.2423
 1462ntf    fn4 9773   5.326   5.362   4.297 -0.0696 -0.2929 -0.5269
 1462ntf    on5 9774   5.269   5.140   4.107 -0.1182  0.6014 -0.0534
 1462ntf    on5 9775   5.412   5.001   4.243  0.2830  0.1935  0.3540
 1462ntf    on5 9776   5.302   5.025   4.564 -0.4001 -0.1030  0.1474
 1462ntf    on5 9777   5.119   4.892   4.466  0.1815 -0.2450  0.1820
 1462ntf    fn4 9778   4.945   5.129   4.518 -0.0019 -0.8097  0.4795
 1462ntf    fn4 9779   5.057   5.096   4.697  0.0612 -0.0498  0.2723
 1462ntf    fn4 9780   5.105   5.250   4.573  0.2621  0.1082 -0.1814
 1463ntf    cn1 9781   3.786   5.830   1.754 -0.1136 -0.3302 -0.1811
 1463ntf    sn2 9782   3.870   5.761   1.608  0.1281  0.1673 -0.2780
 1463ntf    nn3 9783   3.923   5.627   1.671 -0.0463  0.1067 -0.2595
 1463ntf    sn2 9784   4.063   5.589   1.731 -0.0512  0.0603 -0.2784
 1463ntf    cn1 9785   4.152   5.542   1.580 -0.1374 -0.2214 -0.2429
 1463ntf    fn4 9786   3.668   5.777   1.782 -0.1087 -0.0593  0.3699
 1463ntf    fn4 9787   3.860   5.823   1.864 -0.4377 -0.2724  0.0398
 1463ntf    fn4 9788   3.767   5.959   1.737 -0.1392 -0.2440  0.4547
 1463ntf    on5 9789   3.763   5.739   1.514 -0.0559 -0.0558 -0.0178
 1463ntf    on5 9790   3.968   5.861   1.575  0.1037  0.4926  0.6014
 1463ntf    on5 9791   4.059   5.469   1.811 -0.2349  0.3002  0.0723
 1463ntf    on5 9792   4.144   5.698   1.779 -0.0627 -0.0525 -0.0006
 1463ntf    fn4 9793   4.181   5.655   1.517  0.0986 -0.1104  0.0644
 1463ntf    fn4 9794   4.266   5.477   1.602 -0.2583 -0.4088 -0.1735
 1463ntf    fn4 9795   4.080   5.460   1.505 -0.8040  0.1747 -0.0448
 1464ntf    cn1 9796   3.093   3.192   5.990 -0.1170  0.1722  0.1340
 1464ntf    sn2 9797   2.913   3.211   5.969 -0.1203  0.1533  0.1414
 1464ntf    nn3 9798   2.883   3.317   6.080 -0.3681  0.0270  0.1944
 1464ntf    sn2 9799   2.839   3.467   6.066 -0.0500  0.0803 -0.2433
 1464ntf    cn1 9800   2.660   3.456   6.098  0.0663  0.0126  0.3842
 1464ntf    fn4 9801   3.145   3.120   5.892  0.4781  0.5735  0.1526
 1464ntf    fn4 9802   3.144   3.314   5.994  0.1821  0.0585 -0.2014
 1464ntf    fn4 9803   3.132   3.135   6.103 -0.1387  0.5521  0.3359
 1464ntf    on5 9804   2.895   3.258   5.833 -0.0033  0.2902  0.1727
 1464ntf    on5 9805   2.850   3.085   5.999  0.0878  0.2975  1.1984
 1464ntf    on5 9806   2.849   3.531   5.937  0.4678  0.4462 -0.0247
 1464ntf    on5 9807   2.895   3.544   6.174 -0.1155 -0.1208 -0.0647
 1464ntf    fn4 9808   2.611   3.577   6.116  0.8518  0.3795  0.0994
 1464ntf    fn4 9809   2.595   3.412   5.992 -0.1018  0.2269  0.3973
 1464ntf    fn4 9810   2.633   3.376   6.200  0.1096  0.2458  0.5773
 1465ntf    cn1 9811   2.293   0.844   2.556 -0.1128  0.4187 -0.3683
 1465ntf    sn2 9812   2.187   0.736   2.456 -0.3654  0.0121  0.3340
 1465ntf    nn3 9813   2.248   0.750   2.312  0.2658  0.3939  0.6348
 1465ntf    sn2 9814   2.384   0.695   2.257 -0.1426  0.0661 -0.0600
 1465ntf    cn1 9815   2.330   0.540   2.180 -0.6853  0.0263  0.3934
 1465ntf    fn4 9816   2.239   0.871   2.674 -0.0178  0.1108 -0.2532
 1465ntf    fn4 9817   2.415   0.799   2.582 -0.2977 -0.1513 -0.4794
 1465ntf    fn4 9818   2.321   0.957   2.493  0.0694  0.6348  0.0961
 1465ntf    on5 9819   2.201   0.611   2.527 -0.2601 -0.0589  0.1871
 1465ntf    on5 9820   2.061   0.805   2.473 -0.2878  0.2886 -0.2201
 1465ntf    on5 9821   2.472   0.664   2.367 -0.0982  0.0460 -0.1013
 1465ntf    on5 9822   2.431   0.769   2.143  0.3230  0.5625  0.4443
 1465ntf    fn4 9823   2.418   0.495   2.092 -0.1588  0.6898  0.5750
 1465ntf    fn4 9824   2.301   0.445   2.267  0.4303 -0.6049  0.0961
 1465ntf    fn4 9825   2.224   0.567   2.105 -0.1007  0.0683 -0.4382
 1466ntf    cn1 9826   6.717   2.323   6.128 -0.3264 -0.1577 -0.0985
 1466ntf    sn2 9827   6.687   2.470   6.230 -0.1932 -0.1242 -0.1077
 1466ntf    nn3 9828   6.809   2.562   6.191  0.0627 -0.2033  0.4934
 1466ntf    sn2 9829   6.959   2.548   6.236  0.0984 -0.1034  0.4043
 1466ntf    cn1 9830   6.981   2.695   6.340  0.2448  0.2462 -0.1176
 1466ntf    fn4 9831   6.737   2.353   6.001 -0.2852 -0.0708 -0.0718
 1466ntf    fn4 9832   6.823   2.252   6.165 -0.1925  0.3268  0.4678
 1466ntf    fn4 9833   6.608   2.248   6.133 -0.1911 -0.3646 -0.2399
 1466ntf    on5 9834   6.564   2.522   6.177 -0.1158 -0.0636 -0.2302
 1466ntf    on5 9835   6.680   2.423   6.367 -0.4294  0.2548  0.0130
 1466ntf    on5 9836   7.043   2.560   6.120  0.0197 -0.4080  0.3147
 1466ntf    on5 9837   6.991   2.436   6.320  0.1615 -0.4539 -0.0880
 1466ntf    fn4 9838   7.110   2.706   6.371  0.1087 -0.0572  0.5720
 1466ntf    fn4 9839   6.942   2.807   6.282  0.1444  0.2792  0.0125
 1466ntf    fn4 9840   6.923   2.687   6.459 -0.2288 -0.1591 -0.3777
 1467ntf    cn1 9841   6.053   3.020   3.997  0.1580 -0.1313 -0.0304
 1467ntf    sn2 9842   6.214   2.937   3.980  0.1803 -0.0601 -0.1680
 1467ntf    nn3 9843   6.236   2.902   4.132  0.2213 -0.6597 -0.3109
 1467ntf    sn2 9844   6.326   2.987   4.229 -0.3126 -0.0430 -0.3479
 1467ntf    cn1 9845   6.280   2.929   4.395  0.1033 -0.1640 -0.2747
 1467ntf    fn4 9846   5.972   2.960   4.083  0.0095 -0.0891 -0.1396
 1467ntf    fn4 9847   6.067   3.145   4.037  0.1285  0.0660 -0.6204
 1467ntf    fn4 9848   5.991   3.031   3.880  0.5934 -0.1226 -0.2639
 1467ntf    on5 9849   6.187   2.817   3.906  0.2417 -0.1987  0.0337
 1467ntf    on5 9850   6.307   3.030   3.921  0.1064 -0.0125 -0.2102
 1467ntf    on5 9851   6.289   3.125   4.244  0.4247  0.1610 -0.3716
 1467ntf    on5 9852   6.465   2.951   4.218 -0.2908 -0.0453 -0.0630
 1467ntf    fn4 9853   6.149   2.924   4.414  0.1754  0.1098  0.3055
 1467ntf    fn4 9854   6.336   2.812   4.419  0.7335  0.2159  0.1301
 1467ntf    fn4 9855   6.337   3.009   4.484 -0.4882  0.2094 -0.2286
 1468ntf    cn1 9856   5.913   6.374   6.534 -0.1186 -0.4879  0.3164
 1468ntf    sn2 9857   5.778   6.278   6.458 -0.1860 -0.3507  0.2656
 1468ntf    nn3 9858   5.827   6.283   6.309  0.1583 -0.0298  0.3890
 1468ntf    sn2 9859   5.886   6.172   6.214 -0.0077  0.1961  0.0212
 1468ntf    cn1 9860   5.956   6.284   6.090  0.2732 -0.1306 -0.1166
 1468ntf    fn4 9861   6.020   6.298   6.552  0.3482  0.0427 -0.1870
 1468ntf    fn4 9862   5.961   6.467   6.454 -0.0242 -0.2397  0.6607
 1468ntf    fn4 9863   5.886   6.439   6.646  0.5296 -0.3033  0.3635
 1468ntf    on5 9864   5.789   6.144   6.510 -0.3302 -0.3576  0.2812
 1468ntf    on5 9865   5.666   6.363   6.491  0.1096  0.1463 -0.0020
 1468ntf    on5 9866   5.779   6.103   6.147  0.2003 -0.0568 -0.0506
 1468ntf    on5 9867   6.001   6.100   6.262 -0.4665 -0.5387  0.0275
 1468ntf    fn4 9868   5.870   6.381   6.060 -0.2422 -0.4701  0.2457
 1468ntf    fn4 9869   6.071   6.338   6.127  0.3225 -0.1607 -0.2249
 1468ntf    fn4 9870   5.983   6.218   5.978 -0.5158  0.1692 -0.4976
 1469ntf    cn1 9871   2.526   0.045   6.409 -0.5245 -0.1131  0.2379
 1469ntf    sn2 9872   2.536  -0.091   6.529  0.3684 -0.3553 -0.1049
 1469ntf    nn3 9873   2.665  -0.165   6.479  0.6491 -0.0468  0.1529
 1469ntf    sn2 9874   2.669  -0.304   6.405  0.1007  0.0529 -0.0658
 1469ntf    cn1 9875   2.705  -0.411   6.547  0.2290 -0.0518 -0.1767
 1469ntf    fn4 9876   2.405   0.096   6.391 -0.4975 -0.1088  0.0613
 1469ntf    fn4 9877   2.610   0.146   6.427 -0.0221 -0.3874 -0.4943
 1469ntf    fn4 9878   2.562  -0.006   6.292 -0.4162  0.0075  0.2186
 1469ntf    on5 9879   2.559  -0.028   6.657  0.2338 -0.0600 -0.2252
 1469ntf    on5 9880   2.410  -0.159   6.514  0.0108  0.4617 -0.8630
 1469ntf    on5 9881   2.784  -0.325   6.321 -0.0656  0.4021 -0.3865
 1469ntf    on5 9882   2.545  -0.361   6.357 -0.0217  0.2157  0.0542
 1469ntf    fn4 9883   2.804  -0.370   6.624 -0.2602  0.1321  0.3645
 1469ntf    fn4 9884   2.601  -0.402   6.628  0.2909 -0.2502 -0.0750
 1469ntf    fn4 9885   2.727  -0.537   6.515 -0.0567 -0.1008 -0.1813
 1470ntf    cn1 9886   6.029   6.115   0.502 -0.1401 -0.0458 -0.0849
 1470ntf    sn2 9887   6.185   6.207   0.512 -0.0090 -0.2615 -0.1513
 1470ntf    nn3 9888   6.132   6.346   0.563  0.2048 -0.3370  0.2821
 1470ntf    sn2 9889   6.107   6.405   0.707 -0.5239  0.2968 -0.0987
 1470ntf    cn1 9890   5.930   6.439   0.679 -0.5271  0.3072 -0.0652
 1470ntf    fn4 9891   5.937   6.193   0.446 -0.4438 -0.1258  0.2942
 1470ntf    fn4 9892   6.033   6.013   0.419 -0.0493  0.1232 -0.2904
 1470ntf    fn4 9893   5.979   6.080   0.620 -0.1616  0.0210 -0.0735
 1470ntf    on5 9894   6.268   6.137   0.608  0.1259  0.4374  0.2511
 1470ntf    on5 9895   6.227   6.212   0.374 -0.0299  0.0146 -0.1497
 1470ntf    on5 9896   6.167   6.535   0.719  0.4533 -0.1377 -0.1848
 1470ntf    on5 9897   6.114   6.318   0.822  0.3882 -0.5499 -0.7798
 1470ntf    fn4 9898   5.855   6.331   0.666 -0.4737  0.3295 -0.5465
 1470ntf    fn4 9899   5.871   6.510   0.773 -0.2914  0.1058  0.2396
 1470ntf    fn4 9900   5.913   6.506   0.567  0.0465  0.6844  0.0668
 1471ntf    cn1 9901   3.217   5.733   6.241 -0.1029 -0.4916 -0.0422
 1471ntf    sn2 9902   3.266   5.758   6.068 -0.2090  0.3084  0.0377
 1471ntf    nn3 9903   3.267   5.915   6.071 -0.3439  0.3105 -0.0512
 1471ntf    sn2 9904   3.331   6.009   5.963 -0.0525  0.0890 -0.0724
 1471ntf    cn1 9905   3.178   6.091   5.907 -0.1630 -0.1042 -0.0556
 1471ntf    fn4 9906   3.181   5.846   6.301 -0.1739 -0.3762 -0.2987
 1471ntf    fn4 9907   3.113   5.655   6.262 -0.5621  0.1538  0.1286
 1471ntf    fn4 9908   3.321   5.692   6.311  0.0922 -0.0071 -0.0450
 1471ntf    on5 9909   3.397   5.699   6.056 -0.2691  0.0129  0.8161
 1471ntf    on5 9910   3.161   5.708   5.982  0.0430 -0.2995  0.0820
 1471ntf    on5 9911   3.388   5.945   5.847  0.5708 -0.4943  0.5537
 1471ntf    on5 9912   3.396   6.124   6.021  0.5258 -0.3317  0.1223
 1471ntf    fn4 9913   3.097   6.004   5.849 -0.1717 -0.0549 -0.1162
 1471ntf    fn4 9914   3.106   6.143   6.004  0.2013 -0.3923  0.3740
 1471ntf    fn4 9915   3.201   6.180   5.812 -0.1068  0.2965  0.3321
 1472ntf    cn1 9916   5.464   3.600   0.358 -0.0990 -0.2316 -0.0449
 1472ntf    sn2 9917   5.586   3.484   0.292  0.0535  0.1378 -0.4162
 1472ntf    nn3 9918   5.703   3.576   0.242  0.3274 -0.1617 -0.3358
 1472ntf    sn2 9919   5.857   3.551   0.230  0.3806 -0.0745  0.1341
 1472ntf    cn1 9920   5.905   3.592   0.400 -0.2130  0.1573  0.2485
 1472ntf    fn4 9921   5.366   3.542   0.426 -0.3339  0.0316 -0.1591
 1472ntf    fn4 9922   5.519   3.689   0.440 -0.4087  0.5159 -0.6411
 1472ntf    fn4 9923   5.398   3.673   0.269  0.1745 -0.5561 -0.5118
 1472ntf    on5 9924   5.614   3.402   0.407  0.0584  0.4769 -0.1748
 1472ntf    on5 9925   5.510   3.424   0.185  0.0838 -0.3620 -0.1616
 1472ntf    on5 9926   5.921   3.641   0.137 -0.0240 -0.1805 -0.2485
 1472ntf    on5 9927   5.888   3.411   0.214 -0.3092 -0.2484  0.2847
 1472ntf    fn4 9928   5.853   3.518   0.496  0.5858 -0.2536  0.3694
 1472ntf    fn4 9929   6.035   3.574   0.416 -0.1216  0.3438 -0.2513
 1472ntf    fn4 9930   5.879   3.717   0.434  0.0135  0.2099  0.2317
 1473ntf    cn1 9931   4.851   2.751   5.707  0.0434  0.3131 -0.1863
 1473ntf    sn2 9932   4.723   2.670   5.806  0.2164 -0.1007 -0.3000
 1473ntf    nn3 9933   4.600   2.705   5.714  0.0741  0.1968  0.0001
 1473ntf    sn2 9934   4.537   2.616   5.601  0.1176 -0.0151  0.1420
 1473ntf    cn1 9935   4.453   2.738   5.495  0.3031  0.0553  0.0767
 1473ntf    fn4 9936   4.837   2.720   5.579  0.2589  0.4100 -0.2347
 1473ntf    fn4 9937   4.840   2.882   5.724 -0.4041  0.3220 -0.5179
 1473ntf    fn4 9938   4.971   2.715   5.748 -0.1899 -0.1757  0.0767
 1473ntf    on5 9939   4.765   2.532   5.814  0.1172 -0.0840  0.6141
 1473ntf    on5 9940   4.716   2.733   5.936 -0.0886 -0.5655 -0.0861
 1473ntf    on5 9941   4.431   2.530   5.648  0.1691  0.1532  0.5782
 1473ntf    on5 9942   4.628   2.548   5.512  0.0711  0.4407 -0.2583
 1473ntf    fn4 9943   4.348   2.789   5.557 -0.0094 -0.4246 -0.0546
 1473ntf    fn4 9944   4.526   2.843   5.460  0.6345 -0.1654  0.0908
 1473ntf    fn4 9945   4.410   2.675   5.387  0.0777 -0.3850  0.4185
 1474ntf    cn1 9946   2.610   1.441   4.427  0.5718  0.1532  0.1711
 1474ntf    sn2 9947   2.564   1.532   4.578  0.3478  0.2414  0.0490
 1474ntf    nn3 9948   2.497   1.422   4.667  0.6119 -0.2607 -0.3655
 1474ntf    sn2 9949   2.570   1.339   4.778  0.0071 -0.4773 -0.1263
 1474ntf    cn1 9950   2.416   1.318   4.872 -0.0361  0.1969 -0.0415
 1474ntf    fn4 9951   2.670   1.516   4.337 -0.2814  0.0892 -0.4629
 1474ntf    fn4 9952   2.690   1.341   4.461  0.0320 -0.4851 -0.4032
 1474ntf    fn4 9953   2.504   1.391   4.366  0.6976 -0.2969  0.3121
 1474ntf    on5 9954   2.691   1.581   4.626  0.3207  0.0775  0.2849
 1474ntf    on5 9955   2.466   1.624   4.525 -0.1302 -0.1310  0.2796
 1474ntf    on5 9956   2.665   1.393   4.871 -0.1838 -0.4452  0.0508
 1474ntf    on5 9957   2.600   1.205   4.734  0.1458 -0.6116  0.3750
 1474ntf    fn4 9958   2.368   1.433   4.916 -0.0249  0.1423  0.1148
 1474ntf    fn4 9959   2.325   1.267   4.790  0.0274 -0.3167  0.2047
 1474ntf    fn4 9960   2.430   1.230   4.970  0.1958  0.2966  0.0150
 1475ntf    cn1 9961   4.528   2.737   1.598 -0.3978  0.4051  0.1906
 1475ntf    sn2 9962   4.458   2.730   1.430 -0.0405  0.4561  0.0392
 1475ntf    nn3 9963   4.312   2.775   1.466 -0.1953  0.1306 -0.1779
 1475ntf    sn2 9964   4.185   2.684   1.485 -0.1696  0.1303 -0.0114
 1475ntf    cn1 9965   4.127   2.680   1.313 -0.1588 -0.6616  0.0003
 1475ntf    fn4 9966   4.659   2.721   1.602 -0.4235  0.0281 -0.3938
 1475ntf    fn4 9967   4.501   2.845   1.670 -0.3594  0.2591  0.4256
 1475ntf    fn4 9968   4.479   2.635   1.667 -0.4218  0.3360  0.0719
 1475ntf    on5 9969   4.529   2.828   1.352 -0.5092  0.4101 -0.4506
 1475ntf    on5 9970   4.473   2.595   1.381 -1.0682  0.0679  0.7521
 1475ntf    on5 9971   4.082   2.740   1.569 -0.3445  0.2257 -0.2921
 1475ntf    on5 9972   4.217   2.550   1.525 -0.2081  0.1940  0.2365
 1475ntf    fn4 9973   4.126   2.800   1.256  0.2482 -0.7989 -0.3000
 1475ntf    fn4 9974   4.210   2.613   1.235  0.4867  0.3405 -0.2000
 1475ntf    fn4 9975   4.005   2.632   1.299 -0.4075 -0.0447  0.0082
 1476ntf    cn1 9976   0.311   4.572   4.023 -0.2477 -0.0404  0.2544
 1476ntf    sn2 9977   0.262   4.562   4.198  0.0077 -0.0892  0.3234
 1476ntf    nn3 9978   0.181   4.430   4.219  0.2738 -0.2913  0.0939
 1476ntf    sn2 9979   0.025   4.413   4.210  0.2688 -0.2123  0.0335
 1476ntf    cn1 9980  -0.023   4.442   4.383  0.0413  0.0026 -0.0640
 1476ntf    fn4 9981   0.389   4.473   3.984  0.0048  0.2216  0.0911
 1476ntf    fn4 9982   0.209   4.560   3.940  0.1594 -0.0164 -0.2565
 1476ntf    fn4 9983   0.385   4.677   3.993 -0.1640 -0.0648  0.3758
 1476ntf    on5 9984   0.392   4.557   4.262  0.2486  0.2195 -0.1382
 1476ntf    on5 9985   0.187   4.681   4.229 -0.1616 -0.1808  0.2668
 1476ntf    on5 9986  -0.013   4.276   4.184 -0.1404 -0.0768 -0.0918
 1476ntf    on5 9987  -0.049   4.510   4.133 -0.1161 -0.5266  0.0038
 1476ntf    fn4 9988  -0.152   4.424   4.406  0.0831  0.2042  0.3391
 1476ntf    fn4 9989   0.034   4.347   4.456 -0.1633  0.1828  0.3330
 1476ntf    fn4 9990   0.017   4.559   4.430  0.6942 -0.4854  0.6194
 1477ntf    cn1 9991   0.636   5.269   6.264 -0.2524  0.1220 -0.0391
 1477ntf    sn2 9992   0.496   5.154   6.286 -0.1456 -0.0421 -0.2092
 1477ntf    nn3 9993   0.428   5.152   6.145 -0.2614 -0.1209 -0.1517
 1477ntf    sn2 9994   0.469   5.073   6.016  0.2162 -0.1251  0.0004
 1477ntf    cn1 9995   0.368   4.926   6.051 -0.1166  0.1018 -0.0021
 1477ntf    fn4 9996   0.696   5.287   6.380  0.0921 -0.0384 -0.1930
 1477ntf    fn4 9997   0.731   5.229   6.181 -0.5613 -0.2866 -0.2033
 1477ntf    fn4 9998   0.606   5.392   6.226  0.4095  0.3659  0.2292
 1477ntf    on5 9999   0.553   5.027   6.326 -0.7586 -0.2392  0.0444
 1477ntf    on510000   0.424   5.226   6.388 -0.4781 -0.0807 -0.4160
 1477ntf    on510001   0.606   5.030   6.024  0.2368 -0.0836 -0.1252
 1477ntf    on510002   0.408   5.125   5.896  0.6426  0.6696  0.1231
 1477ntf    fn410003   0.400   4.828   5.969 -0.0637  0.0004  0.1396
 1477ntf    fn410004   0.390   4.880   6.173  0.1002  0.0876 -0.0461
 1477ntf    fn410005   0.239   4.954   6.040 -0.0683  0.1300 -0.5219
 1478ntf    cn110006   3.963   3.372   1.148 -0.0635 -0.1357 -0.3940
 1478ntf    sn210007   4.009   3.304   0.986 -0.0707 -0.3069 -0.3237
 1478ntf    nn310008   3.948   3.159   0.995 -0.1891 -0.2429 -0.0923
 1478ntf    sn210009   3.797   3.122   0.976 -0.3465  0.1114  0.4420
 1478ntf    cn110010   3.812   3.070   0.803 -0.0847  0.1497  0.4529
 1478ntf    fn410011   3.996   3.294   1.250 -0.1346  0.0568 -0.2233
 1478ntf    fn410012   4.031   3.480   1.184  0.0493 -0.2642 -0.2213
 1478ntf    fn410013   3.834   3.397   1.162  0.0272  0.4701 -0.5904
 1478ntf    on510014   3.962   3.397   0.887 -0.6934  0.0307  0.2741
 1478ntf    on510015   4.153   3.294   0.996 -0.0193  0.1057 -0.6755
 1478ntf    on510016   3.701   3.229   0.976  0.4946  0.8732  0.4547
 1478ntf    on510017   3.765   2.998   1.043  0.7541 -0.2002  0.4027
 1478ntf    fn410018   3.700   3.047   0.735  0.2336 -0.0621 -0.0027
 1478ntf    fn410019   3.861   3.172   0.734 -0.4447  0.0374  0.0275
 1478ntf    fn410020   3.905   2.978   0.789 -0.0987  0.1390  0.4313
 1479ntf    cn110021   1.602   2.899   0.011 -0.0095  0.4332  0.1486
 1479ntf    sn210022   1.727   2.896   0.143  0.2829  0.4681 -0.1263
 1479ntf    nn310023   1.637   2.866   0.269 -0.4731  0.1636 -0.7325
 1479ntf    sn210024   1.599   2.721   0.315  0.3876  0.1702  0.0142
 1479ntf    cn110025   1.745   2.679   0.416  0.4443  0.4231  0.0387
 1479ntf    fn410026   1.515   2.996   0.037 -0.5001  0.1295 -0.3463
 1479ntf    fn410027   1.654   2.920  -0.108  0.0543 -0.3020  0.0480
 1479ntf    fn410028   1.527   2.791   0.002  0.0429  0.3896  0.2333
 1479ntf    on510029   1.816   2.792   0.099  0.3056  0.2431  0.4462
 1479ntf    on510030   1.773   3.032   0.147  0.6800  0.3172  0.5904
 1479ntf    on510031   1.584   2.617   0.217 -0.2216  0.1961  0.0761
 1479ntf    on510032   1.485   2.729   0.404 -0.1796  0.2287 -0.7081
 1479ntf    fn410033   1.860   2.733   0.379  0.4179 -0.2163 -1.0133
 1479ntf    fn410034   1.726   2.705   0.544 -0.1698 -0.4204  0.1249
 1479ntf    fn410035   1.760   2.548   0.419  0.2332  0.3810 -0.5097
 1480ntf    cn110036   1.055   1.209   2.275  0.0893  0.1361  0.1290
 1480ntf    sn210037   0.994   1.195   2.104  0.0211 -0.0019  0.1644
 1480ntf    nn310038   0.865   1.284   2.116  0.0822  0.1359 -0.1864
 1480ntf    sn210039   0.725   1.240   2.174 -0.0423  0.5844 -0.1402
 1480ntf    cn110040   0.629   1.252   2.020 -0.2709  0.1205 -0.0349
 1480ntf    fn410041   1.093   1.331   2.306 -0.5023  0.1640  0.7702
 1480ntf    fn410042   0.959   1.171   2.358 -0.0038 -0.0269 -0.0516
 1480ntf    fn410043   1.155   1.128   2.309  0.0445  0.1435  0.2790
 1480ntf    on510044   1.090   1.259   2.018 -0.7386  0.0386 -0.6665
 1480ntf    on510045   0.971   1.054   2.085 -0.1581  0.0496 -0.0033
 1480ntf    on510046   0.662   1.343   2.253  0.3443  0.1861  0.6889
 1480ntf    on510047   0.705   1.103   2.215 -0.3866  0.4732 -0.6765
 1480ntf    fn410048   0.629   1.373   1.966  0.2266  0.0053 -0.2965
 1480ntf    fn410049   0.683   1.172   1.930 -0.1256  0.3143 -0.1216
 1480ntf    fn410050   0.504   1.211   2.033  0.0497 -0.8377  0.0753
 1481ntf    cn110051   3.612   2.024   6.621 -0.1814 -0.0660 -0.5672
 1481ntf    sn210052   3.708   2.155   6.539 -0.1394  0.1614 -0.1594
 1481ntf    nn310053   3.649   2.159   6.394  0.2256 -0.2449 -0.3207
 1481ntf    sn210054   3.534   2.250   6.338  0.3073  0.2564  0.3128
 1481ntf    cn110055   3.460   2.133   6.220  0.5134  0.3842  0.0577
 1481ntf    fn410056   3.639   2.002   6.749 -0.4940 -0.4193 -0.5600
 1481ntf    fn410057   3.482   2.043   6.605 -0.2422 -0.1538 -0.1866
 1481ntf    fn410058   3.634   1.905   6.568  0.2572 -0.2122 -0.0653
 1481ntf    on510059   3.695   2.277   6.614 -0.2178  0.2927 -0.3869
 1481ntf    on510060   3.843   2.104   6.553  0.0136  0.6393  0.1259
 1481ntf    on510061   3.587   2.356   6.256  0.3711  0.3681  0.4977
 1481ntf    on510062   3.432   2.280   6.436 -0.5828 -0.2054 -0.4537
 1481ntf    fn410063   3.533   2.140   6.109 -0.2079 -0.1024 -0.4596
 1481ntf    fn410064   3.467   2.011   6.269  0.2697  0.3231 -0.0597
 1481ntf    fn410065   3.337   2.167   6.185  0.2145 -0.2517  0.4887
 1482ntf    cn110066   1.996   0.468   6.360 -0.3696 -0.1469 -0.1444
 1482ntf    sn210067   1.899   0.316   6.384 -0.2224 -0.1560  0.4285
 1482ntf    nn310068   1.997   0.209   6.324 -0.5256 -0.0101 -0.3353
 1482ntf    sn210069   2.001   0.166   6.173  0.0434 -0.1377 -0.2851
 1482ntf    cn110070   2.175   0.113   6.162  0.1596  0.1989 -0.0823
 1482ntf    fn410071   2.000   0.516   6.237  0.1432 -0.1227 -0.1228
 1482ntf    fn410072   1.940   0.559   6.438  0.7812  0.4189  0.0563
 1482ntf    fn410073   2.123   0.463   6.400 -0.5535 -0.1478  0.4509
 1482ntf    on510074   1.886   0.310   6.527 -0.2963 -0.0150  0.4285
 1482ntf    on510075   1.777   0.341   6.311  0.2691  0.1455 -0.3064
 1482ntf    on510076   1.999   0.275   6.078  0.2640 -0.2677 -0.4392
 1482ntf    on510077   1.922   0.047   6.152  0.1334 -0.2984  0.2791
 1482ntf    fn410078   2.251   0.203   6.222  0.2755 -0.0414  0.1283
 1482ntf    fn410079   2.200  -0.005   6.214 -0.6560  0.0226 -0.0734
 1482ntf    fn410080   2.211   0.104   6.035  0.3110  0.4237 -0.0568
 1483ntf    cn110081   0.507   6.243   2.288  0.2486  0.0701  0.0215
 1483ntf    sn210082   0.372   6.128   2.329  0.0226  0.2836 -0.1171
 1483ntf    nn310083   0.419   6.082   2.472 -0.6140 -0.2496 -0.0739
 1483ntf    sn210084   0.356   6.126   2.610 -0.2359 -0.3852  0.1424
 1483ntf    cn110085   0.506   6.113   2.711 -0.0849 -0.1066 -0.0457
 1483ntf    fn410086   0.487   6.308   2.174 -0.4984 -0.4920 -0.1784
 1483ntf    fn410087   0.527   6.342   2.373 -0.2616  0.0447  0.1740
 1483ntf    fn410088   0.627   6.188   2.275  0.2432  0.1775 -0.5060
 1483ntf    on510089   0.253   6.208   2.323 -0.0220  0.2175 -0.1246
 1483ntf    on510090   0.389   6.027   2.228 -0.1127  0.2229 -0.0795
 1483ntf    on510091   0.267   6.027   2.665  0.0381 -0.3455  0.6598
 1483ntf    on510092   0.326   6.266   2.620 -0.2498 -0.3891  0.1518
 1483ntf    fn410093   0.589   6.210   2.676  0.0712 -0.2776 -0.1534
 1483ntf    fn410094   0.485   6.122   2.841 -0.0918 -0.3396 -0.0305
 1483ntf    fn410095   0.578   6.004   2.687  0.5459  0.3252 -0.1490
 1484ntf    cn110096   5.849   1.248   3.432 -0.2203 -0.2278 -0.2773
 1484ntf    sn210097   5.759   1.138   3.545 -0.1070 -0.0563 -0.0189
 1484ntf    nn310098   5.665   1.240   3.619  0.1053  0.0084  0.1610
 1484ntf    sn210099   5.680   1.316   3.756  0.0450  0.4817 -0.0907
 1484ntf    cn110100   5.636   1.186   3.875  0.2734  0.2168 -0.2920
 1484ntf    fn410101   5.887   1.363   3.485  0.2596 -0.5036 -0.0131
 1484ntf    fn410102   5.961   1.202   3.378  0.3572  0.3488  0.4075
 1484ntf    fn410103   5.776   1.283   3.327 -0.1488  0.3659 -0.1299
 1484ntf    on510104   5.682   1.057   3.454  0.2287 -0.3453 -0.0453
 1484ntf    on510105   5.859   1.069   3.621 -0.0084 -0.1838 -0.2613
 1484ntf    on510106   5.576   1.414   3.772 -0.3257  0.2301 -0.8829
 1484ntf    on510107   5.814   1.353   3.794  0.1290  0.1905 -0.0944
 1484ntf    fn410108   5.729   1.092   3.885 -0.1603 -0.2226 -0.3438
 1484ntf    fn410109   5.629   1.235   3.998  0.1170  0.0618 -0.2384
 1484ntf    fn410110   5.518   1.136   3.841 -0.0685  0.2472  0.8057
 1485ntf    cn110111   1.546   6.601   3.202  0.2394  0.0322  0.4910
 1485ntf    sn210112   1.610   6.770   3.178  0.0534 -0.0136 -0.3363
 1485ntf    nn310113   1.723   6.770   3.287 -0.2712 -0.2003  0.0024
 1485ntf    sn210114   1.733   6.851   3.422  0.2346 -0.1926 -0.0414
 1485ntf    cn110115   1.827   6.997   3.367 -0.1147 -0.0091 -0.1507
 1485ntf    fn410116   1.488   6.570   3.317  0.8191  0.0331  0.7907
 1485ntf    fn410117   1.467   6.574   3.100  0.1264  0.1748  0.5399
 1485ntf    fn410118   1.650   6.519   3.195  0.2139  0.0523 -0.1085
 1485ntf    on510119   1.675   6.776   3.050  0.0779 -0.8559 -0.3679
 1485ntf    on510120   1.497   6.857   3.202 -0.1701 -0.2890 -0.3761
 1485ntf    on510121   1.824   6.778   3.508  0.1244 -0.1248  0.1316
 1485ntf    on510122   1.618   6.917   3.476  0.0129 -0.2308 -0.4649
 1485ntf    fn410123   1.843   7.076   3.473  0.2987 -0.3863  0.0736
 1485ntf    fn410124   1.944   6.971   3.312  0.1908 -0.2436  0.5988
 1485ntf    fn410125   1.770   7.076   3.278  0.0484 -0.0690 -0.3094
 1486ntf    cn110126   2.315   6.516   4.957  0.1645  0.3042 -0.0996
 1486ntf    sn210127   2.207   6.618   5.062  0.1817 -0.1129  0.3242
 1486ntf    nn310128   2.123   6.694   4.954  0.1829 -0.4250  0.1017
 1486ntf    sn210129   2.002   6.646   4.867 -0.0010  0.0525  0.0920
 1486ntf    cn110130   1.868   6.702   4.976 -0.1177  0.2503 -0.1523
 1486ntf    fn410131   2.384   6.581   4.864  0.6305  0.5350  0.3979
 1486ntf    fn410132   2.410   6.466   5.035 -0.1876 -0.5589 -0.2164
 1486ntf    fn410133   2.259   6.412   4.897 -0.0660  0.4533 -0.1445
 1486ntf    on510134   2.137   6.526   5.148 -0.2378 -0.1584 -0.0673
 1486ntf    on510135   2.306   6.703   5.125 -0.0635  0.2052  0.2813
 1486ntf    on510136   1.977   6.506   4.843 -0.4700  0.1451  0.0203
 1486ntf    on510137   1.983   6.734   4.754 -0.8514  0.1612  0.3150
 1486ntf    fn410138   1.842   6.617   5.073  0.8324 -0.1247 -0.2234
 1486ntf    fn410139   1.900   6.815   5.037  0.1400 -0.1092  0.3803
 1486ntf    fn410140   1.756   6.723   4.908 -0.2042  0.0812 -0.0623
 1487ntf    cn110141   3.064   4.200   2.950  0.2235  0.3688  0.3581
 1487ntf    sn210142   3.117   4.176   3.122 -0.2442 -0.3079  0.4109
 1487ntf    nn310143   3.022   4.268   3.206  0.0180  0.0412  0.3256
 1487ntf    sn210144   3.058   4.348   3.336  0.3964 -0.3597  0.4677
 1487ntf    cn110145   3.100   4.509   3.264 -0.0339 -0.3793  0.1706
 1487ntf    fn410146   2.945   4.150   2.920  0.4483 -0.0376  0.1389
 1487ntf    fn410147   3.061   4.327   2.914  0.8538  0.3377  0.1978
 1487ntf    fn410148   3.144   4.140   2.864 -0.0357 -0.1795  0.4936
 1487ntf    on510149   3.081   4.036   3.136 -0.0108 -0.4285 -0.1666
 1487ntf    on510150   3.255   4.214   3.109 -0.3915  0.0987  0.0439
 1487ntf    on510151   3.179   4.326   3.411  0.5463  0.3541  0.4354
 1487ntf    on510152   2.934   4.372   3.406  0.3456 -0.5710  0.4516
 1487ntf    fn410153   2.990   4.569   3.222  0.3015  0.2144  0.1262
 1487ntf    fn410154   3.164   4.592   3.345 -0.9216  0.1336  0.3575
 1487ntf    fn410155   3.184   4.502   3.162  0.5416 -0.3486  0.6387
 1488ntf    cn110156   6.458   1.892   5.843  0.4143  0.0212  0.3231
 1488ntf    sn210157   6.458   1.710   5.852 -0.2095  0.0036  0.0505
 1488ntf    nn310158   6.544   1.688   5.981  0.1701  0.6125 -0.0944
 1488ntf    sn210159   6.683   1.620   6.011 -0.1832 -0.0968 -0.0468
 1488ntf    cn110160   6.784   1.770   6.027 -0.2989 -0.0317  0.0799
 1488ntf    fn410161   6.575   1.941   5.880  0.4505  0.0397  0.1856
 1488ntf    fn410162   6.432   1.943   5.723 -0.0239 -0.7183  0.0934
 1488ntf    fn410163   6.362   1.946   5.916  0.1118 -0.4561  0.2880
 1488ntf    on510164   6.318   1.679   5.871 -0.1983  0.0240  0.1682
 1488ntf    on510165   6.523   1.670   5.730  0.0534  0.0702  0.1672
 1488ntf    on510166   6.749   1.550   5.904  0.7142  0.4079  0.1680
 1488ntf    on510167   6.681   1.561   6.142  0.0811  0.0280  0.0133
 1488ntf    fn410168   6.776   1.860   5.930 -0.1237  0.4802  0.5302
 1488ntf    fn410169   6.763   1.841   6.137  0.0385  0.1795  0.0117
 1488ntf    fn410170   6.910   1.736   6.046 -0.1959  0.2240 -0.1372
 1489ntf    cn110171   1.277   0.105   6.532 -0.0571  0.1523 -0.2414
 1489ntf    sn210172   1.252  -0.034   6.418 -0.1807  0.1921 -0.2626
 1489ntf    nn310173   1.172   0.030   6.298  0.2523  0.3069 -0.4926
 1489ntf    sn210174   1.024   0.003   6.254  0.1239  0.1345  0.0318
 1489ntf    cn110175   1.060  -0.115   6.120  0.3542  0.1171  0.1099
 1489ntf    fn410176   1.349   0.071   6.638 -0.6115 -0.1317  0.0517
 1489ntf    fn410177   1.338   0.205   6.471  0.1045 -0.0118 -0.3453
 1489ntf    fn410178   1.161   0.151   6.577 -0.1031  0.1429 -0.3500
 1489ntf    on510179   1.392  -0.056   6.394 -0.2291  0.0767 -0.4477
 1489ntf    on510180   1.186  -0.138   6.493  0.3313 -0.1008 -0.2162
 1489ntf    on510181   0.968   0.118   6.188  0.5136  0.5507  0.4179
 1489ntf    on510182   0.941  -0.078   6.339  0.3616 -0.1353  0.0052
 1489ntf    fn410183   1.171  -0.089   6.053  0.0499 -0.0407 -0.4596
 1489ntf    fn410184   1.087  -0.238   6.162 -0.1865 -0.0266  0.0388
 1489ntf    fn410185   0.953  -0.138   6.046  0.4313 -0.2827  0.1227
 1490ntf    cn110186   0.850   3.305   4.389 -0.3006  0.4249 -0.0826
 1490ntf    sn210187   1.003   3.210   4.371 -0.4510  0.1796 -0.0757
 1490ntf    nn310188   1.002   3.188   4.216 -0.4486 -0.0034 -0.0502
 1490ntf    sn210189   1.062   3.075   4.125  0.2088  0.1953  0.1356
 1490ntf    cn110190   1.199   3.163   4.044  0.1807  0.3107  0.2133
 1490ntf    fn410191   0.798   3.325   4.509  0.7874  0.0423  0.4672
 1490ntf    fn410192   0.873   3.427   4.345 -0.5794  0.2923 -0.6078
 1490ntf    fn410193   0.752   3.267   4.309 -0.3075 -0.3508  0.2802
 1490ntf    on510194   1.105   3.301   4.419 -0.8855  0.4430  0.3579
 1490ntf    on510195   0.980   3.092   4.451  0.2284 -0.0554 -0.2145
 1490ntf    on510196   0.980   3.051   4.009  0.0812 -0.0103  0.2681
 1490ntf    on510197   1.132   2.965   4.188 -0.2641 -0.0478  0.2384
 1490ntf    fn410198   1.157   3.249   3.952  0.1183  0.1132  0.0543
 1490ntf    fn410199   1.265   3.232   4.135  0.2581  0.0091  0.3872
 1490ntf    fn410200   1.285   3.075   3.996 -0.1308 -0.0677  0.3349
 1491ntf    cn110201   4.557   4.726   3.515 -0.1595 -0.3233  0.1351
 1491ntf    sn210202   4.603   4.570   3.434 -0.1608 -0.1526 -0.1958
 1491ntf    nn310203   4.729   4.613   3.352  0.0856 -0.7167 -0.1227
 1491ntf    sn210204   4.878   4.620   3.402  0.0484  0.0231 -0.1073
 1491ntf    cn110205   4.943   4.455   3.364 -0.0975 -0.0179 -0.1859
 1491ntf    fn410206   4.657   4.811   3.532 -0.4037 -0.0511  0.1979
 1491ntf    fn410207   4.476   4.796   3.439  0.2672 -0.1479 -0.1639
 1491ntf    fn410208   4.496   4.702   3.630 -0.5747 -0.2318 -0.0668
 1491ntf    on510209   4.631   4.482   3.545  0.0525  0.2043  0.0347
 1491ntf    on510210   4.486   4.540   3.355  0.0552 -0.1412 -0.5239
 1491ntf    on510211   4.889   4.637   3.545  0.5147  0.3503 -0.1809
 1491ntf    on510212   4.961   4.703   3.318  0.3023 -0.0023  0.1200
 1491ntf    fn410213   4.859   4.361   3.405  0.3075 -0.2604  0.1010
 1491ntf    fn410214   4.955   4.440   3.234 -0.2429 -0.8299 -0.1092
 1491ntf    fn410215   5.060   4.434   3.423 -0.1578  0.5689  0.1545
 1492ntf    cn110216   6.013   5.592   3.613  0.3941  0.2995 -0.0119
 1492ntf    sn210217   6.033   5.692   3.462  0.0921  0.0133 -0.2428
 1492ntf    nn310218   5.887   5.696   3.404  0.1622  0.0449 -0.4197
 1492ntf    sn210219   5.823   5.634   3.275 -0.1834 -0.1291 -0.1641
 1492ntf    cn110220   5.751   5.785   3.204  0.0834  0.2109  0.2826
 1492ntf    fn410221   5.901   5.620   3.678  0.4015  0.4681 -0.0705
 1492ntf    fn410222   5.994   5.467   3.572 -0.2276  0.4014 -0.0417
 1492ntf    fn410223   6.118   5.597   3.692  0.2964  0.0225  0.1356
 1492ntf    on510224   6.070   5.821   3.513  0.0587  0.0933 -0.4197
 1492ntf    on510225   6.128   5.617   3.383  0.7501  0.1781  0.3857
 1492ntf    on510226   5.702   5.561   3.305 -0.0708 -0.2830 -0.0794
 1492ntf    on510227   5.914   5.589   3.173 -0.2759 -0.1719 -0.2277
 1492ntf    fn410228   5.839   5.879   3.174  0.1199  0.3297  0.7499
 1492ntf    fn410229   5.682   5.761   3.094  0.3499  0.0035  0.1587
 1492ntf    fn410230   5.670   5.847   3.288 -0.3555  0.3898 -0.2653
 1493ntf    cn110231   2.993   0.379   4.130  0.0390  0.0078 -0.0532
 1493ntf    sn210232   3.109   0.336   3.997 -0.1857  0.3135 -0.3514
 1493ntf    nn310233   3.123   0.181   4.012 -0.1668  0.3534  0.0565
 1493ntf    sn210234   3.042   0.074   3.929  0.3546 -0.0333  0.0442
 1493ntf    cn110235   3.187   0.032   3.827  0.2959  0.3108 -0.1846
 1493ntf    fn410236   3.036   0.371   4.254  0.2694 -0.6408 -0.1721
 1493ntf    fn410237   2.952   0.504   4.116 -0.2840 -0.0969 -0.0520
 1493ntf    fn410238   2.883   0.307   4.114  0.1788 -0.2428  0.1244
 1493ntf    on510239   3.044   0.383   3.878  0.0709  0.7031 -0.3402
 1493ntf    on510240   3.229   0.405   4.039  0.0175 -0.1159 -0.2247
 1493ntf    on510241   2.945   0.119   3.833 -0.4483 -0.4814  0.6380
 1493ntf    on510242   3.018  -0.044   4.008 -0.0081  0.2732  0.3903
 1493ntf    fn410243   3.293   0.003   3.902  0.0437 -0.0770  0.0299
 1493ntf    fn410244   3.169  -0.080   3.758 -0.1995 -0.0779  0.5554
 1493ntf    fn410245   3.208   0.133   3.745  0.2657  0.5873  0.1480
 1494ntf    cn110246   3.725   5.270   4.172 -0.2445 -0.4604 -0.1296
 1494ntf    sn210247   3.666   5.282   4.344  0.2281  0.2009 -0.0083
 1494ntf    nn310248   3.726   5.418   4.394  0.7714  0.1089 -0.4066
 1494ntf    sn210249   3.812   5.453   4.521 -0.0482 -0.1321  0.2179
 1494ntf    cn110250   3.698   5.573   4.596 -0.4557 -0.1470 -0.3690
 1494ntf    fn410251   3.856   5.265   4.154 -0.1009  0.3590  0.5929
 1494ntf    fn410252   3.677   5.163   4.110 -0.5136 -0.1584 -0.4512
 1494ntf    fn410253   3.684   5.381   4.114  0.1137 -0.2918 -0.0604
 1494ntf    on510254   3.522   5.284   4.331  0.2114 -0.3044  0.0712
 1494ntf    on510255   3.724   5.167   4.410 -0.1055 -0.1870 -0.3829
 1494ntf    on510256   3.929   5.529   4.487 -0.2959  0.0906 -0.1437
 1494ntf    on510257   3.834   5.353   4.623 -0.5227 -0.3662  0.0977
 1494ntf    fn410258   3.757   5.645   4.689 -0.3049 -0.5671 -0.1350
 1494ntf    fn410259   3.650   5.654   4.503  0.0294  0.0862 -0.4199
 1494ntf    fn410260   3.590   5.527   4.657 -0.7024  0.2331 -0.5156
 1495ntf    cn110261   1.190   1.830   1.539 -0.0343 -0.0152 -0.0576
 1495ntf    sn210262   1.155   1.653   1.551 -0.1002 -0.0032 -0.0743
 1495ntf    nn310263   1.254   1.598   1.442  0.2153  0.0185  0.1987
 1495ntf    sn210264   1.211   1.513   1.317 -0.0273  0.4419 -0.0068
 1495ntf    cn110265   1.377   1.452   1.277 -0.2820 -0.0910 -0.2685
 1495ntf    fn410266   1.321   1.852   1.541  0.0318 -0.4325  0.3323
 1495ntf    fn410267   1.153   1.883   1.423 -0.1416 -0.1592 -0.0880
 1495ntf    fn410268   1.128   1.905   1.629 -0.0994  0.3594 -0.4094
 1495ntf    on510269   1.206   1.610   1.680  0.9881 -0.5747 -0.6760
 1495ntf    on510270   1.014   1.638   1.526  0.0241 -0.2731 -0.6245
 1495ntf    on510271   1.166   1.581   1.198 -0.2147  0.0614 -0.1567
 1495ntf    on510272   1.140   1.391   1.348  0.0020  0.3256 -0.4028
 1495ntf    fn410273   1.457   1.558   1.272 -0.4941  0.0636 -0.3853
 1495ntf    fn410274   1.416   1.360   1.364 -0.2533  0.0199 -0.1638
 1495ntf    fn410275   1.385   1.395   1.158 -0.7583 -0.3927 -0.1558
 1496ntf    cn110276   6.198   3.587   5.388  0.5084 -0.1049  0.1817
 1496ntf    sn210277   6.147   3.502   5.236 -0.1598  0.7065 -0.0542
 1496ntf    nn310278   6.191   3.624   5.147  0.2186  0.4286 -0.2492
 1496ntf    sn210279   6.165   3.653   4.995 -0.0715 -0.0542 -0.2960
 1496ntf    cn110280   6.332   3.651   4.923 -0.1152  0.7182 -0.4306
 1496ntf    fn410281   6.306   3.663   5.375 -0.0050  0.6606  0.3335
 1496ntf    fn410282   6.105   3.673   5.425  0.1095 -0.2078 -0.5698
 1496ntf    fn410283   6.220   3.510   5.494 -0.5362 -0.1105  0.3999
 1496ntf    on510284   6.234   3.387   5.233 -1.0949 -0.0104 -0.1321
 1496ntf    on510285   6.006   3.481   5.260  0.0494 -0.1376  0.4761
 1496ntf    on510286   6.124   3.792   4.992 -0.1159 -0.0584  0.0532
 1496ntf    on510287   6.091   3.553   4.923  0.3096 -0.0268 -0.7296
 1496ntf    fn410288   6.344   3.727   4.815 -0.1409  0.6457 -0.4848
 1496ntf    fn410289   6.426   3.697   5.003 -0.0065  0.2062 -0.2632
 1496ntf    fn410290   6.367   3.526   4.898  0.3230  0.7030  0.2392
 1497ntf    cn110291   2.106   4.703   4.829  0.0780 -0.5597 -0.1490
 1497ntf    sn210292   2.258   4.673   4.924  0.0019 -0.0682  0.1352
 1497ntf    nn310293   2.356   4.787   4.879 -0.4957  0.2727 -0.0876
 1497ntf    sn210294   2.391   4.918   4.958 -0.2735 -0.0386  0.3322
 1497ntf    cn110295   2.564   4.931   4.902 -0.3368 -0.3077  0.0706
 1497ntf    fn410296   2.057   4.821   4.866  0.1185 -0.1173 -1.4603
 1497ntf    fn410297   2.124   4.708   4.699  0.7446  0.8499 -0.0167
 1497ntf    fn410298   2.014   4.611   4.852 -0.5471  0.1438  0.2368
 1497ntf    on510299   2.205   4.673   5.058  0.4748 -0.5034  0.3268
 1497ntf    on510300   2.308   4.544   4.882 -0.0490  0.0437 -0.2749
 1497ntf    on510301   2.401   4.902   5.101  0.0632  0.0260  0.3178
 1497ntf    on510302   2.326   5.033   4.900  0.0348 -0.0470 -0.0317
 1497ntf    fn410303   2.639   4.832   4.945 -0.0529  0.1574  0.6513
 1497ntf    fn410304   2.565   4.943   4.770  0.1576 -0.1276  0.0890
 1497ntf    fn410305   2.628   5.042   4.934 -0.1856 -0.3548 -0.0689
 1498ntf    cn110306   4.028   3.606   2.967  0.1726 -0.1896 -0.0428
 1498ntf    sn210307   3.920   3.746   2.923 -0.2604 -0.4243  0.2611
 1498ntf    nn310308   3.785   3.674   2.888 -0.3018 -0.1661 -0.1149
 1498ntf    sn210309   3.662   3.643   2.980 -0.2660 -0.3169 -0.1181
 1498ntf    cn110310   3.652   3.465   2.945  0.0766 -0.3541 -0.0301
 1498ntf    fn410311   4.153   3.643   2.989 -0.0570  0.3970  0.3095
 1498ntf    fn410312   3.988   3.529   3.066  0.2804  0.0055  0.1545
 1498ntf    fn410313   4.031   3.530   2.858 -0.0250  0.2718 -0.3761
 1498ntf    on510314   3.929   3.821   3.045  0.4599  0.0355 -0.0657
 1498ntf    on510315   3.981   3.805   2.806 -0.4258 -0.7294  0.0191
 1498ntf    on510316   3.538   3.697   2.929  0.0013 -0.0349 -0.4754
 1498ntf    on510317   3.687   3.643   3.122  0.6005  0.1451 -0.2609
 1498ntf    fn410318   3.757   3.398   2.989  0.4584  0.0684 -0.2865
 1498ntf    fn410319   3.549   3.416   3.012  0.3103  0.0690  0.6504
 1498ntf    fn410320   3.628   3.437   2.818 -0.0157  0.2708 -0.1508
 1499ntf    cn110321   6.571   2.220   4.306 -0.1104  0.0914  0.0881
 1499ntf    sn210322   6.654   2.357   4.392 -0.1342  0.1189  0.0669
 1499ntf    nn310323   6.773   2.281   4.459 -0.0828 -0.0973 -0.2674
 1499ntf    sn210324   6.767   2.187   4.585  0.1998  0.0927 -0.1112
 1499ntf    cn110325   6.857   2.292   4.702 -0.1013  0.0427  0.1652
 1499ntf    fn410326   6.649   2.155   4.222 -0.0205  0.4929 -0.1414
 1499ntf    fn410327   6.522   2.129   4.390  0.1298  0.3535  0.5169
 1499ntf    fn410328   6.471   2.270   4.236 -0.3737  0.2815  0.5959
 1499ntf    on510329   6.708   2.442   4.289  0.1489 -0.4700 -0.2725
 1499ntf    on510330   6.551   2.413   4.476  0.3215  0.4519  0.4108
 1499ntf    on510331   6.858   2.075   4.575 -0.1974 -0.2740  0.3597
 1499ntf    on510332   6.638   2.163   4.645  0.0960  0.4548 -0.1880
 1499ntf    fn410333   6.881   2.222   4.812  0.3695 -0.3107 -0.1557
 1499ntf    fn410334   6.982   2.310   4.663 -0.2645  0.0449 -0.3658
 1499ntf    fn410335   6.799   2.407   4.732 -0.1072  0.0258  0.2189
 1500ntf    cn110336   1.881   6.394   0.138 -0.4349 -0.3811  0.1756
 1500ntf    sn210337   1.944   6.529   0.243  0.1738 -0.4176 -0.1390
 1500ntf    nn310338   1.812   6.609   0.269  0.1749 -0.4729  0.0372
 1500ntf    sn210339   1.703   6.593   0.381  0.0303  0.2827  0.0093
 1500ntf    cn110340   1.760   6.725   0.493  0.1010  0.3630 -0.1208
 1500ntf    fn410341   1.976   6.308   0.104  0.0243  0.3200 -0.3508
 1500ntf    fn410342   1.771   6.335   0.181 -0.7588  0.1099  0.0325
 1500ntf    fn410343   1.847   6.444   0.020  0.1228  0.4373  0.3485
 1500ntf    on510344   2.004   6.472   0.361  0.0956 -0.6223 -0.1967
 1500ntf    on510345   2.029   6.603   0.153  0.0850 -0.0701  0.0651
 1500ntf    on510346   1.722   6.472   0.457  0.1563  0.1073 -0.3006
 1500ntf    on510347   1.567   6.620   0.340 -0.1821 -0.0106  0.5129
 1500ntf    fn410348   1.882   6.695   0.536 -0.2326 -0.4736  0.2726
 1500ntf    fn410349   1.765   6.844   0.435 -0.3218  0.4124 -0.0576
 1500ntf    fn410350   1.696   6.734   0.608 -0.4036  0.5001 -0.4124
 1501ntf    cn110351   0.753   0.752   0.363  0.1809 -0.1164  0.0688
 1501ntf    sn210352   0.809   0.760   0.536 -0.0688 -0.0355  0.1446
 1501ntf    nn310353   0.667   0.768   0.604 -0.4019 -0.1266 -0.5334
 1501ntf    sn210354   0.554   0.660   0.621 -0.0273 -0.4217  0.0955
 1501ntf    cn110355   0.548   0.648   0.803  0.3674 -0.2235  0.1226
 1501ntf    fn410356   0.838   0.704   0.273  0.3318 -0.3419  0.3302
 1501ntf    fn410357   0.646   0.677   0.347  0.0003  0.1895 -0.1623
 1501ntf    fn410358   0.723   0.870   0.311  0.0612 -0.0667  0.2512
 1501ntf    on510359   0.886   0.639   0.547 -0.0115 -0.0020  0.1121
 1501ntf    on510360   0.875   0.888   0.546  0.4593 -0.2606 -0.4193
 1501ntf    on510361   0.594   0.529   0.576  0.2375 -0.0885 -0.6408
 1501ntf    on510362   0.426   0.717   0.590  0.5193  0.8569  0.1269
 1501ntf    fn410363   0.674   0.649   0.845  0.3768  0.0655  0.0878
 1501ntf    fn410364   0.489   0.753   0.857  0.2778 -0.3160  0.2049
 1501ntf    fn410365   0.480   0.547   0.855 -0.4927  0.1564 -0.2600
 1502ntf    cn110366   3.412   3.984   4.565 -0.0182 -0.4479  0.3368
 1502ntf    sn210367   3.249   3.973   4.645 -0.2596 -0.0332 -0.0899
 1502ntf    nn310368   3.172   4.098   4.591  0.2694  0.0548 -0.6412
 1502ntf    sn210369   3.019   4.103   4.557  0.1037  0.0421  0.1001
 1502ntf    cn110370   2.953   4.006   4.696  0.3359 -0.0366  0.1558
 1502ntf    fn410371   3.402   3.921   4.450  0.6007  0.0696 -0.0095
 1502ntf    fn410372   3.449   4.109   4.541  0.1770 -0.6642 -0.5099
 1502ntf    fn410373   3.502   3.923   4.641  0.4523 -0.3682 -0.1512
 1502ntf    on510374   3.215   3.844   4.590  0.0171 -0.4532  0.6959
 1502ntf    on510375   3.281   3.981   4.786 -0.1310 -0.1030 -0.1150
 1502ntf    on510376   2.989   4.018   4.444 -0.2775 -0.0945  0.3016
 1502ntf    on510377   2.951   4.229   4.572 -0.6332 -0.2627 -0.5793
 1502ntf    fn410378   3.004   3.884   4.700 -0.1458 -0.2429  0.1021
 1502ntf    fn410379   2.985   4.069   4.808  0.5872 -0.1533  0.1514
 1502ntf    fn410380   2.821   3.994   4.696  0.3823 -0.5687  0.0784
 1503ntf    cn110381   1.736   2.630   2.227  0.1420 -0.0082 -0.0265
 1503ntf    sn210382   1.566   2.686   2.192  0.2040  0.1433 -0.0869
 1503ntf    nn310383   1.595   2.810   2.101  0.3397  0.5747  0.5365
 1503ntf    sn210384   1.511   2.941   2.076  0.2964  0.3950 -0.2858
 1503ntf    cn110385   1.456   2.912   1.905  0.1904 -0.4327 -0.1180
 1503ntf    fn410386   1.808   2.598   2.121  0.7277 -0.3348  0.4656
 1503ntf    fn410387   1.796   2.727   2.294  0.2709 -0.3494  0.3584
 1503ntf    fn410388   1.734   2.521   2.302 -0.1143 -0.0663 -0.1174
 1503ntf    on510389   1.502   2.583   2.114 -0.2360  0.0400  0.4057
 1503ntf    on510390   1.521   2.710   2.327  0.6343  0.7545 -0.0467
 1503ntf    on510391   1.587   3.062   2.060  0.0781  0.5577 -0.0952
 1503ntf    on510392   1.389   2.952   2.152  0.2304 -0.8084 -0.1870
 1503ntf    fn410393   1.557   2.891   1.822  0.5679  0.2405  0.1662
 1503ntf    fn410394   1.377   2.806   1.899  0.3759 -0.5939  0.2709
 1503ntf    fn410395   1.383   3.013   1.859  0.1294 -0.3730  0.1109
 1504ntf    cn110396   2.645   2.163   1.120  0.0610  0.5071 -0.1229
 1504ntf    sn210397   2.558   2.156   1.279 -0.1794  0.3233 -0.2609
 1504ntf    nn310398   2.570   2.294   1.353  0.2912  0.3064 -0.3021
 1504ntf    sn210399   2.699   2.348   1.425  0.2223  0.0773 -0.0029
 1504ntf    cn110400   2.719   2.501   1.328  0.1922 -0.1501 -0.3691
 1504ntf    fn410401   2.771   2.126   1.137 -0.1508 -0.1484  0.0245
 1504ntf    fn410402   2.604   2.078   1.027  0.8149  0.4308 -0.3914
 1504ntf    fn410403   2.646   2.285   1.067  0.0477  0.5597 -0.0021
 1504ntf    on510404   2.425   2.146   1.226 -0.3324  0.4110  0.1051
 1504ntf    on510405   2.617   2.043   1.347 -0.0274  0.3404 -0.3632
 1504ntf    on510406   2.821   2.277   1.395 -0.2194 -0.5096 -0.4355
 1504ntf    on510407   2.677   2.402   1.557 -0.3289 -0.7146  0.2324
 1504ntf    fn410408   2.615   2.583   1.336  0.0286 -0.3832 -0.0842
 1504ntf    fn410409   2.819   2.575   1.371 -0.0346 -0.0791  0.0391
 1504ntf    fn410410   2.736   2.479   1.198  0.0753  0.3208 -0.4657
 1505ntf    cn110411   2.550   2.142   3.149  0.0959  0.1438 -0.0427
 1505ntf    sn210412   2.562   2.306   3.072 -0.0654  0.2099  0.0720
 1505ntf    nn310413   2.466   2.398   3.156 -0.4062 -0.0211 -0.0667
 1505ntf    sn210414   2.496   2.490   3.280 -0.4279  0.5728 -0.4978
 1505ntf    cn110415   2.503   2.652   3.199  0.3437  0.6910 -0.2000
 1505ntf    fn410416   2.606   2.140   3.270 -0.1364  0.5671  0.0730
 1505ntf    fn410417   2.425   2.100   3.154 -0.0455  0.5352 -0.2633
 1505ntf    fn410418   2.615   2.058   3.070 -0.3469 -0.5184  0.2823
 1505ntf    on510419   2.702   2.337   3.086  0.0310 -0.1331 -0.1346
 1505ntf    on510420   2.516   2.277   2.939 -0.3035 -0.8875  0.3801
 1505ntf    on510421   2.623   2.470   3.344 -0.8045 -0.0552  0.0678
 1505ntf    on510422   2.386   2.500   3.372 -0.0645 -0.2510  0.0391
 1505ntf    fn410423   2.386   2.693   3.153  0.0522  0.1163  0.0305
 1505ntf    fn410424   2.549   2.748   3.278  0.8383  0.1748  0.1471
 1505ntf    fn410425   2.589   2.641   3.099 -0.2928 -0.0577 -0.6735
 1506ntf    cn110426   1.014   0.287   0.935 -0.1893  0.1388 -0.3589
 1506ntf    sn210427   0.993   0.446   0.850  0.2552  0.1548 -0.4459
 1506ntf    nn310428   1.139   0.503   0.842  0.5394 -0.5115 -0.1045
 1506ntf    sn210429   1.221   0.537   0.713  0.0632 -0.4583 -0.3955
 1506ntf    cn110430   1.319   0.386   0.690  0.1685 -0.4245 -0.1721
 1506ntf    fn410431   1.082   0.202   0.858 -0.1457  0.0286 -0.2001
 1506ntf    fn410432   1.075   0.296   1.052 -0.1963 -0.3233 -0.3147
 1506ntf    fn410433   0.898   0.232   0.966  0.0645 -0.0196  0.3318
 1506ntf    on510434   0.933   0.408   0.725 -0.2191  0.2462 -0.2523
 1506ntf    on510435   0.914   0.515   0.950  0.8525  0.2459 -0.0335
 1506ntf    on510436   1.319   0.642   0.729 -0.2369 -0.1601 -0.5003
 1506ntf    on510437   1.144   0.553   0.592 -0.2573  0.2717 -0.1040
 1506ntf    fn410438   1.236   0.282   0.687 -0.3604 -0.0083 -0.1173
 1506ntf    fn410439   1.387   0.390   0.576  0.7684 -0.5971  0.1768
 1506ntf    fn410440   1.407   0.364   0.786 -0.0397  0.4751  0.2291
 1507ntf    cn110441   6.005   0.170   3.433 -0.0609  0.1563  0.3299
 1507ntf    sn210442   6.041   0.015   3.345 -0.2133  0.1817  0.2233
 1507ntf    nn310443   5.961  -0.094   3.425  0.2116 -0.3481 -0.0763
 1507ntf    sn210444   5.838  -0.182   3.382 -0.1906  0.0527  0.2546
 1507ntf    cn110445   5.694  -0.091   3.444 -0.1082  0.2129  0.2135
 1507ntf    fn410446   5.878   0.209   3.426 -0.1093 -0.0028  0.3106
 1507ntf    fn410447   6.041   0.174   3.561 -0.0392  0.2091  0.3220
 1507ntf    fn410448   6.072   0.275   3.389 -0.8818  0.4693 -0.1932
 1507ntf    on510449   5.996   0.048   3.212  0.1207 -0.1193  0.0356
 1507ntf    on510450   6.183   0.018   3.366 -0.1702 -0.7156  0.1075
 1507ntf    on510451   5.831  -0.306   3.456  0.1526  0.1549  0.4614
 1507ntf    on510452   5.829  -0.197   3.239 -0.6789 -0.6055  0.3517
 1507ntf    fn410453   5.574  -0.142   3.420  0.1743 -0.3015 -0.0896
 1507ntf    fn410454   5.699  -0.079   3.576 -0.9410  0.0154  0.2679
 1507ntf    fn410455   5.697   0.034   3.402  0.3258  0.0917 -0.1116
 1508ntf    cn110456   4.312   3.529   5.760 -0.1155  0.2470 -0.2394
 1508ntf    sn210457   4.215   3.433   5.639  0.0925  0.0286 -0.2361
 1508ntf    nn310458   4.288   3.477   5.508  0.8350  0.6035  0.3643
 1508ntf    sn210459   4.407   3.406   5.434  0.1820  0.1022 -0.2044
 1508ntf    cn110460   4.322   3.315   5.301  0.2735 -0.0977 -0.1263
 1508ntf    fn410461   4.282   3.510   5.887 -0.1479 -0.2438 -0.3197
 1508ntf    fn410462   4.433   3.476   5.750 -0.1408  0.0325  0.5719
 1508ntf    fn410463   4.331   3.659   5.750  0.6473  0.1763  0.2295
 1508ntf    on510464   4.226   3.296   5.682 -0.6699  0.0569  0.0695
 1508ntf    on510465   4.081   3.488   5.649 -0.0390 -0.2762 -0.3105
 1508ntf    on510466   4.479   3.302   5.503 -0.2002 -0.1077 -0.1183
 1508ntf    on510467   4.496   3.500   5.370  0.1880  0.3397  0.1485
 1508ntf    fn410468   4.241   3.220   5.345 -0.1784  0.0728 -0.5681
 1508ntf    fn410469   4.242   3.392   5.229  0.1504  0.3392  0.4695
 1508ntf    fn410470   4.411   3.260   5.220  0.3323 -0.5475  0.2379
 1509ntf    cn110471   5.734   3.142   3.785  0.1477  0.4180 -0.4402
 1509ntf    sn210472   5.618   3.261   3.857 -0.2948 -0.3866  0.1866
 1509ntf    nn310473   5.584   3.362   3.742 -0.1101  0.1651  0.6128
 1509ntf    sn210474   5.676   3.483   3.700 -0.1759  0.0078  0.0101
 1509ntf    cn110475   5.573   3.620   3.761 -0.1432  0.1524 -0.2597
 1509ntf    fn410476   5.688   3.095   3.670 -0.2726  0.0171 -0.1107
 1509ntf    fn410477   5.850   3.197   3.753  0.2810  0.3064 -0.1503
 1509ntf    fn410478   5.750   3.037   3.864 -0.2663  0.2690 -0.5526
 1509ntf    on510479   5.505   3.173   3.877 -0.2759 -0.4252  0.1256
 1509ntf    on510480   5.682   3.313   3.976 -0.1281  0.2463 -0.1777
 1509ntf    on510481   5.673   3.490   3.556 -0.0362  0.0059  0.0073
 1509ntf    on510482   5.804   3.503   3.763 -0.0387 -0.1151 -0.2268
 1509ntf    fn410483   5.511   3.594   3.875  0.1055 -0.3530 -0.2341
 1509ntf    fn410484   5.641   3.732   3.781  0.1999 -0.0629 -0.2219
 1509ntf    fn410485   5.484   3.652   3.669 -0.1773  0.1866 -0.2154
 1510ntf    cn110486   6.375   5.276   1.507  0.3569 -0.1725  0.0892
 1510ntf    sn210487   6.416   5.180   1.655 -0.0036 -0.3161  0.0962
 1510ntf    nn310488   6.376   5.036   1.608  0.3520 -0.2765 -0.3328
 1510ntf    sn210489   6.435   4.896   1.648  0.1370 -0.2477  0.0947
 1510ntf    cn110490   6.282   4.801   1.670 -0.0114 -0.0207  0.0499
 1510ntf    fn410491   6.446   5.236   1.403 -0.1443 -0.4078 -0.1636
 1510ntf    fn410492   6.253   5.255   1.460  0.3947  0.1003 -0.1327
 1510ntf    fn410493   6.386   5.407   1.521 -0.0527 -0.1762  0.4315
 1510ntf    on510494   6.554   5.214   1.681 -0.0698 -0.0346  0.0890
 1510ntf    on510495   6.312   5.226   1.744 -0.2139 -0.3389 -0.1395
 1510ntf    on510496   6.491   4.895   1.781 -0.0550  0.0860  0.1786
 1510ntf    on510497   6.491   4.832   1.531  0.0968  0.1437 -0.1400
 1510ntf    fn410498   6.210   4.853   1.767 -0.0305  0.0954 -0.0270
 1510ntf    fn410499   6.203   4.786   1.565 -0.0729 -0.2306  0.1244
 1510ntf    fn410500   6.302   4.675   1.707 -0.0497 -0.0988 -0.1924
 1511ntf    cn110501   4.972   3.458   1.689 -0.2692  0.0735  0.0261
 1511ntf    sn210502   5.016   3.440   1.864  0.1990  0.1479 -0.0838
 1511ntf    nn310503   4.879   3.393   1.923  0.3621 -0.2453 -0.0124
 1511ntf    sn210504   4.839   3.263   2.002  0.1612 -0.2078 -0.0497
 1511ntf    cn110505   4.682   3.317   2.076  0.2598  0.0887 -0.0554
 1511ntf    fn410506   4.942   3.341   1.634  0.3502  0.0220 -0.2173
 1511ntf    fn410507   4.866   3.534   1.667 -0.2225  0.2759  0.4892
 1511ntf    fn410508   5.074   3.503   1.617 -0.1276 -0.1200  0.1053
 1511ntf    on510509   5.121   3.340   1.868  0.5892  0.5794  0.7402
 1511ntf    on510510   5.042   3.579   1.890 -0.5780  0.2464  0.1781
 1511ntf    on510511   4.920   3.235   2.119 -0.0420  0.2855  0.2094
 1511ntf    on510512   4.788   3.149   1.930 -0.3779 -0.2881  0.4543
 1511ntf    fn410513   4.605   3.351   1.974  0.0727  0.0857  0.0840
 1511ntf    fn410514   4.616   3.222   2.139 -0.3902  0.4541 -0.1841
 1511ntf    fn410515   4.681   3.427   2.149  0.5067  0.2212 -0.2526
 1512ntf    cn110516   1.445   5.587   4.707  0.0636  0.2680 -0.1896
 1512ntf    sn210517   1.278   5.546   4.647  0.0252  0.0028  0.0955
 1512ntf    nn310518   1.307   5.407   4.579  0.5516  0.2837 -0.2546
 1512ntf    sn210519   1.240   5.338   4.455 -0.1667  0.2179  0.1689
 1512ntf    cn110520   1.281   5.163   4.478  0.0127  0.1926 -0.3257
 1512ntf    fn410521   1.539   5.568   4.616 -0.0924 -0.1392 -0.2707
 1512ntf    fn410522   1.457   5.706   4.762 -0.3787 -0.0251  0.5643
 1512ntf    fn410523   1.478   5.504   4.805 -0.3290 -0.3700 -0.5896
 1512ntf    on510524   1.202   5.544   4.770 -0.0590 -0.0822  0.0423
 1512ntf    on510525   1.238   5.650   4.556 -0.0768 -0.0134  0.1212
 1512ntf    on510526   1.307   5.382   4.335 -0.0766 -0.1029  0.1013
 1512ntf    on510527   1.096   5.340   4.458 -0.1629  0.3635  0.2716
 1512ntf    fn410528   1.250   5.122   4.600  0.2044  0.2873 -0.2443
 1512ntf    fn410529   1.228   5.081   4.389 -0.8445 -0.1882  0.5184
 1512ntf    fn410530   1.412   5.149   4.468 -0.0111 -0.1634 -0.1484
 1513ntf    cn110531   4.508   2.612   0.659 -0.1592  0.3853 -0.0256
 1513ntf    sn210532   4.432   2.604   0.824 -0.1259 -0.0188 -0.0285
 1513ntf    nn310533   4.291   2.667   0.795 -0.0740 -0.3181 -0.9777
 1513ntf    sn210534   4.156   2.590   0.773 -0.1274 -0.3806 -0.4337
 1513ntf    cn110535   4.108   2.547   0.943  0.2440 -0.2341 -0.2888
 1513ntf    fn410536   4.535   2.729   0.603  0.0609  0.2572 -0.1900
 1513ntf    fn410537   4.623   2.546   0.666 -0.3030  0.1994  0.6598
 1513ntf    fn410538   4.433   2.546   0.572  0.1896 -0.2386  0.1368
 1513ntf    on510539   4.429   2.462   0.843 -0.0052 -0.1303 -0.7828
 1513ntf    on510540   4.514   2.684   0.912  0.1601 -0.0471 -0.2658
 1513ntf    on510541   4.165   2.465   0.703  0.1697 -0.5335 -0.1227
 1513ntf    on510542   4.059   2.689   0.732  0.4523  0.2569 -0.2968
 1513ntf    fn410543   4.203   2.485   1.011  0.0547 -0.0013  0.1968
 1513ntf    fn410544   4.079   2.659   1.007  0.0318 -0.5715  0.2171
 1513ntf    fn410545   3.996   2.477   0.956  0.1446 -0.0613 -0.2063
 1514ntf    cn110546   1.758   5.686   1.535  0.1847 -0.1960  0.0404
 1514ntf    sn210547   1.853   5.816   1.620  0.0687 -0.2363  0.2310
 1514ntf    nn310548   1.731   5.898   1.676  0.3727  0.2567  0.1728
 1514ntf    sn210549   1.658   5.886   1.814 -0.1651 -0.1176 -0.1374
 1514ntf    cn110550   1.760   6.004   1.908 -0.4932  0.0318  0.0334
 1514ntf    fn410551   1.828   5.584   1.489 -0.1344 -0.2990 -0.2269
 1514ntf    fn410552   1.653   5.643   1.604 -0.1442  0.4252 -0.0593
 1514ntf    fn410553   1.706   5.735   1.424  0.1119  0.1439  0.2225
 1514ntf    on510554   1.937   5.756   1.721 -0.1026 -0.4679  0.2384
 1514ntf    on510555   1.915   5.889   1.513 -0.4007 -0.0967  0.0498
 1514ntf    on510556   1.665   5.758   1.880 -0.0895  0.2031  0.4853
 1514ntf    on510557   1.528   5.948   1.814 -0.1070  0.0374  1.0962
 1514ntf    fn410558   1.888   5.971   1.910 -0.3808  0.4825  0.5119
 1514ntf    fn410559   1.766   6.126   1.858  0.2014 -0.1455 -0.3255
 1514ntf    fn410560   1.720   6.022   2.033  0.0851 -0.1487  0.2503
 1515ntf    cn110561   0.518   1.928   4.183 -0.2761 -0.1125 -0.0968
 1515ntf    sn210562   0.544   1.758   4.125 -0.1767 -0.2525  0.3500
 1515ntf    nn310563   0.399   1.699   4.131 -0.0395 -0.6358 -0.0797
 1515ntf    sn210564   0.280   1.702   4.028  0.0838  0.0619 -0.2095
 1515ntf    cn110565   0.331   1.568   3.915  0.2486  0.0295 -0.0961
 1515ntf    fn410566   0.628   2.001   4.183 -0.3898  0.0578 -0.4240
 1515ntf    fn410567   0.428   2.001   4.119  0.4234  0.3244 -0.5880
 1515ntf    fn410568   0.477   1.932   4.309 -0.5659  0.0449 -0.1937
 1515ntf    on510569   0.601   1.780   3.994  0.0758 -0.2768  0.4561
 1515ntf    on510570   0.630   1.699   4.224 -0.0549  0.1326  0.4778
 1515ntf    on510571   0.287   1.818   3.943  0.1449  0.4600  0.3330
 1515ntf    on510572   0.151   1.659   4.076  0.1616 -0.0811 -0.1290
 1515ntf    fn410573   0.346   1.454   3.981 -0.1163 -0.5680 -1.0328
 1515ntf    fn410574   0.231   1.542   3.833  0.1115 -0.5476  0.2486
 1515ntf    fn410575   0.440   1.596   3.846  0.1818 -0.0014 -0.2134
 1516ntf    cn110576   0.273   6.195   5.910 -0.0087  0.2491  0.1329
 1516ntf    sn210577   0.254   6.147   6.084 -0.1287 -0.1153  0.0194
 1516ntf    nn310578   0.246   5.991   6.067 -0.5416 -0.1320  0.3603
 1516ntf    sn210579   0.325   5.879   6.143  0.3983  0.1783 -0.1487
 1516ntf    cn110580   0.483   5.885   6.052  0.3424 -0.0813 -0.2639
 1516ntf    fn410581   0.158   6.184   5.846  0.1381  0.0532 -0.1024
 1516ntf    fn410582   0.301   6.325   5.909  0.2822  0.1873 -0.1581
 1516ntf    fn410583   0.362   6.127   5.840 -0.2146  0.0259  0.0883
 1516ntf    on510584   0.378   6.195   6.141 -0.2995  0.2493  0.0816
 1516ntf    on510585   0.128   6.204   6.124 -0.1025 -0.2936  0.3637
 1516ntf    on510586   0.264   5.755   6.100 -0.5695  0.5792  0.0551
 1516ntf    on510587   0.357   5.893   6.282  0.6458  0.4180 -0.2297
 1516ntf    fn410588   0.552   5.991   6.087 -0.1892  0.2673 -0.2610
 1516ntf    fn410589   0.564   5.782   6.072  0.3547 -0.0987 -0.4010
 1516ntf    fn410590   0.463   5.888   5.921 -0.2041 -0.6363 -0.1974
 1517ntf    cn110591   3.347   5.065   5.706 -0.0407 -0.2137  0.1209
 1517ntf    sn210592   3.407   5.232   5.746  0.4653 -0.4111  0.1981
 1517ntf    nn310593   3.526   5.194   5.840  0.2790 -0.6053  0.3570
 1517ntf    sn210594   3.658   5.118   5.802  0.3973  0.0014 -0.4546
 1517ntf    cn110595   3.769   5.169   5.936  0.1160 -0.0898 -0.1869
 1517ntf    fn410596   3.450   4.992   5.667 -0.1501 -0.2656 -0.0703
 1517ntf    fn410597   3.298   4.996   5.807  0.4494  0.0374  0.5353
 1517ntf    fn410598   3.270   5.066   5.598  0.3123  0.0138 -0.1318
 1517ntf    on510599   3.438   5.295   5.620 -0.2570 -0.3367  0.0510
 1517ntf    on510600   3.301   5.300   5.817  1.0230  0.3410  0.3289
 1517ntf    on510601   3.731   5.167   5.687  0.2095  1.2915 -0.0428
 1517ntf    on510602   3.652   4.977   5.829  0.0362 -0.0087 -0.5821
 1517ntf    fn410603   3.735   5.137   6.060  0.4550  0.1706 -0.0246
 1517ntf    fn410604   3.892   5.125   5.912  0.0281  0.0029 -0.8036
 1517ntf    fn410605   3.793   5.299   5.932  0.3028 -0.1047  0.3118
 1518ntf    cn110606   4.253   2.776   4.752  0.1866  0.1929 -0.3652
 1518ntf    sn210607   4.400   2.877   4.717  0.2441  0.1788 -0.1679
 1518ntf    nn310608   4.453   2.908   4.861  0.3457  0.4205 -0.2578
 1518ntf    sn210609   4.597   2.880   4.916 -0.0131 -0.0958  0.4346
 1518ntf    cn110610   4.565   2.910   5.092 -0.5454 -0.0165  0.3252
 1518ntf    fn410611   4.161   2.856   4.805  0.6799  0.2109  0.4821
 1518ntf    fn410612   4.203   2.710   4.649 -0.3684  0.0023  0.0217
 1518ntf    fn410613   4.273   2.685   4.845 -0.8683  0.1799 -0.1379
 1518ntf    on510614   4.484   2.790   4.638 -0.1211  0.0814 -0.4532
 1518ntf    on510615   4.356   2.998   4.652 -0.0270  0.2602  0.1676
 1518ntf    on510616   4.690   2.982   4.875 -0.2175 -0.2275 -0.3619
 1518ntf    on510617   4.640   2.743   4.913  0.4585  0.0545  0.2674
 1518ntf    fn410618   4.478   2.824   5.144 -0.2070 -0.7778 -0.3595
 1518ntf    fn410619   4.675   2.888   5.161  0.3234  0.3503 -0.9206
 1518ntf    fn410620   4.522   3.034   5.110  0.2498  0.3056 -0.0032
 1519ntf    cn110621   2.485   1.712   1.962 -0.1774  0.3706  0.0162
 1519ntf    sn210622   2.607   1.600   1.886 -0.3262  0.0688  0.2173
 1519ntf    nn310623   2.718   1.578   1.994  0.0243  0.2427 -0.1053
 1519ntf    sn210624   2.725   1.464   2.102  0.1623 -0.0564 -0.4271
 1519ntf    cn110625   2.802   1.325   2.013  0.3864 -0.2325  0.0416
 1519ntf    fn410626   2.549   1.821   1.998  0.0231  0.3358 -0.2298
 1519ntf    fn410627   2.398   1.756   1.873 -0.7260  0.1210  0.4268
 1519ntf    fn410628   2.420   1.665   2.067 -0.6124  0.0550 -0.3882
 1519ntf    on510629   2.540   1.476   1.853  0.2611 -0.2389  0.1731
 1519ntf    on510630   2.651   1.682   1.775  0.4714 -0.2716  0.2791
 1519ntf    on510631   2.597   1.414   2.147  0.2115  0.3598  0.1855
 1519ntf    on510632   2.821   1.495   2.205 -0.3032 -0.1672  0.0425
 1519ntf    fn410633   2.909   1.364   1.946 -0.1133  0.3851 -0.4091
 1519ntf    fn410634   2.841   1.232   2.100  0.2546  0.0849  0.4450
 1519ntf    fn410635   2.723   1.262   1.927  0.4442 -0.2218 -0.0185
 1520ntf    cn110636   3.371   5.283   0.380  0.1344 -0.3374  0.1765
 1520ntf    sn210637   3.208   5.222   0.329 -0.0342  0.2497  0.0044
 1520ntf    nn310638   3.233   5.072   0.292 -0.0374  0.2641 -0.0587
 1520ntf    sn210639   3.252   4.997   0.155 -0.4314  0.1959 -0.0769
 1520ntf    cn110640   3.346   4.847   0.198 -0.3221  0.3223  0.1258
 1520ntf    fn410641   3.367   5.412   0.409  0.1785 -0.2233 -0.3096
 1520ntf    fn410642   3.427   5.226   0.485  0.0055 -0.3644  0.2296
 1520ntf    fn410643   3.459   5.270   0.281 -0.0876  0.2679 -0.1107
 1520ntf    on510644   3.125   5.229   0.447  0.6009 -0.3972  0.4945
 1520ntf    on510645   3.170   5.301   0.214  0.0442  0.3871  0.0737
 1520ntf    on510646   3.345   5.065   0.069  0.2557  0.1354  0.6052
 1520ntf    on510647   3.132   4.948   0.092 -0.4807 -0.1471  0.2766
 1520ntf    fn410648   3.389   4.784   0.090 -0.0954  0.1288  0.3293
 1520ntf    fn410649   3.454   4.874   0.270  0.1747 -0.6957 -0.2249
 1520ntf    fn410650   3.275   4.760   0.268  0.2484  0.5670  1.0236
 1521ntf    cn110651   3.188   4.645   1.825 -0.1043 -0.0071  0.0806
 1521ntf    sn210652   3.053   4.527   1.854  0.0925 -0.2195  0.1334
 1521ntf    nn310653   2.974   4.547   1.720  0.3583  0.3104  0.0532
 1521ntf    sn210654   2.856   4.642   1.679  0.1358 -0.0020 -0.0331
 1521ntf    cn110655   2.716   4.550   1.750  0.2707 -0.1225  0.0777
 1521ntf    fn410656   3.149   4.771   1.829  0.7542  0.2754 -0.1252
 1521ntf    fn410657   3.283   4.627   1.916  0.0791 -0.5709 -0.2155
 1521ntf    fn410658   3.248   4.630   1.707 -0.1005  0.3822  0.0340
 1521ntf    on510659   3.122   4.402   1.878  0.2992 -0.1456 -0.0684
 1521ntf    on510660   2.988   4.585   1.969  0.1347  0.2329 -0.0704
 1521ntf    on510661   2.842   4.634   1.536  0.0589  0.4634 -0.0527
 1521ntf    on510662   2.848   4.771   1.742  0.3245 -0.1414  0.2778
 1521ntf    fn410663   2.715   4.427   1.701 -1.2348 -0.2292  0.3098
 1521ntf    fn410664   2.730   4.532   1.880  0.3106 -0.2723  0.0519
 1521ntf    fn410665   2.597   4.606   1.731 -0.1221 -0.8034  0.5076
 1522ntf    cn110666   4.611   1.120   5.050  0.3516  0.2004  0.3019
 1522ntf    sn210667   4.620   1.097   4.870 -0.1932 -0.1949  0.3228
 1522ntf    nn310668   4.708   0.967   4.860 -0.1274 -0.1196 -0.1141
 1522ntf    sn210669   4.836   0.943   4.773  0.1317  0.2654  0.1601
 1522ntf    cn110670   4.964   1.032   4.867  0.8087 -0.1930 -0.3194
 1522ntf    fn410671   4.553   1.235   5.079 -0.1535 -0.0947  0.4600
 1522ntf    fn410672   4.542   1.021   5.104  0.3032 -0.0830 -0.2758
 1522ntf    fn410673   4.729   1.122   5.109  0.3483  0.1652  0.3098
 1522ntf    on510674   4.479   1.078   4.845 -0.3041  0.8490  0.0988
 1522ntf    on510675   4.678   1.226   4.837 -0.6142  0.0072  0.3670
 1522ntf    on510676   4.837   1.001   4.641  0.6170 -0.2531 -0.0692
 1522ntf    on510677   4.878   0.805   4.779 -0.2652  0.1480  0.2312
 1522ntf    fn410678   4.967   0.995   4.994 -0.0825 -0.5201 -0.3922
 1522ntf    fn410679   5.085   1.004   4.821  0.9328  0.3060 -0.3022
 1522ntf    fn410680   4.944   1.163   4.867  0.1498 -0.2785  0.8771
 1523ntf    cn110681   1.966   3.681   1.921  0.0899 -0.2044  0.0610
 1523ntf    sn210682   1.821   3.790   1.922  0.2814  0.0553 -0.1075
 1523ntf    nn310683   1.844   3.849   1.778  0.3788  0.2765 -0.0012
 1523ntf    sn210684   1.809   3.992   1.724  0.1043  0.1514 -0.1568
 1523ntf    cn110685   1.951   4.086   1.787  0.1691 -0.0375 -0.0195
 1523ntf    fn410686   2.079   3.730   1.872 -0.3384  0.6194 -0.1267
 1523ntf    fn410687   1.988   3.642   2.045  0.0175  0.3910  0.2617
 1523ntf    fn410688   1.951   3.565   1.859 -0.1162  0.2097 -0.6736
 1523ntf    on510689   1.704   3.706   1.936  0.1850  0.2739  0.4143
 1523ntf    on510690   1.845   3.876   2.035  0.0463 -0.4913  0.3634
 1523ntf    on510691   1.691   4.055   1.776  0.2722  0.2082  0.1582
 1523ntf    on510692   1.818   3.998   1.580 -0.0607 -0.1823 -0.1811
 1523ntf    fn410693   2.066   4.032   1.749  0.3312  0.0882  0.2843
 1523ntf    fn410694   1.960   4.214   1.753  0.0016 -0.0311 -0.0382
 1523ntf    fn410695   1.963   4.087   1.919 -0.2365  0.0033  0.0185
 1524ntf    cn110696   6.659   0.688   6.160  0.1248 -0.0165 -0.4419
 1524ntf    sn210697   6.515   0.711   6.052 -0.2825  0.0636  0.1119
 1524ntf    nn310698   6.582   0.715   5.910 -0.0861 -0.2800  0.1949
 1524ntf    sn210699   6.514   0.765   5.778  0.1311 -0.3911  0.0421
 1524ntf    cn110700   6.535   0.618   5.673 -0.2688 -0.1902 -0.3227
 1524ntf    fn410701   6.754   0.774   6.130  0.3287 -0.1861 -0.2818
 1524ntf    fn410702   6.634   0.688   6.291 -0.6501 -0.2135 -0.5812
 1524ntf    fn410703   6.705   0.568   6.128 -0.2932 -0.1726 -0.4726
 1524ntf    on510704   6.427   0.601   6.082 -0.3732  0.0390 -0.2335
 1524ntf    on510705   6.464   0.840   6.094 -0.5171  0.1006 -0.2786
 1524ntf    on510706   6.591   0.858   5.699 -0.1062 -0.4183 -0.2235
 1524ntf    on510707   6.373   0.794   5.778  0.2980  0.4388  0.1549
 1524ntf    fn410708   6.502   0.635   5.546 -0.6647 -0.5731 -0.2732
 1524ntf    fn410709   6.663   0.584   5.680 -0.2200  0.1033  0.2863
 1524ntf    fn410710   6.459   0.521   5.720  0.3719 -0.4756  0.1421
 1525ntf    cn110711   1.156   2.150   6.008  0.1339  0.0767 -0.3348
 1525ntf    sn210712   1.228   2.273   5.894  0.0749  0.2013 -0.2369
 1525ntf    nn310713   1.099   2.361   5.879 -0.0726  0.1093  0.4213
 1525ntf    sn210714   1.072   2.508   5.927 -0.2201  0.1712  0.1548
 1525ntf    cn110715   0.989   2.583   5.784 -0.2799  0.3818  0.2984
 1525ntf    fn410716   1.241   2.059   6.054 -0.2348 -0.1975 -0.1965
 1525ntf    fn410717   1.109   2.211   6.115 -0.0185 -0.4044 -0.1278
 1525ntf    fn410718   1.055   2.083   5.956 -0.1890  0.1083  0.2515
 1525ntf    on510719   1.330   2.323   5.982  0.3968  0.0272 -0.5120
 1525ntf    on510720   1.267   2.199   5.778  0.5977 -0.1249  0.1440
 1525ntf    on510721   1.185   2.596   5.946 -0.0859  0.1356 -0.4590
 1525ntf    on510722   0.965   2.504   6.023 -0.0787 -0.0689  0.3023
 1525ntf    fn410723   1.062   2.582   5.673 -0.4150 -0.4636  0.2100
 1525ntf    fn410724   0.885   2.515   5.737  0.5451 -0.4896 -0.3116
 1525ntf    fn410725   0.958   2.708   5.812 -0.6383  0.2116  0.6650
 1526ntf    cn110726   6.600   5.363   5.580 -0.0914  0.0034  0.0103
 1526ntf    sn210727   6.546   5.456   5.726 -0.1308 -0.4012  0.2560
 1526ntf    nn310728   6.445   5.558   5.661  0.3488 -0.2883 -0.3148
 1526ntf    sn210729   6.321   5.631   5.724  0.3461 -0.6504  0.1047
 1526ntf    cn110730   6.337   5.797   5.650 -0.4380 -0.5263  0.2077
 1526ntf    fn410731   6.501   5.291   5.530 -0.1524  0.3288 -0.3396
 1526ntf    fn410732   6.640   5.446   5.485 -0.1340  0.1563  0.1255
 1526ntf    fn410733   6.698   5.281   5.615  0.0370  0.2511  0.2371
 1526ntf    on510734   6.495   5.351   5.811  0.3307 -0.7353  0.1202
 1526ntf    on510735   6.666   5.516   5.779  0.2011 -0.4103 -0.4775
 1526ntf    on510736   6.321   5.654   5.867 -0.7352 -0.3598  0.0656
 1526ntf    on510737   6.198   5.591   5.661  0.0339 -0.5828  0.6635
 1526ntf    fn410738   6.294   5.893   5.729 -0.0328 -0.0541 -0.1407
 1526ntf    fn410739   6.462   5.831   5.626 -0.6145  0.0520  0.1093
 1526ntf    fn410740   6.273   5.810   5.535  0.4115  0.2763 -0.1789
 1527ntf    cn110741   3.962   5.758   0.761  0.1742  0.1516 -0.0770
 1527ntf    sn210742   4.089   5.638   0.709 -0.0924 -0.1442 -0.0480
 1527ntf    nn310743   4.213   5.686   0.792 -0.0699 -0.3453  0.0358
 1527ntf    sn210744   4.268   5.628   0.927 -0.0719 -0.2713  0.0689
 1527ntf    cn110745   4.378   5.493   0.873 -0.1377 -0.0878 -0.5308
 1527ntf    fn410746   3.982   5.879   0.712 -0.2093  0.2503  0.0057
 1527ntf    fn410747   3.847   5.730   0.703  0.1573  0.2505 -0.0911
 1527ntf    fn410748   3.939   5.763   0.892  0.1049  0.1770 -0.0900
 1527ntf    on510749   4.040   5.509   0.752 -0.6166  0.1177  0.1554
 1527ntf    on510750   4.107   5.663   0.569 -0.2687  0.1392 -0.0206
 1527ntf    on510751   4.178   5.561   1.017 -0.3620  0.0568  0.0228
 1527ntf    on510752   4.363   5.715   0.992  0.3826 -0.2024 -0.6692
 1527ntf    fn410753   4.305   5.396   0.821  0.2580 -0.5095 -0.3066
 1527ntf    fn410754   4.472   5.524   0.785  0.3247 -0.0414 -0.0302
 1527ntf    fn410755   4.446   5.432   0.969  0.1143  0.2709 -0.4779
 1528ntf    cn110756   2.969   0.825   6.404  0.1717  0.4708 -0.0613
 1528ntf    sn210757   2.977   0.650   6.357  0.1849  0.4602 -0.0192
 1528ntf    nn310758   2.827   0.616   6.326  0.3127  0.0287 -0.1757
 1528ntf    sn210759   2.755   0.529   6.217  0.1702 -0.1788  0.0807
 1528ntf    cn110760   2.707   0.651   6.091  0.2687 -0.2997 -0.0749
 1528ntf    fn410761   2.891   0.853   6.507  0.0601  0.1238 -0.0501
 1528ntf    fn410762   3.086   0.869   6.448  0.1126  0.0265  0.5534
 1528ntf    fn410763   2.937   0.901   6.300 -0.2559 -0.0589 -0.3201
 1528ntf    on510764   3.055   0.650   6.236 -0.5371 -0.2399 -0.4994
 1528ntf    on510765   3.036   0.585   6.471 -0.4505 -0.1398 -0.0251
 1528ntf    on510766   2.634   0.472   6.270  0.3027 -0.2353  0.3238
 1528ntf    on510767   2.847   0.448   6.140  0.5707 -0.0810  0.4519
 1528ntf    fn410768   2.692   0.593   5.973 -0.2639 -0.1329 -0.0935
 1528ntf    fn410769   2.596   0.717   6.122  0.6193  0.1514  0.2317
 1528ntf    fn410770   2.802   0.741   6.078 -0.1244  0.1088 -0.1595
 1529ntf    cn110771   3.055   0.756   4.429 -0.0883  0.0368  0.0510
 1529ntf    sn210772   3.136   0.902   4.357  0.1465 -0.0185  0.2002
 1529ntf    nn310773   3.040   0.964   4.250  0.8532  0.3266 -0.2456
 1529ntf    sn210774   2.928   1.072   4.270  0.4493 -0.1455  0.0655
 1529ntf    cn110775   3.031   1.221   4.253  0.1584  0.0916  0.3745
 1529ntf    fn410776   2.945   0.784   4.497 -0.2204  0.0313 -0.1596
 1529ntf    fn410777   3.015   0.666   4.342 -0.4660  0.2132  0.0397
 1529ntf    fn410778   3.133   0.689   4.513 -0.0217 -0.3545 -0.3221
 1529ntf    on510779   3.157   0.987   4.471  0.3184 -0.1811  0.2899
 1529ntf    on510780   3.253   0.852   4.288 -0.0183  0.1519 -0.2066
 1529ntf    on510781   2.865   1.072   4.400 -0.2398  0.0720 -0.2609
 1529ntf    on510782   2.843   1.069   4.153  0.5250 -0.1136  0.0093
 1529ntf    fn410783   3.115   1.238   4.354  0.2396 -0.0409  0.3280
 1529ntf    fn410784   3.091   1.224   4.135 -0.1989 -0.0317  0.1885
 1529ntf    fn410785   2.959   1.332   4.255 -0.0635 -0.0132 -0.9350
 1530ntf    cn110786   6.363   5.327   4.552  0.1508  0.0536 -0.3903
 1530ntf    sn210787   6.449   5.244   4.689 -0.0028  0.2086 -0.1998
 1530ntf    nn310788   6.436   5.093   4.648  0.1052  0.2072 -0.2268
 1530ntf    sn210789   6.317   4.997   4.682  0.2631  0.0764 -0.0395
 1530ntf    cn110790   6.393   4.891   4.809  0.1113 -0.2793 -0.2445
 1530ntf    fn410791   6.426   5.306   4.438  0.3012 -0.2220 -0.2581
 1530ntf    fn410792   6.241   5.276   4.551 -0.0789  0.5778  0.0609
 1530ntf    fn410793   6.349   5.458   4.567  0.2056  0.0703 -0.4853
 1530ntf    on510794   6.583   5.297   4.675  0.0920 -0.0755 -0.3712
 1530ntf    on510795   6.371   5.283   4.804 -0.5370 -0.4214 -0.3439
 1530ntf    on510796   6.303   4.916   4.563 -0.1502  0.0450  0.0313
 1530ntf    on510797   6.199   5.050   4.744  0.3623  0.2089  0.0348
 1530ntf    fn410798   6.328   4.779   4.836 -0.1751  0.0128  0.2957
 1530ntf    fn410799   6.515   4.852   4.778  0.3784 -0.4062  0.9450
 1530ntf    fn410800   6.398   4.953   4.926 -0.1865 -0.4332 -0.1472
 1531ntf    cn110801   0.620   2.724   0.796  0.0913 -0.2972  0.2015
 1531ntf    sn210802   0.605   2.555   0.731 -0.0048 -0.1381 -0.1933
 1531ntf    nn310803   0.753   2.511   0.758  0.0905  0.1253 -0.2872
 1531ntf    sn210804   0.866   2.475   0.655  0.4127 -0.0946  0.1390
 1531ntf    cn110805   0.852   2.295   0.674 -0.2471 -0.0072  0.4856
 1531ntf    fn410806   0.713   2.787   0.725 -0.1303  0.4092  0.5342
 1531ntf    fn410807   0.510   2.796   0.779  0.0901 -0.3138  0.1394
 1531ntf    fn410808   0.652   2.727   0.924  0.1818 -0.0489  0.1739
 1531ntf    on510809   0.508   2.502   0.824 -0.1261  0.3860 -0.0154
 1531ntf    on510810   0.566   2.566   0.592 -0.2909  0.0432 -0.0988
 1531ntf    on510811   0.996   2.514   0.705  0.7749 -0.6159 -0.3803
 1531ntf    on510812   0.849   2.497   0.514  0.3556 -0.3526  0.1059
 1531ntf    fn410813   0.943   2.233   0.601 -0.0799  0.7239  0.0623
 1531ntf    fn410814   0.861   2.246   0.797 -0.1696 -0.5072  0.2808
 1531ntf    fn410815   0.738   2.254   0.620  0.0457 -0.5854  0.3015
 1532ntf    cn110816   0.492   0.766   1.301  0.0615  0.1560 -0.2191
 1532ntf    sn210817   0.643   0.857   1.345 -0.0416  0.0987  0.2628
 1532ntf    nn310818   0.587   1.004   1.346 -0.1307  0.0664  0.0579
 1532ntf    sn210819   0.475   1.071   1.434 -0.1086  0.1199  0.0451
 1532ntf    cn110820   0.570   1.185   1.538 -0.3488  0.2176  0.1572
 1532ntf    fn410821   0.512   0.648   1.245 -0.4662  0.0075 -0.0986
 1532ntf    fn410822   0.402   0.747   1.396 -0.1095 -0.1571 -0.4457
 1532ntf    fn410823   0.421   0.830   1.210 -0.0539  0.3215 -0.0135
 1532ntf    on510824   0.688   0.810   1.474  0.4712 -0.2633 -0.0432
 1532ntf    on510825   0.729   0.843   1.230 -0.8922  0.2723 -0.4058
 1532ntf    on510826   0.416   0.975   1.523  0.1259  0.2704  0.3639
 1532ntf    on510827   0.387   1.162   1.365  0.0910  0.4378  0.2090
 1532ntf    fn410828   0.668   1.121   1.600 -0.2654  0.0377 -0.1615
 1532ntf    fn410829   0.634   1.277   1.467  0.2415 -0.3052  0.0041
 1532ntf    fn410830   0.501   1.255   1.626 -0.0389  0.3947  0.2624
 1533ntf    cn110831   4.809   4.136   2.275 -0.1423 -0.1551 -0.0042
 1533ntf    sn210832   4.933   4.246   2.200 -0.0949 -0.1273  0.1134
 1533ntf    nn310833   5.043   4.155   2.134  0.0383 -0.0160  0.1821
 1533ntf    sn210834   5.101   4.145   1.989 -0.1321 -0.0822  0.1176
 1533ntf    cn110835   5.266   4.074   2.015 -0.1072  0.0970  0.4506
 1533ntf    fn410836   4.686   4.177   2.251 -0.2889 -0.2897  0.4845
 1533ntf    fn410837   4.815   4.016   2.218 -0.2386 -0.0122 -0.3125
 1533ntf    fn410838   4.824   4.119   2.406  0.5922 -0.0876 -0.0712
 1533ntf    on510839   4.850   4.322   2.110  0.0625 -0.3253 -0.2042
 1533ntf    on510840   4.989   4.325   2.306 -0.0771 -0.0624  0.0557
 1533ntf    on510841   5.124   4.267   1.916  0.3565 -0.1875  0.0930
 1533ntf    on510842   5.031   4.042   1.917  0.1959  0.0369 -0.3775
 1533ntf    fn410843   5.251   3.957   2.076 -0.0444 -0.0375  0.2095
 1533ntf    fn410844   5.341   4.059   1.907 -0.1418  0.2106  0.4113
 1533ntf    fn410845   5.331   4.152   2.100  0.0668  0.2069  0.2181
 1534ntf    cn110846   2.519   5.761   0.817  0.1017 -0.1290 -0.1439
 1534ntf    sn210847   2.608   5.739   0.974  0.4077 -0.0411 -0.3049
 1534ntf    nn310848   2.615   5.888   1.022  0.3560 -0.2312  0.2967
 1534ntf    sn210849   2.612   5.964   1.159  0.0873  0.1069  0.1051
 1534ntf    cn110850   2.518   6.112   1.111 -0.4277 -0.2445  0.0348
 1534ntf    fn410851   2.574   5.856   0.744  0.1414  0.0232  0.0821
 1534ntf    fn410852   2.518   5.653   0.741  0.9960 -0.2449 -0.0028
 1534ntf    fn410853   2.394   5.797   0.841 -0.1463 -0.7698 -0.4578
 1534ntf    on510854   2.522   5.662   1.060 -0.0495  0.4110 -0.3571
 1534ntf    on510855   2.735   5.686   0.930  0.5244  0.2223 -0.2843
 1534ntf    on510856   2.742   6.019   1.192  0.3233 -0.2504 -0.2202
 1534ntf    on510857   2.535   5.898   1.262 -0.3899  0.0637 -0.2770
 1534ntf    fn410858   2.577   6.178   1.014 -0.5239 -0.1123  0.0664
 1534ntf    fn410859   2.396   6.088   1.064 -0.3092 -0.1261 -0.3368
 1534ntf    fn410860   2.501   6.204   1.204  0.3611 -0.2336  0.1704
 1535ntf    cn110861   2.309   4.376   1.020 -0.1379 -0.2175  0.4016
 1535ntf    sn210862   2.209   4.507   1.097  0.1237 -0.0258  0.4184
 1535ntf    nn310863   2.065   4.481   1.042 -0.0223 -0.6250  1.0599
 1535ntf    sn210864   1.924   4.517   1.102 -0.1569  0.2841  0.2187
 1535ntf    cn110865   1.881   4.663   1.002 -0.3150  0.1872  0.1455
 1535ntf    fn410866   2.265   4.262   1.070 -0.2060 -0.4448 -0.1727
 1535ntf    fn410867   2.293   4.363   0.889 -0.0860 -0.7302  0.4429
 1535ntf    fn410868   2.438   4.389   1.049  0.1035 -0.4054 -0.5464
 1535ntf    on510869   2.224   4.473   1.237 -0.0318  0.1408  0.4750
 1535ntf    on510870   2.269   4.626   1.043 -0.1901 -0.0274  0.0655
 1535ntf    on510871   1.933   4.576   1.233 -0.6804  0.0627  0.3556
 1535ntf    on510872   1.815   4.428   1.073 -0.1804  0.4199 -0.1170
 1535ntf    fn410873   1.967   4.759   1.029 -0.2167  0.2560 -0.3994
 1535ntf    fn410874   1.893   4.637   0.873 -0.1518  0.3038  0.1373
 1535ntf    fn410875   1.759   4.709   1.028 -0.2219  0.2997  0.3865
 1536ntf    cn110876   4.793   6.038   6.420  0.0497 -0.2623 -0.3336
 1536ntf    sn210877   4.934   6.147   6.381 -0.1296 -0.0030 -0.2632
 1536ntf    nn310878   4.892   6.160   6.230  0.1469  0.5312 -0.2950
 1536ntf    sn210879   4.904   6.048   6.120 -0.1691  0.2844 -0.0815
 1536ntf    cn110880   5.042   6.118   6.024  0.0857  0.4468  0.3995
 1536ntf    fn410881   4.787   6.015   6.550 -0.1315  0.0013 -0.2932
 1536ntf    fn410882   4.683   6.105   6.389  0.2483  0.4350  0.4150
 1536ntf    fn410883   4.798   5.924   6.354 -0.5812 -0.5894  0.1725
 1536ntf    on510884   4.925   6.266   6.461 -0.1844 -0.2620  0.1188
 1536ntf    on510885   5.057   6.074   6.398 -0.2627 -0.1295  0.1650
 1536ntf    on510886   4.796   6.052   6.024  0.3037  0.4435 -0.6121
 1536ntf    on510887   4.956   5.919   6.156 -0.8563 -0.0677 -0.3482
 1536ntf    fn410888   5.081   6.039   5.925  0.1134  0.3729  0.4708
 1536ntf    fn410889   5.008   6.234   5.971 -0.7264  0.0978  0.1377
 1536ntf    fn410890   5.159   6.143   6.080  0.5373 -0.2897 -0.1988
 1537ntf    cn110891   2.122   2.065   5.452  0.2054 -0.2495 -0.1646
 1537ntf    sn210892   2.173   2.130   5.289  0.1288  0.1389 -0.0340
 1537ntf    nn310893   2.286   2.022   5.272 -0.0437 -0.1857  0.8053
 1537ntf    sn210894   2.343   1.952   5.144 -0.0284  0.5134  0.4261
 1537ntf    cn110895   2.260   1.791   5.157 -0.0010  0.4293 -0.3493
 1537ntf    fn410896   2.226   2.053   5.533 -0.3134  0.0170  0.5495
 1537ntf    fn410897   2.036   2.145   5.511  0.0675 -0.0671 -0.6041
 1537ntf    fn410898   2.067   1.945   5.440 -0.4164  0.0124  0.0522
 1537ntf    on510899   2.054   2.108   5.211 -0.3786  0.0481  0.7465
 1537ntf    on510900   2.218   2.264   5.316 -0.3697  0.2882  0.0718
 1537ntf    on510901   2.483   1.922   5.161 -0.1532 -0.1653  0.2653
 1537ntf    on510902   2.302   2.002   5.015  0.0667  0.4117  0.3564
 1537ntf    fn410903   2.298   1.701   5.068  0.5604  0.4792 -0.1665
 1537ntf    fn410904   2.291   1.737   5.275  0.3736  0.0041 -0.6382
 1537ntf    fn410905   2.129   1.796   5.148 -0.0416  0.0540 -0.0119
 1538ntf    cn110906   0.805   3.376   3.261 -0.1755  0.1547 -0.0582
 1538ntf    sn210907   0.754   3.280   3.115  0.2094 -0.3200  0.1137
 1538ntf    nn310908   0.786   3.379   2.997 -0.2123 -0.0928  0.1856
 1538ntf    sn210909   0.688   3.441   2.892 -0.1337 -0.0119  0.1593
 1538ntf    cn110910   0.770   3.386   2.739 -0.0838  0.0594  0.1606
 1538ntf    fn410911   0.768   3.313   3.371  0.3541 -0.2657 -0.1159
 1538ntf    fn410912   0.936   3.390   3.270 -0.2036  0.5210 -0.1832
 1538ntf    fn410913   0.753   3.497   3.264  0.1524  0.2943  0.0550
 1538ntf    on510914   0.842   3.167   3.117  0.6539  0.0171 -0.2261
 1538ntf    on510915   0.615   3.265   3.150  0.1526  0.7755  0.4125
 1538ntf    on510916   0.690   3.584   2.877 -0.2614  0.0283  0.5218
 1538ntf    on510917   0.557   3.383   2.873 -0.0383 -0.0255 -0.4836
 1538ntf    fn410918   0.708   3.419   2.627  0.5791 -0.2778 -0.3080
 1538ntf    fn410919   0.896   3.425   2.731 -0.0077 -0.0389  0.8579
 1538ntf    fn410920   0.776   3.254   2.732 -0.2163  0.0841 -0.5136
 1539ntf    cn110921   2.876   5.926   2.502 -0.3659  0.7018 -0.2793
 1539ntf    sn210922   2.936   5.974   2.667 -0.0326 -0.0304 -0.1823
 1539ntf    nn310923   2.993   6.112   2.619 -0.3757  0.2026  0.0660
 1539ntf    sn210924   3.143   6.150   2.591 -0.3032  0.1616  0.3942
 1539ntf    cn110925   3.204   6.220   2.747  0.2257 -0.0803  0.2975
 1539ntf    fn410926   2.979   5.876   2.437 -0.2997  0.2915  0.1358
 1539ntf    fn410927   2.779   5.836   2.502  0.0569  0.2362  0.1553
 1539ntf    fn410928   2.828   6.026   2.430 -0.4839  0.2785 -0.7922
 1539ntf    on510929   2.821   5.988   2.754 -0.0633  0.5545 -0.3095
 1539ntf    on510930   3.033   5.873   2.699 -0.2177 -0.1761 -0.0806
 1539ntf    on510931   3.151   6.262   2.499  0.4385  0.4065  0.7467
 1539ntf    on510932   3.233   6.043   2.558 -1.0776 -0.5292  0.4919
 1539ntf    fn410933   3.122   6.306   2.806 -0.2479  0.0780 -0.5832
 1539ntf    fn410934   3.211   6.115   2.829 -0.3232 -0.4019 -0.0614
 1539ntf    fn410935   3.322   6.278   2.740  0.0538  0.2120 -0.2458
 1540ntf    cn110936   4.885   1.416   6.395 -0.3656  0.3236  0.0857
 1540ntf    sn210937   5.011   1.287   6.411 -0.7224 -0.0273  0.0748
 1540ntf    nn310938   5.125   1.363   6.334 -0.5595 -0.2800  0.0630
 1540ntf    sn210939   5.197   1.327   6.200 -0.3031  0.0885  0.0984
 1540ntf    cn110940   5.318   1.207   6.263 -0.1494  0.0699 -0.2262
 1540ntf    fn410941   4.771   1.355   6.425 -0.1974 -0.0581 -0.0475
 1540ntf    fn410942   4.899   1.521   6.474  0.3098  0.3061 -0.0105
 1540ntf    fn410943   4.888   1.464   6.271  0.6074  0.0006 -0.0225
 1540ntf    on510944   5.027   1.271   6.553 -0.7094  0.6802  0.1540
 1540ntf    on510945   4.957   1.173   6.340 -0.5085 -0.1616  0.1242
 1540ntf    on510946   5.280   1.436   6.154  0.1709 -0.3065  0.0079
 1540ntf    on510947   5.122   1.256   6.099 -0.1228 -0.3041  0.2383
 1540ntf    fn410948   5.272   1.082   6.261 -0.0181  0.0182 -0.0640
 1540ntf    fn410949   5.424   1.201   6.185 -0.1148 -0.1357 -0.1634
 1540ntf    fn410950   5.348   1.230   6.390 -0.0275  0.3073 -0.2985
 1541ntf    cn110951   4.660   6.620   2.838  0.5239  0.0226 -0.2094
 1541ntf    sn210952   4.627   6.585   2.662  0.0730  0.1622 -0.1530
 1541ntf    nn310953   4.643   6.429   2.663 -0.0616  0.1431 -0.7770
 1541ntf    sn210954   4.769   6.343   2.626  0.0389 -0.0231 -0.0591
 1541ntf    cn110955   4.714   6.276   2.466 -0.1574 -0.1344  0.0546
 1541ntf    fn410956   4.606   6.534   2.922  0.2098 -0.3564 -0.7884
 1541ntf    fn410957   4.788   6.614   2.872  0.4484  0.1051  0.0890
 1541ntf    fn410958   4.627   6.743   2.874 -0.5611 -0.1391 -0.6242
 1541ntf    on510959   4.487   6.620   2.651  0.1065  0.6544  0.8597
 1541ntf    on510960   4.721   6.658   2.581  0.1707 -0.3430 -0.4912
 1541ntf    on510961   4.779   6.224   2.707 -0.2821 -0.0957 -0.1241
 1541ntf    on510962   4.890   6.412   2.592  0.3317 -0.3656  0.2732
 1541ntf    fn410963   4.704   6.381   2.386 -0.0837 -0.4687 -0.3930
 1541ntf    fn410964   4.805   6.193   2.418  0.4655  0.2435  0.5593
 1541ntf    fn410965   4.599   6.210   2.477 -0.1334 -0.2511 -0.4067
 1542ntf    cn110966   5.059   3.306   4.030  0.0520 -0.2346 -0.3221
 1542ntf    sn210967   4.940   3.333   4.165  0.2069 -0.3200 -0.1688
 1542ntf    nn310968   4.810   3.351   4.079  0.1735 -0.2415 -0.1010
 1542ntf    sn210969   4.662   3.300   4.093  0.3153 -0.6537 -0.0894
 1542ntf    cn110970   4.629   3.236   3.927 -0.1047  0.0336 -0.2769
 1542ntf    fn410971   5.054   3.398   3.936 -0.4773  0.1779  0.0960
 1542ntf    fn410972   5.180   3.315   4.083 -0.0932 -0.0848 -0.0116
 1542ntf    fn410973   5.048   3.189   3.970 -0.4215  0.0946 -0.8902
 1542ntf    on510974   4.954   3.217   4.250  0.5512 -0.1104  0.0631
 1542ntf    on510975   4.989   3.455   4.225  0.3423 -0.3036 -0.3143
 1542ntf    on510976   4.570   3.410   4.108  0.3313 -0.6277 -0.1802
 1542ntf    on510977   4.642   3.184   4.176 -0.2045 -0.4202  0.1134
 1542ntf    fn410978   4.538   3.139   3.925  0.1452 -0.2155  0.2985
 1542ntf    fn410979   4.594   3.334   3.846  0.1693  0.5032  0.1716
 1542ntf    fn410980   4.743   3.185   3.882  0.0015  0.1814 -0.1732
 1543ntf    cn110981   4.456   1.181   0.076 -0.2713  0.4197 -0.4353
 1543ntf    sn210982   4.389   1.340   0.019 -0.1098  0.5254 -0.3314
 1543ntf    nn310983   4.501   1.440   0.063  0.2638 -0.0953  0.1354
 1543ntf    sn210984   4.532   1.512   0.199 -0.0009  0.1187  0.0828
 1543ntf    cn110985   4.456   1.675   0.171  0.0325  0.1476  0.1592
 1543ntf    fn410986   4.565   1.151   0.009 -0.2040 -0.0400 -0.1229
 1543ntf    fn410987   4.487   1.191   0.204 -0.1855 -0.3914 -0.3897
 1543ntf    fn410988   4.366   1.084   0.068  0.1164  0.0248 -0.0445
 1543ntf    on510989   4.382   1.319  -0.124  0.3140  0.1880 -0.3063
 1543ntf    on510990   4.269   1.364   0.095 -0.0571  0.4488 -0.2246
 1543ntf    on510991   4.673   1.538   0.218  0.0203 -0.2906  0.5180
 1543ntf    on510992   4.454   1.461   0.309 -0.2104 -0.4314 -0.3192
 1543ntf    fn410993   4.462   1.754   0.277  0.3139 -0.3862  0.5445
 1543ntf    fn410994   4.507   1.744   0.070 -0.1921  0.6506  0.3848
 1543ntf    fn410995   4.325   1.660   0.161  0.0149  0.6897 -0.5007
 1544ntf    cn110996   5.002   5.658   2.528 -0.1875 -0.3273  0.3327
 1544ntf    sn210997   5.042   5.568   2.374  0.1288  0.1763  0.1198
 1544ntf    nn310998   5.133   5.672   2.298 -0.2672  0.0469 -0.5349
 1544ntf    sn210999   5.286   5.698   2.318 -0.2915 -0.1271 -0.1069
 1544ntf    cn111000   5.363   5.589   2.194  0.4361  0.0967  0.1410
 1544ntf    fn411001   5.116   5.686   2.587  0.0514 -0.1076 -0.2208
 1544ntf    fn411002   4.947   5.777   2.514  0.4057 -0.1154 -0.2588
 1544ntf    fn411003   4.929   5.587   2.613 -0.1708 -0.2487  0.4115
 1544ntf    on511004   5.096   5.441   2.416  0.1659  0.1095 -0.1328
 1544ntf    on511005   4.910   5.559   2.318  0.2653  0.3405 -0.2280
 1544ntf    on511006   5.342   5.642   2.439  0.3312  0.2149 -0.2351
 1544ntf    on511007   5.323   5.834   2.287  0.1819 -0.1964  0.1335
 1544ntf    fn411008   5.343   5.628   2.069  0.7525  0.1903  0.1198
 1544ntf    fn411009   5.494   5.598   2.207  0.3839  0.0458  0.7340
 1544ntf    fn411010   5.324   5.463   2.205 -0.3756  0.3323  0.0754
 1545ntf    cn111011   3.908   5.085   6.343 -0.0745  0.1007  0.0980
 1545ntf    sn211012   3.764   5.066   6.452 -0.0905  0.2189  0.0973
 1545ntf    nn311013   3.757   4.910   6.461  0.1535  0.2282  0.5039
 1545ntf    sn211014   3.822   4.819   6.570  0.0607 -0.0126  0.3603
 1545ntf    cn111015   3.730   4.850   6.724  0.0938  0.2181  0.3337
 1545ntf    fn411016   3.879   5.034   6.224 -0.3987  0.5211 -0.0061
 1545ntf    fn411017   3.955   5.207   6.322  0.1162 -0.0534 -0.3853
 1545ntf    fn411018   4.015   5.020   6.386  0.2039  0.3560 -0.2052
 1545ntf    on511019   3.800   5.138   6.572 -0.1179  0.2604  0.0808
 1545ntf    on511020   3.648   5.111   6.380  0.1978  0.9871  0.1006
 1545ntf    on511021   3.954   4.855   6.617  0.1321  0.2234 -0.0171
 1545ntf    on511022   3.803   4.679   6.542  0.1795  0.0165  0.1333
 1545ntf    fn411023   3.767   4.757   6.810  0.4889 -0.3154 -0.3998
 1545ntf    fn411024   3.756   4.968   6.777  0.4879  0.1426  0.3127
 1545ntf    fn411025   3.600   4.845   6.703  0.1732  0.0998 -0.1355
 1546ntf    cn111026   1.867   5.861   4.047 -0.1179  0.1696  0.1963
 1546ntf    sn211027   1.767   5.709   4.052 -0.4050  0.3661  0.4719
 1546ntf    nn311028   1.862   5.619   3.966 -0.1981  0.3913  0.6750
 1546ntf    sn211029   1.950   5.502   4.023 -0.1874 -0.0539 -0.2417
 1546ntf    cn111030   1.818   5.377   4.019 -0.4656  0.2356 -0.0878
 1546ntf    fn411031   1.991   5.847   4.092 -0.1098  0.9598  0.4467
 1546ntf    fn411032   1.868   5.934   3.937  0.9749 -0.0501  0.0516
 1546ntf    fn411033   1.807   5.942   4.132 -0.5439 -0.1360  0.1898
 1546ntf    on511034   1.750   5.686   4.193 -0.3448  0.2839  0.4656
 1546ntf    on511035   1.646   5.742   3.981 -0.0218  0.1069 -0.3085
 1546ntf    on511036   1.997   5.513   4.159  0.2079  0.4835 -0.4194
 1546ntf    on511037   2.050   5.454   3.930  0.2651  0.2925  0.0620
 1546ntf    fn411038   1.872   5.257   4.036  0.5576  0.7145  0.0825
 1546ntf    fn411039   1.726   5.395   4.113 -0.3718  0.6061 -0.0675
 1546ntf    fn411040   1.757   5.370   3.902 -0.8428 -0.4233  0.1387
 1547ntf    cn111041   6.700   5.103   5.222 -0.1581  0.3781  0.2507
 1547ntf    sn211042   6.844   5.026   5.304 -0.0929  0.1545 -0.0732
 1547ntf    nn311043   6.802   4.875   5.296  0.1628  0.0494  0.5340
 1547ntf    sn211044   6.713   4.796   5.398  0.1430  0.0974  0.5540
 1547ntf    cn111045   6.548   4.791   5.320  0.3558 -0.1450  0.1205
 1547ntf    fn411046   6.666   5.028   5.118  0.2763 -0.0102  0.3842
 1547ntf    fn411047   6.597   5.109   5.305  0.1338  0.1574  0.6321
 1547ntf    fn411048   6.732   5.226   5.187 -0.3539  0.4692  0.3912
 1547ntf    on511049   6.950   5.054   5.210 -0.0125  0.1869  0.0276
 1547ntf    on511050   6.845   5.077   5.439 -0.2665 -0.2152  0.0693
 1547ntf    on511051   6.684   4.862   5.523  0.1363  0.8051  0.1828
 1547ntf    on511052   6.753   4.658   5.396  0.6252  0.2449  0.0917
 1547ntf    fn411053   6.508   4.916   5.307 -0.5488 -0.4426 -0.0035
 1547ntf    fn411054   6.555   4.751   5.194 -0.6185  0.6449 -0.1906
 1547ntf    fn411055   6.457   4.713   5.376  0.0880  0.2658  0.2612
 1548ntf    cn111056   1.424   4.488   5.565 -0.1877 -0.1093 -0.2894
 1548ntf    sn211057   1.249   4.447   5.536 -0.3476  0.2211  0.2022
 1548ntf    nn311058   1.264   4.293   5.511 -0.2496  0.2528  0.0604
 1548ntf    sn211059   1.297   4.213   5.380  0.1897 -0.0641  0.3647
 1548ntf    cn111060   1.133   4.189   5.305  0.3962  0.4801 -0.2705
 1548ntf    fn411061   1.435   4.609   5.616  0.5234 -0.4808  0.4534
 1548ntf    fn411062   1.481   4.414   5.658 -0.0919  0.2296 -0.0801
 1548ntf    fn411063   1.504   4.486   5.460 -0.0511  0.3093 -0.1941
 1548ntf    on511064   1.185   4.483   5.660 -0.9495 -0.5407  0.1206
 1548ntf    on511065   1.214   4.525   5.419  0.2622  0.2018  0.0063
 1548ntf    on511066   1.353   4.082   5.403  0.2861 -0.2334 -0.7998
 1548ntf    on511067   1.365   4.289   5.278 -0.1181 -0.2016  0.0564
 1548ntf    fn411068   1.064   4.299   5.279 -0.0467  0.3763  0.4524
 1548ntf    fn411069   1.148   4.137   5.185  0.1355  0.1232 -0.1502
 1548ntf    fn411070   1.053   4.103   5.366  0.9040  0.0767 -0.1609
 1549ntf    cn111071   0.928   2.824   3.322 -0.0658  0.1467  0.1346
 1549ntf    sn211072   0.949   2.701   3.189  0.3858  0.0240  0.3158
 1549ntf    nn311073   0.849   2.583   3.217  0.4513 -0.2818 -0.7067
 1549ntf    sn211074   0.726   2.532   3.134 -0.0794 -0.2925  0.0731
 1549ntf    cn111075   0.772   2.356   3.133 -0.1861 -0.3196 -0.1886
 1549ntf    fn411076   0.832   2.913   3.303 -0.6213 -0.4546  0.0744
 1549ntf    fn411077   0.901   2.766   3.438 -0.5326 -0.4353 -0.2533
 1549ntf    fn411078   1.033   2.903   3.332 -0.0237  0.1658 -0.4169
 1549ntf    on511079   0.918   2.769   3.066 -0.1974  0.0762  0.4868
 1549ntf    on511080   1.087   2.666   3.206  0.4701  0.3922  0.4075
 1549ntf    on511081   0.726   2.559   2.992  0.0460  0.8185  0.2731
 1549ntf    on511082   0.603   2.541   3.209 -0.1450  0.1170 -0.0833
 1549ntf    fn411083   0.767   2.314   3.259  0.0901  0.5738  0.1296
 1549ntf    fn411084   0.693   2.282   3.058  0.1955 -0.1345 -0.7804
 1549ntf    fn411085   0.897   2.326   3.101 -0.0684  0.1381 -0.1645
 1550ntf    cn111086   6.368   4.460   0.306 -0.3251 -0.1310  0.4650
 1550ntf    sn211087   6.299   4.626   0.278  0.0229 -0.0042  0.3498
 1550ntf    nn311088   6.176   4.641   0.374 -0.3637 -0.4309 -0.0764
 1550ntf    sn211089   6.179   4.699   0.519 -0.0451 -0.0574 -0.2320
 1550ntf    cn111090   6.172   4.874   0.471 -0.1276  0.0020 -0.0086
 1550ntf    fn411091   6.440   4.419   0.203 -0.3664  0.4367  0.2053
 1550ntf    fn411092   6.444   4.456   0.414  0.2420  0.7026  0.1094
 1550ntf    fn411093   6.269   4.375   0.322 -0.0191 -0.6743 -0.4407
 1550ntf    on511094   6.410   4.714   0.304  0.0205 -0.0606  0.5594
 1550ntf    on511095   6.253   4.605   0.143 -0.3014 -0.8726  0.5877
 1550ntf    on511096   6.301   4.685   0.595 -0.2589 -0.5073  0.0292
 1550ntf    on511097   6.058   4.684   0.596  0.1726 -0.1479  0.0950
 1550ntf    fn411098   6.051   4.901   0.424 -0.2161 -0.1933  0.1098
 1550ntf    fn411099   6.180   4.949   0.579  0.9724  0.2496 -0.2451
 1550ntf    fn411100   6.260   4.924   0.385 -0.0048  0.4315  0.3656
 1551ntf    cn111101   5.869   2.490   6.526 -0.1386 -0.1781 -0.5867
 1551ntf    sn211102   5.922   2.564   6.683 -0.0369  0.3940 -0.8856
 1551ntf    nn311103   5.870   2.712   6.678  0.1033  0.5045  0.5739
 1551ntf    sn211104   5.938   2.844   6.627  0.5170  0.0239 -0.1361
 1551ntf    cn111105   5.998   2.907   6.787  0.3051 -0.5708  0.1794
 1551ntf    fn411106   5.737   2.475   6.524 -0.1663 -0.0779  0.2075
 1551ntf    fn411107   5.903   2.551   6.413  0.2077 -0.0582 -0.4193
 1551ntf    fn411108   5.927   2.372   6.522  0.7064  0.1876  0.4239
 1551ntf    on511109   5.842   2.488   6.775  0.2464  0.6624 -0.4139
 1551ntf    on511110   6.065   2.552   6.690 -0.1261 -0.3873 -0.2905
 1551ntf    on511111   5.848   2.946   6.579 -0.7044 -0.5555  0.8539
 1551ntf    on511112   6.054   2.813   6.548  0.4352 -0.1870 -0.1741
 1551ntf    fn411113   6.054   3.025   6.772 -0.4019 -0.2714 -0.1793
 1551ntf    fn411114   5.905   2.917   6.881 -0.0307  0.6471 -0.2672
 1551ntf    fn411115   6.084   2.819   6.835  0.3502 -0.5564  0.1229
 1552ntf    cn111116   4.592   4.895   0.422  0.3449 -0.0761 -0.0769
 1552ntf    sn211117   4.473   4.786   0.340  0.2058 -0.0303  0.0656
 1552ntf    nn311118   4.546   4.754   0.205 -0.4833 -0.2365 -0.2676
 1552ntf    sn211119   4.540   4.831   0.068  0.1458  0.1362 -0.0897
 1552ntf    cn111120   4.610   4.705  -0.043  0.2250  0.2207 -0.1360
 1552ntf    fn411121   4.704   4.836   0.461  0.5730  0.3908 -0.0163
 1552ntf    fn411122   4.631   4.993   0.341 -0.1830 -0.2137 -0.5045
 1552ntf    fn411123   4.538   4.948   0.530  0.7011 -0.0063  0.0686
 1552ntf    on511124   4.462   4.681   0.438 -0.1320  0.0135  0.0769
 1552ntf    on511125   4.361   4.875   0.319  0.0722 -0.1201  0.3868
 1552ntf    on511126   4.631   4.942   0.053 -0.1341  0.3576 -0.1345
 1552ntf    on511127   4.407   4.841   0.013 -0.1952 -0.3420  0.6286
 1552ntf    fn411128   4.530   4.600  -0.043 -0.1208  0.4810  0.1143
 1552ntf    fn411129   4.632   4.749  -0.166 -0.4975  1.2594  0.0946
 1552ntf    fn411130   4.728   4.662  -0.003  0.0845 -0.0987 -0.0657
 1553ntf    cn111131   3.034   5.990   4.719 -0.0816 -0.1475  0.1814
 1553ntf    sn211132   2.987   6.114   4.596  0.0792 -0.0438  0.2241
 1553ntf    nn311133   2.900   6.211   4.684 -0.4574  0.2462 -0.6120
 1553ntf    sn211134   2.890   6.367   4.690  0.1174  0.2611  0.0916
 1553ntf    cn111135   2.730   6.407   4.614  0.0492 -0.2725 -0.0488
 1553ntf    fn411136   3.102   6.043   4.820  0.1649  0.1971 -0.1630
 1553ntf    fn411137   2.928   5.944   4.783 -0.2147  0.5164  0.4399
 1553ntf    fn411138   3.101   5.887   4.669 -0.0119 -0.2424  0.4665
 1553ntf    on511139   3.119   6.167   4.570  0.1108 -0.5653 -0.7158
 1553ntf    on511140   2.915   6.041   4.494  0.0586  0.3622 -0.0571
 1553ntf    on511141   2.972   6.442   4.597  0.2381 -0.4858 -0.4110
 1553ntf    on511142   2.887   6.418   4.825  0.5462  0.1386  0.1476
 1553ntf    fn411143   2.640   6.321   4.660  0.2018  0.0673  0.8981
 1553ntf    fn411144   2.689   6.528   4.650 -0.0661 -0.2994 -0.0897
 1553ntf    fn411145   2.733   6.394   4.482  0.6098 -0.1972 -0.0446
 1554ntf    cn111146   5.289   1.593   0.982  0.0133  0.1856 -0.0562
 1554ntf    sn211147   5.176   1.469   0.913  0.0287  0.1446 -0.0083
 1554ntf    nn311148   5.271   1.372   0.833 -0.2462 -0.5284  0.4688
 1554ntf    sn211149   5.350   1.403   0.701 -0.1858 -0.3611  0.5440
 1554ntf    cn111150   5.493   1.293   0.719  0.0768 -0.1415 -0.1687
 1554ntf    fn411151   5.277   1.708   0.918  0.5639  0.0213 -0.4625
 1554ntf    fn411152   5.269   1.613   1.111 -0.4407 -0.2550 -0.0537
 1554ntf    fn411153   5.415   1.552   0.982  0.0159  0.1943  0.2903
 1554ntf    on511154   5.120   1.408   1.031 -0.1814 -0.4418 -0.4041
 1554ntf    on511155   5.088   1.539   0.822 -0.0080  0.3986  0.2232
 1554ntf    on511156   5.400   1.538   0.692 -0.4035 -0.3093  0.0731
 1554ntf    on511157   5.298   1.352   0.577  0.2110  0.8952 -0.1575
 1554ntf    fn411158   5.560   1.326   0.828 -0.9052  0.2662  0.3191
 1554ntf    fn411159   5.449   1.168   0.729  0.5247 -0.2551  0.4495
 1554ntf    fn411160   5.581   1.295   0.620  0.1452 -0.3316 -0.1141
 1555ntf    cn111161   4.337   3.125   2.780  0.0863 -0.0682  0.4043
 1555ntf    sn211162   4.443   3.068   2.643  0.0053 -0.0572  0.3373
 1555ntf    nn311163   4.357   2.954   2.579 -0.3113  0.2305  0.2425
 1555ntf    sn211164   4.419   2.817   2.532 -0.3972  0.3644 -0.2741
 1555ntf    cn111165   4.437   2.716   2.682  0.1651  0.4749 -0.2645
 1555ntf    fn411166   4.385   3.230   2.845  0.2807 -0.1919  0.4618
 1555ntf    fn411167   4.218   3.167   2.740  0.0420  0.1257  0.7396
 1555ntf    fn411168   4.315   3.027   2.865 -0.3067  0.0243  0.4082
 1555ntf    on511169   4.451   3.183   2.555 -0.3391 -0.1474  0.1874
 1555ntf    on511170   4.564   3.023   2.707  0.5391  0.2003 -0.4662
 1555ntf    on511171   4.553   2.817   2.478 -0.4701 -0.1777 -0.4604
 1555ntf    on511172   4.324   2.745   2.452 -0.1032  0.0567 -0.3493
 1555ntf    fn411173   4.531   2.756   2.766  0.0986 -0.4311  0.2638
 1555ntf    fn411174   4.323   2.722   2.749  0.0727 -0.2601 -0.3452
 1555ntf    fn411175   4.462   2.588   2.658  0.1913  0.3213  0.5380
 1556ntf    cn111176   1.684   2.203   1.376  0.5039 -0.1880  0.0311
 1556ntf    sn211177   1.671   2.038   1.453  0.1126 -0.2987 -0.2693
 1556ntf    nn311178   1.821   1.995   1.438  0.2811  0.1142  0.2059
 1556ntf    sn211179   1.917   1.906   1.525  0.2854 -0.0772  0.0056
 1556ntf    cn111180   2.045   2.021   1.584  0.2075  0.0294 -0.0333
 1556ntf    fn411181   1.576   2.280   1.379  0.3999 -0.3177 -0.3284
 1556ntf    fn411182   1.784   2.267   1.434  0.1727  0.4099 -0.0500
 1556ntf    fn411183   1.715   2.187   1.248  0.2493 -0.1993 -0.0299
 1556ntf    on511184   1.630   2.066   1.588 -0.5246  0.3359 -0.5848
 1556ntf    on511185   1.575   1.965   1.374 -0.0955 -0.2076 -0.1014
 1556ntf    on511186   1.986   1.801   1.455  0.0141 -0.0921 -0.2437
 1556ntf    on511187   1.863   1.862   1.651  0.2599 -0.2382 -0.0606
 1556ntf    fn411188   2.121   1.961   1.674  0.0366  0.0152  0.1029
 1556ntf    fn411189   2.119   2.060   1.482 -0.0649  0.0647 -0.2211
 1556ntf    fn411190   1.986   2.125   1.640  0.1220 -0.1609  0.2346
 1557ntf    cn111191   0.762   5.391   3.742 -0.0389  0.3109  0.0685
 1557ntf    sn211192   0.834   5.532   3.832  0.0151  0.2891  0.0590
 1557ntf    nn311193   0.932   5.589   3.723  0.5689  0.0559  0.4312
 1557ntf    sn211194   0.954   5.734   3.667 -0.1346  0.0268  0.0768
 1557ntf    cn111195   1.124   5.769   3.720 -0.1771 -0.2506  0.4020
 1557ntf    fn411196   0.653   5.345   3.802  0.4923 -0.3159  0.5751
 1557ntf    fn411197   0.734   5.422   3.616 -0.5886 -0.0901  0.0863
 1557ntf    fn411198   0.843   5.287   3.739 -0.7615 -0.2722  0.2966
 1557ntf    on511199   0.721   5.616   3.860 -0.1610  0.0639  0.0353
 1557ntf    on511200   0.902   5.473   3.945 -0.3411 -0.1541  0.0429
 1557ntf    on511201   0.880   5.842   3.728  0.1554  0.0008  0.4759
 1557ntf    on511202   0.955   5.726   3.523  0.2190 -0.0745  0.0861
 1557ntf    fn411203   1.203   5.665   3.698  1.0075  0.7026  0.0096
 1557ntf    fn411204   1.184   5.868   3.656 -0.3097 -0.3054  0.1924
 1557ntf    fn411205   1.135   5.790   3.850 -0.6607 -0.4207  0.4728
 1558ntf    cn111206   4.517   6.251   0.362 -0.3341 -0.1315 -0.1784
 1558ntf    sn211207   4.455   6.395   0.270 -0.1308  0.0304 -0.0622
 1558ntf    nn311208   4.386   6.470   0.389  0.0043  0.5446 -0.3038
 1558ntf    sn211209   4.230   6.474   0.410  0.0014 -0.1593 -0.1392
 1558ntf    cn111210   4.200   6.609   0.291  0.1802 -0.1003 -0.1182
 1558ntf    fn411211   4.420   6.204   0.439  0.2001 -1.0233 -0.0342
 1558ntf    fn411212   4.561   6.153   0.284  0.6856  0.3740 -0.2504
 1558ntf    fn411213   4.616   6.286   0.442 -0.0674 -0.2702 -0.4452
 1558ntf    on511214   4.578   6.451   0.219 -0.1621 -0.0325 -0.2058
 1558ntf    on511215   4.369   6.338   0.169  0.2493 -0.0525 -0.3403
 1558ntf    on511216   4.192   6.523   0.540  0.0069  0.0421 -0.2129
 1558ntf    on511217   4.148   6.364   0.367  0.1131 -0.0798 -0.5620
 1558ntf    fn411218   4.242   6.575   0.169 -0.7443  0.0732 -0.4906
 1558ntf    fn411219   4.074   6.646   0.273  0.0776 -0.2623  0.2648
 1558ntf    fn411220   4.274   6.712   0.329 -0.0181 -0.1472  0.4042
 1559ntf    cn111221   2.509   3.298   0.389  0.0470 -0.0319 -0.1632
 1559ntf    sn211222   2.528   3.236   0.219  0.0744 -0.2049 -0.0968
 1559ntf    nn311223   2.403   3.299   0.148  0.0823 -0.2615 -0.1613
 1559ntf    sn211224   2.398   3.383   0.015 -0.0340 -0.0958 -0.0525
 1559ntf    cn111225   2.410   3.254  -0.111  0.0942  0.0561 -0.1965
 1559ntf    fn411226   2.535   3.428   0.388  0.7456 -0.1630  0.4732
 1559ntf    fn411227   2.388   3.286   0.441  0.2047  0.1578  0.2533
 1559ntf    fn411228   2.592   3.249   0.478  0.4997  0.2403 -0.4310
 1559ntf    on511229   2.656   3.276   0.167  0.4530 -0.8669  0.3048
 1559ntf    on511230   2.502   3.095   0.235 -0.0940 -0.1675 -0.0384
 1559ntf    on511231   2.505   3.475  -0.018 -0.0999 -0.0934 -0.2583
 1559ntf    on511232   2.264   3.432  -0.006  0.0058 -0.0131 -0.1164
 1559ntf    fn411233   2.535   3.216  -0.128  0.1464  0.1210  0.0416
 1559ntf    fn411234   2.336   3.152  -0.071 -0.1668  0.1305 -0.4812
 1559ntf    fn411235   2.376   3.295  -0.233  0.1670  0.3881 -0.1052
 1560ntf    cn111236   6.222   4.083   4.056 -0.2249 -0.2032 -0.2957
 1560ntf    sn211237   6.214   3.907   4.011  0.1382 -0.2996  0.0162
 1560ntf    nn311238   6.329   3.855   4.106  0.3385  0.4471  0.1891
 1560ntf    sn211239   6.314   3.800   4.252 -0.2631 -0.0753 -0.0632
 1560ntf    cn111240   6.485   3.829   4.307 -0.2533 -0.1443 -0.0560
 1560ntf    fn411241   6.347   4.126   4.053 -0.1131 -0.5407 -0.5586
 1560ntf    fn411242   6.163   4.164   3.970  0.1022  0.4773  0.1160
 1560ntf    fn411243   6.178   4.115   4.176  0.8164 -0.0740  0.0644
 1560ntf    on511244   6.081   3.865   4.046  0.0605  0.1542  0.2636
 1560ntf    on511245   6.239   3.910   3.870  0.1271 -0.7420  0.0019
 1560ntf    on511246   6.298   3.656   4.247 -0.5291 -0.0221 -0.7728
 1560ntf    on511247   6.236   3.879   4.344 -0.7898 -0.4696 -0.1651
 1560ntf    fn411248   6.489   3.814   4.439  0.1985 -0.3199 -0.0896
 1560ntf    fn411249   6.580   3.752   4.258  0.0972 -0.0240  0.4188
 1560ntf    fn411250   6.528   3.954   4.292 -0.1043 -0.2160 -0.2181
 1561ntf    cn111251   5.005   0.084   3.361 -0.3957  0.4083  0.1468
 1561ntf    sn211252   5.029   0.223   3.246  0.0698  0.2012 -0.0073
 1561ntf    nn311253   5.184   0.215   3.224  0.1288 -0.1813  0.5185
 1561ntf    sn211254   5.294   0.317   3.271 -0.0523  0.0938  0.3485
 1561ntf    cn111255   5.446   0.228   3.229 -0.2956 -0.0620 -0.2049
 1561ntf    fn411256   5.019  -0.030   3.296  0.0195  0.4723  0.1226
 1561ntf    fn411257   5.100   0.091   3.454  0.3274 -0.0307 -0.5479
 1561ntf    fn411258   4.887   0.076   3.421 -0.1662 -0.2427  0.5207
 1561ntf    on511259   4.950   0.168   3.139  0.5875 -0.0866 -0.2459
 1561ntf    on511260   4.975   0.340   3.311 -0.1748  0.0346  0.0895
 1561ntf    on511261   5.305   0.323   3.415 -0.1121  0.4153  0.3397
 1561ntf    on511262   5.304   0.438   3.194  0.2131 -0.1226  0.0404
 1561ntf    fn411263   5.462   0.193   3.102  0.3768 -0.0673 -0.1219
 1561ntf    fn411264   5.559   0.287   3.266 -0.2984 -0.2377  0.0876
 1561ntf    fn411265   5.443   0.113   3.296 -0.3059 -0.0016 -0.1020
 1562ntf    cn111266   3.614   5.786   0.119 -0.3222  0.3478 -0.1753
 1562ntf    sn211267   3.658   5.954   0.067 -0.0745  0.3603  0.0727
 1562ntf    nn311268   3.617   5.936  -0.084  0.4626  0.7180 -0.1187
 1562ntf    sn211269   3.502   6.006  -0.165 -0.1264 -0.1150 -0.0179
 1562ntf    cn111270   3.585   6.135  -0.264 -0.4639  0.0889 -0.0343
 1562ntf    fn411271   3.666   5.688   0.047  0.1616  0.3504  0.1701
 1562ntf    fn411272   3.665   5.753   0.236  0.1476  0.8563 -0.2300
 1562ntf    fn411273   3.484   5.761   0.121 -0.3255  0.3942  0.1779
 1562ntf    on511274   3.568   6.039   0.142 -0.5032  0.1968 -0.2497
 1562ntf    on511275   3.800   5.964   0.085  0.0803 -0.3137 -0.6929
 1562ntf    on511276   3.411   6.088  -0.090  0.0761 -0.2023  0.3263
 1562ntf    on511277   3.438   5.917  -0.259 -0.0726 -0.7819  0.5756
 1562ntf    fn411278   3.507   6.202  -0.348 -0.0558  0.1378 -0.3737
 1562ntf    fn411279   3.651   6.221  -0.188 -0.3110  0.2639 -0.3641
 1562ntf    fn411280   3.675   6.078  -0.341 -0.4317  0.4056 -0.2308
 1563ntf    cn111281   3.875   1.973   0.926  0.0789  0.0257  0.4394
 1563ntf    sn211282   3.768   2.074   0.819  0.2969 -0.1480  0.0588
 1563ntf    nn311283   3.871   2.092   0.701  0.2955  0.0924  0.0942
 1563ntf    sn211284   3.878   2.191   0.580  0.1568  0.1518  0.1344
 1563ntf    cn111285   3.856   2.069   0.447  0.1168  0.2527  0.0477
 1563ntf    fn411286   3.947   2.049   1.008 -0.4902  0.1621  0.8222
 1563ntf    fn411287   3.806   1.887   0.999  0.0397 -0.2859  0.0330
 1563ntf    fn411288   3.960   1.902   0.855 -0.1877  0.4761 -0.3461
 1563ntf    on511289   3.659   1.988   0.781  0.4931 -0.2130 -0.3638
 1563ntf    on511290   3.745   2.190   0.902  0.4772 -0.0557 -0.0188
 1563ntf    on511291   4.008   2.252   0.561  0.2523 -0.1407 -0.1719
 1563ntf    on511292   3.763   2.275   0.560  0.0926 -0.0047 -0.1584
 1563ntf    fn411293   3.876   2.128   0.331 -0.3058 -0.1801 -0.2472
 1563ntf    fn411294   3.935   1.963   0.459  0.0310  0.1736 -0.0887
 1563ntf    fn411295   3.731   2.026   0.450  0.2077 -0.0097  0.1344
 1564ntf    cn111296   3.667   4.422   1.168 -0.0038 -0.3411  0.2981
 1564ntf    sn211297   3.842   4.371   1.164  0.1952  0.3598 -0.0938
 1564ntf    nn311298   3.835   4.278   1.038  0.0107 -0.2409  0.3588
 1564ntf    sn211299   3.948   4.187   0.979 -0.0784 -0.0528 -0.1017
 1564ntf    cn111300   4.004   4.294   0.843 -0.0822  0.4474  0.2884
 1564ntf    fn411301   3.619   4.446   1.047  0.3506 -0.3315  0.1586
 1564ntf    fn411302   3.587   4.332   1.223 -0.0975 -0.3008  0.2283
 1564ntf    fn411303   3.655   4.537   1.231 -0.0929 -0.4456  0.4698
 1564ntf    on511304   3.918   4.493   1.152 -0.0824  0.5383 -0.0678
 1564ntf    on511305   3.851   4.312   1.295 -0.2227  0.7119  0.0966
 1564ntf    on511306   3.903   4.067   0.913 -0.0892 -0.4287  0.5830
 1564ntf    on511307   4.068   4.178   1.058  0.4196 -0.5109 -0.8970
 1564ntf    fn411308   4.095   4.244   0.760 -0.4260 -0.0872  0.2289
 1564ntf    fn411309   3.902   4.319   0.761 -0.0853  0.3599  0.2664
 1564ntf    fn411310   4.049   4.413   0.882 -0.0604  0.6843 -0.4397
 1565ntf    cn111311   6.545   6.155   4.156 -0.0111 -0.3609  0.0490
 1565ntf    sn211312   6.653   6.191   4.298  0.1017  0.0367 -0.1371
 1565ntf    nn311313   6.549   6.270   4.385 -0.1781 -0.0891 -0.3532
 1565ntf    sn211314   6.527   6.425   4.391 -0.0357 -0.0787 -0.0417
 1565ntf    cn111315   6.647   6.480   4.516 -0.1665  0.0245  0.0384
 1565ntf    fn411316   6.604   6.079   4.066  0.2850 -0.0644 -0.0063
 1565ntf    fn411317   6.434   6.094   4.194 -0.0478 -0.1004  0.3602
 1565ntf    fn411318   6.505   6.267   4.099 -0.3840 -0.3402  0.3512
 1565ntf    on511319   6.674   6.062   4.359  0.0991 -0.0504 -0.3174
 1565ntf    on511320   6.768   6.259   4.243 -0.1316  0.0592 -0.6074
 1565ntf    on511321   6.403   6.465   4.453 -0.1333 -0.7351  0.1955
 1565ntf    on511322   6.559   6.502   4.273 -0.2632 -0.5144 -0.3925
 1565ntf    fn411323   6.618   6.601   4.562  0.1796  0.3707 -0.6381
 1565ntf    fn411324   6.641   6.399   4.620  0.3592  0.0655  0.1018
 1565ntf    fn411325   6.765   6.481   4.456 -0.1390 -0.0869  0.0927
 1566ntf    cn111326   2.281   0.674   0.838 -0.2293  0.0532 -0.0038
 1566ntf    sn211327   2.246   0.551   0.968 -0.3954 -0.0507 -0.1467
 1566ntf    nn311328   2.358   0.590   1.071  0.2253  0.4424 -0.9958
 1566ntf    sn211329   2.342   0.698   1.184  0.0265 -0.4924 -0.1191
 1566ntf    cn111330   2.298   0.588   1.322 -0.0237 -0.6102 -0.2284
 1566ntf    fn411331   2.411   0.667   0.815 -0.2303 -0.3172  0.0924
 1566ntf    fn411332   2.220   0.658   0.722  0.3568 -0.7183 -0.2180
 1566ntf    fn411333   2.265   0.794   0.892 -0.4600 -0.0166  0.0851
 1566ntf    on511334   2.110   0.575   1.010 -0.1776 -0.1226  0.6082
 1566ntf    on511335   2.262   0.419   0.914  0.3991  0.1008 -0.2907
 1566ntf    on511336   2.230   0.789   1.178  0.1770 -0.2968  0.0235
 1566ntf    on511337   2.470   0.750   1.225 -0.1885 -0.0720  0.0235
 1566ntf    fn411338   2.198   0.512   1.281 -0.1207 -0.7161  0.2056
 1566ntf    fn411339   2.398   0.503   1.340  0.4304 -0.1747 -0.6549
 1566ntf    fn411340   2.275   0.643   1.440  0.7939 -0.4559 -0.1316
 1567ntf    cn111341   3.897   2.030   2.340 -0.3945  0.2628 -0.5888
 1567ntf    sn211342   3.896   2.180   2.443  0.2163 -0.0165 -0.1648
 1567ntf    nn311343   3.873   2.291   2.334  0.2145  0.3571  0.2169
 1567ntf    sn211344   3.985   2.355   2.244 -0.0277  0.3724 -0.0713
 1567ntf    cn111345   3.923   2.314   2.077 -0.0392  0.5144 -0.1010
 1567ntf    fn411346   3.990   2.039   2.246 -0.0155 -0.6968 -0.3253
 1567ntf    fn411347   3.918   1.913   2.399  0.2273  0.4036 -0.5221
 1567ntf    fn411348   3.782   2.014   2.276 -0.5673 -0.1293 -0.1888
 1567ntf    on511349   3.780   2.169   2.529 -0.0173  0.0589 -0.4668
 1567ntf    on511350   4.023   2.182   2.510  0.1026 -0.7616  0.0843
 1567ntf    on511351   4.112   2.286   2.245 -0.0089  0.4105  0.0562
 1567ntf    on511352   3.987   2.499   2.242 -0.7254  0.3876 -0.1263
 1567ntf    fn411353   3.792   2.324   2.070 -0.1636 -0.6036  0.4747
 1567ntf    fn411354   3.975   2.380   1.974 -0.0054  0.3276 -0.2030
 1567ntf    fn411355   3.944   2.189   2.042 -0.8975  0.2021  0.4825
 1568ntf    cn111356   5.865   3.248   6.088  0.2532  0.2801  0.2173
 1568ntf    sn211357   5.811   3.413   6.031  0.0190  0.0073 -0.3564
 1568ntf    nn311358   5.947   3.490   6.019  0.1306 -0.1144  0.0973
 1568ntf    sn211359   6.009   3.589   6.124 -0.0557 -0.0972  0.1902
 1568ntf    cn111360   6.176   3.518   6.131  0.2289  0.5956  0.5404
 1568ntf    fn411361   5.977   3.211   6.029  0.1705 -0.0004  0.2396
 1568ntf    fn411362   5.894   3.248   6.217 -0.0615  0.2598  0.2889
 1568ntf    fn411363   5.771   3.161   6.057  0.3046  0.0067  0.8221
 1568ntf    on511364   5.756   3.383   5.901 -0.1426 -0.2557 -0.2296
 1568ntf    on511365   5.721   3.456   6.135  0.0980 -0.8476  0.0806
 1568ntf    on511366   5.969   3.579   6.262 -0.2185 -0.2099  0.1346
 1568ntf    on511367   6.041   3.717   6.065 -0.6583 -0.3471 -0.7102
 1568ntf    fn411368   6.258   3.605   6.186  0.2627  0.5876  0.5030
 1568ntf    fn411369   6.191   3.407   6.202 -0.1589  0.2969  0.1625
 1568ntf    fn411370   6.227   3.496   6.011  0.2916 -0.0596  0.6828
 1569ntf    cn111371   2.117   3.266   3.732 -0.1310  0.3839  0.2978
 1569ntf    sn211372   2.242   3.145   3.680 -0.1539  0.5708 -0.1974
 1569ntf    nn311373   2.215   3.030   3.783  0.0019  0.3595 -0.3903
 1569ntf    sn211374   2.316   2.942   3.865 -0.0280  0.1664 -0.5624
 1569ntf    cn111375   2.300   3.022   4.027 -0.0639 -0.4836 -0.2393
 1569ntf    fn411376   2.120   3.301   3.859 -0.4111  0.1567  0.3690
 1569ntf    fn411377   2.132   3.379   3.664 -0.1077  0.0070 -0.3362
 1569ntf    fn411378   1.995   3.230   3.696  0.1945  0.1434 -0.5994
 1569ntf    on511379   2.217   3.111   3.542 -0.2792  0.4507 -0.1451
 1569ntf    on511380   2.360   3.226   3.695  0.1294  0.0198  0.5854
 1569ntf    on511381   2.454   2.945   3.824  0.0989 -0.4279 -0.1999
 1569ntf    on511382   2.271   2.809   3.898  0.2749  0.1602 -0.1667
 1569ntf    fn411383   2.394   2.981   4.110 -0.0008  0.4379  0.1625
 1569ntf    fn411384   2.327   3.150   4.005 -0.2078 -0.4507 -0.2314
 1569ntf    fn411385   2.182   3.017   4.088 -0.0020 -0.4104 -0.1145
 1570ntf    cn111386   5.696   0.525   2.736  0.1588 -0.1278  0.0246
 1570ntf    sn211387   5.875   0.501   2.752  0.1379 -0.3542 -0.0714
 1570ntf    nn311388   5.892   0.521   2.907 -0.1683 -0.5085 -0.0164
 1570ntf    sn211389   5.960   0.428   3.014 -0.0029 -0.2667  0.0905
 1570ntf    cn111390   5.811   0.386   3.109 -0.2759  0.2746 -0.0924
 1570ntf    fn411391   5.669   0.653   2.756 -0.0751 -0.2579  0.5642
 1570ntf    fn411392   5.665   0.504   2.609  0.2222 -0.1553  0.0135
 1570ntf    fn411393   5.618   0.452   2.815 -0.1861  0.1337 -0.0710
 1570ntf    on511394   5.881   0.365   2.705  0.1265 -0.2334 -0.4232
 1570ntf    on511395   5.931   0.605   2.670 -0.0255 -0.4512 -0.3049
 1570ntf    on511396   6.037   0.503   3.110 -0.1082  0.3741 -0.3171
 1570ntf    on511397   6.012   0.302   2.967 -0.7969 -0.3278 -0.6452
 1570ntf    fn411398   5.743   0.494   3.144 -0.1180  0.3204  0.0768
 1570ntf    fn411399   5.730   0.310   3.037  0.0770 -0.2124  0.0158
 1570ntf    fn411400   5.833   0.328   3.227  0.2983 -0.1729 -0.4168
 1571ntf    cn111401   3.694   1.511   5.367  0.0872 -0.5045  0.1038
 1571ntf    sn211402   3.526   1.497   5.435  0.0143 -0.2259 -0.0176
 1571ntf    nn311403   3.452   1.587   5.330 -0.0226 -0.0143  0.1901
 1571ntf    sn211404   3.407   1.737   5.338 -0.0382  0.0078 -0.2731
 1571ntf    cn111405   3.282   1.723   5.470 -0.0016 -0.0921 -0.2487
 1571ntf    fn411406   3.732   1.637   5.362 -0.1030 -0.4193  0.7778
 1571ntf    fn411407   3.785   1.441   5.433  0.6773 -0.2129 -0.3913
 1571ntf    fn411408   3.707   1.466   5.243 -0.0216 -0.2916  0.0156
 1571ntf    on511409   3.490   1.360   5.406  0.0791 -0.2403 -0.0292
 1571ntf    on511410   3.540   1.547   5.569 -0.3184 -0.6448  0.1776
 1571ntf    on511411   3.328   1.779   5.225 -0.5316 -0.2010 -0.0135
 1571ntf    on511412   3.505   1.831   5.387 -0.5889  0.3470  0.2110
 1571ntf    fn411413   3.331   1.737   5.592  0.0155 -0.3676 -0.2245
 1571ntf    fn411414   3.198   1.824   5.454  0.1268 -0.0514 -0.6761
 1571ntf    fn411415   3.207   1.614   5.479  0.3305 -0.2770  0.2984
 1572ntf    cn111416   5.143   2.217   0.291  0.0350 -0.2376  0.0191
 1572ntf    sn211417   5.018   2.125   0.386 -0.1803  0.1975  0.1592
 1572ntf    nn311418   4.896   2.138   0.288 -0.0978  0.8497  0.1404
 1572ntf    sn211419   4.740   2.129   0.304 -0.0645 -0.5167 -0.1771
 1572ntf    cn111420   4.697   1.981   0.208 -0.3062 -0.6141  0.0772
 1572ntf    fn411421   5.171   2.164   0.173  0.5258  0.2214 -0.0758
 1572ntf    fn411422   5.108   2.342   0.270  0.1674 -0.1651  0.2265
 1572ntf    fn411423   5.260   2.222   0.354  0.2369 -0.2592 -0.3500
 1572ntf    on511424   5.084   1.997   0.394 -0.5768 -0.0250 -0.0716
 1572ntf    on511425   5.015   2.206   0.505  0.7478  0.4677  0.0038
 1572ntf    on511426   4.672   2.238   0.238  0.2052 -0.3265 -0.1404
 1572ntf    on511427   4.705   2.083   0.436 -0.6922 -0.0492 -0.1731
 1572ntf    fn411428   4.764   1.877   0.255  0.3327 -0.1961  0.1084
 1572ntf    fn411429   4.568   1.956   0.205 -0.5317  0.4126  0.7484
 1572ntf    fn411430   4.733   1.992   0.081 -0.3188 -0.3136  0.0989
 1573ntf    cn111431   1.450   5.922   5.533 -0.4464 -0.0412 -0.0385
 1573ntf    sn211432   1.362   6.017   5.406 -0.1661 -0.1062 -0.2828
 1573ntf    nn311433   1.444   5.975   5.278 -0.0696  0.1160 -0.2944
 1573ntf    sn211434   1.553   6.066   5.212  0.0008  0.1338 -0.1542
 1573ntf    cn111435   1.463   6.182   5.105 -0.1238  0.2170  0.0391
 1573ntf    fn411436   1.379   5.900   5.642 -0.4993 -0.1416 -0.0927
 1573ntf    fn411437   1.500   5.804   5.498  0.0496  0.0934  0.2071
 1573ntf    fn411438   1.555   5.993   5.571 -0.3331 -0.1595 -0.1269
 1573ntf    on511439   1.233   5.954   5.400 -0.2720  0.0370  0.3694
 1573ntf    on511440   1.352   6.150   5.462  0.4459 -0.3872  0.5123
 1573ntf    on511441   1.643   5.991   5.128 -0.4876 -0.0710 -0.4961
 1573ntf    on511442   1.613   6.162   5.301 -0.8710  0.3385  0.2209
 1573ntf    fn411443   1.399   6.112   5.013 -0.0410 -0.1169  0.2356
 1573ntf    fn411444   1.370   6.255   5.164 -0.1663  0.0337  0.2014
 1573ntf    fn411445   1.543   6.264   5.038 -0.2619 -0.0344 -0.4433
 1574ntf    cn111446   6.376   0.235   3.812 -0.0842  0.0632 -0.2570
 1574ntf    sn211447   6.345   0.394   3.893 -0.1494 -0.0411 -0.0767
 1574ntf    nn311448   6.241   0.461   3.796 -0.1214 -0.2180 -0.2303
 1574ntf    sn211449   6.115   0.546   3.836 -0.2023 -0.3128 -0.2847
 1574ntf    cn111450   5.980   0.455   3.754 -0.5298  0.1252 -0.2368
 1574ntf    fn411451   6.392   0.252   3.681  0.4405 -0.4887 -0.2713
 1574ntf    fn411452   6.479   0.173   3.868 -0.0315  0.1604 -0.2458
 1574ntf    fn411453   6.272   0.155   3.826  0.5869 -0.7091  0.4323
 1574ntf    on511454   6.298   0.350   4.021  0.3314 -0.0721  0.0910
 1574ntf    on511455   6.476   0.454   3.888 -0.1349 -0.0634  0.0234
 1574ntf    on511456   6.105   0.672   3.766 -0.2035 -0.0229  0.2349
 1574ntf    on511457   6.081   0.555   3.976  0.0343  0.2766 -0.2619
 1574ntf    fn411458   5.961   0.484   3.626 -0.3804  0.0630 -0.2735
 1574ntf    fn411459   5.992   0.323   3.757 -0.3750  0.1361 -0.3150
 1574ntf    fn411460   5.861   0.486   3.803 -0.2926  0.0106  0.4229
 1575ntf    cn111461   4.344   4.617   4.732  0.1373  0.2977 -0.0785
 1575ntf    sn211462   4.365   4.702   4.573  0.1574  0.0366 -0.2152
 1575ntf    nn311463   4.416   4.840   4.628  0.1953 -0.2053  0.3553
 1575ntf    sn211464   4.352   4.983   4.619  0.5129 -0.0834  0.0158
 1575ntf    cn111465   4.438   5.051   4.763 -0.0230 -0.1226  0.3590
 1575ntf    fn411466   4.310   4.490   4.720  0.1647  0.2977 -0.1525
 1575ntf    fn411467   4.444   4.617   4.819  0.0411 -0.2519  0.0359
 1575ntf    fn411468   4.244   4.675   4.797  0.0710  0.1221 -0.0206
 1575ntf    on511469   4.470   4.625   4.511  0.5208  0.4350 -0.1002
 1575ntf    on511470   4.234   4.698   4.511  0.0215  0.1682  0.0598
 1575ntf    on511471   4.213   5.002   4.653  0.5073  0.5519 -0.3499
 1575ntf    on511472   4.403   5.062   4.510  0.0780  0.4756  0.2106
 1575ntf    fn411473   4.563   5.086   4.738 -0.1819  0.2899  0.1468
 1575ntf    fn411474   4.382   5.157   4.819  0.2996 -0.0968  0.6450
 1575ntf    fn411475   4.447   4.961   4.860  0.2090 -0.5759 -0.0794
 1576ntf    cn111476   0.873   4.622   4.114 -0.1796 -0.0143  0.3997
 1576ntf    sn211477   0.785   4.706   3.979  0.2204  0.1193  0.2210
 1576ntf    nn311478   0.879   4.705   3.854  0.0887  0.0686  0.1220
 1576ntf    sn211479   0.833   4.754   3.712  0.1919  0.1763  0.1255
 1576ntf    cn111480   0.772   4.923   3.739 -0.1625  0.0440  0.1581
 1576ntf    fn411481   0.797   4.591   4.218 -0.1662 -0.4317  0.2867
 1576ntf    fn411482   0.915   4.501   4.080  0.3961  0.2876  0.0308
 1576ntf    fn411483   0.976   4.691   4.159  0.3663 -0.4833 -0.1254
 1576ntf    on511484   0.673   4.617   3.964  0.3239  0.0037  0.1362
 1576ntf    on511485   0.762   4.839   4.029 -0.5085  0.0579  0.0702
 1576ntf    on511486   0.718   4.676   3.671  0.3953 -0.4750  0.7741
 1576ntf    on511487   0.940   4.772   3.617 -0.3318 -0.0785 -0.5269
 1576ntf    fn411488   0.781   4.981   3.620  0.2738 -0.0517  0.1429
 1576ntf    fn411489   0.645   4.930   3.775 -0.0204  0.1651  0.6383
 1576ntf    fn411490   0.844   4.997   3.821 -0.0072  0.2961 -0.2021
 1577ntf    cn111491   2.571   3.783   1.816  0.2362 -0.0796  0.1698
 1577ntf    sn211492   2.561   3.938   1.720 -0.3853 -0.2045  0.0315
 1577ntf    nn311493   2.701   3.950   1.650 -0.2551 -0.1107  0.3070
 1577ntf    sn211494   2.754   3.894   1.514  0.1866  0.1932  0.3514
 1577ntf    cn111495   2.719   4.039   1.410 -0.0387  0.0524  0.2289
 1577ntf    fn411496   2.651   3.806   1.919 -0.0039  0.2782  0.2787
 1577ntf    fn411497   2.460   3.737   1.871  0.2442 -0.5371 -0.1905
 1577ntf    fn411498   2.628   3.689   1.742 -0.0987 -0.5069  0.4508
 1577ntf    on511499   2.452   3.923   1.626 -0.1925 -0.9735 -0.0788
 1577ntf    on511500   2.554   4.045   1.816 -0.2191 -0.2288  0.0719
 1577ntf    on511501   2.681   3.787   1.448  0.3407 -0.0724  0.6094
 1577ntf    on511502   2.898   3.901   1.506  0.1601  0.4919  0.1304
 1577ntf    fn411503   2.589   4.064   1.413  0.0179  0.4114 -0.2416
 1577ntf    fn411504   2.781   4.149   1.449 -0.3186  0.1889  0.2906
 1577ntf    fn411505   2.747   4.025   1.281  0.0792  0.3860  0.2183
 1578ntf    cn111506   0.848   1.970   4.778  0.1551  0.3505 -0.4809
 1578ntf    sn211507   0.744   1.828   4.823  0.3130  0.4002  0.0449
 1578ntf    nn311508   0.830   1.780   4.946  0.2195 -0.1850 -0.1125
 1578ntf    sn211509   0.795   1.776   5.099  0.0844 -0.0129 -0.1383
 1578ntf    cn111510   0.915   1.896   5.164 -0.2305  0.2961 -0.1236
 1578ntf    fn411511   0.834   2.075   4.857  0.4813  0.1676 -0.1774
 1578ntf    fn411512   0.974   1.932   4.773 -0.0014 -0.2314 -0.0627
 1578ntf    fn411513   0.821   2.017   4.657  0.3487  0.0282 -0.6485
 1578ntf    on511514   0.614   1.883   4.851  0.1527 -0.2300  0.5709
 1578ntf    on511515   0.750   1.736   4.712 -0.0738  0.2389  0.1573
 1578ntf    on511516   0.815   1.646   5.158 -0.1589  0.0506  0.0857
 1578ntf    on511517   0.667   1.833   5.136  0.3038  0.1883  0.3068
 1578ntf    fn411518   0.931   1.896   5.296  0.3576  0.3582 -0.1928
 1578ntf    fn411519   1.035   1.874   5.115 -0.4179  0.1692 -0.5328
 1578ntf    fn411520   0.883   2.019   5.128 -0.1048  0.3560 -0.0304
 1579ntf    cn111521   3.742   2.349   5.662  0.2161 -0.1453  0.2366
 1579ntf    sn211522   3.769   2.386   5.486  0.0371  0.0432  0.2486
 1579ntf    nn311523   3.924   2.363   5.483  0.0233 -0.0654  0.3604
 1579ntf    sn211524   4.019   2.439   5.383 -0.2525  0.1037  0.2248
 1579ntf    cn111525   4.127   2.301   5.333 -0.2684  0.2461 -0.2071
 1579ntf    fn411526   3.804   2.435   5.740 -0.3186  0.3572  0.1081
 1579ntf    fn411527   3.617   2.349   5.703  0.3693  0.1265  0.7096
 1579ntf    fn411528   3.795   2.232   5.694 -0.1388 -0.4295 -0.2034
 1579ntf    on511529   3.692   2.280   5.426  0.3191 -0.0793  0.0991
 1579ntf    on511530   3.713   2.518   5.473  0.1047  0.0976  0.5050
 1579ntf    on511531   4.110   2.540   5.431  0.0595 -0.1497  0.1724
 1579ntf    on511532   3.951   2.474   5.261  0.7051  0.1649 -0.3035
 1579ntf    fn411533   4.218   2.282   5.427 -0.2520 -0.2714 -0.3232
 1579ntf    fn411534   4.068   2.184   5.313 -0.3689  0.1808  0.4519
 1579ntf    fn411535   4.197   2.325   5.223 -0.3839 -0.8256 -0.5240
 1580ntf    cn111536   4.134   0.034   3.587 -0.0264  0.2658 -0.2485
 1580ntf    sn211537   4.046  -0.099   3.500 -0.3045  0.2019  0.1228
 1580ntf    nn311538   4.172  -0.186   3.464 -0.5105 -0.0011 -0.1111
 1580ntf    sn211539   4.193  -0.278   3.338  0.1243 -0.0774  0.0480
 1580ntf    cn111540   4.369  -0.243   3.309  0.0865 -0.0011 -0.0891
 1580ntf    fn411541   4.219   0.088   3.503  0.0681  0.1328 -0.2387
 1580ntf    fn411542   4.046   0.127   3.621  0.3336  0.4119  0.2998
 1580ntf    fn411543   4.202  -0.007   3.692 -0.2534 -0.3229 -0.3264
 1580ntf    on511544   3.959  -0.164   3.595 -0.0718 -0.1946  0.0690
 1580ntf    on511545   3.985  -0.042   3.382 -0.4805 -0.0472  0.0909
 1580ntf    on511546   4.131  -0.244   3.213 -0.0812 -0.2884  0.0911
 1580ntf    on511547   4.185  -0.419   3.370  0.0050 -0.1359 -0.2331
 1580ntf    fn411548   4.407  -0.316   3.206 -0.5478 -0.3528 -0.0791
 1580ntf    fn411549   4.397  -0.117   3.279 -0.2084  0.1497  0.2476
 1580ntf    fn411550   4.448  -0.273   3.411 -0.5741  0.0132  0.4326
 1581ntf    cn111551   1.147   4.213   4.335  0.0104 -0.4354 -0.5437
 1581ntf    sn211552   1.289   4.102   4.309  0.3215 -0.1710  0.0239
 1581ntf    nn311553   1.375   4.117   4.439  0.0728  0.1302  0.1569
 1581ntf    sn211554   1.365   4.059   4.585 -0.3182 -0.0793  0.0479
 1581ntf    cn111555   1.531   3.984   4.600  0.0335  0.6889  0.0387
 1581ntf    fn411556   1.163   4.335   4.285  0.3514 -0.2813 -0.0610
 1581ntf    fn411557   1.037   4.174   4.272 -0.3515  0.0680 -0.2319
 1581ntf    fn411558   1.103   4.223   4.459  0.1571 -0.0961 -0.5184
 1581ntf    on511559   1.227   3.974   4.286 -0.3760  0.1081  0.3003
 1581ntf    on511560   1.360   4.157   4.196  0.6055  0.2244  0.3923
 1581ntf    on511561   1.282   3.944   4.609 -0.6057  0.0728 -0.2104
 1581ntf    on511562   1.358   4.168   4.678 -0.1290  0.1275 -0.1763
 1581ntf    fn411563   1.557   3.910   4.493  0.3506  0.1861  0.4589
 1581ntf    fn411564   1.625   4.076   4.609  0.3675  0.3254  0.2737
 1581ntf    fn411565   1.541   3.910   4.709  0.5646  0.4802 -0.1526
 1582ntf    cn111566   4.885   0.759   3.866  0.4459  0.3719  0.2572
 1582ntf    sn211567   4.864   0.800   4.042 -0.5197 -0.0907  0.2609
 1582ntf    nn311568   4.808   0.947   4.042 -0.2947  0.0012 -0.7688
 1582ntf    sn211569   4.657   0.989   4.036 -0.2876  0.1344 -0.0449
 1582ntf    cn111570   4.639   1.056   4.204  0.1874 -0.5970  0.3023
 1582ntf    fn411571   4.977   0.667   3.845  0.3517  0.1524  0.8048
 1582ntf    fn411572   4.777   0.713   3.804  0.6390  0.2999 -0.0291
 1582ntf    fn411573   4.912   0.867   3.794  0.7379  0.0966 -0.0458
 1582ntf    on511574   4.783   0.693   4.093 -0.0307 -0.5750  0.0273
 1582ntf    on511575   5.001   0.803   4.088 -0.3754  0.4261 -0.1771
 1582ntf    on511576   4.560   0.883   4.050 -0.3649  0.2679  0.4465
 1582ntf    on511577   4.620   1.097   3.948 -0.4849 -0.2113 -0.3890
 1582ntf    fn411578   4.713   1.165   4.220 -0.1944 -0.2957  0.0174
 1582ntf    fn411579   4.513   1.085   4.230  0.1717 -0.6633  0.3000
 1582ntf    fn411580   4.679   0.974   4.300 -0.2508 -0.7776  0.3329
 1583ntf    cn111581   6.011   4.806   2.901  0.4390  0.0148  0.1810
 1583ntf    sn211582   6.003   4.906   2.749 -0.1090 -0.3432 -0.0291
 1583ntf    nn311583   6.058   4.803   2.643 -0.7911 -0.4153 -0.3202
 1583ntf    sn211584   6.101   4.828   2.495  0.3512  0.2055  0.1027
 1583ntf    cn111585   6.278   4.802   2.523  0.3306 -0.0539 -0.0071
 1583ntf    fn411586   5.970   4.881   3.002  0.2207  0.1429 -0.0024
 1583ntf    fn411587   5.926   4.704   2.902  0.3212  0.1161  0.4104
 1583ntf    fn411588   6.128   4.753   2.932  0.1539 -0.5782  0.2552
 1583ntf    on511589   5.862   4.932   2.731 -0.1240 -0.7730 -0.5708
 1583ntf    on511590   6.086   5.018   2.782 -0.2019 -0.3347  0.1843
 1583ntf    on511591   6.088   4.960   2.438 -0.2177  0.1930  0.1920
 1583ntf    on511592   6.056   4.717   2.415  0.5658 -0.1324  0.4540
 1583ntf    fn411593   6.344   4.904   2.575  0.2386 -0.2325  0.4664
 1583ntf    fn411594   6.287   4.699   2.606  0.1422  0.3511  0.5184
 1583ntf    fn411595   6.350   4.768   2.417  0.3617  0.1398 -0.0482
 1584ntf    cn111596   5.009   0.414   1.023 -0.0293  0.2136 -0.1048
 1584ntf    sn211597   5.147   0.369   1.132 -0.2322 -0.2179 -0.0187
 1584ntf    nn311598   5.073   0.297   1.250 -0.1815 -0.1650  0.0464
 1584ntf    sn211599   5.022   0.149   1.264 -0.0751 -0.2113 -0.0467
 1584ntf    cn111600   5.137   0.100   1.396  0.1571  0.0562 -0.1490
 1584ntf    fn411601   5.052   0.477   0.915 -0.1622  0.3174 -0.0983
 1584ntf    fn411602   4.937   0.315   0.972  0.3222 -0.2197  0.2241
 1584ntf    fn411603   4.921   0.492   1.085  0.0663  0.0916  0.1844
 1584ntf    on511604   5.223   0.285   1.043 -0.1632 -0.2608  0.0813
 1584ntf    on511605   5.203   0.499   1.162 -0.2914 -0.2786  0.3575
 1584ntf    on511606   5.051   0.054   1.160  0.5143 -0.2019  0.1056
 1584ntf    on511607   4.891   0.149   1.325 -0.0592  0.3125 -0.0057
 1584ntf    fn411608   5.259   0.140   1.364  0.1139  0.0989 -0.2596
 1584ntf    fn411609   5.107   0.159   1.511 -0.0963 -0.3538 -0.0017
 1584ntf    fn411610   5.139  -0.025   1.439  0.0915  0.2333  0.3744
 1585ntf    cn111611   0.625   3.697   3.526  0.4099 -0.2094 -0.4831
 1585ntf    sn211612   0.750   3.719   3.656 -0.3495  0.1836  0.1887
 1585ntf    nn311613   0.879   3.661   3.589  0.0761  0.3721  0.8364
 1585ntf    sn211614   1.031   3.685   3.623  0.3382  0.0917 -0.1079
 1585ntf    cn111615   1.096   3.757   3.470  0.2928 -0.0111 -0.1759
 1585ntf    fn411616   0.505   3.711   3.581  0.5441  0.0687 -0.2586
 1585ntf    fn411617   0.640   3.779   3.423 -0.0542  0.3337 -0.1250
 1585ntf    fn411618   0.633   3.573   3.481 -0.1365 -0.2374 -0.5081
 1585ntf    on511619   0.751   3.861   3.682 -0.0460  0.2474 -0.1777
 1585ntf    on511620   0.695   3.639   3.763  0.0976 -0.3582  0.0127
 1585ntf    on511621   1.103   3.561   3.639  0.5281  0.1811 -0.2776
 1585ntf    on511622   1.043   3.784   3.727 -0.5372 -0.0336  0.1206
 1585ntf    fn411623   1.031   3.725   3.359 -0.1209 -0.1553  0.1101
 1585ntf    fn411624   1.112   3.889   3.471 -0.3578  0.0714 -0.2332
 1585ntf    fn411625   1.221   3.717   3.451  0.2943 -0.1809  0.1826
 1586ntf    cn111626   4.872   5.667   0.571  0.0514  0.1052 -0.0331
 1586ntf    sn211627   4.879   5.499   0.504  0.1127  0.0318  0.1563
 1586ntf    nn311628   4.857   5.402   0.625 -0.6936 -0.0902 -0.0827
 1586ntf    sn211629   4.878   5.246   0.627  0.3617  0.0482  0.1737
 1586ntf    cn111630   4.704   5.205   0.658  0.3689 -0.1801 -0.0908
 1586ntf    fn411631   4.892   5.756   0.475 -0.5245  0.2853  0.0103
 1586ntf    fn411632   4.750   5.696   0.614 -0.1092 -0.2039 -0.2727
 1586ntf    fn411633   4.966   5.686   0.663  0.3382 -0.4451 -0.2109
 1586ntf    on511634   4.763   5.503   0.418  0.1452  0.2355  0.1229
 1586ntf    on511635   5.010   5.494   0.443 -0.2056  0.6764 -0.5997
 1586ntf    on511636   4.950   5.196   0.742  0.4111  0.2592  0.2358
 1586ntf    on511637   4.906   5.182   0.501  0.2847  0.2799  0.0369
 1586ntf    fn411638   4.627   5.260   0.565  0.3520 -0.4829 -0.2603
 1586ntf    fn411639   4.687   5.073   0.652 -0.1013 -0.1268  0.0049
 1586ntf    fn411640   4.661   5.239   0.778  0.4128 -0.8047  0.1043
 1587ntf    cn111641   3.446   4.758   4.161 -0.1308 -0.0236 -0.2397
 1587ntf    sn211642   3.440   4.609   4.264  0.0300  0.1038 -0.0467
 1587ntf    nn311643   3.592   4.575   4.280 -0.1977 -0.4743  0.9696
 1587ntf    sn211644   3.676   4.467   4.204 -0.1603  0.1330  0.1423
 1587ntf    cn111645   3.647   4.321   4.308 -0.1183 -0.1646 -0.2623
 1587ntf    fn411646   3.502   4.731   4.044 -0.3144 -0.0293 -0.3269
 1587ntf    fn411647   3.330   4.815   4.131 -0.1635 -0.0549 -0.1728
 1587ntf    fn411648   3.509   4.856   4.223  0.4419 -0.6125  0.1143
 1587ntf    on511649   3.374   4.665   4.380 -0.0880  0.2539 -0.1864
 1587ntf    on511650   3.362   4.510   4.194 -0.3689  0.1643  0.3066
 1587ntf    on511651   3.816   4.499   4.218 -0.1780  0.0030  0.6304
 1587ntf    on511652   3.631   4.436   4.070 -0.3067  0.2908  0.1557
 1587ntf    fn411653   3.711   4.213   4.266 -0.1362 -0.3627  0.2167
 1587ntf    fn411654   3.682   4.338   4.434  0.5889 -0.2082 -0.4480
 1587ntf    fn411655   3.519   4.286   4.310 -0.1861  0.1046  0.1901
 1588ntf    cn111656   5.666   2.127   4.975 -0.0776  0.1442 -0.5084
 1588ntf    sn211657   5.841   2.118   5.026 -0.2500  0.3380  0.1280
 1588ntf    nn311658   5.879   1.992   4.940  0.0039 -0.2146  1.0459
 1588ntf    sn211659   6.019   1.921   4.951  0.0291 -0.3033  0.1770
 1588ntf    cn111660   5.990   1.813   5.095 -0.0212  0.1086  0.4760
 1588ntf    fn411661   5.595   2.221   5.034  0.0483  0.0863 -0.2613
 1588ntf    fn411662   5.653   2.161   4.848 -0.3522 -0.3134 -0.6040
 1588ntf    fn411663   5.604   2.010   4.980 -0.2128  0.2255 -0.2888
 1588ntf    on511664   5.894   2.245   4.981  0.2004 -0.0173 -0.3576
 1588ntf    on511665   5.829   2.102   5.168  0.1798  0.0031  0.1291
 1588ntf    on511666   6.125   2.010   4.992 -0.2857  0.1141  0.0913
 1588ntf    on511667   6.047   1.823   4.848  0.1325 -0.3560  0.2556
 1588ntf    fn411668   5.871   1.755   5.095 -0.0086  0.0837  0.4585
 1588ntf    fn411669   6.078   1.715   5.087  0.1144  0.3065 -0.6370
 1588ntf    fn411670   6.011   1.873   5.211  0.2607 -0.0189  0.4901
 1589ntf    cn111671   6.203   1.914   6.225  0.2660  0.2120 -0.1052
 1589ntf    sn211672   6.086   1.776   6.225  0.2654  0.2126 -0.0486
 1589ntf    nn311673   6.136   1.691   6.347  0.3103 -0.0229 -0.2298
 1589ntf    sn211674   6.102   1.721   6.498  0.1489  0.1344 -0.2968
 1589ntf    cn111675   5.955   1.618   6.519  0.1696  0.2287  0.3245
 1589ntf    fn411676   6.203   1.978   6.341  0.3636 -0.2038  0.1252
 1589ntf    fn411677   6.328   1.871   6.210  0.0632 -0.3303 -0.2354
 1589ntf    fn411678   6.180   1.999   6.125 -0.1553 -0.1054 -0.2768
 1589ntf    on511679   5.961   1.847   6.245 -0.2057 -0.4457 -0.5978
 1589ntf    on511680   6.110   1.710   6.099  0.0884  0.4898 -0.2291
 1589ntf    on511681   6.058   1.853   6.537 -0.0290 -0.0296  0.0515
 1589ntf    on511682   6.193   1.654   6.587 -0.4383 -0.4684 -0.1519
 1589ntf    fn411683   5.908   1.619   6.643  0.0456 -0.2783  0.2873
 1589ntf    fn411684   5.852   1.659   6.447  0.2178 -0.1722  0.0250
 1589ntf    fn411685   5.972   1.490   6.490 -0.5491  0.2634 -0.2877
 1590ntf    cn111686   6.020   4.376   4.767 -0.6177  0.0370 -0.3605
 1590ntf    sn211687   5.904   4.309   4.889 -0.0197 -0.1065  0.1345
 1590ntf    nn311688   5.873   4.433   4.980 -0.1714 -0.1435  0.1342
 1590ntf    sn211689   5.777   4.449   5.103 -0.3233 -0.3023  0.0379
 1590ntf    cn111690   5.890   4.463   5.245 -0.1043  0.4176 -0.2064
 1590ntf    fn411691   6.146   4.370   4.808 -0.5007  0.5160 -0.6327
 1590ntf    fn411692   6.024   4.322   4.646 -0.1614 -0.5001 -0.1090
 1590ntf    fn411693   6.000   4.506   4.749  0.4183  0.2523 -0.0710
 1590ntf    on511694   5.794   4.266   4.805 -0.0290  0.5050 -0.1656
 1590ntf    on511695   5.981   4.207   4.956  0.3194  0.0545 -0.0097
 1590ntf    on511696   5.687   4.338   5.125 -0.5150 -0.0794  0.3828
 1590ntf    on511697   5.710   4.576   5.094  0.2863 -0.0050 -0.3821
 1590ntf    fn411698   5.830   4.509   5.353 -0.6382 -0.7856  0.0169
 1590ntf    fn411699   5.938   4.344   5.277 -0.5901  0.1465 -0.4835
 1590ntf    fn411700   5.998   4.537   5.221  0.2211  0.0596  0.1382
 1591ntf    cn111701   5.460   1.289   4.736 -0.3111 -0.1504  0.6178
 1591ntf    sn211702   5.636   1.267   4.774 -0.1524  0.2565  0.1166
 1591ntf    nn311703   5.664   1.132   4.698  0.1514  0.2622  0.2169
 1591ntf    sn211704   5.788   1.037   4.710 -0.0850 -0.0746  0.0012
 1591ntf    cn111705   5.893   1.121   4.587 -0.3163  0.1155 -0.0669
 1591ntf    fn411706   5.426   1.309   4.610 -0.0843 -0.5411  0.4924
 1591ntf    fn411707   5.384   1.188   4.778  0.0983 -0.7731 -0.1073
 1591ntf    fn411708   5.417   1.399   4.794 -0.2816  0.3893 -0.3701
 1591ntf    on511709   5.692   1.383   4.708  0.6114 -0.2064 -0.0608
 1591ntf    on511710   5.635   1.265   4.918  0.1476 -0.2038  0.1161
 1591ntf    on511711   5.766   0.905   4.656 -0.6816 -0.0730  0.2354
 1591ntf    on511712   5.859   1.052   4.834 -0.1692  0.5101 -0.0196
 1591ntf    fn411713   6.010   1.059   4.582 -0.1420  0.4796 -0.6010
 1591ntf    fn411714   5.845   1.140   4.466 -0.4573  0.2195  0.0048
 1591ntf    fn411715   5.926   1.242   4.631  0.4317  0.1356 -0.6642
 1592ntf    cn111716   3.855   0.808   3.843 -0.2942  0.2139  0.1727
 1592ntf    sn211717   3.854   0.916   3.989  0.0505  0.2569  0.1440
 1592ntf    nn311718   3.910   0.811   4.091  0.1912 -0.0900 -0.2881
 1592ntf    sn211719   4.062   0.779   4.116  0.2571  0.2173 -0.2901
 1592ntf    cn111720   4.100   0.895   4.251  0.6118  0.0564 -0.2518
 1592ntf    fn411721   3.978   0.770   3.810 -0.3039  0.2771  0.0637
 1592ntf    fn411722   3.780   0.700   3.858  0.1945 -0.0893  0.4554
 1592ntf    fn411723   3.812   0.879   3.740 -0.0861 -0.3797 -0.3304
 1592ntf    on511724   3.938   1.024   3.942 -0.1517  0.4901  0.3180
 1592ntf    on511725   3.713   0.937   4.004 -0.0791 -0.2039 -0.3908
 1592ntf    on511726   4.162   0.808   4.016 -0.2268  0.3302 -0.7439
 1592ntf    on511727   4.077   0.656   4.190 -0.2648 -0.0650 -0.6480
 1592ntf    fn411728   4.072   1.018   4.212  0.5064  0.1559  0.1320
 1592ntf    fn411729   4.025   0.878   4.359  0.6339  0.1636 -0.2193
 1592ntf    fn411730   4.226   0.896   4.293  0.7080  0.1429 -0.5376
 1593ntf    cn111731   3.362   3.905   2.155  0.4043 -0.3713 -0.0229
 1593ntf    sn211732   3.452   3.996   2.284  0.0982 -0.3533  0.1779
 1593ntf    nn311733   3.354   4.114   2.318 -0.0216 -0.3041 -0.3385
 1593ntf    sn211734   3.382   4.249   2.392 -0.1254 -0.4592 -0.0129
 1593ntf    cn111735   3.444   4.347   2.252 -0.1262  0.0492  0.3411
 1593ntf    fn411736   3.321   3.984   2.057  0.2583 -0.2821  0.1094
 1593ntf    fn411737   3.442   3.816   2.099 -0.1078 -0.8616  0.0160
 1593ntf    fn411738   3.254   3.839   2.192  0.1464  0.2945  0.4347
 1593ntf    on511739   3.473   3.901   2.391 -0.6150 -0.2862  0.3807
 1593ntf    on511740   3.570   4.046   2.218  0.2736 -0.5863  0.3109
 1593ntf    on511741   3.495   4.245   2.481 -0.3962 -0.3935  0.3388
 1593ntf    on511742   3.267   4.324   2.437 -0.2893 -0.4346 -0.4630
 1593ntf    fn411743   3.378   4.320   2.140 -0.0849  0.6687  0.1629
 1593ntf    fn411744   3.422   4.474   2.283 -0.2779  0.0692  0.1525
 1593ntf    fn411745   3.572   4.333   2.221 -0.2331 -0.3645  0.0757
 1594ntf    cn111746   2.641   4.959   0.934  0.4903 -0.3011 -0.0805
 1594ntf    sn211747   2.782   4.872   0.859  0.3296 -0.3579 -0.3195
 1594ntf    nn311748   2.745   4.721   0.873  0.3294 -0.3454 -0.1861
 1594ntf    sn211749   2.791   4.618   0.983  0.1352  0.0543  0.2717
 1594ntf    cn111750   2.937   4.542   0.906 -0.2167  0.0398 -0.3975
 1594ntf    fn411751   2.522   4.936   0.881  0.1926 -0.1405  0.5109
 1594ntf    fn411752   2.627   4.912   1.057 -0.2970  0.0166 -0.0382
 1594ntf    fn411753   2.655   5.091   0.942 -0.3415 -0.2151  0.0632
 1594ntf    on511754   2.773   4.918   0.723  0.0840  0.9458  0.1215
 1594ntf    on511755   2.899   4.921   0.928 -0.2865  0.2633  0.3023
 1594ntf    on511756   2.697   4.509   0.977  0.2615 -0.0281 -0.2532
 1594ntf    on511757   2.830   4.665   1.114 -0.1077  0.0719  0.3383
 1594ntf    fn411758   2.907   4.482   0.793 -0.0171 -0.1537 -0.3481
 1594ntf    fn411759   3.032   4.630   0.878 -0.5244  0.5013 -0.0151
 1594ntf    fn411760   2.993   4.454   0.988 -0.3363 -0.1182 -0.4880
 1595ntf    cn111761   0.554   6.638   1.566  0.1488 -0.3138 -0.2828
 1595ntf    sn211762   0.387   6.573   1.600 -0.0802  0.3475 -0.1271
 1595ntf    nn311763   0.353   6.684   1.706  0.0261  0.0798  0.1852
 1595ntf    sn211764   0.244   6.797   1.708  0.1796  0.2295  0.0177
 1595ntf    cn111765   0.340   6.950   1.729 -0.2216  0.5307 -0.3355
 1595ntf    fn411766   0.547   6.767   1.534 -0.3591 -0.1614  0.4310
 1595ntf    fn411767   0.639   6.627   1.666  0.0196 -0.0958 -0.1483
 1595ntf    fn411768   0.611   6.582   1.461 -0.1819 -0.5452 -0.3412
 1595ntf    on511769   0.326   6.578   1.469 -0.5300 -0.8840  0.0307
 1595ntf    on511770   0.421   6.448   1.663 -0.0304  0.5441  0.2388
 1595ntf    on511771   0.156   6.799   1.822 -0.3119 -0.3625 -0.3431
 1595ntf    on511772   0.177   6.814   1.581  0.0849  0.1119  0.0519
 1595ntf    fn411773   0.377   7.004   1.614  0.2516  0.1525 -0.3601
 1595ntf    fn411774   0.272   7.041   1.798 -0.4932  0.2857 -0.2770
 1595ntf    fn411775   0.452   6.939   1.798  0.0573 -0.0292 -0.8717
 1596ntf    cn111776   3.386   5.662   1.899 -0.6022 -0.4509  0.1778
 1596ntf    sn211777   3.390   5.573   2.058  0.2310 -0.3136  0.2383
 1596ntf    nn311778   3.400   5.421   2.020  0.3204 -0.2723  0.0966
 1596ntf    sn211779   3.279   5.331   1.975 -0.0097  0.1914  0.0417
 1596ntf    cn111780   3.238   5.254   2.135  0.2166 -0.0337 -0.0080
 1596ntf    fn411781   3.486   5.623   1.822 -0.2339  0.1714  0.3290
 1596ntf    fn411782   3.280   5.647   1.822 -0.4207 -0.0585 -0.1512
 1596ntf    fn411783   3.395   5.792   1.924 -0.1495 -0.5075  0.3204
 1596ntf    on511784   3.516   5.618   2.112 -0.4190  0.9298  0.7698
 1596ntf    on511785   3.275   5.617   2.133 -0.1432  0.2146 -0.6293
 1596ntf    on511786   3.317   5.222   1.888 -0.4542  0.1789 -0.1379
 1596ntf    on511787   3.159   5.399   1.935  0.0358 -0.2012 -0.7859
 1596ntf    fn411788   3.342   5.195   2.192  0.0153 -0.3961 -0.0104
 1596ntf    fn411789   3.208   5.351   2.220  0.1109  0.2023 -0.3123
 1596ntf    fn411790   3.131   5.176   2.127  0.1262  0.1159 -0.2654
 1597ntf    cn111791   1.846   2.673   4.747 -0.1311 -0.2391  0.0736
 1597ntf    sn211792   1.768   2.821   4.675 -0.0780 -0.1059  0.2885
 1597ntf    nn311793   1.764   2.785   4.522 -0.3353  0.9657  0.0295
 1597ntf    sn211794   1.789   2.872   4.394  0.1000  0.6654 -0.0939
 1597ntf    cn111795   1.971   2.881   4.393  0.1440 -0.1177 -0.1040
 1597ntf    fn411796   1.867   2.680   4.877 -0.8558  0.0826  0.1814
 1597ntf    fn411797   1.779   2.561   4.727  0.2098 -0.5507  0.6597
 1597ntf    fn411798   1.960   2.652   4.684 -0.3181  0.2354 -0.4380
 1597ntf    on511799   1.634   2.826   4.728 -0.1465 -0.0006  0.1071
 1597ntf    on511800   1.860   2.925   4.714  0.4029 -0.3151 -0.2730
 1597ntf    on511801   1.742   3.008   4.398  0.0990  0.6739 -0.3936
 1597ntf    on511802   1.751   2.805   4.272 -0.3890  0.2529  0.2787
 1597ntf    fn411803   2.024   2.761   4.407 -0.1828 -0.1585  0.8829
 1597ntf    fn411804   2.012   2.932   4.278  0.0121  0.4477  0.0932
 1597ntf    fn411805   2.013   2.962   4.488 -0.2302  0.4506 -0.4104
 1598ntf    cn111806   2.270   5.501   1.472  0.1069  0.1623 -0.0368
 1598ntf    sn211807   2.197   5.337   1.440  0.0976  0.1480  0.0590
 1598ntf    nn311808   2.288   5.261   1.543 -0.0823  0.4970  0.4788
 1598ntf    sn211809   2.427   5.191   1.521 -0.2300  0.2771  0.2382
 1598ntf    cn111810   2.427   5.102   1.679 -0.2343 -0.1024  0.0245
 1598ntf    fn411811   2.368   5.528   1.388 -0.1079  0.4475 -0.1950
 1598ntf    fn411812   2.183   5.600   1.459  0.0983  0.0873 -0.5551
 1598ntf    fn411813   2.309   5.516   1.598 -0.8160 -0.0462  0.2826
 1598ntf    on511814   2.056   5.346   1.468  0.1193  0.4517  0.0797
 1598ntf    on511815   2.228   5.303   1.304 -0.6479 -0.2670 -0.0140
 1598ntf    on511816   2.539   5.280   1.537 -0.1482  0.2200 -0.0269
 1598ntf    on511817   2.433   5.087   1.422 -0.1289  0.5887 -0.0843
 1598ntf    fn411818   2.449   5.178   1.785 -0.1424  0.0759 -0.1223
 1598ntf    fn411819   2.317   5.030   1.693 -0.0485 -0.4683 -0.3697
 1598ntf    fn411820   2.523   5.011   1.687  0.1085  0.2467 -0.0773
 1599ntf    cn111821   3.300   2.754   1.897  0.4151  0.3969  0.3113
 1599ntf    sn211822   3.341   2.592   1.968  0.0040  0.1642  0.0164
 1599ntf    nn311823   3.382   2.508   1.842 -0.2031 -0.3265  0.2734
 1599ntf    sn211824   3.524   2.468   1.788 -0.3246 -0.1181 -0.2103
 1599ntf    cn111825   3.553   2.302   1.856 -0.0691  0.1103  0.2487
 1599ntf    fn411826   3.216   2.744   1.795  0.0579 -0.3954  0.6803
 1599ntf    fn411827   3.249   2.837   1.986 -0.7268 -0.0353  0.0742
 1599ntf    fn411828   3.404   2.820   1.848  0.1311  0.3639 -0.3437
 1599ntf    on511829   3.452   2.619   2.055 -0.0066  0.3245 -0.0193
 1599ntf    on511830   3.214   2.549   2.022  0.1028  0.6632  0.6547
 1599ntf    on511831   3.640   2.541   1.833 -0.4445  0.0420 -0.1591
 1599ntf    on511832   3.518   2.450   1.645  0.0732  0.9485 -0.3722
 1599ntf    fn411833   3.537   2.299   1.987 -0.1138  0.1251  0.2435
 1599ntf    fn411834   3.462   2.218   1.807  0.2727  0.0049 -0.2133
 1599ntf    fn411835   3.674   2.253   1.834  0.0440  0.5991 -0.2333
 1600ntf    cn111836   1.430   2.787   5.724  0.0435  0.1913 -0.0968
 1600ntf    sn211837   1.351   2.950   5.722 -0.4139 -0.0298 -0.1110
 1600ntf    nn311838   1.439   3.029   5.824 -0.2836 -0.1628 -0.1214
 1600ntf    sn211839   1.425   3.024   5.981 -0.0198  0.0066 -0.0898
 1600ntf    cn111840   1.324   3.174   5.999 -0.1837 -0.1138  0.0002
 1600ntf    fn411841   1.415   2.716   5.835 -0.0523 -0.5144 -0.5581
 1600ntf    fn411842   1.392   2.715   5.620  0.2882 -0.7161  0.4327
 1600ntf    fn411843   1.562   2.785   5.712  0.0512  0.4501 -0.0686
 1600ntf    on511844   1.376   3.005   5.590  0.6424  0.1954  0.1735
 1600ntf    on511845   1.214   2.922   5.756 -0.3324 -0.3214 -0.0246
 1600ntf    on511846   1.546   3.066   6.045 -0.0318 -0.2665  0.1133
 1600ntf    on511847   1.352   2.913   6.038 -0.1256  0.2046  0.1630
 1600ntf    fn411848   1.370   3.276   5.929 -0.5710  0.0904  0.0375
 1600ntf    fn411849   1.203   3.153   5.951 -0.3327 -0.1152  0.3743
 1600ntf    fn411850   1.315   3.203   6.128  0.1675  0.1717 -0.0371
 1601ntf    cn111851   3.092   1.681   0.643  0.0477 -0.2081  0.4001
 1601ntf    sn211852   3.108   1.836   0.548 -0.1779 -0.4737 -0.0735
 1601ntf    nn311853   3.232   1.801   0.458 -0.0741  0.2429 -0.2161
 1601ntf    sn211854   3.375   1.864   0.449 -0.1387  0.4132 -0.0519
 1601ntf    cn111855   3.354   2.008   0.340 -0.1304  0.5005  0.0612
 1601ntf    fn411856   3.191   1.669   0.729  0.1130 -0.1950  0.3277
 1601ntf    fn411857   2.975   1.671   0.704 -0.0775  0.9446  0.3706
 1601ntf    fn411858   3.103   1.585   0.552 -0.5252 -0.2476  0.3667
 1601ntf    on511859   2.986   1.843   0.471 -0.3320 -0.3864  0.1767
 1601ntf    on511860   3.139   1.926   0.655 -0.1333 -0.5996  0.0196
 1601ntf    on511861   3.463   1.775   0.377 -0.4839  0.2179 -0.2327
 1601ntf    on511862   3.424   1.920   0.572  0.3758  0.3509 -0.2247
 1601ntf    fn411863   3.470   2.065   0.312 -0.2528  0.4742 -0.5169
 1601ntf    fn411864   3.296   1.968   0.227 -0.2017 -0.3419  0.3899
 1601ntf    fn411865   3.275   2.099   0.394 -0.2467  0.3364  0.1672
 1602ntf    cn111866   4.624   0.068   3.673  0.1086 -0.0521 -0.4201
 1602ntf    sn211867   4.523   0.076   3.824  0.2559  0.1247 -0.3303
 1602ntf    nn311868   4.633   0.119   3.927 -0.2551 -0.3030  0.4022
 1602ntf    sn211869   4.693   0.031   4.043 -0.0099 -0.2084  0.3476
 1602ntf    cn111870   4.847  -0.029   3.967 -0.1008  0.1161 -0.1001
 1602ntf    fn411871   4.721   0.158   3.666  0.2610 -0.2261 -0.5625
 1602ntf    fn411872   4.684  -0.049   3.658  0.6057  0.1905 -0.3449
 1602ntf    fn411873   4.546   0.079   3.567 -0.1662  0.2827 -0.1860
 1602ntf    on511874   4.437   0.186   3.788  0.2714  0.4237  0.5320
 1602ntf    on511875   4.465  -0.056   3.834  0.2800  0.1496  0.1428
 1602ntf    on511876   4.626  -0.090   4.081  0.1383 -0.3831  0.0561
 1602ntf    on511877   4.732   0.115   4.153 -0.1014  0.2427  0.0407
 1602ntf    fn411878   4.836  -0.077   3.844  0.0722 -0.0601 -0.0490
 1602ntf    fn411879   4.930   0.074   3.957  0.0869  0.0349  0.5823
 1602ntf    fn411880   4.911  -0.117   4.043  0.3204  0.2650 -0.2809
 1603ntf    cn111881   4.541   5.821   6.611  0.3045 -0.0229  0.2077
 1603ntf    sn211882   4.474   5.654   6.630  0.0976  0.0333 -0.0185
 1603ntf    nn311883   4.329   5.675   6.572  0.0207 -0.0683  0.1335
 1603ntf    sn211884   4.202   5.584   6.585  0.1067 -0.1897  0.1315
 1603ntf    cn111885   4.118   5.675   6.719  0.0457 -0.2982  0.1668
 1603ntf    fn411886   4.663   5.825   6.663  0.2544 -0.5214  0.3706
 1603ntf    fn411887   4.563   5.853   6.484 -0.1259 -0.0459  0.1259
 1603ntf    fn411888   4.467   5.919   6.660 -0.0193  0.0556 -0.4232
 1603ntf    on511889   4.557   5.570   6.548  0.1585 -0.1774  0.2577
 1603ntf    on511890   4.481   5.644   6.774 -0.0250  0.0160 -0.0134
 1603ntf    on511891   4.215   5.453   6.644  0.3078  0.0178  0.5549
 1603ntf    on511892   4.115   5.602   6.471 -0.7481  0.0122  0.8032
 1603ntf    fn411893   4.085   5.796   6.678  0.1807 -0.4323 -0.3449
 1603ntf    fn411894   4.007   5.615   6.757 -0.2527 -0.1150 -0.4092
 1603ntf    fn411895   4.191   5.683   6.829  0.7479  0.0393 -0.3185
 1604ntf    cn111896   1.204   2.593   5.024 -0.2420 -0.1203 -0.3312
 1604ntf    sn211897   1.039   2.665   5.001 -0.0743  0.2995 -0.2212
 1604ntf    nn311898   0.941   2.552   5.048 -0.0256  0.3829  0.0816
 1604ntf    sn211899   0.848   2.567   5.173  0.0919  0.1711  0.1952
 1604ntf    cn111900   0.717   2.447   5.137  0.4446 -0.2231  0.2176
 1604ntf    fn411901   1.234   2.573   5.151 -0.3364 -0.5483 -0.3740
 1604ntf    fn411902   1.227   2.480   4.958 -0.0481 -0.1049 -0.2915
 1604ntf    fn411903   1.297   2.679   4.984 -0.4959  0.2683 -0.0861
 1604ntf    on511904   1.053   2.788   5.075  0.0342  0.1010  0.0901
 1604ntf    on511905   1.033   2.670   4.857  0.6027  0.8473 -0.2415
 1604ntf    on511906   0.773   2.690   5.179  0.5839  0.4748  0.1441
 1604ntf    on511907   0.899   2.507   5.294 -0.5399  0.4260  0.5947
 1604ntf    fn411908   0.670   2.484   5.019 -0.0728 -0.2587  0.4117
 1604ntf    fn411909   0.764   2.324   5.124  0.0579 -0.3105 -0.4379
 1604ntf    fn411910   0.622   2.450   5.228  0.3661 -0.1352  0.1327
 1605ntf    cn111911   1.845   2.858   3.013 -0.3186 -0.0449 -0.3752
 1605ntf    sn211912   1.974   2.744   2.956  0.1204  0.1577  0.2091
 1605ntf    nn311913   1.887   2.646   2.870  0.1727  0.2131  0.0943
 1605ntf    sn211914   1.844   2.680   2.722 -0.1034  0.0392  0.1335
 1605ntf    cn111915   1.960   2.575   2.629 -0.1695 -0.0814  0.1863
 1605ntf    fn411916   1.747   2.805   3.084  0.3534 -0.3921  0.2985
 1605ntf    fn411917   1.885   2.946   3.104  0.0363  0.0330 -0.6047
 1605ntf    fn411918   1.796   2.929   2.912 -0.6419  0.3660  0.0669
 1605ntf    on511919   2.075   2.819   2.886 -0.0758 -0.4304 -0.7228
 1605ntf    on511920   2.023   2.694   3.083  0.2190  0.0269  0.1203
 1605ntf    on511921   1.878   2.814   2.680 -0.3237  0.1326  0.2525
 1605ntf    on511922   1.715   2.625   2.688  0.0040 -0.3207  0.2982
 1605ntf    fn411923   1.937   2.447   2.648  0.3822 -0.1172  0.6633
 1605ntf    fn411924   1.967   2.597   2.499 -0.3484  0.3075  0.2417
 1605ntf    fn411925   2.079   2.592   2.686 -0.2438 -0.4848  0.4621
 1606ntf    cn111926   2.837   2.059   3.611 -0.2218 -0.0866  0.1348
 1606ntf    sn211927   2.998   2.085   3.692 -0.1426 -0.3502  0.0622
 1606ntf    nn311928   3.097   2.038   3.580  0.0686  0.1934  0.0191
 1606ntf    sn211929   3.222   1.944   3.590  0.1620  0.3048 -0.0913
 1606ntf    cn111930   3.356   2.067   3.584  0.2205  0.2553  0.2009
 1606ntf    fn411931   2.833   1.951   3.535 -0.4919  0.3963 -0.5428
 1606ntf    fn411932   2.740   2.056   3.702 -0.2757  0.0336  0.0823
 1606ntf    fn411933   2.809   2.161   3.531  0.4835 -0.1499 -0.1972
 1606ntf    on511934   2.996   2.228   3.711  0.4507 -0.2892 -0.3197
 1606ntf    on511935   2.987   2.005   3.811  0.3484  0.0896  0.4069
 1606ntf    on511936   3.243   1.868   3.469 -0.3393  0.0909 -0.0483
 1606ntf    on511937   3.251   1.878   3.715  0.1418 -0.2012 -0.3477
 1606ntf    fn411938   3.468   2.009   3.544  0.2292 -0.0905  0.7082
 1606ntf    fn411939   3.323   2.162   3.498  0.1970  0.5197  0.5000
 1606ntf    fn411940   3.385   2.122   3.701  0.0170  0.3867  0.1907
 1607ntf    cn111941   2.499   1.751   6.215  0.0193  0.8265  0.1201
 1607ntf    sn211942   2.367   1.874   6.236 -0.4199  0.3490  0.1683
 1607ntf    nn311943   2.410   1.977   6.126  0.5713  0.2506  0.4580
 1607ntf    sn211944   2.407   2.134   6.130  0.1490  0.2719 -0.3487
 1607ntf    cn111945   2.583   2.165   6.164  0.0830  0.2218  0.0457
 1607ntf    fn411946   2.486   1.655   6.305  0.1438  0.3230 -0.3941
 1607ntf    fn411947   2.491   1.700   6.094  0.0152  0.2127  0.3786
 1607ntf    fn411948   2.620   1.805   6.217  0.4105 -0.0462  0.0902
 1607ntf    on511949   2.246   1.799   6.210 -0.3798  0.4066 -0.1986
 1607ntf    on511950   2.392   1.923   6.369 -0.2292 -0.3320  0.3858
 1607ntf    on511951   2.338   2.197   6.240  0.0739 -0.3308 -0.0509
 1607ntf    on511952   2.395   2.182   5.995  0.3737  0.4335 -0.3135
 1607ntf    fn411953   2.606   2.136   6.291  0.1740 -0.1494 -0.0520
 1607ntf    fn411954   2.664   2.089   6.091 -0.0500 -0.1955  0.3277
 1607ntf    fn411955   2.619   2.290   6.139 -0.0500  0.2202 -0.1530
 1608ntf    cn111956   3.981   0.665   0.361  0.2061 -0.1034  0.5344
 1608ntf    sn211957   3.958   0.641   0.182 -0.2471 -0.3089  0.6193
 1608ntf    nn311958   3.809   0.689   0.175 -0.1426 -0.0582  0.0390
 1608ntf    sn211959   3.682   0.616   0.117 -0.1415  0.1296 -0.2014
 1608ntf    cn111960   3.650   0.726  -0.024  0.0375  0.0271 -0.3237
 1608ntf    fn411961   3.908   0.585   0.436 -0.3183 -0.3240 -0.1997
 1608ntf    fn411962   4.110   0.650   0.388  0.3154  0.4911  0.3692
 1608ntf    fn411963   3.947   0.788   0.395 -0.1690  0.0974 -0.5088
 1608ntf    on511964   4.060   0.731   0.134 -0.4225 -0.4596 -0.0472
 1608ntf    on511965   3.981   0.501   0.155  0.0703 -0.1151 -0.1485
 1608ntf    on511966   3.578   0.625   0.215  0.3443  0.0990  0.3224
 1608ntf    on511967   3.701   0.486   0.056 -0.0640  0.2378 -0.4099
 1608ntf    fn411968   3.754   0.729  -0.106 -0.0016 -0.2380 -0.3811
 1608ntf    fn411969   3.548   0.680  -0.094  0.0528 -0.0850 -0.2714
 1608ntf    fn411970   3.622   0.851   0.009 -0.4772 -0.1442 -0.1057
 1609ntf    cn111971   6.438   5.389   0.072 -0.4935 -0.0822  0.3366
 1609ntf    sn211972   6.295   5.435  -0.030 -0.1392  0.1370 -0.0654
 1609ntf    nn311973   6.339   5.374  -0.168 -0.3907  0.0633 -0.1148
 1609ntf    sn211974   6.412   5.444  -0.288  0.0944  0.1749  0.2431
 1609ntf    cn111975   6.268   5.523  -0.364  0.0302  0.2513  0.4441
 1609ntf    fn411976   6.414   5.428   0.196 -0.0778 -0.5158  0.5553
 1609ntf    fn411977   6.465   5.259   0.071 -0.6334 -0.1082 -0.0634
 1609ntf    fn411978   6.548   5.448   0.030 -0.5994 -0.1581 -0.0514
 1609ntf    on511979   6.188   5.361   0.033 -0.0068  0.0328  0.0383
 1609ntf    on511980   6.292   5.578  -0.022 -0.5207  0.1682 -0.7004
 1609ntf    on511981   6.453   5.353  -0.392 -0.3985  0.5746 -0.3033
 1609ntf    on511982   6.498   5.556  -0.258 -0.0654  0.1546  0.7951
 1609ntf    fn411983   6.229   5.633  -0.302  0.0177  0.4895  0.0182
 1609ntf    fn411984   6.285   5.552  -0.492  0.6771  0.0483  0.4846
 1609ntf    fn411985   6.168   5.436  -0.358  0.1707  0.0445 -0.1193
 1610ntf    cn111986   2.396   5.521   5.852  0.1873  0.1589  0.0967
 1610ntf    sn211987   2.509   5.469   5.719  0.1779  0.0133  0.1460
 1610ntf    nn311988   2.462   5.325   5.680 -0.0378  0.2755 -0.5724
 1610ntf    sn211989   2.360   5.281   5.569 -0.2312 -0.1626 -0.2269
 1610ntf    cn111990   2.474   5.227   5.437 -0.1706  0.0412 -0.2584
 1610ntf    fn411991   2.439   5.631   5.910  0.2380  0.1163  0.1398
 1610ntf    fn411992   2.271   5.544   5.814  0.1366 -0.0303  0.1445
 1610ntf    fn411993   2.391   5.434   5.951 -0.1720  0.3555  0.2516
 1610ntf    on511994   2.489   5.572   5.620  0.0835 -0.4286 -0.2970
 1610ntf    on511995   2.637   5.475   5.787  0.4211 -0.1324 -0.2951
 1610ntf    on511996   2.283   5.384   5.504  0.7119  0.2880 -0.6628
 1610ntf    on511997   2.295   5.158   5.607 -0.3356  0.0708  0.3550
 1610ntf    fn411998   2.412   5.153   5.346 -0.4850 -0.2893  0.2118
 1610ntf    fn411999   2.529   5.327   5.371  0.0467 -0.1261 -0.3337
 1610ntf    fn412000   2.564   5.146   5.491 -0.3463  0.2548  0.3611
 1611ntf    cn112001   0.598   6.542   0.348 -0.2683  0.1467 -0.3536
 1611ntf    sn212002   0.457   6.435   0.308 -0.2574 -0.0667  0.1767
 1611ntf    nn312003   0.345   6.535   0.351 -0.0931  0.1331  0.1427
 1611ntf    sn212004   0.190   6.520   0.332 -0.1032  0.1527  0.2074
 1611ntf    cn112005   0.152   6.432   0.486 -0.3337 -0.0361  0.0456
 1611ntf    fn412006   0.606   6.655   0.279 -0.1645 -0.1294 -0.8001
 1611ntf    fn412007   0.598   6.575   0.476 -0.3466  0.1914 -0.3653
 1611ntf    fn412008   0.715   6.487   0.319 -0.2897 -0.0756 -0.0175
 1611ntf    on512009   0.476   6.402   0.169  0.0073  0.7475  0.0173
 1611ntf    on512010   0.469   6.331   0.408  0.2148 -0.0384  0.1534
 1611ntf    on512011   0.144   6.431   0.228  0.4006 -0.5643  0.5927
 1611ntf    on512012   0.122   6.647   0.341 -0.3732  0.0363 -0.1384
 1611ntf    fn412013   0.030   6.382   0.496 -0.3309 -0.1141 -0.3311
 1611ntf    fn412014   0.237   6.334   0.511 -0.4160 -0.0934  0.0976
 1611ntf    fn412015   0.154   6.510   0.593 -0.1136 -0.3825  0.2972
 1612ntf    cn112016   4.901   1.876   1.048 -0.0475 -0.1135  0.1406
 1612ntf    sn212017   4.899   1.910   1.227  0.1612 -0.3554  0.1902
 1612ntf    nn312018   4.897   2.067   1.232  0.1981 -0.3440 -0.1125
 1612ntf    sn212019   5.025   2.153   1.201 -0.0345  0.0452 -0.0114
 1612ntf    cn112020   5.095   2.164   1.369 -0.4325  0.0316  0.1560
 1612ntf    fn412021   4.815   1.950   0.980  0.0337 -0.2755 -0.1373
 1612ntf    fn412022   5.017   1.886   0.986  0.0833 -0.3118  0.3500
 1612ntf    fn412023   4.856   1.755   1.019 -0.2957 -0.1319  0.5918
 1612ntf    on512024   4.773   1.858   1.273  0.0880  0.0799  0.4923
 1612ntf    on512025   5.019   1.849   1.277  0.3781 -0.3680 -0.3372
 1612ntf    on512026   4.980   2.288   1.178 -0.1831  0.0532  0.3114
 1612ntf    on512027   5.131   2.104   1.117 -0.3297 -0.7444  0.0680
 1612ntf    fn412028   5.179   2.065   1.396 -0.0187  0.2949 -0.1591
 1612ntf    fn412029   5.173   2.268   1.388 -0.4089 -0.0045  0.2546
 1612ntf    fn412030   5.005   2.152   1.465 -0.4552 -0.4418  0.0810
 1613ntf    cn112031   0.190   6.643   3.811 -0.1574  0.2534 -0.0605
 1613ntf    sn212032   0.153   6.716   3.974  0.1246  0.1612  0.0446
 1613ntf    nn312033   0.133   6.869   3.945 -0.1460  0.1137 -0.0148
 1613ntf    sn212034   0.155   6.998   4.032  0.2464  0.1337 -0.1419
 1613ntf    cn112035   0.317   7.054   3.972  0.3448 -0.1014 -0.0976
 1613ntf    fn412036   0.085   6.648   3.730  0.1488  0.3563 -0.4491
 1613ntf    fn412037   0.289   6.702   3.747 -0.2220 -0.1654 -0.5560
 1613ntf    fn412038   0.212   6.512   3.811  0.0995  0.2968  0.0539
 1613ntf    on512039   0.032   6.653   4.021 -0.3373  0.5557 -0.6048
 1613ntf    on512040   0.276   6.687   4.044  0.1736 -0.8404 -0.4395
 1613ntf    on512041   0.176   6.987   4.174 -0.0331  0.0666 -0.1055
 1613ntf    on512042   0.060   7.096   3.986 -0.0700 -0.1235 -0.0461
 1613ntf    fn412043   0.420   6.980   4.008  0.1332 -0.3812 -0.0625
 1613ntf    fn412044   0.328   7.063   3.840  0.2473 -0.5037 -0.1329
 1613ntf    fn412045   0.344   7.177   4.013  0.1943  0.1010 -0.6006
 1614ntf    cn112046   3.566   4.034   6.267 -0.1620 -0.1848 -0.0696
 1614ntf    sn212047   3.472   4.190   6.271  0.1046 -0.0197 -0.1859
 1614ntf    nn312048   3.330   4.122   6.271 -0.1499  0.5063 -0.6235
 1614ntf    sn212049   3.228   4.105   6.389  0.3794 -0.0621 -0.2445
 1614ntf    cn112050   3.271   3.942   6.457  0.5759 -0.0561 -0.3545
 1614ntf    fn412051   3.549   3.962   6.376 -0.0757  0.2150  0.2105
 1614ntf    fn412052   3.535   3.967   6.157 -0.4556  0.3379 -0.3127
 1614ntf    fn412053   3.697   4.052   6.262 -0.1315 -0.4915 -0.4422
 1614ntf    on512054   3.518   4.262   6.388  0.5725  0.1701 -0.4847
 1614ntf    on512055   3.501   4.250   6.144 -0.2487  0.2300 -0.1517
 1614ntf    on512056   3.095   4.088   6.336  0.1459  0.8719  0.0214
 1614ntf    on512057   3.239   4.194   6.502  0.3963 -0.1298 -0.1921
 1614ntf    fn412058   3.280   3.847   6.365 -0.0681 -0.0954 -0.3819
 1614ntf    fn412059   3.381   3.937   6.530  0.3860  0.0041 -0.0638
 1614ntf    fn412060   3.176   3.898   6.537  0.9799 -0.3662 -0.0409
 1615ntf    cn112061   0.966   5.289   1.759  0.0322 -0.5174  0.2411
 1615ntf    sn212062   1.114   5.204   1.822  0.6387  0.1993 -0.2011
 1615ntf    nn312063   1.167   5.130   1.694 -0.7068 -0.3927 -0.4301
 1615ntf    sn212064   1.315   5.085   1.670 -0.3529  0.5864 -0.1360
 1615ntf    cn112065   1.362   5.229   1.570  0.1075  0.4477 -0.1211
 1615ntf    fn412066   0.883   5.201   1.704 -0.0499 -0.1642 -0.2059
 1615ntf    fn412067   0.895   5.348   1.853 -0.0953 -0.1961 -0.0519
 1615ntf    fn412068   0.994   5.375   1.662  0.3087 -0.6848  0.1701
 1615ntf    on512069   1.193   5.316   1.868  0.0038  0.6188 -0.1175
 1615ntf    on512070   1.061   5.108   1.916  0.5314  0.0045 -0.4619
 1615ntf    on512071   1.321   4.978   1.574 -0.5972  0.0930  0.3913
 1615ntf    on512072   1.411   5.082   1.778 -0.2682 -0.7958 -0.2327
 1615ntf    fn412073   1.488   5.227   1.530  0.1004 -0.3099 -0.1162
 1615ntf    fn412074   1.283   5.240   1.465 -0.4871  0.1860  0.2949
 1615ntf    fn412075   1.343   5.336   1.646  0.2117  0.4213 -0.0575
 1616ntf    cn112076   2.846   2.593   6.410  0.2633 -0.1475  0.1326
 1616ntf    sn212077   2.926   2.685   6.545  0.1988  0.0381  0.0439
 1616ntf    nn312078   2.855   2.614   6.665 -0.0277 -0.7349 -0.5354
 1616ntf    sn212079   2.917   2.550   6.794 -0.2260  0.1374  0.0055
 1616ntf    cn112080   2.788   2.597   6.913 -0.2279  0.0283  0.0470
 1616ntf    fn412081   2.891   2.629   6.291  0.1444 -0.0194  0.1253
 1616ntf    fn412082   2.862   2.463   6.427  0.0427 -0.1322  0.4754
 1616ntf    fn412083   2.714   2.610   6.408  0.2622 -0.2121 -0.6079
 1616ntf    on512084   3.067   2.667   6.523  0.2868  0.9398 -0.1650
 1616ntf    on512085   2.872   2.819   6.536  0.0278  0.0256  0.8351
 1616ntf    on512086   3.036   2.616   6.842 -0.4199  0.2158  0.3842
 1616ntf    on512087   2.919   2.406   6.791  0.3216  0.1448 -0.1861
 1616ntf    fn412088   2.748   2.723   6.906  0.1674  0.1452 -0.1826
 1616ntf    fn412089   2.678   2.527   6.892 -0.5267  0.3951  0.3914
 1616ntf    fn412090   2.835   2.586   7.037  0.0381 -0.3657 -0.0848
 1617ntf    cn112091   0.229   3.160   6.240  0.4155  0.4179  0.0586
 1617ntf    sn212092   0.251   3.274   6.100  0.1184  0.3242 -0.0666
 1617ntf    nn312093   0.180   3.402   6.156  0.3972  0.3775  0.1714
 1617ntf    sn212094   0.163   3.545   6.093  0.3731  0.2056 -0.2141
 1617ntf    cn112095   0.281   3.645   6.189  0.0511  0.2568  0.1289
 1617ntf    fn412096   0.296   3.186   6.351  1.0517  0.2501 -0.2804
 1617ntf    fn412097   0.102   3.157   6.277  0.3230  0.0532 -0.2792
 1617ntf    fn412098   0.265   3.035   6.218  0.3785  0.4209 -0.0176
 1617ntf    on512099   0.395   3.283   6.096  0.1116  0.5191  0.1162
 1617ntf    on512100   0.177   3.211   5.994  0.5141  0.0249 -0.1690
 1617ntf    on512101   0.032   3.600   6.117  0.1846 -0.3705  0.0917
 1617ntf    on512102   0.215   3.563   5.959  0.5501 -0.4081 -0.2313
 1617ntf    fn412103   0.406   3.637   6.146 -0.0056 -0.1967  0.0409
 1617ntf    fn412104   0.248   3.773   6.193 -0.6995  0.0735 -0.1117
 1617ntf    fn412105   0.277   3.607   6.315 -0.9391  0.1849  0.0851
 1618ntf    cn112106   1.787   2.435   0.749  0.1856  0.0458  0.2335
 1618ntf    sn212107   1.768   2.307   0.877  0.0358  0.2130  0.3778
 1618ntf    nn312108   1.675   2.390   0.974  0.0463  0.2947  0.3183
 1618ntf    sn212109   1.519   2.400   0.983 -0.0433 -0.4320 -0.2930
 1618ntf    cn112110   1.503   2.541   1.097  0.2418 -0.5783 -0.0702
 1618ntf    fn412111   1.857   2.385   0.649 -0.3882  0.0140 -0.1535
 1618ntf    fn412112   1.672   2.478   0.701  0.0737 -0.4009  0.0985
 1618ntf    fn412113   1.852   2.542   0.795 -0.6698  0.6016  0.1652
 1618ntf    on512114   1.719   2.187   0.814  0.1634  0.1197  0.4573
 1618ntf    on512115   1.902   2.299   0.927  0.2492 -0.3465 -0.2682
 1618ntf    on512116   1.455   2.295   1.059 -0.1300  0.0571  0.3127
 1618ntf    on512117   1.456   2.450   0.863  0.1410  0.1296 -0.1591
 1618ntf    fn412118   1.380   2.590   1.098  0.3094 -0.4077 -0.1547
 1618ntf    fn412119   1.536   2.501   1.218  0.0188 -0.0121  0.1797
 1618ntf    fn412120   1.585   2.640   1.067 -0.2859 -0.1554 -0.1244
 1619ntf    cn112121   6.098   0.288   1.152  0.2112 -0.1150  0.1654
 1619ntf    sn212122   6.003   0.137   1.188 -0.0389  0.0565  0.2268
 1619ntf    nn312123   5.857   0.194   1.183  0.0137  0.2055  0.4041
 1619ntf    sn212124   5.722   0.114   1.186  0.2517 -0.1963  0.4813
 1619ntf    cn112125   5.660   0.180   1.344  0.0619  0.0815  0.2918
 1619ntf    fn412126   6.085   0.370   1.255 -0.0724 -0.0021  0.0386
 1619ntf    fn412127   6.227   0.258   1.146  0.3131  0.3440  0.0159
 1619ntf    fn412128   6.065   0.359   1.046  0.3010  0.1298  0.2994
 1619ntf    on512129   6.036   0.042   1.085  0.8617  0.4198  0.1698
 1619ntf    on512130   6.048   0.097   1.319  0.3987  0.3889  0.1823
 1619ntf    on512131   5.734  -0.027   1.210  0.1753 -0.1323  0.9092
 1619ntf    on512132   5.633   0.168   1.087  0.3390  0.3101  0.6697
 1619ntf    fn412133   5.731   0.136   1.447 -0.2521 -0.3589  0.3264
 1619ntf    fn412134   5.656   0.312   1.342 -0.0758  0.0742  0.0895
 1619ntf    fn412135   5.539   0.136   1.377 -0.0621 -0.1851 -0.4882
 1620ntf    cn112136   4.437   2.171   3.326 -0.2813 -0.4424 -0.0518
 1620ntf    sn212137   4.486   2.276   3.186 -0.4169 -0.0325  0.2047
 1620ntf    nn312138   4.352   2.357   3.169 -0.2954  0.2082  0.3840
 1620ntf    sn212139   4.311   2.508   3.180  0.1165  0.3185  0.4079
 1620ntf    cn112140   4.320   2.561   3.007  0.0530 -0.1629  0.2559
 1620ntf    fn412141   4.316   2.119   3.312 -0.2685 -0.4430 -0.1592
 1620ntf    fn412142   4.518   2.069   3.348  0.2960  0.0867  0.3460
 1620ntf    fn412143   4.438   2.243   3.437  0.1121 -0.1012 -0.2734
 1620ntf    on512144   4.599   2.350   3.235 -0.0781 -0.2504 -0.2389
 1620ntf    on512145   4.520   2.184   3.080 -0.1090  0.3366 -0.0191
 1620ntf    on512146   4.405   2.594   3.248 -0.0606  0.7972  0.0529
 1620ntf    on512147   4.169   2.522   3.197  0.0460  0.0127  0.0765
 1620ntf    fn412148   4.230   2.514   2.922  0.1761 -0.6572  0.3973
 1620ntf    fn412149   4.306   2.692   2.994  0.1575 -0.1566  0.2019
 1620ntf    fn412150   4.438   2.539   2.951 -0.0845  0.3177 -0.2375
 1621ntf    cn112151   6.289   4.092   5.497  0.0982  0.2734 -0.2754
 1621ntf    sn212152   6.395   4.124   5.641  0.0409 -0.4385 -0.0762
 1621ntf    nn312153   6.379   3.978   5.698  0.2961 -0.5573 -0.3100
 1621ntf    sn212154   6.298   3.922   5.820  0.1351  0.2463 -0.0435
 1621ntf    cn112155   6.430   3.921   5.945  0.3193  0.1350 -0.2371
 1621ntf    fn412156   6.183   4.021   5.533 -0.0186  0.5944  0.0162
 1621ntf    fn412157   6.255   4.197   5.423 -0.4537  0.0838 -0.2921
 1621ntf    fn412158   6.354   4.009   5.416 -0.6296 -0.7846  0.2082
 1621ntf    on512159   6.524   4.152   5.583 -0.1775  0.2257 -0.2514
 1621ntf    on512160   6.326   4.227   5.713 -0.0583 -0.5716  0.0214
 1621ntf    on512161   6.277   3.781   5.803 -0.4506  0.2073  0.9429
 1621ntf    on512162   6.184   3.992   5.872 -0.2182 -0.1990 -0.2117
 1621ntf    fn412163   6.388   3.878   6.063  0.0126 -0.2054 -0.4669
 1621ntf    fn412164   6.534   3.850   5.906 -0.1334 -0.3137 -0.6465
 1621ntf    fn412165   6.470   4.045   5.971 -0.1295  0.3023 -0.3406
 1622ntf    cn112166   5.663   1.161   1.069  0.1174  0.0754 -0.3654
 1622ntf    sn212167   5.708   0.986   1.082  0.1216  0.0994 -0.0694
 1622ntf    nn312168   5.589   0.911   1.151 -0.0402  0.3005 -0.1290
 1622ntf    sn212169   5.571   0.896   1.306 -0.0901 -0.0736 -0.1692
 1622ntf    cn112170   5.677   0.749   1.322 -0.1740 -0.1736 -0.5202
 1622ntf    fn412171   5.770   1.229   1.031  0.2646  0.2383  0.3286
 1622ntf    fn412172   5.568   1.189   0.981  0.3174  0.2093 -0.5401
 1622ntf    fn412173   5.621   1.203   1.187 -0.2681 -0.5146 -0.2885
 1622ntf    on512174   5.718   0.936   0.948  0.5786 -0.0319  0.0109
 1622ntf    on512175   5.829   0.985   1.161  0.0797 -0.4181 -0.0058
 1622ntf    on512176   5.436   0.862   1.346 -0.0991  0.0407 -0.1022
 1622ntf    on512177   5.630   1.003   1.383  0.2843 -0.3012 -0.1393
 1622ntf    fn412178   5.807   0.774   1.314 -0.1491 -0.0330  0.2052
 1622ntf    fn412179   5.656   0.685   1.436 -0.1552 -0.4587 -0.6775
 1622ntf    fn412180   5.654   0.660   1.227  0.2417 -0.1855 -0.6137
 1623ntf    cn112181   2.506   5.625   3.508 -0.3359 -0.2050 -0.1592
 1623ntf    sn212182   2.424   5.558   3.360 -0.0401 -0.0486 -0.3943
 1623ntf    nn312183   2.536   5.463   3.304 -0.1312 -0.3785 -0.0191
 1623ntf    sn212184   2.630   5.497   3.183 -0.1501 -0.1206  0.0386
 1623ntf    cn112185   2.556   5.390   3.056 -0.0494  0.1821 -0.2762
 1623ntf    fn412186   2.610   5.699   3.475 -0.2036 -0.1822  0.2931
 1623ntf    fn412187   2.426   5.703   3.579  0.0089 -0.3898  0.4403
 1623ntf    fn412188   2.552   5.531   3.589 -0.6527 -0.0185  0.2422
 1623ntf    on512189   2.307   5.495   3.416  0.0703 -0.2243 -0.3599
 1623ntf    on512190   2.392   5.679   3.289  0.6179  0.3266 -0.0575
 1623ntf    on512191   2.761   5.439   3.200 -0.0854 -0.1920 -0.6833
 1623ntf    on512192   2.626   5.628   3.122  0.6259 -0.3038 -0.4169
 1623ntf    fn412193   2.620   5.393   2.941 -0.4419  0.4220 -0.4895
 1623ntf    fn412194   2.568   5.267   3.104 -0.2861  0.2711  0.0177
 1623ntf    fn412195   2.427   5.391   3.027 -0.1308 -0.0387  0.0670
 1624ntf    cn112196   5.624   5.291   0.808  0.3628 -0.1186  0.1367
 1624ntf    sn212197   5.731   5.376   0.688  0.2621 -0.3674 -0.1301
 1624ntf    nn312198   5.821   5.470   0.776 -0.0121  0.0589 -0.2958
 1624ntf    sn212199   5.976   5.474   0.802 -0.1177  0.0784  0.3489
 1624ntf    cn112200   5.987   5.473   0.983  0.1941  0.0557  0.3296
 1624ntf    fn412201   5.546   5.370   0.881  0.4847 -0.1565  0.3064
 1624ntf    fn412202   5.544   5.200   0.755 -0.1374  0.1135  0.4898
 1624ntf    fn412203   5.702   5.226   0.893 -0.2168 -0.2331  0.5867
 1624ntf    on512204   5.805   5.269   0.628  0.0909 -0.6124  0.0936
 1624ntf    on512205   5.636   5.450   0.608  0.4702  0.1796  0.1223
 1624ntf    on512206   6.025   5.608   0.782 -0.2940  0.0975  0.0344
 1624ntf    on512207   6.053   5.358   0.764  0.0627 -0.0040  0.9556
 1624ntf    fn412208   5.934   5.362   1.033 -0.5674  0.3902  0.2835
 1624ntf    fn412209   6.110   5.489   1.031  0.4157  0.7769 -0.4691
 1624ntf    fn412210   5.909   5.566   1.035  0.2798  0.2865  0.0391
 1625ntf    cn112211   2.351   4.491   2.830  0.3320 -0.2921  0.3326
 1625ntf    sn212212   2.334   4.435   2.658 -0.1832  0.0220  0.2775
 1625ntf    nn312213   2.462   4.344   2.657  0.3755  0.7815  0.9872
 1625ntf    sn212214   2.590   4.363   2.568  0.1262 -0.0397  0.4451
 1625ntf    cn112215   2.544   4.299   2.404  0.0922  0.3032  0.3207
 1625ntf    fn412216   2.474   4.531   2.856  0.0576  0.5121  0.4398
 1625ntf    fn412217   2.260   4.583   2.859  0.2115 -0.0867 -0.6669
 1625ntf    fn412218   2.328   4.395   2.918 -0.5197 -0.1723  0.2506
 1625ntf    on512219   2.218   4.350   2.656 -0.0784 -0.1139 -0.4815
 1625ntf    on512220   2.322   4.555   2.578 -0.1423  0.3058  0.6953
 1625ntf    on512221   2.704   4.283   2.605  0.2353 -0.0045  0.1889
 1625ntf    on512222   2.621   4.502   2.544  0.4378 -0.2310 -0.3192
 1625ntf    fn412223   2.463   4.195   2.416  0.0863  0.2179 -0.4081
 1625ntf    fn412224   2.485   4.391   2.328 -0.1244 -0.2648 -0.2053
 1625ntf    fn412225   2.649   4.250   2.340 -0.4583  0.2784 -0.5861
 1626ntf    cn112226   6.558   0.270   4.608 -0.2197 -0.8437  0.1026
 1626ntf    sn212227   6.433   0.365   4.517  0.2498 -0.2336  0.0898
 1626ntf    nn312228   6.517   0.409   4.392  0.4084  0.0699  0.3019
 1626ntf    sn212229   6.558   0.547   4.331  0.0826  0.0262 -0.0206
 1626ntf    cn112230   6.721   0.583   4.402  0.0109  0.4386 -0.0592
 1626ntf    fn412231   6.656   0.349   4.648 -0.1064 -0.5453 -0.7581
 1626ntf    fn412232   6.505   0.208   4.712 -0.0556  0.0874  0.7534
 1626ntf    fn412233   6.602   0.176   4.526  0.4802 -0.0880 -0.4036
 1626ntf    on512234   6.335   0.267   4.478 -0.1661  0.2433 -0.0794
 1626ntf    on512235   6.386   0.461   4.613  0.0057 -0.4243  0.1626
 1626ntf    on512236   6.485   0.661   4.381 -0.3226 -0.1615 -0.1775
 1626ntf    on512237   6.585   0.538   4.189 -0.3067 -0.4062 -0.0677
 1626ntf    fn412238   6.799   0.476   4.392  0.2093  0.5884 -0.1215
 1626ntf    fn412239   6.784   0.681   4.340  0.1434  0.3644 -0.0430
 1626ntf    fn412240   6.714   0.602   4.533  0.0365 -0.9921  0.1657
 1627ntf    cn112241   4.248   3.367   1.916 -0.0919  0.1971 -0.3382
 1627ntf    sn212242   4.067   3.353   1.905 -0.0793  0.2173 -0.5822
 1627ntf    nn312243   4.027   3.418   1.768  0.3904  0.3189 -0.6721
 1627ntf    sn212244   3.958   3.342   1.649 -0.1444 -0.0775 -0.1159
 1627ntf    cn112245   3.915   3.485   1.545 -0.8399 -0.5092 -0.4246
 1627ntf    fn412246   4.292   3.341   2.038  0.0696  0.5474 -0.3209
 1627ntf    fn412247   4.311   3.292   1.828  0.2333 -0.1646  0.1925
 1627ntf    fn412248   4.284   3.493   1.896  0.0255  0.1882 -0.1866
 1627ntf    on512249   4.058   3.209   1.910  0.4966  0.1932 -0.1051
 1627ntf    on512250   4.013   3.425   2.018  0.2783  0.2673 -0.4417
 1627ntf    on512251   3.830   3.282   1.674 -0.3375  0.3794  0.0002
 1627ntf    on512252   4.049   3.269   1.564 -0.1734 -0.5972  0.2972
 1627ntf    fn412253   3.837   3.444   1.446 -0.3662 -0.2044 -0.9248
 1627ntf    fn412254   3.855   3.576   1.620 -0.1339 -0.1712 -0.2669
 1627ntf    fn412255   4.025   3.539   1.497 -0.5681 -0.2809  0.4320
 1628ntf    cn112256   3.181   0.781   2.435 -0.0928 -0.3380 -0.0669
 1628ntf    sn212257   3.110   0.779   2.602  0.3713  0.0533  0.1385
 1628ntf    nn312258   3.167   0.920   2.643  0.2618  0.1886 -0.1727
 1628ntf    sn212259   3.089   1.055   2.652 -0.0582 -0.0173  0.1495
 1628ntf    cn112260   3.193   1.148   2.768  0.0494  0.0501 -0.0016
 1628ntf    fn412261   3.165   0.672   2.362  0.0143 -0.1597 -0.3587
 1628ntf    fn412262   3.133   0.881   2.363  0.2023 -0.4246 -0.3853
 1628ntf    fn412263   3.311   0.804   2.439 -0.1818  0.1447  0.2275
 1628ntf    on512264   2.969   0.775   2.570  0.3882  0.3177  0.0242
 1628ntf    on512265   3.159   0.662   2.671  0.6886  0.4440  0.5806
 1628ntf    on512266   2.959   1.044   2.715 -0.3605  0.1956 -0.4282
 1628ntf    on512267   3.101   1.129   2.529  0.3449  0.0055  0.2021
 1628ntf    fn412268   3.319   1.155   2.728  0.1489  0.4676  0.3688
 1628ntf    fn412269   3.150   1.273   2.782 -0.4958 -0.1550  0.1330
 1628ntf    fn412270   3.193   1.101   2.891  0.1782 -0.1099 -0.0628
 1629ntf    cn112271   5.106   3.076   3.059  0.3149 -0.2355 -0.0570
 1629ntf    sn212272   5.060   3.018   3.225  0.2250 -0.0743 -0.0248
 1629ntf    nn312273   5.122   2.874   3.216 -0.5959 -0.4480  0.2113
 1629ntf    sn212274   5.211   2.795   3.318 -0.1357  0.0237  0.1769
 1629ntf    cn112275   5.102   2.655   3.357 -0.1798  0.0841  0.2706
 1629ntf    fn412276   5.036   3.014   2.966  0.2609 -0.3583  0.0663
 1629ntf    fn412277   5.070   3.202   3.036 -0.0075 -0.3637 -0.2520
 1629ntf    fn412278   5.233   3.057   3.025  0.3682  0.1772 -0.1017
 1629ntf    on512279   5.121   3.114   3.312 -0.3216  0.0247  0.2560
 1629ntf    on512280   4.916   3.010   3.224  0.2208  0.0153 -0.2133
 1629ntf    on512281   5.236   2.860   3.444 -0.5538 -0.0926  0.3208
 1629ntf    on512282   5.323   2.735   3.250 -0.4998 -0.1148 -0.3039
 1629ntf    fn412283   5.165   2.565   3.430 -0.0654  0.0762  0.1618
 1629ntf    fn412284   4.996   2.701   3.422 -0.1025  0.5181  0.0881
 1629ntf    fn412285   5.066   2.586   3.250  0.6276  0.1184 -0.0294
 1630ntf    cn112286   5.044   5.947   3.445  0.3269 -0.0888  0.3137
 1630ntf    sn212287   4.983   6.071   3.326  0.3379 -0.2867  0.1033
 1630ntf    nn312288   4.834   6.072   3.376  0.1997  0.1349 -0.3185
 1630ntf    sn212289   4.717   5.974   3.342  0.3729 -0.2298  0.1357
 1630ntf    cn112290   4.581   6.089   3.306  0.3728 -0.3849 -0.3671
 1630ntf    fn412291   4.993   5.828   3.418 -0.5080  0.2258  0.4652
 1630ntf    fn412292   5.176   5.935   3.447  0.3854  0.3984 -0.1218
 1630ntf    fn412293   5.006   5.972   3.570 -0.0555  0.3722  0.1095
 1630ntf    on512294   5.055   6.192   3.356 -0.4757  0.1392  0.3538
 1630ntf    on512295   5.005   6.008   3.198  0.7225  0.0307  0.0094
 1630ntf    on512296   4.667   5.911   3.463  0.1132  0.1503  0.2270
 1630ntf    on512297   4.723   5.882   3.231 -0.1946  0.1712 -0.2293
 1630ntf    fn412298   4.549   6.163   3.412 -0.2267 -1.0920 -0.0497
 1630ntf    fn412299   4.613   6.168   3.204  0.0888  0.0238 -0.1453
 1630ntf    fn412300   4.464   6.032   3.282  0.1057  0.0174 -0.0420
 1631ntf    cn112301   3.550   3.885   5.879 -0.4670  0.0969  0.1561
 1631ntf    sn212302   3.595   3.988   5.736  0.0068 -0.0759  0.1783
 1631ntf    nn312303   3.453   4.028   5.681  0.0133 -0.0902  0.1514
 1631ntf    sn212304   3.366   3.970   5.564  0.1801 -0.3851  0.1707
 1631ntf    cn112305   3.415   4.085   5.431  0.1030 -0.3519  0.1717
 1631ntf    fn412306   3.468   3.959   5.951  0.0970  0.5941  0.2917
 1631ntf    fn412307   3.483   3.775   5.847  0.0042 -0.0627 -0.2973
 1631ntf    fn412308   3.646   3.838   5.958 -0.2599  0.2354 -0.0139
 1631ntf    on512309   3.658   4.098   5.804 -0.0503 -0.1063  0.2808
 1631ntf    on512310   3.679   3.907   5.651  0.3824  0.6431 -0.1372
 1631ntf    on512311   3.226   4.000   5.578  0.1669  0.1898 -1.0201
 1631ntf    on512312   3.405   3.843   5.507  0.0174 -0.2463 -0.2600
 1631ntf    fn412313   3.353   4.056   5.317 -0.0184  0.0278  0.1408
 1631ntf    fn412314   3.388   4.209   5.468 -0.4639 -0.4849  0.2114
 1631ntf    fn412315   3.543   4.089   5.400  0.0057 -0.2835 -0.2331
 1632ntf    cn112316   0.133   5.306   3.858 -0.1944  0.2664 -0.2063
 1632ntf    sn212317  -0.039   5.299   3.916 -0.2305 -0.1524 -0.3589
 1632ntf    nn312318  -0.125   5.309   3.785  0.0905  0.1877 -0.5474
 1632ntf    sn212319  -0.163   5.442   3.711 -0.2357  0.3446 -0.1017
 1632ntf    cn112320  -0.320   5.483   3.794 -0.3209 -0.2437  0.0344
 1632ntf    fn412321   0.153   5.400   3.767  0.0312  0.6003  0.1836
 1632ntf    fn412322   0.222   5.324   3.955  0.0295  0.0358 -0.3682
 1632ntf    fn412323   0.167   5.191   3.802 -0.0251  0.1956  0.0455
 1632ntf    on512324  -0.048   5.173   3.985  0.0701 -0.0141 -0.0596
 1632ntf    on512325  -0.048   5.412   4.006  0.3993 -0.5407  0.2029
 1632ntf    on512326  -0.197   5.413   3.574  0.2958 -0.2943 -0.1040
 1632ntf    on512327  -0.079   5.556   3.739  0.1150  0.0059  0.2365
 1632ntf    fn412328  -0.369   5.603   3.765  0.4334  0.0192 -0.1837
 1632ntf    fn412329  -0.415   5.402   3.751 -0.5270  0.0327 -0.0357
 1632ntf    fn412330  -0.319   5.480   3.926  0.4229  0.1296  0.0444
 1633ntf    cn112331   5.436   0.284   6.283  0.3393  0.2933  0.1885
 1633ntf    sn212332   5.376   0.238   6.448  0.3653 -0.2095  0.0614
 1633ntf    nn312333   5.226   0.205   6.412  0.0923  0.3682  0.6541
 1633ntf    sn212334   5.129   0.092   6.460  0.2756  0.0869  0.3616
 1633ntf    cn112335   5.021   0.196   6.563  0.2286  0.0639  0.3362
 1633ntf    fn412336   5.362   0.223   6.192 -0.0575  0.3026  0.5028
 1633ntf    fn412337   5.436   0.414   6.259 -0.2772  0.3582  0.5274
 1633ntf    fn412338   5.564   0.248   6.274  0.1191 -0.4207 -0.2228
 1633ntf    on512339   5.461   0.126   6.478  0.2238 -0.3228  0.0429
 1633ntf    on512340   5.386   0.359   6.526  0.1585 -0.3277  0.2707
 1633ntf    on512341   5.184  -0.000   6.556 -0.3534 -0.2263  0.4260
 1633ntf    on512342   5.050   0.039   6.351  0.2954  0.2492  0.2684
 1633ntf    fn412343   5.100   0.256   6.650  0.2337  0.6198 -0.0514
 1633ntf    fn412344   4.960   0.289   6.492  0.2967 -0.1397  0.0049
 1633ntf    fn412345   4.936   0.120   6.630 -0.1160  0.1425 -0.0098
 1634ntf    cn112346   1.292   5.380   1.208  0.1551 -0.0397 -0.0265
 1634ntf    sn212347   1.249   5.434   1.039  0.0759 -0.0620 -0.0133
 1634ntf    nn312348   1.374   5.523   1.005  0.2285  0.1050  0.9359
 1634ntf    sn212349   1.390   5.676   1.035  0.0892  0.2678  0.2239
 1634ntf    cn112350   1.568   5.660   1.072  0.1673  0.4835 -0.0536
 1634ntf    fn412351   1.328   5.472   1.296  0.3328 -0.0991 -0.0369
 1634ntf    fn412352   1.185   5.320   1.256  0.0472  0.2752  0.1285
 1634ntf    fn412353   1.381   5.283   1.205  0.1949 -0.0040  0.0187
 1634ntf    on512354   1.251   5.309   0.967  0.0201 -0.0913  0.0351
 1634ntf    on512355   1.118   5.495   1.041  0.2103  0.2265  0.0218
 1634ntf    on512356   1.333   5.723   1.159  0.1176 -0.2743  0.4493
 1634ntf    on512357   1.394   5.768   0.925  0.0267 -0.0423 -0.0395
 1634ntf    fn412358   1.604   5.786   1.093 -0.5483  0.5871  0.6066
 1634ntf    fn412359   1.590   5.590   1.183  0.2785  0.3448 -0.1643
 1634ntf    fn412360   1.637   5.606   0.973  0.1670  0.0154  0.1978
 1635ntf    cn112361   6.088   5.727   4.034 -0.2160  0.1061 -0.3658
 1635ntf    sn212362   5.982   5.812   4.155  0.1751  0.2499 -0.1230
 1635ntf    nn312363   6.084   5.839   4.271  0.4930 -0.1626 -0.3037
 1635ntf    sn212364   6.088   5.770   4.412  0.1716  0.0088 -0.2104
 1635ntf    cn112365   6.146   5.603   4.370 -0.0238 -0.1170  0.0131
 1635ntf    fn412366   6.043   5.742   3.910 -0.3352  0.4991 -0.2778
 1635ntf    fn412367   6.211   5.776   4.041 -0.1216 -0.1264 -0.3842
 1635ntf    fn412368   6.099   5.598   4.060 -0.1643  0.2276  0.2371
 1635ntf    on512369   5.953   5.940   4.096 -0.0343  0.3767  0.2547
 1635ntf    on512370   5.873   5.721   4.179  0.2258  0.2945  0.2761
 1635ntf    on512371   5.965   5.753   4.486  0.2113  0.8454  0.0571
 1635ntf    on512372   6.204   5.822   4.479  0.1166 -0.0721 -0.0513
 1635ntf    fn412373   6.058   5.539   4.295  0.2248 -0.5132  0.0538
 1635ntf    fn412374   6.252   5.616   4.292 -0.1042  0.3114 -0.0237
 1635ntf    fn412375   6.174   5.527   4.474 -0.3073 -0.2012  0.0291
 1636ntf    cn112376   6.650   2.314   3.207  0.1219  0.0859 -0.0672
 1636ntf    sn212377   6.528   2.326   3.342 -0.0462  0.5241 -0.2562
 1636ntf    nn312378   6.609   2.251   3.453 -0.6723  0.1606 -0.0417
 1636ntf    sn212379   6.635   2.096   3.465 -0.1016  0.2445 -0.1655
 1636ntf    cn112380   6.577   2.073   3.635  0.4336 -0.4806 -0.0812
 1636ntf    fn412381   6.696   2.194   3.180  0.1862  0.0983 -0.0143
 1636ntf    fn412382   6.606   2.355   3.089 -0.1319 -0.1669 -0.0600
 1636ntf    fn412383   6.755   2.391   3.232 -0.4619  0.7706  0.3294
 1636ntf    on512384   6.531   2.467   3.373  0.6358  0.4257  0.1322
 1636ntf    on512385   6.412   2.260   3.288  0.2478 -0.4909  0.3382
 1636ntf    on512386   6.773   2.055   3.467 -0.2445 -0.2069  0.6179
 1636ntf    on512387   6.550   2.008   3.389  0.5664  0.1894 -0.8633
 1636ntf    fn412388   6.450   2.105   3.650  0.6239  0.0970  0.3386
 1636ntf    fn412389   6.583   1.947   3.677 -0.1536 -0.4761  0.0250
 1636ntf    fn412390   6.646   2.144   3.723 -0.3835  0.2091  0.0059
 1637ntf    cn112391   2.658   1.488   5.659  0.0039 -0.0328 -0.4456
 1637ntf    sn212392   2.634   1.372   5.520  0.2779 -0.4196 -0.1747
 1637ntf    nn312393   2.748   1.270   5.555  0.7016  0.2687  0.4949
 1637ntf    sn212394   2.767   1.115   5.565 -0.0305  0.1453  0.0259
 1637ntf    cn112395   2.764   1.080   5.743 -0.2240 -0.4121 -0.0829
 1637ntf    fn412396   2.563   1.579   5.662 -0.0246 -0.0711 -0.1969
 1637ntf    fn412397   2.662   1.432   5.779  0.5989  0.8441 -0.0439
 1637ntf    fn412398   2.775   1.547   5.645 -0.0143  0.2455  0.5286
 1637ntf    on512399   2.499   1.324   5.542  0.0138  0.2848 -0.2258
 1637ntf    on512400   2.670   1.451   5.405  0.3410 -0.4964 -0.2077
 1637ntf    on512401   2.904   1.086   5.530 -0.0470  0.4069 -0.2579
 1637ntf    on512402   2.666   1.026   5.513  0.0649  0.0240  0.0459
 1637ntf    fn412403   2.875   1.118   5.804 -0.3242 -0.1010 -0.0897
 1637ntf    fn412404   2.660   1.142   5.798  0.1980 -0.2464  0.5453
 1637ntf    fn412405   2.755   0.951   5.771 -0.4052 -0.2346  0.7068
 1638ntf    cn112406   4.678   4.097   6.572  0.1140  0.4305  0.1286
 1638ntf    sn212407   4.625   4.260   6.513  0.0361  0.2394 -0.3330
 1638ntf    nn312408   4.623   4.229   6.359  0.2251 -0.5213 -0.1849
 1638ntf    sn212409   4.494   4.228   6.270  0.0997 -0.3265 -0.0071
 1638ntf    cn112410   4.453   4.405   6.262  0.1680 -0.3137 -0.0877
 1638ntf    fn412411   4.710   4.099   6.701 -0.1096 -0.0096  0.1951
 1638ntf    fn412412   4.592   3.997   6.565  0.2111  0.3404  0.2050
 1638ntf    fn412413   4.784   4.060   6.503 -0.3573 -0.2267 -0.2533
 1638ntf    on512414   4.500   4.279   6.582  0.0777 -0.0564 -0.1764
 1638ntf    on512415   4.730   4.352   6.550  0.0502  0.0044  0.2203
 1638ntf    on512416   4.375   4.169   6.325  0.0367  0.0481  0.2637
 1638ntf    on512417   4.530   4.193   6.134 -0.6387 -0.3683 -0.1964
 1638ntf    fn412418   4.541   4.475   6.193  0.2020  0.2659  0.5268
 1638ntf    fn412419   4.335   4.420   6.203  0.1765 -0.2541 -0.0890
 1638ntf    fn412420   4.446   4.455   6.385 -0.0284  0.3827 -0.3806
 1639ntf    cn112421   1.118   4.481   2.079  0.2172 -0.2682  0.3231
 1639ntf    sn212422   1.072   4.340   1.974 -0.4814  0.0114  0.2480
 1639ntf    nn312423   1.117   4.391   1.832 -0.3357 -0.4181  0.1388
 1639ntf    sn212424   1.026   4.446   1.716  0.1009 -0.2674 -0.1353
 1639ntf    cn112425   1.004   4.296   1.616 -0.2086 -0.0913 -0.3344
 1639ntf    fn412426   1.060   4.475   2.198 -0.1922 -0.1498  0.1290
 1639ntf    fn412427   1.249   4.469   2.099  0.2878  0.2575  0.1990
 1639ntf    fn412428   1.093   4.596   2.018 -0.2978 -0.4744  0.1448
 1639ntf    on512429   1.145   4.225   2.021 -0.3669  0.0858  0.2528
 1639ntf    on512430   0.931   4.324   1.995 -0.4523 -0.1348  0.3302
 1639ntf    on512431   1.097   4.540   1.633  0.0490 -0.0447  0.0687
 1639ntf    on512432   0.895   4.490   1.757  0.3610  0.0757  0.3454
 1639ntf    fn412433   1.122   4.263   1.566 -0.1173 -0.0806 -0.1270
 1639ntf    fn412434   0.959   4.193   1.685  0.2657 -0.2731 -0.2944
 1639ntf    fn412435   0.921   4.314   1.515 -0.2885  0.1034 -0.2349
 1640ntf    cn112436   6.171   0.604   0.567 -0.1385 -0.2689  0.0760
 1640ntf    sn212437   6.346   0.634   0.605 -0.1552 -0.2847  0.1659
 1640ntf    nn312438   6.393   0.648   0.456  0.0163  0.2354  0.2669
 1640ntf    sn212439   6.519   0.716   0.390  0.2437 -0.1226  0.3303
 1640ntf    cn112440   6.573   0.584   0.276 -0.6399  0.1727 -0.4411
 1640ntf    fn412441   6.084   0.623   0.665 -0.0341  0.3278  0.0558
 1640ntf    fn412442   6.134   0.692   0.475 -0.2190  0.2427  0.5868
 1640ntf    fn412443   6.154   0.480   0.526  0.5522 -0.3107 -0.0922
 1640ntf    on512444   6.353   0.747   0.695 -0.8994 -0.6204  0.6585
 1640ntf    on512445   6.395   0.508   0.654  0.3523 -0.0646  0.2347
 1640ntf    on512446   6.625   0.738   0.486  0.2842  0.5228  0.1385
 1640ntf    on512447   6.480   0.819   0.297  0.2794 -0.5312 -0.1393
 1640ntf    fn412448   6.605   0.469   0.332 -0.3434  0.4879  0.0461
 1640ntf    fn412449   6.474   0.558   0.192 -1.0037 -0.1420  0.0807
 1640ntf    fn412450   6.679   0.622   0.207 -0.1147 -0.1630  0.1738
 1641ntf    cn112451   0.920   3.446   2.293  0.5221 -0.0736 -0.2259
 1641ntf    sn212452   0.896   3.553   2.148 -0.0580 -0.1937 -0.2221
 1641ntf    nn312453   0.742   3.534   2.123 -0.1198  0.5039 -0.3700
 1641ntf    sn212454   0.681   3.436   2.017  0.0222  0.0090  0.0078
 1641ntf    cn112455   0.617   3.548   1.889 -0.1009  0.1157  0.1630
 1641ntf    fn412456   1.038   3.389   2.309  0.4321 -0.2114 -0.0450
 1641ntf    fn412457   0.903   3.504   2.411 -0.0755 -0.1566 -0.2640
 1641ntf    fn412458   0.824   3.355   2.291  0.2238  0.2234  0.1663
 1641ntf    on512459   0.922   3.689   2.186 -0.2948  0.0407 -0.8858
 1641ntf    on512460   0.990   3.502   2.051  0.1991 -0.0098 -0.0708
 1641ntf    on512461   0.563   3.380   2.079  0.3133 -0.4723  0.1379
 1641ntf    on512462   0.764   3.347   1.939  0.1934  0.1953 -0.0204
 1641ntf    fn412463   0.708   3.610   1.816 -0.2789  0.0300 -0.1292
 1641ntf    fn412464   0.543   3.483   1.801  0.1356 -0.2490  0.2300
 1641ntf    fn412465   0.536   3.639   1.941 -0.4438 -0.0674 -0.0506
 1642ntf    cn112466   2.484   4.334   0.048 -0.3726  0.3487 -0.2477
 1642ntf    sn212467   2.520   4.452   0.182 -0.2113  0.0820 -0.0548
 1642ntf    nn312468   2.561   4.569   0.085  0.3505 -0.1074 -0.0450
 1642ntf    sn212469   2.554   4.723   0.115 -0.2094 -0.1092 -0.1488
 1642ntf    cn112470   2.684   4.781   0.002 -0.0454 -0.2406 -0.0299
 1642ntf    fn412471   2.585   4.315  -0.035 -0.1167 -0.1202  0.1656
 1642ntf    fn412472   2.445   4.219   0.100  0.7594 -0.0422 -0.2447
 1642ntf    fn412473   2.381   4.367  -0.029 -0.6003 -0.1417 -0.1553
 1642ntf    on512474   2.400   4.468   0.262  0.0142  0.3055  0.2412
 1642ntf    on512475   2.636   4.398   0.247 -0.3249 -0.1439 -0.0400
 1642ntf    on512476   2.601   4.765   0.245 -0.2031  0.0203 -0.1937
 1642ntf    on512477   2.437   4.788   0.063 -0.0936 -0.1979 -0.5260
 1642ntf    fn412478   2.663   4.746  -0.124 -0.1974 -0.6370  0.1039
 1642ntf    fn412479   2.705   4.912   0.005  0.0416 -0.2564  0.0241
 1642ntf    fn412480   2.802   4.730   0.034 -0.1419 -0.4376  0.0138
 1643ntf    cn112481   1.557   5.019   2.807 -0.1441  0.0699 -0.1140
 1643ntf    sn212482   1.545   4.901   2.669  0.2699  0.1423 -0.2115
 1643ntf    nn312483   1.655   4.799   2.714 -0.2718 -0.2390  0.2522
 1643ntf    sn212484   1.636   4.668   2.799 -0.2046 -0.2720  0.2160
 1643ntf    cn112485   1.781   4.675   2.908 -0.0191 -0.2555 -0.0320
 1643ntf    fn412486   1.560   4.964   2.927 -0.3422  0.4800  0.0801
 1643ntf    fn412487   1.668   5.089   2.796 -0.1606  0.0240 -0.6240
 1643ntf    fn412488   1.452   5.101   2.800 -0.0913  0.0917 -0.7519
 1643ntf    on512489   1.405   4.867   2.669  0.2208  0.2678  1.4374
 1643ntf    on512490   1.586   4.987   2.560  0.1997 -0.1989 -0.5100
 1643ntf    on512491   1.667   4.553   2.717 -0.0738 -0.1649  0.1139
 1643ntf    on512492   1.517   4.656   2.879 -0.1262 -0.8193  0.2526
 1643ntf    fn412493   1.781   4.576   2.995  0.2003  0.1195  0.4006
 1643ntf    fn412494   1.891   4.676   2.833  0.3862  0.2363  0.5509
 1643ntf    fn412495   1.785   4.784   2.984 -0.0140 -0.2848  0.0103
 1644ntf    cn112496   3.318   3.602   6.615 -0.4381  0.4614 -0.0088
 1644ntf    sn212497   3.312   3.427   6.662 -0.1098  0.4509 -0.0046
 1644ntf    nn312498   3.442   3.403   6.747 -0.4605 -0.3712  0.3173
 1644ntf    sn212499   3.461   3.441   6.898  0.4822  0.1161  0.0840
 1644ntf    cn112500   3.401   3.286   6.971 -0.1077  0.4290  0.2705
 1644ntf    fn412501   3.433   3.630   6.556 -0.5466  0.1920 -0.3500
 1644ntf    fn412502   3.222   3.635   6.530 -0.1566  0.5380 -0.2957
 1644ntf    fn412503   3.297   3.684   6.717  0.2190  0.5607  0.0471
 1644ntf    on512504   3.194   3.402   6.740  0.3340 -0.7492  0.3005
 1644ntf    on512505   3.324   3.349   6.541 -0.0249  0.3781  0.0507
 1644ntf    on512506   3.376   3.546   6.949 -0.2332 -0.3428 -0.1494
 1644ntf    on512507   3.598   3.449   6.941  0.3873 -0.0854  0.4277
 1644ntf    fn412508   3.440   3.180   6.901 -0.4331  0.8187 -0.5217
 1644ntf    fn412509   3.439   3.267   7.096  0.2117 -0.4529  0.0520
 1644ntf    fn412510   3.269   3.282   6.978 -0.1419  0.0178 -0.4711
 1645ntf    cn112511   2.188   4.903   1.966  0.0449  0.0730 -0.1351
 1645ntf    sn212512   2.139   4.777   2.087 -0.3175  0.2019 -0.1461
 1645ntf    nn312513   1.983   4.776   2.074 -0.3598 -0.3868  0.3390
 1645ntf    sn212514   1.879   4.683   2.003 -0.1249 -0.4676  0.1014
 1645ntf    cn112515   1.859   4.561   2.137  0.1472 -0.4768  0.1350
 1645ntf    fn412516   2.319   4.920   1.960  0.0898 -0.2901 -0.2100
 1645ntf    fn412517   2.146   4.864   1.846 -0.3004  0.0002  0.0089
 1645ntf    fn412518   2.131   5.021   1.979 -0.1698 -0.0512  0.0652
 1645ntf    on512519   2.210   4.655   2.054 -0.2022  0.2123  0.0552
 1645ntf    on512520   2.177   4.845   2.208 -0.4431  0.1528 -0.0788
 1645ntf    on512521   1.926   4.619   1.883  0.1433 -0.6084  0.2814
 1645ntf    on512522   1.747   4.741   1.994 -0.0045 -0.1521  0.3909
 1645ntf    fn412523   1.961   4.532   2.216 -0.3506 -0.7167  0.7016
 1645ntf    fn412524   1.757   4.602   2.212  0.1173 -0.2862 -0.0082
 1645ntf    fn412525   1.822   4.443   2.091 -0.0534 -0.4875  0.3181
 1646ntf    cn112526   0.611   5.072   2.143 -0.2686  0.0021  0.2146
 1646ntf    sn212527   0.432   5.041   2.129 -0.2621 -0.0470  0.2387
 1646ntf    nn312528   0.428   4.896   2.189 -0.7503 -0.2678 -0.3115
 1646ntf    sn212529   0.409   4.857   2.340  0.1420  0.0574 -0.1076
 1646ntf    cn112530   0.249   4.932   2.380  0.0411 -0.0239 -0.3553
 1646ntf    fn412531   0.658   5.117   2.258  0.5493  0.6313 -0.3588
 1646ntf    fn412532   0.679   4.961   2.117 -0.6034  0.0583 -0.9624
 1646ntf    fn412533   0.646   5.161   2.052  0.7206 -0.2529  0.3357
 1646ntf    on512534   0.368   5.147   2.204 -0.2884  0.0528  0.0756
 1646ntf    on512535   0.402   5.039   1.988 -0.2960 -0.2955  0.2486
 1646ntf    on512536   0.503   4.922   2.427 -0.0800  0.2633 -0.0210
 1646ntf    on512537   0.397   4.716   2.367 -0.0909  0.0081 -0.4588
 1646ntf    fn412538   0.247   5.063   2.398  0.3112 -0.0093 -0.4406
 1646ntf    fn412539   0.160   4.893   2.290  0.2051 -0.1044 -0.4818
 1646ntf    fn412540   0.204   4.879   2.493 -0.1420  0.2808 -0.2852
 1647ntf    cn112541   6.420   1.441   4.453 -0.1851  0.2419 -0.1693
 1647ntf    sn212542   6.363   1.434   4.280 -0.1240  0.2975 -0.1921
 1647ntf    nn312543   6.328   1.282   4.265  0.0575  0.2422 -0.0654
 1647ntf    sn212544   6.217   1.205   4.346 -0.0936  0.2026 -0.3068
 1647ntf    cn112545   6.084   1.190   4.224 -0.4336 -0.1054  0.0979
 1647ntf    fn412546   6.506   1.345   4.481 -0.3027  0.1722 -0.0468
 1647ntf    fn412547   6.493   1.547   4.484  0.1682 -0.1238  0.2554
 1647ntf    fn412548   6.326   1.437   4.547 -0.0397  0.3445 -0.0203
 1647ntf    on512549   6.247   1.519   4.274 -0.1275  0.4032  1.0973
 1647ntf    on512550   6.480   1.485   4.213  0.2791 -0.3066  0.0454
 1647ntf    on512551   6.159   1.273   4.460  0.3763  0.1650 -0.0430
 1647ntf    on512552   6.258   1.069   4.368  0.2420  0.3513  0.0146
 1647ntf    fn412553   6.015   1.303   4.214 -0.2574 -0.0431 -0.4371
 1647ntf    fn412554   6.141   1.168   4.106  0.1171  0.4271  0.2586
 1647ntf    fn412555   6.004   1.087   4.250 -0.6024 -0.0378 -0.1424
 1648ntf    cn112556   6.246   4.821   3.760 -0.3075 -0.2943 -0.4354
 1648ntf    sn212557   6.198   4.682   3.868  0.1118 -0.1524 -0.0627
 1648ntf    nn312558   6.136   4.768   3.984 -0.1274  0.6029 -0.7349
 1648ntf    sn212559   5.992   4.828   4.000 -0.2711 -0.0052  0.3894
 1648ntf    cn112560   5.900   4.690   4.074 -0.2889 -0.2192 -0.0287
 1648ntf    fn412561   6.144   4.901   3.735 -0.0635  0.2430  0.2580
 1648ntf    fn412562   6.337   4.898   3.817 -0.4848 -0.6358  0.3199
 1648ntf    fn412563   6.299   4.777   3.647  0.1033  0.0663 -0.3854
 1648ntf    on512564   6.097   4.607   3.798  0.2022  0.5186 -0.9271
 1648ntf    on512565   6.315   4.609   3.909  0.1455 -0.0443  0.0342
 1648ntf    on512566   5.929   4.867   3.876  0.2682 -0.4447 -0.0312
 1648ntf    on512567   5.991   4.929   4.103 -0.1183  0.2233  0.1681
 1648ntf    fn412568   5.778   4.733   4.102  0.0173  0.3180  0.5003
 1648ntf    fn412569   5.886   4.579   4.004  0.4677  0.0890 -0.6842
 1648ntf    fn412570   5.945   4.656   4.193 -0.6754 -0.1480  0.1383
 1649ntf    cn112571   1.923   6.578   2.648  0.0043  0.0600  0.0242
 1649ntf    sn212572   2.031   6.515   2.516 -0.3430  0.1566 -0.3094
 1649ntf    nn312573   2.069   6.372   2.570 -0.0706  0.2673 -0.2066
 1649ntf    sn212574   2.004   6.237   2.525  0.2636 -0.1182  0.4544
 1649ntf    cn112575   2.155   6.137   2.522  0.1994 -0.1997 -0.0812
 1649ntf    fn412576   1.807   6.514   2.658 -0.1382  0.1981 -0.6775
 1649ntf    fn412577   1.967   6.565   2.772 -0.0959 -0.0189  0.0525
 1649ntf    fn412578   1.884   6.704   2.636 -0.5454 -0.1268 -0.2010
 1649ntf    on512579   1.954   6.525   2.395 -0.4597  0.1091 -0.2394
 1649ntf    on512580   2.147   6.601   2.520  0.1483 -0.4954 -0.2736
 1649ntf    on512581   1.958   6.235   2.389  0.0149  0.0843  0.5349
 1649ntf    on512582   1.927   6.163   2.622  0.2023 -0.2650  0.2942
 1649ntf    fn412583   2.258   6.190   2.457  0.2595 -0.1027  0.0938
 1649ntf    fn412584   2.209   6.102   2.638 -0.0151 -0.3329 -0.0227
 1649ntf    fn412585   2.130   6.025   2.455 -0.1700  0.0607 -0.3802
 1650ntf    cn112586   0.491   2.469   6.632 -0.0225 -0.0479 -0.0125
 1650ntf    sn212587   0.669   2.448   6.665  0.0019  0.0068 -0.1057
 1650ntf    nn312588   0.663   2.344   6.783  0.3986 -0.0637 -0.1494
 1650ntf    sn212589   0.710   2.194   6.789  0.2984 -0.0928 -0.0924
 1650ntf    cn112590   0.883   2.218   6.841  0.2633 -0.1513  0.0526
 1650ntf    fn412591   0.465   2.560   6.539 -0.0383  0.2402  0.2746
 1650ntf    fn412592   0.436   2.359   6.583  0.5522 -0.1359 -0.4781
 1650ntf    fn412593   0.419   2.509   6.734  0.1901 -0.2294  0.2100
 1650ntf    on512594   0.721   2.393   6.543 -0.1033 -0.1663 -0.0737
 1650ntf    on512595   0.716   2.576   6.711 -0.4646  0.1635 -0.0595
 1650ntf    on512596   0.712   2.123   6.664 -0.1804 -0.3545  0.0454
 1650ntf    on512597   0.649   2.118   6.895  0.1263  0.0571 -0.0836
 1650ntf    fn412598   0.958   2.295   6.764  0.2840  0.0844  0.3070
 1650ntf    fn412599   0.883   2.270   6.963  0.0658  0.0603 -0.0364
 1650ntf    fn412600   0.948   2.103   6.850  0.3742 -0.0409  0.7515
 1651ntf    cn112601   0.455   4.304   0.475 -0.0673  0.2684 -0.3851
 1651ntf    sn212602   0.288   4.254   0.423 -0.1844  0.2714 -0.0109
 1651ntf    nn312603   0.262   4.376   0.327  0.2624  0.4064  0.0382
 1651ntf    sn212604   0.183   4.511   0.333 -0.3370  0.0563  0.1989
 1651ntf    cn112605   0.038   4.474   0.229 -0.0504  0.6943 -0.4441
 1651ntf    fn412606   0.516   4.217   0.553 -0.1391  0.1531 -0.4572
 1651ntf    fn412607   0.533   4.328   0.370  0.5927  0.3009  0.1093
 1651ntf    fn412608   0.445   4.417   0.542 -0.6453  0.2325 -0.4057
 1651ntf    on512609   0.305   4.135   0.343  1.7211  0.3623  0.2282
 1651ntf    on512610   0.214   4.255   0.547  0.3145 -0.1706  0.2929
 1651ntf    on512611   0.242   4.628   0.271 -0.5418 -0.0110 -0.1270
 1651ntf    on512612   0.119   4.533   0.460 -0.1520  0.1176  0.2814
 1651ntf    fn412613   0.070   4.405   0.121 -0.0155  0.4649 -0.2891
 1651ntf    fn412614  -0.062   4.415   0.293  0.3204  0.1704 -0.3443
 1651ntf    fn412615  -0.012   4.588   0.186 -0.3177  0.5731 -0.4568
 1652ntf    cn112616   1.663   1.872   0.028 -0.1632  0.3063 -0.1939
 1652ntf    sn212617   1.655   2.038  -0.046  0.0303  0.1660 -0.5320
 1652ntf    nn312618   1.501   2.064  -0.030  0.0761 -0.0899  0.4053
 1652ntf    sn212619   1.421   2.109   0.097 -0.2779  0.2413  0.0662
 1652ntf    cn112620   1.424   2.290   0.086 -0.0689  0.2466  0.2125
 1652ntf    fn412621   1.758   1.790  -0.014 -0.1721  0.2211 -0.0479
 1652ntf    fn412622   1.669   1.871   0.160  0.2495  0.2691 -0.2125
 1652ntf    fn412623   1.549   1.812  -0.007 -0.0165 -0.0770 -0.0252
 1652ntf    on512624   1.737   2.120   0.040  0.2620 -0.4830 -0.1164
 1652ntf    on512625   1.690   2.024  -0.185  0.0966 -0.3134 -0.4700
 1652ntf    on512626   1.481   2.065   0.221  0.3728  0.2316 -0.2485
 1652ntf    on512627   1.279   2.090   0.082 -0.2237 -0.0946 -0.0436
 1652ntf    fn412628   1.528   2.339   0.153  0.0329 -0.1144  0.3168
 1652ntf    fn412629   1.423   2.342  -0.036  0.2753 -0.2688 -0.0094
 1652ntf    fn412630   1.318   2.349   0.140 -0.2663  0.0191  0.0741
 1653ntf    cn112631   1.917   3.674   4.725  0.0922 -0.0893  0.1063
 1653ntf    sn212632   1.953   3.841   4.786  0.4498 -0.0669 -0.1662
 1653ntf    nn312633   1.936   3.821   4.941 -0.3073  0.1249 -0.2192
 1653ntf    sn212634   1.828   3.891   5.030 -0.2300  0.1381 -0.1359
 1653ntf    cn112635   1.680   3.792   4.991 -0.2556 -0.0485  0.4303
 1653ntf    fn412636   2.014   3.587   4.747 -0.0007 -0.0812  0.5509
 1653ntf    fn412637   1.811   3.619   4.783 -0.2429  0.5657  0.1276
 1653ntf    fn412638   1.896   3.678   4.594 -0.5243 -0.2487  0.1960
 1653ntf    on512639   2.087   3.875   4.745  0.3650  0.4754 -0.0034
 1653ntf    on512640   1.848   3.919   4.724  0.2043 -0.4607 -0.2485
 1653ntf    on512641   1.799   4.030   5.005  0.0025  0.0878 -0.6995
 1653ntf    on512642   1.849   3.851   5.167 -0.5326  0.6820  0.0707
 1653ntf    fn412643   1.663   3.777   4.861  0.2320  0.2870  0.3248
 1653ntf    fn412644   1.688   3.670   5.041  0.5834 -0.2354 -0.1392
 1653ntf    fn412645   1.566   3.842   5.036 -0.5177  0.1556 -0.4539
 1654ntf    cn112646   0.134   0.169   1.003  0.0557  0.3056  0.1195
 1654ntf    sn212647   0.176   0.006   1.071  0.1411  0.3381  0.1445
 1654ntf    nn312648   0.326  -0.005   1.026  0.0905  0.3556 -0.0295
 1654ntf    sn212649   0.398  -0.109   0.933  0.1483  0.3102  0.0646
 1654ntf    cn112650   0.329  -0.067   0.770 -0.1240 -0.1457  0.0627
 1654ntf    fn412651   0.009   0.211   1.007 -0.1019 -0.1140 -0.3187
 1654ntf    fn412652   0.199   0.268   1.062 -0.0154  0.1006  0.5441
 1654ntf    fn412653   0.162   0.179   0.874 -0.4491  0.3986  0.0158
 1654ntf    on512654   0.162   0.028   1.213 -0.3025  0.2031  0.1214
 1654ntf    on512655   0.081  -0.084   1.011  0.1126  0.0341  0.6337
 1654ntf    on512656   0.364  -0.248   0.947 -0.0904  0.3637  0.0020
 1654ntf    on512657   0.536  -0.069   0.914 -0.0283  0.9688  0.1518
 1654ntf    fn412658   0.369  -0.146   0.672  0.3539 -0.3872  0.4451
 1654ntf    fn412659   0.197  -0.070   0.770 -0.1310  0.1948  0.1412
 1654ntf    fn412660   0.363   0.059   0.747 -0.1398 -0.1573 -0.0228
 1655ntf    cn112661   3.729   1.228   4.771  0.3226  0.0873 -0.1452
 1655ntf    sn212662   3.841   1.085   4.767  0.0354 -0.1374 -0.1940
 1655ntf    nn312663   3.734   0.974   4.794 -0.4205  0.3720  0.1030
 1655ntf    sn212664   3.749   0.849   4.887  0.2784  0.1643 -0.2791
 1655ntf    cn112665   3.779   0.706   4.779  0.1981 -0.2827  0.2835
 1655ntf    fn412666   3.626   1.210   4.691  0.1305  0.8012 -0.0636
 1655ntf    fn412667   3.670   1.243   4.889 -0.4451 -0.3499 -0.4605
 1655ntf    fn412668   3.785   1.343   4.740  0.1368  0.2107 -0.0280
 1655ntf    on512669   3.891   1.084   4.631  0.1048  0.1116 -0.1703
 1655ntf    on512670   3.939   1.112   4.869 -0.7125  0.4928  0.3659
 1655ntf    on512671   3.619   0.817   4.941  0.0947  0.3478 -0.6105
 1655ntf    on512672   3.858   0.841   4.981 -0.5262  0.0840  0.6707
 1655ntf    fn412673   3.680   0.685   4.695 -0.0495  0.0326  0.4946
 1655ntf    fn412674   3.886   0.720   4.703 -0.1532 -0.5283 -0.2629
 1655ntf    fn412675   3.793   0.596   4.851  0.1425 -0.5476 -0.1074
 1656ntf    cn112676   4.363   2.205   6.538  0.3700 -0.0084  0.5260
 1656ntf    sn212677   4.472   2.187   6.394 -0.0014  0.0328  0.2371
 1656ntf    nn312678   4.403   2.061   6.331  0.0261  0.0176  0.2372
 1656ntf    sn212679   4.289   2.039   6.224 -0.1090  0.2179  0.3389
 1656ntf    cn112680   4.395   1.997   6.082  0.0334 -0.0742  0.5303
 1656ntf    fn412681   4.395   2.306   6.617  0.0531  0.3673  0.1799
 1656ntf    fn412682   4.237   2.227   6.502  0.4737 -0.5239 -0.1681
 1656ntf    fn412683   4.363   2.094   6.610  0.0364 -0.2769  0.1190
 1656ntf    on512684   4.458   2.309   6.319  0.3137 -0.1933 -0.1932
 1656ntf    on512685   4.600   2.160   6.455  0.4283  0.5638 -0.4105
 1656ntf    on512686   4.221   2.158   6.180 -0.2386  0.0923  0.1967
 1656ntf    on512687   4.213   1.920   6.248  0.7788 -0.3158  0.5755
 1656ntf    fn412688   4.479   2.097   6.061 -0.3359  0.1584  0.1510
 1656ntf    fn412689   4.456   1.880   6.088  0.1839 -0.0486 -0.4104
 1656ntf    fn412690   4.329   1.989   5.968  0.3110 -0.0948  0.3695
 1657ntf    cn112691   4.914   1.301   3.229  0.3068 -0.3846  0.1226
 1657ntf    sn212692   4.973   1.220   3.381 -0.0274 -0.0604  0.4295
 1657ntf    nn312693   5.028   1.085   3.322 -0.6374 -0.0419 -0.1966
 1657ntf    sn212694   4.951   0.951   3.297  0.1413 -0.5447  0.0684
 1657ntf    cn112695   4.999   0.860   3.447  0.1138 -0.0811  0.3597
 1657ntf    fn412696   4.997   1.296   3.127 -0.0368 -0.2856 -0.1658
 1657ntf    fn412697   4.798   1.253   3.186 -0.1806  0.5386  0.3853
 1657ntf    fn412698   4.882   1.427   3.255 -0.4026 -0.3628 -0.7972
 1657ntf    on512699   5.074   1.309   3.433  0.3027 -0.3411  0.2716
 1657ntf    on512700   4.856   1.199   3.461  0.1421 -0.4092  0.5855
 1657ntf    on512701   5.017   0.876   3.193  0.3843 -0.3782  0.1005
 1657ntf    on512702   4.807   0.951   3.293  0.1407 -0.0078  0.0073
 1657ntf    fn412703   4.948   0.738   3.447  0.1324 -0.0898  0.1789
 1657ntf    fn412704   5.129   0.841   3.466  0.0415 -0.1004  0.8355
 1657ntf    fn412705   4.955   0.927   3.552  0.1923 -0.0462  0.3706
 1658ntf    cn112706   5.305   5.221   3.144  0.1616  0.0111  0.3702
 1658ntf    sn212707   5.264   5.382   3.218 -0.2486  0.1691 -0.1882
 1658ntf    nn312708   5.237   5.464   3.087 -0.4220 -0.0391 -0.2829
 1658ntf    sn212709   5.322   5.551   2.988 -0.0305  0.0087  0.0923
 1658ntf    cn112710   5.338   5.706   3.080 -0.1123 -0.1266  0.3353
 1658ntf    fn412711   5.373   5.235   3.032 -0.1790  0.4416  0.2141
 1658ntf    fn412712   5.371   5.141   3.226 -0.0047 -0.7913 -0.2658
 1658ntf    fn412713   5.196   5.150   3.116  0.3010 -0.1210  0.1610
 1658ntf    on512714   5.146   5.368   3.300 -0.3053  0.4531 -0.2216
 1658ntf    on512715   5.391   5.418   3.276  0.0428  0.0317 -0.7292
 1658ntf    on512716   5.236   5.594   2.880  0.1869  0.1896 -0.0080
 1658ntf    on512717   5.458   5.513   2.958 -0.2861 -0.6884 -0.2206
 1658ntf    fn412718   5.454   5.763   3.053 -0.2478 -0.3054 -0.6460
 1658ntf    fn412719   5.256   5.804   3.045  0.3890 -0.0870 -0.7703
 1658ntf    fn412720   5.326   5.687   3.211  0.2707  0.3360  0.4420
 1659ntf    cn112721   1.856   6.621   0.930 -0.1014 -0.0110 -0.0945
 1659ntf    sn212722   1.855   6.443   0.893  0.0538  0.0174 -0.2380
 1659ntf    nn312723   1.875   6.370   1.031  0.3777  0.1966 -0.1915
 1659ntf    sn212724   1.992   6.273   1.071  0.0187 -0.1064  0.1211
 1659ntf    cn112725   2.108   6.406   1.111 -0.4678  0.3845 -0.0879
 1659ntf    fn412726   1.741   6.651   0.989 -0.2762 -0.7452 -0.0411
 1659ntf    fn412727   1.955   6.651   1.012 -0.3745 -0.2268  0.3217
 1659ntf    fn412728   1.866   6.697   0.822  0.1341  0.1497  0.0405
 1659ntf    on512729   1.721   6.416   0.847  0.0250  0.0786 -0.1899
 1659ntf    on512730   1.958   6.416   0.796 -0.1038 -0.1119 -0.3713
 1659ntf    on512731   2.063   6.186   0.981 -0.0758  0.4426 -0.4865
 1659ntf    on512732   1.954   6.221   1.201 -0.5228  0.6246  0.2596
 1659ntf    fn412733   2.053   6.502   1.185 -0.7847  0.3336 -0.2559
 1659ntf    fn412734   2.218   6.359   1.168 -0.2353  0.5419 -0.3992
 1659ntf    fn412735   2.155   6.473   1.007 -0.2045 -0.1636 -0.3234
 1660ntf    cn112736   1.722   6.491   4.557 -0.0391 -0.0628 -0.0160
 1660ntf    sn212737   1.572   6.397   4.516 -0.1860  0.0553  0.2443
 1660ntf    nn312738   1.594   6.397   4.360  0.0393  0.0502  0.2742
 1660ntf    sn212739   1.541   6.306   4.243 -0.2186  0.2121  0.2650
 1660ntf    cn112740   1.678   6.188   4.234 -0.2829  0.1692 -0.1855
 1660ntf    fn412741   1.730   6.527   4.684  0.4596 -0.2338  0.0040
 1660ntf    fn412742   1.840   6.440   4.525  0.1284  0.0274  0.4450
 1660ntf    fn412743   1.713   6.607   4.493  0.0443 -0.0058  0.0743
 1660ntf    on512744   1.601   6.269   4.576  0.0857  0.2181  0.4594
 1660ntf    on512745   1.460   6.473   4.564 -0.0368  0.2362  0.3060
 1660ntf    on512746   1.541   6.363   4.111 -0.3575 -0.1070  0.1277
 1660ntf    on512747   1.431   6.216   4.267 -0.3689  0.4588  0.5107
 1660ntf    fn412748   1.794   6.252   4.227 -0.0930 -0.1692 -0.1712
 1660ntf    fn412749   1.698   6.115   4.343 -0.8159  0.0382 -0.1753
 1660ntf    fn412750   1.671   6.095   4.140  0.1608 -0.2152  0.1530
 1661ntf    cn112751   6.364   3.209   0.843  0.0638 -0.1347 -0.0559
 1661ntf    sn212752   6.412   3.053   0.763  0.0785 -0.1633  0.0074
 1661ntf    nn312753   6.292   2.961   0.803 -0.1855  0.3348  0.3759
 1661ntf    sn212754   6.266   2.870   0.928 -0.0171 -0.1061  0.0975
 1661ntf    cn112755   6.334   2.709   0.879  0.1618  0.0262 -0.0886
 1661ntf    fn412756   6.344   3.195   0.973 -0.3952 -0.1484 -0.1256
 1661ntf    fn412757   6.459   3.299   0.824 -0.2849  0.1962 -0.2528
 1661ntf    fn412758   6.253   3.261   0.794  0.0146 -0.0704  0.1259
 1661ntf    on512759   6.419   3.080   0.621  0.2690 -0.1754  0.0130
 1661ntf    on512760   6.536   3.011   0.824 -0.0000  0.0291  0.2984
 1661ntf    on512761   6.124   2.850   0.947  0.0200 -0.1328  0.3597
 1661ntf    on512762   6.337   2.912   1.046  0.4115 -0.0031 -0.1964
 1661ntf    fn412763   6.293   2.679   0.757 -0.1215  0.0956 -0.0107
 1661ntf    fn412764   6.466   2.712   0.875  0.1692  0.4101  0.3555
 1661ntf    fn412765   6.294   2.613   0.961  0.0650 -0.2139 -0.4173
 1662ntf    cn112766   2.306   2.416   4.107 -0.2930  0.0188 -0.0952
 1662ntf    sn212767   2.274   2.251   4.178 -0.3687  0.1195  0.1072
 1662ntf    nn312768   2.400   2.246   4.271 -0.0511  0.0334 -0.3226
 1662ntf    sn212769   2.493   2.120   4.285 -0.0208  0.0746 -0.1467
 1662ntf    cn112770   2.619   2.150   4.157  0.1456  0.1252  0.0290
 1662ntf    fn412771   2.210   2.452   4.024  0.2288  0.0373 -0.6928
 1662ntf    fn412772   2.325   2.510   4.198  0.1196 -0.3548  0.2056
 1662ntf    fn412773   2.418   2.411   4.037 -0.0338  0.3891  0.2850
 1662ntf    on512774   2.145   2.270   4.239 -0.1281 -0.2294  0.7283
 1662ntf    on512775   2.278   2.175   4.055 -0.3044  0.2982 -0.0019
 1662ntf    on512776   2.437   1.992   4.250  0.1447  0.0284 -0.2496
 1662ntf    on512777   2.574   2.121   4.405  0.3416 -0.4099 -0.3819
 1662ntf    fn412778   2.573   2.186   4.038  0.6914 -0.0919 -0.2499
 1662ntf    fn412779   2.707   2.238   4.202  0.0860  0.0507  0.2912
 1662ntf    fn412780   2.684   2.036   4.143  0.3051  0.1374  0.6224
 1663ntf    cn112781   5.381   6.121   1.429  0.2905 -0.1375  0.1759
 1663ntf    sn212782   5.560   6.095   1.446  0.3206  0.1597  0.3188
 1663ntf    nn312783   5.594   6.008   1.320 -0.0941 -0.1012  0.3874
 1663ntf    sn212784   5.733   5.940   1.291 -0.3304 -0.3947 -0.0738
 1663ntf    cn112785   5.709   5.773   1.358 -0.4804 -0.3926 -0.1231
 1663ntf    fn412786   5.340   6.131   1.304  0.1412 -1.1318  0.1347
 1663ntf    fn412787   5.312   6.019   1.478  0.3253 -0.0781  0.3525
 1663ntf    fn412788   5.342   6.226   1.500 -0.1548  0.1663 -0.5130
 1663ntf    on512789   5.611   6.231   1.448 -0.6355  0.5332 -0.1772
 1663ntf    on512790   5.566   6.028   1.573 -0.3074 -0.2133  0.1534
 1663ntf    on512791   5.844   6.000   1.361  0.1067 -0.8372 -0.3842
 1663ntf    on512792   5.750   5.912   1.151  0.2388 -0.1588 -0.0533
 1663ntf    fn412793   5.801   5.684   1.325 -0.0993  0.0219 -0.1845
 1663ntf    fn412794   5.709   5.778   1.490 -0.4692 -0.1578 -0.1323
 1663ntf    fn412795   5.588   5.727   1.330 -0.6734  0.1250 -0.1514
 1664ntf    cn112796   2.730   6.633   0.937 -0.2796 -0.3854 -0.0563
 1664ntf    sn212797   2.830   6.727   1.056 -0.0319 -0.3033 -0.3265
 1664ntf    nn312798   2.833   6.864   0.980  0.3932 -0.0255  0.1849
 1664ntf    sn212799   2.911   6.997   1.015  0.2071  0.0717  0.2301
 1664ntf    cn112800   2.788   7.124   0.971  0.0114 -0.2469 -0.1582
 1664ntf    fn412801   2.617   6.700   0.923 -0.1293 -0.0116  0.4663
 1664ntf    fn412802   2.787   6.631   0.818  0.0718 -0.4536  0.1110
 1664ntf    fn412803   2.716   6.506   0.971 -0.1514 -0.3372  0.1813
 1664ntf    on512804   2.747   6.728   1.174 -0.4990 -0.4024 -0.6542
 1664ntf    on512805   2.955   6.655   1.057  0.1130 -0.0504 -0.1060
 1664ntf    on512806   3.024   7.021   0.929  0.4318 -0.2700  0.4260
 1664ntf    on512807   2.932   7.028   1.154  0.2158 -0.1137  0.2709
 1664ntf    fn412808   2.837   7.245   0.953  0.4567 -0.2936  0.6627
 1664ntf    fn412809   2.716   7.090   0.865 -0.3877 -0.1121  0.0679
 1664ntf    fn412810   2.704   7.132   1.073  0.2894 -0.1133  0.0627
 1665ntf    cn112811   6.375   1.427   2.739 -0.0330 -0.0128  0.0545
 1665ntf    sn212812   6.336   1.357   2.576  0.0247 -0.1858  0.1147
 1665ntf    nn312813   6.328   1.205   2.611 -0.4487 -0.3234 -0.5658
 1665ntf    sn212814   6.221   1.128   2.697 -0.1679 -0.2288 -0.1299
 1665ntf    cn112815   6.163   1.011   2.571 -0.3654 -0.3076  0.0329
 1665ntf    fn412816   6.279   1.406   2.827  0.1581  0.1544  0.3059
 1665ntf    fn412817   6.480   1.365   2.790  0.7056  0.3299 -1.0062
 1665ntf    fn412818   6.398   1.558   2.738 -0.4154  0.0562 -0.7578
 1665ntf    on512819   6.210   1.412   2.530  0.3344  0.0550 -0.4576
 1665ntf    on512820   6.454   1.391   2.500  0.2272 -0.4879  0.2969
 1665ntf    on512821   6.101   1.200   2.734 -0.1710 -0.2897 -0.0198
 1665ntf    on512822   6.286   1.037   2.788  0.3569 -0.1720 -0.4437
 1665ntf    fn412823   6.088   1.061   2.474  0.1416  0.0772 -0.1693
 1665ntf    fn412824   6.270   0.958   2.514 -0.1352 -0.1354  0.2980
 1665ntf    fn412825   6.098   0.914   2.632  0.0443 -0.4267  0.2853
 1666ntf    cn112826   5.526   4.760   1.914 -0.3983  0.1458 -0.3103
 1666ntf    sn212827   5.432   4.907   1.963 -0.2054  0.1274  0.1164
 1666ntf    nn312828   5.477   5.003   1.847 -0.4576  0.4373  0.2735
 1666ntf    sn212829   5.593   5.109   1.847  0.0267 -0.0891  0.2821
 1666ntf    cn112830   5.493   5.255   1.889 -0.0015  0.1785 -0.7082
 1666ntf    fn412831   5.627   4.786   1.832  0.2107 -0.4264  0.2411
 1666ntf    fn412832   5.578   4.701   2.020 -1.2005  0.1784  0.1093
 1666ntf    fn412833   5.451   4.670   1.852 -0.0071 -0.4284  0.0359
 1666ntf    on512834   5.294   4.865   1.956 -0.0975 -0.1932 -0.1132
 1666ntf    on512835   5.485   4.940   2.093  0.4572 -0.1306 -0.0847
 1666ntf    on512836   5.631   5.136   1.711 -0.0745 -0.0001  0.2712
 1666ntf    on512837   5.695   5.098   1.949  0.3988  0.5225 -0.0248
 1666ntf    fn412838   5.568   5.363   1.903  0.2595 -0.0125 -0.6057
 1666ntf    fn412839   5.403   5.268   1.793  0.1278 -0.5896 -0.9410
 1666ntf    fn412840   5.430   5.244   2.004  0.8416 -0.3697 -0.2866
 1667ntf    cn112841   4.470   4.264   4.152  0.1202  0.1265  0.0524
 1667ntf    sn212842   4.347   4.345   4.045 -0.0267 -0.0819  0.0624
 1667ntf    nn312843   4.281   4.219   3.980 -0.0130  0.2006 -0.5011
 1667ntf    sn212844   4.137   4.157   3.991 -0.1790  0.6797  0.0708
 1667ntf    cn112845   4.106   4.120   3.816 -0.5866  0.2588  0.2315
 1667ntf    fn412846   4.413   4.190   4.245 -0.3348 -0.2566 -0.5218
 1667ntf    fn412847   4.551   4.188   4.081  0.1651  0.1858  0.0405
 1667ntf    fn412848   4.537   4.359   4.215 -0.1068  0.3332 -0.0135
 1667ntf    on512849   4.270   4.431   4.132  0.1775  0.6649 -0.4761
 1667ntf    on512850   4.434   4.413   3.952 -0.4778  0.8002  0.2746
 1667ntf    on512851   4.027   4.247   4.014 -0.1766  0.6134  0.3449
 1667ntf    on512852   4.132   4.030   4.059  0.3947  0.6251  0.0217
 1667ntf    fn412853   4.090   4.237   3.757  0.3760  0.3153  0.0585
 1667ntf    fn412854   4.207   4.053   3.762 -0.3383  0.7611  0.0670
 1667ntf    fn412855   3.995   4.050   3.798 -0.2168 -0.2218 -0.2259
 1668ntf    cn112856   4.096   1.626   3.631  0.2619 -0.2355  0.1912
 1668ntf    sn212857   4.061   1.581   3.458 -0.0141  0.0848  0.1641
 1668ntf    nn312858   4.101   1.719   3.396 -0.1343  0.0814  0.0798
 1668ntf    sn212859   4.170   1.746   3.257 -0.2083 -0.4053 -0.0542
 1668ntf    cn112860   4.066   1.651   3.143 -0.0067 -0.2002 -0.4076
 1668ntf    fn412861   4.109   1.514   3.701 -0.2778 -0.1199  0.4794
 1668ntf    fn412862   4.204   1.701   3.646  0.2752 -0.0687 -0.6828
 1668ntf    fn412863   3.989   1.689   3.675  0.5322 -0.0474  0.5857
 1668ntf    on512864   4.154   1.473   3.441  0.0528  0.2008 -0.2161
 1668ntf    on512865   3.919   1.554   3.455  0.0377 -0.1383 -0.2352
 1668ntf    on512866   4.306   1.699   3.245 -0.0317  0.0263  0.2284
 1668ntf    on512867   4.145   1.880   3.211 -0.4383 -0.4610 -0.0883
 1668ntf    fn412868   4.042   1.533   3.197  0.2843  0.1145  0.4294
 1668ntf    fn412869   3.947   1.707   3.126 -0.0005 -0.0855 -0.0706
 1668ntf    fn412870   4.125   1.631   3.026  0.6007  0.1854 -0.1736
 1669ntf    cn112871   0.930   5.497   5.358 -0.1564  0.0836  0.1950
 1669ntf    sn212872   0.801   5.569   5.252  0.1430  0.0601 -0.1872
 1669ntf    nn312873   0.766   5.697   5.337  0.5372 -0.0323  0.1213
 1669ntf    sn212874   0.671   5.714   5.461  0.3338  0.2986 -0.0774
 1669ntf    cn112875   0.538   5.802   5.374 -0.0255 -0.2933 -0.1330
 1669ntf    fn412876   0.892   5.504   5.485  0.1817  0.8454  0.2648
 1669ntf    fn412877   0.949   5.372   5.320  0.1266  0.3445 -0.5321
 1669ntf    fn412878   1.049   5.556   5.354  0.1295 -0.5079 -0.0237
 1669ntf    on512879   0.872   5.597   5.130 -0.2004  0.9668 -0.1922
 1669ntf    on512880   0.700   5.467   5.245  0.1402  0.0210  0.3819
 1669ntf    on512881   0.728   5.810   5.551  0.0630  0.0771  0.3337
 1669ntf    on512882   0.609   5.595   5.515  0.1518  0.4321  0.0098
 1669ntf    fn412883   0.473   5.733   5.281 -0.8307  0.1978  0.0546
 1669ntf    fn412884   0.446   5.844   5.458 -0.1017 -0.1618 -0.2822
 1669ntf    fn412885   0.586   5.912   5.319  0.4022 -0.1261  0.5744
 1670ntf    cn112886   4.875   0.869   2.508 -0.0017 -0.1326  0.2292
 1670ntf    sn212887   4.789   0.760   2.626 -0.3029  0.1383  0.2606
 1670ntf    nn312888   4.853   0.621   2.589 -0.3318  0.2290 -0.1390
 1670ntf    sn212889   4.817   0.509   2.485 -0.2511  0.0311  0.0451
 1670ntf    cn112890   4.699   0.411   2.583  0.2183 -0.2413  0.3414
 1670ntf    fn412891   4.904   0.811   2.393 -0.6288 -0.1248  0.0674
 1670ntf    fn412892   4.793   0.969   2.482  0.2722  0.0960  0.2463
 1670ntf    fn412893   4.988   0.915   2.559 -0.0400  0.2188 -0.0051
 1670ntf    on512894   4.834   0.804   2.755 -0.1563 -0.0983  0.2921
 1670ntf    on512895   4.648   0.770   2.599 -0.2328  0.0360 -0.1496
 1670ntf    on512896   4.928   0.419   2.470  0.1668  0.5775 -0.1720
 1670ntf    on512897   4.743   0.547   2.367 -0.1570 -0.0766 -0.0489
 1670ntf    fn412898   4.663   0.296   2.529 -0.2701  0.0441  0.0542
 1670ntf    fn412899   4.748   0.386   2.704 -0.0658 -0.2144  0.4627
 1670ntf    fn412900   4.588   0.482   2.602  0.4203  0.1289  0.1536
 1671ntf    cn112901   3.997   3.017   3.852 -0.1247 -0.1411 -0.0097
 1671ntf    sn212902   3.989   2.947   3.684 -0.2827 -0.0206 -0.0532
 1671ntf    nn312903   3.837   2.909   3.678 -0.1101 -0.6785 -0.4706
 1671ntf    sn212904   3.706   2.977   3.624 -0.1129  0.0389  0.4057
 1671ntf    cn112905   3.704   2.931   3.448  0.0239  0.0226  0.4081
 1671ntf    fn412906   3.887   3.087   3.874  0.0304 -0.0440  0.4749
 1671ntf    fn412907   3.999   2.920   3.942 -0.7667 -0.1869 -0.0351
 1671ntf    fn412908   4.098   3.098   3.876 -0.5375  0.2241  0.5187
 1671ntf    on512909   4.039   3.055   3.602  0.1519 -0.2891 -0.1477
 1671ntf    on512910   4.074   2.831   3.689 -0.2693  0.0143  0.5765
 1671ntf    on512911   3.711   3.122   3.622  1.0237  0.0105 -0.3858
 1671ntf    on512912   3.589   2.914   3.678  0.2821 -0.5512  0.5742
 1671ntf    fn412913   3.612   3.000   3.382  0.3528  0.0073 -0.0656
 1671ntf    fn412914   3.817   2.950   3.383 -0.3353  0.2010 -0.1775
 1671ntf    fn412915   3.682   2.803   3.425  0.2312  0.1240 -0.3819
 1672ntf    cn112916   1.290   2.836   3.669 -0.0137  0.2928 -0.1315
 1672ntf    sn212917   1.422   2.814   3.546 -0.1902  0.2473 -0.3151
 1672ntf    nn312918   1.535   2.789   3.653 -0.6640 -0.5464  0.0040
 1672ntf    sn212919   1.618   2.660   3.682 -0.1418 -0.1458  0.3115
 1672ntf    cn112920   1.762   2.701   3.580 -0.5596  0.4485 -0.0424
 1672ntf    fn412921   1.179   2.842   3.598  0.0349  0.1278 -0.2216
 1672ntf    fn412922   1.281   2.722   3.735 -0.8620  0.2706 -0.2760
 1672ntf    fn412923   1.300   2.939   3.751  0.4169  0.0751  0.0927
 1672ntf    on512924   1.389   2.705   3.459  0.0312 -0.0790  0.0070
 1672ntf    on512925   1.433   2.949   3.496 -0.6805  0.3681 -0.0998
 1672ntf    on512926   1.564   2.534   3.638 -0.0225 -0.0748 -0.0374
 1672ntf    on512927   1.679   2.657   3.813  0.0553  0.4801  0.2337
 1672ntf    fn412928   1.848   2.600   3.588 -0.3556  0.6568  0.4415
 1672ntf    fn412929   1.727   2.718   3.454 -0.2469  0.1972 -0.1667
 1672ntf    fn412930   1.820   2.811   3.626  0.1380  0.1287 -0.1416
 1673ntf    cn112931   0.898   6.391   3.000  0.0045  0.2690  0.3087
 1673ntf    sn212932   0.884   6.320   3.167 -0.3244  0.1419  0.2282
 1673ntf    nn312933   0.739   6.367   3.201 -0.4029  0.0727 -0.0125
 1673ntf    sn212934   0.697   6.501   3.272 -0.1626  0.0526  0.1683
 1673ntf    cn112935   0.719   6.460   3.447  0.3518  0.1585  0.1310
 1673ntf    fn412936   0.999   6.335   2.935 -0.4989 -0.7932  0.4139
 1673ntf    fn412937   0.792   6.363   2.927  0.5966  0.2460 -0.5528
 1673ntf    fn412938   0.911   6.522   3.007  0.0265  0.3079 -0.4581
 1673ntf    on512939   0.903   6.177   3.153 -0.4210  0.1557 -0.0335
 1673ntf    on512940   0.988   6.384   3.245 -0.2604 -0.2022  0.4283
 1673ntf    on512941   0.558   6.533   3.254 -0.1922 -0.0947  0.1331
 1673ntf    on512942   0.787   6.612   3.250 -0.2334  0.0372 -0.2172
 1673ntf    fn412943   0.686   6.560   3.527  0.3207  0.2860 -0.0395
 1673ntf    fn412944   0.639   6.364   3.492  0.1355  0.3957  0.2592
 1673ntf    fn412945   0.844   6.424   3.473  0.0462 -0.5996  0.5949
 1674ntf    cn112946   6.380   1.355   1.563  0.1163 -0.1030 -0.1831
 1674ntf    sn212947   6.527   1.460   1.551  0.0252  0.0702  0.2046
 1674ntf    nn312948   6.594   1.423   1.689  0.4221 -0.5289 -0.1422
 1674ntf    sn212949   6.544   1.472   1.829  0.1931 -0.1222 -0.3631
 1674ntf    cn112950   6.657   1.612   1.857 -0.4320  0.2434  0.3986
 1674ntf    fn412951   6.410   1.228   1.584 -0.1134 -0.1008  0.1717
 1674ntf    fn412952   6.307   1.382   1.670 -0.1597  0.1766 -0.4400
 1674ntf    fn412953   6.312   1.359   1.450 -0.3058 -0.2702  0.0611
 1674ntf    on512954   6.600   1.395   1.445 -0.3233  0.1142 -0.0606
 1674ntf    on512955   6.479   1.595   1.539 -0.3556 -0.1090 -0.2905
 1674ntf    on512956   6.575   1.382   1.938 -0.7735 -0.0061  0.0199
 1674ntf    on512957   6.417   1.540   1.844  0.2098 -0.1485 -0.0845
 1674ntf    fn412958   6.641   1.708   1.767 -0.1533 -0.2528 -0.1877
 1674ntf    fn412959   6.638   1.662   1.977  0.4495  0.2921  0.5265
 1674ntf    fn412960   6.786   1.583   1.850 -0.4368  0.2832  0.1080
 1675ntf    cn112961   3.167   6.682   2.694  0.0759  0.3575  0.3128
 1675ntf    sn212962   3.025   6.773   2.627  0.0662  0.0645 -0.0654
 1675ntf    nn312963   3.101   6.840   2.508 -0.2096  0.6334  0.0737
 1675ntf    sn212964   3.073   6.835   2.353  0.2357  0.0152  0.0086
 1675ntf    cn112965   3.147   6.992   2.300 -0.1036  0.0507 -0.3623
 1675ntf    fn412966   3.216   6.588   2.615 -0.3022  0.0606  0.4271
 1675ntf    fn412967   3.264   6.766   2.724  0.0156  0.6555 -0.3256
 1675ntf    fn412968   3.141   6.618   2.807  0.5089  0.1357  0.2913
 1675ntf    on512969   2.935   6.662   2.604  0.3086 -0.2099  0.2919
 1675ntf    on512970   2.985   6.865   2.730 -0.0207 -0.0342 -0.0104
 1675ntf    on512971   2.933   6.841   2.318 -0.0291 -0.6181  0.9017
 1675ntf    on512972   3.148   6.730   2.289 -0.3978 -0.4022 -0.0616
 1675ntf    fn412973   3.279   6.982   2.301 -0.0597  0.4471  0.9882
 1675ntf    fn412974   3.106   7.032   2.181 -0.8579  0.0123 -0.1199
 1675ntf    fn412975   3.119   7.085   2.391 -0.5194 -0.3306 -0.0972
 1676ntf    cn112976   0.140   4.549   3.412  0.1282  0.1176 -0.2661
 1676ntf    sn212977   0.031   4.639   3.299 -0.1173  0.1017 -0.0425
 1676ntf    nn312978   0.132   4.738   3.231  0.0511 -0.0466 -0.0071
 1676ntf    sn212979   0.111   4.883   3.175 -0.3672 -0.0512  0.1313
 1676ntf    cn112980   0.171   4.865   3.004  0.0373 -0.0630  0.2734
 1676ntf    fn412981   0.236   4.487   3.345 -0.6892 -0.5929 -0.7976
 1676ntf    fn412982   0.205   4.626   3.498  0.6730 -0.4390 -0.1657
 1676ntf    fn412983   0.073   4.458   3.481  0.2437  0.1074 -0.1657
 1676ntf    on512984  -0.023   4.539   3.211 -0.1622  0.0009  0.0989
 1676ntf    on512985  -0.063   4.699   3.390 -0.2108  0.0414 -0.0996
 1676ntf    on512986   0.204   4.983   3.223 -0.4844  0.3825 -0.5295
 1676ntf    on512987  -0.024   4.927   3.154 -0.2183  0.4147  0.1239
 1676ntf    fn412988   0.098   4.790   2.924 -0.0039 -0.1295  0.3736
 1676ntf    fn412989   0.198   4.976   2.937 -0.1423 -0.1693  0.0242
 1676ntf    fn412990   0.291   4.808   3.001  0.0344 -0.0447 -0.1531
 1677ntf    cn112991   5.993   2.099   5.827  0.1773  0.2878  0.0137
 1677ntf    sn212992   5.967   2.004   5.674  0.1077  0.0109  0.1962
 1677ntf    nn312993   6.009   1.861   5.723  0.0610 -0.1003 -0.0797
 1677ntf    sn212994   5.941   1.721   5.705 -0.0511 -0.0386 -0.1381
 1677ntf    cn112995   5.984   1.690   5.530 -0.1184  0.1263 -0.1836
 1677ntf    fn412996   5.978   2.228   5.800 -0.2229  0.3220  0.3815
 1677ntf    fn412997   5.907   2.066   5.922  0.0186  0.1841 -0.1645
 1677ntf    fn412998   6.113   2.077   5.878  0.3761 -0.2317 -0.6500
 1677ntf    on512999   5.829   2.024   5.635  0.1894  0.0912 -0.0604
 1677ntf    on513000   6.063   2.064   5.584 -0.0215 -0.4227 -0.2329
 1677ntf    on513001   5.798   1.706   5.709 -0.0437 -0.1073 -0.1243
 1677ntf    on513002   6.010   1.616   5.776  0.1385 -0.1433 -0.4729
 1677ntf    fn413003   5.940   1.785   5.451 -0.3928  0.1949  0.0467
 1677ntf    fn413004   6.113   1.672   5.509 -0.1041 -0.0101  0.0136
 1677ntf    fn413005   5.923   1.580   5.490 -0.0572  0.2439 -0.5959
 1678ntf    cn113006   0.478   2.788   1.401 -0.0820 -0.0480 -0.1941
 1678ntf    sn213007   0.373   2.702   1.522 -0.0935 -0.3054 -0.3879
 1678ntf    nn313008   0.330   2.826   1.607  0.0889 -0.3820 -0.1857
 1678ntf    sn213009   0.190   2.874   1.659  0.1293 -0.1373 -0.2971
 1678ntf    cn113010   0.219   2.864   1.838 -0.1188 -0.1615 -0.2567
 1678ntf    fn413011   0.536   2.714   1.308 -0.2123  0.2686 -0.5293
 1678ntf    fn413012   0.410   2.873   1.326 -0.0687  0.1760  0.0439
 1678ntf    fn413013   0.565   2.863   1.468 -0.4032  0.1232  0.0330
 1678ntf    on513014   0.260   2.645   1.452 -0.1329 -0.7656  0.0445
 1678ntf    on513015   0.466   2.616   1.591 -0.2220 -0.0878  0.0568
 1678ntf    on513016   0.077   2.785   1.639 -0.1591  0.1267  0.1433
 1678ntf    on513017   0.168   3.014   1.635 -0.5326 -0.2639 -0.4686
 1678ntf    fn413018   0.338   2.911   1.874 -0.2663  0.1165 -0.1286
 1678ntf    fn413019   0.127   2.932   1.903 -0.0380  0.1226 -0.4374
 1678ntf    fn413020   0.213   2.742   1.887 -0.0413  0.0474  0.2819
 1679ntf    cn113021   6.349   2.340   2.813  0.4811  0.3038 -0.1798
 1679ntf    sn213022   6.313   2.185   2.725  0.0003  0.3818 -0.1245
 1679ntf    nn313023   6.421   2.088   2.787 -0.2776  0.1201 -0.0467
 1679ntf    sn213024   6.553   2.027   2.729 -0.5970 -0.1776 -0.4624
 1679ntf    cn113025   6.677   2.091   2.845 -0.4620  0.2017 -0.8129
 1679ntf    fn413026   6.474   2.378   2.790  0.5963 -0.1826 -0.3686
 1679ntf    fn413027   6.273   2.432   2.756 -0.3028 -0.2029  0.0412
 1679ntf    fn413028   6.323   2.339   2.942 -0.0334 -0.4742 -0.2831
 1679ntf    on513029   6.178   2.161   2.770 -0.0414 -0.1173 -0.5031
 1679ntf    on513030   6.339   2.221   2.588 -0.0304  0.3727 -0.1327
 1679ntf    on513031   6.599   2.090   2.608 -0.1581 -0.2373 -0.3273
 1679ntf    on513032   6.563   1.885   2.750  0.3418 -0.0449  0.0175
 1679ntf    fn413033   6.710   2.217   2.822  0.1285  0.1334 -0.3775
 1679ntf    fn413034   6.640   2.087   2.972 -0.2140  0.3251 -0.7364
 1679ntf    fn413035   6.790   2.024   2.837 -0.3826  0.1555  0.4351
 1680ntf    cn113036   4.832   5.606   4.527  0.2151  0.3259  0.2931
 1680ntf    sn213037   4.794   5.717   4.388 -0.0531 -0.1619 -0.0297
 1680ntf    nn313038   4.896   5.835   4.410 -0.0086 -0.1803 -0.1367
 1680ntf    sn213039   4.964   5.928   4.303 -0.2854 -0.1862 -0.3192
 1680ntf    cn113040   5.134   5.863   4.306 -0.2080  0.0338  0.1665
 1680ntf    fn413041   4.950   5.548   4.512 -0.1419 -0.2531 -0.3697
 1680ntf    fn413042   4.838   5.674   4.640  0.1680  0.5291  0.1732
 1680ntf    fn413043   4.736   5.516   4.535  0.3616  0.1130 -0.2595
 1680ntf    on513044   4.815   5.643   4.266 -0.1033  0.3375 -0.3464
 1680ntf    on513045   4.659   5.766   4.402 -0.0692 -0.2051 -0.0366
 1680ntf    on513046   4.974   6.060   4.359 -0.1125 -0.2438 -0.2123
 1680ntf    on513047   4.916   5.907   4.168 -0.2524 -0.3841 -0.3014
 1680ntf    fn413048   5.201   5.914   4.407  0.0894 -0.2730  0.1264
 1680ntf    fn413049   5.135   5.734   4.335  0.1589 -0.0044 -0.0024
 1680ntf    fn413050   5.204   5.875   4.194  0.4971 -0.7353  0.5146
 1681ntf    cn113051   3.951   3.558   6.026 -0.2395 -0.2129 -0.0383
 1681ntf    sn213052   4.013   3.615   6.187 -0.2653  0.3589 -0.2298
 1681ntf    nn313053   4.087   3.487   6.238  0.0228  0.6805  0.1706
 1681ntf    sn213054   4.181   3.460   6.361 -0.2138  0.0467  0.2167
 1681ntf    cn113055   4.106   3.320   6.450 -0.0095 -0.0559  0.2284
 1681ntf    fn413056   4.046   3.490   5.965 -0.1160  0.2321 -0.3525
 1681ntf    fn413057   3.843   3.483   6.038 -0.6223  0.4399  0.6923
 1681ntf    fn413058   3.915   3.664   5.954 -0.3405 -0.0986  0.1789
 1681ntf    on513059   4.100   3.726   6.156 -0.3891  0.4611 -0.2116
 1681ntf    on513060   3.895   3.652   6.260 -0.4084  0.2349 -0.3981
 1681ntf    on513061   4.187   3.564   6.461  0.3977  0.4993 -0.2866
 1681ntf    on513062   4.307   3.405   6.318 -0.1613  0.0750  0.3333
 1681ntf    fn413063   4.071   3.229   6.361 -0.3182  0.1308  0.1557
 1681ntf    fn413064   4.183   3.270   6.545  0.1184  0.6201  0.4911
 1681ntf    fn413065   3.999   3.357   6.518  0.1266  0.4953  0.1481
 1682ntf    cn113066   1.722   5.086   3.650 -0.2587 -0.0592 -0.0830
 1682ntf    sn213067   1.558   5.021   3.695 -0.1105 -0.3271  0.0725
 1682ntf    nn313068   1.505   4.995   3.549  0.0735  0.1816 -0.0866
 1682ntf    sn213069   1.515   4.853   3.483 -0.3385  0.1218 -0.0284
 1682ntf    cn113070   1.354   4.788   3.535 -0.3271  0.1917  0.0906
 1682ntf    fn413071   1.781   5.142   3.755  0.4668 -0.3155 -0.3492
 1682ntf    fn413072   1.805   4.998   3.597 -0.6099 -0.1372 -0.5067
 1682ntf    fn413073   1.710   5.184   3.562 -0.1522  0.0973  0.0749
 1682ntf    on513074   1.576   4.912   3.788  0.0036  0.1181  0.5703
 1682ntf    on513075   1.497   5.139   3.751  0.6369  0.2157 -0.2470
 1682ntf    on513076   1.616   4.760   3.528 -0.0202  0.2983 -0.3635
 1682ntf    on513077   1.497   4.859   3.340 -0.3369  0.3787 -0.0190
 1682ntf    fn413078   1.257   4.848   3.468 -0.2420  0.1540 -0.0660
 1682ntf    fn413079   1.331   4.661   3.507  0.5940  0.0922 -0.2421
 1682ntf    fn413080   1.330   4.799   3.665 -0.0723  0.0488  0.1498
 1683ntf    cn113081   0.788   4.907   0.861  0.0656  0.1528 -0.0297
 1683ntf    sn213082   0.894   4.762   0.892  0.1931  0.2774  0.1224
 1683ntf    nn313083   0.951   4.750   0.746  0.2680 -0.5650  0.2166
 1683ntf    sn213084   1.094   4.705   0.700  0.3216 -0.1663 -0.0104
 1683ntf    cn113085   1.189   4.859   0.687  0.3723 -0.2164 -0.2470
 1683ntf    fn413086   0.681   4.877   0.790  0.1460 -0.4498  0.1007
 1683ntf    fn413087   0.748   4.957   0.976  0.2501 -0.2125  0.1971
 1683ntf    fn413088   0.852   5.000   0.792 -0.4692  0.1885 -0.4841
 1683ntf    on513089   0.985   4.811   0.992  0.3927  0.6149 -0.2199
 1683ntf    on513090   0.797   4.660   0.922  0.0752  0.2232 -0.4250
 1683ntf    on513091   1.084   4.664   0.562  0.0421 -0.2298  0.0281
 1683ntf    on513092   1.168   4.623   0.793  0.1230  0.0076  0.3024
 1683ntf    fn413093   1.128   4.949   0.612  0.0298 -0.0223  0.2617
 1683ntf    fn413094   1.210   4.918   0.804 -0.0913 -0.0791 -0.2313
 1683ntf    fn413095   1.309   4.835   0.636  0.2987  0.3346 -0.6887
 1684ntf    cn113096   3.265   3.849   3.779 -0.0574  0.1048 -0.1549
 1684ntf    sn213097   3.396   3.771   3.679  0.0097 -0.2982  0.2425
 1684ntf    nn313098   3.513   3.750   3.781  0.3701  0.0835 -0.0887
 1684ntf    sn213099   3.558   3.614   3.846  0.2662  0.1904  0.2075
 1684ntf    cn113100   3.684   3.560   3.728  0.1115  0.1197  0.0738
 1684ntf    fn413101   3.314   3.967   3.814  0.7307 -0.1719 -0.2932
 1684ntf    fn413102   3.153   3.869   3.711 -0.0888 -0.2454 -0.2066
 1684ntf    fn413103   3.244   3.769   3.882 -0.0290  0.1126 -0.1433
 1684ntf    on513104   3.341   3.657   3.610  0.4275 -0.4449  0.1525
 1684ntf    on513105   3.431   3.885   3.597 -0.6919  0.1237  0.5202
 1684ntf    on513106   3.460   3.508   3.837  0.1759  0.2665  0.2841
 1684ntf    on513107   3.628   3.635   3.970 -0.0627  0.2018  0.3922
 1684ntf    fn413108   3.808   3.568   3.774  0.2012  0.1235 -0.1630
 1684ntf    fn413109   3.670   3.433   3.693  0.0004  0.1218  0.1110
 1684ntf    fn413110   3.677   3.631   3.616 -0.1842 -0.3682 -0.2220
 1685ntf    cn113111   5.384   1.248   5.382  0.2203 -0.4752 -0.1111
 1685ntf    sn213112   5.268   1.135   5.465 -0.1699  0.0483  0.0665
 1685ntf    nn313113   5.253   1.034   5.345  0.8594  0.4116 -0.3838
 1685ntf    sn213114   5.312   0.890   5.325 -0.3775 -0.2050  0.2818
 1685ntf    cn113115   5.354   0.899   5.148  0.1972 -0.1567  0.4205
 1685ntf    fn413116   5.369   1.367   5.438  0.4363 -0.6015  0.2179
 1685ntf    fn413117   5.509   1.213   5.404  0.4249  0.3057 -0.0068
 1685ntf    fn413118   5.366   1.253   5.251 -0.5626  0.3927  0.0164
 1685ntf    on513119   5.351   1.080   5.568  0.1940  0.0515 -0.2214
 1685ntf    on513120   5.148   1.211   5.491 -0.2758 -0.1613  0.1888
 1685ntf    on513121   5.209   0.789   5.323 -0.5459 -0.0326  0.0367
 1685ntf    on513122   5.442   0.861   5.380 -0.5417 -0.1795  0.6867
 1685ntf    fn413123   5.243   0.927   5.081  0.1975  0.2275  0.5750
 1685ntf    fn413124   5.440   0.997   5.126  0.0843 -0.1743 -0.1158
 1685ntf    fn413125   5.403   0.788   5.097 -0.0700 -0.1188  0.0774
 1686ntf    cn113126   3.550   1.372   0.359  0.0735 -0.4490 -0.1154
 1686ntf    sn213127   3.604   1.310   0.521  0.1766 -0.0048  0.0210
 1686ntf    nn313128   3.586   1.435   0.615 -0.1343 -0.1135  0.1069
 1686ntf    sn213129   3.678   1.560   0.637 -0.2180 -0.0658  0.1855
 1686ntf    cn113130   3.804   1.504   0.755  0.2275  0.0580 -0.2262
 1686ntf    fn413131   3.546   1.271   0.274  0.2461 -1.1669  0.7084
 1686ntf    fn413132   3.430   1.428   0.368 -0.0050 -0.6511  0.1408
 1686ntf    fn413133   3.624   1.471   0.313 -0.1381 -0.3187 -0.1806
 1686ntf    on513134   3.504   1.212   0.555  0.1382 -0.1334 -0.4651
 1686ntf    on513135   3.736   1.256   0.500  0.1535 -0.1138  0.1589
 1686ntf    on513136   3.606   1.665   0.705 -0.3910 -0.3240  0.3997
 1686ntf    on513137   3.749   1.588   0.514 -0.5017 -0.4585 -0.0705
 1686ntf    fn413138   3.760   1.419   0.847 -0.1798  0.2710 -0.2221
 1686ntf    fn413139   3.911   1.447   0.701  0.1726 -0.4458  0.1842
 1686ntf    fn413140   3.849   1.609   0.821 -0.0075 -0.1730  0.3042
 1687ntf    cn113141   3.685   3.750   4.873 -0.3451  0.1086 -0.0054
 1687ntf    sn213142   3.771   3.813   5.020 -0.3055  0.3019 -0.1106
 1687ntf    nn313143   3.840   3.933   4.946  0.0203  0.1002 -0.1357
 1687ntf    sn213144   3.980   3.933   4.874  0.2041  0.0024  0.2213
 1687ntf    cn113145   3.953   4.057   4.744 -0.0078 -0.1263  0.1427
 1687ntf    fn413146   3.761   3.732   4.766  0.0543  0.0546  0.2841
 1687ntf    fn413147   3.628   3.632   4.886  0.1474 -0.0973  0.3069
 1687ntf    fn413148   3.586   3.834   4.846 -0.3564  0.0331 -0.2009
 1687ntf    on513149   3.661   3.861   5.100 -0.4151  0.7640 -0.5338
 1687ntf    on513150   3.850   3.700   5.063  0.2073  0.6295 -0.1725
 1687ntf    on513151   4.010   3.815   4.796 -0.5171 -0.0152 -0.0397
 1687ntf    on513152   4.080   3.988   4.961  0.1053  0.5172  0.0091
 1687ntf    fn413153   3.924   4.178   4.788 -0.0619  0.2021 -0.7706
 1687ntf    fn413154   4.066   4.083   4.682  0.1350  0.3428  0.5954
 1687ntf    fn413155   3.864   4.018   4.654  0.3235  0.1035 -0.2849
 1688ntf    cn113156   6.660   5.161   2.377  0.5161  0.0315 -0.2207
 1688ntf    sn213157   6.555   5.308   2.392  0.0763 -0.3063  0.0155
 1688ntf    nn313158   6.665   5.420   2.393  0.3925 -0.6197  0.3143
 1688ntf    sn213159   6.726   5.502   2.513  0.2961 -0.2073  0.0831
 1688ntf    cn113160   6.621   5.651   2.516  0.4731 -0.0757 -0.2177
 1688ntf    fn413161   6.734   5.157   2.267  0.3480  0.3736 -0.3470
 1688ntf    fn413162   6.743   5.148   2.479 -0.1177 -0.4587  0.2392
 1688ntf    fn413163   6.586   5.052   2.383  0.1518  0.2886 -0.0310
 1688ntf    on513164   6.472   5.308   2.273 -0.4286 -0.1330  0.3644
 1688ntf    on513165   6.483   5.293   2.516 -0.0038  0.0646  0.0170
 1688ntf    on513166   6.860   5.550   2.488  0.1991 -0.1473 -0.3404
 1688ntf    on513167   6.708   5.444   2.644 -0.4024 -0.0221  0.0730
 1688ntf    fn413168   6.636   5.720   2.627 -0.5498  0.5037 -0.4358
 1688ntf    fn413169   6.645   5.737   2.418  0.6779  0.0610 -0.0487
 1688ntf    fn413170   6.492   5.628   2.503  0.5385 -0.6021  0.0461
 1689ntf    cn113171   4.178   6.462   6.291 -0.3617  0.0709 -0.1395
 1689ntf    sn213172   4.260   6.575   6.407  0.3014 -0.2099 -0.3317
 1689ntf    nn313173   4.217   6.709   6.338  0.4765  0.2709  0.4727
 1689ntf    sn213174   4.292   6.795   6.230 -0.1717  0.1254 -0.1030
 1689ntf    cn113175   4.163   6.916   6.188 -0.2034  0.1051 -0.0641
 1689ntf    fn413176   4.074   6.523   6.237 -0.4651 -0.2971 -0.3529
 1689ntf    fn413177   4.256   6.432   6.189  0.1741  0.0577  0.2694
 1689ntf    fn413178   4.149   6.345   6.345  0.3371  0.2299  0.6007
 1689ntf    on513179   4.197   6.552   6.535  0.0550  0.2064 -0.3780
 1689ntf    on513180   4.400   6.542   6.401  0.4731  0.3643  0.2497
 1689ntf    on513181   4.326   6.732   6.105 -0.4826  0.0582 -0.1533
 1689ntf    on513182   4.393   6.879   6.291 -0.1522  0.1449 -0.1612
 1689ntf    fn413183   4.130   6.992   6.291 -0.0855 -0.1054  0.1313
 1689ntf    fn413184   4.198   6.989   6.084 -0.4590  0.6654  0.2374
 1689ntf    fn413185   4.048   6.860   6.152 -0.0617 -0.1568 -0.1111
 1690ntf    cn113186   4.071   5.693   5.709  0.0802  0.2345 -0.0917
 1690ntf    sn213187   4.129   5.823   5.821  0.3578  0.2953 -0.3055
 1690ntf    nn313188   4.086   5.943   5.730 -0.5876 -0.1911 -0.5062
 1690ntf    sn213189   4.170   6.052   5.653 -0.3389 -0.1851 -0.2271
 1690ntf    cn113190   4.142   6.202   5.752  0.1491 -0.3890  0.2251
 1690ntf    fn413191   4.115   5.709   5.585 -0.5621  0.0767 -0.3461
 1690ntf    fn413192   4.117   5.573   5.742 -0.0342  0.0774 -0.4967
 1690ntf    fn413193   3.939   5.685   5.699  0.0851  0.4371 -0.3103
 1690ntf    on513194   4.039   5.798   5.930 -0.0820  0.7837 -0.5512
 1690ntf    on513195   4.269   5.792   5.842  0.1330 -0.3232  0.3133
 1690ntf    on513196   4.107   6.085   5.528  0.0594 -0.0161 -0.3840
 1690ntf    on513197   4.313   6.039   5.657 -0.3243 -0.1695 -0.6380
 1690ntf    fn413198   4.229   6.212   5.852  0.6559  0.5166 -0.2927
 1690ntf    fn413199   4.154   6.308   5.675  0.3301 -0.3431  0.3167
 1690ntf    fn413200   4.026   6.220   5.814  0.0586 -0.2282  0.0111
 1691ntf    cn113201   2.156   2.988   6.481 -0.0715 -0.0083 -0.0532
 1691ntf    sn213202   2.051   2.843   6.446 -0.1658  0.0656 -0.0749
 1691ntf    nn313203   2.148   2.774   6.345 -0.5442 -0.1077 -0.3194
 1691ntf    sn213204   2.117   2.671   6.230 -0.1947 -0.1846 -0.3442
 1691ntf    cn113205   2.196   2.523   6.300 -0.2375 -0.0551 -0.0216
 1691ntf    fn413206   2.093   3.074   6.558 -0.3954  0.0132 -0.3425
 1691ntf    fn413207   2.268   2.959   6.545 -0.0416 -0.0383 -0.1189
 1691ntf    fn413208   2.197   3.055   6.374 -0.1237 -0.1982 -0.1944
 1691ntf    on513209   2.040   2.775   6.573 -0.2166 -0.4442 -0.3502
 1691ntf    on513210   1.932   2.904   6.392 -0.4948 -0.3026  0.2295
 1691ntf    on513211   2.193   2.691   6.109 -0.1617 -0.0294 -0.2976
 1691ntf    on513212   1.981   2.627   6.214 -0.3494  0.3208 -0.4216
 1691ntf    fn413213   2.150   2.483   6.418 -0.0325 -0.4051 -0.0560
 1691ntf    fn413214   2.169   2.422   6.218 -0.5747 -0.2351  0.3041
 1691ntf    fn413215   2.324   2.552   6.315 -0.3253 -0.0078  0.7083
 1692ntf    cn113216   2.717   0.337   3.013 -0.0039  0.0252  0.2396
 1692ntf    sn213217   2.705   0.401   3.182 -0.1074  0.1820  0.1730
 1692ntf    nn313218   2.573   0.486   3.173 -0.2738 -0.0797  0.1329
 1692ntf    sn213219   2.552   0.637   3.210  0.0128 -0.0758  0.2850
 1692ntf    cn113220   2.594   0.639   3.387 -0.1386  0.1367  0.3187
 1692ntf    fn413221   2.743   0.430   2.922  0.3823 -0.1277  0.1930
 1692ntf    fn413222   2.822   0.258   2.999  0.0787  0.2103 -0.2272
 1692ntf    fn413223   2.615   0.265   2.968  0.0910 -0.1689  0.3343
 1692ntf    on513224   2.679   0.283   3.260  0.2287 -0.1215 -0.1739
 1692ntf    on513225   2.829   0.473   3.196 -0.2132  0.4684 -0.3557
 1692ntf    on513226   2.413   0.677   3.211  0.0729  0.1709 -0.4623
 1692ntf    on513227   2.648   0.727   3.151 -0.5887  0.3497 -0.0571
 1692ntf    fn413228   2.572   0.760   3.435 -0.3123  0.1084  0.3143
 1692ntf    fn413229   2.531   0.546   3.457 -0.8296  0.3483 -0.0070
 1692ntf    fn413230   2.722   0.614   3.408 -0.1782 -0.1375  0.2324
 1693ntf    cn113231   5.658   0.306   5.682  0.0695 -0.3600  0.2091
 1693ntf    sn213232   5.729   0.302   5.849 -0.2066 -0.0936  0.3327
 1693ntf    nn313233   5.691   0.453   5.872 -0.0452 -0.0559  0.3512
 1693ntf    sn213234   5.647   0.534   5.998  0.0371  0.2900  0.1584
 1693ntf    cn113235   5.468   0.549   5.969  0.0916 -0.0974 -0.3859
 1693ntf    fn413236   5.543   0.371   5.687  0.5573  0.5649 -0.1715
 1693ntf    fn413237   5.739   0.363   5.594  0.1308 -0.4126  0.2309
 1693ntf    fn413238   5.628   0.189   5.628  0.4716 -0.3789  0.0145
 1693ntf    on513239   5.651   0.199   5.913 -0.4869  0.1128  0.3287
 1693ntf    on513240   5.869   0.272   5.839 -0.1236  0.3949  0.0098
 1693ntf    on513241   5.702   0.667   5.993  0.2268  0.2042 -0.0274
 1693ntf    on513242   5.655   0.455   6.119  0.1937 -0.1439 -0.1336
 1693ntf    fn413243   5.403   0.437   5.993  0.3070 -0.2325 -0.4305
 1693ntf    fn413244   5.424   0.642   6.052  0.3014 -0.6523  0.3526
 1693ntf    fn413245   5.440   0.579   5.843 -0.2068 -0.8285 -0.5008
 1694ntf    cn113246   6.264   4.552   1.325  0.0806  0.2438 -0.2772
 1694ntf    sn213247   6.309   4.380   1.290 -0.1807  0.0897  0.1297
 1694ntf    nn313248   6.223   4.365   1.159 -0.1551  0.5708  0.0581
 1694ntf    sn213249   6.277   4.383   1.013  0.1522 -0.1918  0.0744
 1694ntf    cn113250   6.117   4.423   0.937  0.4062  0.1033 -0.3102
 1694ntf    fn413251   6.303   4.643   1.237 -0.0661  0.2458 -0.3415
 1694ntf    fn413252   6.133   4.565   1.338  0.0367 -0.2671 -0.1914
 1694ntf    fn413253   6.319   4.602   1.434  0.1502 -0.1264 -0.1412
 1694ntf    on513254   6.452   4.374   1.277 -0.1282 -0.5416  0.9278
 1694ntf    on513255   6.253   4.299   1.396 -0.1234  0.0339  0.1175
 1694ntf    on513256   6.323   4.268   0.939 -0.2629 -0.0608 -0.3908
 1694ntf    on513257   6.346   4.509   0.994 -0.3668  0.0213 -0.4346
 1694ntf    fn413258   6.031   4.324   0.953  0.6437 -0.1539 -0.6108
 1694ntf    fn413259   6.053   4.527   0.988 -0.0799 -0.1569 -0.3843
 1694ntf    fn413260   6.118   4.436   0.805  0.1319 -0.0168 -0.3249
 1695ntf    cn113261   4.076   0.549   3.249  0.2889 -0.0123  0.3280
 1695ntf    sn213262   4.249   0.600   3.228  0.1829  0.1480 -0.1571
 1695ntf    nn313263   4.216   0.749   3.191 -0.2748  0.1264  0.1500
 1695ntf    sn213264   4.220   0.881   3.276 -0.1313  0.2037  0.0247
 1695ntf    cn113265   4.397   0.916   3.253 -0.0822  0.2144  0.4084
 1695ntf    fn413266   4.070   0.424   3.293  0.1756  0.0007  0.3495
 1695ntf    fn413267   4.012   0.627   3.335 -0.0449 -0.0900  0.1503
 1695ntf    fn413268   4.009   0.547   3.136  0.8186 -0.0091  0.0108
 1695ntf    on513269   4.307   0.574   3.358  0.2147 -0.0584 -0.2124
 1695ntf    on513270   4.301   0.529   3.114 -0.1075  0.3748 -0.4329
 1695ntf    on513271   4.219   0.867   3.420  0.8866 -1.0146 -0.0714
 1695ntf    on513272   4.145   0.988   3.216  0.4261  0.2766 -0.5461
 1695ntf    fn413273   4.475   0.810   3.271 -0.6384 -0.2869 -0.1010
 1695ntf    fn413274   4.421   0.959   3.130 -0.1343 -0.1979  0.2540
 1695ntf    fn413275   4.450   1.006   3.334  0.1603  0.1363  0.3399
 1696ntf    cn113276   5.496   5.082   5.453  0.1807  0.0062 -0.3068
 1696ntf    sn213277   5.618   4.976   5.369  0.2667  0.0322 -0.2138
 1696ntf    nn313278   5.752   5.045   5.415  0.1139  0.0223  0.2490
 1696ntf    sn213279   5.896   5.003   5.368  0.1527  0.2131  0.1991
 1696ntf    cn113280   5.942   4.888   5.501 -0.3394 -0.0600  0.1343
 1696ntf    fn413281   5.529   5.112   5.577 -0.0617  0.1893 -0.2869
 1696ntf    fn413282   5.482   5.195   5.386  0.2170 -0.3594 -0.9437
 1696ntf    fn413283   5.377   5.026   5.465  0.1134  0.1804 -0.1670
 1696ntf    on513284   5.597   4.845   5.425  0.1313  0.0829 -0.1447
 1696ntf    on513285   5.592   4.994   5.228  0.7756  0.0815 -0.3037
 1696ntf    on513286   5.988   5.112   5.391  0.3935 -0.0428  0.4366
 1696ntf    on513287   5.902   4.937   5.240 -0.1079  0.9052 -0.1766
 1696ntf    fn413288   5.838   4.823   5.552 -0.4784 -0.3438 -0.4978
 1696ntf    fn413289   6.030   4.797   5.463 -0.4568 -0.2937  0.4126
 1696ntf    fn413290   5.999   4.951   5.602  0.2845  0.0019 -0.2541
 1697ntf    cn113291   6.405   5.994   2.844 -0.2803  0.1439  0.2638
 1697ntf    sn213292   6.265   6.107   2.864 -0.1039  0.3390  0.3949
 1697ntf    nn313293   6.216   6.136   2.718 -0.2905  0.2734  0.4444
 1697ntf    sn213294   6.280   6.224   2.605 -0.2757 -0.1515  0.1202
 1697ntf    cn113295   6.174   6.372   2.607  0.0450  0.0744  0.3505
 1697ntf    fn413296   6.362   5.875   2.804 -0.0571  0.2129 -0.1928
 1697ntf    fn413297   6.492   6.030   2.750 -0.4911 -0.0222  0.0033
 1697ntf    fn413298   6.457   5.981   2.965  0.1919  0.4824  0.1020
 1697ntf    on513299   6.172   6.038   2.950  0.1691 -0.2262  0.2386
 1697ntf    on513300   6.325   6.225   2.922  0.2176  0.4212 -0.1009
 1697ntf    on513301   6.260   6.168   2.473  0.5305  0.0407 -0.0901
 1697ntf    on513302   6.413   6.265   2.640 -0.2124 -0.1194 -0.1592
 1697ntf    fn413303   6.047   6.342   2.590  0.2097 -0.1118 -0.6517
 1697ntf    fn413304   6.181   6.428   2.726  0.7072 -0.1194  0.4050
 1697ntf    fn413305   6.217   6.461   2.518 -0.1344 -0.4748 -0.2951
 1698ntf    cn113306   2.368   3.639   2.950  0.1838  0.1031  0.0748
 1698ntf    sn213307   2.385   3.581   3.121 -0.0385  0.3460  0.1787
 1698ntf    nn313308   2.341   3.713   3.195 -0.3924  0.2383  0.1636
 1698ntf    sn213309   2.431   3.828   3.253 -0.3628  0.1999  0.1946
 1698ntf    cn113310   2.321   3.858   3.394 -0.2288  0.0581  0.3286
 1698ntf    fn413311   2.366   3.545   2.857  0.1588  0.2845 -0.1085
 1698ntf    fn413312   2.251   3.698   2.932  0.1536  0.0401  0.0657
 1698ntf    fn413313   2.462   3.726   2.915  0.1908  0.0527 -0.0321
 1698ntf    on513314   2.285   3.478   3.129  0.1427  0.1320 -0.3343
 1698ntf    on513315   2.523   3.544   3.133  0.0709  0.5311 -0.4840
 1698ntf    on513316   2.434   3.945   3.168 -0.1669 -0.0215 -0.1033
 1698ntf    on513317   2.550   3.793   3.326  0.1248  0.1771 -0.5889
 1698ntf    fn413318   2.198   3.891   3.358 -0.1110  0.0045 -0.1201
 1698ntf    fn413319   2.316   3.753   3.475 -0.2533 -0.0375  0.2038
 1698ntf    fn413320   2.368   3.957   3.467  0.6174  0.2571 -0.4731
 1699ntf    cn113321   3.426   2.108   3.181 -0.6927  0.3970  0.0701
 1699ntf    sn213322   3.580   2.201   3.207 -0.1912 -0.3747 -0.1084
 1699ntf    nn313323   3.559   2.322   3.108  0.6882 -0.0417  0.1051
 1699ntf    sn213324   3.526   2.473   3.137  0.1803 -0.1734  0.2172
 1699ntf    cn113325   3.349   2.474   3.093  0.2950  0.2018 -0.2454
 1699ntf    fn413326   3.419   2.015   3.274  0.0774  0.2027 -0.0634
 1699ntf    fn413327   3.316   2.179   3.200 -0.9926  0.0182 -0.2379
 1699ntf    fn413328   3.418   2.052   3.062  0.0619  0.0813  0.1653
 1699ntf    on513329   3.560   2.239   3.344 -0.0271 -0.1590 -0.1436
 1699ntf    on513330   3.681   2.106   3.167  0.0235 -0.2081  0.0376
 1699ntf    on513331   3.585   2.558   3.036  0.2620 -0.1963  0.2457
 1699ntf    on513332   3.534   2.517   3.274  0.2674  0.7525 -0.0838
 1699ntf    fn413333   3.286   2.375   3.153  0.0331  0.8244  0.5303
 1699ntf    fn413334   3.280   2.582   3.124  0.2600  0.1399 -0.1093
 1699ntf    fn413335   3.332   2.449   2.964 -0.0996 -0.0814 -0.1400
 1700ntf    cn113336   0.464   0.357   5.618 -0.2671 -0.0848  0.2215
 1700ntf    sn213337   0.422   0.388   5.444 -0.0833 -0.0248  0.1870
 1700ntf    nn313338   0.503   0.519   5.417 -0.4498  0.2281  0.3090
 1700ntf    sn213339   0.519   0.580   5.274 -0.0531 -0.2661  0.1412
 1700ntf    cn113340   0.486   0.751   5.325 -0.0611 -0.3860  0.5382
 1700ntf    fn413341   0.592   0.332   5.636 -0.2864 -0.2550  0.1191
 1700ntf    fn413342   0.443   0.469   5.685  0.5271 -0.1088  0.5199
 1700ntf    fn413343   0.386   0.262   5.667 -0.2012 -0.2997 -0.0917
 1700ntf    on513344   0.466   0.269   5.374 -0.1957  0.2279 -0.3205
 1700ntf    on513345   0.281   0.416   5.459 -0.0375  0.5758 -0.4471
 1700ntf    on513346   0.416   0.555   5.176 -0.1558 -0.0336  0.1893
 1700ntf    on513347   0.657   0.585   5.231 -0.0228 -0.1709  0.2484
 1700ntf    fn413348   0.371   0.767   5.388 -0.1668  0.2503  0.1970
 1700ntf    fn413349   0.581   0.791   5.408  0.3110 -0.4562  0.1499
 1700ntf    fn413350   0.482   0.829   5.218  0.2712 -0.5409  0.4137
 1701ntf    cn113351   4.842   3.836   5.110 -0.1103  0.1390 -0.1798
 1701ntf    sn213352   4.780   3.806   4.942 -0.0810  0.1661 -0.1952
 1701ntf    nn313353   4.899   3.854   4.850  0.2574  0.0808  0.1990
 1701ntf    sn213354   4.904   3.991   4.774  0.1105  0.0257  0.0911
 1701ntf    cn113355   4.791   3.972   4.632 -0.1735 -0.3278  0.3609
 1701ntf    fn413356   4.886   3.961   5.113  0.2574  0.0267 -0.6829
 1701ntf    fn413357   4.747   3.815   5.199  0.2626  0.2284  0.2427
 1701ntf    fn413358   4.946   3.760   5.139 -0.4326 -0.3342 -0.2534
 1701ntf    on513359   4.775   3.663   4.955  0.0749  0.1823  0.0450
 1701ntf    on513360   4.653   3.873   4.933 -0.0936  0.1638 -0.0357
 1701ntf    on513361   5.025   4.023   4.704  0.0361  0.7380  0.2806
 1701ntf    on513362   4.856   4.107   4.845 -0.4602 -0.0831 -0.1067
 1701ntf    fn413363   4.665   3.992   4.668 -0.0754 -0.3772  0.7392
 1701ntf    fn413364   4.812   4.067   4.543 -0.2719 -0.3816  0.2810
 1701ntf    fn413365   4.796   3.852   4.578  0.5463 -0.1926  0.1155
 1702ntf    cn113366   5.822   1.731   1.222 -0.3624  0.1628  0.2746
 1702ntf    sn213367   5.802   1.888   1.312 -0.2537  0.3075  0.0487
 1702ntf    nn313368   5.952   1.915   1.348 -0.2965  0.3655  0.1872
 1702ntf    sn213369   6.038   2.042   1.313  0.0186  0.0203 -0.3081
 1702ntf    cn113370   6.134   2.077   1.463 -0.3126  0.2689 -0.1532
 1702ntf    fn413371   5.850   1.629   1.301  0.0172 -0.1578 -0.2650
 1702ntf    fn413372   5.711   1.695   1.159 -0.0423 -0.3394 -0.0113
 1702ntf    fn413373   5.913   1.737   1.126 -0.4834 -0.5862  0.1016
 1702ntf    on513374   5.744   1.976   1.214 -0.5844  0.3239  0.2593
 1702ntf    on513375   5.723   1.846   1.425 -0.2491 -0.4623 -0.2231
 1702ntf    on513376   5.961   2.161   1.283 -0.2640 -0.0425  0.1638
 1702ntf    on513377   6.141   2.000   1.221  0.5443 -0.1594  0.3629
 1702ntf    fn413378   6.214   2.182   1.453  0.6276 -0.3808  0.4507
 1702ntf    fn413379   6.060   2.102   1.570  0.3209  0.1725  0.3140
 1702ntf    fn413380   6.214   1.978   1.498 -0.4167  0.3114  0.2133
 1703ntf    cn113381   1.911   1.112   6.230 -0.4528 -0.1178  0.1246
 1703ntf    sn213382   2.057   1.076   6.129 -0.1259 -0.0495  0.5696
 1703ntf    nn313383   2.166   1.029   6.232  0.7182  0.5636 -0.0212
 1703ntf    sn213384   2.177   0.890   6.304  0.3811  0.4341 -0.2165
 1703ntf    cn113385   2.299   0.807   6.197  0.1686 -0.2310  0.0479
 1703ntf    fn413386   1.806   1.151   6.159 -0.1497  0.0518 -0.2290
 1703ntf    fn413387   1.867   1.006   6.298 -0.2783  0.0117  0.4389
 1703ntf    fn413388   1.930   1.196   6.330 -0.1041 -0.0692  0.0180
 1703ntf    on513389   2.011   0.977   6.035  0.4642  0.1999  0.0053
 1703ntf    on513390   2.091   1.208   6.080 -0.3208 -0.3183 -0.3153
 1703ntf    on513391   2.063   0.802   6.299  0.3279  0.4989 -0.1482
 1703ntf    on513392   2.242   0.905   6.432  0.2583  0.3980 -0.1499
 1703ntf    fn413393   2.332   0.685   6.236  0.2705 -0.1056  0.3570
 1703ntf    fn413394   2.257   0.792   6.072 -0.6267  0.8115  0.1744
 1703ntf    fn413395   2.405   0.883   6.175 -0.0618 -0.1021 -0.6423
 1704ntf    cn113396   1.714   0.610   0.441  0.1862 -0.3098 -0.1148
 1704ntf    sn213397   1.791   0.723   0.320 -0.0504  0.0107  0.0337
 1704ntf    nn313398   1.921   0.639   0.298  0.0787  0.2114  0.0316
 1704ntf    sn213399   2.073   0.664   0.327  0.1465 -0.2333  0.0708
 1704ntf    cn113400   2.090   0.558   0.474  0.2860  0.0095  0.2309
 1704ntf    fn413401   1.597   0.654   0.484  0.2975 -0.1891  0.0648
 1704ntf    fn413402   1.699   0.486   0.397  0.2316 -0.3737  0.0490
 1704ntf    fn413403   1.787   0.603   0.551  0.6230  0.4084 -0.3476
 1704ntf    on513404   1.698   0.728   0.210 -0.1618 -0.3044  0.1107
 1704ntf    on513405   1.803   0.841   0.402 -0.5713 -0.0326  0.1812
 1704ntf    on513406   2.104   0.797   0.373  0.4810 -0.3165  0.0879
 1704ntf    on513407   2.157   0.604   0.227  0.0666 -0.0466 -0.1092
 1704ntf    fn413408   2.024   0.446   0.449  0.2155  0.1109 -0.0453
 1704ntf    fn413409   2.215   0.530   0.506  0.3830  0.2592  0.0687
 1704ntf    fn413410   2.031   0.604   0.584  0.3148  0.7154 -0.0422
 1705ntf    cn113411   1.314   6.545   2.312 -0.1003  0.6389  0.0803
 1705ntf    sn213412   1.157   6.464   2.267  0.3047 -0.0129 -0.1917
 1705ntf    nn313413   1.177   6.319   2.324  0.3017  0.1303  0.1789
 1705ntf    sn213414   1.148   6.257   2.465  0.0526 -0.0680  0.0405
 1705ntf    cn113415   1.209   6.087   2.439  0.4125 -0.0111  0.5124
 1705ntf    fn413416   1.332   6.577   2.439  0.2635  0.0486  0.1838
 1705ntf    fn413417   1.421   6.476   2.276 -0.5838  0.0743 -0.3071
 1705ntf    fn413418   1.319   6.666   2.261  0.3775  0.4142 -0.4139
 1705ntf    on513419   1.064   6.559   2.325  0.1651 -0.3487  0.1363
 1705ntf    on513420   1.158   6.457   2.123 -0.0559  0.0454 -0.1997
 1705ntf    on513421   1.008   6.239   2.492 -0.0971  0.2146 -0.5434
 1705ntf    on513422   1.238   6.309   2.565 -0.2439  0.4190  0.0542
 1705ntf    fn413423   1.327   6.082   2.380  0.0877 -0.2801 -0.1227
 1705ntf    fn413424   1.223   6.017   2.550 -0.0234  0.1081  0.6454
 1705ntf    fn413425   1.125   6.025   2.359  0.6316 -0.1144  0.3626
 1706ntf    cn113426   1.460   4.684   5.981  0.0023 -0.1317  0.0132
 1706ntf    sn213427   1.302   4.729   6.058 -0.0396 -0.0018 -0.1480
 1706ntf    nn313428   1.324   4.883   6.072 -0.0065 -0.0444  0.3117
 1706ntf    sn213429   1.225   5.005   6.067  0.0365 -0.0175  0.0723
 1706ntf    cn113430   1.225   5.068   6.238 -0.2828  0.3581 -0.0660
 1706ntf    fn413431   1.568   4.688   6.058  0.0828  0.2117 -0.1156
 1706ntf    fn413432   1.449   4.560   5.936 -0.1484  0.0563 -0.4735
 1706ntf    fn413433   1.483   4.758   5.873  0.0316 -0.0951  0.0442
 1706ntf    on513434   1.205   4.691   5.958 -0.2185 -0.5274  0.2181
 1706ntf    on513435   1.296   4.654   6.182 -0.3226  0.3347  0.0424
 1706ntf    on513436   1.088   4.969   6.042  0.1850 -0.5955  0.0809
 1706ntf    on513437   1.278   5.118   5.995  0.1080  0.1431  0.3766
 1706ntf    fn413438   1.191   5.196   6.249 -0.3168  0.3579 -0.1571
 1706ntf    fn413439   1.151   4.997   6.321  0.1485  0.4307  0.3812
 1706ntf    fn413440   1.342   5.061   6.298 -0.3233  0.0764 -0.0211
 1707ntf    cn113441   4.057   6.301   4.464 -0.0117 -0.1040  0.1268
 1707ntf    sn213442   4.172   6.269   4.601  0.0201 -0.2757  0.0593
 1707ntf    nn313443   4.202   6.414   4.653  0.4667 -0.4063  0.1736
 1707ntf    sn213444   4.170   6.491   4.785  0.2536 -0.0456 -0.0852
 1707ntf    cn113445   4.342   6.533   4.825  0.1656 -0.2769  0.5562
 1707ntf    fn413446   4.099   6.398   4.384 -0.1946 -0.1143  0.0176
 1707ntf    fn413447   4.026   6.197   4.389  0.9109 -0.1855 -0.1512
 1707ntf    fn413448   3.941   6.345   4.511  0.0924  0.1164  0.1820
 1707ntf    on513449   4.088   6.188   4.685 -0.5098  0.6396  0.4201
 1707ntf    on513450   4.286   6.204   4.540  0.2834  0.0810  0.1643
 1707ntf    on513451   4.120   6.414   4.897 -0.3061  0.1257 -0.2120
 1707ntf    on513452   4.112   6.622   4.768 -0.5203 -0.3484  0.1588
 1707ntf    fn413453   4.358   6.590   4.943 -0.2025 -0.0554  0.5012
 1707ntf    fn413454   4.410   6.420   4.826 -0.4540 -0.6676 -0.5692
 1707ntf    fn413455   4.390   6.615   4.733  0.0172 -0.2247  0.5243
 1708ntf    cn113456   4.379   1.000   5.863 -0.1217  0.1871 -0.1558
 1708ntf    sn213457   4.493   0.870   5.921 -0.0358  0.1285 -0.4526
 1708ntf    nn313458   4.405   0.806   6.035  0.2424 -0.3112 -0.4840
 1708ntf    sn213459   4.326   0.672   6.020 -0.0290 -0.1632 -0.3705
 1708ntf    cn113460   4.455   0.546   6.039 -0.0650 -0.2308 -0.5714
 1708ntf    fn413461   4.332   1.080   5.957 -0.1749  0.0881 -0.0979
 1708ntf    fn413462   4.440   1.080   5.778  0.2413 -0.1033 -0.1727
 1708ntf    fn413463   4.280   0.939   5.801 -0.0857 -0.1412  0.1072
 1708ntf    on513464   4.513   0.790   5.803  0.5746  0.0745 -0.3161
 1708ntf    on513465   4.604   0.949   5.969  0.4169 -0.5945 -0.3005
 1708ntf    on513466   4.265   0.632   5.896 -0.6859  0.3200 -0.2091
 1708ntf    on513467   4.239   0.654   6.134 -0.0712 -0.1575 -0.4014
 1708ntf    fn413468   4.577   0.595   6.020  0.0296 -0.3023 -0.1683
 1708ntf    fn413469   4.456   0.506   6.165 -0.2893 -0.4342 -0.6329
 1708ntf    fn413470   4.446   0.438   5.963 -0.1259 -0.5570 -0.1050
 1709ntf    cn113471   2.117   1.052   3.851 -0.1636  0.1728 -0.0491
 1709ntf    sn213472   2.292   1.054   3.901 -0.2432  0.3889  0.2254
 1709ntf    nn313473   2.339   0.904   3.890 -0.2319  0.3980  0.1530
 1709ntf    sn213474   2.397   0.832   3.764  0.1274  0.4951  0.2618
 1709ntf    cn113475   2.572   0.833   3.815  0.2638  0.1771 -0.1853
 1709ntf    fn413476   2.109   1.005   3.728 -0.2606 -0.2025  0.0974
 1709ntf    fn413477   2.044   0.971   3.926  0.0217 -0.2741 -0.3491
 1709ntf    fn413478   2.067   1.174   3.860 -0.4077  0.0627  0.1205
 1709ntf    on513479   2.345   1.142   3.801 -0.4013  0.2507  0.0196
 1709ntf    on513480   2.277   1.098   4.038 -1.1270 -0.5524  0.4446
 1709ntf    on513481   2.394   0.911   3.643 -0.3071 -0.1237 -0.1381
 1709ntf    on513482   2.358   0.693   3.757  0.0900  0.5345 -0.3483
 1709ntf    fn413483   2.623   0.954   3.797  0.2343  0.1923 -0.1679
 1709ntf    fn413484   2.587   0.794   3.941 -0.0557 -0.2008 -0.2632
 1709ntf    fn413485   2.649   0.751   3.746  0.2317  0.0912 -0.1201
 1710ntf    cn113486   2.291   6.122   5.669  0.0405  0.1189 -0.5727
 1710ntf    sn213487   2.391   6.200   5.539  0.1781  0.3542 -0.3264
 1710ntf    nn313488   2.538   6.164   5.581 -0.1531 -0.5537  0.0831
 1710ntf    sn213489   2.660   6.107   5.500  0.1864  0.4846 -0.1591
 1710ntf    cn113490   2.787   6.223   5.556 -0.1373  0.4909  0.5751
 1710ntf    fn413491   2.298   5.990   5.667  0.1357  0.1114  0.0404
 1710ntf    fn413492   2.326   6.163   5.790 -0.2284 -0.4591 -0.2943
 1710ntf    fn413493   2.163   6.153   5.654 -0.0538 -0.1211 -0.2569
 1710ntf    on513494   2.340   6.125   5.427 -0.3639  0.2874 -0.0345
 1710ntf    on513495   2.350   6.338   5.550  0.3919  0.4110 -0.2493
 1710ntf    on513496   2.667   6.133   5.358  0.2303 -0.3197 -0.3115
 1710ntf    on513497   2.710   5.983   5.554 -0.7801  0.3693  0.4935
 1710ntf    fn413498   2.757   6.348   5.525 -0.0121  0.3556 -0.1210
 1710ntf    fn413499   2.809   6.217   5.686 -0.0988 -0.1659  0.5376
 1710ntf    fn413500   2.899   6.191   5.493 -0.3585  0.1409  0.3610
 1711ntf    cn113501   2.915   0.396   5.697  0.3426  0.2041 -0.0039
 1711ntf    sn213502   2.819   0.267   5.613  0.2869  0.0164  0.3463
 1711ntf    nn313503   2.909   0.143   5.646 -0.3954 -0.4369  0.5321
 1711ntf    sn213504   2.944   0.011   5.569  0.0596  0.0892 -0.1727
 1711ntf    cn113505   3.106  -0.021   5.643 -0.0658  0.1063  0.1122
 1711ntf    fn413506   3.027   0.420   5.632  0.3669  0.0646 -0.0128
 1711ntf    fn413507   2.853   0.513   5.710  0.0248  0.0287  0.0869
 1711ntf    fn413508   2.946   0.359   5.820  0.5169 -0.3055 -0.2001
 1711ntf    on513509   2.696   0.252   5.687  0.3884  0.2948  0.5733
 1711ntf    on513510   2.813   0.305   5.474  0.5115 -0.4028  0.2210
 1711ntf    on513511   2.968   0.027   5.428 -0.5812  0.4912 -0.2423
 1711ntf    on513512   2.865  -0.101   5.615 -0.2961  0.4975  0.2187
 1711ntf    fn413513   3.191  -0.080   5.560  0.3010  0.7411  0.0360
 1711ntf    fn413514   3.168   0.091   5.676 -0.2635  0.3768 -0.4314
 1711ntf    fn413515   3.098  -0.082   5.760  0.3216  0.0497  0.1132
 1712ntf    cn113516   2.100   5.057   0.709 -0.4376 -0.1064  0.0193
 1712ntf    sn213517   2.010   5.212   0.738 -0.1156  0.1118 -0.1448
 1712ntf    nn313518   1.866   5.196   0.676 -0.1742  0.2410 -0.0426
 1712ntf    sn213519   1.758   5.310   0.673 -0.2699  0.1459 -0.2054
 1712ntf    cn113520   1.658   5.244   0.810  0.2133  0.1901  0.1725
 1712ntf    fn413521   2.131   5.040   0.582  0.3667  0.0827  0.1873
 1712ntf    fn413522   2.215   5.052   0.774 -0.4485  0.1651  0.0587
 1712ntf    fn413523   2.038   4.944   0.741  0.4121 -0.6576 -0.2363
 1712ntf    on513524   2.005   5.214   0.882 -0.3816 -0.7987 -0.1356
 1712ntf    on513525   2.082   5.314   0.667 -0.2809  0.2020 -0.1831
 1712ntf    on513526   1.673   5.287   0.559 -0.4263  0.0142 -0.0638
 1712ntf    on513527   1.790   5.444   0.716  0.3772 -0.2315  0.5188
 1712ntf    fn413528   1.544   5.312   0.808  0.0397 -0.1189 -0.6362
 1712ntf    fn413529   1.622   5.118   0.795  0.4412  0.1824 -0.3076
 1712ntf    fn413530   1.720   5.251   0.927  0.3434  0.1963  0.1028
 1713ntf    cn113531   2.085   3.490   6.043  0.2400 -0.1346 -0.3704
 1713ntf    sn213532   2.185   3.596   5.935  0.0407  0.1103 -0.3158
 1713ntf    nn313533   2.062   3.661   5.862 -0.4353 -0.9076 -0.4420
 1713ntf    sn213534   2.056   3.713   5.714  0.2629 -0.0055 -0.1669
 1713ntf    cn113535   1.982   3.567   5.636  0.5936 -0.1761 -0.1612
 1713ntf    fn413536   1.990   3.553   6.110  0.0912 -0.4679 -0.2671
 1713ntf    fn413537   2.029   3.382   5.990 -0.5116 -0.2117  0.5461
 1713ntf    fn413538   2.164   3.440   6.137 -0.5370  0.0655  0.3989
 1713ntf    on513539   2.258   3.672   6.033 -0.4453  0.1525  0.0149
 1713ntf    on513540   2.260   3.503   5.854  0.2592 -0.0674  0.0885
 1713ntf    on513541   2.181   3.734   5.646  0.3507 -0.1928 -0.0637
 1713ntf    on513542   1.964   3.824   5.707  0.2354 -0.0210 -0.0600
 1713ntf    fn413543   2.055   3.459   5.658  0.3806 -0.3245 -0.1823
 1713ntf    fn413544   1.856   3.535   5.662  0.3585  0.8095 -0.0459
 1713ntf    fn413545   1.971   3.579   5.505  0.4258  0.1985 -0.1142
 1714ntf    cn113546   3.068   3.474   0.495 -0.2794  0.4706 -0.1847
 1714ntf    sn213547   3.125   3.478   0.668 -0.0800  0.1804 -0.2440
 1714ntf    nn313548   2.993   3.534   0.730  0.1207  0.4418 -0.0523
 1714ntf    sn213549   2.946   3.534   0.880 -0.2091 -0.0278 -0.1529
 1714ntf    cn113550   2.894   3.708   0.893  0.0268  0.0067  0.3586
 1714ntf    fn413551   2.955   3.406   0.484  0.1664 -0.2959 -0.0729
 1714ntf    fn413552   3.049   3.593   0.440 -0.1768  0.1629 -0.8899
 1714ntf    fn413553   3.156   3.411   0.419 -0.0978  0.3301  0.1418
 1714ntf    on513554   3.145   3.341   0.708 -0.6450  0.4582  1.0126
 1714ntf    on513555   3.239   3.567   0.665  0.1595 -0.1168 -0.0096
 1714ntf    on513556   3.054   3.517   0.974  0.0839  0.5944 -0.3687
 1714ntf    on513557   2.825   3.460   0.904 -0.2377 -0.0420 -0.3372
 1714ntf    fn413558   2.796   3.730   0.807  0.0826 -0.1126  0.2645
 1714ntf    fn413559   2.844   3.754   1.006  0.1213  0.1774  0.3306
 1714ntf    fn413560   2.997   3.787   0.864  0.1496 -0.3218 -0.1131
 1715ntf    cn113561   1.201   0.159   0.365  0.0008  0.4736 -0.3798
 1715ntf    sn213562   1.023   0.133   0.393  0.1012 -0.0179 -0.1735
 1715ntf    nn313563   0.970   0.194   0.258  0.0372  0.1053 -0.0930
 1715ntf    sn213564   0.888   0.324   0.226 -0.2668 -0.0372  0.1041
 1715ntf    cn113565   0.723   0.261   0.269 -0.0522 -0.2932  0.5483
 1715ntf    fn413566   1.227   0.288   0.377  0.2629  0.4022 -0.1788
 1715ntf    fn413567   1.274   0.095   0.456 -0.7694 -0.2382 -0.2496
 1715ntf    fn413568   1.247   0.118   0.248  0.0761  0.8984 -0.4986
 1715ntf    on513569   0.997  -0.008   0.397  0.3230 -0.0559 -0.0393
 1715ntf    on513570   0.998   0.210   0.512 -0.1536  0.1243 -0.3179
 1715ntf    on513571   0.878   0.359   0.086 -0.0631 -0.1719  0.0556
 1715ntf    on513572   0.905   0.424   0.328  0.2582 -0.0372  0.0207
 1715ntf    fn413573   0.719   0.227   0.397  0.9719 -0.0535  0.6521
 1715ntf    fn413574   0.633   0.356   0.257  0.6950  0.4079  0.4181
 1715ntf    fn413575   0.678   0.155   0.203  0.3931 -0.4541  0.4948
 1716ntf    cn113576   4.385   4.393   5.457  0.0682 -0.4249 -0.1280
 1716ntf    sn213577   4.227   4.315   5.501 -0.0582 -0.1344 -0.0678
 1716ntf    nn313578   4.129   4.381   5.396 -0.3268 -0.1117  0.1967
 1716ntf    sn213579   4.051   4.515   5.419 -0.1537  0.0155  0.0476
 1716ntf    cn113580   3.976   4.539   5.256 -0.0762 -0.0979 -0.0044
 1716ntf    fn413581   4.444   4.353   5.345  0.2690  0.0983 -0.2100
 1716ntf    fn413582   4.372   4.524   5.447  0.0963 -0.4109  0.0189
 1716ntf    fn413583   4.473   4.375   5.554  0.4267 -0.0015 -0.3726
 1716ntf    on513584   4.249   4.177   5.467 -0.0793 -0.2134  0.2385
 1716ntf    on513585   4.209   4.341   5.642 -0.5969 -0.3277 -0.0972
 1716ntf    on513586   4.138   4.629   5.438 -0.7156  0.4983 -0.2487
 1716ntf    on513587   3.938   4.512   5.509  0.0524  0.1931  0.3147
 1716ntf    fn413588   4.000   4.443   5.169  0.3012 -0.0954  0.0960
 1716ntf    fn413589   3.845   4.547   5.273 -0.0899  0.2825 -0.2543
 1716ntf    fn413590   4.017   4.653   5.203  0.0704 -0.2579 -0.2376
 1717ntf    cn113591   0.527   4.349   5.799  0.2801  0.2130 -0.0814
 1717ntf    sn213592   0.555   4.321   5.622  0.0704 -0.5606  0.0016
 1717ntf    nn313593   0.530   4.168   5.596 -0.2639 -0.4165 -0.5261
 1717ntf    sn213594   0.624   4.049   5.634 -0.1755 -0.1339  0.1541
 1717ntf    cn113595   0.715   4.037   5.477  0.2581  0.2707  0.3719
 1717ntf    fn413596   0.521   4.476   5.836  0.1314  0.3466 -0.5615
 1717ntf    fn413597   0.414   4.294   5.841  0.3513 -0.1187 -0.3189
 1717ntf    fn413598   0.625   4.293   5.869 -0.1837 -0.4363  0.0646
 1717ntf    on513599   0.448   4.397   5.562  0.5447  0.4010  0.3506
 1717ntf    on513600   0.687   4.372   5.594 -0.5560  1.0931 -0.0077
 1717ntf    on513601   0.558   3.921   5.642  0.3965 -0.4235  0.3412
 1717ntf    on513602   0.736   4.067   5.723  0.1123 -0.0631 -0.2196
 1717ntf    fn413603   0.645   4.014   5.367 -0.0213 -0.1677  0.6434
 1717ntf    fn413604   0.788   4.145   5.453  0.7096 -0.0386  0.3410
 1717ntf    fn413605   0.800   3.936   5.475 -0.1514 -0.0741  0.2178
 1718ntf    cn113606   0.494   6.670   5.776  0.1296 -0.0306 -0.1189
 1718ntf    sn213607   0.524   6.611   5.607  0.4282 -0.0824 -0.0478
 1718ntf    nn313608   0.681   6.606   5.608  0.4098 -0.7022 -0.0028
 1718ntf    sn213609   0.781   6.714   5.553 -0.1232 -0.2094 -0.0039
 1718ntf    cn113610   0.888   6.746   5.697  0.2892  0.0182 -0.3602
 1718ntf    fn413611   0.564   6.778   5.808  0.0038  0.0869 -0.2435
 1718ntf    fn413612   0.368   6.709   5.788  0.3289  0.6519 -0.1600
 1718ntf    fn413613   0.522   6.576   5.865 -0.3505  0.4403  0.5446
 1718ntf    on513614   0.461   6.481   5.605  0.2616  0.0081 -0.7108
 1718ntf    on513615   0.469   6.710   5.519 -0.1383 -0.7393 -0.4396
 1718ntf    on513616   0.720   6.841   5.524  0.2007 -0.1105 -0.2571
 1718ntf    on513617   0.875   6.660   5.458 -0.3109 -0.0979 -0.2542
 1718ntf    fn413618   1.003   6.794   5.652  0.3662  0.2034  0.0346
 1718ntf    fn413619   0.834   6.834   5.780  0.2134 -0.4985  0.1431
 1718ntf    fn413620   0.910   6.643   5.776 -0.4710 -0.1852 -0.4056
 1719ntf    cn113621   4.149   1.867   1.883 -0.0778  0.2730  0.0019
 1719ntf    sn213622   4.135   1.774   1.727 -0.1363  0.0468  0.1410
 1719ntf    nn313623   4.183   1.889   1.630  0.1404 -0.0991  0.1039
 1719ntf    sn213624   4.096   1.989   1.547  0.1361  0.0623  0.3011
 1719ntf    cn113625   4.094   1.918   1.379  0.0645 -0.0886  0.3651
 1719ntf    fn413626   4.258   1.942   1.885  0.1856 -0.0968 -0.1527
 1719ntf    fn413627   4.059   1.956   1.920  0.0625  0.3628  0.1285
 1719ntf    fn413628   4.158   1.790   1.990  0.0493 -0.4082 -0.4874
 1719ntf    on513629   4.244   1.681   1.738  0.0476  0.2687  0.2173
 1719ntf    on513630   4.000   1.726   1.726 -0.2098  0.2524  0.0150
 1719ntf    on513631   4.172   2.110   1.528 -0.1139  0.1730 -0.0110
 1719ntf    on513632   3.956   1.999   1.579  0.1643  0.1370  0.3995
 1719ntf    fn413633   4.028   1.804   1.382 -0.2862  0.0980 -0.1440
 1719ntf    fn413634   4.034   1.999   1.293  0.3966 -0.4968 -0.2542
 1719ntf    fn413635   4.215   1.893   1.332 -0.0623  0.4965 -0.2828
 1720ntf    cn113636   0.220   1.916   1.805 -0.1176 -0.2447 -0.1307
 1720ntf    sn213637   0.222   2.007   1.962 -0.0385  0.2225 -0.4000
 1720ntf    nn313638   0.204   2.155   1.914  0.2720  0.3972  0.0133
 1720ntf    sn213639   0.068   2.232   1.929  0.1859  0.2029  0.2330
 1720ntf    cn113640   0.134   2.400   1.905 -0.0295  0.2466 -0.0643
 1720ntf    fn413641   0.096   1.898   1.763 -0.1037  0.3447 -0.4374
 1720ntf    fn413642   0.286   1.983   1.711 -0.1428  0.1140  0.1062
 1720ntf    fn413643   0.276   1.797   1.816  0.0910 -0.0900  0.4746
 1720ntf    on513644   0.120   1.953   2.048  0.4638  0.2542  0.2259
 1720ntf    on513645   0.353   1.989   2.021 -0.3937 -0.2754  0.2452
 1720ntf    on513646   0.017   2.240   2.063 -0.0300  0.4079  0.1407
 1720ntf    on513647  -0.020   2.207   1.817  0.4321  0.0820  0.0672
 1720ntf    fn413648   0.181   2.418   1.782  0.2386  0.0623  0.0097
 1720ntf    fn413649   0.047   2.497   1.927 -0.4987 -0.2652  0.3732
 1720ntf    fn413650   0.244   2.413   1.977 -0.0496 -0.0611  0.0235
 1721ntf    cn113651   5.505   6.176   5.596  0.6368 -0.0875 -0.2817
 1721ntf    sn213652   5.486   6.336   5.512 -0.1011  0.0990  0.2374
 1721ntf    nn313653   5.512   6.446   5.622  0.0632  0.3075 -0.0108
 1721ntf    sn213654   5.397   6.528   5.691 -0.2502 -0.3222  0.2298
 1721ntf    cn113655   5.485   6.579   5.842  0.1293 -0.2994  0.0054
 1721ntf    fn413656   5.410   6.158   5.686  0.3723  0.6855 -0.4004
 1721ntf    fn413657   5.485   6.076   5.512 -0.6811 -0.2654  0.2199
 1721ntf    fn413658   5.625   6.162   5.652  0.3727 -0.0675  0.2963
 1721ntf    on513659   5.593   6.339   5.416 -0.2827  0.6069  0.0465
 1721ntf    on513660   5.354   6.334   5.453  0.0468 -0.1386 -0.0869
 1721ntf    on513661   5.284   6.453   5.739 -0.4621  0.2135  0.5839
 1721ntf    on513662   5.373   6.647   5.612  0.4439 -0.3467 -0.0322
 1721ntf    fn413663   5.413   6.672   5.902  0.3521 -0.0416 -0.1291
 1721ntf    fn413664   5.497   6.474   5.922  0.1491 -0.0142  0.3769
 1721ntf    fn413665   5.608   6.622   5.821 -0.2518  0.7786 -0.0445
 1722ntf    cn113666   1.544   0.588   4.618 -0.1163  0.0134 -0.5708
 1722ntf    sn213667   1.582   0.682   4.769 -0.3046 -0.0973 -0.4540
 1722ntf    nn313668   1.664   0.800   4.705 -0.0348  0.1800  0.3941
 1722ntf    sn213669   1.817   0.802   4.673 -0.1333  0.0423 -0.0901
 1722ntf    cn113670   1.870   0.910   4.810  0.2669 -0.0121 -0.1995
 1722ntf    fn413671   1.479   0.477   4.644  0.0233  0.1659  0.4623
 1722ntf    fn413672   1.467   0.663   4.541 -0.2237  0.4437 -0.0522
 1722ntf    fn413673   1.654   0.555   4.552  0.2405  0.3085 -0.1320
 1722ntf    on513674   1.452   0.717   4.819 -0.4294 -0.0179 -0.8339
 1722ntf    on513675   1.654   0.584   4.846 -0.2920  0.0270 -0.3065
 1722ntf    on513676   1.858   0.881   4.560  0.2623  0.1698  0.1376
 1722ntf    on513677   1.888   0.679   4.699 -0.4419 -0.0520  0.3105
 1722ntf    fn413678   2.001   0.921   4.815  0.2573  0.2099 -0.3767
 1722ntf    fn413679   1.828   1.035   4.805  0.2886 -0.0073 -0.2731
 1722ntf    fn413680   1.823   0.860   4.923  0.1997  0.0820 -0.1853
 1723ntf    cn113681   1.026   5.229   0.422  0.0721  0.2311  0.1759
 1723ntf    sn213682   1.028   5.313   0.261  0.0208 -0.4155 -0.1664
 1723ntf    nn313683   1.122   5.223   0.173  0.3974 -0.1245 -0.0644
 1723ntf    sn213684   1.074   5.110   0.075 -0.3265 -0.0843  0.2413
 1723ntf    cn113685   1.024   5.203  -0.073 -0.1120 -0.2837  0.0418
 1723ntf    fn413686   0.929   5.280   0.496  0.1254  0.7542 -0.1081
 1723ntf    fn413687   1.009   5.098   0.409  0.0650  0.3001 -0.5389
 1723ntf    fn413688   1.138   5.244   0.489 -0.2085  0.2785  0.6374
 1723ntf    on513689   0.888   5.327   0.231  0.0659 -0.1080 -0.2416
 1723ntf    on513690   1.091   5.439   0.291 -0.1607 -0.2903 -0.3124
 1723ntf    on513691   0.953   5.044   0.119 -0.2176 -0.3217  0.1890
 1723ntf    on513692   1.179   5.023   0.028 -0.4251 -0.2919  0.4044
 1723ntf    fn413693   0.970   5.320  -0.041 -0.4001 -0.1894 -0.7936
 1723ntf    fn413694   1.122   5.232  -0.156  0.1777 -0.0743  0.4511
 1723ntf    fn413695   0.937   5.137  -0.147 -0.1210  0.2977 -0.4711
 1724ntf    cn113696   0.022   5.762   3.007 -0.0836 -0.3450  0.1158
 1724ntf    sn213697   0.027   5.734   3.186  0.0565  0.0156  0.1690
 1724ntf    nn313698   0.172   5.679   3.209 -0.0480 -0.5194 -0.4090
 1724ntf    sn213699   0.297   5.765   3.249 -0.3170 -0.3558  0.0952
 1724ntf    cn113700   0.285   5.786   3.429 -0.1738  0.4436  0.0157
 1724ntf    fn413701   0.101   5.862   2.972 -0.3249 -0.2862 -0.2687
 1724ntf    fn413702   0.070   5.664   2.932 -0.0564  0.1033 -0.4610
 1724ntf    fn413703  -0.099   5.785   2.958  0.2432 -0.2200 -0.6509
 1724ntf    on513704  -0.000   5.866   3.238 -0.1389 -0.1933  0.6088
 1724ntf    on513705  -0.076   5.636   3.214  0.0899 -0.0751 -0.0199
 1724ntf    on513706   0.295   5.904   3.211  0.0016 -0.5072 -0.4863
 1724ntf    on513707   0.421   5.693   3.231 -0.2373 -0.0910 -0.4516
 1724ntf    fn413708   0.305   5.673   3.494 -0.5183  0.2404 -0.2242
 1724ntf    fn413709   0.379   5.866   3.476  0.6897 -0.6491  0.1774
 1724ntf    fn413710   0.167   5.835   3.464 -0.1506  0.3584  0.2116
 1725ntf    cn113711   5.478   4.055   5.945  0.1224  0.1498 -0.1001
 1725ntf    sn213712   5.622   4.142   5.878  0.1977  0.1048  0.0030
 1725ntf    nn313713   5.643   4.051   5.752  0.2134 -0.1717  0.2042
 1725ntf    sn213714   5.753   3.941   5.730 -0.0005 -0.4292  0.4204
 1725ntf    cn113715   5.806   3.996   5.565 -0.3468  0.1039  0.4825
 1725ntf    fn413716   5.429   4.115   6.052  0.0485 -0.0078 -0.0446
 1725ntf    fn413717   5.382   4.041   5.854  0.1630 -0.2535 -0.0814
 1725ntf    fn413718   5.516   3.936   5.988 -0.1297  0.1882  0.2308
 1725ntf    on513719   5.569   4.272   5.843 -0.0691  0.0158  0.0766
 1725ntf    on513720   5.718   4.127   5.984  0.0526 -0.0859  0.1058
 1725ntf    on513721   5.689   3.813   5.708 -0.1083 -0.2597 -0.3013
 1725ntf    on513722   5.871   3.945   5.812  0.3614 -0.6895 -0.0795
 1725ntf    fn413723   5.721   3.981   5.465  0.1523  0.1920  0.0363
 1725ntf    fn413724   5.839   4.124   5.564  0.4600 -0.0946 -0.2147
 1725ntf    fn413725   5.913   3.925   5.530 -0.4318  0.2208 -0.0302
 1726ntf    cn113726   2.711   2.876   2.589 -0.0144 -0.5646 -0.0949
 1726ntf    sn213727   2.558   2.883   2.492  0.0233 -0.0534 -0.1196
 1726ntf    nn313728   2.602   2.999   2.395  0.0922 -0.1472 -0.2013
 1726ntf    sn213729   2.586   3.018   2.240 -0.2800 -0.5053 -0.2103
 1726ntf    cn113730   2.530   3.191   2.238  0.3634 -0.2839  0.2624
 1726ntf    fn413731   2.737   2.985   2.658 -0.1569 -0.3528 -0.3763
 1726ntf    fn413732   2.706   2.773   2.673  0.0429 -0.2456  0.3005
 1726ntf    fn413733   2.821   2.861   2.516  0.1730 -0.0466  0.0775
 1726ntf    on513734   2.554   2.754   2.426  0.1986  0.3312 -0.8925
 1726ntf    on513735   2.447   2.916   2.577  0.1438 -0.5475  0.2333
 1726ntf    on513736   2.473   2.956   2.176 -0.0982 -0.9285 -0.1223
 1726ntf    on513737   2.709   3.017   2.165  0.1247  0.2696  0.4247
 1726ntf    fn413738   2.614   3.275   2.296  0.0885  0.0484  0.1802
 1726ntf    fn413739   2.510   3.238   2.116  0.2000 -0.0433  0.3812
 1726ntf    fn413740   2.414   3.204   2.299  0.5154 -0.5211  0.6008
 1727ntf    cn113741   4.015   1.505   5.602 -0.0545  0.2987  0.4213
 1727ntf    sn213742   4.149   1.565   5.495 -0.2710  0.2006  0.0907
 1727ntf    nn313743   4.215   1.679   5.582  0.2161  0.0273 -0.0503
 1727ntf    sn213744   4.255   1.826   5.548  0.3153  0.0373  0.1117
 1727ntf    cn113745   4.312   1.899   5.704  0.2079  0.4865 -0.0566
 1727ntf    fn413746   3.909   1.584   5.611 -0.3058  0.0426 -0.1767
 1727ntf    fn413747   3.967   1.392   5.551  0.1106  0.2834  0.2979
 1727ntf    fn413748   4.066   1.487   5.722  0.5837  0.0972  0.1219
 1727ntf    on513749   4.237   1.452   5.478 -0.1691  0.3084 -0.1009
 1727ntf    on513750   4.083   1.615   5.377 -0.2020 -0.3113 -0.1675
 1727ntf    on513751   4.143   1.914   5.522  0.4416  0.3284  0.5354
 1727ntf    on513752   4.371   1.831   5.462 -0.1198 -0.6128 -0.5220
 1727ntf    fn413753   4.212   1.922   5.787 -0.0850  0.1010 -0.3030
 1727ntf    fn413754   4.378   1.808   5.775  0.0418  0.4391  0.0387
 1727ntf    fn413755   4.393   2.004   5.708  0.8099  0.0097  0.6309
 1728ntf    cn113756   1.429   3.876   1.469 -0.1311  0.0472  0.1172
 1728ntf    sn213757   1.378   3.759   1.339  0.2021  0.1863 -0.1413
 1728ntf    nn313758   1.391   3.854   1.215  0.4478 -0.0554 -0.3003
 1728ntf    sn213759   1.285   3.946   1.144  0.0349 -0.1800  0.1542
 1728ntf    cn113760   1.254   3.838   1.001  0.2510 -0.5048  0.3517
 1728ntf    fn413761   1.459   3.822   1.585  0.3135  0.1085  0.0326
 1728ntf    fn413762   1.534   3.949   1.434 -0.1751 -0.0011 -0.1190
 1728ntf    fn413763   1.334   3.966   1.489  0.1355  0.4572 -0.4259
 1728ntf    on513764   1.484   3.662   1.342 -0.2137 -0.2570  0.6255
 1728ntf    on513765   1.246   3.710   1.369  0.1808  0.1965 -0.2187
 1728ntf    on513766   1.345   4.064   1.088  0.2351  0.1615  1.0664
 1728ntf    on513767   1.158   3.969   1.208 -0.1240  0.2979 -0.3277
 1728ntf    fn413768   1.263   3.710   1.035  0.3214 -0.6022 -0.0358
 1728ntf    fn413769   1.144   3.874   0.938  0.1848 -0.6964  0.3561
 1728ntf    fn413770   1.348   3.855   0.910 -0.1585  0.0263  0.0248
 1729ntf    cn113771   5.009   5.740   1.481 -0.1362 -0.0853 -0.0058
 1729ntf    sn213772   5.066   5.575   1.431  0.1614  0.1205 -0.3560
 1729ntf    nn313773   5.000   5.485   1.542  0.0515 -0.0227 -0.5360
 1729ntf    sn213774   4.881   5.387   1.518 -0.1917  0.1335  0.0107
 1729ntf    cn113775   4.971   5.240   1.461 -0.3690  0.2201 -0.5001
 1729ntf    fn413776   5.049   5.838   1.401  0.0341 -0.0772  0.0882
 1729ntf    fn413777   4.877   5.748   1.479 -0.1340 -0.0146  0.1445
 1729ntf    fn413778   5.041   5.771   1.606  0.5691 -0.4697 -0.0909
 1729ntf    on513779   5.021   5.549   1.296 -0.6425 -0.0379 -0.0672
 1729ntf    on513780   5.208   5.587   1.452  0.1030 -0.0183  0.1448
 1729ntf    on513781   4.789   5.413   1.410  0.3991 -0.0840 -0.5490
 1729ntf    on513782   4.813   5.342   1.637 -0.1139  0.1474  0.0601
 1729ntf    fn413783   5.045   5.261   1.353  0.4353  0.0712  0.0124
 1729ntf    fn413784   5.062   5.200   1.549 -1.0162  0.4993  0.3034
 1729ntf    fn413785   4.897   5.137   1.423 -0.4926  0.0771  0.1128
 1730ntf    cn113786   2.446   4.594   4.009  0.1093  0.0542 -0.0354
 1730ntf    sn213787   2.509   4.754   4.065 -0.0389  0.2754 -0.4963
 1730ntf    nn313788   2.569   4.715   4.205  0.1029 -0.5146 -0.7765
 1730ntf    sn213789   2.717   4.683   4.248  0.0251 -0.2135 -0.2711
 1730ntf    cn113790   2.748   4.836   4.339  0.2665 -0.5188  0.1607
 1730ntf    fn413791   2.333   4.557   4.068 -0.0970  0.0374 -0.4422
 1730ntf    fn413792   2.427   4.591   3.878 -0.2149 -0.2477  0.0154
 1730ntf    fn413793   2.536   4.500   4.032 -0.0413 -0.1522 -0.2875
 1730ntf    on513794   2.607   4.791   3.966  0.1067  0.4289 -0.2981
 1730ntf    on513795   2.392   4.836   4.083 -0.1293 -0.0099  0.2652
 1730ntf    on513796   2.815   4.678   4.142  0.5098 -0.3174  0.1776
 1730ntf    on513797   2.725   4.584   4.353  0.0277  0.5848  0.4889
 1730ntf    fn413798   2.741   4.948   4.268 -0.5371 -0.5073  0.2471
 1730ntf    fn413799   2.661   4.859   4.436  0.2209 -0.0637  0.0159
 1730ntf    fn413800   2.864   4.835   4.404  0.1687 -0.2231  0.3456
 1731ntf    cn113801   5.928   2.419   0.712  0.1551 -0.0831 -0.1084
 1731ntf    sn213802   5.834   2.521   0.830  0.3003 -0.0990  0.0208
 1731ntf    nn313803   5.690   2.461   0.818  0.0810  0.4369 -0.0387
 1731ntf    sn213804   5.565   2.513   0.737 -0.1435  0.2182  0.1635
 1731ntf    cn113805   5.477   2.357   0.710 -0.0335  0.1264  0.3264
 1731ntf    fn413806   5.860   2.387   0.603 -0.1187 -0.0604  0.0536
 1731ntf    fn413807   6.043   2.472   0.676  0.1596 -0.1663 -0.2163
 1731ntf    fn413808   5.967   2.308   0.772 -0.1995 -0.3835 -0.4258
 1731ntf    on513809   5.893   2.500   0.960  0.5807  0.4032 -0.0220
 1731ntf    on513810   5.859   2.651   0.773  0.0705 -0.0884 -0.0553
 1731ntf    on513811   5.597   2.551   0.602  0.4463  0.0005  0.2377
 1731ntf    on513812   5.473   2.597   0.810 -0.1070  0.1616  0.2757
 1731ntf    fn413813   5.364   2.379   0.645 -0.0907  0.0149  0.3880
 1731ntf    fn413814   5.543   2.276   0.629 -0.1298  0.3195  0.0528
 1731ntf    fn413815   5.453   2.290   0.821 -0.1039 -0.2978  0.0586
 1732ntf    cn113816   0.344   6.685   2.498  0.2621  0.0959 -0.0168
 1732ntf    sn213817   0.360   6.865   2.513  0.4988  0.0908 -0.1885
 1732ntf    nn313818   0.484   6.890   2.420  0.2185  0.1872 -0.5389
 1732ntf    sn213819   0.619   6.963   2.453  0.0878  0.2334 -0.0914
 1732ntf    cn113820   0.661   7.048   2.297  0.3320  0.3071  0.0143
 1732ntf    fn413821   0.221   6.651   2.531  0.3124 -0.1718 -0.0982
 1732ntf    fn413822   0.372   6.648   2.374  0.3910  0.2336 -0.0286
 1732ntf    fn413823   0.428   6.620   2.577  0.3169  0.2164  0.0236
 1732ntf    on513824   0.234   6.908   2.457  0.2267 -0.2536  0.1513
 1732ntf    on513825   0.378   6.896   2.653  0.2608  0.5523 -0.2570
 1732ntf    on513826   0.725   6.869   2.478 -0.2274  0.1159  0.8017
 1732ntf    on513827   0.617   7.067   2.552  0.2605 -0.1375  0.3018
 1732ntf    fn413828   0.669   6.955   2.204 -0.0376 -0.2536  0.5345
 1732ntf    fn413829   0.572   7.138   2.260 -0.2089 -0.0719  0.3783
 1732ntf    fn413830   0.779   7.108   2.305  0.5032 -0.0076 -0.1364
 1733ntf    cn113831   1.485   1.975   4.311  0.1419  0.0609 -0.0487
 1733ntf    sn213832   1.608   1.866   4.233  0.0973 -0.1113  0.1217
 1733ntf    nn313833   1.682   1.807   4.358  0.1745  0.0578  0.1551
 1733ntf    sn213834   1.661   1.672   4.436  0.1533 -0.0612 -0.0570
 1733ntf    cn113835   1.778   1.578   4.334  0.1338 -0.1506  0.0031
 1733ntf    fn413836   1.416   1.909   4.402  0.0856  0.2587  0.0512
 1733ntf    fn413837   1.549   2.076   4.367  0.2810 -0.3642  0.5761
 1733ntf    fn413838   1.389   2.021   4.232 -0.4584 -0.1830  0.5332
 1733ntf    on513839   1.526   1.775   4.157 -0.1104  0.0770  0.1202
 1733ntf    on513840   1.689   1.956   4.154  0.6257 -0.5229  0.1871
 1733ntf    on513841   1.532   1.610   4.425  0.1403 -0.0953  0.2874
 1733ntf    on513842   1.716   1.681   4.569 -0.2298  0.4797  0.0695
 1733ntf    fn413843   1.891   1.645   4.326  0.0332  0.0684  0.3999
 1733ntf    fn413844   1.806   1.457   4.379  0.0360 -0.0489  0.3388
 1733ntf    fn413845   1.728   1.567   4.211  1.0286  0.5660 -0.4410
 1734ntf    cn113846   5.721   0.600   0.462  0.1158  0.0219 -0.0280
 1734ntf    sn213847   5.611   0.459   0.428  0.1669 -0.0856  0.2472
 1734ntf    nn313848   5.500   0.493   0.533 -0.4093  0.0165 -0.3909
 1734ntf    sn213849   5.367   0.576   0.515 -0.4377  0.0216 -0.1561
 1734ntf    cn113850   5.344   0.631   0.687  0.3187 -0.0411 -0.0316
 1734ntf    fn413851   5.753   0.605   0.590  0.3219  0.3395 -0.0923
 1734ntf    fn413852   5.834   0.599   0.392  0.2335 -0.1423  0.1630
 1734ntf    fn413853   5.660   0.715   0.442 -0.3286 -0.1453  0.3498
 1734ntf    on513854   5.577   0.463   0.288 -0.2732 -0.8242  0.3302
 1734ntf    on513855   5.697   0.349   0.464 -0.2839 -0.4422  0.2383
 1734ntf    on513856   5.255   0.496   0.471 -0.0088 -0.6362 -0.0727
 1734ntf    on513857   5.380   0.708   0.459  0.3862 -0.0062 -0.0411
 1734ntf    fn413858   5.305   0.538   0.772 -0.1027  0.1375 -0.0264
 1734ntf    fn413859   5.460   0.672   0.735  0.1441  0.3776  0.0348
 1734ntf    fn413860   5.260   0.733   0.690  0.1744 -0.1566 -0.1692
 1735ntf    cn113861   4.054   3.197   4.431  0.6637  0.1091  0.2649
 1735ntf    sn213862   3.968   3.356   4.457 -0.0914 -0.2586  0.0558
 1735ntf    nn313863   4.049   3.453   4.364 -0.0871 -0.2799  0.0376
 1735ntf    sn213864   4.004   3.523   4.231  0.0317 -0.0766  0.1035
 1735ntf    cn113865   4.072   3.418   4.099  0.3886 -0.1233  0.3248
 1735ntf    fn413866   4.076   3.174   4.303 -0.0709 -0.0063  0.1530
 1735ntf    fn413867   4.168   3.180   4.496  0.4140  0.1930  0.7289
 1735ntf    fn413868   3.980   3.098   4.479 -0.2241  0.6119 -0.0254
 1735ntf    on513869   3.831   3.320   4.433 -0.2322 -0.4365  1.0472
 1735ntf    on513870   4.005   3.383   4.594 -0.2181  0.8424 -0.1168
 1735ntf    on513871   4.066   3.651   4.211  0.4129 -0.3232 -0.3148
 1735ntf    on513872   3.861   3.511   4.212  0.1931 -0.2403 -1.0444
 1735ntf    fn413873   4.204   3.422   4.099  0.3762  0.3230  0.0972
 1735ntf    fn413874   4.043   3.289   4.100 -0.1614 -0.0215 -0.9494
 1735ntf    fn413875   4.036   3.444   3.974  0.5507 -0.3629  0.2279
 1736ntf    cn113876   3.968   1.397   6.351 -0.0703  0.2830 -0.0928
 1736ntf    sn213877   3.860   1.353   6.211 -0.0450 -0.1471  0.0201
 1736ntf    nn313878   3.820   1.207   6.253 -0.0645  0.0679  0.7631
 1736ntf    sn213879   3.705   1.160   6.349 -0.3619 -0.1919  0.2805
 1736ntf    cn113880   3.758   0.993   6.396  0.4703  0.0611  0.2662
 1736ntf    fn413881   4.032   1.510   6.324  0.3319  0.0884  0.0377
 1736ntf    fn413882   3.908   1.410   6.467 -0.3517 -0.1899 -0.1836
 1736ntf    fn413883   4.065   1.308   6.369 -0.3166  0.0743  0.1971
 1736ntf    on513884   3.756   1.452   6.199 -0.2768 -0.4281 -0.3030
 1736ntf    on513885   3.955   1.342   6.103  0.0458  0.2803  0.0534
 1736ntf    on513886   3.581   1.143   6.276 -0.2362 -0.3207  0.0941
 1736ntf    on513887   3.704   1.224   6.478 -0.6568 -0.1285  0.2480
 1736ntf    fn413888   3.728   0.907   6.300  0.2737  0.3232  0.0897
 1736ntf    fn413889   3.888   0.982   6.413  0.6160  0.4828 -0.5235
 1736ntf    fn413890   3.693   0.957   6.506  0.2575  0.1601  0.1738
 1737ntf    cn113891   5.266   6.432   3.934  0.2449 -0.4433  0.0303
 1737ntf    sn213892   5.372   6.374   4.070  0.2504 -0.1645  0.1463
 1737ntf    nn313893   5.500   6.320   3.997 -0.0084  0.0076 -0.4451
 1737ntf    sn213894   5.625   6.395   3.938  0.0624 -0.0739 -0.4011
 1737ntf    cn113895   5.634   6.301   3.782  0.1023  0.3629 -0.6634
 1737ntf    fn413896   5.324   6.530   3.867 -0.3820  0.3210  0.5899
 1737ntf    fn413897   5.240   6.333   3.849  0.3957 -0.1927 -0.3061
 1737ntf    fn413898   5.148   6.473   3.977  0.1494 -0.2150 -0.4400
 1737ntf    on513899   5.395   6.489   4.153  0.7303 -0.3397  0.2561
 1737ntf    on513900   5.289   6.271   4.128  0.4684 -0.5969 -0.2959
 1737ntf    on513901   5.755   6.376   3.996  0.0438  0.7215 -0.0938
 1737ntf    on513902   5.602   6.529   3.890  0.1885 -0.0727 -0.4575
 1737ntf    fn413903   5.559   6.358   3.689 -0.0016  0.2272 -0.6632
 1737ntf    fn413904   5.757   6.294   3.736  0.2226  0.2665 -0.3271
 1737ntf    fn413905   5.600   6.175   3.805  0.2237  0.3300 -0.6659
 1738ntf    cn113906   5.293   3.423   3.057 -0.4958 -0.5434 -0.2408
 1738ntf    sn213907   5.378   3.365   2.907 -0.1553 -0.2686 -0.1531
 1738ntf    nn313908   5.270   3.280   2.832 -0.4825  0.2586 -0.2875
 1738ntf    sn213909   5.168   3.328   2.723 -0.4895 -0.1231 -0.4501
 1738ntf    cn113910   5.239   3.245   2.578  0.2589 -0.1634 -0.0631
 1738ntf    fn413911   5.359   3.524   3.111 -0.8221 -0.3363 -0.2208
 1738ntf    fn413912   5.169   3.466   3.037 -0.3205  0.5530  0.9524
 1738ntf    fn413913   5.280   3.331   3.151  0.0928 -0.5423 -0.1593
 1738ntf    on513914   5.413   3.485   2.834  0.7449 -0.5437 -0.1878
 1738ntf    on513915   5.488   3.292   2.964  0.4019  0.1143 -0.7223
 1738ntf    on513916   5.161   3.468   2.688  0.2975  0.1918  0.6086
 1738ntf    on513917   5.043   3.257   2.730 -0.8890  0.6418  0.3655
 1738ntf    fn413918   5.165   3.277   2.473 -0.1856  0.2332  0.3703
 1738ntf    fn413919   5.360   3.298   2.566  0.2393 -0.1587 -0.2407
 1738ntf    fn413920   5.247   3.113   2.582 -0.0770 -0.1721  0.2611
 1739ntf    cn113921   5.289   5.776   6.567  0.1432  0.2695 -0.3516
 1739ntf    sn213922   5.214   5.714   6.721  0.1506  0.1704 -0.3881
 1739ntf    nn313923   5.336   5.631   6.775 -0.0146  0.0733 -0.1632
 1739ntf    sn213924   5.435   5.661   6.893 -0.1418  0.0528 -0.0516
 1739ntf    cn113925   5.567   5.759   6.816  0.0673 -0.0587  0.1611
 1739ntf    fn413926   5.200   5.791   6.471 -0.6643  0.1300  0.3572
 1739ntf    fn413927   5.345   5.894   6.586 -0.0650  0.3428 -0.1918
 1739ntf    fn413928   5.388   5.695   6.532  0.1293  0.0518  0.0984
 1739ntf    on513929   5.173   5.828   6.799  0.1226  0.5504 -0.9497
 1739ntf    on513930   5.112   5.625   6.674 -0.1600  0.6321 -0.5962
 1739ntf    on513931   5.513   5.550   6.943 -0.3714 -0.2560 -0.3783
 1739ntf    on513932   5.379   5.745   6.997 -0.4082 -0.5077  0.2622
 1739ntf    fn413933   5.527   5.878   6.773 -0.0884 -0.0420  0.3537
 1739ntf    fn413934   5.659   5.783   6.907 -0.2355  0.5644  0.3072
 1739ntf    fn413935   5.630   5.690   6.722 -0.1860 -0.1860  0.0832
 1740ntf    cn113936   5.995   2.845   1.787  0.1536  0.1019  0.1862
 1740ntf    sn213937   6.164   2.911   1.785  0.0388  0.3894 -0.1496
 1740ntf    nn313938   6.226   2.816   1.893 -0.3667  0.1500 -0.1296
 1740ntf    sn213939   6.305   2.682   1.877 -0.3586  0.1734 -0.2835
 1740ntf    cn113940   6.479   2.725   1.910 -0.3162  0.2225 -0.5655
 1740ntf    fn413941   5.933   2.887   1.678  0.1367  0.6609  0.4081
 1740ntf    fn413942   5.998   2.713   1.788  0.3294  0.1004 -0.2005
 1740ntf    fn413943   5.918   2.892   1.884 -0.4138 -0.2054 -0.1125
 1740ntf    on513944   6.197   2.887   1.647 -0.3118  0.1068 -0.1849
 1740ntf    on513945   6.146   3.041   1.845  0.0105  0.1167  0.4342
 1740ntf    on513946   6.306   2.625   1.744  0.3140 -0.3269 -0.0721
 1740ntf    on513947   6.269   2.595   1.986  0.3487  0.0857 -0.1162
 1740ntf    fn413948   6.518   2.832   1.842 -0.5028  0.6830  0.0377
 1740ntf    fn413949   6.498   2.754   2.038 -0.0130 -0.5376 -0.4318
 1740ntf    fn413950   6.560   2.624   1.888 -0.0883  0.2885 -0.0341
 1741ntf    cn113951   4.864   2.706   4.039  0.0513  0.4055 -0.0573
 1741ntf    sn213952   4.770   2.552   4.063  0.1907  0.3585  0.1947
 1741ntf    nn313953   4.624   2.608   4.047  0.1405  0.0819 -0.3249
 1741ntf    sn213954   4.504   2.544   3.969  0.0321  0.0815 -0.1576
 1741ntf    cn113955   4.464   2.676   3.850 -0.7483 -0.0611 -0.0595
 1741ntf    fn413956   4.990   2.693   4.076  0.2026  0.0704 -0.6865
 1741ntf    fn413957   4.862   2.742   3.912  0.1941 -0.2348 -0.2424
 1741ntf    fn413958   4.815   2.807   4.109 -0.0264  0.5460 -0.3165
 1741ntf    on513959   4.822   2.473   3.954  0.4244  0.8882 -0.0809
 1741ntf    on513960   4.806   2.511   4.196  0.2204 -0.4862 -0.0690
 1741ntf    on513961   4.392   2.545   4.060 -0.3607 -0.1705 -0.6314
 1741ntf    on513962   4.521   2.420   3.896 -0.6400 -0.2530  0.2401
 1741ntf    fn413963   4.574   2.701   3.781 -0.4167  0.1729  0.5483
 1741ntf    fn413964   4.369   2.646   3.763  0.0007 -0.0317 -0.8965
 1741ntf    fn413965   4.425   2.787   3.910 -0.4557 -0.0571  0.1281
 1742ntf    cn113966   1.348   5.798   6.107  0.4379 -0.0891 -0.0093
 1742ntf    sn213967   1.262   5.674   6.209  0.3404  0.0949  0.1321
 1742ntf    nn313968   1.116   5.732   6.201  0.2001 -0.2974 -0.1784
 1742ntf    sn213969   1.001   5.737   6.307  0.2251  0.1247 -0.1686
 1742ntf    cn113970   0.988   5.916   6.337  0.0947  0.1612 -0.4464
 1742ntf    fn413971   1.334   5.778   5.977  0.2826 -0.4191  0.0576
 1742ntf    fn413972   1.324   5.926   6.133  0.0983 -0.1474 -0.0346
 1742ntf    fn413973   1.478   5.793   6.128  0.4389 -0.1784 -0.0377
 1742ntf    on513974   1.279   5.554   6.132 -1.0816 -0.4410  0.6164
 1742ntf    on513975   1.327   5.692   6.337  0.7195 -0.2356 -0.0108
 1742ntf    on513976   1.031   5.678   6.436 -0.0747 -0.3610 -0.3208
 1742ntf    on513977   0.870   5.713   6.252  0.3934 -0.1210 -0.4617
 1742ntf    fn413978   0.895   5.944   6.426  0.1391 -0.3335 -0.2379
 1742ntf    fn413979   1.103   5.971   6.375 -0.1578  0.3370  0.0664
 1742ntf    fn413980   0.951   5.977   6.225 -0.0370 -0.0528 -0.5201
 1743ntf    cn113981   2.411   4.001   4.047 -0.5827 -0.1622  0.0075
 1743ntf    sn213982   2.325   4.159   4.069 -0.0107  0.1339  0.1494
 1743ntf    nn313983   2.279   4.154   4.219 -0.0763 -0.1831  0.1201
 1743ntf    sn213984   2.138   4.118   4.279 -0.3059  0.0264 -0.2846
 1743ntf    cn113985   2.178   4.039   4.438 -0.2166  0.3672 -0.1369
 1743ntf    fn413986   2.450   3.968   3.925 -0.0023  0.1987  0.0928
 1743ntf    fn413987   2.523   3.993   4.117 -0.3497  0.0778 -0.3314
 1743ntf    fn413988   2.331   3.900   4.076 -0.1315 -0.5985 -0.2501
 1743ntf    on513989   2.440   4.244   4.054  0.2939 -0.3018  0.0272
 1743ntf    on513990   2.222   4.161   3.967  0.4079 -0.0478 -0.2783
 1743ntf    on513991   2.069   4.007   4.219 -0.2811 -0.2155  0.1301
 1743ntf    on513992   2.066   4.235   4.322 -0.5659 -0.1749 -0.1764
 1743ntf    fn413993   2.073   3.985   4.498  0.1928 -0.5573 -0.2312
 1743ntf    fn413994   2.261   3.936   4.427 -0.1052  0.3878  0.4517
 1743ntf    fn413995   2.223   4.114   4.537 -0.0516 -0.1018  0.1457
 1744ntf    cn113996   2.977   5.231   2.800 -0.3611 -0.0392  0.2491
 1744ntf    sn213997   3.000   5.056   2.756  0.3780  0.0864  0.1227
 1744ntf    nn313998   2.918   5.052   2.622  0.3932  0.1194  0.1123
 1744ntf    sn213999   2.969   5.088   2.478  0.0311  0.1208 -0.0164
 1744ntf    cn114000   2.833   5.197   2.427  0.0304  0.3060  0.3755
 1744ntf    fn414001   3.023   5.316   2.709  0.4438 -0.3036  0.4009
 1744ntf    fn414002   2.851   5.256   2.829 -0.1716  0.3853  0.7134
 1744ntf    fn414003   3.045   5.261   2.909 -0.0374 -0.2359  0.1042
 1744ntf    on514004   3.143   5.036   2.752  0.4867  0.8388  0.1329
 1744ntf    on514005   2.933   4.990   2.865 -0.2854  0.3344 -0.1326
 1744ntf    on514006   2.957   4.977   2.387  0.9254 -0.1107  0.1400
 1744ntf    on514007   3.090   5.166   2.469 -0.1171  0.3672  0.1161
 1744ntf    fn414008   2.820   5.298   2.512  0.0185  0.4756  0.1741
 1744ntf    fn414009   2.862   5.259   2.313 -0.0211 -0.3604 -0.0016
 1744ntf    fn414010   2.715   5.138   2.418  0.0550  0.3701 -0.4337
 1745ntf    cn114011   1.640   1.328   0.502 -0.3354  0.0241  0.1890
 1745ntf    sn214012   1.508   1.309   0.625 -0.1344 -0.0485  0.3933
 1745ntf    nn314013   1.510   1.456   0.680 -0.0814  0.0372  0.1634
 1745ntf    sn214014   1.425   1.580   0.637 -0.0435  0.0242  0.0525
 1745ntf    cn114015   1.283   1.563   0.749 -0.1968 -0.1752 -0.1696
 1745ntf    fn414016   1.725   1.422   0.540  0.0996 -0.3287  0.1104
 1745ntf    fn414017   1.714   1.219   0.490  0.0748  0.3043  0.1460
 1745ntf    fn414018   1.593   1.365   0.384  0.1251  0.7005  0.2098
 1745ntf    on514019   1.391   1.269   0.552  0.0858 -0.0250  0.0263
 1745ntf    on514020   1.569   1.216   0.717  0.0779  0.3431  0.6540
 1745ntf    on514021   1.358   1.573   0.509  0.0811  0.0503 -0.0146
 1745ntf    on514022   1.490   1.705   0.669 -0.2712  0.1848 -0.1061
 1745ntf    fn414023   1.311   1.579   0.878  0.3888 -0.2981 -0.2795
 1745ntf    fn414024   1.180   1.640   0.719 -0.2376 -0.1024  0.1524
 1745ntf    fn414025   1.243   1.438   0.742 -0.1015 -0.2139 -0.0288
 1746ntf    cn114026   5.715   0.556   4.204  0.2333 -0.2795  0.0474
 1746ntf    sn214027   5.604   0.430   4.137 -0.1985  0.2343 -0.2126
 1746ntf    nn314028   5.466   0.504   4.140 -0.0091  0.5821 -0.0879
 1746ntf    sn214029   5.382   0.548   4.015 -0.3942  0.0924 -0.0054
 1746ntf    cn114030   5.225   0.489   4.085 -0.3574  0.3182  0.2704
 1746ntf    fn414031   5.844   0.527   4.200  0.3634  0.2944 -0.0084
 1746ntf    fn414032   5.704   0.673   4.142  0.0795 -0.4223 -0.1950
 1746ntf    fn414033   5.687   0.580   4.331  0.4926 -0.1413  0.0806
 1746ntf    on514034   5.664   0.403   4.008  0.4273 -0.4545  0.2143
 1746ntf    on514035   5.623   0.328   4.237 -0.1052  0.4471 -0.0128
 1746ntf    on514036   5.392   0.474   3.892  0.3527  0.4472 -0.1606
 1746ntf    on514037   5.378   0.692   4.012  0.7903  0.1474  0.5693
 1746ntf    fn414038   5.236   0.521   4.213  0.1564 -0.4222  0.4167
 1746ntf    fn414039   5.110   0.538   4.042 -0.4086 -0.1375 -0.1169
 1746ntf    fn414040   5.215   0.357   4.086 -0.1675  0.3027  0.1144
 1747ntf    cn114041   0.300   1.130   5.300 -0.0227 -0.2376  0.0174
 1747ntf    sn214042   0.321   1.217   5.458 -0.2415  0.0603 -0.1173
 1747ntf    nn314043   0.244   1.352   5.433  0.2178  0.4329  0.4530
 1747ntf    sn214044   0.095   1.379   5.474  0.0826 -0.0351  0.2799
 1747ntf    cn114045   0.066   1.541   5.397  0.1633 -0.1655 -0.0292
 1747ntf    fn414046   0.366   1.015   5.306 -0.0522 -0.2431  0.2541
 1747ntf    fn414047   0.177   1.095   5.264  0.0832 -0.0691 -0.5130
 1747ntf    fn414048   0.356   1.197   5.201 -0.5396 -0.2581 -0.2922
 1747ntf    on514049   0.256   1.140   5.562 -0.5666 -0.3029 -0.5852
 1747ntf    on514050   0.464   1.228   5.472 -0.2908  0.5896  0.0002
 1747ntf    on514051   0.076   1.409   5.613 -0.3220  0.3974  0.1318
 1747ntf    on514052   0.015   1.286   5.398  0.1776  0.1522 -0.0516
 1747ntf    fn414053   0.075   1.534   5.266 -0.3370 -0.4519 -0.0513
 1747ntf    fn414054  -0.048   1.603   5.427  0.2457  0.0195 -0.0951
 1747ntf    fn414055   0.162   1.620   5.440  0.0593 -0.0892  0.0656
 1748ntf    cn114056   0.972   4.909   4.818 -0.2817 -0.2178  0.0854
 1748ntf    sn214057   0.850   4.828   4.926 -0.2109 -0.0508  0.2903
 1748ntf    nn314058   0.725   4.809   4.833  0.0701 -0.1679 -0.0680
 1748ntf    sn214059   0.615   4.697   4.829 -0.2874  0.1843 -0.1735
 1748ntf    cn114060   0.472   4.808   4.837 -0.3545  0.0700  0.2335
 1748ntf    fn414061   1.085   4.936   4.880 -0.0975 -0.0239 -0.3293
 1748ntf    fn414062   1.000   4.849   4.703 -0.0447 -0.2946  0.1846
 1748ntf    fn414063   0.920   5.025   4.782 -0.9266 -0.5346 -0.0247
 1748ntf    on514064   0.910   4.706   4.975 -0.7302 -0.2702  0.3871
 1748ntf    on514065   0.833   4.931   5.025 -0.0307  0.1731  0.0894
 1748ntf    on514066   0.608   4.623   4.953 -0.5083 -0.2199 -0.4249
 1748ntf    on514067   0.611   4.623   4.705  0.7484 -0.3134  0.0734
 1748ntf    fn414068   0.471   4.884   4.945 -0.4551  0.0154  0.2708
 1748ntf    fn414069   0.453   4.885   4.731  0.1335  0.5226  0.4698
 1748ntf    fn414070   0.363   4.733   4.839 -0.1663 -0.2223 -0.2031
 1749ntf    cn114071   5.166   0.039   4.742  0.2022 -0.0147 -0.2849
 1749ntf    sn214072   5.116   0.166   4.862  0.1751 -0.2743 -0.0205
 1749ntf    nn314073   5.184   0.289   4.793 -0.1094  0.2047  0.5399
 1749ntf    sn214074   5.329   0.348   4.799  0.0144 -0.0368  0.0331
 1749ntf    cn114075   5.298   0.474   4.927 -0.1006 -0.2514  0.2154
 1749ntf    fn414076   5.298   0.035   4.730  0.2445 -0.5298  0.3200
 1749ntf    fn414077   5.129  -0.083   4.778 -0.0987  0.2184  0.2122
 1749ntf    fn414078   5.113   0.067   4.625  0.1520 -0.2005 -0.3060
 1749ntf    on514079   4.972   0.166   4.859  0.1822 -0.2055 -0.3383
 1749ntf    on514080   5.176   0.124   4.987  0.2691 -0.1739 -0.0320
 1749ntf    on514081   5.365   0.425   4.682  0.2039 -0.5568 -0.2538
 1749ntf    on514082   5.437   0.264   4.846 -0.0139 -0.1379 -0.0818
 1749ntf    fn414083   5.412   0.523   4.973 -0.0660 -0.5907  0.4971
 1749ntf    fn414084   5.227   0.579   4.890  0.1404 -0.1969 -0.0901
 1749ntf    fn414085   5.239   0.421   5.033 -0.4418  0.4291  0.3715
 1750ntf    cn114086   3.242   2.548   4.154  0.2709 -0.0504 -0.1594
 1750ntf    sn214087   3.066   2.577   4.117  0.1666 -0.0565  0.3231
 1750ntf    nn314088   3.039   2.699   4.212 -0.6359 -0.0598  0.1001
 1750ntf    sn214089   3.067   2.853   4.201  0.1424 -0.2156 -0.1051
 1750ntf    cn114090   2.899   2.921   4.196  0.2518  0.0787  0.1962
 1750ntf    fn414091   3.315   2.658   4.145  0.0653  0.1407  0.4879
 1750ntf    fn414092   3.266   2.489   4.270  0.1257 -0.1844 -0.1981
 1750ntf    fn414093   3.296   2.467   4.064 -0.1561 -0.1664 -0.3144
 1750ntf    on514094   3.068   2.603   3.975  0.0837 -0.3689  0.2647
 1750ntf    on514095   3.018   2.447   4.156  0.1953 -0.2132 -0.1581
 1750ntf    on514096   3.120   2.892   4.073 -0.2949 -0.0443 -0.2347
 1750ntf    on514097   3.128   2.906   4.320 -0.2178  0.1056 -0.0621
 1750ntf    fn414098   2.835   2.873   4.091 -0.2213 -0.1354  0.5809
 1750ntf    fn414099   2.832   2.887   4.305 -0.0898 -0.1937 -0.0938
 1750ntf    fn414100   2.884   3.053   4.196 -0.1021  0.0380  0.1113
 1751ntf    cn114101   2.476   6.644   3.392 -0.3471 -0.0742  0.0876
 1751ntf    sn214102   2.500   6.640   3.212 -0.1753  0.1383  0.1057
 1751ntf    nn314103   2.386   6.542   3.168 -0.3560 -0.0077  0.8745
 1751ntf    sn214104   2.396   6.385   3.162  0.1837  0.0457  0.1925
 1751ntf    cn114105   2.414   6.347   2.985  0.2322  0.2333  0.1572
 1751ntf    fn414106   2.359   6.688   3.436  0.0650  0.8752  0.2571
 1751ntf    fn414107   2.495   6.521   3.437 -0.6416 -0.1743 -0.0619
 1751ntf    fn414108   2.563   6.724   3.451 -0.3030  0.0258 -0.1117
 1751ntf    on514109   2.473   6.774   3.168 -0.3390  0.2681  0.5914
 1751ntf    on514110   2.636   6.594   3.197 -0.1970  0.1067  0.0058
 1751ntf    on514111   2.278   6.312   3.202  0.2558  0.0527  0.4190
 1751ntf    on514112   2.519   6.331   3.213  0.2199 -0.1574 -0.1116
 1751ntf    fn414113   2.303   6.370   2.918  0.2344 -0.4257 -0.0791
 1751ntf    fn414114   2.517   6.419   2.942 -0.0306  0.0698 -0.7730
 1751ntf    fn414115   2.437   6.219   2.961 -0.3863  0.2858 -0.7305
 1752ntf    cn114116   5.750   1.618   3.084  0.1846 -0.2783  0.0593
 1752ntf    sn214117   5.834   1.775   3.124 -0.2498 -0.0861  0.2246
 1752ntf    nn314118   5.738   1.844   3.227  0.4278  0.4830  0.4845
 1752ntf    sn214119   5.610   1.932   3.203  0.1728  0.0700  0.3097
 1752ntf    cn114120   5.662   2.081   3.293  0.1296  0.0626  0.3469
 1752ntf    fn414121   5.825   1.543   3.006 -0.0171 -0.2033 -0.2052
 1752ntf    fn414122   5.731   1.537   3.187  0.2809 -0.2657  0.0876
 1752ntf    fn414123   5.633   1.643   3.029  0.1779 -0.0242  0.1835
 1752ntf    on514124   5.952   1.740   3.198 -0.2843  0.0594  0.3494
 1752ntf    on514125   5.839   1.838   2.994 -0.1604 -0.5235  0.0159
 1752ntf    on514126   5.501   1.875   3.278 -0.3422  0.1110 -0.3987
 1752ntf    on514127   5.586   1.990   3.074 -0.2809 -0.0242  0.3512
 1752ntf    fn414128   5.583   2.183   3.266  0.3865  0.2260  0.2067
 1752ntf    fn414129   5.672   2.071   3.425 -0.4918  0.9530  0.4680
 1752ntf    fn414130   5.780   2.116   3.244 -0.0684 -0.1096 -0.2494
 1753ntf    cn114131   6.057   5.131   3.499  0.1153 -0.2755  0.2816
 1753ntf    sn214132   6.030   5.214   3.340  0.0570 -0.2544  0.3024
 1753ntf    nn314133   5.886   5.273   3.358  0.2735  0.3425  0.1164
 1753ntf    sn214134   5.745   5.206   3.336  0.2322  0.3864  0.2474
 1753ntf    cn114135   5.710   5.214   3.158  0.2090  0.0007  0.2347
 1753ntf    fn414136   5.985   5.020   3.511 -0.1652 -0.0817  0.4122
 1753ntf    fn414137   6.181   5.103   3.536  0.4585 -0.1117 -0.7261
 1753ntf    fn414138   6.008   5.210   3.593  0.3741  0.0158  0.1735
 1753ntf    on514139   6.134   5.314   3.347  0.0736 -0.2245 -0.3291
 1753ntf    on514140   6.044   5.109   3.242  0.6772 -0.0066  0.1184
 1753ntf    on514141   5.635   5.279   3.394 -0.0727 -0.0671  0.2460
 1753ntf    on514142   5.758   5.066   3.366 -0.5676  0.2176 -0.1709
 1753ntf    fn414143   5.692   5.340   3.124  0.3795 -0.0390 -0.0081
 1753ntf    fn414144   5.821   5.172   3.098  0.2227  0.0858  0.2022
 1753ntf    fn414145   5.603   5.150   3.115  0.2283 -0.1797  0.4528
 1754ntf    cn114146   0.355   3.328   6.713 -0.4375  0.0621 -0.1446
 1754ntf    sn214147   0.253   3.279   6.855 -0.0576 -0.0880  0.0762
 1754ntf    nn314148   0.142   3.189   6.791 -0.4052  0.5599 -0.2436
 1754ntf    sn214149   0.126   3.034   6.810 -0.3384  0.6021  0.1538
 1754ntf    cn114150   0.038   3.000   6.655 -0.1696 -0.0515  0.1981
 1754ntf    fn414151   0.407   3.220   6.657 -0.4143 -0.4127  0.7774
 1754ntf    fn414152   0.288   3.393   6.619  0.0876  0.1915 -0.4317
 1754ntf    fn414153   0.459   3.403   6.744 -0.4111  0.0393 -0.1777
 1754ntf    on514154   0.344   3.219   6.950 -0.1407 -0.1163  0.1379
 1754ntf    on514155   0.204   3.409   6.895 -0.1259 -0.1563  0.2145
 1754ntf    on514156   0.026   2.997   6.907  0.1204 -0.0260  0.3953
 1754ntf    on514157   0.254   2.968   6.804 -0.4248  0.3231  1.0900
 1754ntf    fn414158   0.059   3.090   6.560  0.5604 -0.1637  0.2479
 1754ntf    fn414159   0.076   2.889   6.595  0.2258  0.0471  0.2590
 1754ntf    fn414160  -0.093   2.987   6.669 -0.1817 -0.0830  0.0537
 1755ntf    cn114161   3.992   6.338   2.152 -0.1273 -0.1223  0.0472
 1755ntf    sn214162   3.870   6.456   2.216 -0.0135  0.0464 -0.0481
 1755ntf    nn314163   3.955   6.518   2.333  0.4960 -0.9926  0.1436
 1755ntf    sn214164   3.949   6.495   2.488  0.1166 -0.3866  0.2214
 1755ntf    cn114165   3.854   6.643   2.537 -0.1690 -0.5086  0.0336
 1755ntf    fn414166   4.099   6.390   2.093 -0.1314  0.1653  0.2897
 1755ntf    fn414167   4.038   6.260   2.248  0.3777  0.0218 -0.0723
 1755ntf    fn414168   3.934   6.257   2.065 -0.5817  0.0097  0.2285
 1755ntf    on514169   3.864   6.546   2.104 -0.1198  0.3053  0.1647
 1755ntf    on514170   3.757   6.376   2.253  0.4689 -0.5329  0.1938
 1755ntf    on514171   4.076   6.523   2.551  0.2741 -0.3507 -0.1129
 1755ntf    on514172   3.877   6.379   2.534 -0.0273 -0.3828  0.0011
 1755ntf    fn414173   3.739   6.647   2.471 -0.0408 -0.0878 -0.1685
 1755ntf    fn414174   3.829   6.647   2.667 -0.8090 -0.5546 -0.0827
 1755ntf    fn414175   3.915   6.753   2.496 -0.1750 -0.2897  0.6104
 1756ntf    cn114176   5.550   4.472   1.245  0.2362 -0.3932 -0.3531
 1756ntf    sn214177   5.662   4.592   1.166 -0.3206  0.1201 -0.3759
 1756ntf    nn314178   5.555   4.682   1.095  0.0752  0.8581 -0.0465
 1756ntf    sn214179   5.491   4.819   1.136 -0.2657  0.7111 -0.0861
 1756ntf    cn114180   5.447   4.877   0.969 -0.2599  0.1134 -0.2973
 1756ntf    fn414181   5.462   4.427   1.157 -0.0120 -0.1183 -0.2487
 1756ntf    fn414182   5.611   4.367   1.298  0.4537  0.1866  0.5735
 1756ntf    fn414183   5.479   4.524   1.343  0.7604 -0.7938  0.2420
 1756ntf    on514184   5.722   4.651   1.283 -0.1610 -0.1586 -0.3162
 1756ntf    on514185   5.743   4.511   1.077  0.0765  0.5780 -0.4328
 1756ntf    on514186   5.589   4.914   1.181  0.4550 -0.0829  0.0511
 1756ntf    on514187   5.363   4.810   1.201  0.0135 -0.0400  0.3738
 1756ntf    fn414188   5.401   5.001   0.971  0.1256  0.2521  0.5916
 1756ntf    fn414189   5.542   4.884   0.878  0.3644  0.0952  0.3410
 1756ntf    fn414190   5.352   4.795   0.927  0.1263 -0.3869 -0.2018
 1757ntf    cn114191   5.669   3.487   4.676 -0.0786 -0.5375  0.3006
 1757ntf    sn214192   5.517   3.426   4.597 -0.1066 -0.0084 -0.0548
 1757ntf    nn314193   5.522   3.514   4.467  0.4343  0.1048  0.0373
 1757ntf    sn214194   5.539   3.669   4.452  0.4647  0.1024  0.0473
 1757ntf    cn114195   5.456   3.688   4.291 -0.0379  0.0352  0.2941
 1757ntf    fn414196   5.770   3.484   4.590 -0.2649 -0.4551  0.0781
 1757ntf    fn414197   5.667   3.615   4.710  0.1111 -0.3148 -0.5113
 1757ntf    fn414198   5.703   3.417   4.783  0.6085 -0.3724  0.1950
 1757ntf    on514199   5.549   3.293   4.553  0.0815 -0.0911  0.3265
 1757ntf    on514200   5.407   3.452   4.686 -0.2951 -0.7397 -0.0736
 1757ntf    on514201   5.675   3.710   4.426  0.5039  0.0559  0.1792
 1757ntf    on514202   5.456   3.745   4.543  0.4346 -0.2757  0.3336
 1757ntf    fn414203   5.330   3.649   4.300  0.1339 -0.6578 -0.2013
 1757ntf    fn414204   5.448   3.811   4.242 -0.1149 -0.2200 -0.3537
 1757ntf    fn414205   5.510   3.612   4.196 -0.0800 -0.9119  1.0172
 1758ntf    cn114206   0.279   3.725   2.485  0.2811 -0.0939 -0.3560
 1758ntf    sn214207   0.209   3.870   2.400 -0.1194 -0.0233  0.0874
 1758ntf    nn314208   0.296   3.870   2.269  0.3887  0.0429  0.4227
 1758ntf    sn214209   0.401   3.971   2.210  0.3598 -0.1457  0.0416
 1758ntf    cn114210   0.549   3.925   2.305  0.2171  0.1885  0.4306
 1758ntf    fn414211   0.226   3.618   2.428 -0.6136  0.2712 -0.2189
 1758ntf    fn414212   0.411   3.721   2.481  0.2879 -0.0651 -0.1543
 1758ntf    fn414213   0.245   3.709   2.611  0.5652  0.1218 -0.2505
 1758ntf    on514214   0.070   3.838   2.380 -0.0901  0.0309 -0.2147
 1758ntf    on514215   0.243   3.976   2.491 -0.5950  0.0680  0.1570
 1758ntf    on514216   0.392   4.112   2.241  0.3690 -0.0342 -0.4669
 1758ntf    on514217   0.432   3.949   2.071  0.5664 -0.3421  0.1183
 1758ntf    fn414218   0.529   3.915   2.436 -0.1338  0.0228  0.3640
 1758ntf    fn414219   0.602   3.812   2.261 -0.0934  0.0544  0.4011
 1758ntf    fn414220   0.642   4.018   2.285  0.0204  0.2645 -0.1279
 1759ntf    cn114221   3.623   6.576   6.429 -0.2779  0.4206  0.1977
 1759ntf    sn214222   3.469   6.658   6.377 -0.4366  0.0903  0.1469
 1759ntf    nn314223   3.513   6.808   6.364  0.4161 -0.2000 -0.3943
 1759ntf    sn214224   3.567   6.883   6.236  0.2833  0.0288 -0.3174
 1759ntf    cn114225   3.416   6.969   6.182 -0.2610 -0.5679  0.2231
 1759ntf    fn414226   3.603   6.446   6.416  0.2056  0.3798 -0.1779
 1759ntf    fn414227   3.729   6.610   6.357 -0.0866  0.1911  0.3701
 1759ntf    fn414228   3.654   6.591   6.557  0.3011 -0.3921  0.1588
 1759ntf    on514229   3.421   6.587   6.262 -0.3397  0.5777 -0.1952
 1759ntf    on514230   3.390   6.637   6.496 -0.2970  0.4121  0.3001
 1759ntf    on514231   3.599   6.804   6.120  0.3461 -0.3501 -0.0472
 1759ntf    on514232   3.657   6.991   6.264  0.3682 -0.0260 -0.3789
 1759ntf    fn414233   3.328   6.882   6.136 -0.1287 -0.4902 -0.1798
 1759ntf    fn414234   3.372   7.046   6.280  0.1248  0.1420 -0.1461
 1759ntf    fn414235   3.436   7.053   6.081  0.1164 -0.0889  0.6891
 1760ntf    cn114236   0.633   5.099   2.931  0.2484  0.1615  0.0309
 1760ntf    sn214237   0.808   5.052   2.943  0.2206  0.0503 -0.0024
 1760ntf    nn314238   0.826   5.076   3.097 -0.4111  0.2849  0.0346
 1760ntf    sn214239   0.907   5.195   3.161 -0.2468  0.1226  0.1308
 1760ntf    cn114240   1.076   5.131   3.177 -0.1538  0.2088 -0.4823
 1760ntf    fn414241   0.573   5.009   3.008 -0.1188  0.4711  0.1108
 1760ntf    fn414242   0.617   5.219   2.986 -0.1883  0.1423 -0.0553
 1760ntf    fn414243   0.589   5.106   2.807 -0.1078  0.3014  0.1624
 1760ntf    on514244   0.800   4.911   2.913 -0.1898  0.0137  0.2749
 1760ntf    on514245   0.891   5.132   2.857  0.4552  0.3971  0.5357
 1760ntf    on514246   0.867   5.215   3.298 -0.0524  0.2716  0.1662
 1760ntf    on514247   0.930   5.313   3.081  0.0050 -0.0864 -0.1044
 1760ntf    fn414248   1.145   5.224   3.240  0.3551 -0.2540 -0.3476
 1760ntf    fn414249   1.078   5.026   3.257  0.2002  0.6018  0.0259
 1760ntf    fn414250   1.137   5.093   3.066  0.0280 -0.1719 -0.2546
 1761ntf    cn114251   4.935   4.883   6.082  0.0434 -0.2934  0.2327
 1761ntf    sn214252   5.115   4.867   6.070  0.0378 -0.3366  0.2033
 1761ntf    nn314253   5.128   4.737   6.157 -0.4246 -0.2349  0.4283
 1761ntf    sn214254   5.242   4.693   6.256  0.2200  0.0164 -0.1974
 1761ntf    cn114255   5.303   4.547   6.166  0.1684  0.4209 -0.8999
 1761ntf    fn414256   4.861   4.787   6.029 -0.4179  0.2263 -0.0883
 1761ntf    fn414257   4.898   4.897   6.208 -0.3450 -0.1473  0.1060
 1761ntf    fn414258   4.902   4.996   6.021 -0.3098 -0.3407  0.3337
 1761ntf    on514259   5.147   4.845   5.931  0.1167  0.3035  0.1188
 1761ntf    on514260   5.163   4.987   6.135  0.0132 -0.2429  0.0472
 1761ntf    on514261   5.203   4.646   6.386 -0.2844 -0.3620 -0.4835
 1761ntf    on514262   5.358   4.779   6.262 -0.3493  0.7701  0.2217
 1761ntf    fn414263   5.401   4.489   6.234 -0.3110  0.1523 -0.4259
 1761ntf    fn414264   5.201   4.466   6.147  0.2833  0.0443  0.0139
 1761ntf    fn414265   5.356   4.576   6.048 -0.1143  0.0158 -1.1278
 1762ntf    cn114266   1.991   5.538   4.574  0.0574  0.1537 -0.0170
 1762ntf    sn214267   2.135   5.553   4.684  0.1157 -0.2737 -0.0330
 1762ntf    nn314268   2.162   5.707   4.667 -0.4055 -0.1299  0.4333
 1762ntf    sn214269   2.269   5.801   4.734 -0.1914 -0.0855  0.0273
 1762ntf    cn114270   2.172   5.831   4.884  0.0791 -0.0223  0.1907
 1762ntf    fn414271   1.932   5.422   4.598 -0.0878  0.2317  0.0048
 1762ntf    fn414272   1.900   5.634   4.588 -0.0395  0.0165  0.3066
 1762ntf    fn414273   2.024   5.534   4.446 -0.1629 -0.0006 -0.0697
 1762ntf    on514274   2.084   5.526   4.816  0.3494  0.1497  0.1460
 1762ntf    on514275   2.223   5.455   4.625  0.0096 -0.1712 -0.3650
 1762ntf    on514276   2.279   5.924   4.659  0.0577 -0.1373 -0.0257
 1762ntf    on514277   2.391   5.738   4.779 -0.2331 -0.3373 -0.2064
 1762ntf    fn414278   2.045   5.866   4.866  0.0869 -0.0524  0.0741
 1762ntf    fn414279   2.166   5.722   4.959  0.1844 -0.1368  0.0317
 1762ntf    fn414280   2.222   5.929   4.957 -0.3849 -0.0532  0.5586
 1763ntf    cn114281   4.643   4.666   5.338 -0.2957  0.0370  0.5678
 1763ntf    sn214282   4.808   4.724   5.289 -0.3755 -0.0721  0.1648
 1763ntf    nn314283   4.818   4.655   5.148 -0.3876  0.3684 -0.0541
 1763ntf    sn214284   4.944   4.672   5.056 -0.3032 -0.1520 -0.0410
 1763ntf    cn114285   4.888   4.795   4.934 -0.1275 -0.5099 -0.4844
 1763ntf    fn414286   4.603   4.707   5.457 -0.4538  0.7449  0.2741
 1763ntf    fn414287   4.555   4.717   5.253  0.5336  0.5201 -0.0110
 1763ntf    fn414288   4.619   4.536   5.331 -0.1663  0.0542 -0.2737
 1763ntf    on514289   4.792   4.867   5.285  0.2116 -0.0034  0.1499
 1763ntf    on514290   4.895   4.664   5.388 -0.0909 -0.2243 -0.1737
 1763ntf    on514291   4.967   4.556   4.974  0.3117  0.2048 -0.3793
 1763ntf    on514292   5.059   4.734   5.116 -0.5833  0.0126  0.3333
 1763ntf    fn414293   4.842   4.912   4.976  0.4326 -0.3209 -0.3746
 1763ntf    fn414294   4.976   4.814   4.837  0.3295  0.4823  0.0994
 1763ntf    fn414295   4.782   4.748   4.872 -0.1851 -0.0204 -0.7663
 1764ntf    cn114296   4.671   3.489   1.199  0.0180 -0.0172 -0.2374
 1764ntf    sn214297   4.661   3.385   1.051 -0.1883  0.2405 -0.4064
 1764ntf    nn314298   4.784   3.294   1.088 -0.6046 -0.3569 -0.4779
 1764ntf    sn214299   4.798   3.150   1.147 -0.0040 -0.0928  0.0381
 1764ntf    cn114300   4.837   3.054   0.998  0.3382  0.0043  0.0638
 1764ntf    fn414301   4.663   3.426   1.315  0.1271 -0.2651 -0.3653
 1764ntf    fn414302   4.778   3.566   1.211  0.0805 -0.1328 -0.0500
 1764ntf    fn414303   4.563   3.565   1.190 -0.0403  0.0294  0.6891
 1764ntf    on514304   4.537   3.312   1.057  0.2476 -0.4648  0.1930
 1764ntf    on514305   4.693   3.467   0.937  0.3700  0.4607 -0.0952
 1764ntf    on514306   4.680   3.092   1.206 -0.4281  0.3834 -0.3353
 1764ntf    on514307   4.919   3.141   1.225 -0.4257 -0.3532  0.6734
 1764ntf    fn414308   4.733   3.038   0.917 -0.0475 -0.0473  0.5581
 1764ntf    fn414309   4.931   3.110   0.924  0.3239  0.0470  0.0780
 1764ntf    fn414310   4.875   2.930   1.026 -0.1370 -0.2674 -0.4532
 1765ntf    cn114311   3.563   2.632   4.476  0.1740  0.1422 -0.2930
 1765ntf    sn214312   3.687   2.545   4.577 -0.1483  0.1451  0.1039
 1765ntf    nn314313   3.778   2.666   4.619  0.1358  0.0404 -0.2071
 1765ntf    sn214314   3.778   2.755   4.749  0.1045 -0.0302 -0.1582
 1765ntf    cn114315   3.859   2.909   4.696  0.0860 -0.0167 -0.1473
 1765ntf    fn414316   3.501   2.721   4.551 -0.1770 -0.0561 -0.3458
 1765ntf    fn414317   3.616   2.696   4.373 -0.2050 -0.0091 -0.5847
 1765ntf    fn414318   3.472   2.550   4.426 -0.0093  0.1522  0.0209
 1765ntf    on514319   3.616   2.486   4.688  0.1634  0.0798  0.2702
 1765ntf    on514320   3.752   2.459   4.482  0.1605 -0.0873  0.5200
 1765ntf    on514321   3.855   2.698   4.857  0.2427 -0.3583 -0.4281
 1765ntf    on514322   3.654   2.816   4.787  0.4697  0.9287 -0.4921
 1765ntf    fn414323   3.791   2.967   4.599 -0.7850  0.0431  0.4798
 1765ntf    fn414324   3.870   2.994   4.797 -0.4685  0.5714 -0.5701
 1765ntf    fn414325   3.978   2.874   4.651  0.0488 -0.3379 -0.0035
 1766ntf    cn114326   3.819   4.801   1.400 -0.1667  0.1764 -0.2113
 1766ntf    sn214327   3.857   4.971   1.450 -0.2748  0.0991  0.1340
 1766ntf    nn314328   4.014   4.965   1.441 -0.3021  0.0131 -0.2735
 1766ntf    sn214329   4.099   5.029   1.325  0.2166 -0.1401  0.0207
 1766ntf    cn114330   4.105   5.198   1.389 -0.1095 -0.3258  0.5520
 1766ntf    fn414331   3.855   4.788   1.273 -0.4441 -0.4069 -0.2364
 1766ntf    fn414332   3.884   4.711   1.472 -0.3314  0.2322  0.0060
 1766ntf    fn414333   3.689   4.786   1.415 -0.2036  0.3142 -0.3835
 1766ntf    on514334   3.774   5.061   1.373 -0.3291 -0.4296 -0.4297
 1766ntf    on514335   3.818   4.966   1.589 -0.1341  0.4748  0.1907
 1766ntf    on514336   4.039   5.034   1.194  0.7240  0.2797 -0.1962
 1766ntf    on514337   4.234   4.978   1.323  0.2444 -0.0489 -0.5877
 1766ntf    fn414338   4.158   5.278   1.297 -0.2342 -0.5293  0.3054
 1766ntf    fn414339   3.983   5.243   1.415 -0.2353 -0.3249 -0.0385
 1766ntf    fn414340   4.173   5.213   1.502  0.4392 -0.4540  0.2411
 1767ntf    cn114341   0.949   6.221   4.137 -0.1141 -0.2224 -0.3925
 1767ntf    sn214342   0.812   6.337   4.167  0.2472  0.0353  0.2872
 1767ntf    nn314343   0.710   6.284   4.060  0.2593  0.3528  0.1174
 1767ntf    sn214344   0.708   6.334   3.911  0.0459  0.0800  0.0254
 1767ntf    cn114345   0.608   6.486   3.924  0.1708  0.1793 -0.1744
 1767ntf    fn414346   1.048   6.223   4.225 -0.4047  0.0992 -0.0689
 1767ntf    fn414347   0.900   6.099   4.128 -0.2947 -0.1860  0.0901
 1767ntf    fn414348   1.016   6.249   4.026 -0.0924  0.6818 -0.1603
 1767ntf    on514349   0.772   6.304   4.302  0.3491  0.1973  0.3571
 1767ntf    on514350   0.869   6.468   4.147 -0.2877  0.2002 -0.1798
 1767ntf    on514351   0.622   6.250   3.832  0.2553 -0.0566 -0.0581
 1767ntf    on514352   0.834   6.375   3.855  0.2630 -0.2927  0.2337
 1767ntf    fn414353   0.654   6.572   4.013  0.1148  0.0173  0.0125
 1767ntf    fn414354   0.609   6.548   3.807 -0.0161 -0.3763 -0.4757
 1767ntf    fn414355   0.481   6.464   3.954  0.2688  0.3351  0.3515
 1768ntf    cn114356   6.584   1.111   3.610 -0.2484 -0.2514 -0.0794
 1768ntf    sn214357   6.468   1.244   3.567  0.2771  0.1694 -0.2028
 1768ntf    nn314358   6.561   1.370   3.567  0.6957 -0.1356  0.0513
 1768ntf    sn214359   6.674   1.404   3.463  0.2998 -0.2070 -0.4045
 1768ntf    cn114360   6.617   1.568   3.410  0.3520  0.0083  0.1940
 1768ntf    fn414361   6.657   1.059   3.512  0.0052 -0.0782  0.0160
 1768ntf    fn414362   6.668   1.140   3.709  0.0055  0.3737 -0.4746
 1768ntf    fn414363   6.515   1.008   3.657  0.1846 -0.2840  0.4923
 1768ntf    on514364   6.409   1.207   3.441 -0.2178 -0.2719  0.1516
 1768ntf    on514365   6.382   1.262   3.681  0.2323 -0.0434 -0.2028
 1768ntf    on514366   6.674   1.325   3.343  0.2813 -0.3945 -0.2807
 1768ntf    on514367   6.799   1.434   3.528 -0.0603 -0.0437  0.2227
 1768ntf    fn414368   6.682   1.606   3.301 -0.6156 -0.8511 -0.7068
 1768ntf    fn414369   6.487   1.573   3.386  0.3550  0.3515  0.2396
 1768ntf    fn414370   6.647   1.664   3.496 -0.1478  0.6513 -0.3291
 1769ntf    cn114371   4.124   4.955   6.055  0.0912  0.4142 -0.1603
 1769ntf    sn214372   4.251   5.016   5.940  0.1619 -0.2397 -0.4376
 1769ntf    nn314373   4.382   5.038   6.024 -0.0580  0.0390 -0.1588
 1769ntf    sn214374   4.529   4.986   6.001 -0.0901 -0.1499  0.0623
 1769ntf    cn114375   4.618   5.138   5.955  0.0171 -0.1732  0.1922
 1769ntf    fn414376   4.011   4.918   5.998  0.0967  0.0395  0.0630
 1769ntf    fn414377   4.161   4.844   6.117 -0.6472  0.3572  0.1842
 1769ntf    fn414378   4.098   5.044   6.149 -0.2757  0.4392 -0.2858
 1769ntf    on514379   4.248   4.912   5.840 -0.1314  0.1765 -0.8656
 1769ntf    on514380   4.201   5.146   5.901 -0.0256 -0.0963  0.2632
 1769ntf    on514381   4.557   4.903   5.886  0.2603 -0.0018  0.0395
 1769ntf    on514382   4.590   4.944   6.125  0.0338 -0.0288  0.0419
 1769ntf    fn414383   4.561   5.189   5.847  0.6036 -0.1677 -0.1144
 1769ntf    fn414384   4.620   5.235   6.046 -0.4510  0.1198 -0.1038
 1769ntf    fn414385   4.746   5.130   5.925  0.0070 -0.1097  0.1318
 1770ntf    cn114386   0.595   5.230   4.587  0.1072  0.0347  0.4975
 1770ntf    sn214387   0.449   5.307   4.511  0.2250 -0.2154  0.0126
 1770ntf    nn314388   0.434   5.444   4.587  0.0140 -0.0525 -0.3193
 1770ntf    sn214389   0.474   5.585   4.533  0.1329 -0.0621 -0.2577
 1770ntf    cn114390   0.455   5.675   4.690 -0.1527 -0.0596 -0.2922
 1770ntf    fn414391   0.709   5.288   4.554  0.0693 -0.1169  0.0936
 1770ntf    fn414392   0.591   5.231   4.720  1.1616 -0.3711  0.5434
 1770ntf    fn414393   0.598   5.104   4.549  0.2522  0.1155  0.2393
 1770ntf    on514394   0.487   5.316   4.373 -0.0288  0.9647  0.0136
 1770ntf    on514395   0.336   5.221   4.537  0.3582 -0.5447 -0.5002
 1770ntf    on514396   0.387   5.652   4.439 -0.4578 -0.4055  0.0365
 1770ntf    on514397   0.616   5.593   4.508  0.1309 -0.0416 -0.2628
 1770ntf    fn414398   0.541   5.630   4.780 -0.3562 -0.3346 -0.2352
 1770ntf    fn414399   0.468   5.807   4.686  0.2884 -0.0898  0.0364
 1770ntf    fn414400   0.337   5.653   4.745  0.2490 -0.9350  0.2243
 1771ntf    cn114401   4.889   6.355   4.889 -0.3657 -0.0963 -0.2986
 1771ntf    sn214402   4.839   6.231   5.012 -0.1737  0.1003 -0.0222
 1771ntf    nn314403   4.753   6.315   5.112  0.0653 -0.0136  0.2811
 1771ntf    sn214404   4.601   6.292   5.147  0.0487 -0.0251  0.2057
 1771ntf    cn114405   4.615   6.354   5.317 -0.1026 -0.0569  0.2289
 1771ntf    fn414406   4.787   6.418   4.832 -0.4642  0.3897  0.4104
 1771ntf    fn414407   4.985   6.438   4.927  0.0550 -0.5582 -0.3382
 1771ntf    fn414408   4.949   6.305   4.782  0.5855  0.0835  0.1430
 1771ntf    on514409   4.769   6.134   4.931  0.2766 -0.2983  0.0600
 1771ntf    on514410   4.965   6.181   5.063 -0.0014  0.0795 -0.4616
 1771ntf    on514411   4.563   6.155   5.172  0.4403 -0.2395 -0.3569
 1771ntf    on514412   4.506   6.383   5.090  0.0641 -0.1740 -0.0593
 1771ntf    fn414413   4.635   6.485   5.310 -0.4481  0.0056  0.3488
 1771ntf    fn414414   4.500   6.329   5.378 -0.0848 -0.5078  0.0778
 1771ntf    fn414415   4.711   6.291   5.383 -0.0640 -0.3488 -0.1076
 1772ntf    cn114416   6.406   6.258   5.862  0.2292  0.1213  0.1681
 1772ntf    sn214417   6.299   6.383   5.785  0.1061 -0.1232 -0.0568
 1772ntf    nn314418   6.402   6.492   5.739 -0.4232  0.2055 -0.4797
 1772ntf    sn214419   6.381   6.648   5.730 -0.0503  0.2646 -0.3632
 1772ntf    cn114420   6.459   6.685   5.570  0.0563  0.3926 -0.2816
 1772ntf    fn414421   6.475   6.186   5.774  0.0344  0.2914 -0.1240
 1772ntf    fn414422   6.484   6.302   5.960  0.6345 -0.1001 -0.0481
 1772ntf    fn414423   6.331   6.170   5.925  0.2877 -0.1802 -0.1823
 1772ntf    on514424   6.244   6.305   5.676  0.0802 -0.7157  0.3774
 1772ntf    on514425   6.216   6.424   5.895  0.3721  0.3615 -0.0323
 1772ntf    on514426   6.466   6.713   5.826 -0.7595  0.4552  0.1460
 1772ntf    on514427   6.245   6.693   5.716 -0.3104 -0.2943  0.2688
 1772ntf    fn414428   6.519   6.803   5.575  0.8593 -0.0128 -0.1478
 1772ntf    fn414429   6.561   6.606   5.542 -0.1562 -0.1151  0.3571
 1772ntf    fn414430   6.375   6.685   5.468  0.0313 -0.3429 -0.2696
 1773ntf    cn114431   3.690   5.826   2.748 -0.1896  0.2605  0.3193
 1773ntf    sn214432   3.741   5.695   2.862  0.1870  0.1834  0.0638
 1773ntf    nn314433   3.627   5.664   2.966  0.2299 -0.5330 -0.0967
 1773ntf    sn214434   3.517   5.552   2.978 -0.2155 -0.0689  0.1741
 1773ntf    cn114435   3.379   5.652   2.914  0.0031  0.1290  0.0098
 1773ntf    fn414436   3.783   5.837   2.654 -0.5583 -0.3189 -0.1205
 1773ntf    fn414437   3.574   5.805   2.687  0.2332  0.3776 -0.5409
 1773ntf    fn414438   3.686   5.944   2.809 -0.0446  0.5257 -0.1758
 1773ntf    on514439   3.767   5.584   2.773 -0.0479 -0.0451  0.2762
 1773ntf    on514440   3.859   5.750   2.923  0.1810  0.1679  0.0892
 1773ntf    on514441   3.473   5.528   3.113 -0.6820 -0.4742 -0.0499
 1773ntf    on514442   3.537   5.438   2.892 -0.1561 -0.3921  0.6102
 1773ntf    fn414443   3.362   5.763   2.984 -0.0505  0.1367 -0.0151
 1773ntf    fn414444   3.396   5.688   2.788  0.0655 -0.4158 -0.1386
 1773ntf    fn414445   3.268   5.583   2.931  0.0647  0.0241 -0.0132
 1774ntf    cn114446   0.180   0.443   1.467  0.1720 -0.1804  0.0362
 1774ntf    sn214447   0.032   0.398   1.372  0.0921  0.0279  0.0600
 1774ntf    nn314448  -0.085   0.469   1.448 -0.0693 -0.3346  0.1501
 1774ntf    sn214449  -0.200   0.557   1.389  0.1608 -0.2041 -0.1051
 1774ntf    cn114450  -0.273   0.447   1.265 -0.2120  0.0066 -0.0754
 1774ntf    fn414451   0.193   0.575   1.476 -0.1668 -0.1352 -0.1065
 1774ntf    fn414452   0.164   0.393   1.588 -0.2722 -0.7716 -0.2631
 1774ntf    fn414453   0.293   0.390   1.425  0.4159  0.1473  0.2711
 1774ntf    on514454   0.049   0.447   1.237  0.0795  0.8511  0.3523
 1774ntf    on514455   0.031   0.254   1.380  0.4330  0.0033 -0.3294
 1774ntf    on514456  -0.161   0.671   1.310  0.0075  0.1497  0.3246
 1774ntf    on514457  -0.305   0.574   1.487 -0.0856  0.3224 -0.4524
 1774ntf    fn414458  -0.384   0.505   1.220 -0.0259  0.5340  0.1469
 1774ntf    fn414459  -0.192   0.422   1.164 -0.2590  0.0172 -0.1161
 1774ntf    fn414460  -0.311   0.333   1.322 -0.0229 -0.0464 -0.0564
 1775ntf    cn114461   5.952   5.667   1.774  0.2060 -0.1701 -0.0592
 1775ntf    sn214462   5.974   5.755   1.932  0.1951 -0.1223 -0.0844
 1775ntf    nn314463   6.127   5.786   1.936  0.1304  0.1274  0.6374
 1775ntf    sn214464   6.209   5.920   1.941  0.3691  0.0174 -0.1180
 1775ntf    cn114465   6.299   5.894   2.097 -0.0264 -0.1818  0.0803
 1775ntf    fn414466   5.825   5.633   1.768  0.0904  0.1733  0.4039
 1775ntf    fn414467   5.983   5.744   1.671 -0.6655 -0.1606 -0.3152
 1775ntf    fn414468   6.023   5.556   1.762  0.4098 -0.0370 -0.1026
 1775ntf    on514469   5.878   5.863   1.928  0.2474 -0.0751 -0.0507
 1775ntf    on514470   5.945   5.653   2.030  0.1605  0.1708  0.2119
 1775ntf    on514471   6.124   6.036   1.951 -0.3323 -0.4604 -0.4435
 1775ntf    on514472   6.320   5.916   1.849  0.2097 -0.6961 -0.2813
 1775ntf    fn414473   6.350   5.773   2.114  0.9306  0.1571 -0.2925
 1775ntf    fn414474   6.400   5.979   2.111  0.1143 -0.3175 -0.0963
 1775ntf    fn414475   6.223   5.922   2.201  0.5792  0.0531  0.4676
 1776ntf    cn114476   0.391   3.622   0.972  0.1352 -0.3391  0.3713
 1776ntf    sn214477   0.503   3.483   1.007  0.4586 -0.1512  0.0831
 1776ntf    nn314478   0.444   3.386   0.898  0.3661 -0.4176  0.3678
 1776ntf    sn214479   0.524   3.319   0.780  0.1687  0.0204 -0.0204
 1776ntf    cn114480   0.423   3.168   0.769  0.2686 -0.0594  0.1473
 1776ntf    fn414481   0.438   3.732   1.029 -0.1641 -0.1114  0.1804
 1776ntf    fn414482   0.384   3.640   0.841  0.0081  0.2421  0.4560
 1776ntf    fn414483   0.270   3.597   1.020 -0.2021  0.1652 -0.1991
 1776ntf    on514484   0.629   3.541   0.967  0.2718 -0.1607 -0.5347
 1776ntf    on514485   0.485   3.452   1.146  0.4705  0.5549  0.2429
 1776ntf    on514486   0.655   3.270   0.813  0.3071  0.1349 -0.3936
 1776ntf    on514487   0.504   3.385   0.654  0.0286  0.4086  0.2020
 1776ntf    fn414488   0.294   3.188   0.749  0.3271  0.5000  0.3098
 1776ntf    fn414489   0.466   3.092   0.669  0.0682  0.2542 -0.1830
 1776ntf    fn414490   0.426   3.101   0.883 -0.0060  0.1861  0.2990
 1777ntf    cn114491   1.111   0.224   3.971  0.0481  0.0075 -0.1665
 1777ntf    sn214492   1.229   0.343   3.901 -0.1062  0.3388  0.1341
 1777ntf    nn314493   1.368   0.273   3.920  0.1109  0.5899 -0.5194
 1777ntf    sn214494   1.503   0.338   3.969  0.2298  0.0258 -0.0915
 1777ntf    cn114495   1.492   0.306   4.147  0.1842  0.1907 -0.0652
 1777ntf    fn414496   1.142   0.103   3.926  0.0797 -0.1572  0.2925
 1777ntf    fn414497   1.107   0.224   4.103 -0.7571  0.1081 -0.1812
 1777ntf    fn414498   0.987   0.249   3.929 -0.2258 -0.8134  0.1401
 1777ntf    on514499   1.196   0.351   3.761  0.1311 -0.3593  0.0356
 1777ntf    on514500   1.203   0.459   3.982  0.1585  0.1784  0.4511
 1777ntf    on514501   1.519   0.481   3.959  0.1637  0.0431  0.0495
 1777ntf    on514502   1.618   0.268   3.917  0.4036  0.1491  0.1307
 1777ntf    fn414503   1.497   0.177   4.175  0.0041  0.1796 -0.0861
 1777ntf    fn414504   1.585   0.369   4.218 -0.2891  0.3728  0.3963
 1777ntf    fn414505   1.371   0.342   4.188 -0.1931 -0.5984 -0.4791
 1778ntf    cn114506   5.092   4.523   2.786 -0.2663 -0.1113  0.1157
 1778ntf    sn214507   5.014   4.636   2.667  0.5960  0.5235  0.1475
 1778ntf    nn314508   5.096   4.768   2.687  0.1936  0.7171  0.5419
 1778ntf    sn214509   5.213   4.829   2.602  0.1897 -0.0372 -0.0026
 1778ntf    cn114510   5.323   4.878   2.738 -0.1285 -0.2873  0.3466
 1778ntf    fn414511   5.224   4.516   2.782 -0.2008  0.6955  0.5665
 1778ntf    fn414512   5.056   4.561   2.908  0.4051 -0.1373  0.3210
 1778ntf    fn414513   5.051   4.398   2.773 -0.0146 -0.2276  0.4174
 1778ntf    on514514   5.032   4.574   2.538  0.5914  0.4815  0.1672
 1778ntf    on514515   4.879   4.656   2.714  0.3833 -0.5076  0.0021
 1778ntf    on514516   5.176   4.951   2.535  0.0229 -0.2198 -0.2491
 1778ntf    on514517   5.297   4.741   2.523  0.6770  0.8859 -0.5347
 1778ntf    fn414518   5.274   4.985   2.799 -0.0624 -0.1094  0.0865
 1778ntf    fn414519   5.332   4.784   2.831  0.9346 -0.3231  0.2214
 1778ntf    fn414520   5.444   4.915   2.700 -0.3732 -0.1860 -0.3557
 1779ntf    cn114521   5.916   0.120   1.830  0.0700  0.3249  0.2778
 1779ntf    sn214522   6.033   0.013   1.919  0.1762  0.2424  0.0376
 1779ntf    nn314523   6.167   0.095   1.910  0.0301  0.4488 -0.2345
 1779ntf    sn214524   6.220   0.205   2.009  0.0876  0.1652  0.0473
 1779ntf    cn114525   6.341   0.098   2.094 -0.1069  0.0128  0.1340
 1779ntf    fn414526   5.797   0.066   1.848  0.1124  0.1680  0.0895
 1779ntf    fn414527   5.910   0.242   1.881  0.0861  0.2554  0.4496
 1779ntf    fn414528   5.941   0.144   1.703 -0.0799 -0.1565  0.1550
 1779ntf    on514529   5.986   0.000   2.054  0.1549  0.1831  0.0248
 1779ntf    on514530   6.041  -0.104   1.835  0.7074  0.6249 -0.4571
 1779ntf    on514531   6.134   0.250   2.115  0.1195 -0.1776  0.2188
 1779ntf    on514532   6.298   0.306   1.942 -0.3076  0.5075  0.1007
 1779ntf    fn414533   6.289  -0.008   2.154  0.0700  0.0560  0.3625
 1779ntf    fn414534   6.429   0.049   2.009 -0.4928  0.0072 -0.2637
 1779ntf    fn414535   6.404   0.170   2.186  0.2334 -0.3865  0.2105
 1780ntf    cn114536   5.243   3.521   5.192  0.2562  0.0343 -0.2450
 1780ntf    sn214537   5.220   3.393   5.319  0.1559  0.0054 -0.2933
 1780ntf    nn314538   5.368   3.341   5.323  0.1299  0.0012  0.5967
 1780ntf    sn214539   5.432   3.198   5.330 -0.1120 -0.1492 -0.2055
 1780ntf    cn114540   5.441   3.163   5.152 -0.0556 -0.4727 -0.1406
 1780ntf    fn414541   5.227   3.479   5.068 -0.1271 -0.0530 -0.1659
 1780ntf    fn414542   5.165   3.627   5.206  0.2467 -0.0639  0.5041
 1780ntf    fn414543   5.368   3.565   5.197  0.0885  0.5415 -0.4695
 1780ntf    on514544   5.180   3.469   5.434 -0.1645  0.0847 -0.4544
 1780ntf    on514545   5.115   3.311   5.263  0.1067  0.1863 -0.4689
 1780ntf    on514546   5.355   3.091   5.390 -0.0511  0.1028  0.3282
 1780ntf    on514547   5.574   3.203   5.356 -0.1332  0.1882 -0.1562
 1780ntf    fn414548   5.508   3.052   5.126  0.3873 -0.1444 -0.4094
 1780ntf    fn414549   5.320   3.147   5.102 -0.3406  0.1898  0.3259
 1780ntf    fn414550   5.504   3.261   5.089  0.3117 -0.3040  0.4836
 1781ntf    cn114551   2.763   3.426   2.594 -0.0529 -0.1943  0.0391
 1781ntf    sn214552   2.865   3.526   2.480 -0.2263 -0.1870 -0.1090
 1781ntf    nn314553   2.764   3.581   2.372 -0.2878  0.2181  0.1537
 1781ntf    sn214554   2.804   3.651   2.238  0.1726  0.0461  0.1953
 1781ntf    cn114555   2.794   3.518   2.115 -0.1711  0.0005  0.2716
 1781ntf    fn414556   2.679   3.350   2.527 -0.1679 -0.4221  0.4416
 1781ntf    fn414557   2.823   3.339   2.673  0.1912 -0.2401 -0.1937
 1781ntf    fn414558   2.689   3.502   2.673  0.2536  0.1089  0.0409
 1781ntf    on514559   2.913   3.629   2.568 -0.2069 -0.0762 -0.2507
 1781ntf    on514560   2.967   3.432   2.438  0.5891  0.5357  0.2356
 1781ntf    on514561   2.939   3.701   2.234  0.2180 -0.0947 -0.0055
 1781ntf    on514562   2.700   3.740   2.191  0.3551  0.3759  0.4134
 1781ntf    fn414563   2.800   3.554   1.988  0.4767  0.4723  0.4321
 1781ntf    fn414564   2.887   3.426   2.135 -0.1147  0.0487  0.2299
 1781ntf    fn414565   2.682   3.448   2.124 -0.0601 -0.2559 -0.2952
 1782ntf    cn114566   2.676   3.038   4.856 -0.3435 -0.1660  0.0332
 1782ntf    sn214567   2.656   2.923   4.717  0.5524 -0.1533 -0.1123
 1782ntf    nn314568   2.694   2.782   4.777  0.1150 -0.2195  0.0138
 1782ntf    sn214569   2.601   2.680   4.850 -0.1863  0.1518  0.1507
 1782ntf    cn114570   2.713   2.592   4.963  0.1150  0.0431 -0.2306
 1782ntf    fn414571   2.756   2.994   4.952 -0.2899 -0.5821 -0.1992
 1782ntf    fn414572   2.735   3.152   4.822 -0.6183 -0.0241  0.0312
 1782ntf    fn414573   2.558   3.068   4.907 -0.3871  0.0134 -0.1714
 1782ntf    on514574   2.516   2.941   4.692  0.6328  0.6389 -0.0135
 1782ntf    on514575   2.748   2.974   4.619  0.7548  0.2853  0.3015
 1782ntf    on514576   2.558   2.579   4.757  0.5867 -0.0287 -0.0147
 1782ntf    on514577   2.503   2.737   4.940 -0.2368  0.5506 -0.1557
 1782ntf    fn414578   2.804   2.523   4.897 -0.6425 -0.4849 -0.7430
 1782ntf    fn414579   2.776   2.681   5.038 -0.1504 -0.2769  0.3798
 1782ntf    fn414580   2.656   2.514   5.054 -0.4820  0.8335  0.0840
 1783ntf    cn114581   4.711   2.601   1.915  0.1589  0.1907  0.2899
 1783ntf    sn214582   4.792   2.472   1.816  0.0086  0.1846  0.1751
 1783ntf    nn314583   4.740   2.341   1.887  0.0946  0.1153  0.1108
 1783ntf    sn214584   4.797   2.263   2.011  0.3471 -0.1015 -0.1410
 1783ntf    cn114585   4.832   2.100   1.939  0.3109 -0.0299 -0.3223
 1783ntf    fn414586   4.759   2.591   2.038  0.2151  0.1448  0.2641
 1783ntf    fn414587   4.737   2.724   1.872  0.2447  0.2552  0.5230
 1783ntf    fn414588   4.580   2.590   1.918  0.1580  0.3171  0.9537
 1783ntf    on514589   4.742   2.484   1.682 -0.1505 -0.1272  0.2056
 1783ntf    on514590   4.934   2.483   1.836  0.0513  0.1697 -0.1237
 1783ntf    on514591   4.690   2.230   2.101  0.0664  0.4283 -0.2735
 1783ntf    on514592   4.919   2.313   2.070 -0.2686  0.6120  0.5525
 1783ntf    fn414593   4.885   2.014   2.025 -0.3976 -0.0425  0.1106
 1783ntf    fn414594   4.723   2.036   1.898  0.0761  0.3104 -0.2309
 1783ntf    fn414595   4.916   2.097   1.837  0.2052 -0.2634 -0.4047
 1784ntf    cn114596   1.209   1.104   3.798  0.0091  0.1509 -0.1108
 1784ntf    sn214597   1.204   1.286   3.808 -0.2190  0.1182  0.3934
 1784ntf    nn314598   1.330   1.304   3.900  0.3012 -0.4715 -0.1904
 1784ntf    sn214599   1.476   1.356   3.874  0.1628  0.2423  0.4287
 1784ntf    cn114600   1.504   1.457   4.022  0.3580  0.3133  0.3438
 1784ntf    fn414601   1.209   1.048   3.917 -0.2578  0.1633 -0.1052
 1784ntf    fn414602   1.106   1.049   3.735  0.0094  0.1083 -0.0740
 1784ntf    fn414603   1.323   1.065   3.742  0.1190  0.6378 -0.2378
 1784ntf    on514604   1.207   1.327   3.670  0.1595 -0.9187  0.0814
 1784ntf    on514605   1.080   1.301   3.879 -0.6368 -0.2316 -0.2549
 1784ntf    on514606   1.481   1.455   3.769 -0.0556  0.0143  0.2029
 1784ntf    on514607   1.564   1.242   3.874 -0.1958 -0.0365  0.1577
 1784ntf    fn414608   1.473   1.387   4.130  0.1051 -0.2446 -0.0850
 1784ntf    fn414609   1.631   1.495   4.030  0.4491  0.0294  0.2512
 1784ntf    fn414610   1.425   1.563   4.024  0.1675  0.1811 -0.1521
 1785ntf    cn114611   2.855   5.009   6.249  0.3787 -0.1626 -0.2427
 1785ntf    sn214612   2.794   4.888   6.126 -0.1502 -0.1747  0.0304
 1785ntf    nn314613   2.930   4.844   6.062 -0.3947 -0.4556 -0.2926
 1785ntf    sn214614   2.992   4.702   6.036 -0.1643 -0.3931 -0.0930
 1785ntf    cn114615   2.901   4.657   5.885 -0.2006 -0.0575 -0.1729
 1785ntf    fn414616   2.902   5.119   6.192 -0.6680  0.3488 -0.1316
 1785ntf    fn414617   2.761   5.049   6.333  0.4571 -0.0975 -0.1857
 1785ntf    fn414618   2.945   4.956   6.330 -0.3054 -0.2655  0.4516
 1785ntf    on514619   2.724   4.789   6.204  0.1486 -0.6174 -0.2596
 1785ntf    on514620   2.720   4.977   6.040 -0.4412 -0.3607  0.0878
 1785ntf    on514621   2.960   4.604   6.137  0.5451 -0.6938 -0.1559
 1785ntf    on514622   3.129   4.711   5.994 -0.4481  0.5196 -0.8470
 1785ntf    fn414623   2.933   4.535   5.844  0.0388 -0.3443  0.8201
 1785ntf    fn414624   2.770   4.656   5.906 -0.1363 -0.3431  0.2335
 1785ntf    fn414625   2.929   4.739   5.786  0.1069 -0.1130 -0.1321
 1786ntf    cn114626   3.724   0.479   1.194 -0.1887 -0.0955 -0.0439
 1786ntf    sn214627   3.737   0.486   1.376  0.1587  0.0953 -0.0766
 1786ntf    nn314628   3.637   0.375   1.422  0.0321  0.3123  0.1715
 1786ntf    sn214629   3.671   0.240   1.496  0.0015  0.1879 -0.0389
 1786ntf    cn114630   3.538   0.130   1.440  0.1282 -0.0780  0.1784
 1786ntf    fn414631   3.800   0.574   1.143 -0.1419 -0.1998 -0.1684
 1786ntf    fn414632   3.774   0.366   1.146  0.2326  0.1501 -0.1850
 1786ntf    fn414633   3.600   0.497   1.153 -0.2963 -0.2031  0.2319
 1786ntf    on514634   3.872   0.456   1.417  0.1249  0.0083 -0.0289
 1786ntf    on514635   3.691   0.619   1.405  0.3559  0.0445  0.4819
 1786ntf    on514636   3.648   0.247   1.638 -0.8601  0.1314 -0.1728
 1786ntf    on514637   3.786   0.166   1.450  0.2809  0.3140  0.4422
 1786ntf    fn414638   3.555   0.105   1.311  0.3490  0.1943  0.1544
 1786ntf    fn414639   3.519   0.020   1.510  0.0152 -0.0905  0.1276
 1786ntf    fn414640   3.425   0.197   1.455  0.0408 -0.1317 -0.2198
 1787ntf    cn114641   0.937   6.089   0.138 -0.1516 -0.4020  0.2788
 1787ntf    sn214642   1.110   6.094   0.193 -0.0617  0.1449 -0.0460
 1787ntf    nn314643   1.094   6.172   0.328 -0.2079 -0.0632  0.0583
 1787ntf    sn214644   1.053   6.115   0.468 -0.3603  0.0936  0.0781
 1787ntf    cn114645   0.929   6.238   0.516 -0.1823  0.1659  0.3568
 1787ntf    fn414646   0.923   6.134   0.015 -0.5606  0.2229  0.5475
 1787ntf    fn414647   0.888   5.966   0.144  0.4416 -0.6548  0.0675
 1787ntf    fn414648   0.860   6.169   0.210  0.1388  0.2126 -0.0870
 1787ntf    on514649   1.147   5.955   0.201 -0.1943  0.1071 -0.0943
 1787ntf    on514650   1.176   6.179   0.097 -0.0151 -0.1639 -0.2899
 1787ntf    on514651   1.156   6.124   0.569 -0.0423  0.3867 -0.2707
 1787ntf    on514652   0.973   5.995   0.464  0.1854 -0.2704 -0.0272
 1787ntf    fn414653   0.962   6.366   0.528 -0.3112  0.2049  0.2996
 1787ntf    fn414654   0.817   6.229   0.445  0.2335  0.2393 -0.3155
 1787ntf    fn414655   0.882   6.202   0.635 -0.0235 -0.4641  0.2292
 1788ntf    cn114656   0.015   0.031   5.256  0.2579  0.2125 -0.1384
 1788ntf    sn214657   0.166  -0.059   5.206  0.1417 -0.0468 -0.0219
 1788ntf    nn314658   0.175  -0.029   5.052 -0.3360  0.4567  0.0431
 1788ntf    sn214659   0.225   0.100   4.977  0.2928 -0.0038 -0.3393
 1788ntf    cn114660   0.089   0.117   4.857  0.4007 -0.3475 -0.5126
 1788ntf    fn414661  -0.099  -0.021   5.214  0.2676 -0.1395  0.2627
 1788ntf    fn414662   0.005   0.040   5.387 -0.1752 -0.2332 -0.1360
 1788ntf    fn414663   0.032   0.153   5.209  0.0075  0.1569 -0.3746
 1788ntf    on514664   0.271  -0.003   5.287 -0.0734 -0.2484  0.3992
 1788ntf    on514665   0.134  -0.197   5.231  0.0170  0.0079  0.1291
 1788ntf    on514666   0.343   0.069   4.901  0.1466 -0.3578 -0.4266
 1788ntf    on514667   0.221   0.223   5.052 -0.6323 -0.6327  0.6824
 1788ntf    fn414668   0.087   0.021   4.767 -0.1008 -0.2295 -0.6295
 1788ntf    fn414669  -0.028   0.117   4.918  0.5279  0.2335 -0.2561
 1788ntf    fn414670   0.089   0.234   4.795 -0.4245  0.1362  0.3777
 1789ntf    cn114671   1.635   3.313   2.728 -0.0337 -0.3919  0.0454
 1789ntf    sn214672   1.568   3.242   2.881 -0.0683 -0.2229  0.1095
 1789ntf    nn314673   1.507   3.368   2.952  0.5983 -0.0990  0.4673
 1789ntf    sn214674   1.510   3.400   3.106  0.0467 -0.1679  0.4957
 1789ntf    cn114675   1.341   3.467   3.119  0.1877  0.2988 -0.0319
 1789ntf    fn414676   1.661   3.220   2.638 -0.4533 -0.0704 -0.4113
 1789ntf    fn414677   1.553   3.398   2.669  0.3683  0.0001  0.0448
 1789ntf    fn414678   1.744   3.384   2.753 -0.1635 -0.1124 -0.1715
 1789ntf    on514679   1.476   3.138   2.841 -0.0634  0.0690 -0.6835
 1789ntf    on514680   1.698   3.202   2.929 -0.2565 -0.8312  0.1198
 1789ntf    on514681   1.593   3.512   3.142 -0.6638  0.6417 -0.3316
 1789ntf    on514682   1.500   3.284   3.191 -0.1576 -0.3579  0.2134
 1789ntf    fn414683   1.246   3.390   3.069  0.3391  0.2472 -0.2414
 1789ntf    fn414684   1.305   3.484   3.245  0.0263 -0.5413  0.0412
 1789ntf    fn414685   1.317   3.585   3.064 -0.1692  0.1234 -0.2526
 1790ntf    cn114686   5.761   2.077   4.098 -0.0176  0.1272  0.0985
 1790ntf    sn214687   5.909   2.179   4.126  0.2842 -0.3126  0.1220
 1790ntf    nn314688   5.983   2.171   3.987 -0.2502 -0.0576 -0.1805
 1790ntf    sn214689   6.103   2.079   3.946  0.0774  0.1907  0.2154
 1790ntf    cn114690   6.247   2.182   3.987  0.4851 -0.1380 -0.3700
 1790ntf    fn414691   5.688   2.066   4.208 -0.1557 -0.4860 -0.0539
 1790ntf    fn414692   5.688   2.137   4.006 -0.3798 -0.4008  0.0366
 1790ntf    fn414693   5.779   1.950   4.064 -0.5309 -0.0246  0.3844
 1790ntf    on514694   5.852   2.311   4.143  0.2945 -0.2493 -0.3105
 1790ntf    on514695   5.982   2.123   4.236  0.0678 -0.3053  0.2694
 1790ntf    on514696   6.109   2.050   3.805  0.1326  0.0593  0.2441
 1790ntf    on514697   6.116   1.955   4.020 -0.3700  0.1126  0.1645
 1790ntf    fn414698   6.357   2.125   3.940  0.4874  0.1748 -0.7456
 1790ntf    fn414699   6.235   2.304   3.939  0.3313  0.0408  0.1138
 1790ntf    fn414700   6.257   2.195   4.118  0.3002  0.2797 -0.3968
 1791ntf    cn114701   6.365   4.437   2.102  0.0593  0.1623  0.2190
 1791ntf    sn214702   6.488   4.323   2.030 -0.0861  0.1629 -0.0323
 1791ntf    nn314703   6.544   4.251   2.158  0.4890 -0.1197 -0.4393
 1791ntf    sn214704   6.480   4.125   2.227  0.0321  0.3323 -0.0259
 1791ntf    cn114705   6.571   3.994   2.139  0.1551  0.2183  0.2698
 1791ntf    fn414706   6.310   4.512   2.008 -0.0190 -0.2267 -0.0463
 1791ntf    fn414707   6.268   4.366   2.158  0.2222 -0.4445 -0.2571
 1791ntf    fn414708   6.412   4.516   2.197  0.4171 -0.1818  0.3285
 1791ntf    on514709   6.416   4.252   1.927  0.2129 -0.5981  0.2782
 1791ntf    on514710   6.587   4.417   1.983  0.0164 -0.2707 -0.6839
 1791ntf    on514711   6.346   4.083   2.196  0.1710 -0.2698  0.1753
 1791ntf    on514712   6.530   4.117   2.362  0.9519 -0.0205 -0.3815
 1791ntf    fn414713   6.697   4.016   2.174  0.3365 -0.6738  0.1843
 1791ntf    fn414714   6.535   3.873   2.177  0.0066  0.1986  0.0649
 1791ntf    fn414715   6.557   3.999   2.007 -0.5414  0.1645  0.3382
 1792ntf    cn114716   2.403   2.398   0.391 -0.1226 -0.1939  0.1301
 1792ntf    sn214717   2.426   2.320   0.553 -0.2094  0.2898  0.3779
 1792ntf    nn314718   2.327   2.199   0.545  0.0621  0.0926 -0.0309
 1792ntf    sn214719   2.170   2.198   0.553  0.0556 -0.1526 -0.1694
 1792ntf    cn114720   2.132   2.090   0.412 -0.0478 -0.0613 -0.2115
 1792ntf    fn414721   2.306   2.346   0.317  0.0083  0.0671 -0.2248
 1792ntf    fn414722   2.371   2.526   0.401 -0.0375 -0.1657  0.0417
 1792ntf    fn414723   2.513   2.399   0.317 -0.2352  0.7679 -0.0460
 1792ntf    on514724   2.566   2.285   0.544 -0.2967 -0.1230  0.5611
 1792ntf    on514725   2.393   2.419   0.652 -0.1967  0.5075  0.1643
 1792ntf    on514726   2.106   2.324   0.523  0.7206  0.1624 -0.2846
 1792ntf    on514727   2.115   2.111   0.654 -0.2664 -0.3729 -0.5318
 1792ntf    fn414728   2.181   1.968   0.426  0.1748  0.0805  0.2815
 1792ntf    fn414729   2.004   2.073   0.384 -0.1464  0.0114  0.1851
 1792ntf    fn414730   2.185   2.141   0.302  0.4513  0.1090  0.1083
 1793ntf    cn114731   5.168   1.978   4.462 -0.1320 -0.1988  0.0443
 1793ntf    sn214732   5.277   1.832   4.458  0.0018 -0.1007  0.1378
 1793ntf    nn314733   5.176   1.716   4.493 -0.0939 -0.0277  0.1020
 1793ntf    sn214734   5.071   1.659   4.392 -0.2215  0.3477  0.0180
 1793ntf    cn114735   4.922   1.623   4.488 -0.0441  0.2779  0.2689
 1793ntf    fn414736   5.087   1.975   4.567  0.1283 -0.3000  0.2422
 1793ntf    fn414737   5.229   2.093   4.479  0.3201 -0.4554  0.1728
 1793ntf    fn414738   5.094   2.000   4.354  0.4468  0.3542 -0.2416
 1793ntf    on514739   5.343   1.830   4.330  0.0754  0.5274  0.1643
 1793ntf    on514740   5.363   1.851   4.572  0.1285  0.3225 -0.0286
 1793ntf    on514741   5.099   1.523   4.351 -0.0152  0.4049 -0.0375
 1793ntf    on514742   5.026   1.747   4.287  0.4085  0.6150 -0.0309
 1793ntf    fn414743   4.878   1.724   4.561  0.5916  0.6933  0.0760
 1793ntf    fn414744   4.818   1.587   4.414  0.1948  0.5040 -0.1832
 1793ntf    fn414745   4.943   1.524   4.574 -0.8529  0.0174  0.1784
 1794ntf    cn114746   2.084   0.623   5.619  0.4380  0.0247  0.2771
 1794ntf    sn214747   2.126   0.504   5.488  0.0931  0.2454 -0.0352
 1794ntf    nn314748   2.037   0.550   5.367 -0.0585  0.0299 -0.0058
 1794ntf    sn214749   2.074   0.673   5.276  0.1197 -0.0919 -0.0975
 1794ntf    cn114750   2.138   0.587   5.129  0.1451  0.1604 -0.2329
 1794ntf    fn414751   1.965   0.598   5.670  0.1857  0.2155 -0.2102
 1794ntf    fn414752   2.165   0.612   5.723  0.0419 -0.3288  0.5538
 1794ntf    fn414753   2.086   0.747   5.575 -0.0713 -0.1035 -0.1150
 1794ntf    on514754   2.271   0.506   5.490  0.1055 -0.6432  0.1994
 1794ntf    on514755   2.068   0.385   5.545 -0.2728  0.2536 -0.3855
 1794ntf    on514756   2.190   0.752   5.310  0.2837 -0.2724 -0.2338
 1794ntf    on514757   1.955   0.738   5.230  0.4258  0.4054 -0.1898
 1794ntf    fn414758   2.068   0.483   5.087 -0.0103  0.3012 -0.3254
 1794ntf    fn414759   2.136   0.670   5.025  0.0144 -0.0145 -0.3704
 1794ntf    fn414760   2.263   0.547   5.142  0.1355  0.1292 -0.2361
 1795ntf    cn114761   0.027   2.228   5.083  0.1354 -0.2716  0.1293
 1795ntf    sn214762   0.002   2.113   5.222 -0.1464 -0.1185  0.2069
 1795ntf    nn314763  -0.042   2.196   5.348  0.2401 -0.6305  0.6809
 1795ntf    sn214764   0.048   2.286   5.439  0.2903  0.2865 -0.2569
 1795ntf    cn114765  -0.059   2.430   5.470  0.0014  0.0805 -0.3020
 1795ntf    fn414766   0.132   2.306   5.101 -0.4058  0.4120  0.3635
 1795ntf    fn414767   0.042   2.160   4.971  0.6206 -0.9190  0.5807
 1795ntf    fn414768  -0.078   2.308   5.077 -0.1065 -0.6316 -0.5300
 1795ntf    on514769  -0.112   2.031   5.189 -0.0634 -0.1662  0.0356
 1795ntf    on514770   0.121   2.035   5.240  0.1313  0.2621  0.0433
 1795ntf    on514771   0.157   2.348   5.367  0.0523  1.1042  0.0676
 1795ntf    on514772   0.075   2.240   5.573 -0.4634 -0.0755 -0.2263
 1795ntf    fn414773  -0.177   2.399   5.522 -0.0106 -0.2673 -0.5288
 1795ntf    fn414774  -0.014   2.522   5.554  0.4169 -0.9364  0.6166
 1795ntf    fn414775  -0.082   2.494   5.357 -0.1606  0.0272 -0.2995
 1796ntf    cn114776   2.110   6.378   4.058  0.0401  0.1715 -0.1595
 1796ntf    sn214777   2.291   6.390   4.063  0.0326  0.1893  0.0765
 1796ntf    nn314778   2.325   6.240   4.091  0.0436  0.1933  0.0860
 1796ntf    sn214779   2.307   6.116   3.996 -0.0108  0.1359  0.1705
 1796ntf    cn114780   2.477   6.084   3.940 -0.1532 -0.1354 -0.1112
 1796ntf    fn414781   2.065   6.302   4.156 -0.3634  0.0103 -0.4653
 1796ntf    fn414782   2.049   6.495   4.066 -0.4868 -0.1320  0.3312
 1796ntf    fn414783   2.071   6.331   3.940  0.2556 -0.0246 -0.1538
 1796ntf    on514784   2.337   6.438   3.935  0.3054 -0.0871  0.0692
 1796ntf    on514785   2.314   6.475   4.178 -0.5701  0.1911  0.1976
 1796ntf    on514786   2.235   6.133   3.872 -0.1854  0.3142  0.2950
 1796ntf    on514787   2.270   6.001   4.075  0.3031 -0.1673 -0.1236
 1796ntf    fn414788   2.494   5.965   3.885  0.3760  0.0057 -0.2550
 1796ntf    fn414789   2.524   6.176   3.857  0.1260 -0.3783 -0.2259
 1796ntf    fn414790   2.559   6.084   4.044 -0.2155  0.0689 -0.0607
 1797ntf    cn114791   2.369   4.867   3.518 -0.2086 -0.5325  0.2109
 1797ntf    sn214792   2.347   4.740   3.390 -0.0058 -0.0815 -0.2783
 1797ntf    nn314793   2.269   4.805   3.271  0.0910  0.7761  0.1255
 1797ntf    sn214794   2.301   4.825   3.119 -0.2149 -0.1873 -0.0690
 1797ntf    cn114795   2.356   4.998   3.121  0.0357 -0.2655 -0.0781
 1797ntf    fn414796   2.247   4.895   3.561 -0.2428  0.1556 -0.3082
 1797ntf    fn414797   2.443   4.843   3.624  0.5743  0.1650 -0.1664
 1797ntf    fn414798   2.409   4.985   3.474 -0.4186 -0.2471  0.7779
 1797ntf    on514799   2.485   4.707   3.362  0.0545  0.4167 -0.5801
 1797ntf    on514800   2.271   4.632   3.449  0.4180 -0.1751  0.1071
 1797ntf    on514801   2.179   4.826   3.042 -0.0840  0.5960 -0.2804
 1797ntf    on514802   2.411   4.749   3.065 -0.2363 -0.3219  0.0784
 1797ntf    fn414803   2.268   5.079   3.178  0.3071 -0.2916  0.3833
 1797ntf    fn414804   2.473   5.013   3.180  0.3055 -0.6282 -0.5125
 1797ntf    fn414805   2.369   5.047   2.998  0.2177  0.1295  0.0985
 1798ntf    cn114806   4.548   3.937   2.401  0.0386 -0.0134 -0.2993
 1798ntf    sn214807   4.472   4.014   2.546  0.3704  0.0369 -0.1511
 1798ntf    nn314808   4.571   3.973   2.660  0.8961 -0.1946 -0.6859
 1798ntf    sn214809   4.604   3.825   2.701  0.0794 -0.1170  0.2943
 1798ntf    cn114810   4.647   3.861   2.874  0.2748  0.1276  0.1959
 1798ntf    fn414811   4.548   3.805   2.415 -0.1582  0.0131 -0.0530
 1798ntf    fn414812   4.481   3.963   2.290 -0.3431  0.0498 -0.0537
 1798ntf    fn414813   4.675   3.970   2.387  0.1471 -0.4593 -0.4106
 1798ntf    on514814   4.482   4.156   2.520 -0.8031  0.1053 -0.2895
 1798ntf    on514815   4.338   3.960   2.547  0.1200  0.6474 -0.2858
 1798ntf    on514816   4.731   3.781   2.650 -0.0967 -0.9369  0.5567
 1798ntf    on514817   4.496   3.732   2.721  0.1565 -0.1684  0.4727
 1798ntf    fn414818   4.735   3.956   2.900  0.1517  0.4638 -0.6007
 1798ntf    fn414819   4.541   3.880   2.950  0.3656  0.1848  0.3087
 1798ntf    fn414820   4.703   3.752   2.925  0.2717 -0.0218 -0.1176
 1799ntf    cn114821   2.977   2.544   5.446 -0.2412 -0.2095 -0.2742
 1799ntf    sn214822   2.942   2.367   5.471 -0.0946 -0.1330  0.4802
 1799ntf    nn314823   3.036   2.346   5.596  0.1134 -0.6911  0.2334
 1799ntf    sn214824   3.010   2.350   5.751 -0.4687  0.2089  0.1215
 1799ntf    cn114825   3.023   2.172   5.787  0.4641  0.2478  0.0109
 1799ntf    fn414826   2.957   2.591   5.324  0.1232  0.2458 -0.1600
 1799ntf    fn414827   2.893   2.613   5.522  0.0973 -0.0813 -0.0141
 1799ntf    fn414828   3.101   2.583   5.470 -0.0558 -0.7235 -0.3774
 1799ntf    on514829   2.800   2.354   5.488 -0.1655 -0.0363 -0.0283
 1799ntf    on514830   3.007   2.320   5.351 -0.6956 -0.5348  0.3106
 1799ntf    on514831   2.876   2.380   5.794 -0.7264 -0.6283 -0.0776
 1799ntf    on514832   3.122   2.414   5.815  0.0636 -0.4097 -0.1745
 1799ntf    fn414833   2.924   2.102   5.733  0.1017  0.4845  0.3563
 1799ntf    fn414834   3.133   2.120   5.735  0.0207 -0.6391 -0.0538
 1799ntf    fn414835   3.034   2.141   5.915  0.4440  0.1048 -0.0214
 1800ntf    cn114836   3.404   5.235   3.776  0.2443 -0.1108  0.2439
 1800ntf    sn214837   3.275   5.212   3.650  0.3613  0.1731  0.0734
 1800ntf    nn314838   3.317   5.081   3.574  0.4998  0.2312  0.0490
 1800ntf    sn214839   3.224   4.971   3.513  0.2621  0.3412  0.2130
 1800ntf    cn114840   3.264   4.828   3.619 -0.3847 -0.1394 -0.1796
 1800ntf    fn414841   3.514   5.285   3.724 -0.0301  0.4530  0.1989
 1800ntf    fn414842   3.362   5.323   3.866  0.2106  0.1087  0.0144
 1800ntf    fn414843   3.432   5.126   3.845  0.4955 -0.0254  0.2747
 1800ntf    on514844   3.155   5.202   3.728  0.3212  0.1741  0.0121
 1800ntf    on514845   3.298   5.327   3.565  0.1514 -0.0495 -0.2873
 1800ntf    on514846   3.264   4.939   3.378 -0.1773  0.0898  0.1389
 1800ntf    on514847   3.082   4.978   3.537  0.2353  0.0930  0.1366
 1800ntf    fn414848   3.243   4.858   3.746 -0.1189 -0.1335 -0.1364
 1800ntf    fn414849   3.180   4.730   3.590 -0.2688 -0.2321 -0.1985
 1800ntf    fn414850   3.384   4.774   3.602 -0.2224  0.1569  0.0197
 1801ntf    cn114851   5.582   5.790   5.332 -0.6079  0.0529  0.1291
 1801ntf    sn214852   5.656   5.828   5.170 -0.0939 -0.0907  0.3286
 1801ntf    nn314853   5.539   5.820   5.065  0.0347  0.2282  0.1615
 1801ntf    sn214854   5.496   5.694   4.983 -0.2022  0.3033  0.1702
 1801ntf    cn114855   5.356   5.757   4.886 -0.1699 -0.4595 -0.3842
 1801ntf    fn414856   5.546   5.663   5.328 -0.1176 -0.0841 -0.0102
 1801ntf    fn414857   5.669   5.791   5.431 -0.1050  0.4705 -0.3068
 1801ntf    fn414858   5.481   5.866   5.370 -0.1201  0.5358  0.4828
 1801ntf    on514859   5.704   5.962   5.189 -0.7009  0.1778  0.0002
 1801ntf    on514860   5.753   5.723   5.149 -0.1581 -0.0821 -0.0128
 1801ntf    on514861   5.434   5.584   5.053  0.4200  0.2497  0.6492
 1801ntf    on514862   5.594   5.662   4.882  0.0653  0.4041  0.3980
 1801ntf    fn414863   5.299   5.669   4.806 -0.0566 -0.5977 -0.3116
 1801ntf    fn414864   5.259   5.791   4.969  0.2075 -0.0583 -0.1061
 1801ntf    fn414865   5.387   5.861   4.810 -0.1594 -0.3101 -0.1742
 1802ntf    cn114866   4.479   3.650   0.669  0.0005  0.0060  0.2112
 1802ntf    sn214867   4.432   3.475   0.650 -0.1252 -0.0017  0.5786
 1802ntf    nn314868   4.573   3.409   0.634 -0.0758  0.2137  0.0977
 1802ntf    sn214869   4.651   3.358   0.508  0.0510  0.1766  0.1905
 1802ntf    cn114870   4.823   3.413   0.529 -0.0036  0.4731 -0.1234
 1802ntf    fn414871   4.521   3.684   0.790 -0.4302 -0.0825  0.3892
 1802ntf    fn414872   4.564   3.694   0.578 -0.2583  0.4733  0.1912
 1802ntf    fn414873   4.372   3.726   0.653 -0.3429 -0.5412 -0.1204
 1802ntf    on514874   4.366   3.436   0.772  0.1643 -1.0034  0.4202
 1802ntf    on514875   4.345   3.482   0.535 -0.2237  0.5774  0.6850
 1802ntf    on514876   4.619   3.420   0.382 -0.1234  0.4721  0.3805
 1802ntf    on514877   4.656   3.213   0.504  0.3920  0.1907  0.0866
 1802ntf    fn414878   4.856   3.537   0.496  1.0363  0.1695 -0.2583
 1802ntf    fn414879   4.867   3.399   0.653  0.1562 -0.2207 -0.2523
 1802ntf    fn414880   4.908   3.345   0.454 -0.2968 -0.1064  0.0560
 1803ntf    cn114881   0.180   0.733   2.987  0.0019 -0.1119  0.1333
 1803ntf    sn214882   0.079   0.609   3.072 -0.1445 -0.3201 -0.3398
 1803ntf    nn314883   0.187   0.531   3.155 -0.6332  0.4452  1.0585
 1803ntf    sn214884   0.163   0.406   3.247  0.0708 -0.5341 -0.0591
 1803ntf    cn114885   0.197   0.267   3.134  0.1889 -0.2278 -0.4026
 1803ntf    fn414886   0.275   0.679   2.911 -0.1092  0.1725 -0.2115
 1803ntf    fn414887   0.108   0.810   2.907  0.0945  0.1237  0.2734
 1803ntf    fn414888   0.234   0.817   3.074 -0.1085 -0.1472  0.2343
 1803ntf    on514889  -0.011   0.694   3.146  0.4017 -0.1121  0.0941
 1803ntf    on514890   0.017   0.532   2.967  0.0217 -0.2577 -0.4828
 1803ntf    on514891   0.029   0.387   3.295 -0.0558  0.1032 -0.1559
 1803ntf    on514892   0.271   0.391   3.342  0.1879  0.5293 -0.0109
 1803ntf    fn414893   0.166   0.156   3.199 -0.3937  0.1728  0.0131
 1803ntf    fn414894   0.133   0.272   3.019  0.1556 -0.1590 -0.3813
 1803ntf    fn414895   0.326   0.266   3.102  0.3369 -0.4473  0.1719
 1804ntf    cn114896   3.867   5.446   3.722  0.0490 -0.0075 -0.1557
 1804ntf    sn214897   3.904   5.620   3.683 -0.0615  0.0393 -0.0562
 1804ntf    nn314898   3.945   5.674   3.824  0.4897 -0.1530 -0.1403
 1804ntf    sn214899   4.091   5.682   3.882  0.4511  0.3631 -0.1124
 1804ntf    cn114900   4.149   5.843   3.820  0.2677  0.5178  0.1133
 1804ntf    fn414901   3.759   5.427   3.797  0.1525  0.1032  0.0213
 1804ntf    fn414902   3.843   5.375   3.614  0.1646  0.2460 -0.3477
 1804ntf    fn414903   3.965   5.386   3.787  0.0477  0.3140  0.1477
 1804ntf    on514904   4.011   5.612   3.587 -0.0113  0.3204 -0.0229
 1804ntf    on514905   3.781   5.676   3.631 -0.3544 -0.6437 -0.1104
 1804ntf    on514906   4.182   5.582   3.832 -0.0196 -0.0819 -0.0919
 1804ntf    on514907   4.084   5.700   4.025 -0.2242 -0.4765 -0.0327
 1804ntf    fn414908   4.072   5.942   3.862 -0.6330  0.1189 -0.5459
 1804ntf    fn414909   4.274   5.873   3.848  0.3874  0.1567 -0.0280
 1804ntf    fn414910   4.128   5.858   3.690  0.4543  0.3465  0.0637
 1805ntf    cn114911   3.734   4.565   2.943 -0.1483  0.0892  0.1544
 1805ntf    sn214912   3.850   4.446   2.869 -0.2028  0.1877 -0.0900
 1805ntf    nn314913   3.957   4.541   2.805  0.2602 -0.2350  0.0503
 1805ntf    sn214914   4.112   4.528   2.787  0.2805 -0.1167  0.1311
 1805ntf    cn114915   4.167   4.699   2.813  0.1296 -0.0193 -0.1861
 1805ntf    fn414916   3.676   4.649   2.859 -0.5770 -0.2713  0.0911
 1805ntf    fn414917   3.636   4.512   3.013 -0.1495 -0.3890 -0.2059
 1805ntf    fn414918   3.806   4.645   3.021  0.4423 -0.3991  0.1170
 1805ntf    on514919   3.901   4.366   2.977 -0.7311 -0.2526 -0.1628
 1805ntf    on514920   3.774   4.376   2.768  0.1055  0.1766 -0.3127
 1805ntf    on514921   4.155   4.500   2.652  0.1741 -0.0425  0.0823
 1805ntf    on514922   4.177   4.457   2.894  0.5853 -0.2203 -0.1191
 1805ntf    fn414923   4.153   4.786   2.713  0.2097 -0.2657 -0.4135
 1805ntf    fn414924   4.105   4.756   2.914  0.2005 -0.2498 -0.0125
 1805ntf    fn414925   4.296   4.693   2.842  0.1088  0.2718 -0.0322
 1806ntf    cn114926   3.905   6.400   5.497  0.2110 -0.4384  0.0085
 1806ntf    sn214927   3.799   6.534   5.558 -0.0208 -0.3083 -0.6809
 1806ntf    nn314928   3.782   6.614   5.424  0.4382  0.6268 -0.1895
 1806ntf    sn214929   3.859   6.732   5.353  0.4188  0.6175 -0.2252
 1806ntf    cn114930   3.716   6.830   5.298 -0.1490 -0.0192  0.0927
 1806ntf    fn414931   4.030   6.434   5.470 -0.0018  0.7808  0.4908
 1806ntf    fn414932   3.910   6.303   5.587  0.2917  0.0014  0.4855
 1806ntf    fn414933   3.857   6.348   5.386 -0.1012  0.3187 -0.2124
 1806ntf    on514934   3.689   6.459   5.613 -0.1018  0.1808 -0.1622
 1806ntf    on514935   3.888   6.600   5.650 -0.5528  0.0772 -0.4356
 1806ntf    on514936   3.898   6.686   5.222 -0.3700  0.8534 -0.5517
 1806ntf    on514937   3.950   6.816   5.426  0.2243  0.4173  0.2532
 1806ntf    fn414938   3.640   6.875   5.396 -0.3088  0.0998 -0.0845
 1806ntf    fn414939   3.755   6.944   5.242 -0.5274  0.0971  0.0634
 1806ntf    fn414940   3.646   6.771   5.202  0.2814 -0.3300 -0.0331
 1807ntf    cn114941   3.530   0.992   3.526 -0.1965 -0.2311  0.5219
 1807ntf    sn214942   3.397   1.115   3.514  0.0705  0.0148  0.0503
 1807ntf    nn314943   3.361   1.101   3.361 -0.5390  0.3185  0.1649
 1807ntf    sn214944   3.390   1.202   3.244 -0.4717 -0.1222 -0.1978
 1807ntf    cn114945   3.221   1.189   3.178 -0.5502 -0.4985  0.0727
 1807ntf    fn414946   3.502   0.869   3.486 -0.3086  0.1643 -0.6793
 1807ntf    fn414947   3.634   1.032   3.454 -0.3171 -0.4881  0.1982
 1807ntf    fn414948   3.578   0.979   3.648  0.1789  0.3498  0.4403
 1807ntf    on514949   3.296   1.077   3.609 -0.3351  0.6780 -0.1098
 1807ntf    on514950   3.468   1.237   3.542  0.4827 -0.0168 -0.8268
 1807ntf    on514951   3.475   1.153   3.138  0.0270  0.1604  0.0661
 1807ntf    on514952   3.400   1.343   3.273  0.1851 -0.1877 -0.0962
 1807ntf    fn414953   3.124   1.210   3.265 -0.3883  0.9840 -0.0731
 1807ntf    fn414954   3.208   1.285   3.089  0.1222 -0.2701  0.2103
 1807ntf    fn414955   3.198   1.076   3.112 -0.0447 -0.5813  0.0330
 1808ntf    cn114956   4.583   3.770   3.405 -0.3586  0.3556 -0.2080
 1808ntf    sn214957   4.472   3.649   3.483 -0.1233  0.2543 -0.0332
 1808ntf    nn314958   4.398   3.583   3.362  1.0009  0.2288 -0.7196
 1808ntf    sn214959   4.422   3.436   3.314  0.1908 -0.1468  0.0104
 1808ntf    cn114960   4.374   3.458   3.140 -0.1698  0.3514  0.1708
 1808ntf    fn414961   4.671   3.825   3.487  0.0415  0.0174 -0.4068
 1808ntf    fn414962   4.654   3.724   3.303 -0.0941  0.0369  0.1198
 1808ntf    fn414963   4.519   3.864   3.336 -0.1923  0.5591 -0.0862
 1808ntf    on514964   4.565   3.569   3.559 -0.1917 -0.0625 -0.2843
 1808ntf    on514965   4.382   3.732   3.560  0.2086  0.3745  0.2311
 1808ntf    on514966   4.338   3.332   3.369 -0.1482  0.0789 -0.0830
 1808ntf    on514967   4.562   3.405   3.297  0.1661  0.1523 -0.7389
 1808ntf    fn414968   4.428   3.569   3.093  0.2279  0.2285  0.3239
 1808ntf    fn414969   4.414   3.359   3.061 -0.1279  0.4740  0.0389
 1808ntf    fn414970   4.245   3.480   3.127 -0.2197  0.0475  0.1472
 1809ntf    cn114971   6.068   1.291   1.809  0.0964 -0.0876 -0.2353
 1809ntf    sn214972   5.976   1.135   1.830  0.1253 -0.0781 -0.0373
 1809ntf    nn314973   5.938   1.156   1.981 -0.2994  0.6357 -0.2409
 1809ntf    sn214974   5.926   1.056   2.101  0.0634  0.6404 -0.2001
 1809ntf    cn114975   6.101   1.052   2.151 -0.0857 -0.0504  0.2742
 1809ntf    fn414976   6.171   1.288   1.891 -0.0098 -0.5431 -0.1139
 1809ntf    fn414977   6.116   1.303   1.687  0.0888  0.4806 -0.1841
 1809ntf    fn414978   5.998   1.400   1.839  0.2594  0.0207 -0.2496
 1809ntf    on514979   5.854   1.146   1.754  0.0164 -0.1613  0.1255
 1809ntf    on514980   6.072   1.032   1.797  0.6195  0.3812 -0.0531
 1809ntf    on514981   5.899   0.918   2.069  0.1814  0.3010  1.1285
 1809ntf    on514982   5.860   1.111   2.216 -0.2446  0.2005 -0.1647
 1809ntf    fn414983   6.167   0.990   2.055  0.0361  0.2962  0.1355
 1809ntf    fn414984   6.162   1.167   2.175  0.2177 -0.1233 -0.1491
 1809ntf    fn414985   6.116   0.978   2.260  0.0246 -0.3782  0.0394
 1810ntf    cn114986   1.045   3.383   4.962 -0.5637 -0.0943 -0.0549
 1810ntf    sn214987   1.117   3.426   5.123 -0.0252 -0.1309 -0.2849
 1810ntf    nn314988   1.272   3.423   5.093 -0.0608 -0.4729 -0.4400
 1810ntf    sn214989   1.383   3.322   5.139  0.2696 -0.0848 -0.3830
 1810ntf    cn114990   1.403   3.227   4.985  0.5880 -0.3733 -0.1651
 1810ntf    fn414991   1.112   3.296   4.889  0.2348 -0.0843  0.6506
 1810ntf    fn414992   0.923   3.334   4.973 -0.1306 -1.0819  0.5036
 1810ntf    fn414993   1.037   3.493   4.889 -0.3950 -0.0860 -0.0616
 1810ntf    on514994   1.066   3.560   5.140  0.1045 -0.1375  0.1650
 1810ntf    on514995   1.057   3.328   5.209 -0.5286  0.3696 -0.0567
 1810ntf    on514996   1.351   3.222   5.237 -0.0783  0.4195  0.0194
 1810ntf    on514997   1.510   3.390   5.139  0.2402 -0.0309  0.1715
 1810ntf    fn414998   1.285   3.185   4.942  0.3234 -0.1644  0.3437
 1810ntf    fn414999   1.446   3.313   4.893  0.1089 -0.3701 -0.3907
 1810ntf    fn415000   1.492   3.130   4.998  0.5052 -0.4269  0.0039
 1811ntf    cn115001   3.058   1.986   5.013 -0.1080 -0.4608  0.2962
 1811ntf    sn215002   3.061   1.895   4.856  0.3927 -0.3166  0.2206
 1811ntf    nn315003   3.213   1.888   4.818  0.4416  0.3591  0.2749
 1811ntf    sn215004   3.299   1.987   4.731  0.3696 -0.1687 -0.4085
 1811ntf    cn115005   3.451   2.012   4.827 -0.2048  0.0927  0.4472
 1811ntf    fn415006   3.106   2.109   5.008 -0.3533 -0.3784 -0.1989
 1811ntf    fn415007   2.932   1.980   5.053 -0.4068 -0.2976 -0.5843
 1811ntf    fn415008   3.127   1.924   5.107  0.2146 -0.1566  0.2624
 1811ntf    on515009   3.002   1.767   4.885 -0.3787  0.0057  0.0921
 1811ntf    on515010   2.984   1.981   4.769  0.0385 -0.4954  0.3535
 1811ntf    on515011   3.257   2.124   4.741  0.0295 -0.3182  0.2484
 1811ntf    on515012   3.345   1.944   4.601  0.2144 -0.1158 -0.4820
 1811ntf    fn415013   3.539   2.069   4.747  0.1811 -0.3255  0.5677
 1811ntf    fn415014   3.438   2.092   4.931  0.1594  0.3395  0.3075
 1811ntf    fn415015   3.506   1.896   4.861 -0.5554 -0.1452  0.2140
 1812ntf    cn115016   5.754   4.806   0.251  0.4729 -0.1225 -0.0384
 1812ntf    sn215017   5.622   4.807   0.126  0.1397  0.2182  0.3095
 1812ntf    nn315018   5.505   4.722   0.187 -0.1586  0.2043 -0.2758
 1812ntf    sn215019   5.358   4.761   0.224 -0.2449 -0.1390 -0.2568
 1812ntf    cn115020   5.274   4.713   0.070  0.0700 -0.1675 -0.4188
 1812ntf    fn415021   5.866   4.861   0.206  0.1941  0.3217 -0.1992
 1812ntf    fn415022   5.718   4.863   0.365  0.2252 -0.9877  0.3242
 1812ntf    fn415023   5.789   4.684   0.289  0.3123 -0.1452  0.0372
 1812ntf    on515024   5.605   4.947   0.098 -0.1964  0.1891  0.3732
 1812ntf    on515025   5.685   4.737   0.016 -0.2858  0.3098  0.0072
 1812ntf    on515026   5.329   4.900   0.248  0.3706 -0.1783  0.7626
 1812ntf    on515027   5.314   4.668   0.325  0.3597  0.1716  0.3029
 1812ntf    fn415028   5.149   4.756   0.070  0.2162  0.2608 -0.0502
 1812ntf    fn415029   5.330   4.775  -0.033  0.5385  0.0005 -0.0695
 1812ntf    fn415030   5.281   4.583   0.049  0.1857 -0.2424  0.0814
 1813ntf    cn115031   0.728   1.655   6.011  0.0407  0.0942 -0.0448
 1813ntf    sn215032   0.600   1.781   6.032 -0.1170 -0.1619  0.5542
 1813ntf    nn315033   0.653   1.897   5.940 -0.7021 -0.2879  0.0504
 1813ntf    sn215034   0.617   1.935   5.792  0.1530  0.0205 -0.0823
 1813ntf    cn115035   0.757   2.045   5.758  0.0209  0.2469  0.1061
 1813ntf    fn415036   0.730   1.608   5.887 -0.1832 -0.4103  0.1420
 1813ntf    fn415037   0.851   1.698   6.037  0.4061 -0.5117 -0.7171
 1813ntf    fn415038   0.705   1.554   6.094  0.1256 -0.0708 -0.2209
 1813ntf    on515039   0.476   1.724   5.985  0.1545 -0.0666 -0.2937
 1813ntf    on515040   0.616   1.807   6.173 -0.0645 -0.1913  0.5534
 1813ntf    on515041   0.501   2.019   5.777  0.5127  0.4121 -0.6831
 1813ntf    on515042   0.630   1.828   5.696 -0.1827 -0.4221  0.3572
 1813ntf    fn415043   0.763   2.146   5.843 -0.2620  0.5417 -0.2209
 1813ntf    fn415044   0.870   1.977   5.772 -0.3074 -0.2558  0.3008
 1813ntf    fn415045   0.763   2.099   5.637  1.0059  0.3216  0.1745
 1814ntf    cn115046   6.338   4.053   0.484 -0.0063 -0.5984 -0.1395
 1814ntf    sn215047   6.326   3.882   0.546 -0.3323 -0.4400  0.2402
 1814ntf    nn315048   6.340   3.903   0.701 -0.2638  0.3643  0.1284
 1814ntf    sn215049   6.384   3.804   0.814 -0.0880  0.1369 -0.1398
 1814ntf    cn115050   6.259   3.837   0.942 -0.0704 -0.1885 -0.0364
 1814ntf    fn415051   6.463   4.088   0.457 -0.0836  0.0106  0.2660
 1814ntf    fn415052   6.272   4.071   0.371 -0.3306  0.0232  0.1414
 1814ntf    fn415053   6.287   4.150   0.559 -0.0221 -0.6030 -0.1443
 1814ntf    on515054   6.189   3.850   0.514 -0.2798  0.3892 -0.8704
 1814ntf    on515055   6.437   3.817   0.481 -0.3695 -0.0875 -0.1798
 1814ntf    on515056   6.505   3.843   0.883  0.0500 -0.0667 -0.2661
 1814ntf    on515057   6.360   3.663   0.792  0.2287 -0.0369  0.5718
 1814ntf    fn415058   6.148   3.775   0.908  0.1704 -0.5080 -0.2435
 1814ntf    fn415059   6.293   3.790   1.060  0.2159 -0.1552 -0.1051
 1814ntf    fn415060   6.224   3.965   0.948  0.0798 -0.1223 -0.5045
 1815ntf    cn115061   6.519   2.121   1.023 -0.3278 -0.0070  0.0435
 1815ntf    sn215062   6.685   2.186   1.058 -0.2420 -0.2772  0.1382
 1815ntf    nn315063   6.762   2.112   0.942  0.0544 -0.1150  0.2305
 1815ntf    sn215064   6.910   2.061   0.942  0.0726 -0.0614 -0.0041
 1815ntf    cn115065   6.892   1.888   0.993 -0.4559 -0.0268 -0.0648
 1815ntf    fn415066   6.519   1.989   1.032  0.6911 -0.0194  0.0327
 1815ntf    fn415067   6.428   2.168   1.106 -0.5343 -0.0628 -0.1507
 1815ntf    fn415068   6.481   2.160   0.902 -0.5518 -0.2712  0.0282
 1815ntf    on515069   6.669   2.326   1.030 -0.1271 -0.2351  0.2821
 1815ntf    on515070   6.708   2.137   1.192 -0.1734 -0.2411  0.1399
 1815ntf    on515071   6.997   2.128   1.036 -0.7049  0.1691  0.5585
 1815ntf    on515072   6.964   2.051   0.808  0.4886  0.5975  0.1065
 1815ntf    fn415073   6.836   1.875   1.112 -0.0615 -0.0708  0.1205
 1815ntf    fn415074   6.821   1.819   0.906 -0.2569 -0.2422 -0.0613
 1815ntf    fn415075   7.007   1.822   1.001 -0.2993  0.2759  0.1898
 1816ntf    cn115076   2.880   3.310   5.164  0.2062  0.1553 -0.0133
 1816ntf    sn215077   2.725   3.380   5.231  0.3359  0.2921  0.1460
 1816ntf    nn315078   2.686   3.463   5.104  0.4288 -0.0978 -0.1409
 1816ntf    sn215079   2.665   3.616   5.074  0.2256 -0.0248  0.3676
 1816ntf    cn115080   2.835   3.674   5.045 -0.0651  0.6521 -0.0230
 1816ntf    fn415081   2.937   3.219   5.241 -0.1414  0.1171  0.2046
 1816ntf    fn415082   2.853   3.247   5.051 -0.2860  0.4432 -0.0615
 1816ntf    fn415083   2.971   3.398   5.125 -0.0414  0.2943 -0.2785
 1816ntf    on515084   2.642   3.262   5.239 -0.0257  0.5416  0.0797
 1816ntf    on515085   2.754   3.449   5.354  0.6312  0.0755  0.1984
 1816ntf    on515086   2.614   3.701   5.179 -0.1127 -0.0539  0.2291
 1816ntf    on515087   2.603   3.638   4.945  0.3003  0.2310  0.3750
 1816ntf    fn415088   2.835   3.801   5.008 -0.3608  0.6635  0.0105
 1816ntf    fn415089   2.894   3.661   5.163 -0.1633  0.6211  0.0228
 1816ntf    fn415090   2.898   3.594   4.961 -0.7826 -0.1538  0.1911
 1817ntf    cn115091   1.751   6.584   1.622  0.2141 -0.2308  0.0081
 1817ntf    sn215092   1.654   6.734   1.656  0.1923 -0.1103 -0.5869
 1817ntf    nn315093   1.671   6.746   1.811  0.3442  0.0376 -0.6143
 1817ntf    sn215094   1.686   6.864   1.914  0.1150 -0.2935 -0.1981
 1817ntf    cn115095   1.864   6.895   1.890 -0.0230  0.5129 -0.1857
 1817ntf    fn415096   1.711   6.525   1.511  0.1466 -0.6425  0.2477
 1817ntf    fn415097   1.881   6.607   1.608  0.2848 -0.5732  0.0818
 1817ntf    fn415098   1.735   6.488   1.712  0.4748 -0.3182 -0.0367
 1817ntf    on515099   1.722   6.844   1.591 -0.2365  0.3803 -0.2106
 1817ntf    on515100   1.518   6.705   1.618 -0.1710  0.2439  0.4288
 1817ntf    on515101   1.679   6.822   2.052  0.8926 -0.2087 -0.1254
 1817ntf    on515102   1.636   6.990   1.867  0.2770  0.1364  0.7662
 1817ntf    fn415103   1.898   6.955   1.777 -0.2355  0.4294 -0.2958
 1817ntf    fn415104   1.914   6.965   1.990  0.0176  0.3785 -0.1121
 1817ntf    fn415105   1.918   6.775   1.882 -0.2512  0.4032 -0.0746
 1818ntf    cn115106   5.602   2.115   2.257  0.0152  0.2373  0.4377
 1818ntf    sn215107   5.759   2.201   2.223 -0.1825  0.3315 -0.2488
 1818ntf    nn315108   5.825   2.086   2.139 -0.5539 -0.1043  0.0522
 1818ntf    sn215109   5.926   1.977   2.192 -0.2860  0.1234  0.0086
 1818ntf    cn115110   6.070   2.084   2.225 -0.2657  0.1536 -0.1763
 1818ntf    fn415111   5.618   1.991   2.300 -0.1366  0.0294 -0.0872
 1818ntf    fn415112   5.532   2.188   2.341 -0.5213  0.5429 -0.2625
 1818ntf    fn415113   5.533   2.101   2.145  0.3286  0.5247  0.2057
 1818ntf    on515114   5.711   2.313   2.145 -0.0176  0.5882  0.0188
 1818ntf    on515115   5.813   2.233   2.352 -0.0064 -0.1389 -0.2034
 1818ntf    on515116   5.971   1.894   2.082 -0.7232 -0.5901  0.3669
 1818ntf    on515117   5.887   1.913   2.314  0.0070  0.5180  0.3138
 1818ntf    fn415118   6.180   2.013   2.208 -0.2718  0.1390 -0.1545
 1818ntf    fn415119   6.086   2.191   2.148  0.6691  0.6070  0.6297
 1818ntf    fn415120   6.083   2.137   2.345 -0.1884 -0.4089  0.0666
 1819ntf    cn115121   3.282   2.630   0.465  0.0117 -0.4002  0.1875
 1819ntf    sn215122   3.288   2.689   0.637  0.0026  0.1782 -0.0068
 1819ntf    nn315123   3.142   2.743   0.657 -0.0903 -0.1895  0.3101
 1819ntf    sn215124   3.014   2.666   0.707 -0.2722  0.1353  0.3484
 1819ntf    cn115125   2.929   2.646   0.547  0.2818 -0.4697  0.1235
 1819ntf    fn415126   3.405   2.613   0.418  0.2031  0.3103  0.4117
 1819ntf    fn415127   3.210   2.521   0.447  0.3602 -0.5668 -0.2303
 1819ntf    fn415128   3.230   2.722   0.386  0.5669 -0.3927 -0.1748
 1819ntf    on515129   3.329   2.572   0.711 -0.0891  0.0274 -0.1908
 1819ntf    on515130   3.386   2.794   0.638 -0.0407  0.2249 -0.3867
 1819ntf    on515131   2.926   2.752   0.781 -0.0376  0.2529  0.4892
 1819ntf    on515132   3.038   2.532   0.755 -0.4896 -0.0567 -0.0706
 1819ntf    fn415133   3.006   2.594   0.452 -0.2645 -0.0317 -0.5656
 1819ntf    fn415134   2.819   2.574   0.563  0.0243  0.0201  0.5999
 1819ntf    fn415135   2.888   2.759   0.493  0.1423 -0.0987  0.9979
 1820ntf    cn115136   4.724   4.111   5.576 -0.0139  0.0964  0.1641
 1820ntf    sn215137   4.905   4.113   5.584 -0.0018 -0.3128 -0.0131
 1820ntf    nn315138   4.935   4.035   5.717  0.2508  0.1911  0.2296
 1820ntf    sn215139   4.949   4.098   5.860  0.1591  0.3075  0.1870
 1820ntf    cn115140   4.792   4.041   5.930  0.2789 -0.3412 -0.0685
 1820ntf    fn415141   4.674   3.991   5.602 -0.1499  0.1734  0.2668
 1820ntf    fn415142   4.667   4.187   5.668  0.2711  0.4003  0.0914
 1820ntf    fn415143   4.672   4.147   5.459 -0.0481  0.4191  0.2785
 1820ntf    on515144   4.942   4.029   5.472 -0.7505 -0.9536  0.2117
 1820ntf    on515145   4.939   4.252   5.569  0.4184 -0.4505 -0.3680
 1820ntf    on515146   4.939   4.241   5.875 -0.3326  0.2188  0.7202
 1820ntf    on515147   5.042   4.038   5.952 -0.1778 -0.2456  0.1720
 1820ntf    fn415148   4.688   4.099   5.873  0.4338 -0.3997 -0.4116
 1820ntf    fn415149   4.762   3.913   5.912 -0.2689 -0.2219 -0.0250
 1820ntf    fn415150   4.787   4.059   6.061  0.1933 -0.2182 -0.0887
 1821ntf    cn115151   1.590   4.412   0.489  0.2706 -0.0447 -0.4404
 1821ntf    sn215152   1.670   4.535   0.382 -0.2281  0.4729 -0.2209
 1821ntf    nn315153   1.598   4.509   0.245 -0.5080  0.3428 -0.0496
 1821ntf    sn215154   1.650   4.476   0.101  0.0365 -0.0972  0.2441
 1821ntf    cn115155   1.500   4.505   0.003  0.1488 -0.2219  0.0358
 1821ntf    fn415156   1.466   4.390   0.448  0.3361 -0.0916 -0.6133
 1821ntf    fn415157   1.643   4.291   0.492  0.4054  0.0181 -0.2892
 1821ntf    fn415158   1.586   4.451   0.615  0.8016 -0.4660 -0.2870
 1821ntf    on515159   1.642   4.666   0.435  0.2390  0.4586  0.0690
 1821ntf    on515160   1.809   4.496   0.383 -0.2976  0.2240 -0.0604
 1821ntf    on515161   1.676   4.336   0.077 -0.8160 -0.1571 -0.3960
 1821ntf    on515162   1.735   4.578   0.045  0.2757 -0.4212  0.0090
 1821ntf    fn415163   1.403   4.422   0.036 -0.5733  0.4321 -0.4188
 1821ntf    fn415164   1.442   4.622   0.024 -0.3860 -0.4282 -0.2625
 1821ntf    fn415165   1.528   4.478  -0.124  0.1977 -0.2336  0.0492
 1822ntf    cn115166   5.616   2.813   1.923 -0.0335 -0.1198 -0.3319
 1822ntf    sn215167   5.472   2.737   1.841 -0.3874 -0.0891  0.2529
 1822ntf    nn315168   5.516   2.753   1.692 -0.7586  0.1509  0.1687
 1822ntf    sn215169   5.499   2.866   1.584 -0.1475  0.2033  0.1219
 1822ntf    cn115170   5.354   2.791   1.504 -0.1206  0.0847  0.1833
 1822ntf    fn415171   5.723   2.735   1.926  0.1629  0.1803  0.8322
 1822ntf    fn415172   5.650   2.931   1.875  0.1987 -0.0870 -0.0880
 1822ntf    fn415173   5.593   2.836   2.052 -0.2510  0.1859 -0.4237
 1822ntf    on515174   5.468   2.600   1.886  0.5297 -0.2627 -0.1644
 1822ntf    on515175   5.366   2.823   1.887  0.3675  0.8315  0.2988
 1822ntf    on515176   5.596   2.878   1.479 -0.3803  0.1093 -0.1053
 1822ntf    on515177   5.463   2.993   1.644  0.4417  0.5281 -0.2026
 1822ntf    fn415178   5.289   2.883   1.434 -0.2522 -0.1912 -0.0584
 1822ntf    fn415179   5.388   2.700   1.414  0.3756 -0.3636  0.8158
 1822ntf    fn415180   5.272   2.733   1.590 -0.3222 -0.1234 -0.1514
 1823ntf    cn115181   4.480   0.809   0.037  0.5642  0.2137  0.0652
 1823ntf    sn215182   4.513   0.639   0.090 -0.0082  0.1164  0.1159
 1823ntf    nn315183   4.629   0.608  -0.012  0.1916 -0.0421  0.3892
 1823ntf    sn215184   4.725   0.484  -0.014  0.0596 -0.1401  0.0990
 1823ntf    cn115185   4.660   0.375  -0.145  0.7739  0.1944 -0.5445
 1823ntf    fn415186   4.373   0.857   0.097  0.7239  0.1895  0.3743
 1823ntf    fn415187   4.577   0.894   0.069  0.6606 -0.1146  0.6701
 1823ntf    fn415188   4.459   0.810  -0.093  0.8035  0.1680  0.0251
 1823ntf    on515189   4.557   0.655   0.226  0.3763 -0.5887  0.0852
 1823ntf    on515190   4.394   0.565   0.058  0.0504  0.1507 -0.1835
 1823ntf    on515191   4.728   0.395   0.099 -0.7628 -0.2437  0.0391
 1823ntf    on515192   4.851   0.533  -0.065  0.0309  0.3449  0.4971
 1823ntf    fn415193   4.735   0.268  -0.165  0.5324 -0.0633 -0.0847
 1823ntf    fn415194   4.542   0.329  -0.109  0.8926  0.3682  0.0877
 1823ntf    fn415195   4.639   0.437  -0.260 -0.3160  0.2875 -0.3042
 1824ntf    cn115196   4.383   5.505   3.182  0.3556 -0.0793  0.4440
 1824ntf    sn215197   4.442   5.523   3.011 -0.1090  0.0028  0.2908
 1824ntf    nn315198   4.461   5.370   2.983  0.1630  0.0343  0.3011
 1824ntf    sn215199   4.573   5.304   2.895 -0.2061 -0.1592 -0.0281
 1824ntf    cn115200   4.481   5.187   2.792 -0.0032  0.0260 -0.4232
 1824ntf    fn415201   4.350   5.624   3.230  0.5113  0.1535 -0.0188
 1824ntf    fn415202   4.273   5.432   3.192  0.2515 -0.0325 -0.2638
 1824ntf    fn415203   4.480   5.449   3.252  0.3417 -0.5171  0.1172
 1824ntf    on515204   4.325   5.588   2.955 -0.3649 -0.4832  0.2601
 1824ntf    on515205   4.559   5.605   3.028 -0.0322 -0.0141 -0.1450
 1824ntf    on515206   4.660   5.222   2.975  0.1697 -0.1194 -0.3882
 1824ntf    on515207   4.642   5.386   2.797  0.4702 -0.4881  0.1678
 1824ntf    fn415208   4.389   5.236   2.710  0.0406 -0.2425 -0.6343
 1824ntf    fn415209   4.569   5.122   2.718  0.3741 -0.2524  0.2664
 1824ntf    fn415210   4.421   5.094   2.864 -0.1437  0.3287 -0.1495
 1825ntf    cn115211   0.897   6.169   1.288  0.3643 -0.4249 -0.2040
 1825ntf    sn215212   1.070   6.179   1.345  0.0611 -0.0387  0.6702
 1825ntf    nn315213   1.072   6.065   1.453 -0.5280 -0.7062 -0.0064
 1825ntf    sn215214   1.075   6.076   1.610  0.3102 -0.2193 -0.0534
 1825ntf    cn115215   0.976   5.926   1.631  0.3115 -0.2063  0.0409
 1825ntf    fn415216   0.862   6.052   1.237 -0.0939 -0.1371 -0.5545
 1825ntf    fn415217   0.804   6.209   1.373  0.5329 -0.3469 -0.0540
 1825ntf    fn415218   0.887   6.241   1.178  0.5428 -0.0165  0.0454
 1825ntf    on515219   1.148   6.146   1.228 -0.4424  1.2547 -0.0534
 1825ntf    on515220   1.077   6.316   1.389 -0.1557  0.1195  0.2178
 1825ntf    on515221   0.994   6.179   1.670 -0.0144 -0.4983 -0.0124
 1825ntf    on515222   1.204   6.049   1.668 -0.0014  0.1409  0.8148
 1825ntf    fn415223   0.867   5.919   1.556  0.0895  0.1627  0.3270
 1825ntf    fn415224   1.043   5.814   1.609  0.3916 -0.2058  0.2801
 1825ntf    fn415225   0.933   5.908   1.755  0.5796 -0.0378  0.1591
 1826ntf    cn115226   2.902   6.120   0.686  0.0178  0.0223 -0.4360
 1826ntf    sn215227   2.813   6.122   0.528  0.0668  0.0563 -0.4633
 1826ntf    nn315228   2.918   6.193   0.435 -0.0149 -0.1838 -0.7426
 1826ntf    sn215229   2.935   6.342   0.388 -0.3351  0.0715 -0.0708
 1826ntf    cn115230   2.818   6.333   0.248 -0.1472 -0.3094 -0.2061
 1826ntf    fn415231   2.816   6.084   0.780 -0.2337  0.2457 -0.5801
 1826ntf    fn415232   3.007   6.039   0.691 -0.0220 -0.0273 -0.4056
 1826ntf    fn415233   2.956   6.238   0.714  0.8146 -0.4285 -0.0312
 1826ntf    on515234   2.793   5.985   0.487 -0.4430 -0.0178  0.0282
 1826ntf    on515235   2.695   6.202   0.548 -0.1073 -0.3182  0.0259
 1826ntf    on515236   3.065   6.374   0.334 -0.5375  0.4371 -0.3536
 1826ntf    on515237   2.876   6.438   0.477 -0.6865 -0.3848  0.1916
 1826ntf    fn415238   2.808   6.447   0.181  0.3878  0.1902  0.5263
 1826ntf    fn415239   2.841   6.232   0.167 -0.8255 -0.1758 -0.5677
 1826ntf    fn415240   2.699   6.313   0.301 -0.0360 -0.4252  0.0045
 1827ntf    cn115241   0.426   1.234   0.529  0.1560 -0.1319  0.2293
 1827ntf    sn215242   0.391   1.372   0.641  0.0290 -0.0720  0.1163
 1827ntf    nn315243   0.515   1.362   0.736  0.2635 -0.0901 -0.1908
 1827ntf    sn215244   0.588   1.480   0.810  0.1090 -0.0258 -0.1407
 1827ntf    cn115245   0.761   1.424   0.818  0.1636  0.1167 -0.3211
 1827ntf    fn415246   0.372   1.258   0.410  0.3978  0.0869  0.1643
 1827ntf    fn415247   0.556   1.216   0.509  0.0984  0.0215 -0.3153
 1827ntf    fn415248   0.376   1.118   0.570  0.2185 -0.2658 -0.0672
 1827ntf    on515249   0.380   1.489   0.558 -0.9063 -0.0288  0.2819
 1827ntf    on515250   0.269   1.334   0.708  0.0462  0.0472  0.2164
 1827ntf    on515251   0.548   1.483   0.949  0.0771 -0.2623 -0.1441
 1827ntf    on515252   0.607   1.602   0.736 -0.2143  0.0488 -0.1018
 1827ntf    fn415253   0.823   1.409   0.702 -0.1280  0.0749 -0.4728
 1827ntf    fn415254   0.841   1.505   0.885 -0.4301  0.2866  0.1903
 1827ntf    fn415255   0.778   1.305   0.874  0.7126  0.5134  0.3629
 1828ntf    cn115256   2.585   1.565   0.938 -0.2816  0.4225  0.5594
 1828ntf    sn215257   2.442   1.464   0.987  0.0106 -0.2637  0.0192
 1828ntf    nn315258   2.512   1.328   1.025  0.7241 -0.0712 -0.5843
 1828ntf    sn215259   2.531   1.193   0.947  0.1295 -0.3098 -0.3200
 1828ntf    cn115260   2.651   1.108   1.054  0.1168  0.3782  0.2469
 1828ntf    fn415261   2.662   1.499   0.853 -0.5233  1.2829 -0.3416
 1828ntf    fn415262   2.552   1.680   0.881 -0.6793  0.0623  0.0532
 1828ntf    fn415263   2.665   1.590   1.041  0.6432 -0.6190  0.1178
 1828ntf    on515264   2.390   1.535   1.101 -0.0309  0.2961 -0.3465
 1828ntf    on515265   2.353   1.460   0.873 -0.3290  0.4978  0.2511
 1828ntf    on515266   2.615   1.210   0.832  0.3632 -0.1010 -0.1198
 1828ntf    on515267   2.420   1.101   0.940 -0.3993  0.2908  0.0941
 1828ntf    fn415268   2.746   1.187   1.102 -0.0548  0.8361 -0.1538
 1828ntf    fn415269   2.591   1.058   1.161 -0.4517  0.4072 -0.0565
 1828ntf    fn415270   2.707   1.007   0.990 -0.6178  0.0190  0.1671
 1829ntf    cn115271   4.061   4.952   3.257  0.2485 -0.1888  0.6727
 1829ntf    sn215272   3.885   4.977   3.296  0.1399  0.0349  0.0446
 1829ntf    nn315273   3.848   4.826   3.316  0.5450  0.0016  0.5735
 1829ntf    sn215274   3.789   4.746   3.438  0.2231  0.0046  0.4217
 1829ntf    cn115275   3.616   4.732   3.385  0.5032 -0.0474 -0.4985
 1829ntf    fn415276   4.108   5.063   3.204 -0.1096 -0.3742 -0.0477
 1829ntf    fn415277   4.140   4.917   3.358  0.3580 -0.4514  0.4976
 1829ntf    fn415278   4.074   4.854   3.170  0.5197  0.0278  0.4694
 1829ntf    on515279   3.885   5.063   3.412  0.2925 -0.4486  0.4094
 1829ntf    on515280   3.833   5.030   3.173  0.3936  0.2199  0.0163
 1829ntf    on515281   3.784   4.811   3.566 -0.0397  0.1779  0.3232
 1829ntf    on515282   3.842   4.611   3.439 -0.0088 -0.0868  0.3252
 1829ntf    fn415283   3.557   4.848   3.363 -0.1491 -0.3563 -0.4015
 1829ntf    fn415284   3.599   4.656   3.277  0.2737 -0.3201 -0.2725
 1829ntf    fn415285   3.549   4.670   3.481  0.4795 -0.3422 -0.7023
 1830ntf    cn115286   1.526   4.280   3.586  0.4025 -0.1903  0.0717
 1830ntf    sn215287   1.617   4.132   3.536  0.2492 -0.3593  0.2864
 1830ntf    nn315288   1.759   4.195   3.510 -0.0829  0.4606  0.4558
 1830ntf    sn215289   1.844   4.183   3.379 -0.1820  0.2495  0.4110
 1830ntf    cn115290   1.875   4.005   3.362  0.1730  0.3736 -0.2890
 1830ntf    fn415291   1.558   4.321   3.708 -0.3194 -0.4437  0.3549
 1830ntf    fn415292   1.547   4.371   3.493  0.4028 -0.0136  0.2437
 1830ntf    fn415293   1.395   4.259   3.585  0.3516  0.1489 -0.7645
 1830ntf    on515294   1.613   4.041   3.648 -0.5888 -0.2020  0.3872
 1830ntf    on515295   1.543   4.088   3.420  0.5726  0.3785 -0.2042
 1830ntf    on515296   1.978   4.235   3.380 -0.1321  0.1181  0.4928
 1830ntf    on515297   1.774   4.216   3.257  0.2126  0.3387  0.2074
 1830ntf    fn415298   1.967   3.965   3.449  0.4327 -0.0971 -0.7721
 1830ntf    fn415299   1.765   3.939   3.395  0.2099  0.2455 -0.4168
 1830ntf    fn415300   1.916   3.976   3.239  0.1398  0.1575 -0.2505
 1831ntf    cn115301   4.097   4.612   0.563  0.1827 -0.0784  0.3380
 1831ntf    sn215302   4.051   4.771   0.640 -0.1765 -0.0476  0.0581
 1831ntf    nn315303   3.901   4.776   0.597 -0.1578 -0.1647 -0.0233
 1831ntf    sn215304   3.820   4.909   0.575 -0.0838 -0.1047  0.0701
 1831ntf    cn115305   3.794   4.910   0.395  0.3076  0.0166  0.0132
 1831ntf    fn415306   4.217   4.564   0.595  0.0912 -0.4816  0.0724
 1831ntf    fn415307   4.010   4.521   0.603 -0.0101  0.1390  0.4217
 1831ntf    fn415308   4.096   4.630   0.432  0.4865 -0.0413  0.3384
 1831ntf    on515309   4.077   4.750   0.780  0.8018 -0.2622 -0.1418
 1831ntf    on515310   4.138   4.868   0.578 -0.2442  0.0575  0.1277
 1831ntf    on515311   3.885   5.036   0.599  0.6098 -0.4157 -0.1208
 1831ntf    on515312   3.689   4.901   0.634 -0.2337  0.2999 -0.2034
 1831ntf    fn415313   3.708   4.817   0.358 -0.0850  0.2741  0.2718
 1831ntf    fn415314   3.745   5.023   0.348 -0.3544  0.0491  0.7649
 1831ntf    fn415315   3.903   4.884   0.324 -0.0160 -0.1349 -0.4303
 1832ntf    cn115316   1.177   0.497   4.561 -0.0438 -0.2328 -0.4331
 1832ntf    sn215317   1.032   0.388   4.565 -0.3390  0.1714  0.0692
 1832ntf    nn315318   1.112   0.267   4.626  0.1150  0.7272  0.5897
 1832ntf    sn215319   1.066   0.172   4.743  0.2284 -0.2924 -0.1759
 1832ntf    cn115320   1.130   0.248   4.896 -0.0600 -0.4607  0.0289
 1832ntf    fn415321   1.148   0.623   4.531 -0.1682 -0.1272  0.1335
 1832ntf    fn415322   1.237   0.491   4.678  0.0861  0.4609 -0.4590
 1832ntf    fn415323   1.271   0.462   4.475  0.4101  0.3034 -0.1651
 1832ntf    on515324   0.938   0.438   4.662 -0.1986  0.0222  0.2846
 1832ntf    on515325   0.989   0.368   4.429 -0.6872  0.1740  0.1797
 1832ntf    on515326   1.139   0.048   4.739  0.5641 -0.1021 -0.0601
 1832ntf    on515327   0.925   0.173   4.772  0.2567  0.3667 -0.0284
 1832ntf    fn415328   1.118   0.184   5.010 -0.5536 -0.3025  0.0678
 1832ntf    fn415329   1.261   0.264   4.887 -0.1247 -0.3878 -0.8704
 1832ntf    fn415330   1.075   0.368   4.908  0.2296 -0.3400  0.1575
 1833ntf    cn115331   6.073   1.292   6.157  0.3044 -0.1380 -0.1697
 1833ntf    sn215332   6.128   1.293   5.983  0.1943 -0.1843 -0.2051
 1833ntf    nn315333   5.990   1.282   5.910 -0.1219  0.1050  0.3363
 1833ntf    sn215334   5.937   1.193   5.791 -0.0082  0.1420  0.2571
 1833ntf    cn115335   5.879   1.320   5.674  0.0951  0.0246  0.0793
 1833ntf    fn415336   6.174   1.321   6.237  0.2259 -0.0929 -0.0873
 1833ntf    fn415337   5.973   1.375   6.181  0.1874 -0.1376 -0.6504
 1833ntf    fn415338   6.030   1.171   6.186  0.1458  0.1065  0.6345
 1833ntf    on515339   6.188   1.424   5.976  0.0833 -0.1020  0.3380
 1833ntf    on515340   6.217   1.180   5.974  0.6270  0.1257  0.1127
 1833ntf    on515341   5.811   1.129   5.821 -0.2563  0.3605 -0.3158
 1833ntf    on515342   6.036   1.129   5.709 -0.4288  0.0168 -0.1555
 1833ntf    fn415343   5.785   1.390   5.735  0.0466 -0.0324  0.0701
 1833ntf    fn415344   5.975   1.405   5.638  0.2163 -0.3072 -0.3922
 1833ntf    fn415345   5.825   1.271   5.564 -0.4263 -0.1515  0.4100
 1834ntf    cn115346   5.109   4.044   0.341 -0.1825 -0.2147 -0.0822
 1834ntf    sn215347   5.089   4.172   0.468 -0.0957 -0.2194 -0.0638
 1834ntf    nn315348   5.038   4.077   0.583 -0.0527 -0.3568 -0.1585
 1834ntf    sn215349   5.118   4.029   0.708 -0.4083 -0.0987  0.1712
 1834ntf    cn115350   4.989   3.922   0.780 -0.0982 -0.4114  0.2653
 1834ntf    fn415351   4.996   3.989   0.302 -0.0821 -0.3978 -0.1158
 1834ntf    fn415352   5.161   4.093   0.230  0.3349 -0.8702 -0.1406
 1834ntf    fn415353   5.189   3.948   0.386 -0.3071 -0.1838  0.2070
 1834ntf    on515354   5.218   4.235   0.481 -0.0180 -0.2844 -0.5237
 1834ntf    on515355   4.977   4.248   0.418  0.3232  0.0896 -0.5477
 1834ntf    on515356   5.134   4.135   0.805  0.3568 -0.2831  0.2561
 1834ntf    on515357   5.220   3.931   0.680 -0.1214  0.1446  0.3667
 1834ntf    fn415358   5.022   3.868   0.896 -0.1081 -0.4284  0.2599
 1834ntf    fn415359   4.869   3.978   0.781  0.0705 -0.0400 -0.0911
 1834ntf    fn415360   4.975   3.821   0.696 -0.8961  0.2660 -0.4378
 1835ntf    cn115361   0.586   1.450   3.542  0.4403 -0.1394  0.0010
 1835ntf    sn215362   0.621   1.338   3.403  0.0198 -0.2127 -0.0452
 1835ntf    nn315363   0.772   1.368   3.373 -0.0453  0.7332  0.5521
 1835ntf    sn215364   0.901   1.285   3.402 -0.2284  0.2234 -0.0732
 1835ntf    cn115365   0.907   1.182   3.253  0.2899 -0.0348  0.1212
 1835ntf    fn415366   0.485   1.405   3.615  0.1378  0.1995 -0.2055
 1835ntf    fn415367   0.690   1.444   3.624  0.2348  0.7188  0.3317
 1835ntf    fn415368   0.555   1.573   3.506  0.0332 -0.3004 -0.1995
 1835ntf    on515369   0.577   1.208   3.447  0.4023 -0.3526 -0.0775
 1835ntf    on515370   0.540   1.407   3.306  0.2393  0.0801 -0.0231
 1835ntf    on515371   0.892   1.187   3.508 -0.1383 -0.4362 -0.6691
 1835ntf    on515372   1.022   1.364   3.395 -0.0823  0.0833  0.6863
 1835ntf    fn415373   0.903   1.271   3.155 -0.1910 -0.6280 -0.4128
 1835ntf    fn415374   1.017   1.112   3.227  0.3073  0.3238 -0.7984
 1835ntf    fn415375   0.799   1.107   3.244  0.0905  0.2283  0.3095
 1836ntf    cn115376   3.274   6.068   3.220 -0.1164  0.0264  0.2715
 1836ntf    sn215377   3.223   6.196   3.339 -0.0839  0.2765  0.0160
 1836ntf    nn315378   3.093   6.132   3.400 -0.2263  0.2227 -0.3448
 1836ntf    sn215379   3.085   6.065   3.541 -0.0613  0.3442 -0.2781
 1836ntf    cn115380   2.925   5.982   3.523  0.2409 -0.2816 -0.0997
 1836ntf    fn415381   3.196   6.050   3.115  0.6928  0.4024 -0.4036
 1836ntf    fn415382   3.392   6.100   3.170 -0.2371  0.1269  0.0506
 1836ntf    fn415383   3.285   5.946   3.272 -0.1060 -0.1204 -0.0714
 1836ntf    on515384   3.335   6.214   3.429  0.1583 -0.8305 -0.0410
 1836ntf    on515385   3.187   6.306   3.254  0.1766  0.6207  0.3464
 1836ntf    on515386   3.063   6.155   3.652  0.3794  0.0507  0.0515
 1836ntf    on515387   3.170   5.952   3.568 -1.1657 -0.4684 -0.1696
 1836ntf    fn415388   2.913   5.880   3.439  0.2079 -0.0447 -0.3842
 1836ntf    fn415389   2.883   5.942   3.642 -0.0184  0.0803 -0.0684
 1836ntf    fn415390   2.831   6.067   3.484 -0.1755 -0.4516  0.5096
 1837ntf    cn115391   5.056   4.404   1.303 -0.1792 -0.1003  0.5089
 1837ntf    sn215392   5.010   4.279   1.179  0.1911  0.0324  0.2349
 1837ntf    nn315393   4.999   4.152   1.271 -0.4136 -0.1727 -0.1145
 1837ntf    sn215394   4.868   4.089   1.330 -0.4034 -0.0172  0.0726
 1837ntf    cn115395   4.856   3.948   1.216  0.0940  0.0968 -0.1209
 1837ntf    fn415396   5.065   4.517   1.235 -0.0688 -0.3515  0.0994
 1837ntf    fn415397   4.981   4.432   1.408  0.4875 -0.0218  0.9710
 1837ntf    fn415398   5.177   4.376   1.348 -0.1996 -0.2225  0.4867
 1837ntf    on515399   4.888   4.325   1.118  0.0364  0.0352  0.5457
 1837ntf    on515400   5.126   4.272   1.093  0.7848  0.9238  0.9475
 1837ntf    on515401   4.744   4.164   1.324 -0.1274  0.4421  0.0198
 1837ntf    on515402   4.899   4.037   1.461  0.2045  0.0610 -0.0370
 1837ntf    fn415403   4.870   3.990   1.092  0.3192  0.3545 -0.0107
 1837ntf    fn415404   4.947   3.854   1.237 -0.1083 -0.0098  0.2882
 1837ntf    fn415405   4.739   3.889   1.226  0.0202  0.0907 -1.0161
 1838ntf    cn115406   6.038   0.041   4.523 -0.1633 -0.1808 -0.4582
 1838ntf    sn215407   6.052  -0.127   4.591 -0.3471 -0.0125 -0.0062
 1838ntf    nn315408   5.909  -0.146   4.653 -0.5055  0.4096 -0.2402
 1838ntf    sn215409   5.851  -0.149   4.799 -0.1724 -0.1020 -0.1174
 1838ntf    cn115410   5.797  -0.323   4.804 -0.3723 -0.0438 -0.2415
 1838ntf    fn415411   5.933   0.050   4.443 -0.0426  0.4511 -0.5518
 1838ntf    fn415412   6.017   0.126   4.622 -0.1618 -0.7730  0.0562
 1838ntf    fn415413   6.143   0.080   4.452 -0.0369 -0.1443 -0.2510
 1838ntf    on515414   6.078  -0.207   4.474 -0.6287 -0.1706  0.0392
 1838ntf    on515415   6.163  -0.125   4.683 -0.1688  0.3041 -0.2261
 1838ntf    on515416   5.730  -0.072   4.811  0.0226  0.2471 -0.3633
 1838ntf    on515417   5.948  -0.131   4.904 -0.3525 -0.3190  0.0859
 1838ntf    fn415418   5.711  -0.344   4.705 -0.8472  0.9693 -0.0659
 1838ntf    fn415419   5.893  -0.410   4.779  0.0657  0.2488  0.3975
 1838ntf    fn415420   5.745  -0.364   4.918 -0.2507  0.0208 -0.1624
 1839ntf    cn115421   0.939   2.781   1.466 -0.0193 -0.0295 -0.6769
 1839ntf    sn215422   1.119   2.785   1.491 -0.0208 -0.1353 -0.6478
 1839ntf    nn315423   1.145   2.920   1.566  0.4638 -0.3559 -0.4153
 1839ntf    sn215424   1.176   3.059   1.500  0.2077 -0.1419 -0.0894
 1839ntf    cn115425   1.358   3.069   1.489  0.1549  0.5898 -0.3717
 1839ntf    fn415426   0.871   2.745   1.574  0.5701  0.0665 -0.2632
 1839ntf    fn415427   0.882   2.895   1.432 -0.9745 -0.2358  0.1679
 1839ntf    fn415428   0.910   2.693   1.372  0.0591 -0.4199 -0.3404
 1839ntf    on515429   1.156   2.676   1.578  0.0330  0.1441 -0.3192
 1839ntf    on515430   1.174   2.774   1.358  0.7252  0.4793 -0.3975
 1839ntf    on515431   1.148   3.170   1.588 -0.4222 -0.2430 -0.1587
 1839ntf    on515432   1.133   3.080   1.364  0.2370 -0.3728 -0.1340
 1839ntf    fn415433   1.410   3.048   1.609 -0.0933 -0.5811 -0.4521
 1839ntf    fn415434   1.402   2.970   1.413 -0.3638 -0.2702  0.4219
 1839ntf    fn415435   1.396   3.183   1.434  0.7869  0.3847 -0.3614
 1840ntf    cn115436   6.425   2.805   5.461  0.1416  0.0848 -0.0574
 1840ntf    sn215437   6.252   2.759   5.491  0.1707 -0.1083 -0.1882
 1840ntf    nn315438   6.225   2.830   5.629 -0.1225  0.1926 -0.3967
 1840ntf    sn215439   6.132   2.788   5.748 -0.0032  0.0885 -0.3388
 1840ntf    cn115440   6.116   2.953   5.822  0.2447 -0.0977  0.1314
 1840ntf    fn415441   6.498   2.801   5.571 -0.4488  0.2284  0.3429
 1840ntf    fn415442   6.491   2.724   5.380 -0.2244 -0.2738 -0.0025
 1840ntf    fn415443   6.439   2.929   5.417 -0.1354  0.2145  0.2163
 1840ntf    on515444   6.189   2.820   5.376 -0.4068  0.0480  0.2069
 1840ntf    on515445   6.260   2.617   5.510  0.1978 -0.0322  0.3795
 1840ntf    on515446   6.201   2.713   5.849 -0.0538 -0.0899 -0.4363
 1840ntf    on515447   5.995   2.749   5.723  0.0271 -0.1849 -0.0742
 1840ntf    fn415448   6.028   2.970   5.919  0.0179  0.0033 -0.0893
 1840ntf    fn415449   6.235   2.985   5.870  0.1401  0.5406 -0.0201
 1840ntf    fn415450   6.086   3.041   5.727 -0.4029 -0.0632  0.3655
 1841ntf    cn115451   5.564   6.468   2.305  0.5589 -0.0306  0.2594
 1841ntf    sn215452   5.642   6.406   2.458  0.1464 -0.3211  0.3532
 1841ntf    nn315453   5.557   6.484   2.565 -0.1764 -0.0512 -0.0923
 1841ntf    sn215454   5.511   6.456   2.713  0.1387  0.0605  0.0270
 1841ntf    cn115455   5.607   6.573   2.814  0.3498 -0.0338 -0.0624
 1841ntf    fn415456   5.590   6.596   2.285  0.3121  0.0110  0.2014
 1841ntf    fn415457   5.608   6.397   2.202  0.2763  0.8909 -0.5030
 1841ntf    fn415458   5.435   6.443   2.295  0.3562  0.9174  0.4650
 1841ntf    on515459   5.616   6.265   2.452 -1.2452 -0.0722  0.0959
 1841ntf    on515460   5.776   6.458   2.456  0.1931 -0.4489  0.2194
 1841ntf    on515461   5.554   6.324   2.754 -0.2855 -0.0578  0.0943
 1841ntf    on515462   5.374   6.492   2.733  0.0116 -0.4025  0.0069
 1841ntf    fn415463   5.574   6.700   2.798  0.0758 -0.0965 -0.0027
 1841ntf    fn415464   5.603   6.532   2.940 -0.7853 -0.2495 -0.1575
 1841ntf    fn415465   5.735   6.568   2.782  0.1868 -0.7638 -0.6304
 1842ntf    cn115466   0.360   2.217   2.822  0.2572  0.5998  0.3600
 1842ntf    sn215467   0.461   2.325   2.716  0.2743  0.0648 -0.1772
 1842ntf    nn315468   0.347   2.425   2.673  0.1356  0.1594  0.3914
 1842ntf    sn215469   0.327   2.575   2.715  0.1100  0.2726 -0.0215
 1842ntf    cn115470   0.177   2.563   2.817  0.1514  0.1936  0.0298
 1842ntf    fn415471   0.283   2.141   2.746 -0.2753  0.9199  0.5706
 1842ntf    fn415472   0.428   2.129   2.893 -0.0347  0.1267  0.0634
 1842ntf    fn415473   0.275   2.284   2.899 -0.0482  0.0314  0.5302
 1842ntf    on515474   0.563   2.374   2.806  0.1044 -0.8141  0.5075
 1842ntf    on515475   0.502   2.224   2.622  0.2313 -0.1620  0.0464
 1842ntf    on515476   0.287   2.664   2.609 -0.2859  0.0436 -0.0654
 1842ntf    on515477   0.429   2.618   2.808  0.0778 -0.3066  0.2859
 1842ntf    fn415478   0.116   2.677   2.843 -0.2922 -0.0733  0.1573
 1842ntf    fn415479   0.092   2.485   2.753  0.0710  0.1036  0.2449
 1842ntf    fn415480   0.196   2.502   2.933 -0.3863 -0.5900 -0.2840
 1843ntf    cn115481   4.151   0.486   4.652 -0.0862 -0.1251  0.0969
 1843ntf    sn215482   4.213   0.315   4.637 -0.0987 -0.1378  0.1896
 1843ntf    nn315483   4.339   0.325   4.731 -0.1863  0.4717  0.2454
 1843ntf    sn215484   4.340   0.306   4.887  0.2437 -0.2493  0.1591
 1843ntf    cn115485   4.385   0.478   4.928  0.1463 -0.2155  0.1237
 1843ntf    fn415486   4.102   0.506   4.773 -0.7391  0.0332 -0.1912
 1843ntf    fn415487   4.247   0.575   4.636 -0.1346 -0.1432 -0.3141
 1843ntf    fn415488   4.049   0.519   4.574 -0.1475 -0.3153  0.0960
 1843ntf    on515489   4.111   0.223   4.679 -0.2963 -0.2813 -0.5987
 1843ntf    on515490   4.242   0.296   4.497  0.6386  0.2117  0.2874
 1843ntf    on515491   4.462   0.249   4.936  0.1040 -0.6028  0.0938
 1843ntf    on515492   4.220   0.287   4.965 -0.0169 -0.0212 -0.1854
 1843ntf    fn415493   4.493   0.516   4.862 -0.4197  0.5091 -0.4066
 1843ntf    fn415494   4.286   0.561   4.897  0.3469 -0.0762 -0.1466
 1843ntf    fn415495   4.395   0.501   5.057  0.1887 -0.3582  0.1461
 1844ntf    cn115496   6.336   0.809   5.054  0.3179  0.3500 -0.1320
 1844ntf    sn215497   6.157   0.777   5.055  0.4060 -0.1472  0.2174
 1844ntf    nn315498   6.131   0.705   5.192  0.4501  0.0806  0.3473
 1844ntf    sn215499   6.071   0.755   5.328 -0.2583  0.4745 -0.1044
 1844ntf    cn115500   6.205   0.695   5.434 -0.3720  0.2037 -0.1134
 1844ntf    fn415501   6.410   0.701   5.075 -0.0617  0.1791  0.3406
 1844ntf    fn415502   6.370   0.852   4.933 -0.4269  0.3966 -0.3285
 1844ntf    fn415503   6.359   0.904   5.142 -0.0261  0.6590 -0.3726
 1844ntf    on515504   6.106   0.911   5.040  0.5240 -0.1434 -0.1505
 1844ntf    on515505   6.134   0.687   4.945  0.9233 -0.1847  0.1363
 1844ntf    on515506   5.959   0.671   5.361 -0.0802  0.3834  0.2647
 1844ntf    on515507   6.059   0.897   5.353  0.1270  0.4931 -0.0143
 1844ntf    fn415508   6.168   0.685   5.561  0.5960 -0.4981  0.1331
 1844ntf    fn415509   6.253   0.578   5.394 -0.2442  0.2702 -0.1540
 1844ntf    fn415510   6.306   0.781   5.433  0.1520 -0.4008  0.0265
 1845ntf    cn115511   2.766   3.783   4.273  0.0311 -0.0971  0.7013
 1845ntf    sn215512   2.788   3.610   4.224 -0.3326  0.0249  0.0907
 1845ntf    nn315513   2.748   3.600   4.073 -0.1520  0.1979  0.0318
 1845ntf    sn215514   2.833   3.597   3.940 -0.1592 -0.0372  0.0313
 1845ntf    cn115515   2.872   3.769   3.896 -0.1127 -0.0636 -0.0315
 1845ntf    fn415516   2.816   3.824   4.389 -0.1469  0.2822  0.6468
 1845ntf    fn415517   2.815   3.864   4.180 -0.2560 -0.4091  0.2719
 1845ntf    fn415518   2.637   3.813   4.279  0.0570  0.1878 -0.0598
 1845ntf    on515519   2.926   3.588   4.260 -0.3875 -0.1101  0.2230
 1845ntf    on515520   2.689   3.545   4.307 -0.2039 -0.5381 -0.1891
 1845ntf    on515521   2.756   3.542   3.831  0.2977  0.8457 -0.7461
 1845ntf    on515522   2.966   3.546   3.961  0.0665  0.7700  0.6121
 1845ntf    fn415523   2.938   3.786   3.782  0.2475  0.2447  0.2196
 1845ntf    fn415524   2.762   3.841   3.879 -0.2682 -0.3473 -0.2285
 1845ntf    fn415525   2.937   3.838   3.988 -0.2696  0.2840 -0.1806
 1846ntf    cn115526   6.271   4.819   6.188 -0.5780 -0.3074  0.0991
 1846ntf    sn215527   6.089   4.806   6.181 -0.5809 -0.2390  0.0374
 1846ntf    nn315528   6.070   4.877   6.042 -0.2710 -0.0775  0.0784
 1846ntf    sn215529   5.961   4.844   5.935 -0.0455  0.2793 -0.2668
 1846ntf    cn115530   6.064   4.744   5.824 -0.0663  0.1064 -0.1301
 1846ntf    fn415531   6.329   4.744   6.096 -0.0136 -0.0573  0.2522
 1846ntf    fn415532   6.317   4.942   6.173 -0.2325 -0.4211  0.2318
 1846ntf    fn415533   6.315   4.778   6.306 -0.5117 -0.1297  0.1355
 1846ntf    on515534   6.077   4.663   6.194  0.1810 -0.3385 -0.2774
 1846ntf    on515535   6.061   4.884   6.298 -0.1554 -0.1885  0.1098
 1846ntf    on515536   5.926   4.952   5.847 -0.2566  0.2144 -0.2651
 1846ntf    on515537   5.860   4.747   5.973 -0.0063  0.2070 -0.3463
 1846ntf    fn415538   6.015   4.713   5.705 -0.0017  0.0466 -0.1414
 1846ntf    fn415539   6.185   4.786   5.792  0.2030 -0.3697  0.2499
 1846ntf    fn415540   6.093   4.625   5.875 -0.2754  0.3464  0.5487
 1847ntf    cn115541   3.530   3.626   1.549  0.2909 -0.1980  0.0079
 1847ntf    sn215542   3.455   3.744   1.432  0.0794 -0.1130  0.2283
 1847ntf    nn315543   3.569   3.850   1.414  0.0205 -0.0457  0.2523
 1847ntf    sn215544   3.548   4.000   1.372  0.1580 -0.0994 -0.0091
 1847ntf    cn115545   3.636   3.988   1.213 -0.0268 -0.1010 -0.1106
 1847ntf    fn415546   3.646   3.577   1.508  0.3383 -0.0821  0.0011
 1847ntf    fn415547   3.548   3.684   1.666 -0.5488 -0.2528  0.1721
 1847ntf    fn415548   3.443   3.530   1.573  0.2670 -0.2409 -0.2483
 1847ntf    on515549   3.434   3.663   1.314  0.7437 -0.3065  0.2387
 1847ntf    on515550   3.342   3.788   1.509  0.4410  0.4612  0.4327
 1847ntf    on515551   3.630   4.092   1.447  0.4851 -0.1443 -0.3071
 1847ntf    on515552   3.415   4.041   1.338  0.0076 -0.0858  0.5982
 1847ntf    fn415553   3.646   4.105   1.151  0.1238  0.0513  0.2027
 1847ntf    fn415554   3.755   3.935   1.235 -0.1631 -0.4733 -0.2676
 1847ntf    fn415555   3.581   3.905   1.126 -0.0363  0.3160 -0.5086
 1848ntf    cn115556   4.023   5.069   2.360  0.0837  0.1689  0.1614
 1848ntf    sn215557   3.843   5.054   2.342  0.1233 -0.1591  0.0293
 1848ntf    nn315558   3.806   4.905   2.312  0.0261 -0.0494 -0.4028
 1848ntf    sn215559   3.779   4.828   2.177 -0.1300  0.2219 -0.5271
 1848ntf    cn115560   3.598   4.813   2.183 -0.0855 -0.0948  0.1551
 1848ntf    fn415561   4.064   5.010   2.471 -0.1667 -0.1620  0.0792
 1848ntf    fn415562   4.089   5.001   2.268  0.2371  0.2122  0.2393
 1848ntf    fn415563   4.068   5.193   2.363 -0.7497  0.4786  0.2219
 1848ntf    on515564   3.801   5.091   2.475  0.2148  0.2232 -0.0472
 1848ntf    on515565   3.809   5.151   2.240 -0.3151 -0.3214  0.0183
 1848ntf    on515566   3.820   4.691   2.194 -0.4337  0.0948 -0.8050
 1848ntf    on515567   3.798   4.901   2.054 -0.6000  0.1118 -0.6666
 1848ntf    fn415568   3.546   4.755   2.290 -0.1552  0.5629  0.4844
 1848ntf    fn415569   3.536   4.929   2.174 -0.0770 -0.0812  0.2697
 1848ntf    fn415570   3.562   4.732   2.084  0.4234  0.5316 -0.5568
 1849ntf    cn115571   3.143   1.725   6.283  0.4181 -0.2199 -0.2199
 1849ntf    sn215572   3.134   1.552   6.338  0.0530 -0.1165  0.0544
 1849ntf    nn315573   2.998   1.500   6.279 -0.1701  0.2733  0.2258
 1849ntf    sn215574   2.958   1.353   6.241 -0.0387  0.2710  0.0928
 1849ntf    cn115575   2.784   1.372   6.192  0.0114  0.1137 -0.1458
 1849ntf    fn415576   3.185   1.745   6.160  0.4820 -0.3435 -0.2184
 1849ntf    fn415577   3.031   1.793   6.303 -0.1205 -1.0300 -0.4050
 1849ntf    fn415578   3.229   1.787   6.362  0.0524  0.3005 -0.2288
 1849ntf    on515579   3.253   1.497   6.276  0.2750 -0.0481  0.4166
 1849ntf    on515580   3.140   1.563   6.482 -0.1350  0.5069  0.0164
 1849ntf    on515581   2.949   1.266   6.356 -0.4061  0.0686 -0.0874
 1849ntf    on515582   3.031   1.303   6.128 -0.5019  0.3271 -0.2381
 1849ntf    fn415583   2.716   1.406   6.301 -0.3126 -0.3501 -0.1998
 1849ntf    fn415584   2.766   1.466   6.100 -0.1575  0.2008 -0.0259
 1849ntf    fn415585   2.733   1.264   6.134  0.2174 -0.0043 -0.1087
 1850ntf    cn115586   2.803   2.060   2.513 -0.2290 -0.4159  0.4200
 1850ntf    sn215587   2.900   1.942   2.611  0.1732 -0.1742  0.3133
 1850ntf    nn315588   3.047   1.985   2.575  0.1427  0.1665  0.5882
 1850ntf    sn215589   3.161   2.062   2.650  0.2067  0.2801  0.3750
 1850ntf    cn115590   3.232   1.921   2.741  0.1626  0.0253  0.0154
 1850ntf    fn415591   2.801   2.180   2.570  0.7482 -0.0081 -0.3896
 1850ntf    fn415592   2.865   2.069   2.397 -0.2211  0.1150  0.4593
 1850ntf    fn415593   2.680   2.022   2.483 -0.2251 -0.0737 -0.0481
 1850ntf    on515594   2.859   1.981   2.743 -0.1304 -0.1561  0.2127
 1850ntf    on515595   2.862   1.815   2.556 -0.1877 -0.0734  0.3313
 1850ntf    on515596   3.119   2.157   2.750  0.5333  0.7751  0.0456
 1850ntf    on515597   3.275   2.102   2.570 -0.3617  0.1453 -0.5104
 1850ntf    fn415598   3.276   1.829   2.657 -0.7939 -0.1679 -0.2831
 1850ntf    fn415599   3.341   1.963   2.802 -0.2475  0.0879  0.7168
 1850ntf    fn415600   3.153   1.863   2.830 -0.2278  0.4558 -0.0465
 1851ntf    cn115601   6.045   2.955   4.672  0.4371 -0.2133  0.0823
 1851ntf    sn215602   6.062   2.789   4.743  0.2352 -0.3532 -0.1926
 1851ntf    nn315603   5.929   2.775   4.825  0.2196  0.4685 -0.0655
 1851ntf    sn215604   5.908   2.774   4.980  0.0341  0.1697 -0.0922
 1851ntf    cn115605   5.878   2.595   4.992 -0.2358  0.2021 -0.2888
 1851ntf    fn415606   6.037   3.041   4.773 -0.0784  0.1537 -0.2596
 1851ntf    fn415607   6.142   2.995   4.592  0.0010  0.3124 -0.1973
 1851ntf    fn415608   5.935   2.972   4.600  0.4017  0.2037  0.2287
 1851ntf    on515609   6.059   2.707   4.625 -0.4892  0.2273 -0.5828
 1851ntf    on515610   6.186   2.792   4.817  0.3200  0.9940 -0.3585
 1851ntf    on515611   5.778   2.825   5.017 -0.3671 -0.5380 -0.5122
 1851ntf    on515612   6.020   2.808   5.064  0.2472  0.7221 -0.5977
 1851ntf    fn415613   5.974   2.523   4.937  0.0914  0.2538  0.2149
 1851ntf    fn415614   5.861   2.549   5.115 -0.3595  0.2875 -0.2731
 1851ntf    fn415615   5.767   2.558   4.929 -0.2000  0.0942 -0.2893
 1852ntf    cn115616   3.667   0.179   0.803 -0.0140 -0.2394 -0.0061
 1852ntf    sn215617   3.608   0.032   0.713  0.0298 -0.2908  0.0496
 1852ntf    nn315618   3.459   0.078   0.692 -0.1091 -0.6594  0.2185
 1852ntf    sn215619   3.386   0.157   0.579  0.0558 -0.3968  0.2952
 1852ntf    cn115620   3.371   0.025   0.455  0.5958 -0.1730 -0.0129
 1852ntf    fn415621   3.794   0.175   0.837 -0.0434  0.0054  0.1288
 1852ntf    fn415622   3.658   0.285   0.725  0.4702 -0.0845  0.1470
 1852ntf    fn415623   3.600   0.206   0.914 -0.2934  0.4918 -0.3448
 1852ntf    on515624   3.691   0.033   0.596 -0.1401 -0.0859 -0.0694
 1852ntf    on515625   3.621  -0.069   0.815  0.3719 -0.3756 -0.0782
 1852ntf    on515626   3.469   0.255   0.513 -0.6910 -0.1150 -0.2483
 1852ntf    on515627   3.247   0.191   0.594 -0.0130 -0.5027 -0.0925
 1852ntf    fn415628   3.477   0.002   0.380  0.3504 -0.0340 -0.4052
 1852ntf    fn415629   3.337  -0.093   0.506  0.0222 -0.1865 -0.4212
 1852ntf    fn415630   3.280   0.059   0.366  0.5114  0.0314  0.1509
 1853ntf    cn115631   6.348   6.573   3.753 -0.4451 -0.2983  0.3070
 1853ntf    sn215632   6.442   6.443   3.839 -0.2463 -0.1349  0.3391
 1853ntf    nn315633   6.561   6.423   3.738 -0.5940  0.2051 -0.1438
 1853ntf    sn215634   6.584   6.314   3.628 -0.0440 -0.0798  0.2513
 1853ntf    cn115635   6.679   6.183   3.712  0.3456 -0.0861 -0.1921
 1853ntf    fn415636   6.244   6.602   3.828 -0.5583 -0.5341  0.2426
 1853ntf    fn415637   6.417   6.684   3.735 -0.1151 -0.5285  0.1255
 1853ntf    fn415638   6.299   6.538   3.635 -0.2107  0.6328 -0.0758
 1853ntf    on515639   6.485   6.507   3.960 -0.2453  0.2610  0.1304
 1853ntf    on515640   6.354   6.329   3.845  0.1548 -0.4416  0.4254
 1853ntf    on515641   6.675   6.368   3.531 -0.2863  0.0274  0.0844
 1853ntf    on515642   6.470   6.246   3.573 -0.1061  0.3416 -0.1420
 1853ntf    fn415643   6.605   6.145   3.815  0.3226  0.1438 -0.1227
 1853ntf    fn415644   6.695   6.074   3.639  0.3040 -0.5059  0.4118
 1853ntf    fn415645   6.800   6.219   3.749  0.1252 -0.3233  0.7890
 1854ntf    cn115646   2.291   1.451   3.698  0.2747  0.0788  0.2572
 1854ntf    sn215647   2.272   1.629   3.666 -0.5006 -0.0947 -0.2859
 1854ntf    nn315648   2.369   1.641   3.543 -0.2913 -0.1027 -0.1229
 1854ntf    sn215649   2.525   1.657   3.542 -0.3165  0.1312 -0.3641
 1854ntf    cn115650   2.534   1.839   3.534  0.2372  0.1148 -0.1726
 1854ntf    fn415651   2.241   1.375   3.602 -0.8397  0.5417  0.4539
 1854ntf    fn415652   2.421   1.426   3.699  0.2377 -0.1495 -0.1825
 1854ntf    fn415653   2.229   1.408   3.807 -0.2203 -0.1423 -0.1091
 1854ntf    on515654   2.136   1.643   3.620 -0.7755 -0.2453  0.4712
 1854ntf    on515655   2.305   1.696   3.789 -0.1957 -0.0169 -0.4086
 1854ntf    on515656   2.591   1.612   3.422 -0.1108 -0.1480 -0.1453
 1854ntf    on515657   2.591   1.622   3.665 -0.4148  0.0708 -0.3288
 1854ntf    fn415658   2.519   1.878   3.408  0.2335 -0.2657 -0.2908
 1854ntf    fn415659   2.447   1.902   3.611  0.0997  0.3754 -0.5389
 1854ntf    fn415660   2.655   1.881   3.567  0.1116  0.3472 -0.0048
 1855ntf    cn115661   0.928   0.850   3.009  0.2817  0.2052  0.1119
 1855ntf    sn215662   0.838   0.717   3.095  0.2349 -0.0973 -0.4035
 1855ntf    nn315663   0.911   0.719   3.234 -0.4226 -0.4025 -0.0520
 1855ntf    sn215664   1.013   0.613   3.287 -0.1232 -0.1851 -0.1931
 1855ntf    cn115665   1.091   0.711   3.419 -0.3790 -0.0770 -0.1216
 1855ntf    fn415666   1.057   0.822   2.994  0.1481 -0.2371 -0.2174
 1855ntf    fn415667   0.882   0.864   2.886  0.8589  0.1680 -0.1102
 1855ntf    fn415668   0.912   0.960   3.081 -0.2393  0.2193 -0.0284
 1855ntf    on515669   0.710   0.779   3.119  0.2159 -0.2463 -0.1159
 1855ntf    on515670   0.846   0.598   3.013  0.5036 -0.0644 -0.4259
 1855ntf    on515671   1.123   0.592   3.196  0.3130 -0.0105  0.2877
 1855ntf    on515672   0.956   0.498   3.354 -0.1010  0.3231  0.7188
 1855ntf    fn415673   1.132   0.830   3.378 -0.0409 -0.3091 -0.4748
 1855ntf    fn415674   1.004   0.726   3.517  0.0443 -0.6976  0.3606
 1855ntf    fn415675   1.208   0.661   3.458 -0.2283  0.0319 -0.4329
 1856ntf    cn115676   4.367   6.607   1.941  0.0116 -0.1208 -0.2621
 1856ntf    sn215677   4.474   6.749   1.907  0.1015 -0.1234  0.0074
 1856ntf    nn315678   4.416   6.851   2.012 -0.9526 -0.8695  0.1587
 1856ntf    sn215679   4.303   6.960   2.004 -0.0217  0.0940 -0.0115
 1856ntf    cn115680   4.405   7.110   2.019 -0.2290  0.1912  0.4364
 1856ntf    fn415681   4.239   6.642   1.945 -0.0493 -0.3403 -0.2684
 1856ntf    fn415682   4.376   6.514   1.847  0.0180 -0.1218 -0.2603
 1856ntf    fn415683   4.398   6.548   2.056  0.1463 -0.3912 -0.4370
 1856ntf    on515684   4.604   6.707   1.952  0.3375  0.5970  0.0237
 1856ntf    on515685   4.452   6.783   1.769 -0.2860 -0.1760  0.0553
 1856ntf    on515686   4.216   6.962   2.119 -0.1798 -0.3903 -0.1222
 1856ntf    on515687   4.240   6.987   1.877  0.2521 -0.3891 -0.2520
 1856ntf    fn415688   4.342   7.224   1.996  0.4643  0.4565 -0.1736
 1856ntf    fn415689   4.471   7.127   2.133  0.3625 -0.2777  0.1675
 1856ntf    fn415690   4.502   7.112   1.929 -0.3536 -0.4928  0.2832
 1857ntf    cn115691   0.743   2.298   3.956 -0.0643  0.3087 -0.3942
 1857ntf    sn215692   0.923   2.322   3.947  0.0215 -0.1037  0.1962
 1857ntf    nn315693   0.953   2.352   4.098  0.0968  0.4391  0.0764
 1857ntf    sn215694   1.062   2.285   4.190  0.0443  0.5582  0.2245
 1857ntf    cn115695   1.210   2.380   4.146  0.1002  0.3610 -0.0179
 1857ntf    fn415696   0.682   2.307   3.839  0.0933  0.2323 -0.4831
 1857ntf    fn415697   0.712   2.180   4.006 -0.1840  0.4586 -0.1120
 1857ntf    fn415698   0.689   2.392   4.032  0.8725  0.3913  0.1844
 1857ntf    on515699   0.985   2.204   3.891  0.4518 -0.1305  0.7236
 1857ntf    on515700   0.929   2.439   3.862 -0.3274  0.1110  0.4652
 1857ntf    on515701   1.105   2.152   4.154 -0.9082  0.3933 -0.3417
 1857ntf    on515702   1.044   2.309   4.331 -0.0212  0.4088  0.2418
 1857ntf    fn415703   1.320   2.348   4.213 -0.4337 -0.3037  0.5555
 1857ntf    fn415704   1.253   2.365   4.022 -0.1490 -0.3162 -0.0261
 1857ntf    fn415705   1.182   2.508   4.165 -0.3869  0.3050 -0.3454
 1858ntf    cn115706   3.168   4.407   0.263  0.0516  0.2110  0.2791
 1858ntf    sn215707   3.249   4.275   0.358 -0.3298 -0.1301  0.1330
 1858ntf    nn315708   3.188   4.306   0.499 -0.5341  0.2461 -0.0391
 1858ntf    sn215709   3.227   4.274   0.648 -0.1070  0.2567 -0.1482
 1858ntf    cn115710   3.228   4.441   0.720  0.5836  0.1821  0.0185
 1858ntf    fn415711   3.036   4.411   0.268  0.0413 -0.4387  0.6790
 1858ntf    fn415712   3.211   4.525   0.305  0.1737  0.2959 -0.0806
 1858ntf    fn415713   3.195   4.400   0.134 -0.4498 -0.0718  0.1891
 1858ntf    on515714   3.211   4.155   0.287  0.0612  0.0846 -0.4506
 1858ntf    on515715   3.390   4.305   0.346 -0.3815  0.4169  0.8153
 1858ntf    on515716   3.360   4.219   0.660  0.0309  0.6480  0.1284
 1858ntf    on515717   3.119   4.203   0.711 -0.0253  0.0490 -0.2399
 1858ntf    fn415718   3.327   4.512   0.668  0.5297  0.0119 -0.3157
 1858ntf    fn415719   3.116   4.507   0.698  0.3991 -0.1214  0.0488
 1858ntf    fn415720   3.246   4.459   0.850  0.1473  0.4059  0.0500
 1859ntf    cn115721   1.819   1.833   5.629 -0.1356  0.0232  0.0378
 1859ntf    sn215722   1.655   1.837   5.707 -0.1493 -0.0698  0.0131
 1859ntf    nn315723   1.683   1.927   5.833 -0.1558 -0.0137 -0.0256
 1859ntf    sn215724   1.707   1.885   5.982 -0.2635 -0.2172 -0.0642
 1859ntf    cn115725   1.539   1.903   6.049 -0.2159  0.0135 -0.0060
 1859ntf    fn415726   1.818   1.741   5.534  0.0780  0.0322  0.0260
 1859ntf    fn415727   1.863   1.943   5.570  0.0680  0.1365  0.3985
 1859ntf    fn415728   1.908   1.798   5.719 -0.2870 -0.3408  0.0458
 1859ntf    on515729   1.571   1.902   5.609  0.0127 -0.6009 -0.4834
 1859ntf    on515730   1.616   1.700   5.732 -0.0088 -0.3140 -1.0474
 1859ntf    on515731   1.784   1.981   6.058 -0.0075 -0.5815  0.1429
 1859ntf    on515732   1.745   1.748   6.007  0.1475 -0.1576 -0.3407
 1859ntf    fn415733   1.519   2.021   6.107  0.2473  0.2186 -0.2571
 1859ntf    fn415734   1.445   1.886   5.958 -0.1344  0.3784 -0.1589
 1859ntf    fn415735   1.511   1.806   6.134 -0.3308  0.1467  0.1079
 1860ntf    cn115736   1.011   0.835   4.434  0.0499  0.2624 -0.1062
 1860ntf    sn215737   0.872   0.951   4.417 -0.2380 -0.0832 -0.1189
 1860ntf    nn315738   0.946   1.089   4.433 -1.0163  0.3336 -0.0567
 1860ntf    sn215739   0.980   1.176   4.559  0.1311 -0.2770  0.0722
 1860ntf    cn115740   0.847   1.300   4.554  0.2260 -0.1704  0.1614
 1860ntf    fn415741   1.099   0.833   4.336  0.0853 -0.2767 -0.0650
 1860ntf    fn415742   1.081   0.862   4.544 -0.0718  0.4118 -0.0653
 1860ntf    fn415743   0.962   0.713   4.444  0.2139  0.1844 -0.2436
 1860ntf    on515744   0.829   0.935   4.281 -0.5523 -0.4192  0.0171
 1860ntf    on515745   0.779   0.908   4.518 -0.1467  0.1115  0.0506
 1860ntf    on515746   1.100   1.254   4.543  0.0123 -0.0133  0.4389
 1860ntf    on515747   0.955   1.112   4.686 -0.5580 -0.3472 -0.0942
 1860ntf    fn415748   0.870   1.390   4.460 -0.4572  0.5981  0.7153
 1860ntf    fn415749   0.727   1.248   4.532  0.3403 -0.2119 -0.3795
 1860ntf    fn415750   0.843   1.364   4.669  0.5843 -0.4043  0.3067
 1861ntf    cn115751   3.755   2.872   6.213  0.2702 -0.3792  0.0926
 1861ntf    sn215752   3.752   2.977   6.065 -0.2322 -0.2583  0.1863
 1861ntf    nn315753   3.635   2.912   5.984 -0.0298 -0.1023 -0.2399
 1861ntf    sn215754   3.488   2.965   5.966 -0.0790 -0.1021  0.1358
 1861ntf    cn115755   3.505   3.048   5.805 -0.1527  0.0644  0.2135
 1861ntf    fn415756   3.637   2.858   6.270  0.1088  0.4572 -0.0232
 1861ntf    fn415757   3.795   2.748   6.187  0.1479 -0.3828 -0.0828
 1861ntf    fn415758   3.836   2.927   6.302 -0.4123  0.2962  0.3068
 1861ntf    on515759   3.732   3.113   6.110 -0.3873 -0.2047 -0.0415
 1861ntf    on515760   3.878   2.946   6.000 -0.1650  0.0442  0.1675
 1861ntf    on515761   3.446   3.076   6.048 -0.0130  0.2746 -0.3337
 1861ntf    on515762   3.388   2.865   5.940 -0.3680  0.2601 -0.1680
 1861ntf    fn415763   3.599   3.141   5.801  0.2304 -0.3287 -0.0516
 1861ntf    fn415764   3.538   2.964   5.708 -0.0150  0.0913  0.2384
 1861ntf    fn415765   3.393   3.107   5.765  0.0721  0.0196 -0.4932
 1862ntf    cn115766   0.266   3.422   4.146 -0.1658 -0.1590  0.0326
 1862ntf    sn215767   0.194   3.586   4.177  0.2108 -0.0387  0.2739
 1862ntf    nn315768   0.322   3.676   4.160  0.5018 -0.5194 -0.0808
 1862ntf    sn215769   0.405   3.763   4.261 -0.0520  0.0540 -0.1174
 1862ntf    cn115770   0.571   3.725   4.199 -0.3072 -0.2272 -0.6342
 1862ntf    fn415771   0.334   3.413   4.033  0.1634 -0.0913  0.2203
 1862ntf    fn415772   0.358   3.386   4.234 -0.2573 -0.7891 -0.1287
 1862ntf    fn415773   0.181   3.321   4.148 -0.4553  0.0858  0.2320
 1862ntf    on515774   0.108   3.609   4.064 -0.0686  0.5341  0.5991
 1862ntf    on515775   0.142   3.559   4.309 -0.3107 -0.1274  0.0505
 1862ntf    on515776   0.401   3.715   4.397  0.0126  0.2724 -0.0377
 1862ntf    on515777   0.396   3.906   4.246  0.0203  0.1035  0.2830
 1862ntf    fn415778   0.606   3.786   4.087 -0.0191  0.3116 -0.2561
 1862ntf    fn415779   0.673   3.751   4.280 -0.4456 -0.3635 -0.4169
 1862ntf    fn415780   0.578   3.599   4.160  0.4718 -0.4326  0.1407
 1863ntf    cn115781   4.102   4.355   1.786  0.0910 -0.1083 -0.0343
 1863ntf    sn215782   4.225   4.226   1.752 -0.2763 -0.4204 -0.1813
 1863ntf    nn315783   4.168   4.105   1.834  0.0210 -0.1912  0.3617
 1863ntf    sn215784   4.242   3.969   1.860 -0.0258 -0.2935 -0.0390
 1863ntf    cn115785   4.297   3.990   2.032  0.2560  0.0465 -0.1685
 1863ntf    fn415786   4.114   4.459   1.704 -0.0525  0.1545  0.2739
 1863ntf    fn415787   3.976   4.315   1.784  0.0378  0.0647 -0.1789
 1863ntf    fn415788   4.117   4.399   1.909  0.2042 -0.1430 -0.0357
 1863ntf    on515789   4.200   4.203   1.611 -0.6209 -0.2773 -0.1456
 1863ntf    on515790   4.349   4.286   1.792 -0.3518 -0.3260 -0.0885
 1863ntf    on515791   4.370   3.951   1.796  0.2340  0.2413  0.3209
 1863ntf    on515792   4.152   3.857   1.859 -0.0222 -0.2953 -0.4490
 1863ntf    fn415793   4.358   4.106   2.048 -0.0225  0.2238 -0.3862
 1863ntf    fn415794   4.199   3.983   2.120  0.2808  0.2829 -0.1204
 1863ntf    fn415795   4.390   3.899   2.059  0.0155  0.0339  0.6366
 1864ntf    cn115796   1.699   2.106   3.054 -0.0018 -0.1011  0.0624
 1864ntf    sn215797   1.833   2.006   3.126  0.2203  0.0991 -0.0708
 1864ntf    nn315798   1.767   1.867   3.099  0.2426  0.0271  0.2334
 1864ntf    sn215799   1.674   1.781   3.192 -0.2927  0.3303 -0.0108
 1864ntf    cn115800   1.684   1.629   3.094  0.4251  0.2524  0.1765
 1864ntf    fn415801   1.733   2.232   3.030 -0.6149  0.1288  0.3837
 1864ntf    fn415802   1.659   2.053   2.940  0.2986  0.2255 -0.1974
 1864ntf    fn415803   1.598   2.106   3.139  0.0595  0.3172  0.1386
 1864ntf    on515804   1.950   2.031   3.045  0.7154 -0.2299  0.5321
 1864ntf    on515805   1.841   2.036   3.267  0.2640  0.2467 -0.1045
 1864ntf    on515806   1.537   1.824   3.185 -0.2249  0.5360 -0.1043
 1864ntf    on515807   1.726   1.744   3.322 -0.6453 -0.0809  0.0135
 1864ntf    fn415808   1.806   1.576   3.093  0.3114 -0.0145  0.2705
 1864ntf    fn415809   1.604   1.537   3.146 -0.0613  0.3908 -0.3235
 1864ntf    fn415810   1.646   1.654   2.970 -0.1447  0.2639  0.3520
 1865ntf    cn115811   2.757   4.236   5.133  0.1564  0.4983  0.2569
 1865ntf    sn215812   2.713   4.193   5.304  0.2273 -0.2479  0.0885
 1865ntf    nn315813   2.640   4.325   5.346  0.5482 -0.0428  0.0019
 1865ntf    sn215814   2.657   4.396   5.486 -0.1764 -0.0815  0.1102
 1865ntf    cn115815   2.520   4.308   5.567 -0.2982 -0.0210 -0.0274
 1865ntf    fn415816   2.845   4.334   5.132  0.2964  0.3699 -0.0686
 1865ntf    fn415817   2.806   4.129   5.074  0.6045  0.5198  0.5814
 1865ntf    fn415818   2.653   4.272   5.060 -0.0355 -0.0573  0.2548
 1865ntf    on515819   2.623   4.082   5.282  0.4261 -0.3942  0.0018
 1865ntf    on515820   2.840   4.166   5.368  0.3926 -0.1645 -0.2043
 1865ntf    on515821   2.625   4.536   5.487  0.3923  0.0480  0.0394
 1865ntf    on515822   2.774   4.355   5.558 -0.2443 -0.4662  0.0079
 1865ntf    fn415823   2.555   4.183   5.595 -0.1707  0.0080 -0.0558
 1865ntf    fn415824   2.481   4.357   5.684 -0.2916 -0.4128  0.1432
 1865ntf    fn415825   2.412   4.305   5.491 -0.3222 -0.2272  0.0154
 1866ntf    cn115826   1.531   3.682   5.856  0.1579  0.0049 -0.4751
 1866ntf    sn215827   1.373   3.762   5.814  0.0492 -0.0831 -0.2300
 1866ntf    nn315828   1.284   3.632   5.807 -0.0598 -0.0036 -0.3263
 1866ntf    sn215829   1.149   3.595   5.877  0.1038 -0.3157 -0.1719
 1866ntf    cn115830   1.217   3.541   6.036  0.1296  0.0102 -0.0708
 1866ntf    fn415831   1.635   3.763   5.846 -0.0733  0.3759  0.1010
 1866ntf    fn415832   1.537   3.641   5.982 -0.1324  0.3516 -0.3483
 1866ntf    fn415833   1.549   3.568   5.791  0.6310  0.3200 -0.9050
 1866ntf    on515834   1.356   3.857   5.921 -0.2435 -0.3188 -0.0621
 1866ntf    on515835   1.395   3.818   5.683 -0.0950 -0.2622 -0.3312
 1866ntf    on515836   1.090   3.470   5.835 -0.0164 -0.1246 -0.5790
 1866ntf    on515837   1.062   3.707   5.905 -0.5014 -0.6188 -0.7784
 1866ntf    fn415838   1.234   3.642   6.120  0.3940 -0.0985  0.0093
 1866ntf    fn415839   1.143   3.450   6.097  0.2554 -0.2414 -0.2906
 1866ntf    fn415840   1.340   3.493   6.022  0.2100 -0.0611  0.8178
 1867ntf    cn115841   5.393   6.457   0.413 -0.0326 -0.1804  0.2440
 1867ntf    sn215842   5.213   6.432   0.407 -0.0175 -0.1891 -0.2108
 1867ntf    nn315843   5.168   6.503   0.539  0.4411 -0.0882 -0.1075
 1867ntf    sn215844   5.038   6.475   0.624  0.4296  0.3297  0.0141
 1867ntf    cn115845   5.098   6.360   0.751 -0.1185  0.5437  0.4655
 1867ntf    fn415846   5.448   6.397   0.517  0.1555  0.0752  0.2934
 1867ntf    fn415847   5.455   6.418   0.303 -0.1536  0.6645 -0.1295
 1867ntf    fn415848   5.428   6.584   0.423 -0.3615 -0.0333 -0.4119
 1867ntf    on515849   5.180   6.497   0.283 -0.2487 -0.2741 -0.1950
 1867ntf    on515850   5.201   6.288   0.417 -0.5622 -0.1154  0.2490
 1867ntf    on515851   4.931   6.398   0.567  0.2293  0.6925 -0.1057
 1867ntf    on515852   5.008   6.594   0.700 -0.0899  0.1661  0.0665
 1867ntf    fn415853   5.136   6.246   0.697  0.2007  0.7015  0.3583
 1867ntf    fn415854   5.204   6.408   0.813  0.2049  0.1128  0.2483
 1867ntf    fn415855   5.011   6.342   0.850 -0.4146  0.3015  0.1606
 1868ntf    cn115856   5.488   5.456   3.975  0.3283  0.0238  0.0832
 1868ntf    sn215857   5.526   5.463   3.798  0.3666  0.2028  0.0984
 1868ntf    nn315858   5.414   5.563   3.752  0.2860 -0.1358 -0.4528
 1868ntf    sn215859   5.402   5.646   3.619  0.0686  0.0425 -0.3217
 1868ntf    cn115860   5.225   5.618   3.585  0.0037  0.0735 -0.0121
 1868ntf    fn415861   5.487   5.577   4.027  0.6034 -0.1661  0.5355
 1868ntf    fn415862   5.365   5.407   3.985  0.2356  0.1921 -0.2201
 1868ntf    fn415863   5.562   5.374   4.048 -0.2156  0.0313  0.6604
 1868ntf    on515864   5.660   5.517   3.794  0.5789 -0.3296 -0.1381
 1868ntf    on515865   5.497   5.335   3.739 -0.2470  0.2059  0.3819
 1868ntf    on515866   5.465   5.596   3.500  0.6710 -0.2514  0.1168
 1868ntf    on515867   5.408   5.787   3.651 -0.4237 -0.0972  0.4334
 1868ntf    fn415868   5.193   5.670   3.468  0.1032 -0.1698 -0.1466
 1868ntf    fn415869   5.178   5.495   3.581  0.0548  0.0397  0.3240
 1868ntf    fn415870   5.156   5.679   3.680 -0.2358  0.2360 -0.2903
 1869ntf    cn115871   1.497   0.384   2.269  0.0892  0.3860 -0.2857
 1869ntf    sn215872   1.448   0.498   2.401 -0.1224 -0.1636  0.1141
 1869ntf    nn315873   1.526   0.437   2.523 -0.1001 -0.9059 -0.2683
 1869ntf    sn215874   1.469   0.347   2.639 -0.4614 -0.0022  0.2679
 1869ntf    cn115875   1.381   0.475   2.733 -0.5563 -0.2897  0.5715
 1869ntf    fn415876   1.449   0.261   2.275  0.2747  0.3164 -0.1966
 1869ntf    fn415877   1.465   0.431   2.150 -0.0626 -0.0543 -0.4195
 1869ntf    fn415878   1.628   0.364   2.267 -0.0346 -0.5220  0.0984
 1869ntf    on515879   1.509   0.622   2.361  0.4224 -0.3210  0.4486
 1869ntf    on515880   1.304   0.494   2.400 -0.1338  0.2323 -0.0753
 1869ntf    on515881   1.577   0.298   2.722  0.0714  0.0051 -0.4075
 1869ntf    on515882   1.364   0.256   2.603 -0.2049 -0.0245 -0.4437
 1869ntf    fn415883   1.286   0.541   2.668 -0.2893 -0.2138  0.2564
 1869ntf    fn415884   1.324   0.429   2.843 -0.6147  0.0813  0.6966
 1869ntf    fn415885   1.465   0.570   2.771 -0.7543  0.0168  0.2581
 1870ntf    cn115886   0.598   4.037   4.983  0.1756 -0.0405 -0.2288
 1870ntf    sn215887   0.534   3.867   4.978 -0.0941  0.0544 -0.0501
 1870ntf    nn315888   0.400   3.886   5.058 -0.1350  0.1984 -0.1543
 1870ntf    sn215889   0.263   3.814   5.031  0.0604 -0.2471  0.0486
 1870ntf    cn115890   0.186   3.942   4.928  0.2819 -0.0680  0.1028
 1870ntf    fn415891   0.626   4.076   5.106 -0.1827  0.3057 -0.2530
 1870ntf    fn415892   0.706   4.054   4.908  0.1032  0.3967 -0.2359
 1870ntf    fn415893   0.509   4.120   4.930  0.3982  0.1465 -0.3073
 1870ntf    on515894   0.517   3.838   4.838 -0.3544 -0.1454  0.0220
 1870ntf    on515895   0.640   3.801   5.051  0.1086 -0.0832 -0.4657
 1870ntf    on515896   0.177   3.812   5.147  0.2571 -0.3788  0.1930
 1870ntf    on515897   0.272   3.693   4.954  0.2773 -0.3012  0.1562
 1870ntf    fn415898   0.260   3.995   4.832  0.2147  0.0270  0.1034
 1870ntf    fn415899   0.084   3.884   4.866  0.5329 -0.2497 -0.1431
 1870ntf    fn415900   0.143   4.042   5.003  0.5981  0.0910  0.0727
 1871ntf    cn115901   0.251   0.826   2.033  0.0840 -0.2890  0.0727
 1871ntf    sn215902   0.071   0.850   2.030  0.1391  0.1298  0.0734
 1871ntf    nn315903   0.011   0.728   2.109 -0.1646  0.0893 -0.2177
 1871ntf    sn215904  -0.027   0.713   2.260  0.0155  0.1388 -0.1675
 1871ntf    cn115905  -0.201   0.664   2.242  0.2046 -0.6000 -0.0494
 1871ntf    fn415906   0.315   0.940   2.053  0.4149 -0.5460  0.5099
 1871ntf    fn415907   0.297   0.753   2.133 -0.2666  0.1004  0.5210
 1871ntf    fn415908   0.293   0.776   1.918 -0.0885  0.2789 -0.2388
 1871ntf    on515909   0.065   0.983   2.086 -0.0977 -0.0630  0.5174
 1871ntf    on515910   0.035   0.838   1.891 -0.0650  0.1026  0.1280
 1871ntf    on515911  -0.036   0.828   2.346 -0.0018 -0.0509  0.0878
 1871ntf    on515912   0.024   0.592   2.320 -0.5122  0.2721  0.5690
 1871ntf    fn415913  -0.226   0.554   2.173 -0.1370 -0.3339 -0.3545
 1871ntf    fn415914  -0.250   0.647   2.363 -0.0716 -0.0347 -0.0780
 1871ntf    fn415915  -0.274   0.761   2.189  0.4717 -0.0629  0.5431
 1872ntf    cn115916   3.886   5.493   4.981  0.5328  0.6096 -0.2237
 1872ntf    sn215917   4.007   5.618   5.034  0.6871  0.2730  0.2339
 1872ntf    nn315918   4.137   5.555   4.973  0.4312  0.1894 -0.2299
 1872ntf    sn215919   4.287   5.556   5.017  0.3469  0.1272  0.0588
 1872ntf    cn115920   4.298   5.412   5.128  0.1201  0.1943  0.1682
 1872ntf    fn415921   3.904   5.449   4.857  0.4624  0.0929 -0.0549
 1872ntf    fn415922   3.893   5.377   5.046 -0.4541  0.5897 -0.1409
 1872ntf    fn415923   3.759   5.528   4.991  0.3785 -0.0033  0.0563
 1872ntf    on515924   3.955   5.741   4.978  0.0701 -0.0256  0.1458
 1872ntf    on515925   4.009   5.607   5.177 -0.3901  0.8157  0.3024
 1872ntf    on515926   4.332   5.670   5.093  0.5943  0.2211 -0.2261
 1872ntf    on515927   4.381   5.517   4.915  0.4454  0.2968  0.0853
 1872ntf    fn415928   4.423   5.373   5.148  0.0767  0.2656  0.5865
 1872ntf    fn415929   4.265   5.437   5.254  0.0419  0.0805  0.1704
 1872ntf    fn415930   4.224   5.309   5.091  0.0947  0.1743  0.2754
 1873ntf    cn115931   2.471   3.191   0.924 -0.1275  0.1540 -0.1811
 1873ntf    sn215932   2.320   3.247   1.009 -0.0284  0.0086  0.0918
 1873ntf    nn315933   2.230   3.123   0.975  0.2647 -0.2604  0.2892
 1873ntf    sn215934   2.143   3.091   0.848  0.2560 -0.0393  0.2394
 1873ntf    cn115935   1.990   3.169   0.907  0.0934 -0.3080  0.1745
 1873ntf    fn415936   2.452   3.177   0.793  0.4372  0.0799 -0.2568
 1873ntf    fn415937   2.572   3.274   0.941 -0.0964  0.0470  0.1523
 1873ntf    fn415938   2.517   3.074   0.966 -0.6387 -0.0753 -0.2499
 1873ntf    on515939   2.358   3.252   1.148  0.0766  0.3535  0.0518
 1873ntf    on515940   2.277   3.371   0.949 -0.2229  0.1322  0.4836
 1873ntf    on515941   2.103   2.953   0.843 -0.3695  0.1401  0.1309
 1873ntf    on515942   2.179   3.158   0.725  0.0429 -0.1020  0.1415
 1873ntf    fn415943   1.885   3.161   0.826  0.1803 -0.5440  0.0847
 1873ntf    fn415944   1.939   3.106   1.010 -0.0602 -0.0408  0.2638
 1873ntf    fn415945   2.001   3.298   0.938 -0.4833 -0.3813  0.7020
 1874ntf    cn115946   0.873   4.086   6.648  0.0415  0.1318  0.4477
 1874ntf    sn215947   0.857   4.121   6.471 -0.0017 -0.0739  0.4109
 1874ntf    nn315948   0.793   4.265   6.476  0.3037  0.0913 -0.2712
 1874ntf    sn215949   0.698   4.337   6.374  0.0500 -0.1386 -0.1973
 1874ntf    cn115950   0.534   4.287   6.433  0.0291  0.2842  0.1058
 1874ntf    fn415951   0.957   4.165   6.714  0.5235 -0.3417  0.4050
 1874ntf    fn415952   0.757   4.114   6.705  0.2051  0.5281  0.5943
 1874ntf    fn415953   0.904   3.959   6.669 -0.0205 -0.0386 -0.4722
 1874ntf    on515954   0.994   4.124   6.426  0.1947 -0.2481  0.9915
 1874ntf    on515955   0.774   4.015   6.420 -0.2968 -0.0094  0.7533
 1874ntf    on515956   0.703   4.305   6.234 -0.0715  0.0330 -0.2407
 1874ntf    on515957   0.704   4.477   6.409 -0.2487  0.0062 -0.7159
 1874ntf    fn415958   0.445   4.383   6.412 -0.2605 -0.0609 -0.2580
 1874ntf    fn415959   0.487   4.174   6.384  0.7928  0.0961 -0.1966
 1874ntf    fn415960   0.525   4.263   6.563  0.3759  0.1979  0.1140
 1875ntf    cn115961   3.759   1.568   2.402 -0.2541 -0.3182 -0.3737
 1875ntf    sn215962   3.799   1.481   2.557  0.1127  0.2984 -0.1198
 1875ntf    nn315963   3.689   1.541   2.652  0.0447 -0.2389  0.1450
 1875ntf    sn215964   3.612   1.479   2.774 -0.1892  0.0622  0.1532
 1875ntf    cn115965   3.459   1.430   2.690  0.2273 -0.6392 -0.2103
 1875ntf    fn415966   3.817   1.499   2.305  0.5503  0.0548 -0.1693
 1875ntf    fn415967   3.629   1.564   2.380 -0.2807  0.0575 -0.2912
 1875ntf    fn415968   3.788   1.697   2.397  0.2876 -0.4279 -0.1689
 1875ntf    on515969   3.781   1.343   2.520 -0.2260  0.2085  0.3699
 1875ntf    on515970   3.935   1.522   2.581  0.1620  0.1363 -0.1227
 1875ntf    on515971   3.570   1.581   2.867 -0.1829  0.3263 -0.1327
 1875ntf    on515972   3.668   1.358   2.830  0.6874  0.3976  0.0242
 1875ntf    fn415973   3.396   1.536   2.640  0.2007 -0.6208 -0.1380
 1875ntf    fn415974   3.476   1.346   2.589  0.2590 -0.3733 -0.4290
 1875ntf    fn415975   3.380   1.373   2.779 -0.1315  0.1559 -0.0128
 1876ntf    cn115976   3.812   0.916   1.725  0.1886  0.2628 -0.0893
 1876ntf    sn215977   3.791   0.990   1.889  0.1634  0.1687 -0.0495
 1876ntf    nn315978   3.680   1.095   1.851 -0.0359 -0.1796 -0.4282
 1876ntf    sn215979   3.526   1.068   1.867 -0.1151  0.3757 -0.2501
 1876ntf    cn115980   3.464   1.198   1.756 -0.4373  0.3213 -0.1332
 1876ntf    fn415981   3.892   0.811   1.731  0.0417  0.1354 -0.3183
 1876ntf    fn415982   3.695   0.877   1.677  0.1796 -0.4987  0.5201
 1876ntf    fn415983   3.859   1.004   1.639  0.4828 -0.1978 -0.4001
 1876ntf    on515984   3.754   0.874   1.966  0.0124 -0.1180 -0.5497
 1876ntf    on515985   3.912   1.062   1.923  0.3145  0.0896 -0.4212
 1876ntf    on515986   3.473   1.091   1.999 -0.5008  0.4031 -0.4097
 1876ntf    on515987   3.484   0.949   1.797  0.0766 -0.1690  0.5541
 1876ntf    fn415988   3.332   1.207   1.769 -0.4515 -0.2111  0.0858
 1876ntf    fn415989   3.520   1.316   1.778  0.2573 -0.0129 -0.1041
 1876ntf    fn415990   3.488   1.170   1.629  0.3894  0.2408  0.0374
 1877ntf    cn115991   5.130   1.815   1.914  0.1855 -0.1384 -0.0043
 1877ntf    sn215992   5.220   1.662   1.874  0.0490 -0.1165 -0.3983
 1877ntf    nn315993   5.120   1.588   1.777 -0.3571 -0.0871 -0.0043
 1877ntf    sn215994   5.109   1.433   1.751  0.1093 -0.1736  0.3027
 1877ntf    cn115995   4.931   1.415   1.783  0.0431 -0.1805 -0.0679
 1877ntf    fn415996   5.020   1.788   1.981  0.1491 -1.0718 -0.4180
 1877ntf    fn415997   5.198   1.895   1.994 -0.0235 -0.2464  0.2812
 1877ntf    fn415998   5.100   1.890   1.809  0.3475  0.6281  0.4915
 1877ntf    on515999   5.342   1.703   1.808  0.2310  0.2196  0.1476
 1877ntf    on516000   5.232   1.598   2.002 -0.0520  0.3050 -0.1776
 1877ntf    on516001   5.172   1.347   1.848 -0.2879 -0.6164  0.1675
 1877ntf    on516002   5.128   1.411   1.610 -0.2056 -0.3337  0.2861
 1877ntf    fn416003   4.903   1.477   1.897 -0.2766  0.2293 -0.3684
 1877ntf    fn416004   4.852   1.476   1.697 -0.2785 -0.5461 -0.0344
 1877ntf    fn416005   4.883   1.292   1.794  0.0524 -0.1917 -0.1531
 1878ntf    cn116006   0.228   0.052   6.164 -0.4143  0.0158  0.3781
 1878ntf    sn216007   0.261   0.137   6.321  0.0586  0.1625  0.2016
 1878ntf    nn316008   0.222   0.285   6.284 -0.1144  0.0418 -0.0977
 1878ntf    sn216009   0.236   0.413   6.373  0.2501 -0.1160  0.0737
 1878ntf    cn116010   0.078   0.425   6.462  0.1562 -0.1602 -0.0852
 1878ntf    fn416011   0.255  -0.076   6.176  0.2054  0.0726 -0.3742
 1878ntf    fn416012   0.106   0.063   6.114 -0.0664  0.0738 -0.4762
 1878ntf    fn416013   0.310   0.099   6.072 -0.6129 -0.2077  0.0857
 1878ntf    on516014   0.164   0.068   6.404 -0.4709  0.3696 -0.2368
 1878ntf    on516015   0.399   0.104   6.346  0.0739  0.0341 -0.0562
 1878ntf    on516016   0.243   0.533   6.292 -0.5502  0.1834  0.4432
 1878ntf    on516017   0.328   0.391   6.482  0.5282 -0.0307 -0.1412
 1878ntf    fn416018   0.033   0.549   6.473  0.0953 -0.1867 -0.0330
 1878ntf    fn416019  -0.011   0.357   6.392 -0.0079  0.1299 -0.1574
 1878ntf    fn416020   0.075   0.364   6.580 -0.0580  0.5460  0.2789
 1879ntf    cn116021   4.233   3.997   0.566 -0.0489 -0.2048 -0.0918
 1879ntf    sn216022   4.174   4.107   0.434 -0.2702 -0.2823 -0.0581
 1879ntf    nn316023   4.027   4.052   0.430 -0.2501 -0.3587  0.1949
 1879ntf    sn216024   3.968   3.938   0.340  0.0170 -0.1336 -0.2704
 1879ntf    cn116025   3.877   4.041   0.222  0.0854  0.3389  0.0885
 1879ntf    fn416026   4.351   4.031   0.614 -0.5411  0.5189  0.6264
 1879ntf    fn416027   4.150   3.991   0.669 -0.2141 -0.5241 -0.2417
 1879ntf    fn416028   4.256   3.873   0.524  0.4940 -0.1767  0.1086
 1879ntf    on516029   4.176   4.236   0.498  0.2529 -0.0908 -0.4524
 1879ntf    on516030   4.257   4.086   0.318 -0.0481  0.0282  0.0431
 1879ntf    on516031   3.856   3.869   0.399 -0.2424  0.3528 -0.1900
 1879ntf    on516032   4.061   3.858   0.263  0.0483 -0.0938 -0.2738
 1879ntf    fn416033   3.776   3.979   0.162  0.1337  0.2587  0.0904
 1879ntf    fn416034   3.821   4.151   0.272 -0.1158  0.3474 -0.1518
 1879ntf    fn416035   3.957   4.085   0.126  0.4910 -0.0158  0.2660
 1880ntf    cn116036   0.422   2.633   3.828  0.0705  0.1591 -0.4265
 1880ntf    sn216037   0.287   2.745   3.876  0.6093  0.5287  0.2597
 1880ntf    nn316038   0.360   2.855   3.961 -0.1071  0.4362  1.0039
 1880ntf    sn216039   0.417   2.992   3.911  0.0943 -0.0615 -0.1748
 1880ntf    cn116040   0.373   3.085   4.061 -0.2247 -0.3412 -0.0961
 1880ntf    fn416041   0.482   2.584   3.936  0.0730  0.4015 -0.3147
 1880ntf    fn416042   0.390   2.524   3.761 -0.1074 -0.1212  0.1098
 1880ntf    fn416043   0.520   2.697   3.766  0.2398  0.1834 -0.1392
 1880ntf    on516044   0.226   2.781   3.750  0.1104  0.2717  0.4243
 1880ntf    on516045   0.206   2.664   3.963 -0.1165 -0.1259 -0.9930
 1880ntf    on516046   0.343   3.068   3.814 -0.0291 -0.1115 -0.1197
 1880ntf    on516047   0.561   2.999   3.906  0.1174  0.0736  0.4661
 1880ntf    fn416048   0.430   3.204   4.062 -0.0839 -0.4097 -0.0373
 1880ntf    fn416049   0.243   3.111   4.063 -0.1623 -0.0125 -0.2818
 1880ntf    fn416050   0.411   3.028   4.175 -0.2218 -0.1109  0.0178
 1881ntf    cn116051   3.200   4.728   5.368  0.5239  0.1963  0.1257
 1881ntf    sn216052   3.271   4.666   5.213 -0.0940 -0.0695 -0.0528
 1881ntf    nn316053   3.212   4.766   5.107 -0.3166  0.5825  0.6770
 1881ntf    sn216054   3.128   4.743   4.976  0.2860  0.2451  0.3489
 1881ntf    cn116055   3.020   4.889   4.975 -0.0866 -0.0325 -0.4077
 1881ntf    fn416056   3.070   4.714   5.385  0.4615  0.1306 -0.3957
 1881ntf    fn416057   3.263   4.670   5.469  0.1566  0.0160  0.2521
 1881ntf    fn416058   3.224   4.857   5.386  0.4678  0.1890  0.2546
 1881ntf    on516059   3.413   4.677   5.232 -0.1931  0.5814  0.3276
 1881ntf    on516060   3.210   4.536   5.200  0.5966 -0.4304  0.2774
 1881ntf    on516061   3.029   4.639   4.974  0.4676  0.0777 -0.8036
 1881ntf    on516062   3.211   4.756   4.858  0.7166  0.0318  0.6229
 1881ntf    fn416063   3.067   4.999   4.919 -0.3100 -0.0620 -0.6564
 1881ntf    fn416064   2.906   4.866   4.912 -0.2722 -0.4171  0.0586
 1881ntf    fn416065   2.992   4.926   5.099  0.1063 -0.4293 -0.2428
 1882ntf    cn116066   3.610   1.493   4.517 -0.1698  0.1606  0.4099
 1882ntf    sn216067   3.737   1.603   4.448 -0.3342  0.0467 -0.0713
 1882ntf    nn316068   3.720   1.573   4.295 -0.1627  0.2073 -0.1230
 1882ntf    sn216069   3.598   1.613   4.203 -0.0722  0.2416 -0.2288
 1882ntf    cn116070   3.671   1.750   4.108  0.2949  0.1261 -0.1186
 1882ntf    fn416071   3.491   1.507   4.463  0.0596  0.2246 -0.0842
 1882ntf    fn416072   3.640   1.365   4.501  0.5809  0.4225 -0.3472
 1882ntf    fn416073   3.586   1.514   4.646  0.1826 -0.1225  0.5240
 1882ntf    on516074   3.704   1.737   4.491 -0.2360 -0.0135  0.1936
 1882ntf    on516075   3.859   1.538   4.489 -0.0363  0.0638 -0.9072
 1882ntf    on516076   3.491   1.682   4.270  0.0740  0.1571  0.0950
 1882ntf    on516077   3.561   1.509   4.111  1.0468  0.2085 -0.6647
 1882ntf    fn416078   3.771   1.715   4.029  0.2478  0.1096 -0.1712
 1882ntf    fn416079   3.575   1.800   4.031  0.3983  0.5882  0.0523
 1882ntf    fn416080   3.710   1.854   4.180 -0.2232  0.4319 -0.2698
 1883ntf    cn116081   5.315   2.572   4.711  0.0006 -0.5283 -0.5172
 1883ntf    sn216082   5.179   2.622   4.603 -0.1609  0.0054 -0.0718
 1883ntf    nn316083   5.260   2.713   4.503 -0.0902 -0.0055 -0.0251
 1883ntf    sn216084   5.334   2.670   4.371 -0.4778  0.3114 -0.3485
 1883ntf    cn116085   5.204   2.667   4.245 -0.6135  0.0665 -0.2042
 1883ntf    fn416086   5.365   2.684   4.761 -0.5334 -0.5292  0.0294
 1883ntf    fn416087   5.275   2.500   4.815 -0.0925  0.0584 -0.1440
 1883ntf    fn416088   5.412   2.506   4.651  0.6140 -0.1089 -0.0059
 1883ntf    on516089   5.124   2.506   4.537  0.0062 -0.3018  0.3275
 1883ntf    on516090   5.092   2.698   4.689 -0.1262 -0.0595  0.0199
 1883ntf    on516091   5.389   2.537   4.378 -0.2433  0.4208 -0.0542
 1883ntf    on516092   5.424   2.774   4.327  0.4810 -0.1837  0.3887
 1883ntf    fn416093   5.130   2.777   4.252 -0.2347  0.3200 -0.1808
 1883ntf    fn416094   5.247   2.662   4.120 -0.4011 -0.1613 -0.1228
 1883ntf    fn416095   5.117   2.568   4.255 -0.2642 -0.1678  0.5769
 1884ntf    cn116096   6.385   0.324   2.882  0.3300 -0.0766 -0.0245
 1884ntf    sn216097   6.365   0.143   2.892  0.0580 -0.0548 -0.1826
 1884ntf    nn316098   6.516   0.109   2.913  0.0610  0.0220 -0.0805
 1884ntf    sn216099   6.577  -0.036   2.911  0.2405  0.0957 -0.0272
 1884ntf    cn116100   6.667  -0.044   2.753 -0.1927  0.4241 -0.2932
 1884ntf    fn416101   6.272   0.391   2.886  0.4385  0.1222 -0.2437
 1884ntf    fn416102   6.461   0.366   2.982 -0.0093 -0.1485  0.2660
 1884ntf    fn416103   6.443   0.364   2.770  0.3197 -0.1911 -0.0715
 1884ntf    on516104   6.278   0.120   3.005  0.3728  0.1709  0.1084
 1884ntf    on516105   6.315   0.107   2.762  0.1720  0.2132 -0.3027
 1884ntf    on516106   6.483  -0.143   2.889  0.4986 -0.0239 -0.5567
 1884ntf    on516107   6.680  -0.058   3.009  0.2549 -0.5104 -0.1738
 1884ntf    fn416108   6.786   0.009   2.776 -0.1531 -0.0348  0.5864
 1884ntf    fn416109   6.687  -0.167   2.711 -0.4314  0.4165 -0.3867
 1884ntf    fn416110   6.604   0.017   2.654 -0.1284  0.8503 -0.0756
 1885ntf    cn116111   1.285   2.049   2.029  0.0472 -0.0700  0.3255
 1885ntf    sn216112   1.193   2.197   2.081  0.2208  0.1547 -0.0043
 1885ntf    nn316113   1.077   2.176   1.977  0.2165 -0.3094  0.0938
 1885ntf    sn216114   0.926   2.140   2.004  0.0846 -0.0622 -0.3138
 1885ntf    cn116115   0.852   2.114   1.840 -0.1048  0.0131 -0.2405
 1885ntf    fn416116   1.409   2.062   2.074  0.1056  0.0991  0.1158
 1885ntf    fn416117   1.242   1.937   2.084 -0.2902  0.0433  0.2953
 1885ntf    fn416118   1.301   2.038   1.898  0.2445  0.6780  0.2847
 1885ntf    on516119   1.158   2.174   2.218  0.1890  0.2732  0.0070
 1885ntf    on516120   1.293   2.298   2.053  0.4853 -0.1343 -0.1112
 1885ntf    on516121   0.853   2.255   2.051  0.2263 -0.0057 -0.2306
 1885ntf    on516122   0.903   2.017   2.075 -0.2840  0.0543 -0.2282
 1885ntf    fn416123   0.888   2.210   1.757  0.2902 -0.0118 -0.1004
 1885ntf    fn416124   0.899   1.999   1.794 -0.2273 -0.1242 -0.0292
 1885ntf    fn416125   0.720   2.107   1.844 -0.1052 -0.0657 -0.3756
 1886ntf    cn116126   1.559   6.168   6.264  0.2962 -0.2347  0.2025
 1886ntf    sn216127   1.725   6.176   6.339  0.2720 -0.2268  0.2556
 1886ntf    nn316128   1.764   6.025   6.324  0.0732 -0.2958  0.4288
 1886ntf    sn216129   1.904   5.960   6.298  0.1244 -0.0134 -0.0113
 1886ntf    cn116130   1.877   5.869   6.142  0.0508  0.0689 -0.0467
 1886ntf    fn416131   1.473   6.094   6.333 -0.6380  0.4071 -0.2524
 1886ntf    fn416132   1.507   6.289   6.254  0.2891 -0.2393  0.1870
 1886ntf    fn416133   1.550   6.119   6.142 -0.0474  0.1917  0.0564
 1886ntf    on516134   1.787   6.272   6.251 -0.1145 -0.2666 -0.0634
 1886ntf    on516135   1.692   6.220   6.473 -0.4897 -0.2968  0.0970
 1886ntf    on516136   1.931   5.854   6.391 -0.3171 -0.5547 -0.4878
 1886ntf    on516137   2.021   6.038   6.265  0.1055  0.0745  0.1346
 1886ntf    fn416138   1.769   5.794   6.149  0.0272  0.1142  0.0818
 1886ntf    fn416139   1.861   5.947   6.036  0.3316  0.0846 -0.0773
 1886ntf    fn416140   1.973   5.782   6.116  0.1366  0.1153  0.1125
 1887ntf    cn116141   3.096   2.964   1.333  0.0270  0.0550 -0.0021
 1887ntf    sn216142   3.245   3.000   1.432  0.0272 -0.0807  0.0480
 1887ntf    nn316143   3.170   3.043   1.563  0.0045  0.0067  0.0067
 1887ntf    sn216144   3.118   3.181   1.616  0.1095  0.1247 -0.1952
 1887ntf    cn116145   3.064   3.145   1.786  0.1677  0.1363 -0.1740
 1887ntf    fn416146   2.999   3.053   1.336  0.1900  0.2339 -0.0019
 1887ntf    fn416147   3.123   2.940   1.206  0.5809 -0.1542  0.1508
 1887ntf    fn416148   3.039   2.854   1.379 -0.2797  0.0850 -0.3138
 1887ntf    on516149   3.307   2.871   1.443  0.4285  0.1086  0.0110
 1887ntf    on516150   3.309   3.102   1.353 -0.5409 -0.2141 -0.5988
 1887ntf    on516151   3.005   3.238   1.547 -0.2447 -0.1682  0.1353
 1887ntf    on516152   3.229   3.270   1.637  0.2697 -0.0814 -0.1696
 1887ntf    fn416153   3.009   3.024   1.793 -0.2442  0.3386  0.1129
 1887ntf    fn416154   3.162   3.147   1.875  0.5194  0.5213 -0.5706
 1887ntf    fn416155   2.967   3.227   1.823  0.4274  0.2735  0.2041
 1888ntf    cn116156   0.208   2.657   4.882  0.0557  0.1884 -0.1573
 1888ntf    sn216157   0.300   2.726   4.741  0.0508  0.1166 -0.1949
 1888ntf    nn316158   0.216   2.856   4.715  0.0221  0.2126  0.3499
 1888ntf    sn216159   0.255   3.004   4.749 -0.1452  0.3187  0.0846
 1888ntf    cn116160   0.362   3.047   4.609  0.0691  0.0554  0.1675
 1888ntf    fn416161   0.259   2.543   4.926  0.5025  0.2749 -0.4489
 1888ntf    fn416162   0.194   2.734   4.988  0.2926  0.6897 -0.4880
 1888ntf    fn416163   0.087   2.620   4.841 -0.2448  0.8718  0.0966
 1888ntf    on516164   0.436   2.741   4.785 -0.0266  0.4962 -0.0771
 1888ntf    on516165   0.270   2.626   4.642  0.6456 -0.2488 -0.0115
 1888ntf    on516166   0.334   3.021   4.868  0.1030 -0.4980  0.0370
 1888ntf    on516167   0.147   3.100   4.741 -0.4636 -0.0759 -0.4133
 1888ntf    fn416168   0.462   2.963   4.587 -0.1699 -0.1172 -0.2541
 1888ntf    fn416169   0.278   3.055   4.507  0.2876 -0.2280 -0.0378
 1888ntf    fn416170   0.410   3.170   4.622  0.2510  0.0873 -0.7491
 1889ntf    cn116171   2.973   0.368   1.709  0.1555 -0.1697  0.1345
 1889ntf    sn216172   2.993   0.502   1.831 -0.1844  0.1614 -0.1693
 1889ntf    nn316173   2.860   0.584   1.825 -0.0197  0.4505  0.0837
 1889ntf    sn216174   2.808   0.684   1.716  0.2614  0.3217 -0.1695
 1889ntf    cn116175   2.826   0.839   1.810 -0.3907  0.3900 -0.1524
 1889ntf    fn416176   3.064   0.274   1.728  0.3121 -0.0701 -0.1179
 1889ntf    fn416177   2.855   0.311   1.726  0.3871 -0.7453 -0.1568
 1889ntf    fn416178   2.988   0.401   1.582 -0.2688 -0.1345  0.0929
 1889ntf    on516179   2.995   0.427   1.955  0.4372 -0.2141 -0.4041
 1889ntf    on516180   3.108   0.580   1.792 -0.0144  0.1983  0.3869
 1889ntf    on516181   2.666   0.670   1.698  0.1723  0.4125  0.4275
 1889ntf    on516182   2.892   0.694   1.599  0.1805  0.1338 -0.2441
 1889ntf    fn416183   2.941   0.853   1.873 -0.3095  0.0768 -0.2279
 1889ntf    fn416184   2.806   0.946   1.734 -0.1141  0.3975 -0.2147
 1889ntf    fn416185   2.732   0.843   1.902  0.0420  0.0402  0.3096
 1890ntf    cn116186   3.992   0.420   2.462  0.1728 -0.1849 -0.9707
 1890ntf    sn216187   3.842   0.522   2.456 -0.0221 -0.4058  0.0506
 1890ntf    nn316188   3.773   0.455   2.332  0.2591 -0.3186 -0.1509
 1890ntf    sn216189   3.630   0.395   2.312  0.0872 -0.1027  0.4298
 1890ntf    cn116190   3.658   0.229   2.381 -0.0510 -0.1678  0.3290
 1890ntf    fn416191   3.963   0.291   2.474 -0.4943  0.0552  0.1215
 1890ntf    fn416192   4.068   0.433   2.354  0.7485  0.3271 -0.5093
 1890ntf    fn416193   4.076   0.445   2.561 -0.3859 -0.3799 -0.4390
 1890ntf    on516194   3.783   0.488   2.584 -0.3394  0.4684  0.1470
 1890ntf    on516195   3.888   0.657   2.433 -0.3577 -0.1426  0.8730
 1890ntf    on516196   3.601   0.378   2.172  0.4809 -0.1338  0.3511
 1890ntf    on516197   3.523   0.455   2.389  0.1324  0.0365  0.3843
 1890ntf    fn416198   3.549   0.153   2.380 -0.2225  0.0777 -0.2270
 1890ntf    fn416199   3.751   0.171   2.307 -0.2186 -0.2843  0.2067
 1890ntf    fn416200   3.707   0.229   2.503  0.3159  0.0237  0.1822
   6.71818   6.71818   6.71818
