Converted from moscito
 2376
    1SOL     ow    1   0.178   1.367   2.049 -0.1460  0.0667  0.1660
    1SOL     hw    2   0.191   1.273   2.041  1.0613  0.1076  1.2707
    1SOL     hw    3   0.243   1.395   2.113 -0.1398  1.7451 -0.5175
    1SOL     vw    4   0.188   1.358   2.057  0.0141  0.2935  0.2215
    2SOL     ow    5   0.844   0.149   2.152 -0.1708  0.6577 -0.2217
    2SOL     hw    6   0.843   0.141   2.057 -0.4121  0.1036 -0.1744
    2SOL     hw    7   0.937   0.147   2.176 -0.1054  0.8970 -0.4490
    2SOL     vw    8   0.856   0.148   2.143 -0.1940  0.6162 -0.2453
    3SOL     ow    9   1.412   2.278   5.781  0.0267 -0.3297 -0.4640
    3SOL     hw   10   1.359   2.228   5.843 -1.4876  2.0869  0.3130
    3SOL     hw   11   1.436   2.357   5.829  2.0927 -0.1157 -1.7381
    3SOL     vw   12   1.408   2.282   5.796  0.0995  0.0173 -0.5295
    4SOL     ow   13   1.897   1.636   0.026 -0.4821 -0.6769  0.4152
    4SOL     hw   14   1.846   1.587   0.090  1.3204 -0.9458  1.7134
    4SOL     hw   15   1.953   1.570  -0.015  0.4803 -0.0430  0.6892
    4SOL     vw   16   1.898   1.621   0.029 -0.1172 -0.6288  0.6226
    5SOL     ow   17   0.207   1.545   2.527  0.3595  0.1314  0.0170
    5SOL     hw   18   0.210   1.635   2.561 -1.9325  0.9946 -1.7973
    5SOL     hw   19   0.205   1.557   2.432  0.6558 -1.9085 -0.2767
    5SOL     vw   20   0.207   1.559   2.519  0.0962 -0.0238 -0.2612
    6SOL     ow   21   1.444   1.007   4.373  0.0120  0.3908  0.5375
    6SOL     hw   22   1.477   0.966   4.293  0.4974  1.6519  0.0647
    6SOL     hw   23   1.407   0.935   4.424 -0.6396 -0.3894 -0.9805
    6SOL     vw   24   1.444   0.992   4.370 -0.0100  0.4542  0.2751
    7SOL     ow   25   1.282   1.579   2.977  1.0268  0.2173 -0.6587
    7SOL     hw   26   1.280   1.642   3.050  0.9179 -1.8148  1.1864
    7SOL     hw   27   1.190   1.560   2.959  1.0710 -0.7656  0.0668
    7SOL     vw   28   1.269   1.585   2.984  1.0182 -0.1805 -0.3195
    8SOL     ow   29   1.302   0.136   6.376 -0.1936 -0.0675  0.7678
    8SOL     hw   30   1.264   0.061   6.332 -0.4758  1.6042 -2.0862
    8SOL     hw   31   1.397   0.125   6.367 -0.2523  0.6515 -1.1307
    8SOL     vw   32   1.309   0.125   6.369 -0.2387  0.2479  0.1411
    9SOL     ow   33   1.455   2.090   2.080 -0.5733 -0.3115  0.2973
    9SOL     hw   34   1.545   2.124   2.071  0.5984 -3.1514  0.3235
    9SOL     hw   35   1.430   2.066   1.991  0.3622 -3.2562  0.7291
    9SOL     vw   36   1.464   2.092   2.067 -0.2953 -1.0748  0.3577
   10SOL     ow   37   1.151   1.403   3.687  0.1506 -0.3102  0.1518
   10SOL     hw   38   1.093   1.374   3.757 -0.1099  0.1509  0.1372
   10SOL     hw   39   1.200   1.476   3.725 -3.0938  2.9867 -1.3383
   10SOL     vw   40   1.149   1.409   3.701 -0.3119  0.1856 -0.0467
   11SOL     ow   41   1.357   0.618   3.711  0.2777 -0.2110  0.3437
   11SOL     hw   42   1.347   0.678   3.785  0.0873  2.1623 -1.4824
   11SOL     hw   43   1.305   0.541   3.735 -0.9432  1.0680  2.0699
   11SOL     vw   44   1.349   0.616   3.724  0.0914  0.2709  0.3304
   12SOL     ow   45   0.275   2.347   2.828 -0.0857 -0.5935 -0.0581
   12SOL     hw   46   0.240   2.434   2.849 -1.1324 -0.9989 -0.0612
   12SOL     hw   47   0.202   2.302   2.786  0.8735 -0.9968 -1.3607
   12SOL     vw   48   0.261   2.353   2.825 -0.0972 -0.7002 -0.2304
   13SOL     ow   49   2.014   0.986   4.333 -0.1530 -0.3089 -0.0980
   13SOL     hw   50   2.080   0.955   4.271  1.6953  1.5937  0.8086
   13SOL     hw   51   2.052   0.970   4.419 -0.7829  0.9767  0.4508
   13SOL     vw   52   2.028   0.980   4.336  0.0079  0.1118  0.0937
   14SOL     ow   53   0.955   1.473   5.900 -0.1239 -0.5149 -0.4472
   14SOL     hw   54   0.880   1.439   5.949 -1.9372  2.1326 -1.2033
   14SOL     hw   55   1.018   1.499   5.968 -1.4734  0.6246  0.4174
   14SOL     vw   56   0.953   1.472   5.916 -0.5412 -0.0153 -0.4327
   15SOL     ow   57   0.137   1.363   2.954  0.1372 -1.0002  0.0727
   15SOL     hw   58   0.167   1.448   2.985  2.2005 -2.0827  1.2456
   15SOL     hw   59   0.170   1.357   2.864 -0.5167 -0.3472 -0.2173
   15SOL     vw   60   0.146   1.373   2.946  0.3231 -1.0569  0.1893
   16SOL     ow   61   0.798   2.044   1.317  0.4983 -0.8981  0.2785
   16SOL     hw   62   0.709   2.049   1.350  0.5619  2.5076  0.2053
   16SOL     hw   63   0.852   2.027   1.394 -0.0663 -1.8510  0.4808
   16SOL     vw   64   0.794   2.042   1.331  0.4322 -0.5745  0.2955
   17SOL     ow   65   2.105   1.896   1.447  0.6491  0.2405  0.2409
   17SOL     hw   66   2.166   1.904   1.373  2.8982  0.6314  2.0283
   17SOL     hw   67   2.138   1.958   1.512 -3.0164  2.1667  0.5361
   17SOL     vw   68   2.117   1.905   1.446  0.4622  0.5462  0.5156
   18SOL     ow   69   1.903   2.149   5.641 -0.3383  0.1343 -0.5151
   18SOL     hw   70   1.937   2.151   5.551 -1.7702 -0.8191 -1.1226
   18SOL     hw   71   1.967   2.197   5.692  0.3556  0.9825 -2.1112
   18SOL     vw   72   1.916   2.155   5.636 -0.4356  0.1204 -0.8059
   19SOL     ow   73   0.005   1.925   4.391 -0.5335 -0.2504 -0.3243
   19SOL     hw   74   0.058   1.995   4.354  0.1876  0.0252  1.1331
   19SOL     hw   75  -0.081   1.936   4.352 -0.7956  2.2469  0.7511
   19SOL     vw   76   0.001   1.936   4.381 -0.4730  0.1155  0.0098
   20SOL     ow   77   0.677   1.677   4.628  0.9481 -0.2636 -0.9398
   20SOL     hw   78   0.629   1.757   4.605  0.8762  0.2717  0.8941
   20SOL     hw   79   0.768   1.704   4.633  0.6975  0.4349  2.1651
   20SOL     vw   80   0.682   1.691   4.626  0.9055 -0.1008 -0.2880
   21SOL     ow   81   1.771   1.608   2.776 -0.3740  0.4826 -0.2204
   21SOL     hw   82   1.778   1.526   2.726 -1.8040  0.7095 -0.8386
   21SOL     hw   83   1.859   1.644   2.774  0.3441 -1.1327  0.2513
   21SOL     vw   84   1.783   1.602   2.769 -0.4678  0.2994 -0.2397
   22SOL     ow   85   1.492   0.589   2.863 -0.6482  0.1370 -0.6275
   22SOL     hw   86   1.566   0.547   2.820 -0.7537 -2.0989  1.2164
   22SOL     hw   87   1.507   0.683   2.851  2.3469 -0.2517 -0.5256
   22SOL     vw   88   1.504   0.596   2.856 -0.2670 -0.2093 -0.3707
   23SOL     ow   89   1.403   2.093   2.416  0.1742  0.1626 -0.4581
   23SOL     hw   90   1.384   2.177   2.459 -2.0732 -0.1682 -0.6753
   23SOL     hw   91   1.493   2.073   2.441  0.0631  1.6247  1.3243
   23SOL     vw   92   1.412   2.102   2.425 -0.1369  0.3119 -0.2518
   24SOL     ow   93   0.668   1.148   0.558 -0.3373  0.4327 -0.1211
   24SOL     hw   94   0.590   1.117   0.604 -0.3911  0.5383 -0.1403
   24SOL     hw   95   0.739   1.133   0.619 -0.2702 -0.3220 -0.3780
   24SOL     vw   96   0.667   1.142   0.572 -0.3355  0.3470 -0.1575
   25SOL     ow   97   1.584   0.914   5.213 -0.6110 -0.0676 -0.0913
   25SOL     hw   98   1.643   0.931   5.140 -0.6661 -0.3967 -0.2120
   25SOL     hw   99   1.526   0.844   5.182  0.6017 -1.6066  0.9390
   25SOL     vw  100   1.584   0.907   5.200 -0.4582 -0.3141  0.0288
   26SOL     ow  101   0.896   0.603   5.294  0.1594 -0.0476 -0.0631
   26SOL     hw  102   0.927   0.685   5.255  0.7901 -0.5034 -0.5474
   26SOL     hw  103   0.880   0.624   5.386 -1.0500  0.9724 -0.4793
   26SOL     vw  104   0.898   0.617   5.301  0.0831  0.0269 -0.1819
   27SOL     ow  105   0.354   1.358   2.780 -0.4133 -0.3314  0.1798
   27SOL     hw  106   0.441   1.344   2.818 -1.2225 -1.4840  1.7069
   27SOL     hw  107   0.368   1.350   2.685  0.9728 -1.5703  0.4475
   27SOL     vw  108   0.368   1.355   2.772 -0.3372 -0.6469  0.4165
   28SOL     ow  109   1.908   0.371   4.447 -0.6284 -0.4425 -0.3730
   28SOL     hw  110   1.863   0.440   4.497  0.3716  0.0063 -0.0592
   28SOL     hw  111   1.868   0.374   4.360 -0.5193  0.6231 -0.3970
   28SOL     vw  112   1.897   0.381   4.442 -0.4821 -0.2427 -0.3350
   29SOL     ow  113   1.231   2.205   2.211 -0.4683  0.4258 -0.0777
   29SOL     hw  114   1.227   2.258   2.131 -3.1226 -1.3101 -1.2522
   29SOL     hw  115   1.251   2.268   2.281 -2.9102  2.9619 -1.4368
   29SOL     vw  116   1.233   2.221   2.210 -1.1407  0.5314 -0.4121
   30SOL     ow  117   2.108   0.154   5.503  0.0749 -0.1272  0.8086
   30SOL     hw  118   2.180   0.149   5.440  1.6211  4.6757  1.7503
   30SOL     hw  119   2.029   0.161   5.449  1.2920  3.1850 -0.8267
   30SOL     vw  120   2.107   0.154   5.488  0.4395  0.9435  0.7169
   31SOL     ow  121   0.785   0.987   6.408 -0.0426 -0.6867 -0.2757
   31SOL     hw  122   0.757   0.915   6.351 -2.9068  0.6751 -0.7802
   31SOL     hw  123   0.765   1.066   6.359  1.6636  0.5199  0.8650
   31SOL     vw  124   0.778   0.988   6.394 -0.1954 -0.3479 -0.1919
   32SOL     ow  125   0.903   2.343   3.952 -0.5955  0.1261  0.0277
   32SOL     hw  126   0.902   2.256   3.992  1.6783 -0.5506 -1.2027
   32SOL     hw  127   0.902   2.404   4.026  0.6680 -1.0228  1.0405
   32SOL     vw  128   0.902   2.340   3.967 -0.1288 -0.1147 -0.0011
   33SOL     ow  129   2.247   0.694   6.277  0.2393 -0.8502 -0.3593
   33SOL     hw  130   2.214   0.619   6.326 -1.1388  0.7315  1.2970
   33SOL     hw  131   2.168   0.744   6.254  0.9189 -0.8946 -3.2548
   33SOL     vw  132   2.232   0.691   6.280  0.1471 -0.6474 -0.5229
   34SOL     ow  133   0.597   2.327   5.930  0.3915  0.4436  0.7901
   34SOL     hw  134   0.634   2.412   5.953 -1.3290  2.0362 -1.7511
   34SOL     hw  135   0.673   2.270   5.916  1.7789  2.4488 -0.4056
   34SOL     vw  136   0.612   2.331   5.931  0.3475  0.9183  0.2968
   35SOL     ow  137   1.733   0.409   4.200 -0.2809 -0.1669  0.0648
   35SOL     hw  138   1.685   0.389   4.280 -0.6918 -1.3931 -0.4591
   35SOL     hw  139   1.701   0.345   4.136  1.3791 -0.4320 -0.5560
   35SOL     vw  140   1.722   0.398   4.202 -0.1162 -0.3637 -0.0863
   36SOL     ow  141   2.125   2.355   1.293 -0.1394  0.4624  0.1591
   36SOL     hw  142   2.153   2.366   1.384 -1.4641 -0.6486  0.7288
   36SOL     hw  143   2.140   2.263   1.274  1.4728  0.9541 -1.2699
   36SOL     vw  144   2.131   2.344   1.303 -0.1014  0.3806  0.0457
   37SOL     ow  145   1.469   0.144   5.872 -0.1986 -0.2437  0.5324
   37SOL     hw  146   1.452   0.234   5.845 -0.9311 -0.1365  1.2879
   37SOL     hw  147   1.526   0.152   5.949 -1.0931 -0.3549  1.2322
   37SOL     vw  148   1.474   0.157   5.879 -0.4132 -0.2442  0.7246
   38SOL     ow  149   1.533   1.742   2.826  0.6144 -0.0393  0.9174
   38SOL     hw  150   1.531   1.836   2.837 -0.4965  0.4471 -2.2825
   38SOL     hw  151   1.625   1.722   2.806  0.5835  0.6363  0.0523
   38SOL     vw  152   1.545   1.751   2.825  0.4638  0.1140  0.3811
   39SOL     ow  153   1.869   0.837   4.515  0.3689 -0.0493 -0.0134
   39SOL     hw  154   1.840   0.748   4.534  0.7341  0.3128  2.5233
   39SOL     hw  155   1.948   0.848   4.566  2.0010  0.8372 -2.5401
   39SOL     vw  156   1.875   0.826   4.524  0.6324  0.1155 -0.0119
   40SOL     ow  157   0.441   0.804   4.639 -0.3916  0.2731 -0.0701
   40SOL     hw  158   0.434   0.811   4.544  0.4635 -2.3374 -0.4257
   40SOL     hw  159   0.535   0.793   4.656 -0.5473  0.5249  1.0666
   40SOL     vw  160   0.452   0.803   4.629 -0.2993 -0.0381  0.0331
   41SOL     ow  161   0.829   1.399   0.414 -0.4380  0.4029  0.6410
   41SOL     hw  162   0.883   1.445   0.351 -0.5418 -1.3719 -0.8338
   41SOL     hw  163   0.891   1.359   0.475 -0.3295  1.9284  1.5768
   41SOL     vw  164   0.844   1.400   0.414 -0.4374  0.3700  0.5699
   42SOL     ow  165   0.512   1.625   6.251  0.0033 -0.3910  0.3142
   42SOL     hw  166   0.426   1.637   6.211 -0.9875 -1.3688  2.0568
   42SOL     hw  167   0.496   1.574   6.330  2.4597 -2.6929 -0.5013
   42SOL     vw  168   0.499   1.620   6.256  0.1967 -0.8237  0.4368
   43SOL     ow  169   1.095   0.471   3.963  0.0349 -0.4332 -0.8304
   43SOL     hw  170   1.144   0.435   4.037 -0.2977 -0.0008 -0.3962
   43SOL     hw  171   1.020   0.412   3.954 -0.3465 -0.0315 -0.3150
   43SOL     vw  172   1.092   0.458   3.972 -0.0593 -0.3231 -0.7051
   44SOL     ow  173   0.199   1.102   2.048  0.4828  0.0694 -0.0862
   44SOL     hw  174   0.273   1.044   2.030  0.5199  0.3322 -0.8284
   44SOL     hw  175   0.132   1.075   1.985 -1.4284 -2.5224  2.7777
   44SOL     vw  176   0.200   1.091   2.037  0.2356 -0.2379  0.1936
   45SOL     ow  177   1.125   0.227   5.367 -0.1385  0.4285  0.1601
   45SOL     hw  178   1.212   0.245   5.405 -0.7512  1.0113  1.3368
   45SOL     hw  179   1.093   0.152   5.417 -0.9179  1.1350  0.7284
   45SOL     vw  180   1.133   0.220   5.379 -0.3222  0.5986  0.3903
   46SOL     ow  181   0.720   0.157   5.997 -0.6692 -0.4458  0.5591
   46SOL     hw  182   0.769   0.230   5.958  0.4572 -1.4630 -0.0013
   46SOL     hw  183   0.781   0.118   6.059 -1.4757 -0.5608  1.2928
   46SOL     vw  184   0.734   0.162   6.000 -0.6270 -0.5952  0.5820
   47SOL     ow  185   0.585   1.164   0.963 -0.3343  0.3832  0.0956
   47SOL     hw  186   0.508   1.141   0.912 -0.1438 -1.2043  0.4732
   47SOL     hw  187   0.659   1.146   0.905 -0.1795  0.0731  0.3872
   47SOL     vw  188   0.584   1.158   0.949 -0.2888  0.1328  0.1839
   48SOL     ow  189   1.842   1.967   0.012 -0.2228  0.1346  0.4041
   48SOL     hw  190   1.788   2.028   0.061  0.9865 -0.9505  3.2942
   48SOL     hw  191   1.917   2.019  -0.016 -0.7056  0.6681  0.0789
   48SOL     vw  192   1.845   1.982   0.015 -0.1269  0.0619  0.7425
   49SOL     ow  193   1.359   0.312   5.478 -0.0172  0.4186 -0.2149
   49SOL     hw  194   1.454   0.315   5.467 -0.0395 -2.8370 -2.5899
   49SOL     hw  195   1.339   0.387   5.535  3.8743  1.4274  0.0827
   49SOL     vw  196   1.369   0.322   5.484  0.4932  0.1221 -0.4890
   50SOL     ow  197   1.649   2.120   5.827  0.7759  0.4485 -0.3470
   50SOL     hw  198   1.701   2.147   5.903 -1.5096 -1.0059  1.8863
   50SOL     hw  199   1.575   2.180   5.826 -2.3552 -2.9141  2.3913
   50SOL     vw  200   1.646   2.131   5.837  0.0613 -0.1870  0.3090
   51SOL     ow  201   0.736   0.396   2.104  0.1630 -0.4010  0.0581
   51SOL     hw  202   0.803   0.423   2.041 -0.8803 -0.6054 -1.1910
   51SOL     hw  203   0.760   0.307   2.128 -0.2644 -0.9048 -1.2780
   51SOL     vw  204   0.748   0.388   2.099 -0.0310 -0.4945 -0.2828
   52SOL     ow  205   0.724   0.264   4.141  0.5109  0.1024 -0.3930
   52SOL     hw  206   0.657   0.211   4.183 -0.4971  1.4543 -0.2219
   52SOL     hw  207   0.803   0.209   4.142 -0.1391 -0.8640  0.9743
   52SOL     vw  208   0.726   0.250   4.147  0.2921  0.1533 -0.1900
   53SOL     ow  209   0.832   1.457   5.652  0.1864  0.5204  0.3711
   53SOL     hw  210   0.762   1.413   5.701  2.4360 -1.6830  1.8829
   53SOL     hw  211   0.801   1.547   5.642 -2.5080 -0.1524  1.5947
   53SOL     vw  212   0.819   1.463   5.657  0.1277  0.1410  0.7322
   54SOL     ow  213   1.745   1.873   5.598  0.0496 -0.1528 -0.0627
   54SOL     hw  214   1.772   1.784   5.621  0.9600 -0.2395 -1.3842
   54SOL     hw  215   1.702   1.864   5.513 -1.5231  0.4311  0.6341
   54SOL     vw  216   1.743   1.860   5.590 -0.0378 -0.0872 -0.1450
   55SOL     ow  217   2.147   0.364   3.347 -0.4465 -0.0830 -1.1175
   55SOL     hw  218   2.209   0.317   3.291  0.4682 -2.3261  1.5117
   55SOL     hw  219   2.175   0.342   3.436 -3.2068  1.3487  0.2177
   55SOL     vw  220   2.159   0.355   3.351 -0.6900 -0.1901 -0.5944
   56SOL     ow  221   1.028   1.411   4.001  0.3468 -0.0662  0.0473
   56SOL     hw  222   0.943   1.435   3.965  0.9480 -0.7588 -1.9859
   56SOL     hw  223   1.010   1.338   4.060 -0.4696 -0.3136 -0.4925
   56SOL     vw  224   1.015   1.405   4.004  0.3184 -0.1902 -0.2921
   57SOL     ow  225   0.155   0.880   0.171 -0.0928  0.2696  0.4088
   57SOL     hw  226   0.248   0.873   0.153  0.1924  1.7142  1.1230
   57SOL     hw  227   0.125   0.949   0.111 -0.6966 -0.1414  0.2279
   57SOL     vw  228   0.163   0.888   0.160 -0.1348  0.4060  0.4792
   58SOL     ow  229   1.280   0.608   0.295  0.1518 -0.3194 -0.4923
   58SOL     hw  230   1.241   0.529   0.332  0.3284 -0.2359 -0.1277
   58SOL     hw  231   1.212   0.674   0.303  1.2028  0.5157  2.5279
   58SOL     vw  232   1.266   0.606   0.301  0.3138 -0.1982 -0.0457
   59SOL     ow  233   0.211   0.710   0.425  0.1062 -0.0927 -0.3417
   59SOL     hw  234   0.297   0.685   0.392  0.1469 -0.4695  0.0404
   59SOL     hw  235   0.221   0.711   0.520 -0.2596  0.0582 -0.3030
   59SOL     vw  236   0.224   0.707   0.433  0.0633 -0.1225 -0.2861
   60SOL     ow  237   1.269   0.985   4.793 -0.1066  0.7260 -0.9608
   60SOL     hw  238   1.351   0.958   4.834  0.2357  1.1776 -1.3219
   60SOL     hw  239   1.241   0.909   4.743  0.2714  0.6729 -1.0970
   60SOL     vw  240   1.277   0.972   4.792 -0.0116  0.7786 -1.0264
   61SOL     ow  241   1.491   1.424   4.300 -0.4381 -0.2130 -0.0813
   61SOL     hw  242   1.481   1.516   4.323  0.7777  0.4193 -1.8432
   61SOL     hw  243   1.429   1.411   4.228  0.1796 -0.4593 -0.5764
   61SOL     vw  244   1.482   1.434   4.293 -0.1962 -0.1620 -0.3791
   62SOL     ow  245   1.449   1.231   1.924 -0.4253 -0.3002  0.3628
   62SOL     hw  246   1.510   1.271   1.987 -0.9812  0.0312  0.6991
   62SOL     hw  247   1.370   1.284   1.931 -0.7785 -0.7727 -0.0198
   62SOL     vw  248   1.447   1.244   1.933 -0.5453 -0.3188  0.3566
   63SOL     ow  249   1.599   0.399   1.308 -0.2878  0.2093 -0.0466
   63SOL     hw  250   1.642   0.325   1.351 -0.9493 -0.0354  0.2049
   63SOL     hw  251   1.636   0.400   1.220  0.7594  0.4483  0.3766
   63SOL     vw  252   1.609   0.389   1.302 -0.2369  0.2085  0.0424
   64SOL     ow  253   0.418   1.363   2.519  0.3434 -0.0266  0.3785
   64SOL     hw  254   0.496   1.396   2.476 -0.2856 -0.3685 -1.0790
   64SOL     hw  255   0.356   1.436   2.515 -0.0033 -0.3441 -0.0591
   64SOL     vw  256   0.420   1.377   2.513  0.2146 -0.1135  0.1284
   65SOL     ow  257   0.318   1.293   3.217  0.2069 -0.2088  0.0038
   65SOL     hw  258   0.381   1.241   3.266 -1.8144 -1.3792  1.5087
   65SOL     hw  259   0.372   1.354   3.166  2.5617 -2.0461  0.1246
   65SOL     vw  260   0.333   1.294   3.217  0.2509 -0.6056  0.2183
   66SOL     ow  261   1.841   0.599   4.046  0.4370 -0.7190 -0.3557
   66SOL     hw  262   1.822   0.530   4.110  1.2728 -0.8879 -0.2777
   66SOL     hw  263   1.934   0.589   4.027  0.6789  0.6717 -0.0073
   66SOL     vw  264   1.851   0.589   4.052  0.5792 -0.5578 -0.2995
   67SOL     ow  265   1.925   0.923   0.932  0.5314 -0.2749  0.2832
   67SOL     hw  266   1.931   0.895   1.024  0.2443 -0.0224  0.3826
   67SOL     hw  267   1.915   0.841   0.883 -1.7783 -0.3261  0.7025
   67SOL     vw  268   1.924   0.909   0.938  0.1888 -0.2484  0.3516
   68SOL     ow  269   0.051   0.316   4.693  0.1801  0.3717  0.4114
   68SOL     hw  270   0.102   0.320   4.612  0.2129  0.3959  0.4332
   68SOL     hw  271   0.090   0.383   4.750 -0.3283  0.8881  0.1624
   68SOL     vw  272   0.063   0.326   4.690  0.1174  0.4430  0.3817
   69SOL     ow  273   1.082   2.007   1.327  0.1076  0.1602  0.0359
   69SOL     hw  274   1.100   2.100   1.329  0.5883  0.0902 -0.6190
   69SOL     hw  275   0.986   2.001   1.328  0.0686  0.6771 -0.2488
   69SOL     vw  276   1.072   2.018   1.327  0.1659  0.2191 -0.0882
   70SOL     ow  277   2.338   0.192   1.274  0.7302  0.3283  0.1912
   70SOL     hw  278   2.387   0.235   1.204  0.8175 -1.6202 -1.0140
   70SOL     hw  279   2.405   0.160   1.334  0.7371  0.5572  0.3084
   70SOL     vw  280   2.353   0.194   1.273  0.7426  0.1014  0.0476
   71SOL     ow  281   1.871   0.556   4.818  0.3127 -0.0120  0.2642
   71SOL     hw  282   1.824   0.620   4.871 -0.1618 -0.0663 -0.0813
   71SOL     hw  283   1.911   0.496   4.882  1.0198  0.8013  0.5942
   71SOL     vw  284   1.870   0.556   4.833  0.3434  0.0882  0.2623
   72SOL     ow  285   0.905   1.965   1.565  0.0539 -0.4987 -0.1821
   72SOL     hw  286   0.812   1.944   1.569  0.0094 -0.1217  1.2075
   72SOL     hw  287   0.928   1.989   1.655  0.7208  2.6771 -1.0890
   72SOL     vw  288   0.896   1.965   1.578  0.1360 -0.0299 -0.1184
   73SOL     ow  289   1.253   1.418   1.943  0.0630  0.2478  0.3595
   73SOL     hw  290   1.175   1.388   1.897  0.2415  0.3323 -0.0060
   73SOL     hw  291   1.239   1.393   2.034 -1.6791  2.7313  0.8835
   73SOL     vw  292   1.241   1.411   1.949 -0.1433  0.5866  0.3805
   74SOL     ow  293   0.769   2.184   0.746  0.4910 -0.2272  0.5773
   74SOL     hw  294   0.808   2.168   0.660  0.8962  0.2826  0.6616
   74SOL     hw  295   0.684   2.141   0.742 -0.6810  2.0365 -1.0270
   74SOL     vw  296   0.763   2.176   0.734  0.3898  0.1385  0.3768
   75SOL     ow  297   1.757   1.376   4.377  0.6021  0.1736 -0.5302
   75SOL     hw  298   1.668   1.406   4.360 -0.3586 -2.7509 -1.3832
   75SOL     hw  299   1.764   1.372   4.472 -1.8004 -3.3079 -0.2949
   75SOL     vw  300   1.747   1.379   4.387  0.1584 -0.6716 -0.6118
   76SOL     ow  301   0.401   2.268   5.670 -0.1531 -0.4132 -0.6290
   76SOL     hw  302   0.433   2.349   5.630  2.0885 -0.3512  1.1262
   76SOL     hw  303   0.411   2.202   5.601  2.5551 -0.0984 -0.6552
   76SOL     vw  304   0.406   2.270   5.656  0.4999 -0.3633 -0.4008
   77SOL     ow  305   1.274   1.325   2.224  0.4728  0.5864 -0.2617
   77SOL     hw  306   1.232   1.314   2.309  0.8458 -2.5831 -0.3709
   77SOL     hw  307   1.367   1.307   2.240  0.7880  1.3262 -1.1363
   77SOL     vw  308   1.281   1.321   2.237  0.5636  0.2658 -0.3915
   78SOL     ow  309   2.065   0.532   3.956  0.2277 -0.4496 -0.1412
   78SOL     hw  310   2.155   0.512   3.929  0.0889 -0.4487 -0.6090
   78SOL     hw  311   2.015   0.454   3.932 -0.2346  0.2510 -1.5727
   78SOL     vw  312   2.071   0.519   3.949  0.1483 -0.3571 -0.3917
   79SOL     ow  313   1.641   0.568   3.740  0.2219 -0.2959  0.4598
   79SOL     hw  314   1.634   0.473   3.749 -0.2634 -0.2051  1.1076
   79SOL     hw  315   1.686   0.595   3.820  0.0058  0.0625  0.4585
   79SOL     vw  316   1.646   0.559   3.752  0.1293 -0.2366  0.5449
   80SOL     ow  317   1.697   1.099   4.400 -0.3150  0.6564  0.1331
   80SOL     hw  318   1.603   1.082   4.400 -0.1814 -0.0980  0.1756
   80SOL     hw  319   1.704   1.192   4.379 -1.0730  0.7371  0.2053
   80SOL     vw  320   1.686   1.109   4.397 -0.3974  0.5675  0.1481
   81SOL     ow  321   1.747   1.598   1.496  0.3112 -0.1287 -0.2314
   81SOL     hw  322   1.808   1.525   1.488 -0.1179 -0.4237 -0.8851
   81SOL     hw  323   1.661   1.560   1.481 -0.0562  0.2659  0.7701
   81SOL     vw  324   1.744   1.584   1.493  0.2061 -0.1156 -0.1855
   82SOL     ow  325   1.690   1.141   0.619  0.2096  0.0509 -0.5492
   82SOL     hw  326   1.708   1.122   0.527  2.3255  1.0759 -0.4067
   82SOL     hw  327   1.640   1.223   0.617  1.7870  1.0444 -0.7718
   82SOL     vw  328   1.686   1.149   0.606  0.6969  0.3172 -0.5597
   83SOL     ow  329   0.165   0.289   0.058  0.3481 -0.1382 -0.0673
   83SOL     hw  330   0.113   0.358   0.100 -0.8456 -0.8870 -0.2537
   83SOL     hw  331   0.200   0.330  -0.021 -2.6640 -0.4112 -1.7256
   83SOL     vw  332   0.162   0.303   0.053 -0.2068 -0.2730 -0.3107
   84SOL     ow  333   0.456   0.405   0.469 -0.1420 -0.5846  0.4358
   84SOL     hw  334   0.468   0.477   0.407  3.2301 -0.5882  0.9141
   84SOL     hw  335   0.395   0.439   0.534  0.6002  1.4870  0.1279
   84SOL     vw  336   0.450   0.419   0.469  0.4008 -0.3118  0.4583
   85SOL     ow  337   2.005   2.153   3.473 -0.2304 -0.9078  0.1856
   85SOL     hw  338   2.024   2.222   3.536  1.0729  0.2225 -1.3387
   85SOL     hw  339   1.919   2.120   3.498 -0.6254  0.8505  1.3352
   85SOL     vw  340   1.996   2.158   3.484 -0.1107 -0.5267  0.1361
   86SOL     ow  341   1.504   0.432   0.250 -0.0835  0.5955 -0.0032
   86SOL     hw  342   1.525   0.413   0.159  0.2964 -0.0264  0.2124
   86SOL     hw  343   1.494   0.347   0.292  0.4414  0.8624  0.6950
   86SOL     vw  344   1.505   0.419   0.244  0.0359  0.5487  0.1174
   87SOL     ow  345   1.308   0.110   5.639 -0.0066  0.2283  0.1255
   87SOL     hw  346   1.251   0.132   5.712 -3.3811 -1.3292 -1.7805
   87SOL     hw  347   1.306   0.186   5.582 -2.1475 -0.5844 -0.9790
   87SOL     vw  348   1.300   0.123   5.641 -0.7342 -0.0844 -0.2720
   88SOL     ow  349   2.318   2.370   1.027  0.4717 -0.4097  0.6150
   88SOL     hw  350   2.266   2.332   0.956  0.0404  1.7961 -0.3589
   88SOL     hw  351   2.406   2.334   1.014  0.7757  0.9876 -2.0250
   88SOL     vw  352   2.323   2.360   1.016  0.4548  0.0656  0.1382
   89SOL     ow  353   0.428   1.005   4.829 -0.6680  0.5844  0.5782
   89SOL     hw  354   0.459   1.011   4.919  1.5059  2.5217 -0.1933
   89SOL     hw  355   0.461   0.921   4.797 -0.3451  0.4775  1.1826
   89SOL     vw  356   0.436   0.995   4.837 -0.3386  0.8259  0.5562
   90SOL     ow  357   1.354   0.290   6.130 -0.4544  0.1393  0.3927
   90SOL     hw  358   1.372   0.220   6.067  2.2113 -0.0772  1.2491
   90SOL     hw  359   1.393   0.368   6.090  0.5365  0.1677  1.3905
   90SOL     vw  360   1.362   0.291   6.116  0.0281  0.1145  0.6373
   91SOL     ow  361   0.090   2.197   2.722 -0.1876  0.1662  0.2512
   91SOL     hw  362   0.021   2.172   2.783  0.7593 -1.0276  0.8653
   91SOL     hw  363   0.084   2.132   2.652 -1.1651  1.4313 -0.9137
   91SOL     vw  364   0.080   2.185   2.721 -0.1917  0.1755  0.1786
   92SOL     ow  365   1.139   1.726   5.192 -0.6603  0.2592  0.7290
   92SOL     hw  366   1.183   1.778   5.126 -0.0203 -0.0379  0.9048
   92SOL     hw  367   1.054   1.768   5.204 -0.1758  1.2343  0.8417
   92SOL     vw  368   1.134   1.738   5.185 -0.5121  0.3487  0.7670
   93SOL     ow  369   0.481   1.905   6.400 -0.6259  0.2952 -0.7840
   93SOL     hw  370   0.498   1.996   6.375  0.9764  0.7638  1.5847
   93SOL     hw  371   0.411   1.911   6.464 -1.0997 -0.2500 -1.2470
   93SOL     vw  372   0.474   1.918   6.405 -0.4770  0.2851 -0.5329
   94SOL     ow  373   0.656   1.182   0.278 -0.5100  0.1816  0.0334
   94SOL     hw  374   0.711   1.223   0.212 -0.1699  0.6243  0.5896
   94SOL     hw  375   0.694   1.095   0.289 -0.6996  0.0228 -0.5031
   94SOL     vw  376   0.668   1.176   0.271 -0.4901  0.2190  0.0360
   95SOL     ow  377   0.835   0.324   1.360 -0.0530  0.5149  0.0525
   95SOL     hw  378   0.894   0.398   1.350 -0.2288  1.0552  2.4151
   95SOL     hw  379   0.892   0.247   1.357  0.8316  1.0247  2.2364
   95SOL     vw  380   0.850   0.324   1.358  0.0405  0.6535  0.6524
   96SOL     ow  381   0.875   0.325   5.277 -0.5956 -0.5585 -0.5724
   96SOL     hw  382   0.870   0.420   5.268  1.9217 -0.3359 -0.5656
   96SOL     hw  383   0.808   0.302   5.340 -1.8997  1.0772 -1.2951
   96SOL     vw  384   0.866   0.334   5.284 -0.4355 -0.3133 -0.6666
   97SOL     ow  385   1.465   0.780   3.226  0.8787 -0.4621 -0.3162
   97SOL     hw  386   1.546   0.816   3.190  0.1696  1.8068  0.1800
   97SOL     hw  387   1.405   0.778   3.152  0.9273 -0.6317 -0.3502
   97SOL     vw  388   1.468   0.785   3.212  0.7916 -0.1851 -0.2552
   98SOL     ow  389   2.380   0.932   0.434 -0.6796 -0.6906 -0.2424
   98SOL     hw  390   2.305   0.903   0.485 -1.3186 -0.3205 -0.9460
   98SOL     hw  391   2.402   1.018   0.471 -1.5125 -0.1537 -0.9359
   98SOL     vw  392   2.373   0.940   0.445 -0.8739 -0.5709 -0.4267
   99SOL     ow  393   0.129   2.145   4.289  0.7551  0.0194 -0.0504
   99SOL     hw  394   0.213   2.111   4.258 -0.2708 -2.4692 -0.3464
   99SOL     hw  395   0.082   2.170   4.210  0.3096 -0.9095 -0.0889
   99SOL     vw  396   0.134   2.144   4.275  0.5609 -0.4315 -0.0944
  100SOL     ow  397   0.205   1.196   4.869  0.5702 -0.1119  0.1352
  100SOL     hw  398   0.244   1.277   4.902  0.6772 -0.3290  0.5501
  100SOL     hw  399   0.111   1.212   4.870  0.6381  0.4980 -1.0822
  100SOL     vw  400   0.198   1.209   4.873  0.5933 -0.0601  0.0291
  101SOL     ow  401   0.659   0.398   1.129 -0.0562  0.1114  0.1317
  101SOL     hw  402   0.577   0.435   1.096 -0.0079  1.3818  1.3639
  101SOL     hw  403   0.727   0.450   1.087  0.1019 -0.2787 -0.1030
  101SOL     vw  404   0.657   0.410   1.119 -0.0290  0.2276  0.2633
  102SOL     ow  405   1.864   1.957   5.868  0.3197 -0.2226  0.3668
  102SOL     hw  406   1.889   1.865   5.879  0.8170  0.0125  1.3093
  102SOL     hw  407   1.936   2.006   5.907 -1.4287  0.4903  2.8995
  102SOL     vw  408   1.877   1.951   5.874  0.1547 -0.0975  0.8252
  103SOL     ow  409   0.778   0.040   3.698  0.5070 -2.0817  0.2531
  103SOL     hw  410   0.773   0.022   3.792  0.2147  0.9894  0.9135
  103SOL     hw  411   0.738   0.127   3.688  1.3831 -1.9222 -2.5913
  103SOL     vw  412   0.772   0.049   3.709  0.5841 -1.6554 -0.0349
  104SOL     ow  413   0.572   0.470   2.339 -0.0327  0.3976  1.2025
  104SOL     hw  414   0.637   0.415   2.382 -0.3944 -1.1692 -0.1849
  104SOL     hw  415   0.493   0.460   2.392 -0.5769 -1.8004  0.0770
  104SOL     vw  416   0.570   0.461   2.352 -0.1522 -0.0991  0.8709
  105SOL     ow  417   0.477   0.454   2.002 -0.3806 -0.5487 -0.9660
  105SOL     hw  418   0.419   0.466   1.927 -1.3365 -2.7791 -0.6505
  105SOL     hw  419   0.472   0.361   2.022  0.7647 -0.2194  1.1543
  105SOL     vw  420   0.469   0.443   1.995 -0.3556 -0.7996 -0.6446
  106SOL     ow  421   1.762   1.985   6.412 -0.9427 -0.6240 -0.5895
  106SOL     hw  422   1.820   2.045   6.364  0.6108 -2.4258 -1.0453
  106SOL     hw  423   1.796   1.984   6.501 -2.4736  0.9879  0.0821
  106SOL     vw  424   1.774   1.993   6.418 -0.9397 -0.6490 -0.5608
  107SOL     ow  425   1.778   0.844   4.207 -0.2767  0.0169 -0.2570
  107SOL     hw  426   1.735   0.898   4.140  0.0302 -0.1312 -0.5799
  107SOL     hw  427   1.781   0.757   4.167  3.3833  0.6504 -1.7157
  107SOL     vw  428   1.773   0.839   4.193  0.2466  0.0810 -0.4923
  108SOL     ow  429   1.345   1.239   4.506 -0.8822  0.5399  0.4125
  108SOL     hw  430   1.377   1.156   4.472  1.3178  0.6885  1.8844
  108SOL     hw  431   1.364   1.302   4.436 -0.5128  0.1597  0.1643
  108SOL     vw  432   1.352   1.237   4.492 -0.5432  0.5094  0.5744
  109SOL     ow  433   1.105   0.377   6.318 -0.0743 -0.7267  0.3892
  109SOL     hw  434   1.087   0.366   6.411  0.5629  0.3872  0.6653
  109SOL     hw  435   1.085   0.469   6.301  1.8650 -0.3617 -0.0752
  109SOL     vw  436   1.100   0.388   6.328  0.2657 -0.5316  0.3645
  110SOL     ow  437   1.298   1.508   4.625 -0.3977  0.3402 -0.5387
  110SOL     hw  438   1.334   1.578   4.680  0.4094 -0.2680 -0.2777
  110SOL     hw  439   1.203   1.525   4.624 -0.3424  0.7778  0.4471
  110SOL     vw  440   1.290   1.519   4.632 -0.2839  0.3177 -0.3741
  111SOL     ow  441   0.018   0.043   6.682  0.9522 -1.0881  0.3213
  111SOL     hw  442  -0.068   0.084   6.691  0.8849 -1.2734  0.5631
  111SOL     hw  443   0.044   0.059   6.591  2.2349  2.0279  1.1049
  111SOL     vw  444   0.010   0.050   6.671  1.1125 -0.7014  0.4566
  112SOL     ow  445   1.267   0.366   2.748 -0.0659 -0.0898  0.2863
  112SOL     hw  446   1.294   0.274   2.752 -1.9217 -0.6512  0.6893
  112SOL     hw  447   1.224   0.375   2.664  1.5402  0.8711 -0.4737
  112SOL     vw  448   1.265   0.355   2.738 -0.0988 -0.0371  0.2391
  113SOL     ow  449   0.662   0.491   4.360 -0.5107 -0.0254  0.2156
  113SOL     hw  450   0.612   0.416   4.393 -0.1598 -0.9043 -1.1684
  113SOL     hw  451   0.679   0.544   4.438  0.2215 -1.9623  1.4532
  113SOL     vw  452   0.657   0.488   4.375 -0.3678 -0.3969  0.1962
  114SOL     ow  453   0.066   0.129   0.295 -0.2382  0.9574  0.1323
  114SOL     hw  454   0.102   0.132   0.384 -2.2597  0.3778  1.0232
  114SOL     hw  455  -0.021   0.166   0.303 -1.6159 -1.7591 -0.9551
  114SOL     vw  456   0.059   0.134   0.308 -0.6867  0.5225  0.1064
  115SOL     ow  457   1.517   1.646   4.036  0.4529  0.2694 -0.3269
  115SOL     hw  458   1.586   1.581   4.027  0.0773 -0.6873  2.6208
  115SOL     hw  459   1.562   1.730   4.027  1.3930 -0.3306 -1.5666
  115SOL     vw  460   1.532   1.649   4.033  0.5273  0.0641 -0.1016
  116SOL     ow  461   1.220   1.250   4.798 -0.1920  0.3747  0.4150
  116SOL     hw  462   1.138   1.269   4.845  0.8074  0.9889  1.9977
  116SOL     hw  463   1.222   1.155   4.790 -1.6130  0.4022 -0.7383
  116SOL     vw  464   1.209   1.240   4.803 -0.2477  0.4594  0.4718
  117SOL     ow  465   0.440   1.709   2.121  0.0324 -0.7921 -0.5871
  117SOL     hw  466   0.529   1.733   2.148 -0.3390 -1.7455  1.7339
  117SOL     hw  467   0.391   1.792   2.123 -0.3558 -0.8753  3.6648
  117SOL     vw  468   0.445   1.723   2.125 -0.0678 -0.9289  0.2800
  118SOL     ow  469   2.305   0.428   5.527 -0.4806  0.2871  0.8669
  118SOL     hw  470   2.320   0.439   5.433 -0.6558  0.6155  0.8756
  118SOL     hw  471   2.355   0.499   5.568 -0.0601 -0.1106  1.0491
  118SOL     vw  472   2.313   0.439   5.520 -0.4482  0.2780  0.8922
  119SOL     ow  473   0.006   1.349   1.772  0.4729  0.4810 -0.0624
  119SOL     hw  474  -0.052   1.273   1.772  2.6616 -1.3581  1.4777
  119SOL     hw  475   0.070   1.330   1.704  1.9276  0.1241  1.3476
  119SOL     vw  476   0.007   1.336   1.763  0.9536  0.1913  0.3269
  120SOL     ow  477   2.210   0.918   4.155 -0.4356 -0.1668  0.1021
  120SOL     hw  478   2.294   0.872   4.150  0.4323  1.2053  1.4146
  120SOL     hw  479   2.202   0.962   4.070  0.7848  0.7059  0.4184
  120SOL     vw  480   2.220   0.918   4.143 -0.1601  0.1293  0.3169
  121SOL     ow  481   2.074   0.269   2.258 -0.3468 -0.7079 -0.0811
  121SOL     hw  482   2.077   0.240   2.167 -0.3758 -0.4197 -0.1743
  121SOL     hw  483   2.006   0.336   2.260 -1.2764 -1.6339  0.4234
  121SOL     vw  484   2.065   0.274   2.246 -0.4733 -0.7921 -0.0268
  122SOL     ow  485   0.786   2.185   5.846  0.3545  0.9194  0.1409
  122SOL     hw  486   0.879   2.172   5.869 -0.3681 -2.2964  1.9021
  122SOL     hw  487   0.763   2.106   5.797 -1.9564  0.6207  1.5961
  122SOL     vw  488   0.795   2.173   5.842 -0.0457  0.4559  0.5655
  123SOL     ow  489   1.466   0.613   3.437  0.0402 -0.3564  0.1236
  123SOL     hw  490   1.462   0.673   3.362 -1.9504  0.1184  0.5348
  123SOL     hw  491   1.400   0.546   3.417  0.5496 -1.0648  0.7797
  123SOL     vw  492   1.457   0.612   3.424 -0.1552 -0.3872  0.2644
  124SOL     ow  493   2.178   0.307   4.621 -0.3322  0.2545  0.4331
  124SOL     hw  494   2.265   0.287   4.654 -0.6679 -0.4027  0.9280
  124SOL     hw  495   2.178   0.402   4.609  0.8735  0.1293 -0.8039
  124SOL     vw  496   2.189   0.317   4.623 -0.2173  0.1513  0.3352
  125SOL     ow  497   0.314   0.151   4.815 -0.0903  0.3262  0.0422
  125SOL     hw  498   0.339   0.080   4.874  0.4621  0.0911 -0.4601
  125SOL     hw  499   0.397   0.187   4.785 -0.3048 -0.6526 -1.8932
  125SOL     vw  500   0.328   0.146   4.819 -0.0457  0.1661 -0.2792
  126SOL     ow  501   2.017   1.360   1.030 -0.1689 -0.0960 -1.0100
  126SOL     hw  502   2.089   1.303   1.059 -1.0070 -1.8141 -2.1348
  126SOL     hw  503   2.053   1.448   1.033  2.5284 -1.0138 -2.9998
  126SOL     vw  504   2.031   1.364   1.035  0.0767 -0.4438 -1.4210
  127SOL     ow  505   0.890   2.132   1.059  0.0138 -0.1317  0.3315
  127SOL     hw  506   0.877   2.111   1.151  1.2028  1.1381  0.8202
  127SOL     hw  507   0.985   2.129   1.046 -0.0805  0.4571 -0.6538
  127SOL     vw  508   0.901   2.129   1.069  0.1583  0.1134  0.2659
  128SOL     ow  509   0.466   0.380   1.349  0.5136 -0.2918 -0.7030
  128SOL     hw  510   0.442   0.323   1.423  0.3499  1.4203  0.6357
  128SOL     hw  511   0.403   0.358   1.281 -0.5867 -0.5828  0.3623
  128SOL     vw  512   0.454   0.369   1.350  0.3469 -0.1043 -0.3858
  129SOL     ow  513   2.079   0.943   4.638  0.9321 -0.4257 -0.1622
  129SOL     hw  514   2.129   0.942   4.720 -0.5927 -1.6549  0.8128
  129SOL     hw  515   1.999   0.990   4.660  0.4237 -0.9360 -0.8818
  129SOL     vw  516   2.075   0.949   4.652  0.6639 -0.6553 -0.1290
  130SOL     ow  517   1.575   1.501   3.669 -0.2568 -0.1955  0.0776
  130SOL     hw  518   1.628   1.511   3.748  0.1547  1.9828 -0.4121
  130SOL     hw  519   1.517   1.426   3.688  0.0403  0.0872  2.3099
  130SOL     vw  520   1.574   1.492   3.682 -0.1633  0.1292  0.3076
  131SOL     ow  521   0.338   1.482   2.256  0.9800 -0.1661 -0.4327
  131SOL     hw  522   0.390   1.540   2.200  1.2396  1.0947  1.0511
  131SOL     hw  523   0.403   1.439   2.312  0.5981 -0.1010  0.0699
  131SOL     vw  524   0.354   1.484   2.256  0.9639  0.0088 -0.1706
  132SOL     ow  525   1.055   1.509   2.843  0.4452  0.5900  0.2440
  132SOL     hw  526   1.097   1.573   2.786  2.4062  0.6476  1.6486
  132SOL     hw  527   1.018   1.444   2.782  1.4703  1.2213 -1.1172
  132SOL     vw  528   1.055   1.509   2.827  0.8392  0.6809  0.2497
  133SOL     ow  529   1.229   1.530   5.383  0.2384 -0.6147  0.5234
  133SOL     hw  530   1.186   1.574   5.310 -0.5453  0.1783  1.4439
  133SOL     hw  531   1.220   1.437   5.363 -1.5667 -0.4551  0.4961
  133SOL     vw  532   1.222   1.523   5.371 -0.1032 -0.4890  0.6409
  134SOL     ow  533   0.234   2.187   3.923  0.3533  0.3526 -0.1531
  134SOL     hw  534   0.235   2.271   3.970  0.7754 -0.0544  0.5820
  134SOL     hw  535   0.307   2.194   3.861  2.3993 -0.6178  2.0150
  134SOL     vw  536   0.244   2.199   3.921  0.6789  0.1709  0.2298
  135SOL     ow  537   0.284   1.147   2.929 -0.1943 -0.4006 -0.7116
  135SOL     hw  538   0.367   1.101   2.940  0.0917  0.5995  2.1667
  135SOL     hw  539   0.306   1.225   2.878  0.7611  0.1153  0.4606
  135SOL     vw  540   0.297   1.151   2.924 -0.0305 -0.2006 -0.1770
  136SOL     ow  541   2.030   2.378   5.698 -0.0324 -0.3974 -0.0481
  136SOL     hw  542   2.100   2.344   5.754 -0.2995 -0.0416  0.5083
  136SOL     hw  543   2.076   2.421   5.626  0.3832 -3.7652 -2.0213
  136SOL     vw  544   2.046   2.379   5.695 -0.0128 -0.7949 -0.2351
  137SOL     ow  545   1.864   0.425   3.152  0.4924 -0.3262 -0.2595
  137SOL     hw  546   1.905   0.387   3.074  0.6435  0.4026 -0.5407
  137SOL     hw  547   1.775   0.446   3.124  0.9393  1.1777 -0.6642
  137SOL     vw  548   1.858   0.422   3.138  0.5714 -0.0317 -0.3499
  138SOL     ow  549   1.391   0.923   1.908 -0.4293  0.1893  0.4663
  138SOL     hw  550   1.322   0.873   1.865 -2.1853  1.0029  2.1833
  138SOL     hw  551   1.376   0.909   2.002  0.1980  2.3548  0.9442
  138SOL     vw  552   1.380   0.914   1.915 -0.5782  0.5823  0.7559
  139SOL     ow  553   0.076   1.941   4.024  0.0609 -0.6312 -0.2767
  139SOL     hw  554   0.088   1.941   4.119 -0.5165  1.6738 -0.1697
  139SOL     hw  555   0.126   1.864   3.994 -0.0124 -1.5844  1.8855
  139SOL     vw  556   0.084   1.931   4.032 -0.0250 -0.4529  0.0229
  140SOL     ow  557   1.781   1.536   3.883  0.3352  0.2091  0.2890
  140SOL     hw  558   1.829   1.484   3.817 -0.0204 -1.1475  1.0549
  140SOL     hw  559   1.848   1.567   3.943  0.5934  0.9561 -0.3713
  140SOL     vw  560   1.796   1.533   3.882  0.3224  0.1287  0.3028
  141SOL     ow  561   0.834   2.336   3.386  0.1599  0.1677  0.3036
  141SOL     hw  562   0.795   2.279   3.319 -1.8981  1.4964  0.2824
  141SOL     hw  563   0.862   2.414   3.337  3.3067 -0.8331  0.2637
  141SOL     vw  564   0.833   2.339   3.371  0.3035  0.2108  0.2954
  142SOL     ow  565   0.904   0.526   4.147  0.0916  0.5195  0.0459
  142SOL     hw  566   0.965   0.523   4.220 -0.7108 -1.2809  0.7139
  142SOL     hw  567   0.955   0.561   4.074  1.4913  0.4052  0.9313
  142SOL     vw  568   0.919   0.530   4.147  0.1704  0.2669  0.2508
  143SOL     ow  569   1.857   1.479   0.798 -0.6322 -0.1061  0.3046
  143SOL     hw  570   1.907   1.556   0.773 -0.1347 -0.9281 -1.3298
  143SOL     hw  571   1.774   1.514   0.832 -0.2738  1.1488 -0.0929
  143SOL     vw  572   1.852   1.494   0.799 -0.5194 -0.0490  0.0365
  144SOL     ow  573   1.395   0.430   6.358  0.3174  0.1282  0.5138
  144SOL     hw  574   1.338   0.505   6.377 -1.0008 -0.1417 -1.9692
  144SOL     hw  575   1.470   0.468   6.312 -1.3456 -0.1478 -2.6718
  144SOL     vw  576   1.397   0.445   6.354 -0.0759  0.0562 -0.2341
  145SOL     ow  577   2.092   0.177   1.047 -0.2019  0.7194  0.0351
  145SOL     hw  578   2.114   0.188   0.954  1.5159 -0.4822  0.2589
  145SOL     hw  579   1.996   0.178   1.049 -0.2936  3.0052 -1.4243
  145SOL     vw  580   2.082   0.179   1.035  0.0126  0.8625 -0.1279
  146SOL     ow  581   2.225   2.385   1.555 -0.9932  0.4670  0.0195
  146SOL     hw  582   2.290   2.436   1.603  0.6572  0.8426 -2.4113
  146SOL     hw  583   2.181   2.333   1.622  0.9611  1.1132  1.9325
  146SOL     vw  584   2.227   2.385   1.570 -0.5176  0.6018 -0.0488
  147SOL     ow  585   2.397   1.343   2.497 -0.3681  0.4812 -0.4284
  147SOL     hw  586   2.316   1.368   2.542  1.4839  2.8565  1.9384
  147SOL     hw  587   2.463   1.405   2.531  2.8950 -2.5620 -0.6534
  147SOL     vw  588   2.395   1.355   2.508  0.3068  0.3931 -0.1459
  148SOL     ow  589   1.449   0.872   1.312 -0.6269 -0.0998 -0.3879
  148SOL     hw  590   1.376   0.928   1.339  0.1837  0.4107  0.8636
  148SOL     hw  591   1.433   0.789   1.358 -0.9220 -0.3233 -0.8861
  148SOL     vw  592   1.437   0.868   1.322 -0.5589 -0.0619 -0.2885
  149SOL     ow  593   1.774   0.215   1.711 -0.3833  0.0868 -0.2044
  149SOL     hw  594   1.717   0.142   1.687  1.7811 -1.5499 -0.7064
  149SOL     hw  595   1.831   0.228   1.635  1.0195  0.5087  0.8668
  149SOL     vw  596   1.774   0.207   1.698  0.0874 -0.0735 -0.1293
  150SOL     ow  597   1.461   2.042   2.820  0.3023 -0.2106 -0.5524
  150SOL     hw  598   1.415   2.109   2.871  0.7053 -0.4656  0.1547
  150SOL     hw  599   1.523   2.092   2.766 -2.7109  0.4701 -3.7920
  150SOL     vw  600   1.463   2.058   2.819 -0.0421 -0.1544 -0.8866
  151SOL     ow  601   0.797   1.149   0.818 -0.4203 -0.1572  0.3870
  151SOL     hw  602   0.857   1.076   0.834  0.1812 -0.2308 -1.9466
  151SOL     hw  603   0.851   1.216   0.778 -1.4682  0.6375  0.2709
  151SOL     vw  604   0.812   1.148   0.815 -0.4793 -0.0620  0.0638
  152SOL     ow  605   1.915   1.820   0.298  0.5335  0.4945 -0.4145
  152SOL     hw  606   1.993   1.837   0.351  1.1797 -1.6024 -0.5648
  152SOL     hw  607   1.844   1.865   0.343  1.5380  0.9807  0.7238
  152SOL     vw  608   1.916   1.828   0.311  0.7513  0.2820 -0.2841
  153SOL     ow  609   0.317   2.234   5.976  0.2835 -0.4157 -0.3102
  153SOL     hw  610   0.318   2.286   6.057  1.5369  0.4606 -0.8610
  153SOL     hw  611   0.228   2.245   5.942 -0.1663 -0.5387  0.7756
  153SOL     vw  612   0.306   2.242   5.982  0.3895 -0.3163 -0.2398
  154SOL     ow  613   2.272   2.211   2.864  0.2148 -0.3477 -0.4278
  154SOL     hw  614   2.191   2.161   2.873 -1.2506  1.4161 -2.6738
  154SOL     hw  615   2.245   2.302   2.869  1.7172  0.3405 -2.9367
  154SOL     vw  616   2.258   2.216   2.866  0.2197 -0.0242 -1.0551
  155SOL     ow  617   0.243   1.100   2.452 -0.3427 -0.5902 -0.3133
  155SOL     hw  618   0.332   1.134   2.448 -0.1863 -0.8431  0.7381
  155SOL     hw  619   0.253   1.013   2.490 -1.0199 -0.6834 -0.3469
  155SOL     vw  620   0.256   1.093   2.457 -0.4114 -0.6359 -0.1789
  156SOL     ow  621   2.365   2.199   4.039 -0.6937 -0.1575 -1.0900
  156SOL     hw  622   2.362   2.279   3.987  0.6569  0.0546 -0.8869
  156SOL     hw  623   2.275   2.168   4.042 -1.6246  2.4419  0.4972
  156SOL     vw  624   2.353   2.205   4.033 -0.6385  0.2135 -0.8535
  157SOL     ow  625   1.546   0.373   4.380 -0.1228 -0.2571  0.5383
  157SOL     hw  626   1.486   0.305   4.351 -1.0696  1.5358 -2.1664
  157SOL     hw  627   1.490   0.444   4.410  0.7675  0.2053  1.1724
  157SOL     vw  628   1.531   0.374   4.380 -0.1303  0.0404  0.2651
  158SOL     ow  629   2.108   1.840   0.085  0.9961  0.5737 -0.0937
  158SOL     hw  630   2.159   1.779   0.137  1.2572  0.9268  0.0699
  158SOL     hw  631   2.145   1.833  -0.003  1.8209  1.3555  0.1768
  158SOL     vw  632   2.119   1.831   0.080  1.1394  0.7234 -0.0364
  159SOL     ow  633   0.544   0.236   0.689 -0.1349 -0.4101  0.0866
  159SOL     hw  634   0.490   0.157   0.697  0.0261 -0.5103  0.1980
  159SOL     hw  635   0.509   0.296   0.755 -0.3775 -0.3173 -0.1257
  159SOL     vw  636   0.532   0.233   0.699 -0.1456 -0.4111  0.0733
  160SOL     ow  637   0.080   1.820   4.619  0.1400 -0.1035  0.2348
  160SOL     hw  638   0.100   1.884   4.687 -0.1262  0.4416 -0.1886
  160SOL     hw  639   0.064   1.872   4.540 -0.6889 -0.6474  0.0184
  160SOL     vw  640   0.080   1.835   4.617 -0.0045 -0.1034  0.1502
  161SOL     ow  641   1.784   0.572   4.566  0.5443 -0.5220  0.0237
  161SOL     hw  642   1.796   0.552   4.659 -1.6801 -1.3381  0.2134
  161SOL     hw  643   1.695   0.608   4.561  1.5782  2.0454 -1.4669
  161SOL     vw  644   1.774   0.574   4.578  0.3873 -0.2910 -0.1478
  162SOL     ow  645   0.075   0.941   6.226  0.1070 -0.2191 -0.0806
  162SOL     hw  646   0.008   1.008   6.209  0.4673  0.1512 -0.0718
  162SOL     hw  647   0.152   0.991   6.254  1.2547 -0.3889 -2.6298
  162SOL     vw  648   0.077   0.957   6.227  0.3060 -0.1926 -0.4158
  163SOL     ow  649   0.584   0.531   4.074  0.2327  0.3008 -0.2968
  163SOL     hw  650   0.611   0.601   4.015 -0.6549  0.6358 -0.3252
  163SOL     hw  651   0.510   0.568   4.122 -0.7113 -0.8592 -0.8222
  163SOL     vw  652   0.578   0.545   4.072 -0.0089  0.1920 -0.3700
  164SOL     ow  653   0.028   1.109   2.275  0.5548  0.8856  0.4439
  164SOL     hw  654  -0.045   1.087   2.217  1.3905 -1.4042  0.1609
  164SOL     hw  655   0.105   1.108   2.218  1.1109  0.7329  1.1888
  164SOL     vw  656   0.028   1.106   2.260  0.7384  0.5633  0.5047
  165SOL     ow  657   0.387   1.648   4.621 -0.5689 -0.0421 -0.4293
  165SOL     hw  658   0.389   1.738   4.654  0.6932 -0.2237  0.0494
  165SOL     hw  659   0.343   1.655   4.536 -0.2857  1.0653 -0.4974
  165SOL     vw  660   0.382   1.661   4.614 -0.3650  0.0800 -0.3748
  166SOL     ow  661   1.762   0.851   3.845  0.8383 -0.2429 -0.1442
  166SOL     hw  662   1.798   0.800   3.917  2.2639  0.4008 -0.3735
  166SOL     hw  663   1.752   0.939   3.879  2.2688  0.2561 -0.9168
  166SOL     vw  664   1.766   0.856   3.859  1.2152 -0.0921 -0.2764
  167SOL     ow  665   1.362   1.653   3.743 -0.3128 -0.2049 -0.5856
  167SOL     hw  666   1.321   1.696   3.668  1.7677  3.7988  0.2304
  167SOL     hw  667   1.443   1.616   3.708 -1.3663 -2.2910 -0.9862
  167SOL     vw  668   1.368   1.654   3.728 -0.1773  0.0481 -0.5308
  168SOL     ow  669   0.886   0.123   3.185  0.0203 -0.1250 -0.1705
  168SOL     hw  670   0.955   0.082   3.133  0.2327  1.3060 -1.0574
  168SOL     hw  671   0.849   0.190   3.128 -1.4258 -0.1756  0.6631
  168SOL     vw  672   0.891   0.126   3.171 -0.1425  0.0571 -0.1775
  169SOL     ow  673   0.321   0.063   0.175  0.0014  0.1115 -0.3291
  169SOL     hw  674   0.391   0.111   0.131 -0.7517  1.2195 -0.3763
  169SOL     hw  675   0.361  -0.018   0.204  1.6399  1.2535  0.7636
  169SOL     vw  676   0.335   0.059   0.173  0.1182  0.4083 -0.1912
  170SOL     ow  677   0.142   0.184   0.547  0.3221  0.1992 -0.2161
  170SOL     hw  678   0.193   0.265   0.535  0.0098  0.1845 -1.9378
  170SOL     hw  679   0.124   0.181   0.641  3.1654  0.3842  0.4371
  170SOL     vw  680   0.146   0.195   0.558  0.6560  0.2217 -0.3571
  171SOL     ow  681   2.370   2.148   3.767  0.3499  0.5914  0.2174
  171SOL     hw  682   2.436   2.199   3.720  0.3868  2.1658  1.8457
  171SOL     hw  683   2.288   2.196   3.753  0.1646  0.4633  0.8221
  171SOL     vw  684   2.368   2.161   3.759  0.3303  0.7823  0.5121
  172SOL     ow  685   0.025   1.123   3.143  0.2247  1.0142 -0.1568
  172SOL     hw  686  -0.047   1.169   3.185  0.6839  0.6730  1.0465
  172SOL     hw  687   0.008   1.031   3.158  0.5007  0.8916 -0.5624
  172SOL     vw  688   0.013   1.117   3.150  0.3217  0.9530 -0.0515
  173SOL     ow  689   1.237   1.592   4.055  1.0901 -0.6975  0.0352
  173SOL     hw  690   1.158   1.549   4.024  1.7401 -0.3614 -2.2424
  173SOL     hw  691   1.221   1.608   4.148 -0.0350 -3.9248  0.5394
  173SOL     vw  692   1.225   1.588   4.064  1.0274 -1.0789 -0.1988
  174SOL     ow  693   1.999   1.703   1.681 -0.3189  0.4450  0.0317
  174SOL     hw  694   2.017   1.783   1.730  1.7908 -0.3650  0.6912
  174SOL     hw  695   2.072   1.695   1.620  1.0448 -2.2993  1.8228
  174SOL     vw  696   2.011   1.712   1.679  0.1395 -0.0240  0.3551
  175SOL     ow  697   0.043   0.102   2.627  0.2671  0.2819  0.3443
  175SOL     hw  698   0.045   0.022   2.680  1.0107  0.5474  0.7303
  175SOL     hw  699   0.093   0.166   2.678 -0.5367  1.0740  0.1600
  175SOL     vw  700   0.050   0.100   2.640  0.2592  0.4214  0.3710
  176SOL     ow  701   0.565   0.076   0.450  0.4886 -0.1730  0.5383
  176SOL     hw  702   0.500   0.029   0.502  1.4809 -1.2636  0.8492
  176SOL     hw  703   0.604   0.009   0.394  1.2064  0.4934  0.2206
  176SOL     vw  704   0.562   0.061   0.450  0.7142 -0.2289  0.5374
  177SOL     ow  705   0.730   0.668   4.585  0.5464 -0.0594  0.1634
  177SOL     hw  706   0.800   0.611   4.617  0.1889 -0.5914  0.0016
  177SOL     hw  707   0.756   0.756   4.613  0.9779 -0.3307  0.6235
  177SOL     vw  708   0.743   0.672   4.593  0.5562 -0.1654  0.2031
  178SOL     ow  709   0.757   1.771   6.418  0.4405 -0.0332 -0.0416
  178SOL     hw  710   0.795   1.819   6.491  1.3704 -0.4006 -0.2599
  178SOL     hw  711   0.807   1.689   6.414 -0.2177 -0.4278 -0.5063
  178SOL     vw  712   0.769   1.766   6.427  0.4764 -0.1336 -0.1318
  179SOL     ow  713   1.376   0.973   5.423 -0.0375 -0.2331 -0.3128
  179SOL     hw  714   1.328   0.937   5.497  0.9341  0.4217  0.6576
  179SOL     hw  715   1.309   0.984   5.355 -0.6026 -2.7267 -0.2945
  179SOL     vw  716   1.361   0.969   5.424  0.0161 -0.4757 -0.1826
  180SOL     ow  717   1.413   1.683   4.336  0.0574  0.3559  0.6453
  180SOL     hw  718   1.405   1.733   4.418 -0.5630  0.2162  0.6758
  180SOL     hw  719   1.428   1.749   4.269  2.6085  0.3542  1.1077
  180SOL     vw  720   1.414   1.698   4.338  0.3121  0.3372  0.7105
  181SOL     ow  721   0.655   0.913   4.039  0.3567  0.6657 -0.1516
  181SOL     hw  722   0.570   0.952   4.059  0.0690  0.2359 -0.5274
  181SOL     hw  723   0.653   0.898   3.945  0.0880 -1.1145  0.0991
  181SOL     vw  724   0.644   0.916   4.030  0.2833  0.3741 -0.1683
  182SOL     ow  725   0.037   1.515   4.671 -0.0770 -0.1996  0.2528
  182SOL     hw  726   0.044   1.529   4.766  0.5395 -0.1325  0.2025
  182SOL     hw  727  -0.043   1.464   4.660 -0.2937  0.0149  0.7857
  182SOL     vw  728   0.027   1.510   4.682 -0.0243 -0.1625  0.3166
  183SOL     ow  729   0.629   0.605   1.330 -0.1912 -0.0280  0.7808
  183SOL     hw  730   0.662   0.673   1.272  0.1177  1.6792  2.8081
  183SOL     hw  731   0.621   0.649   1.415  0.1595 -2.5818  2.2264
  183SOL     vw  732   0.632   0.620   1.334 -0.1042 -0.1397  1.2390
  184SOL     ow  733   1.007   0.087   5.129  0.1290 -0.0801  0.1342
  184SOL     hw  734   1.095   0.063   5.099  0.1644 -0.4052  0.4766
  184SOL     hw  735   0.950   0.018   5.095 -0.1136  0.5176 -0.7004
  184SOL     vw  736   1.011   0.075   5.121  0.1017 -0.0442  0.0694
  185SOL     ow  737   0.981   1.446   3.153  0.5738  0.1500  0.1863
  185SOL     hw  738   0.995   1.455   3.058 -0.3632  1.0044  0.1188
  185SOL     hw  739   0.960   1.534   3.183  0.9457 -0.0929  1.2233
  185SOL     vw  740   0.980   1.459   3.144  0.4992  0.2307  0.3142
  186SOL     ow  741   2.176   0.238   2.492  0.9859  0.2348  1.4894
  186SOL     hw  742   2.105   0.258   2.554  0.2261 -1.6898  1.3123
  186SOL     hw  743   2.140   0.261   2.406  0.9914  0.2657  1.4953
  186SOL     vw  744   2.162   0.244   2.489  0.8864 -0.0151  1.4669
  187SOL     ow  745   1.864   1.168   0.842  0.3038  0.5752 -0.1172
  187SOL     hw  746   1.870   1.089   0.895  0.3979 -1.1126 -2.5011
  187SOL     hw  747   1.815   1.142   0.764  0.6300  2.7757 -1.1520
  187SOL     vw  748   1.859   1.154   0.838  0.3594  0.6428 -0.5683
  188SOL     ow  749   0.473   2.019   5.826  0.7219  1.1321 -0.0296
  188SOL     hw  750   0.511   1.978   5.749  0.7523 -1.8661  1.4296
  188SOL     hw  751   0.383   1.987   5.828 -0.2465  3.5666 -0.3387
  188SOL     vw  752   0.466   2.010   5.817  0.5981  1.0576  0.1223
  189SOL     ow  753   0.208   0.937   4.669 -0.7698  0.0245  0.3067
  189SOL     hw  754   0.296   0.898   4.667 -1.1973 -1.0305  0.9863
  189SOL     hw  755   0.162   0.895   4.597 -1.3192 -0.9982  1.2143
  189SOL     vw  756   0.214   0.926   4.660 -0.8987 -0.2496  0.5159
  190SOL     ow  757   0.657   0.692   2.155 -0.3072 -0.3224 -0.6854
  190SOL     hw  758   0.588   0.753   2.181 -0.9682 -1.4318  0.2538
  190SOL     hw  759   0.708   0.740   2.090 -2.1517  0.4172 -1.6532
  190SOL     vw  760   0.654   0.707   2.150 -0.6377 -0.3712 -0.6891
  191SOL     ow  761   1.559   0.856   3.652  0.2426  0.4267 -0.0285
  191SOL     hw  762   1.515   0.925   3.700 -1.0088  0.2783 -0.9208
  191SOL     hw  763   1.632   0.830   3.708  0.1353  1.7724  0.7578
  191SOL     vw  764   1.563   0.861   3.666  0.0633  0.5847 -0.0424
  192SOL     ow  765   0.041   1.612   4.372 -0.2608  0.4554 -0.5180
  192SOL     hw  766   0.116   1.560   4.343 -0.2885  0.7334 -1.1093
  192SOL     hw  767   0.006   1.650   4.292 -2.7921 -1.9456 -0.6937
  192SOL     vw  768   0.047   1.611   4.358 -0.5984  0.1753 -0.6194
  193SOL     ow  769   1.665   0.683   1.206 -0.5790  0.0584 -0.0295
  193SOL     hw  770   1.667   0.594   1.170  0.0667  0.4040 -0.8701
  193SOL     hw  771   1.751   0.694   1.247  0.2779  1.1117 -1.9993
  193SOL     vw  772   1.677   0.673   1.207 -0.3808  0.2430 -0.4003
  194SOL     ow  773   0.546   0.034   2.949  0.7792 -0.1971 -0.3507
  194SOL     hw  774   0.518   0.085   3.025 -0.5220  1.0612 -1.6207
  194SOL     hw  775   0.628   0.075   2.922  0.6121  0.1477 -0.3438
  194SOL     vw  776   0.553   0.046   2.955  0.5855  0.0144 -0.5172
  195SOL     ow  777   0.541   2.138   2.857  0.0112 -0.5526 -0.2384
  195SOL     hw  778   0.579   2.069   2.802 -1.7077 -1.6847 -0.1019
  195SOL     hw  779   0.567   2.116   2.946  0.6472 -0.1948 -0.3310
  195SOL     vw  780   0.549   2.126   2.861 -0.1317 -0.6547 -0.2326
  196SOL     ow  781   2.032   0.056   4.553  0.4788 -0.0282  0.2893
  196SOL     hw  782   2.036   0.026   4.644  1.4701 -0.2750  0.1851
  196SOL     hw  783   1.943   0.034   4.525 -0.5691  1.9412  1.7933
  196SOL     vw  784   2.021   0.049   4.562  0.4712  0.1991  0.4742
  197SOL     ow  785   1.021   1.351   3.408 -1.3613 -0.0949 -0.4352
  197SOL     hw  786   1.022   1.393   3.322 -2.0366  0.6480 -0.0866
  197SOL     hw  787   0.928   1.339   3.428 -1.1939 -1.4368 -0.3645
  197SOL     vw  788   1.009   1.355   3.399 -1.4283 -0.1739 -0.3800
  198SOL     ow  789   1.343   1.964   1.396  0.3072 -0.1741  0.2587
  198SOL     hw  790   1.259   1.989   1.434 -0.4859  2.6615 -2.8856
  198SOL     hw  791   1.406   2.028   1.430  0.1760  0.5845 -0.8625
  198SOL     vw  792   1.341   1.976   1.405  0.1853  0.3001 -0.3041
  199SOL     ow  793   0.654   1.438   1.025  0.1383  0.4972  0.7121
  199SOL     hw  794   0.604   1.359   1.005  0.3848  0.8424 -1.6758
  199SOL     hw  795   0.588   1.507   1.036 -0.0108  0.3427  0.7832
  199SOL     vw  796   0.639   1.437   1.024  0.1512  0.5223  0.4064
  200SOL     ow  797   0.650   1.157   6.668 -0.3347  0.0661  0.5860
  200SOL     hw  798   0.557   1.166   6.647  0.1581  1.3569 -1.3055
  200SOL     hw  799   0.671   1.236   6.718 -0.2104 -0.1367  0.8561
  200SOL     vw  800   0.641   1.168   6.671 -0.2533  0.2096  0.3722
  201SOL     ow  801   1.004   1.436   1.076 -0.1937  0.1455 -0.9172
  201SOL     hw  802   1.055   1.462   0.999  0.5883  2.3683  0.2381
  201SOL     hw  803   1.057   1.466   1.150 -1.8412 -0.1227  0.4279
  201SOL     vw  804   1.018   1.443   1.076 -0.3078  0.4034 -0.5873
  202SOL     ow  805   1.211   0.648   2.871  0.4251  0.1444 -0.8038
  202SOL     hw  806   1.211   0.741   2.891  1.3526 -0.2703  1.4052
  202SOL     hw  807   1.125   0.631   2.834  0.4030  1.9319 -1.6817
  202SOL     vw  808   1.200   0.658   2.869  0.5445  0.3255 -0.6281
  203SOL     ow  809   0.345   0.012   0.591 -0.5349 -0.3313  0.0727
  203SOL     hw  810   0.272   0.073   0.581 -0.6239 -0.6142 -1.0679
  203SOL     hw  811   0.307  -0.066   0.630 -0.7587 -0.3105 -0.1034
  203SOL     vw  812   0.330   0.010   0.595 -0.5762 -0.3659 -0.1010
  204SOL     ow  813   0.208   0.944   5.008 -0.1517 -0.3278  0.3926
  204SOL     hw  814   0.225   1.000   5.084 -0.8172  0.7700 -0.2427
  204SOL     hw  815   0.144   0.880   5.039 -1.5262  1.0082  0.3842
  204SOL     vw  816   0.202   0.943   5.022 -0.4208 -0.0067  0.3078
  205SOL     ow  817   1.720   1.172   0.346  0.4098  0.1544 -0.0069
  205SOL     hw  818   1.788   1.229   0.382  0.7204 -0.3484  0.2020
  205SOL     hw  819   1.699   1.212   0.261  2.4085 -0.8007 -1.0179
  205SOL     vw  820   1.726   1.185   0.340  0.7145 -0.0379 -0.1128
  206SOL     ow  821   0.923   0.290   3.863  0.2958 -0.6262  0.0723
  206SOL     hw  822   0.875   0.308   3.782  0.9471 -0.4299 -0.2805
  206SOL     hw  823   0.944   0.197   3.859  1.4801 -0.3603 -0.6499
  206SOL     vw  824   0.920   0.280   3.852  0.5380 -0.5652 -0.0695
  207SOL     ow  825   1.133   1.563   5.654 -0.0102  0.2344 -0.2154
  207SOL     hw  826   1.223   1.578   5.681 -0.1266  0.6183 -0.0338
  207SOL     hw  827   1.138   1.545   5.560  0.5767 -2.6446  0.2832
  207SOL     vw  828   1.145   1.563   5.645  0.0519 -0.0948 -0.1259
  208SOL     ow  829   0.930   0.108   4.176  0.4358 -0.0432 -0.6342
  208SOL     hw  830   1.005   0.155   4.140  1.1620 -0.7500 -0.0909
  208SOL     hw  831   0.959   0.080   4.263 -1.1084  1.2515  0.3608
  208SOL     vw  832   0.944   0.111   4.183  0.3279  0.0344 -0.4313
  209SOL     ow  833   0.730   1.095   4.221  0.0161 -0.3176  0.6544
  209SOL     hw  834   0.648   1.099   4.271 -1.8048 -0.5359 -2.1075
  209SOL     hw  835   0.729   1.009   4.178  0.3571  0.6618 -1.4569
  209SOL     vw  836   0.719   1.084   4.222 -0.1791 -0.2172  0.0110
  210SOL     ow  837   2.345   1.060   2.573  0.3576 -0.3363 -0.1987
  210SOL     hw  838   2.365   0.975   2.613 -1.6786 -0.7848  0.0049
  210SOL     hw  839   2.285   1.102   2.635 -0.6696  0.1543 -1.4690
  210SOL     vw  840   2.340   1.054   2.587 -0.0466 -0.3308 -0.3394
  211SOL     ow  841   1.222   1.866   1.146  0.4917 -0.1770 -0.1231
  211SOL     hw  842   1.178   1.926   1.207  1.5253  1.6469 -1.0915
  211SOL     hw  843   1.157   1.797   1.130  0.0164 -0.5123  2.6489
  211SOL     vw  844   1.207   1.865   1.152  0.5653  0.0195  0.1148
  212SOL     ow  845   0.987   2.092   0.520 -0.2682 -0.0292  1.1854
  212SOL     hw  846   1.055   2.145   0.478  0.1331  0.9243  2.9148
  212SOL     hw  847   0.990   2.008   0.474  1.4157  0.3271  0.5545
  212SOL     vw  848   0.996   2.088   0.508  0.0069  0.1436  1.3304
  213SOL     ow  849   1.323   1.881   3.943 -0.4343  0.8260  0.3440
  213SOL     hw  850   1.351   1.939   4.014  0.1078  0.2091  0.6410
  213SOL     hw  851   1.235   1.912   3.921 -0.5992  1.0529  1.2630
  213SOL     vw  852   1.315   1.893   3.949 -0.3846  0.7745  0.5045
  214SOL     ow  853   0.982   1.149   4.102  0.1865  0.1247 -0.0956
  214SOL     hw  854   1.045   1.087   4.140 -0.1622  0.3519  0.8862
  214SOL     hw  855   0.897   1.122   4.137 -0.3495 -0.4223 -1.7308
  214SOL     vw  856   0.979   1.137   4.112  0.0698  0.0825 -0.1819
  215SOL     ow  857   2.268   1.190   3.782  0.5152  0.1742 -0.0895
  215SOL     hw  858   2.202   1.219   3.846  0.0275 -0.9895 -0.0464
  215SOL     hw  859   2.256   1.096   3.776  1.0251  0.1720 -1.3938
  215SOL     vw  860   2.258   1.182   3.790  0.5181  0.0203 -0.2558
  216SOL     ow  861   2.144   1.302   0.755  0.1710  0.3756  0.1354
  216SOL     hw  862   2.128   1.269   0.666  3.5221 -0.3098 -0.3467
  216SOL     hw  863   2.224   1.257   0.782  1.2653  3.2666  2.0913
  216SOL     vw  864   2.153   1.291   0.747  0.7575  0.6666  0.3299
  217poe    c31  865   0.798   1.041   4.544  0.6439  0.0299  0.0091
  217poe     o2  866   0.821   0.923   4.618 -0.1296 -0.2313 -0.1484
  217poe    c23  867   0.862   0.965   4.746 -0.1437 -0.4617 -0.0683
  217poe    c23  868   0.815   0.867   4.855 -0.2793 -0.1762  0.1290
  217poe     o2  869   0.675   0.851   4.845 -0.2005 -0.7778 -0.0137
  217poe    c23  870   0.631   0.788   4.963  0.1930 -0.4205  0.3271
  217poe    c23  871   0.616   0.881   5.085 -0.1568 -0.4660  0.3198
  217poe     o2  872   0.527   0.988   5.066 -0.4268 -0.7105  0.2026
  217poe    c23  873   0.534   1.086   5.168 -0.3147 -0.1630 -0.3273
  217poe    c23  874   0.429   1.198   5.159  0.1499  0.3212  0.2886
  217poe     o2  875   0.305   1.135   5.179  0.2238  0.0160 -0.2047
  217poe    c31  876   0.227   1.235   5.242  0.4741  0.3341 -0.3980
  218poe    c31  877   0.559   0.628   1.692  0.0422 -0.7621  0.1641
  218poe     o2  878   0.564   0.699   1.570 -0.5411  0.3824  0.7966
  218poe    c23  879   0.604   0.833   1.593 -0.1826  0.4093  0.0383
  218poe    c23  880   0.569   0.935   1.483 -0.1577  0.3937  0.0163
  218poe     o2  881   0.628   0.898   1.360  0.1203 -0.2060  0.3241
  218poe    c23  882   0.533   0.918   1.258  0.0621 -0.1132  0.3959
  218poe    c23  883   0.608   0.901   1.124 -0.2890 -0.2550  0.2151
  218poe     o2  884   0.670   0.775   1.116 -0.5292 -0.3521 -0.1398
  218poe    c23  885   0.682   0.754   0.977  0.0896  0.3525 -0.2037
  218poe    c23  886   0.805   0.670   0.940  0.0003  0.0604  0.1593
  218poe     o2  887   0.813   0.538   0.990  0.9394  0.1763  0.3414
  218poe    c31  888   0.927   0.482   0.928  0.2026 -0.2605 -0.6485
  219poe    c31  889   0.254   1.831   6.200  0.2749 -0.0043  0.2862
  219poe     o2  890   0.298   1.703   6.159  0.0005  0.0510 -0.1763
  219poe    c23  891   0.189   1.646   6.089  0.3028 -0.7674  0.0099
  219poe    c23  892   0.208   1.506   6.027  0.4999 -0.5752 -0.3679
  219poe     o2  893   0.099   1.480   5.942 -0.2160 -0.4377  0.4933
  219poe    c23  894   0.097   1.340   5.923 -0.1086 -0.4416  0.5083
  219poe    c23  895  -0.035   1.302   5.852  0.2540 -0.0282 -0.4140
  219poe     o2  896  -0.070   1.409   5.767  0.6734  0.0100 -0.5422
  219poe    c23  897  -0.145   1.363   5.657 -0.4812  0.5241  0.0166
  219poe    c23  898  -0.124   1.471   5.549 -0.9575  0.0746 -0.5286
  219poe     o2  899  -0.151   1.599   5.601 -0.1319 -0.0633  0.2535
  219poe    c31  900  -0.223   1.671   5.504  0.1653  0.3361  0.3255
  220poe    c31  901   2.139   0.665   4.525 -0.3800 -0.3442 -0.3986
  220poe     o2  902   2.214   0.548   4.497 -0.0556 -0.0851 -0.6232
  220poe    c23  903   2.244   0.531   4.360  0.1038  0.0236 -0.6023
  220poe    c23  904   2.300   0.389   4.345  0.1248 -0.0239 -0.0884
  220poe     o2  905   2.202   0.287   4.345  0.0652  0.0299 -0.5257
  220poe    c23  906   2.212   0.209   4.228 -0.1421 -0.3372 -0.3007
  220poe    c23  907   2.110   0.094   4.237 -0.1473 -0.3113 -0.0056
  220poe     o2  908   1.984   0.149   4.266 -0.1307 -0.3997  0.2321
  220poe    c23  909   1.902   0.036   4.243 -0.2432 -0.3272  0.2792
  220poe    c23  910   1.767   0.034   4.317 -0.2166 -0.1651  0.3332
  220poe     o2  911   1.786   0.020   4.456  0.1643 -0.1620  0.2818
  220poe    c31  912   1.668  -0.014   4.525  0.1608 -0.5943  0.0648
  221poe    c31  913   1.683   2.356   5.565  0.2362  0.2636  0.1504
  221poe     o2  914   1.552   2.309   5.542  0.1123  0.5698  0.2355
  221poe    c23  915   1.531   2.269   5.409 -0.2318 -0.0701  0.4744
  221poe    c23  916   1.403   2.185   5.418 -0.5019  0.2935  0.0926
  221poe     o2  917   1.310   2.265   5.487  0.1540  0.8825  0.2991
  221poe    c23  918   1.183   2.213   5.456  0.4921  0.3616 -0.2522
  221poe    c23  919   1.056   2.257   5.532  0.2676 -0.5326 -0.1037
  221poe     o2  920   1.044   2.397   5.543 -1.1817 -0.5746 -0.8931
  221poe    c23  921   0.960   2.418   5.654 -0.3073  0.5863 -0.4303
  221poe    c23  922   0.943   2.551   5.729 -0.1431  0.3741 -0.0120
  221poe     o2  923   1.072   2.605   5.746 -0.1574  0.3420  0.1985
  221poe    c31  924   1.082   2.704   5.847 -0.0856  0.5862 -0.0479
  222poe    c31  925   1.953   0.554   1.251 -0.3943  0.3969 -0.3710
  222poe     o2  926   1.889   0.663   1.315 -0.4441  0.0506  0.1743
  222poe    c23  927   1.984   0.764   1.344 -0.5276  0.2495 -0.2494
  222poe    c23  928   1.911   0.899   1.338 -0.8134  0.1360  0.5583
  222poe     o2  929   1.875   0.927   1.204  0.0211 -0.1811  0.2621
  222poe    c23  930   1.768   1.018   1.217 -0.5893 -0.8870  0.3269
  222poe    c23  931   1.684   1.040   1.091  0.3882 -0.0388 -0.1976
  222poe     o2  932   1.579   0.949   1.066  0.5870 -0.4043  0.2838
  222poe    c23  933   1.558   0.933   0.928 -0.6663  0.3074  0.3682
  222poe    c23  934   1.446   0.828   0.911 -0.0181 -0.3059 -0.1918
  222poe     o2  935   1.433   0.746   1.025 -0.0208 -0.7909 -0.5388
  222poe    c31  936   1.307   0.683   1.027 -0.4853  0.1377 -0.0826
  223poe    c31  937   1.399   1.132   1.603  0.0495  0.1443  0.4342
  223poe     o2  938   1.500   1.069   1.677 -0.3100 -0.3406  0.5159
  223poe    c23  939   1.609   1.016   1.605 -0.0169  0.5459  0.3052
  223poe    c23  940   1.719   0.960   1.697  0.0730  0.2548  0.0248
  223poe     o2  941   1.702   1.027   1.820  0.2998  0.4634 -0.0570
  223poe    c23  942   1.798   0.984   1.914  0.7322  1.4180 -0.0461
  223poe    c23  943   1.761   0.993   2.063  0.2460 -1.0813  0.0373
  223poe     o2  944   1.622   0.971   2.072  0.1284 -0.5972 -0.5150
  223poe    c23  945   1.579   0.952   2.205  0.3139  0.0579 -0.3532
  223poe    c23  946   1.428   0.971   2.227  0.3243  0.2891 -0.4801
  223poe     o2  947   1.346   0.878   2.161 -0.1399  0.1119  0.3302
  223poe    c31  948   1.219   0.863   2.222 -0.3361  0.6911  0.0712
  224poe    c31  949   0.581   1.363   4.474 -0.2862 -0.1449  0.2287
  224poe     o2  950   0.597   1.405   4.607 -0.9391  0.0850  0.2394
  224poe    c23  951   0.560   1.296   4.688  0.1966 -0.3398  0.2156
  224poe    c23  952   0.596   1.348   4.828 -0.6424 -0.5519  0.5176
  224poe     o2  953   0.544   1.477   4.851  0.4353 -0.0654  0.2953
  224poe    c23  954   0.526   1.514   4.986 -0.3370  0.6361  0.0164
  224poe    c23  955   0.438   1.639   4.991  0.0809  0.9140  0.5346
  224poe     o2  956   0.469   1.724   4.883 -0.3310 -0.0777 -0.3786
  224poe    c23  957   0.396   1.842   4.907 -0.1151  0.0675 -0.4316
  224poe    c23  958   0.417   1.959   4.809  0.5507  0.2253 -0.1052
  224poe     o2  959   0.371   1.927   4.680  0.1938 -0.1828  0.1247
  224poe    c31  960   0.391   2.023   4.580 -0.3490 -0.0559  0.1330
  225poe    c31  961   1.058   0.697   3.224  0.3797  0.4718  0.3264
  225poe     o2  962   1.151   0.776   3.153  0.3074 -0.2781 -0.6149
  225poe    c23  963   1.074   0.873   3.085  0.1535  0.0935  0.0835
  225poe    c23  964   1.161   0.958   2.992  0.7085 -0.4973  0.0558
  225poe     o2  965   1.250   0.894   2.903  0.4306  0.0638 -0.6454
  225poe    c23  966   1.337   0.987   2.843  0.5240  0.5519  0.2359
  225poe    c23  967   1.442   0.902   2.769 -0.0464  0.1907 -0.1662
  225poe     o2  968   1.537   0.835   2.848  0.3449  0.6697 -0.2261
  225poe    c23  969   1.641   0.925   2.881  0.7988  0.0297  0.1316
  225poe    c23  970   1.752   0.856   2.962  0.1652 -1.0242  0.1087
  225poe     o2  971   1.702   0.827   3.091 -0.5196 -0.2765  0.0193
  225poe    c31  972   1.822   0.793   3.157 -0.4847 -0.5191 -0.1688
  226poe    c31  973   0.373   1.232   1.675  0.4648 -0.6189  0.2210
  226poe     o2  974   0.288   1.339   1.708  0.5357 -0.3594 -0.4131
  226poe    c23  975   0.348   1.466   1.694  0.1674 -0.1752 -0.3282
  226poe    c23  976   0.250   1.585   1.697 -0.1719 -0.4568 -0.1327
  226poe     o2  977   0.202   1.592   1.830  0.7194  0.6409  0.1461
  226poe    c23  978   0.130   1.711   1.852  0.2772  0.3254  0.4154
  226poe    c23  979   0.047   1.694   1.981  0.2923 -0.4523  0.3242
  226poe     o2  980  -0.031   1.580   1.955 -0.0319 -0.1327 -0.1083
  226poe    c23  981  -0.153   1.587   2.026 -0.0418 -0.4514 -0.0893
  226poe    c23  982  -0.237   1.473   1.967  0.3240 -0.5165 -0.4960
  226poe     o2  983  -0.184   1.345   1.991  0.9863 -0.0098  0.8389
  226poe    c31  984  -0.233   1.287   2.110  0.1168  0.0104  0.4960
  227poe    c31  985   1.510   1.871   0.557 -0.0514 -0.5122 -0.2672
  227poe     o2  986   1.610   1.941   0.486 -0.0393  0.1182  0.3669
  227poe    c23  987   1.629   2.067   0.546  0.0263  0.3136 -0.0596
  227poe    c23  988   1.775   2.106   0.575  0.2861 -0.7970  0.1727
  227poe     o2  989   1.863   2.095   0.465 -0.0333 -0.5085 -0.1185
  227poe    c23  990   1.989   2.120   0.525 -0.1761 -0.1002  0.0184
  227poe    c23  991   2.108   2.108   0.428 -0.3046 -0.7472 -0.0632
  227poe     o2  992   2.129   1.974   0.388 -0.9144 -0.7784 -0.3054
  227poe    c23  993   2.266   1.956   0.358 -0.4802  0.2346  0.9474
  227poe    c23  994   2.308   1.815   0.403 -0.0522  0.1878  0.4119
  227poe     o2  995   2.244   1.725   0.315 -0.0987  0.2498  0.3825
  227poe    c31  996   2.283   1.593   0.342  0.5839  0.3684  0.0024
  228poe    c31  997   2.128   1.543   2.516  0.5687  0.1798  0.4150
  228poe     o2  998   2.178   1.430   2.583 -0.7596 -0.4905  0.3086
  228poe    c23  999   2.109   1.419   2.705 -1.1506  0.7323  0.2097
  228poe    c23 1000   2.175   1.325   2.808 -0.3265  0.2905 -0.7120
  228poe     o2 1001   2.198   1.191   2.772  0.1463  0.1423  0.1084
  228poe    c23 1002   2.157   1.122   2.888  0.2070 -0.2459 -0.0969
  228poe    c23 1003   2.235   0.991   2.907 -0.0346 -0.3343  0.2986
  228poe     o2 1004   2.160   0.885   2.961  0.1982 -0.4252  0.4480
  228poe    c23 1005   2.199   0.765   2.898  1.1924  0.2631 -0.2805
  228poe    c23 1006   2.169   0.747   2.749  0.3222  0.0070 -0.0778
  228poe     o2 1007   2.239   0.828   2.657 -0.0010  0.4785  0.0902
  228poe    c31 1008   2.201   0.777   2.532 -0.5397  0.6571  0.1787
  229poe    c31 1009   1.490   2.198   6.449  0.7420 -0.1488  0.7165
  229poe     o2 1010   1.493   2.069   6.391 -0.8938 -0.0899  0.4624
  229poe    c23 1011   1.448   2.070   6.257  0.3116 -0.2887  0.0419
  229poe    c23 1012   1.528   1.990   6.153  0.4375  0.3662 -0.3674
  229poe     o2 1013   1.551   1.868   6.221  0.1572  0.0179 -0.8920
  229poe    c23 1014   1.662   1.795   6.173  0.0331 -0.5084 -0.3750
  229poe    c23 1015   1.679   1.677   6.271  0.4012 -0.0644  0.1028
  229poe     o2 1016   1.666   1.737   6.398 -0.0278  0.0073  0.0268
  229poe    c23 1017   1.600   1.653   6.489  0.2799  0.4493  0.6597
  229poe    c23 1018   1.448   1.678   6.493  0.1367 -0.3910  0.5813
  229poe     o2 1019   1.419   1.814   6.513  0.5423 -0.2882  0.4710
  229poe    c31 1020   1.279   1.820   6.528  0.5692  0.2232  0.5295
  230poe    c31 1021   0.648   0.446   3.693  1.0325  0.2679 -0.3949
  230poe     o2 1022   0.756   0.362   3.659  0.7853 -0.3164  0.2329
  230poe    c23 1023   0.764   0.361   3.518 -0.1614  0.0886  0.1673
  230poe    c23 1024   0.908   0.345   3.467 -0.3368 -0.0519 -0.2891
  230poe     o2 1025   0.963   0.222   3.508 -0.2781 -0.0877 -0.4735
  230poe    c23 1026   1.077   0.206   3.426 -0.5101 -0.3562 -0.7441
  230poe    c23 1027   1.148   0.084   3.488 -0.0605  0.1659 -0.2293
  230poe     o2 1028   1.073  -0.035   3.497  0.1872  0.0634  0.5551
  230poe    c23 1029   1.134  -0.122   3.589  0.7951 -0.7689 -0.6104
  230poe    c23 1030   1.048  -0.250   3.599  0.1290 -0.2622  0.2347
  230poe     o2 1031   0.920  -0.200   3.630  0.2390  0.1073  0.1081
  230poe    c31 1032   0.847  -0.308   3.685  0.2651 -0.0467 -0.1560
  231poe    c31 1033   1.454   2.396   2.344 -0.2604 -0.0553  0.5812
  231poe     o2 1034   1.328   2.372   2.401 -0.7071  0.2696 -0.2428
  231poe    c23 1035   1.324   2.431   2.529  0.1448 -0.3517  0.0813
  231poe    c23 1036   1.194   2.422   2.611  0.2651 -0.2026  0.2895
  231poe     o2 1037   1.149   2.289   2.630 -0.2616 -0.0843 -0.0923
  231poe    c23 1038   1.065   2.282   2.743 -0.4106 -0.2605 -0.2136
  231poe    c23 1039   1.004   2.148   2.787 -0.3369 -0.2351 -0.0289
  231poe     o2 1040   0.896   2.111   2.704  0.0119  0.0371 -0.6072
  231poe    c23 1041   0.883   1.972   2.689  0.0120 -0.0166 -0.1202
  231poe    c23 1042   0.757   1.936   2.608 -0.1418 -0.4279  0.2971
  231poe     o2 1043   0.642   1.963   2.686  0.0320 -0.4135  0.5500
  231poe    c31 1044   0.529   1.932   2.608 -0.0880  1.1898  0.0520
  232poe    c31 1045   1.782   1.967   1.506 -0.1247  0.3072  0.0760
  232poe     o2 1046   1.719   1.871   1.588 -0.0330  0.0184 -0.1919
  232poe    c23 1047   1.612   1.937   1.651  0.0275  0.3994 -0.4839
  232poe    c23 1048   1.547   1.827   1.737  0.2527  0.3008 -0.4382
  232poe     o2 1049   1.639   1.726   1.774 -0.2642 -0.2923 -0.7451
  232poe    c23 1050   1.593   1.640   1.876 -0.5717  0.1181 -0.5304
  232poe    c23 1051   1.730   1.589   1.925 -0.5717  0.2239 -0.4209
  232poe     o2 1052   1.798   1.551   1.808 -0.2649 -0.2336 -0.0968
  232poe    c23 1053   1.837   1.415   1.809  0.0892 -0.1307  0.0781
  232poe    c23 1054   1.947   1.393   1.703 -0.0689 -0.3958 -0.0317
  232poe     o2 1055   1.921   1.415   1.566  0.3393 -0.4092 -0.1129
  232poe    c31 1056   1.887   1.295   1.501 -0.0739 -0.3103 -0.0830
  233poe    c31 1057   0.224   0.601   4.820  0.4167  0.2049 -0.2564
  233poe     o2 1058   0.184   0.470   4.853  0.3010  0.3189  0.0596
  233poe    c23 1059   0.246   0.436   4.975  0.1637  0.1395  0.0796
  233poe    c23 1060   0.156   0.324   5.031 -0.3512  0.3508 -0.3073
  233poe     o2 1061   0.093   0.224   4.955 -0.0553 -0.2205  0.1825
  233poe    c23 1062  -0.009   0.174   5.039  0.0643 -0.5040  0.1586
  233poe    c23 1063  -0.153   0.218   5.010  0.1578 -0.2715  0.0412
  233poe     o2 1064  -0.216   0.122   4.927 -0.0101 -0.4861  0.4172
  233poe    c23 1065  -0.356   0.133   4.937  0.0206  0.5970 -0.2230
  233poe    c23 1066  -0.397  -0.012   4.906  0.1677  0.5454 -0.1760
  233poe     o2 1067  -0.384  -0.049   4.771 -0.0858 -0.0189 -0.0492
  233poe    c31 1068  -0.435  -0.179   4.750  0.6213 -0.3034 -0.0279
  234poe    c31 1069   1.169   2.161   0.820  0.7558  0.0396 -0.4978
  234poe     o2 1070   1.062   2.244   0.860  0.6898 -0.3561  0.1615
  234poe    c23 1071   1.082   2.381   0.832  0.0725 -0.1488  0.7088
  234poe    c23 1072   0.999   2.471   0.926 -0.4743  0.3027 -0.1909
  234poe     o2 1073   0.865   2.436   0.901 -0.4414  0.0492 -0.0206
  234poe    c23 1074   0.784   2.510   0.989 -0.4394 -0.3335  0.3082
  234poe    c23 1075   0.643   2.448   0.986 -0.5152 -0.1598  0.1863
  234poe     o2 1076   0.654   2.307   0.992 -0.0708 -0.1169  0.4117
  234poe    c23 1077   0.524   2.261   1.022 -0.1246 -0.0760  0.2426
  234poe    c23 1078   0.504   2.132   1.104 -0.9100 -0.0428  0.1094
  234poe     o2 1079   0.557   2.134   1.235 -0.0975  0.3557 -0.2190
  234poe    c31 1080   0.448   2.168   1.318 -0.0292 -0.1839  0.0918
  235poe    c31 1081   0.860   0.889   1.981  0.0914  0.2492  0.0421
  235poe     o2 1082   0.807   0.762   1.949  0.5032  0.1025 -0.0631
  235poe    c23 1083   0.923   0.681   1.950  0.3114 -0.1689  0.0780
  235poe    c23 1084   0.920   0.587   1.828 -0.3129  0.4838 -0.4219
  235poe     o2 1085   0.830   0.479   1.841 -0.1200  0.3425 -0.2600
  235poe    c23 1086   0.846   0.369   1.754  0.0308 -0.2116  0.4591
  235poe    c23 1087   0.711   0.301   1.727 -0.0020  0.0073  0.0788
  235poe     o2 1088   0.681   0.232   1.846  0.2087 -0.3347 -0.0654
  235poe    c23 1089   0.563   0.157   1.825  0.3374 -0.4295 -0.4519
  235poe    c23 1090   0.496   0.114   1.957 -0.2011  0.3656 -0.4569
  235poe     o2 1091   0.455   0.207   2.054 -0.5415 -0.3574  0.0952
  235poe    c31 1092   0.453   0.160   2.187 -0.0656 -0.0758  0.2032
  236poe    c31 1093   2.265   0.827   0.742 -0.1384 -0.1836 -0.1939
  236poe     o2 1094   2.230   0.907   0.632 -0.4012 -0.2695 -0.1736
  236poe    c23 1095   2.089   0.908   0.630 -0.4020  0.1455  0.0122
  236poe    c23 1096   2.035   0.991   0.512 -0.1343 -0.1015 -0.2862
  236poe     o2 1097   2.066   1.126   0.533  0.0422 -0.1226 -0.4142
  236poe    c23 1098   2.064   1.194   0.409  0.2438  0.1887 -0.2490
  236poe    c23 1099   2.035   1.345   0.418  0.0812  0.1361  0.1542
  236poe     o2 1100   1.896   1.360   0.436  0.1490  0.4579  0.4093
  236poe    c23 1101   1.852   1.494   0.428 -0.2935  0.3005  0.1824
  236poe    c23 1102   1.721   1.526   0.353 -0.4339 -0.4514  0.0953
  236poe     o2 1103   1.737   1.562   0.218  0.0403  0.3726  0.3563
  236poe    c31 1104   1.613   1.601   0.163 -0.1257  0.1427  0.5641
  237poe    c31 1105   1.717   0.576   1.636 -0.0222  0.0062 -0.2516
  237poe     o2 1106   1.672   0.479   1.729 -0.1394 -0.4515 -0.7750
  237poe    c23 1107   1.532   0.495   1.732 -0.0726  0.0540  0.0070
  237poe    c23 1108   1.483   0.467   1.875 -0.1002  0.5586  0.0985
  237poe     o2 1109   1.557   0.349   1.899  0.2348  0.7253 -0.1095
  237poe    c23 1110   1.557   0.329   2.039  0.2733  0.4883 -0.1443
  237poe    c23 1111   1.617   0.193   2.081 -0.3093  0.1547 -0.3832
  237poe     o2 1112   1.749   0.182   2.033 -0.2426  0.0175 -0.1672
  237poe    c23 1113   1.816   0.064   2.070  0.0298  0.1909 -0.1014
  237poe    c23 1114   1.956   0.062   2.004 -0.2400  0.3598 -0.6819
  237poe     o2 1115   2.055   0.159   2.028 -0.2773  0.1046  0.5475
  237poe    c31 1116   2.140   0.178   1.917 -0.6179 -0.0642  0.2585
  238poe    c31 1117   1.688   2.103   3.430  0.1673  0.1718  0.0718
  238poe     o2 1118   1.787   2.040   3.508  0.0586 -0.1120 -0.0205
  238poe    c23 1119   1.785   1.899   3.494 -0.5184 -0.1187  0.1138
  238poe    c23 1120   1.915   1.830   3.536 -0.1858  0.2947 -0.2238
  238poe     o2 1121   2.031   1.882   3.474 -0.2910  0.1159 -0.5719
  238poe    c23 1122   2.139   1.792   3.465 -0.3739 -0.0253 -0.2039
  238poe    c23 1123   2.263   1.871   3.418 -0.5102 -0.1789 -0.8391
  238poe     o2 1124   2.233   1.969   3.321 -0.1742 -0.0247 -0.7892
  238poe    c23 1125   2.360   2.025   3.297 -0.0706 -0.0212 -0.2643
  238poe    c23 1126   2.331   2.157   3.222  0.4170  0.4986  0.4497
  238poe     o2 1127   2.226   2.215   3.298  0.2673  0.3609  0.3496
  238poe    c31 1128   2.188   2.338   3.240  0.6871 -0.0528 -0.8451
  239poe    c31 1129   2.174   1.767   4.653 -0.3761 -0.0742 -0.8759
  239poe     o2 1130   2.217   1.675   4.555 -0.0477 -0.6622 -0.1870
  239poe    c23 1131   2.127   1.576   4.509 -0.0813 -0.6873 -0.0693
  239poe    c23 1132   2.120   1.446   4.591 -0.1192 -0.2949  0.5610
  239poe     o2 1133   2.247   1.390   4.616  0.1775  0.0034 -0.2346
  239poe    c23 1134   2.221   1.251   4.617  0.2291 -0.0057 -0.1729
  239poe    c23 1135   2.319   1.152   4.681  0.3265  0.2617  0.0935
  239poe     o2 1136   2.351   1.173   4.817  0.2584 -0.2810  0.1967
  239poe    c23 1137   2.249   1.147   4.911 -0.0679 -0.4216 -0.1916
  239poe    c23 1138   2.257   1.003   4.966  0.4615 -0.4235 -0.2695
  239poe     o2 1139   2.242   0.918   4.854  0.3194 -0.3121 -0.3351
  239poe    c31 1140   2.266   0.789   4.906  0.6614 -0.1486 -0.0838
  240poe    c31 1141   0.830   2.316   4.864 -0.2291 -0.2755  0.2886
  240poe     o2 1142   0.887   2.284   4.989 -0.2910  0.1667  0.4284
  240poe    c23 1143   0.961   2.168   4.961 -0.9139 -0.3349  0.8212
  240poe    c23 1144   1.072   2.142   5.066 -0.4244 -0.3464  0.3071
  240poe     o2 1145   1.169   2.240   5.091 -0.4176 -0.1700 -0.3942
  240poe    c23 1146   1.242   2.277   4.976 -0.4544 -0.1026 -0.3955
  240poe    c23 1147   1.319   2.410   4.991 -0.5135 -0.0625 -0.4477
  240poe     o2 1148   1.230   2.513   5.030  0.4509  0.1853  1.2158
  240poe    c23 1149   1.282   2.644   5.021  0.1674  0.2482  0.3697
  240poe    c23 1150   1.179   2.750   4.979 -0.7200 -0.5629  0.4540
  240poe     o2 1151   1.070   2.768   5.068 -0.4579 -0.1345  0.6928
  240poe    c31 1152   0.975   2.849   5.004 -0.3086 -0.2496  0.3172
  241poe    c31 1153   0.909   1.692   4.251  0.0865 -0.2520  0.4114
  241poe     o2 1154   0.977   1.815   4.262 -0.0984 -0.0934 -0.1769
  241poe    c23 1155   0.997   1.877   4.137 -0.0346  0.1853 -0.0287
  241poe    c23 1156   1.067   2.014   4.148  0.0643  0.0605  1.0256
  241poe     o2 1157   1.207   1.999   4.144 -0.0556 -0.9661  0.0325
  241poe    c23 1158   1.265   2.036   4.267  0.4795 -0.1482 -0.4561
  241poe    c23 1159   1.414   2.062   4.241  0.4516 -0.6088 -1.0825
  241poe     o2 1160   1.465   1.931   4.225  0.2305 -0.9013  0.4499
  241poe    c23 1161   1.604   1.951   4.226  0.0907  0.1254  0.4147
  241poe    c23 1162   1.662   1.970   4.084 -0.5773  0.0784  0.1360
  241poe     o2 1163   1.631   1.859   4.002  0.5746 -0.4305  0.3792
  241poe    c31 1164   1.678   1.903   3.877 -0.2092 -0.0482  0.2173
  242poe    c31 1165   1.308   0.608   5.310  0.0752 -1.0147  0.1368
  242poe     o2 1166   1.422   0.686   5.337 -0.5251 -0.3180  0.6823
  242poe    c23 1167   1.494   0.656   5.454  0.0361 -0.1024  0.3945
  242poe    c23 1168   1.627   0.724   5.491 -0.1088  0.2148  0.3393
  242poe     o2 1169   1.625   0.863   5.512  0.1104  0.1024  1.1273
  242poe    c23 1170   1.759   0.906   5.525  0.2136 -0.1962  1.0592
  242poe    c23 1171   1.755   1.059   5.545 -0.5149 -0.0799  0.0679
  242poe     o2 1172   1.678   1.098   5.433 -0.1184 -0.3609 -0.3031
  242poe    c23 1173   1.692   1.237   5.412  0.4219 -0.3774 -0.0720
  242poe    c23 1174   1.618   1.275   5.283  0.5621 -0.3360 -0.1407
  242poe     o2 1175   1.494   1.208   5.295  0.6341 -0.5109 -0.3519
  242poe    c31 1176   1.413   1.222   5.181 -1.0023 -0.7114  0.7403
  243poe    c31 1177   0.210   1.707   2.891  0.9792 -0.2545 -0.3466
  243poe     o2 1178   0.221   1.608   2.991  0.2620  0.0297  0.0187
  243poe    c23 1179   0.318   1.639   3.088 -0.7206  0.5601  0.8580
  243poe    c23 1180   0.462   1.594   3.054 -0.6585  0.5306  1.1516
  243poe     o2 1181   0.478   1.457   3.086  0.2936  0.2753 -0.3089
  243poe    c23 1182   0.608   1.407   3.069  0.1616 -0.4863  0.8132
  243poe    c23 1183   0.629   1.258   3.034 -0.0988 -0.3645  0.1279
  243poe     o2 1184   0.549   1.223   2.923  0.3052  0.0335 -0.2945
  243poe    c23 1185   0.608   1.123   2.844  0.3170 -0.2906  0.1204
  243poe    c23 1186   0.601   0.979   2.899 -0.1721 -0.1754  0.3564
  243poe     o2 1187   0.473   0.939   2.942 -0.0682 -0.3802  0.4746
  243poe    c31 1188   0.480   0.807   2.992 -0.3941 -0.5802  0.0085
  244poe    c31 1189   0.973   1.958   2.203 -0.1868  0.5165 -0.4638
  244poe     o2 1190   1.112   1.939   2.197 -0.1292  0.2719  1.3479
  244poe    c23 1191   1.139   1.800   2.195  0.3283  0.3729 -0.2096
  244poe    c23 1192   1.287   1.771   2.166  0.4781 -0.1422  1.0134
  244poe     o2 1193   1.367   1.862   2.239 -0.0801  0.5788  0.7394
  244poe    c23 1194   1.500   1.816   2.243 -0.3734 -0.3972 -0.2136
  244poe    c23 1195   1.570   1.832   2.379 -0.7166  0.6076 -0.1481
  244poe     o2 1196   1.613   1.959   2.423  0.0308  0.3389 -0.0868
  244poe    c23 1197   1.684   1.948   2.544 -0.1404 -0.0054 -0.0147
  244poe    c23 1198   1.743   2.078   2.603 -0.0366 -0.2665  0.4668
  244poe     o2 1199   1.655   2.131   2.700 -0.3174 -0.1861  0.1729
  244poe    c31 1200   1.694   2.260   2.740 -0.9046 -0.0375  0.2696
  245poe    c31 1201   2.076   0.861   3.815 -0.1123  0.3621 -0.4743
  245poe     o2 1202   2.204   0.919   3.803 -0.0228  0.1327 -0.6374
  245poe    c23 1203   2.303   0.820   3.820 -0.0157  0.2307 -0.1031
  245poe    c23 1204   2.412   0.823   3.711  0.1278 -0.5127  0.0149
  245poe     o2 1205   2.404   0.955   3.663  0.3247 -0.0864  1.1256
  245poe    c23 1206   2.485   0.974   3.549 -0.3525  0.0759  0.6666
  245poe    c23 1207   2.469   1.112   3.483 -0.5987 -0.0878  0.3789
  245poe     o2 1208   2.492   1.218   3.573 -0.0228  0.2051 -0.1071
  245poe    c23 1209   2.491   1.341   3.504  0.1397  0.1867 -0.1410
  245poe    c23 1210   2.553   1.437   3.607 -0.2441  0.6599 -0.3498
  245poe     o2 1211   2.481   1.420   3.727 -0.0868 -0.2874 -0.3836
  245poe    c31 1212   2.474   1.536   3.808 -0.7918 -0.5751 -0.0227
  246poe    c31 1213   1.448   2.010   0.112  0.5232  0.0347  0.2201
  246poe     o2 1214   1.569   2.079   0.087  0.1989  0.1947 -0.9257
  246poe    c23 1215   1.561   2.187   0.177 -0.5610 -0.4191 -0.2418
  246poe    c23 1216   1.665   2.282   0.115 -0.1246 -0.6133  0.1908
  246poe     o2 1217   1.799   2.238   0.108  0.0829  0.0940 -0.4476
  246poe    c23 1218   1.862   2.316   0.010  0.4057  0.0436 -0.2815
  246poe    c23 1219   2.006   2.265  -0.011  0.3418 -0.6652  0.9438
  246poe     o2 1220   2.023   2.133  -0.055  0.0718 -0.3240 -0.1974
  246poe    c23 1221   2.151   2.122  -0.114  0.1645  0.4837 -0.1535
  246poe    c23 1222   2.159   2.020  -0.230 -0.3695  0.6372 -0.3303
  246poe     o2 1223   2.129   1.889  -0.188 -0.3924  0.6389 -0.3420
  246poe    c31 1224   2.092   1.807  -0.296 -0.1875 -0.0911  0.1392
  247poe    c31 1225   0.766   0.485   0.595  0.1994  0.5198 -0.7009
  247poe     o2 1226   0.751   0.380   0.501  0.0733 -0.1233  0.0262
  247poe    c23 1227   0.786   0.425   0.372 -0.9401 -0.4718 -0.3800
  247poe    c23 1228   0.811   0.311   0.272 -0.0492  0.0324 -0.7469
  247poe     o2 1229   0.683   0.261   0.239 -0.3905  0.5626 -0.2366
  247poe    c23 1230   0.692   0.197   0.114 -0.1186  0.3873 -0.1279
  247poe    c23 1231   0.716   0.045   0.116  0.4413  0.4729 -0.2791
  247poe     o2 1232   0.625  -0.027   0.195  0.4814  0.7673  0.0358
  247poe    c23 1233   0.627  -0.167   0.186 -0.3569  0.8042 -0.8713
  247poe    c23 1234   0.534  -0.235   0.288 -0.1426  0.8058 -0.6751
  247poe     o2 1235   0.398  -0.244   0.251 -0.3239  0.9010 -0.0397
  247poe    c31 1236   0.310  -0.295   0.349 -0.0915  0.9603  0.2035
  248poe    c31 1237   0.677   0.745   6.161  0.0612 -0.3331  0.0544
  248poe     o2 1238   0.788   0.829   6.184  0.4403 -0.9576  0.5250
  248poe    c23 1239   0.892   0.825   6.089  0.5930  0.6727  0.5976
  248poe    c23 1240   1.034   0.851   6.142  0.7911  0.6866  0.0670
  248poe     o2 1241   1.086   0.759   6.234  0.0439 -0.0143 -0.1970
  248poe    c23 1242   1.224   0.777   6.260 -0.0688 -0.0301  0.4282
  248poe    c23 1243   1.244   0.769   6.413 -0.0384 -0.1185  0.4195
  248poe     o2 1244   1.250   0.636   6.461  0.4951 -0.1832  0.1807
  248poe    c23 1245   1.201   0.611   6.590  0.5211 -0.6266  0.1062
  248poe    c23 1246   1.172   0.468   6.641 -0.0281 -0.4748  0.2319
  248poe     o2 1247   1.087   0.385   6.566 -0.3434  0.1565 -0.1213
  248poe    c31 1248   1.067   0.255   6.619 -0.0868  0.0016 -0.4016
  249poe    c31 1249   0.241   1.569   5.491 -0.1333 -0.0515  0.5231
  249poe     o2 1250   0.283   1.450   5.555  0.5348 -0.2223 -0.2058
  249poe    c23 1251   0.419   1.457   5.593  0.4278  0.2359  0.1133
  249poe    c23 1252   0.478   1.358   5.695 -0.4823  0.0758  0.4961
  249poe     o2 1253   0.611   1.374   5.738 -0.1314  0.2327 -0.6153
  249poe    c23 1254   0.597   1.296   5.855  0.2244  0.2413 -0.5656
  249poe    c23 1255   0.692   1.176   5.837  0.0748  0.0123  0.1551
  249poe     o2 1256   0.822   1.229   5.849  0.2021 -0.1341 -0.5542
  249poe    c23 1257   0.921   1.136   5.810  0.1843 -0.3465 -0.0919
  249poe    c23 1258   1.062   1.198   5.822  0.3956 -0.6717 -0.8274
  249poe     o2 1259   1.081   1.283   5.711 -0.2362 -0.7647 -1.0094
  249poe    c31 1260   1.184   1.252   5.620  0.8719 -0.1470  0.0094
  250poe    c31 1261   1.037   1.004   6.618  0.0062 -0.2131  0.1590
  250poe     o2 1262   0.935   1.091   6.660  0.2531  0.2288 -0.1539
  250poe    c23 1263   0.986   1.182   6.755 -0.2054  0.4388 -0.1069
  250poe    c23 1264   0.934   1.326   6.773 -0.0630  0.4709  0.0491
  250poe     o2 1265   0.807   1.333   6.835 -0.3248  0.4743 -0.4798
  250poe    c23 1266   0.752   1.457   6.799  0.0288  0.5738 -0.6880
  250poe    c23 1267   0.602   1.468   6.834  0.0719 -0.1255 -0.2617
  250poe     o2 1268   0.578   1.447   6.971  0.0703 -0.0153 -0.2452
  250poe    c23 1269   0.447   1.439   7.022  0.1111 -0.0570 -0.1450
  250poe    c23 1270   0.435   1.491   7.166  0.1998  0.3579 -0.2836
  250poe     o2 1271   0.542   1.416   7.221  0.0483  0.0649 -0.3849
  250poe    c31 1272   0.582   1.454   7.350 -1.0279  0.6688 -0.2151
  251poe    c31 1273   1.561   0.199   6.684 -0.3779  0.2996  0.1096
  251poe     o2 1274   1.547   0.335   6.718 -0.1563  0.4138 -0.2440
  251poe    c23 1275   1.634   0.402   6.630  0.2516 -0.0811 -0.2202
  251poe    c23 1276   1.673   0.545   6.672  0.1739 -0.1012 -0.0785
  251poe     o2 1277   1.568   0.632   6.707  0.1085 -0.2786  0.1691
  251poe    c23 1278   1.604   0.768   6.714 -0.6758 -0.0972  0.8947
  251poe    c23 1279   1.681   0.808   6.841  0.3533  0.2368  0.1816
  251poe     o2 1280   1.588   0.779   6.943  0.9693 -0.0126  0.6803
  251poe    c23 1281   1.586   0.869   7.052  0.1483  0.1678  0.5221
  251poe    c23 1282   1.584   0.782   7.179 -0.5276  0.4465  0.7041
  251poe     o2 1283   1.501   0.670   7.155  0.2031  0.1138 -0.3527
  251poe    c31 1284   1.517   0.594   7.273 -0.2184  0.0533 -0.3331
  252poe    c31 1285   0.757   1.630   3.849 -0.0365  0.0469 -0.1108
  252poe     o2 1286   0.805   1.504   3.889  0.0809  0.0787 -0.1503
  252poe    c23 1287   0.720   1.412   3.825  0.1221 -0.0196 -0.0635
  252poe    c23 1288   0.755   1.262   3.826  0.2765  0.0159 -0.1754
  252poe     o2 1289   0.866   1.228   3.746 -0.1177 -0.3560 -0.5656
  252poe    c23 1290   0.873   1.088   3.730  0.0530 -0.4161  0.0198
  252poe    c23 1291   1.016   1.039   3.702  0.0835 -0.3612  0.0793
  252poe     o2 1292   1.069   1.066   3.574  0.0913 -0.5665  0.0377
  252poe    c23 1293   1.199   1.012   3.561  0.0814 -0.5644 -0.0682
  252poe    c23 1294   1.246   1.071   3.427 -0.1938  0.4372  0.2677
  252poe     o2 1295   1.260   1.210   3.447 -0.0787  0.4381  0.1847
  252poe    c31 1296   1.355   1.278   3.367  0.0756  0.4226  0.3532
  253poe    c31 1297   0.318   0.761   2.619  0.5548  0.3526  0.0685
  253poe     o2 1298   0.319   0.833   2.497 -0.2163  0.1869 -0.0447
  253poe    c23 1299   0.360   0.741   2.399 -0.3590  0.0724  0.0046
  253poe    c23 1300   0.332   0.798   2.259 -0.1910 -0.0520 -0.0799
  253poe     o2 1301   0.384   0.719   2.154 -0.2541 -0.0285 -0.1286
  253poe    c23 1302   0.333   0.744   2.025 -0.3573 -0.0266 -0.0879
  253poe    c23 1303   0.420   0.834   1.937 -0.6419  0.1561 -0.1825
  253poe     o2 1304   0.416   0.965   1.990  0.6598  0.3667 -0.5535
  253poe    c23 1305   0.540   1.029   1.971  0.6831  0.3036 -0.6136
  253poe    c23 1306   0.583   1.100   2.100 -0.2384 -0.1728 -0.0361
  253poe     o2 1307   0.606   1.007   2.203  0.0523 -0.1323 -0.0636
  253poe    c31 1308   0.637   1.080   2.320  0.2801 -0.1404 -0.1202
  254poe    c31 1309   0.448   2.300   2.539 -0.0163 -0.0586  0.2049
  254poe     o2 1310   0.534   2.350   2.639  0.3877  0.1448 -0.2413
  254poe    c23 1311   0.668   2.330   2.597  0.5804 -0.2422  0.5471
  254poe    c23 1312   0.748   2.460   2.615  0.2012  0.1366 -0.4387
  254poe     o2 1313   0.739   2.515   2.745 -0.1849  0.3633 -0.5569
  254poe    c23 1314   0.805   2.639   2.758 -0.2831  0.3514  0.0863
  254poe    c23 1315   0.856   2.672   2.900  0.3073  0.4069 -0.1359
  254poe     o2 1316   0.762   2.667   3.005 -0.0143  1.2408 -0.3753
  254poe    c23 1317   0.648   2.750   2.992 -0.7478  0.2572 -0.3017
  254poe    c23 1318   0.563   2.753   3.119 -0.7104 -0.0688 -0.2667
  254poe     o2 1319   0.539   2.618   3.151 -0.2175 -0.2043 -0.4669
  254poe    c31 1320   0.485   2.615   3.281  0.4154  0.5928 -0.1792
  255poe    c31 1321   1.593   1.638   3.241  0.7747  0.0655 -0.0119
  255poe     o2 1322   1.578   1.536   3.145  0.5288 -0.0172  0.1139
  255poe    c23 1323   1.691   1.480   3.081  0.4123  0.2146 -0.2937
  255poe    c23 1324   1.635   1.368   2.991  0.1368  0.3880 -0.3424
  255poe     o2 1325   1.554   1.418   2.888  0.0724  0.0736 -0.4437
  255poe    c23 1326   1.475   1.320   2.822  0.1632 -0.6740  0.5406
  255poe    c23 1327   1.420   1.368   2.687  0.2644 -0.3910  0.5970
  255poe     o2 1328   1.358   1.492   2.711 -0.5360 -0.5769 -0.4160
  255poe    c23 1329   1.312   1.538   2.586  0.8941  0.3068 -0.6446
  255poe    c23 1330   1.290   1.691   2.589 -0.1112  0.1604  0.2625
  255poe     o2 1331   1.197   1.727   2.689 -0.2664  0.0044  0.1736
  255poe    c31 1332   1.218   1.862   2.721 -0.2745  0.1867 -0.5668
  256poe    c31 1333   2.269   2.256   5.316  0.4266  0.1796  0.2756
  256poe     o2 1334   2.303   2.379   5.377 -0.0061  0.0802  0.7285
  256poe    c23 1335   2.440   2.362   5.409  0.0789 -0.0537  0.2952
  256poe    c23 1336   2.470   2.500   5.469  0.9100 -0.4691  0.8415
  256poe     o2 1337   2.392   2.547   5.576 -0.2896 -0.9476  0.1881
  256poe    c23 1338   2.463   2.555   5.697 -0.1054  0.8431 -0.0226
  256poe    c23 1339   2.351   2.578   5.800  0.2004  0.8380  0.3149
  256poe     o2 1340   2.260   2.682   5.772 -0.6767 -0.1382 -0.5742
  256poe    c23 1341   2.139   2.671   5.844 -0.3185  0.7759  0.1862
  256poe    c23 1342   2.051   2.795   5.819 -0.2794  0.8170  0.2492
  256poe     o2 1343   2.067   2.796   5.679  0.5865  0.6678  0.3383
  256poe    c31 1344   2.025   2.926   5.642 -0.1805  0.4109  0.2948
  257poe    c31 1345   1.642   2.295   1.673 -0.0296  0.2137 -0.1443
  257poe     o2 1346   1.666   2.396   1.578  0.0882 -0.2897 -0.6502
  257poe    c23 1347   1.758   2.359   1.477  0.5990 -0.4908 -0.1192
  257poe    c23 1348   1.790   2.467   1.372 -0.2084  0.4654  0.5936
  257poe     o2 1349   1.842   2.595   1.400  0.3948  0.5480 -0.8062
  257poe    c23 1350   1.978   2.589   1.433  0.0641 -0.0221  0.5248
  257poe    c23 1351   2.042   2.717   1.492  0.0313  0.5942 -0.7464
  257poe     o2 1352   2.019   2.744   1.628 -0.1823 -0.1692 -0.6247
  257poe    c23 1353   2.046   2.877   1.668 -0.2053 -0.3704  0.0806
  257poe    c23 1354   2.029   2.888   1.820 -0.0898  0.4146  0.0387
  257poe     o2 1355   1.900   2.873   1.876 -0.0112 -0.2841  0.0366
  257poe    c31 1356   1.898   2.967   1.981 -0.6475 -0.2787  0.0249
  258poe    c31 1357   0.586   1.834   1.586  0.1225  0.5881  0.1430
  258poe     o2 1358   0.659   1.954   1.578  0.1822  0.5797  0.5456
  258poe    c23 1359   0.591   2.070   1.621 -0.0060  0.6411  0.0903
  258poe    c23 1360   0.679   2.196   1.617 -0.0292  0.6576  0.1007
  258poe     o2 1361   0.681   2.255   1.489 -0.2252 -0.3668 -0.3795
  258poe    c23 1362   0.782   2.352   1.478 -0.1872 -0.4058 -0.3794
  258poe    c23 1363   0.846   2.377   1.340  0.0742 -0.0172 -0.1900
  258poe     o2 1364   0.945   2.478   1.330  0.1129 -0.0324  0.0282
  258poe    c23 1365   1.070   2.464   1.393  0.4551  1.0752 -0.3906
  258poe    c23 1366   1.189   2.431   1.301  0.2974  0.1159 -0.2606
  258poe     o2 1367   1.177   2.307   1.234  0.6372 -0.0168 -0.0803
  258poe    c31 1368   1.283   2.274   1.147  0.4204 -0.5592 -0.1423
  259poe    c31 1369   1.988   1.783   0.710  0.0444  0.3159 -1.1491
  259poe     o2 1370   2.023   1.664   0.776 -0.3876  0.7119 -0.1731
  259poe    c23 1371   2.163   1.656   0.797 -0.4684  0.5193  0.2950
  259poe    c23 1372   2.190   1.673   0.948  0.9324 -0.7179  0.2090
  259poe     o2 1373   2.134   1.581   1.039 -0.0980 -0.5894 -0.2722
  259poe    c23 1374   2.180   1.613   1.168 -0.4127 -0.1786 -0.2589
  259poe    c23 1375   2.129   1.536   1.291  1.0755 -0.4808  0.1913
  259poe     o2 1376   2.123   1.395   1.292 -0.6308 -0.4307  0.1840
  259poe    c23 1377   2.243   1.323   1.269 -0.0721  0.7091 -0.5395
  259poe    c23 1378   2.241   1.176   1.226 -0.0986  0.6317 -0.2759
  259poe     o2 1379   2.175   1.177   1.101 -0.1187  0.1803 -0.2733
  259poe    c31 1380   2.188   1.053   1.035 -0.3223 -0.3004  0.5752
  260poe    c31 1381   0.597   1.788   6.032  0.3144 -0.6210  0.9703
  260poe     o2 1382   0.627   1.867   6.145  0.9273  0.1989  0.2478
  260poe    c23 1383   0.672   1.996   6.108 -0.1582  0.5214  0.0038
  260poe    c23 1384   0.686   2.097   6.223  0.2713  0.3995  0.0618
  260poe     o2 1385   0.566   2.115   6.295  0.0737 -0.2298 -0.1015
  260poe    c23 1386   0.566   2.224   6.385  0.2756 -0.1919 -0.1477
  260poe    c23 1387   0.429   2.241   6.453  0.4258 -0.1925  0.1550
  260poe     o2 1388   0.398   2.139   6.546 -0.0628 -0.5863 -0.4323
  260poe    c23 1389   0.273   2.154   6.608  0.0867 -0.0815 -0.2474
  260poe    c23 1390   0.215   2.027   6.673  0.1114 -0.0566 -0.1767
  260poe     o2 1391   0.191   1.932   6.572 -0.5428  0.2645 -0.3282
  260poe    c31 1392   0.093   1.837   6.606 -0.1028  0.0023  0.2080
  261poe    c31 1393   1.490   1.640   5.868 -0.4229 -0.0001  0.0491
  261poe     o2 1394   1.426   1.697   5.756 -0.5423 -0.2528 -0.0110
  261poe    c23 1395   1.399   1.834   5.772  0.2256 -0.1231  0.1878
  261poe    c23 1396   1.361   1.889   5.634 -0.2091 -0.0108  0.3513
  261poe     o2 1397   1.451   1.923   5.531 -0.6548  0.0262 -0.0304
  261poe    c23 1398   1.445   1.812   5.444 -0.5108 -0.1225  0.1506
  261poe    c23 1399   1.542   1.839   5.327 -0.1761  0.8685  0.6441
  261poe     o2 1400   1.673   1.877   5.361  0.1728  0.2406  0.0086
  261poe    c23 1401   1.760   1.901   5.252  0.6506  0.3885  0.4197
  261poe    c23 1402   1.843   2.019   5.306  0.6905  0.5642 -0.0226
  261poe     o2 1403   1.789   2.148   5.293  0.0975  0.2951 -0.2652
  261poe    c31 1404   1.834   2.221   5.181 -0.0319  0.1433 -0.4156
  262poe    c31 1405   2.291   0.347   0.790  0.4167 -0.0823  0.5878
  262poe     o2 1406   2.212   0.230   0.799  0.0253  0.1700  0.4953
  262poe    c23 1407   2.186   0.213   0.661 -0.1031  0.0065  0.5392
  262poe    c23 1408   2.062   0.126   0.637 -0.0271  0.0591 -0.0653
  262poe     o2 1409   2.078  -0.008   0.679 -0.0787 -0.2325 -0.9587
  262poe    c23 1410   2.022  -0.029   0.807  0.8770 -0.2783 -0.5428
  262poe    c23 1411   2.006  -0.171   0.864  0.0172 -0.0993 -0.3373
  262poe     o2 1412   2.119  -0.196   0.944  0.0771 -0.0438 -0.4053
  262poe    c23 1413   2.084  -0.306   1.024 -0.1000  0.0556 -0.3467
  262poe    c23 1414   2.204  -0.350   1.110  0.1894  0.4764 -0.5363
  262poe     o2 1415   2.208  -0.301   1.241  0.6532 -0.4845 -0.1809
  262poe    c31 1416   2.339  -0.309   1.294  0.8375 -0.2415 -0.5989
  263poe    c31 1417   0.613   0.422   4.754  0.7162 -0.1117 -0.1564
  263poe     o2 1418   0.585   0.317   4.844  0.1060  0.0528 -0.1532
  263poe    c23 1419   0.613   0.332   4.982  0.3116  0.0162 -0.1913
  263poe    c23 1420   0.617   0.197   5.055  0.1594  0.1526  0.0703
  263poe     o2 1421   0.505   0.112   5.038  0.2424  0.0053  0.2549
  263poe    c23 1422   0.512  -0.019   5.089  0.0901 -0.3377 -0.5927
  263poe    c23 1423   0.365  -0.061   5.106  0.1179 -0.1812  0.0637
  263poe     o2 1424   0.312  -0.112   4.986  0.3266 -0.1302 -0.0507
  263poe    c23 1425   0.171  -0.122   4.981  0.3069 -0.0413  0.3327
  263poe    c23 1426   0.102  -0.144   4.845  0.7074 -0.1639  0.1481
  263poe     o2 1427   0.064  -0.021   4.788 -0.0209 -0.3922  0.1366
  263poe    c31 1428  -0.036  -0.041   4.690  0.0744 -0.1581 -0.0108
  264poe    c31 1429   0.980   1.430   4.494 -0.4499  0.0682  0.3130
  264poe     o2 1430   1.045   1.469   4.613  0.0678 -0.0299  0.0664
  264poe    c23 1431   0.960   1.471   4.725 -0.1626 -0.4037 -0.1007
  264poe    c23 1432   0.953   1.607   4.797  0.3487 -0.2769 -0.2891
  264poe     o2 1433   0.917   1.699   4.696  0.4936 -0.4833 -0.5305
  264poe    c23 1434   0.971   1.828   4.717 -0.7457 -0.0619  0.2154
  264poe    c23 1435   0.956   1.927   4.600 -0.2036 -0.0239  0.1766
  264poe     o2 1436   0.855   2.025   4.603  0.0399  0.2536 -0.4335
  264poe    c23 1437   0.871   2.120   4.500  0.6130  0.0627 -0.5260
  264poe    c23 1438   0.744   2.197   4.460  0.0381  0.1207  1.3124
  264poe     o2 1439   0.786   2.293   4.365 -0.2167 -0.2811  0.7917
  264poe    c31 1440   0.700   2.293   4.253  0.7104 -0.9738  0.0652
  265poe    c31 1441   1.912   0.106   3.396 -0.1525 -0.4209 -0.1641
  265poe     o2 1442   1.905   0.246   3.386  0.8507 -0.3157  0.5311
  265poe    c23 1443   1.818   0.282   3.490  0.3224 -0.1599  0.0366
  265poe    c23 1444   1.860   0.422   3.540  0.0370 -0.0465 -0.0332
  265poe     o2 1445   1.927   0.497   3.441  0.0670  0.0003  0.0221
  265poe    c23 1446   1.944   0.614   3.516  0.4121 -0.3020  0.4185
  265poe    c23 1447   2.020   0.722   3.437  0.1117 -0.1296  0.3613
  265poe     o2 1448   2.151   0.679   3.406 -0.2382 -0.6487 -0.4176
  265poe    c23 1449   2.222   0.777   3.334 -0.0133 -0.3679  0.1812
  265poe    c23 1450   2.365   0.747   3.284 -0.3004  0.0561 -0.9409
  265poe     o2 1451   2.430   0.846   3.207  0.1949  0.5994  0.1477
  265poe    c31 1452   2.531   0.782   3.134  0.1893  0.2475  0.4440
  266poe    c31 1453   2.220   0.358   6.363 -0.4309  0.4902  0.0733
  266poe     o2 1454   2.181   0.487   6.404  0.0541  0.5598  0.3292
  266poe    c23 1455   2.067   0.465   6.483 -0.0505 -0.5112 -0.1005
  266poe    c23 1456   1.988   0.594   6.509  0.4443 -0.3078  0.4180
  266poe     o2 1457   1.977   0.663   6.386  0.1117  0.2321  0.7455
  266poe    c23 1458   1.903   0.783   6.392 -0.6214 -0.1669 -0.1801
  266poe    c23 1459   1.922   0.861   6.260  0.5315 -0.3359 -0.1271
  266poe     o2 1460   2.058   0.894   6.240  0.4115  0.1253 -0.2045
  266poe    c23 1461   2.061   0.962   6.117  0.2265 -0.4046 -0.5064
  266poe    c23 1462   2.206   1.002   6.083  0.1958  0.3736  0.2429
  266poe     o2 1463   2.274   1.094   6.165  0.3250  0.3480  0.1640
  266poe    c31 1464   2.206   1.216   6.179 -0.2674  0.0285  0.1156
  267poe    c31 1465   0.750   1.247   1.252 -0.2592  0.3107 -0.7772
  267poe     o2 1466   0.806   1.375   1.268 -0.0848  0.0781  0.5731
  267poe    c23 1467   0.728   1.442   1.365 -0.5258  0.0840  0.2196
  267poe    c23 1468   0.797   1.579   1.354  0.3345 -0.4137 -0.8496
  267poe     o2 1469   0.788   1.597   1.215  0.2113  0.0327 -0.7850
  267poe    c23 1470   0.773   1.732   1.175  0.0403  0.3705  0.3780
  267poe    c23 1471   0.766   1.747   1.022  0.1442  0.0604  0.3410
  267poe     o2 1472   0.891   1.693   0.987  0.1222  0.3322 -0.1734
  267poe    c23 1473   0.921   1.710   0.850  0.7729 -0.1574 -0.0977
  267poe    c23 1474   1.066   1.671   0.816  0.6410 -0.5848 -0.1716
  267poe     o2 1475   1.085   1.531   0.811  0.0618 -0.6947  0.5824
  267poe    c31 1476   1.224   1.516   0.800  0.0957 -0.2120  0.3282
  268poe    c31 1477   0.256   1.131   3.877 -0.1792 -0.0699 -0.1116
  268poe     o2 1478   0.129   1.190   3.899 -0.0712 -0.1016  0.6288
  268poe    c23 1479   0.088   1.150   4.028 -0.4747 -0.1107  0.4959
  268poe    c23 1480   0.009   1.245   4.119 -0.0520  0.7051  0.0193
  268poe     o2 1481  -0.120   1.247   4.063  0.0940  0.7335 -0.3166
  268poe    c23 1482  -0.219   1.304   4.146  0.1054 -0.1003  0.2897
  268poe    c23 1483  -0.352   1.260   4.082 -0.0851 -0.4007  0.8859
  268poe     o2 1484  -0.333   1.246   3.943 -0.1949  0.4370  0.7836
  268poe    c23 1485  -0.454   1.212   3.877  0.7439 -0.6448 -0.4440
  268poe    c23 1486  -0.452   1.264   3.732  0.4519  0.0168 -0.2188
  268poe     o2 1487  -0.475   1.403   3.732 -0.4339 -0.1288 -0.0911
  268poe    c31 1488  -0.368   1.477   3.680 -0.0687 -0.2695  0.4458
  269poe    c31 1489   0.089   1.162   0.052  0.0513  0.9584  0.5074
  269poe     o2 1490   0.050   1.032   0.012  0.1571  0.9776  0.3425
  269poe    c23 1491  -0.057   1.040  -0.078 -0.1200 -0.2302  0.5444
  269poe    c23 1492  -0.084   0.893  -0.114  0.1075 -0.2397  0.4104
  269poe     o2 1493   0.011   0.822  -0.190  0.2546  0.2356  0.1472
  269poe    c23 1494   0.104   0.738  -0.126  0.3597  0.5543  0.4161
  269poe    c23 1495   0.219   0.733  -0.228 -0.2508  0.6034 -0.2869
  269poe     o2 1496   0.178   0.696  -0.358  0.3505  0.9326 -0.5804
  269poe    c23 1497   0.266   0.616  -0.433  0.1240  0.0075  0.1288
  269poe    c23 1498   0.191   0.596  -0.566  0.3419  0.3162 -0.0415
  269poe     o2 1499   0.105   0.704  -0.594 -0.3284 -0.3848 -0.7640
  269poe    c31 1500   0.056   0.714  -0.726 -0.7111 -0.1943 -0.6085
  270poe    c31 1501   2.087   2.295   2.586 -0.5352 -0.4009  0.1287
  270poe     o2 1502   2.195   2.334   2.504 -0.5977  0.1976  0.3266
  270poe    c23 1503   2.152   2.280   2.380 -0.4655  0.6128  0.0986
  270poe    c23 1504   2.270   2.291   2.282  0.4745 -0.0943  1.1270
  270poe     o2 1505   2.324   2.420   2.301 -0.2036  0.4041 -0.1903
  270poe    c23 1506   2.420   2.459   2.205  0.6515  0.2360  0.5773
  270poe    c23 1507   2.449   2.610   2.222  0.6098  0.3696 -0.4816
  270poe     o2 1508   2.543   2.617   2.327 -0.2503 -0.1033  0.3392
  270poe    c23 1509   2.546   2.748   2.378  0.2396  0.2564 -0.5954
  270poe    c23 1510   2.629   2.779   2.504  0.2712 -0.4516 -0.4394
  270poe     o2 1511   2.768   2.783   2.483  0.2388  0.3213 -0.5335
  270poe    c31 1512   2.829   2.773   2.609 -0.3982 -0.0675 -0.2530
  271lim     li 1513   1.327   2.042   2.240 -1.0375 -0.1473  0.0447
  272lim     li 1514   0.603   1.776   6.304  0.4778  0.6160  0.0133
  273lim     li 1515   2.337   1.590   5.774 -0.2371 -0.3792  0.6252
  274lim     li 1516   1.346   1.699   3.947 -0.2197 -0.6723  0.1217
  275lim     li 1517   1.031   0.253   5.204  1.2199 -0.6730  0.1627
  276lim     li 1518   1.392   2.351   5.609 -0.8167 -0.6493  0.0309
  277lim     li 1519   1.556   0.971   5.401 -0.2693 -0.7845  0.2792
  278lim     li 1520   1.756   0.363   1.834  0.1052 -0.2776 -1.8079
  279lim     li 1521   1.821   0.954   4.368  0.0156 -0.8152 -0.3483
  280lim     li 1522   1.793   1.689   1.679  0.4365 -0.8962 -0.4752
  281lim     li 1523   0.816   1.452   1.117 -0.5524 -1.6025  0.8920
  282lim     li 1524   0.598   0.505   2.159  0.7776  0.5889  0.1577
  283lim     li 1525   1.773   2.015   5.711  0.8680  0.4093  1.1931
  284lim     li 1526   0.728   0.451   4.187  1.1422  0.5670 -0.0410
  285lim     li 1527   0.102   0.820   0.328  0.1493  0.2963 -1.1781
  286lim     li 1528   0.819   2.253   0.914  0.5516 -0.6103 -0.6021
  287lim     li 1529   1.006   1.435   5.728 -0.0357 -0.8847  1.0534
  288lim     li 1530   0.042   1.249   3.755  1.1120 -0.1049 -0.9592
  289lim     li 1531   2.091   2.043   3.344  0.3340  0.0623 -0.2137
  290lim     li 1532   1.474   0.635   0.289  0.2505  1.5659  0.0287
  291lim     li 1533   0.129   0.151   4.785  0.3665  0.0448  0.4717
  292lim     li 1534   2.200   0.300   5.610 -0.5513  0.0083  0.3897
  293lim     li 1535   0.030   0.766   6.272 -0.1176 -0.1224  0.0749
  294lim     li 1536   1.320   0.493   2.861 -0.5789 -0.4924 -0.7352
  295lim     li 1537   2.067   0.233   4.477 -0.2707 -0.5610 -0.0154
  296lim     li 1538   1.548   0.807   1.148  0.0863 -1.1282  0.5531
  297lim     li 1539   0.761   1.034   6.606 -1.3042  0.4288  0.7909
  298lim     li 1540   0.895   2.362   3.559 -0.7484  0.2538  0.0535
  299lim     li 1541   0.124   0.114   0.121 -0.1407  0.2438 -0.4409
  300lim     li 1542   0.076   2.086   3.916  0.4714  0.1839  0.8286
  301lim     li 1543   0.466   2.317   2.816 -0.5131 -0.6715 -0.9501
  302lim     li 1544   0.006   1.665   4.562  0.3574 -0.0431  0.3531
  303lim     li 1545   1.581   1.898   6.407 -0.6171  0.0249  0.2150
  304lim     li 1546   0.652   0.418   1.315 -0.4827 -0.4060  0.8824
  305lim     li 1547   0.606   0.259   0.496  1.2318 -0.4630  0.4658
  306lim     li 1548   1.270   0.302   6.294  0.8784  0.0909 -1.3113
  307lim     li 1549   1.390   1.843   1.226 -0.9159  0.4295 -0.9567
  308lim     li 1550   1.424   1.590   2.857 -0.6268  2.3909  0.1389
  309lim     li 1551   0.535   1.561   4.688 -0.8441 -0.6410 -1.4132
  310lim     li 1552   2.213   0.076   1.168  0.7310 -0.2273 -0.8025
  311lim     li 1553   0.661   1.323   0.401 -0.4718  0.5202  0.0561
  312lim     li 1554   1.914   1.807   0.100  0.7298 -0.0445 -0.0598
  313lim     li 1555   0.464   2.236   5.841 -0.7814  0.2126 -0.6493
  314lim     li 1556   2.298   0.080   2.484 -0.4531  0.3832  0.0685
  315lim     li 1557   0.244   1.015   4.835 -0.5773  0.7206  0.8961
  316lim     li 1558   1.979   0.400   3.296 -0.0858 -0.2551 -1.1637
  317lim     li 1559   0.053   1.174   2.458 -0.5756  0.0710  0.7717
  318lim     li 1560   1.518   1.053   1.850  0.3579  1.0929  0.3833
  319lim     li 1561   1.522   0.672   3.619  0.7649  0.4534  0.6987
  320lim     li 1562   1.974   1.335   0.853 -0.4459  0.5859 -0.7146
  321lim     li 1563   1.352   1.342   4.691 -0.4082 -0.4581 -1.4750
  322lim     li 1564   0.090   1.454   1.915 -0.2067  0.0822  0.1029
  323lim     li 1565   0.168   1.220   3.076 -1.1449 -0.0274 -0.0523
  324lim     li 1566   1.150   1.302   3.527 -0.4571  0.7932  0.3167
  325ntf    cn1 1567   0.859   1.448   2.224 -0.0571  0.3101  0.0918
  325ntf    sn2 1568   0.786   1.459   2.390 -0.1380 -0.1357  0.0881
  325ntf    nn3 1569   0.847   1.326   2.448 -0.5665 -0.2818  0.2032
  325ntf    sn2 1570   0.982   1.301   2.524 -0.1634  0.2501 -0.3302
  325ntf    cn1 1571   1.009   1.129   2.473  0.3632  0.2164  0.0555
  325ntf    fn4 1572   0.798   1.368   2.138  0.0325  0.0325  0.2832
  325ntf    fn4 1573   0.863   1.567   2.167  0.5853  0.5459  0.6151
  325ntf    fn4 1574   0.984   1.405   2.219 -0.0080  0.5310 -0.6413
  325ntf    on5 1575   0.831   1.587   2.439 -0.1600  0.2316 -0.8326
  325ntf    on5 1576   0.645   1.441   2.372 -0.1290  0.2455 -0.3900
  325ntf    on5 1577   0.970   1.296   2.667  0.1662 -0.2480 -0.3176
  325ntf    on5 1578   1.102   1.364   2.474 -0.0697 -0.1444 -0.6018
  325ntf    fn4 1579   0.904   1.058   2.510  0.1469  0.1589 -0.6446
  325ntf    fn4 1580   1.027   1.111   2.343  0.2517  0.2992  0.0285
  325ntf    fn4 1581   1.105   1.068   2.541  0.6591  0.5163 -0.0863
  326ntf    cn1 1582   1.976   0.123   3.854 -0.0657 -0.0542 -0.0404
  326ntf    sn2 1583   2.113   0.014   3.805 -0.0372 -0.0357 -0.0018
  326ntf    nn3 1584   2.171   0.108   3.694 -0.1239  0.0052 -0.0131
  326ntf    sn2 1585   2.262   0.235   3.711 -0.1232 -0.0304  0.2499
  326ntf    cn1 1586   2.426   0.156   3.705 -0.1061 -0.0184  0.5619
  326ntf    fn4 1587   2.029   0.236   3.896 -0.6159  0.2880 -0.2475
  326ntf    fn4 1588   1.902   0.164   3.751  0.2913  0.2418 -0.1801
  326ntf    fn4 1589   1.895   0.096   3.955 -0.7594  0.4487 -0.4509
  326ntf    on5 1590   2.200   0.006   3.919  0.1942 -0.2792 -0.1934
  326ntf    on5 1591   2.052  -0.110   3.762  0.4072 -0.5322  0.7916
  326ntf    on5 1592   2.263   0.303   3.838 -0.3374  0.0559  0.2059
  326ntf    on5 1593   2.265   0.315   3.591  0.3321  0.5066  0.6145
  326ntf    fn4 1594   2.445   0.046   3.777  1.0132 -0.0461  0.2356
  326ntf    fn4 1595   2.449   0.112   3.583 -0.3213 -0.1123  0.5534
  326ntf    fn4 1596   2.528   0.232   3.739  0.3237 -0.6875  0.7795
  327ntf    cn1 1597   0.820   1.086   3.339 -0.1101  0.1719  0.3718
  327ntf    sn2 1598   0.666   0.989   3.331 -0.0455  0.0740  0.3116
  327ntf    nn3 1599   0.666   0.919   3.471  0.0171 -0.5281  0.0117
  327ntf    sn2 1600   0.564   0.944   3.588  0.1499  0.1281 -0.0087
  327ntf    cn1 1601   0.438   0.817   3.554  0.2978 -0.1546  0.4938
  327ntf    fn4 1602   0.804   1.196   3.411 -0.4193  0.1679  0.3094
  327ntf    fn4 1603   0.920   1.017   3.392  0.0508 -0.0794 -0.2473
  327ntf    fn4 1604   0.859   1.118   3.217  0.2091  0.3536  0.5194
  327ntf    on5 1605   0.561   1.085   3.307 -0.1475 -0.1196 -0.0321
  327ntf    on5 1606   0.691   0.893   3.226  0.0481  0.5681 -0.1227
  327ntf    on5 1607   0.482   1.062   3.583  0.1819  0.1324 -0.5017
  327ntf    on5 1608   0.610   0.906   3.719 -0.5393  0.2049  0.2599
  327ntf    fn4 1609   0.329   0.815   3.630 -0.2482 -0.1389 -0.2811
  327ntf    fn4 1610   0.397   0.812   3.429 -0.0698  0.2134  0.5964
  327ntf    fn4 1611   0.492   0.700   3.586  0.6291 -0.2890 -0.5385
  328ntf    cn1 1612   0.840   1.455   6.271 -0.2106 -0.4840  0.3689
  328ntf    sn2 1613   0.971   1.330   6.252 -0.0176 -0.1807 -0.3288
  328ntf    nn3 1614   1.065   1.413   6.158  0.2715 -0.2456 -0.0954
  328ntf    sn2 1615   1.181   1.510   6.202 -0.3917  0.4149  0.2117
  328ntf    cn1 1616   1.321   1.395   6.205 -0.0075  0.8900  0.6491
  328ntf    fn4 1617   0.892   1.569   6.313  0.2013 -0.3021 -0.6039
  328ntf    fn4 1618   0.790   1.497   6.156 -0.1062  0.2794  0.6005
  328ntf    fn4 1619   0.737   1.419   6.345 -0.0220 -0.2732  0.7367
  328ntf    on5 1620   1.019   1.309   6.386 -0.4780  0.0532 -0.1242
  328ntf    on5 1621   0.905   1.218   6.189  0.0835 -0.1642 -0.4648
  328ntf    on5 1622   1.168   1.564   6.335 -0.1100  0.1866  0.3324
  328ntf    on5 1623   1.215   1.600   6.094  0.3954  0.3665  0.4167
  328ntf    fn4 1624   1.335   1.322   6.095 -0.0249  0.8015  0.7054
  328ntf    fn4 1625   1.433   1.462   6.226  0.1353  0.8251  0.1208
  328ntf    fn4 1626   1.311   1.300   6.296 -0.3440 -0.0978 -0.3960
  329ntf    cn1 1627   2.234   0.870   5.522  0.1149 -0.0539 -0.3044
  329ntf    sn2 1628   2.412   0.835   5.526  0.0916 -0.1185  0.1995
  329ntf    nn3 1629   2.438   0.822   5.372 -0.5041 -0.8080  0.1513
  329ntf    sn2 1630   2.472   0.699   5.281  0.0030 -0.5960  0.0466
  329ntf    cn1 1631   2.640   0.659   5.338  0.2126  0.4077  0.1430
  329ntf    fn4 1632   2.187   0.894   5.643 -0.2228 -0.3478 -0.3731
  329ntf    fn4 1633   2.211   0.980   5.452  0.1815  0.4311  0.4200
  329ntf    fn4 1634   2.167   0.772   5.463  0.2485 -0.3094 -0.0354
  329ntf    on5 1635   2.471   0.956   5.579  0.0005  0.1236 -0.2437
  329ntf    on5 1636   2.423   0.715   5.606 -0.4790 -0.0043  0.4556
  329ntf    on5 1637   2.475   0.743   5.144  0.2696 -0.1740  0.1885
  329ntf    on5 1638   2.397   0.580   5.313 -0.1759 -0.4349  0.2233
  329ntf    fn4 1639   2.657   0.611   5.460  0.1159  0.4520  0.1744
  329ntf    fn4 1640   2.687   0.569   5.254 -0.0373  0.2383  0.1818
  329ntf    fn4 1641   2.723   0.762   5.329  0.1602  0.4513  0.1547
  330ntf    cn1 1642   0.265   0.677   4.247 -0.7058 -0.0417 -0.0485
  330ntf    sn2 1643   0.149   0.812   4.282 -0.5802  0.1086 -0.2060
  330ntf    nn3 1644   0.223   0.935   4.221 -0.2445 -0.1269 -0.2764
  330ntf    sn2 1645   0.359   0.981   4.285 -0.4496  0.1575 -0.0420
  330ntf    cn1 1646   0.286   1.119   4.379 -0.6578  0.1725 -0.2268
  330ntf    fn4 1647   0.349   0.659   4.348 -0.8508 -0.6973 -0.0383
  330ntf    fn4 1648   0.203   0.561   4.228 -0.3969 -0.2252  0.0464
  330ntf    fn4 1649   0.335   0.693   4.136  0.3805 -0.1462  0.6053
  330ntf    on5 1650   0.037   0.779   4.198 -0.5060 -0.4656 -0.0879
  330ntf    on5 1651   0.125   0.819   4.424  0.2036 -0.4881 -0.0364
  330ntf    on5 1652   0.442   1.052   4.191 -0.2560  0.6115  0.4642
  330ntf    on5 1653   0.421   0.894   4.382 -0.6344 -0.1931 -0.2381
  330ntf    fn4 1654   0.186   1.082   4.457 -0.1570 -0.6579  0.0298
  330ntf    fn4 1655   0.363   1.174   4.471  0.0683 -0.1562 -0.6260
  330ntf    fn4 1656   0.252   1.225   4.307 -0.2429  0.0187 -0.6592
  331ntf    cn1 1657   1.260   0.447   1.436 -0.0098 -0.1802  0.0138
  331ntf    sn2 1658   1.146   0.588   1.422 -0.0891 -0.2247  0.2140
  331ntf    nn3 1659   1.135   0.634   1.572  0.6129 -0.2424  0.2705
  331ntf    sn2 1660   1.221   0.741   1.650  0.0009  0.3005  0.2122
  331ntf    cn1 1661   1.124   0.890   1.614  0.0963  0.2173 -0.3980
  331ntf    fn4 1662   1.377   0.495   1.473  0.0247 -0.0825 -0.2186
  331ntf    fn4 1663   1.228   0.358   1.528 -0.6170 -0.3909 -0.3973
  331ntf    fn4 1664   1.268   0.376   1.325  0.3183  0.2639 -0.2498
  331ntf    on5 1665   1.202   0.682   1.328  0.1166  0.0219  0.5777
  331ntf    on5 1666   1.023   0.518   1.393  0.1436 -0.3691 -0.4212
  331ntf    on5 1667   1.349   0.779   1.596  0.1343 -0.3806  0.0347
  331ntf    on5 1668   1.210   0.721   1.792 -0.7096 -0.1563  0.0967
  331ntf    fn4 1669   0.996   0.862   1.602  0.2009 -0.3561 -0.2158
  331ntf    fn4 1670   1.137   0.985   1.705  0.0532 -0.5036  0.3601
  331ntf    fn4 1671   1.172   0.954   1.508 -0.1861  0.1754 -0.5525
  332ntf    cn1 1672   1.154   0.675   5.779 -0.0330 -0.1303 -0.1658
  332ntf    sn2 1673   1.313   0.762   5.786 -0.1071 -0.0049 -0.0239
  332ntf    nn3 1674   1.412   0.643   5.756  0.0569  0.0919  0.1339
  332ntf    sn2 1675   1.456   0.524   5.848  0.2007  0.0644  0.0299
  332ntf    cn1 1676   1.636   0.539   5.832  0.1824 -0.0405 -0.2921
  332ntf    fn4 1677   1.132   0.629   5.657  0.6647 -0.0233 -0.3316
  332ntf    fn4 1678   1.141   0.576   5.866  0.1805 -0.2060 -0.2199
  332ntf    fn4 1679   1.057   0.763   5.799  0.1749  0.2382 -0.7550
  332ntf    on5 1680   1.303   0.860   5.681  0.6523 -0.4533 -0.5281
  332ntf    on5 1681   1.324   0.803   5.924  0.3808  0.0787 -0.0844
  332ntf    on5 1682   1.417   0.400   5.785  0.8564 -0.1349  0.0091
  332ntf    on5 1683   1.424   0.533   5.988 -0.4911 -0.2737 -0.1016
  332ntf    fn4 1684   1.675   0.610   5.728 -0.4832  0.3361 -0.2933
  332ntf    fn4 1685   1.687   0.601   5.937  0.2197 -0.1488 -0.2460
  332ntf    fn4 1686   1.694   0.420   5.833 -0.4273 -0.3411 -0.5289
  333ntf    cn1 1687   0.177   1.698   1.215 -0.0160  0.0671  0.3350
  333ntf    sn2 1688   0.299   1.579   1.277 -0.1737 -0.1600  0.2097
  333ntf    nn3 1689   0.207   1.452   1.291 -0.2402 -0.1035  0.2886
  333ntf    sn2 1690   0.255   1.303   1.284  0.1568  0.0311  0.0828
  333ntf    cn1 1691   0.228   1.262   1.109  0.2153  0.3528 -0.0010
  333ntf    fn4 1692   0.218   1.824   1.215  0.1099  0.0268  0.7418
  333ntf    fn4 1693   0.143   1.667   1.091  0.1583  0.0242  0.2983
  333ntf    fn4 1694   0.064   1.686   1.282 -0.3805 -0.5393 -0.3729
  333ntf    on5 1695   0.391   1.576   1.166 -0.6651  0.2970 -0.2192
  333ntf    on5 1696   0.340   1.636   1.403 -0.9388 -0.0145  0.4020
  333ntf    on5 1697   0.167   1.212   1.353 -0.5149  0.4321 -0.2376
  333ntf    on5 1698   0.396   1.278   1.304  0.0548 -0.6361  0.0223
  333ntf    fn4 1699   0.252   1.134   1.085  0.3470  0.3021  0.4064
  333ntf    fn4 1700   0.101   1.275   1.074  0.0967  0.3026  0.4070
  333ntf    fn4 1701   0.302   1.335   1.027  0.7240 -0.5428 -0.3579
  334ntf    cn1 1702   1.932   1.331   6.401 -0.3295 -0.5426  0.1748
  334ntf    sn2 1703   1.967   1.305   6.577 -0.0226 -0.2052  0.1652
  334ntf    nn3 1704   1.821   1.318   6.633 -0.2224  0.5574 -0.5111
  334ntf    sn2 1705   1.708   1.209   6.640  0.2466  0.0884 -0.1036
  334ntf    cn1 1706   1.583   1.282   6.530 -0.0077  0.1193  0.2045
  334ntf    fn4 1707   2.035   1.372   6.328 -0.6264 -0.5101 -0.2307
  334ntf    fn4 1708   1.882   1.223   6.344  0.0973 -0.7431  0.1761
  334ntf    fn4 1709   1.840   1.420   6.371  0.5921  0.1346 -0.7315
  334ntf    on5 1710   2.019   1.170   6.575  0.4381 -0.0239 -0.2840
  334ntf    on5 1711   2.047   1.415   6.624 -0.0699 -0.0009 -0.2320
  334ntf    on5 1712   1.643   1.210   6.769  0.5873 -0.2922  0.0719
  334ntf    on5 1713   1.744   1.082   6.582 -0.2675 -0.4320  0.6921
  334ntf    fn4 1714   1.474   1.207   6.521  0.2660 -0.2067 -0.4105
  334ntf    fn4 1715   1.551   1.400   6.583 -0.2335  0.2488 -0.2139
  334ntf    fn4 1716   1.625   1.304   6.407  0.7475  0.0264  0.4436
  335ntf    cn1 1717   1.256   1.207   0.540 -0.0208 -0.0048 -0.3655
  335ntf    sn2 1718   1.091   1.137   0.569 -0.0220  0.2291  0.2057
  335ntf    nn3 1719   1.131   1.000   0.634  0.0260  0.1540  0.0185
  335ntf    sn2 1720   1.042   0.877   0.675 -0.0776  0.0966 -0.3806
  335ntf    cn1 1721   1.021   0.789   0.517 -0.1183 -0.1254 -0.2503
  335ntf    fn4 1722   1.327   1.111   0.483 -0.3498 -0.3975 -0.1100
  335ntf    fn4 1723   1.256   1.308   0.453 -0.1041  0.0396 -0.3133
  335ntf    fn4 1724   1.313   1.246   0.653 -0.3600 -0.3697 -0.0700
  335ntf    on5 1725   1.022   1.225   0.660 -0.2238  0.0263  0.2510
  335ntf    on5 1726   1.053   1.133   0.430 -0.5803  0.4330  0.3519
  335ntf    on5 1727   0.907   0.899   0.721  0.1484 -0.2208  0.4432
  335ntf    on5 1728   1.110   0.771   0.744  0.0524 -0.0934 -0.7945
  335ntf    fn4 1729   0.966   0.671   0.543 -0.0744 -0.0225  0.3222
  335ntf    fn4 1730   0.929   0.848   0.442  0.0543  0.1602 -0.2336
  335ntf    fn4 1731   1.125   0.771   0.438 -0.1218 -0.1421 -0.2512
  336ntf    cn1 1732   0.073   0.478   1.666 -0.2777  0.0280  0.0490
  336ntf    sn2 1733   0.139   0.338   1.762  0.1457  0.1513 -0.0577
  336ntf    nn3 1734   0.124   0.217   1.664 -0.2886 -0.0091  0.2021
  336ntf    sn2 1735   0.231   0.156   1.566 -0.1546  0.1033  0.2793
  336ntf    cn1 1736   0.234  -0.014   1.629  0.2036  0.0058  0.0062
  336ntf    fn4 1737  -0.057   0.470   1.647 -0.2065  0.0397 -0.4460
  336ntf    fn4 1738   0.116   0.594   1.712 -0.0209  0.1712 -0.5528
  336ntf    fn4 1739   0.123   0.483   1.544 -0.6910  0.4194 -0.1047
  336ntf    on5 1740   0.273   0.378   1.796  0.2333  0.5342 -0.8274
  336ntf    on5 1741   0.041   0.322   1.867  0.2115 -0.5794 -0.1042
  336ntf    on5 1742   0.367   0.205   1.561  0.1267 -0.7101 -0.1162
  336ntf    on5 1743   0.169   0.138   1.437 -0.2181  0.5973  0.2387
  336ntf    fn4 1744   0.280  -0.025   1.752  0.3383 -0.8690 -0.1188
  336ntf    fn4 1745   0.114  -0.072   1.631  0.0053  0.4251  0.5459
  336ntf    fn4 1746   0.297  -0.095   1.545 -0.1792 -0.5399  0.2400
  337ntf    cn1 1747   0.303   0.658   0.910  0.0126 -0.1123  0.0460
  337ntf    sn2 1748   0.347   0.501   0.830 -0.0972 -0.1825  0.1236
  337ntf    nn3 1749   0.236   0.399   0.875 -0.0523 -0.1268  0.3629
  337ntf    sn2 1750   0.225   0.313   1.006 -0.1955 -0.0307  0.4132
  337ntf    cn1 1751   0.299   0.158   0.946  0.0991  0.2209  0.1216
  337ntf    fn4 1752   0.277   0.741   0.811 -0.1910 -0.8190 -0.5018
  337ntf    fn4 1753   0.199   0.656   0.991  0.5489 -0.4616  0.7470
  337ntf    fn4 1754   0.402   0.716   0.977  0.1626 -0.3584  0.0377
  337ntf    on5 1755   0.337   0.530   0.689  0.1043 -0.1084  0.1233
  337ntf    on5 1756   0.477   0.467   0.882 -0.3029 -0.4483  0.4669
  337ntf    on5 1757   0.092   0.277   1.048 -0.1208 -0.5318  0.2155
  337ntf    on5 1758   0.321   0.350   1.107  0.1175  0.4636 -0.0557
  337ntf    fn4 1759   0.237   0.123   0.835  0.3065 -0.2312  0.1474
  337ntf    fn4 1760   0.429   0.166   0.925  0.1206  0.0219  0.1819
  337ntf    fn4 1761   0.276   0.063   1.035  0.3054 -0.3732 -0.4577
  338ntf    cn1 1762   1.110   0.040   0.239  0.1049 -0.0120  0.0937
  338ntf    sn2 1763   1.247  -0.003   0.350 -0.1532 -0.1939  0.3455
  338ntf    nn3 1764   1.217   0.077   0.482  0.4377  0.0107  0.3611
  338ntf    sn2 1765   1.247   0.230   0.498  0.2639  0.1403 -0.4753
  338ntf    cn1 1766   1.209   0.258   0.674  0.2381 -0.1307 -0.4373
  338ntf    fn4 1767   0.991   0.037   0.297  0.0226  0.3418 -0.0489
  338ntf    fn4 1768   1.108   0.164   0.192  0.0073  0.0087  0.1501
  338ntf    fn4 1769   1.099  -0.024   0.124 -0.2469  0.0228  0.1047
  338ntf    on5 1770   1.224  -0.144   0.367 -0.2243 -0.2377 -0.1012
  338ntf    on5 1771   1.362   0.044   0.275 -0.7545  0.0517 -0.4380
  338ntf    on5 1772   1.143   0.306   0.433  0.3445  0.3250 -0.3897
  338ntf    on5 1773   1.385   0.268   0.483  0.4497 -0.3563 -0.0674
  338ntf    fn4 1774   1.286   0.193   0.760 -0.4571 -0.1827  0.1594
  338ntf    fn4 1775   1.208   0.385   0.711  0.1875 -0.3049  0.1742
  338ntf    fn4 1776   1.083   0.236   0.707  0.3620  0.0596  0.1644
  339ntf    cn1 1777   1.550   2.068   4.641  0.2980 -0.0694  0.0518
  339ntf    sn2 1778   1.377   2.013   4.652  0.3070 -0.1361 -0.1367
  339ntf    nn3 1779   1.379   1.978   4.805  0.4891 -0.0411 -0.1173
  339ntf    sn2 1780   1.355   1.845   4.884  0.1032 -0.0072 -0.1758
  339ntf    cn1 1781   1.517   1.831   4.967  0.1676 -0.1228 -0.3211
  339ntf    fn4 1782   1.642   1.988   4.694  0.2441 -0.1282  0.0564
  339ntf    fn4 1783   1.580   2.085   4.513 -0.0301  0.1290  0.0003
  339ntf    fn4 1784   1.566   2.186   4.698 -0.3680  0.2389 -0.3834
  339ntf    on5 1785   1.307   2.134   4.617  0.2323 -0.2414 -0.3547
  339ntf    on5 1786   1.363   1.903   4.560 -0.0439  0.4544 -0.7981
  339ntf    on5 1787   1.338   1.724   4.809 -0.6022 -0.3896  0.5855
  339ntf    on5 1788   1.256   1.853   4.988 -0.0604 -0.0410 -0.3289
  339ntf    fn4 1789   1.530   1.751   5.071 -0.5124 -0.0440 -0.1683
  339ntf    fn4 1790   1.618   1.808   4.885  0.3128 -0.4189 -0.0592
  339ntf    fn4 1791   1.548   1.950   5.016  0.0258 -0.3404  0.2981
  340ntf    cn1 1792   1.644   0.898   4.774 -0.0323 -0.3427  0.4085
  340ntf    sn2 1793   1.746   1.025   4.856 -0.1639 -0.0136  0.0683
  340ntf    nn3 1794   1.656   1.154   4.855  0.2604  0.2931  0.6140
  340ntf    sn2 1795   1.672   1.294   4.787 -0.1237 -0.0151 -0.1249
  340ntf    cn1 1796   1.701   1.396   4.934 -0.2267 -0.5821  0.2918
  340ntf    fn4 1797   1.612   0.928   4.649  0.3523 -0.0727  0.3725
  340ntf    fn4 1798   1.691   0.775   4.777  0.1689 -0.3018 -0.6949
  340ntf    fn4 1799   1.524   0.897   4.829 -0.1541  0.4210  0.1747
  340ntf    on5 1800   1.771   0.964   4.984 -0.5642 -0.6810 -0.1629
  340ntf    on5 1801   1.857   1.028   4.764  0.0764 -0.6362  0.3322
  340ntf    on5 1802   1.547   1.353   4.745  0.2434  0.6265 -0.3341
  340ntf    on5 1803   1.785   1.313   4.700 -0.0641  0.2100  0.0012
  340ntf    fn4 1804   1.785   1.340   5.020 -0.0405 -0.5219  0.1484
  340ntf    fn4 1805   1.745   1.516   4.898 -0.5228 -0.6062 -0.1558
  340ntf    fn4 1806   1.588   1.417   5.000 -0.1934 -0.0479  0.1841
  341ntf    cn1 1807   1.330   1.861   3.335 -0.0789 -0.6752 -0.5325
  341ntf    sn2 1808   1.192   1.796   3.434 -0.1684  0.1049 -0.1318
  341ntf    nn3 1809   1.080   1.880   3.364 -0.3863 -0.1269 -0.0627
  341ntf    sn2 1810   0.992   1.851   3.237 -0.3236 -0.3998 -0.0445
  341ntf    cn1 1811   0.823   1.899   3.286 -0.1765  0.0029  0.0781
  341ntf    fn4 1812   1.452   1.840   3.383  0.0019  0.1629 -0.3607
  341ntf    fn4 1813   1.324   1.837   3.205 -1.0136 -0.4404 -0.5341
  341ntf    fn4 1814   1.324   1.993   3.338 -0.2384 -0.7004  0.7316
  341ntf    on5 1815   1.188   1.653   3.411  0.3633  0.1478 -0.5146
  341ntf    on5 1816   1.233   1.840   3.564  0.2627 -0.1260 -0.1865
  341ntf    on5 1817   0.980   1.711   3.205 -0.8446 -0.5518  0.7753
  341ntf    on5 1818   1.026   1.942   3.130  0.0430  0.1220  0.5094
  341ntf    fn4 1819   0.732   1.839   3.211 -0.3167  0.2748  0.0311
  341ntf    fn4 1820   0.794   1.857   3.408 -0.2561 -0.1135  0.0188
  341ntf    fn4 1821   0.799   2.028   3.276  0.4954  0.0789 -0.6698
  342ntf    cn1 1822   2.076   1.481   3.140 -0.5637 -0.2964 -0.5457
  342ntf    sn2 1823   2.115   1.389   3.292 -0.1319  0.2641 -0.3156
  342ntf    nn3 1824   1.971   1.355   3.344 -0.0859  0.0907 -0.3013
  342ntf    sn2 1825   1.891   1.221   3.322  0.0926 -0.0897  0.1524
  342ntf    cn1 1826   1.728   1.264   3.389  0.2176  0.5390  0.0575
  342ntf    fn4 1827   1.962   1.439   3.088 -0.8770 -0.1468  0.0071
  342ntf    fn4 1828   2.063   1.608   3.176  0.7070 -0.1807 -0.4604
  342ntf    fn4 1829   2.177   1.480   3.055 -0.2384 -0.0396 -0.1659
  342ntf    on5 1830   2.192   1.275   3.250  0.0223  0.4079 -0.4251
  342ntf    on5 1831   2.183   1.496   3.362 -0.5439  0.1709  0.2336
  342ntf    on5 1832   1.944   1.116   3.405  0.3170 -0.0881  0.0116
  342ntf    on5 1833   1.864   1.185   3.185 -0.2527  0.2674  0.1252
  342ntf    fn4 1834   1.639   1.171   3.357  0.5742  0.3219 -0.3028
  342ntf    fn4 1835   1.730   1.264   3.521  0.2211  0.1551  0.0575
  342ntf    fn4 1836   1.685   1.382   3.345  0.1032  0.3808 -0.2566
  343ntf    cn1 1837   2.385   1.834   2.364 -0.3392  0.2683 -0.2758
  343ntf    sn2 1838   2.512   1.944   2.433 -0.1344  0.2473 -0.6159
  343ntf    nn3 1839   2.542   2.022   2.300 -0.1473  0.6186 -0.4035
  343ntf    sn2 1840   2.671   2.023   2.211 -0.0317 -0.3823 -0.2614
  343ntf    cn1 1841   2.647   2.174   2.114 -0.7382 -0.3955 -0.1106
  343ntf    fn4 1842   2.281   1.904   2.322 -0.4263 -0.2759 -0.9782
  343ntf    fn4 1843   2.419   1.777   2.250 -0.3948  0.4131 -0.3653
  343ntf    fn4 1844   2.344   1.746   2.454  0.0857  0.4383  0.0909
  343ntf    on5 1845   2.431   2.030   2.516 -0.3236  0.3677 -0.9243
  343ntf    on5 1846   2.612   1.855   2.488  0.2765  0.5981 -0.7915
  343ntf    on5 1847   2.682   1.917   2.113  0.7001 -0.3869 -0.1831
  343ntf    on5 1848   2.788   2.069   2.281 -0.5167  0.0043  0.2976
  343ntf    fn4 1849   2.735   2.191   2.016 -0.4174 -0.1505  0.2182
  343ntf    fn4 1850   2.530   2.162   2.052 -0.2676  0.1279 -1.1298
  343ntf    fn4 1851   2.633   2.282   2.190  0.2168 -0.2776 -0.0960
  344ntf    cn1 1852   0.337   1.036   0.526 -0.1813 -0.1835  0.0557
  344ntf    sn2 1853   0.288   1.151   0.658 -0.0658  0.2072 -0.2430
  344ntf    nn3 1854   0.245   1.278   0.575  0.3500  0.3006 -0.3191
  344ntf    sn2 1855   0.102   1.304   0.516  0.0662  0.0267  0.2392
  344ntf    cn1 1856   0.033   1.414   0.644  0.1807  0.0528  0.2782
  344ntf    fn4 1857   0.241   0.998   0.444 -0.0083 -0.3307 -0.0816
  344ntf    fn4 1858   0.440   1.073   0.452 -0.4119  0.2463 -0.0504
  344ntf    fn4 1859   0.376   0.921   0.580 -0.0083 -0.1209  0.0639
  344ntf    on5 1860   0.176   1.081   0.716 -0.1181  0.4324 -0.0716
  344ntf    on5 1861   0.414   1.165   0.726  0.0033  0.2757 -0.3831
  344ntf    on5 1862   0.010   1.194   0.513  0.7755 -0.6067  1.2306
  344ntf    on5 1863   0.111   1.388   0.399  0.4997  0.3261  0.4817
  344ntf    fn4 1864   0.025   1.369   0.768 -0.1513 -0.0981  0.2023
  344ntf    fn4 1865   0.107   1.524   0.639 -0.0846  0.2198 -0.0271
  344ntf    fn4 1866  -0.090   1.452   0.612 -0.0882 -0.6467  0.4699
  345ntf    cn1 1867   1.579   0.130   3.791  0.1611  0.7307 -0.0590
  345ntf    sn2 1868   1.552   0.149   3.970 -0.2325  0.2406 -0.0662
  345ntf    nn3 1869   1.401   0.191   3.983 -0.2670  0.1069 -0.0312
  345ntf    sn2 1870   1.319   0.160   4.114  0.2162 -0.2166  0.1987
  345ntf    cn1 1871   1.317  -0.021   4.118 -0.1435 -0.2188 -0.0724
  345ntf    fn4 1872   1.612   0.243   3.730  0.4163  0.7046  0.0308
  345ntf    fn4 1873   1.674   0.046   3.755 -0.4181  0.0825 -0.0838
  345ntf    fn4 1874   1.465   0.087   3.738  0.3477  0.2756 -0.0865
  345ntf    on5 1875   1.586   0.016   4.015 -0.2358  0.2703  0.0254
  345ntf    on5 1876   1.647   0.254   3.995 -0.6519  0.5907  0.0629
  345ntf    on5 1877   1.182   0.196   4.091  0.1919 -0.8225 -0.6325
  345ntf    on5 1878   1.374   0.201   4.241  0.2184  0.8599 -0.1409
  345ntf    fn4 1879   1.333  -0.085   4.003  0.7099 -0.3373  0.1054
  345ntf    fn4 1880   1.415  -0.061   4.198 -0.4369  0.4247  0.6140
  345ntf    fn4 1881   1.205  -0.067   4.172 -0.3833  0.3781 -0.0561
  346ntf    cn1 1882   0.371   0.036   4.487 -0.6270  0.3557  0.4856
  346ntf    sn2 1883   0.335   0.196   4.409  0.1987  0.2112 -0.2050
  346ntf    nn3 1884   0.271   0.155   4.272 -0.1608 -0.3408  0.1236
  346ntf    sn2 1885   0.341   0.109   4.139 -0.0455 -0.6259  0.2814
  346ntf    cn1 1886   0.334   0.267   4.048 -0.2822 -0.6723  0.2187
  346ntf    fn4 1887   0.457   0.035   4.588 -0.2327  0.0183  0.1519
  346ntf    fn4 1888   0.259  -0.020   4.529  0.0344 -0.7678  0.7939
  346ntf    fn4 1889   0.429  -0.048   4.403 -0.7765  0.6512  0.0823
  346ntf    on5 1890   0.234   0.249   4.497  0.1426  0.5742 -0.4830
  346ntf    on5 1891   0.457   0.273   4.404  0.3155  0.0418  0.0179
  346ntf    on5 1892   0.261   0.022   4.057 -0.0918 -0.4973  0.1882
  346ntf    on5 1893   0.482   0.083   4.147  0.2894  0.9690  0.0184
  346ntf    fn4 1894   0.214   0.313   4.015  0.1203 -0.0572 -0.4249
  346ntf    fn4 1895   0.397   0.362   4.114 -0.0651 -0.3643 -0.4231
  346ntf    fn4 1896   0.402   0.252   3.936 -0.3899  0.3079  0.0184
  347ntf    cn1 1897   2.224   0.340   2.863 -0.1360  0.2590  0.1778
  347ntf    sn2 1898   2.238   0.201   2.979 -0.1835  0.1257  0.0244
  347ntf    nn3 1899   2.358   0.260   3.062  0.0674  0.1117 -0.3283
  347ntf    sn2 1900   2.509   0.243   3.025 -0.0499 -0.3974 -0.5896
  347ntf    cn1 1901   2.554   0.103   3.132  0.1175  0.0605 -0.0516
  347ntf    fn4 1902   2.199   0.444   2.941 -0.3376  0.3050  0.0538
  347ntf    fn4 1903   2.338   0.374   2.806  0.1112 -0.2839  0.3410
  347ntf    fn4 1904   2.142   0.323   2.760  0.2549  0.4953 -0.1747
  347ntf    on5 1905   2.112   0.203   3.050 -0.1088 -0.6730  0.2004
  347ntf    on5 1906   2.262   0.081   2.903  0.5655  0.3629 -0.1204
  347ntf    on5 1907   2.599   0.346   3.071 -0.4017 -0.2439 -0.2429
  347ntf    on5 1908   2.544   0.198   2.892  0.0689 -0.0987 -0.6609
  347ntf    fn4 1909   2.459   0.011   3.120  0.4869 -0.4029  0.5595
  347ntf    fn4 1910   2.671   0.056   3.093  0.1182 -0.0881  0.1301
  347ntf    fn4 1911   2.559   0.144   3.257 -0.0551 -0.9225  0.2875
  348ntf    cn1 1912   1.801   0.224   2.655  0.2036 -0.0519  0.1164
  348ntf    sn2 1913   1.664   0.341   2.635  0.1851 -0.1492 -0.3398
  348ntf    nn3 1914   1.712   0.402   2.499  0.3544 -0.4087 -0.3950
  348ntf    sn2 1915   1.799   0.526   2.459 -0.5285  0.2351 -0.3295
  348ntf    cn1 1916   1.685   0.623   2.356 -0.5746  0.0318 -0.4694
  348ntf    fn4 1917   1.811   0.173   2.777 -0.1439  0.5506  0.3979
  348ntf    fn4 1918   1.809   0.121   2.573  0.1848  0.4681 -0.5410
  348ntf    fn4 1919   1.919   0.284   2.650  0.3036 -0.2108  0.4915
  348ntf    on5 1920   1.544   0.263   2.618  0.2727 -0.4732  0.4775
  348ntf    on5 1921   1.661   0.432   2.747  0.4336 -0.5179 -0.0318
  348ntf    on5 1922   1.902   0.487   2.367 -0.2597 -0.2703  0.1805
  348ntf    on5 1923   1.835   0.612   2.569  0.7718 -0.7547  0.0394
  348ntf    fn4 1924   1.590   0.682   2.427 -0.1317  0.1214  0.0484
  348ntf    fn4 1925   1.748   0.722   2.295  0.2920 -0.0267  0.3028
  348ntf    fn4 1926   1.624   0.557   2.259 -0.1863  0.0889 -0.7523
  349ntf    cn1 1927   2.338   1.475   5.178  0.6043 -0.4074 -0.2674
  349ntf    sn2 1928   2.419   1.554   5.036 -0.4520  0.3452 -0.4629
  349ntf    nn3 1929   2.455   1.701   5.081 -0.0274  0.3250 -0.7365
  349ntf    sn2 1930   2.395   1.834   5.025 -0.0429  0.6179 -0.0235
  349ntf    cn1 1931   2.407   1.944   5.170 -0.0589  0.3090  0.2130
  349ntf    fn4 1932   2.284   1.355   5.158 -0.0328 -0.0909 -0.4696
  349ntf    fn4 1933   2.415   1.460   5.284  0.8110  0.3972 -0.3045
  349ntf    fn4 1934   2.238   1.551   5.220  0.5843 -0.4050 -0.3206
  349ntf    on5 1935   2.540   1.476   5.025 -0.2168  0.4939  0.8301
  349ntf    on5 1936   2.327   1.534   4.928 -0.9425 -0.0232  0.0186
  349ntf    on5 1937   2.254   1.823   4.998  0.0822 -0.4972 -0.2388
  349ntf    on5 1938   2.480   1.907   4.934  0.0305  0.4059 -0.1245
  349ntf    fn4 1939   2.347   2.059   5.144  0.1137  0.2153 -0.6506
  349ntf    fn4 1940   2.343   1.899   5.277  0.6130  0.1409  0.5487
  349ntf    fn4 1941   2.528   1.981   5.208  0.2997 -0.1793 -0.4309
  350ntf    cn1 1942   0.915   0.693   0.114  0.2844 -0.5437  0.0315
  350ntf    sn2 1943   0.758   0.784   0.115  0.5848 -0.0232  0.5553
  350ntf    nn3 1944   0.656   0.670   0.149  0.1648  0.0106 -0.5309
  350ntf    sn2 1945   0.499   0.676   0.143  0.1343  0.0336  0.2088
  350ntf    cn1 1946   0.466   0.573  -0.003  0.0771 -0.0433  0.2757
  350ntf    fn4 1947   0.952   0.629   0.225  0.2337 -0.1745  0.2620
  350ntf    fn4 1948   0.913   0.599   0.021  0.5907 -0.5668  0.0478
  350ntf    fn4 1949   1.019   0.769   0.086  0.0775 -0.4308 -0.4236
  350ntf    on5 1950   0.761   0.882   0.221 -0.3628  0.5658  0.0530
  350ntf    on5 1951   0.742   0.837  -0.019 -0.0930 -0.1450  0.5844
  350ntf    on5 1952   0.441   0.805   0.120  0.0676 -0.0303  0.0149
  350ntf    on5 1953   0.442   0.597   0.250  0.5898 -0.2008  0.2825
  350ntf    fn4 1954   0.540   0.464  -0.012 -0.4099 -0.3851  0.3781
  350ntf    fn4 1955   0.336   0.547  -0.007  0.0661  0.1487 -0.7744
  350ntf    fn4 1956   0.499   0.643  -0.110 -0.3397 -0.3357 -0.0457
  351ntf    cn1 1957   2.258   0.730   2.112 -0.2625  0.0138  0.1825
  351ntf    sn2 1958   2.260   0.887   2.020  0.2181 -0.0124  0.1470
  351ntf    nn3 1959   2.190   0.846   1.886 -0.1497  0.0212  0.3295
  351ntf    sn2 1960   2.161   0.936   1.760  0.0518 -0.0459  0.2358
  351ntf    cn1 1961   2.263   0.865   1.627  0.0202  0.1053  0.1315
  351ntf    fn4 1962   2.138   0.684   2.142 -0.0247 -0.4640  0.4271
  351ntf    fn4 1963   2.315   0.635   2.040  0.3946  0.6094 -0.0955
  351ntf    fn4 1964   2.326   0.739   2.226  0.0166 -0.6089  0.0695
  351ntf    on5 1965   2.179   0.969   2.107 -0.4554 -0.6202  0.0984
  351ntf    on5 1966   2.399   0.923   2.004  0.0115  0.4668 -0.6203
  351ntf    on5 1967   2.199   1.074   1.773 -0.1997  0.0436  0.0228
  351ntf    on5 1968   2.027   0.917   1.712  0.3021 -0.1398 -0.4358
  351ntf    fn4 1969   2.240   0.738   1.601  0.5227 -0.0271  0.3125
  351ntf    fn4 1970   2.246   0.923   1.510 -0.3405  0.5526  0.4022
  351ntf    fn4 1971   2.393   0.875   1.649  0.1669  0.1306 -0.7195
  352ntf    cn1 1972   1.736   1.365   5.775  0.1345 -0.3398  0.5293
  352ntf    sn2 1973   1.882   1.441   5.697 -0.0291 -0.2014  0.3576
  352ntf    nn3 1974   1.981   1.448   5.818 -0.0251 -0.2306  0.3561
  352ntf    sn2 1975   2.030   1.573   5.900  0.0681 -0.0702  0.0563
  352ntf    cn1 1976   1.963   1.538   6.065 -0.6848  0.1521 -0.2004
  352ntf    fn4 1977   1.753   1.234   5.786  0.1859 -0.4271 -0.5059
  352ntf    fn4 1978   1.705   1.421   5.891  0.7893  0.3610  0.3730
  352ntf    fn4 1979   1.632   1.388   5.697  0.2939  0.4310  0.5386
  352ntf    on5 1980   1.925   1.339   5.605 -0.3424 -0.0033 -0.0156
  352ntf    on5 1981   1.839   1.565   5.638 -0.1423 -0.2445  0.3479
  352ntf    on5 1982   1.969   1.700   5.869  0.6513  0.3492  0.5857
  352ntf    on5 1983   2.173   1.582   5.922  0.0671 -0.4535  0.2259
  352ntf    fn4 1984   2.002   1.423   6.117 -1.2469 -0.1609 -0.4584
  352ntf    fn4 1985   1.979   1.637   6.152 -0.2594 -0.4983  0.4704
  352ntf    fn4 1986   1.832   1.518   6.070 -0.6365 -0.2295 -0.4285
  353ntf    cn1 1987   0.426   1.776   0.834  0.3097 -0.0072 -0.2644
  353ntf    sn2 1988   0.384   1.936   0.758 -0.2697 -0.0814 -0.1062
  353ntf    nn3 1989   0.264   1.990   0.843 -0.2232 -0.0271 -0.0754
  353ntf    sn2 1990   0.178   2.118   0.814 -0.0750  0.1106  0.0902
  353ntf    cn1 1991   0.034   2.027   0.750 -0.0970  0.3728 -0.2341
  353ntf    fn4 1992   0.352   1.679   0.782  0.3500 -0.1732 -0.0136
  353ntf    fn4 1993   0.548   1.740   0.799  0.5647 -0.1268  0.7196
  353ntf    fn4 1994   0.420   1.779   0.966  0.1383  0.2423 -0.2780
  353ntf    on5 1995   0.510   2.003   0.772  0.2496 -1.0195 -0.1680
  353ntf    on5 1996   0.349   1.900   0.623  0.0107  1.2676 -0.5501
  353ntf    on5 1997   0.231   2.211   0.717  0.4847 -0.0813  0.2081
  353ntf    on5 1998   0.132   2.179   0.936  0.3310 -0.0967  0.3497
  353ntf    fn4 1999   0.071   1.922   0.679 -0.1768  0.1892 -0.0016
  353ntf    fn4 2000  -0.039   1.977   0.848  0.4859 -0.3635 -0.1702
  353ntf    fn4 2001  -0.044   2.103   0.674  0.0440  0.6488 -0.1056
  354ntf    cn1 2002   2.200   0.686   0.220  0.0463  0.0764  0.2279
  354ntf    sn2 2003   2.253   0.518   0.264 -0.3209 -0.1202 -0.0717
  354ntf    nn3 2004   2.120   0.439   0.234 -0.3479 -0.2826  0.4630
  354ntf    sn2 2005   2.112   0.287   0.197  0.5103 -0.2361  0.0797
  354ntf    cn1 2006   1.948   0.239   0.259  0.2692  0.0106 -0.3618
  354ntf    fn4 2007   2.310   0.759   0.217  0.0778  0.0054 -0.7568
  354ntf    fn4 2008   2.149   0.693   0.098  0.0523 -0.0143  0.2200
  354ntf    fn4 2009   2.117   0.749   0.301 -0.0813 -0.1654  0.2882
  354ntf    on5 2010   2.370   0.507   0.182 -0.0219  0.0840  0.3257
  354ntf    on5 2011   2.272   0.538   0.406 -0.2920 -0.1975 -0.0648
  354ntf    on5 2012   2.198   0.197   0.269 -0.0707 -0.7397  0.1509
  354ntf    on5 2013   2.106   0.256   0.056  0.6013  0.3726 -0.0620
  354ntf    fn4 2014   1.942   0.107   0.268  0.1933  0.0122 -0.3898
  354ntf    fn4 2015   1.932   0.281   0.383  0.2659  0.0106 -0.3623
  354ntf    fn4 2016   1.852   0.291   0.184  0.3336 -0.3519 -0.6978
  355ntf    cn1 2017   1.113   0.366   4.516 -0.1531  0.2484  0.0785
  355ntf    sn2 2018   1.142   0.544   4.499 -0.3735  0.2731 -0.0484
  355ntf    nn3 2019   1.298   0.561   4.509 -0.3439 -0.3734  0.6575
  355ntf    sn2 2020   1.378   0.669   4.590  0.3310 -0.3908  0.0248
  355ntf    cn1 2021   1.364   0.625   4.766  0.3275  0.2254  0.1821
  355ntf    fn4 2022   1.206   0.310   4.593 -0.2088 -0.7748 -0.5812
  355ntf    fn4 2023   0.990   0.348   4.562 -0.1686  0.1255 -0.0107
  355ntf    fn4 2024   1.118   0.298   4.403 -0.5502  0.2551  0.0548
  355ntf    on5 2025   1.087   0.575   4.370 -0.7733  0.0420  0.0648
  355ntf    on5 2026   1.062   0.602   4.604 -0.1812 -0.4359  0.4973
  355ntf    on5 2027   1.313   0.798   4.589  0.2421 -0.4380 -0.2118
  355ntf    on5 2028   1.517   0.665   4.550  0.2080 -1.2693 -0.3273
  355ntf    fn4 2029   1.390   0.497   4.788  0.2229  0.2121  0.2307
  355ntf    fn4 2030   1.442   0.702   4.840 -0.2156  0.5909  0.3791
  355ntf    fn4 2031   1.243   0.645   4.815  0.3384  0.3905  0.1436
  356ntf    cn1 2032   1.719   1.518   2.277 -0.2649  0.1249 -0.2421
  356ntf    sn2 2033   1.620   1.366   2.279  0.1933 -0.1707  0.1273
  356ntf    nn3 2034   1.728   1.281   2.355  0.2943 -0.5316 -0.4170
  356ntf    sn2 2035   1.735   1.233   2.504  0.2254  0.0786 -0.2140
  356ntf    cn1 2036   1.900   1.156   2.505  0.3210  0.2844  0.1253
  356ntf    fn4 2037   1.647   1.606   2.209  0.4108  0.7678 -0.1419
  356ntf    fn4 2038   1.749   1.582   2.389 -0.2103 -0.1323 -0.1106
  356ntf    fn4 2039   1.839   1.509   2.222 -0.2456 -0.1130 -0.1621
  356ntf    on5 2040   1.497   1.403   2.346  0.2274 -0.3907  0.3120
  356ntf    on5 2041   1.604   1.324   2.142 -0.3979 -1.0543  0.4540
  356ntf    on5 2042   1.652   1.118   2.529 -0.4528  0.5696 -0.1747
  356ntf    on5 2043   1.749   1.329   2.611 -0.3926  0.1035 -0.1535
  356ntf    fn4 2044   1.946   1.104   2.617 -0.2893 -0.8462 -0.1236
  356ntf    fn4 2045   1.920   1.066   2.409 -0.3233  0.3502 -0.0738
  356ntf    fn4 2046   1.988   1.250   2.474 -0.2081  0.5280 -0.6791
  357ntf    cn1 2047   1.110   1.996   6.052  0.2788  0.1021 -0.0179
  357ntf    sn2 2048   1.123   2.167   5.994 -0.0072  0.1560  0.0787
  357ntf    nn3 2049   1.004   2.240   6.066  0.0239 -0.2004  0.4939
  357ntf    sn2 2050   1.013   2.355   6.173  0.0030  0.0544  0.2236
  357ntf    cn1 2051   1.037   2.257   6.324  0.1154  0.0250  0.1867
  357ntf    fn4 2052   1.004   1.934   6.002  0.4784 -0.0236 -0.2878
  357ntf    fn4 2053   1.212   1.915   6.029 -0.0564 -0.2754 -0.1868
  357ntf    fn4 2054   1.097   1.992   6.184 -0.2160  0.4628 -0.0541
  357ntf    on5 2055   1.260   2.209   6.012  0.2204 -0.2734 -0.6159
  357ntf    on5 2056   1.085   2.160   5.855 -0.3246  0.4008  0.1511
  357ntf    on5 2057   0.891   2.427   6.198 -0.3972 -0.3983 -0.3765
  357ntf    on5 2058   1.131   2.437   6.156  0.2067 -0.1670  0.5451
  357ntf    fn4 2059   1.015   2.325   6.435  0.1343  0.2147  0.0750
  357ntf    fn4 2060   0.966   2.145   6.330  0.4283 -0.1879 -0.0650
  357ntf    fn4 2061   1.165   2.224   6.321  0.1060  0.0188 -0.1522
  358ntf    cn1 2062   1.235   1.490   1.508  0.1724 -0.0930 -0.0425
  358ntf    sn2 2063   1.258   1.533   1.332  0.0690  0.5897  0.1089
  358ntf    nn3 2064   1.310   1.399   1.269  0.2340  0.9001 -0.4170
  358ntf    sn2 2065   1.452   1.338   1.245 -0.0721  0.0261 -0.0808
  358ntf    cn1 2066   1.478   1.364   1.066  0.1469  0.3270 -0.0070
  358ntf    fn4 2067   1.170   1.585   1.573  0.6045  0.0061  0.2485
  358ntf    fn4 2068   1.181   1.370   1.521  0.0101 -0.0654 -0.4492
  358ntf    fn4 2069   1.350   1.475   1.572  0.4505  0.4377 -0.4024
  358ntf    on5 2070   1.123   1.552   1.287  0.2565 -0.2278 -0.8226
  358ntf    on5 2071   1.338   1.652   1.324  0.7767  0.1333  0.2712
  358ntf    on5 2072   1.446   1.196   1.265  0.5325  0.0350  0.1946
  358ntf    on5 2073   1.557   1.416   1.308 -0.1972  0.0361  0.1134
  358ntf    fn4 2074   1.465   1.493   1.041  0.0343  0.3246  0.0409
  358ntf    fn4 2075   1.594   1.328   1.014 -0.2537 -0.4937 -0.3502
  358ntf    fn4 2076   1.385   1.298   1.000  0.3682 -0.2494  0.2436
  359ntf    cn1 2077   1.259   0.133   1.821  0.2902 -0.1080  0.1766
  359ntf    sn2 2078   1.139   0.021   1.900 -0.0313  0.0574 -0.0764
  359ntf    nn3 2079   1.122  -0.085   1.785  0.1067  0.0469 -0.0868
  359ntf    sn2 2080   1.225  -0.192   1.733  0.0506  0.0252 -0.1521
  359ntf    cn1 2081   1.152  -0.344   1.800 -0.2189  0.2468  0.0613
  359ntf    fn4 2082   1.259   0.256   1.869 -0.4233 -0.1825  0.3809
  359ntf    fn4 2083   1.385   0.093   1.827  0.2727 -0.1130  0.5241
  359ntf    fn4 2084   1.231   0.143   1.692 -0.8041  0.1867  0.4219
  359ntf    on5 2085   1.196  -0.022   2.025 -0.3837  0.5237  0.2456
  359ntf    on5 2086   1.023   0.106   1.912  0.2938  0.5694 -0.5290
  359ntf    on5 2087   1.355  -0.192   1.795  0.2046  0.7034 -0.4639
  359ntf    on5 2088   1.219  -0.205   1.589  0.1903 -0.0333 -0.1527
  359ntf    fn4 2089   1.231  -0.448   1.774 -0.6382  0.0865 -0.5900
  359ntf    fn4 2090   1.145  -0.336   1.932 -0.1593  0.1108  0.0734
  359ntf    fn4 2091   1.032  -0.373   1.753 -0.1409  0.0846 -0.0398
  360ntf    cn1 2092   0.198   1.394   6.477  0.5241  0.4741 -0.0518
  360ntf    sn2 2093   0.373   1.357   6.444  0.5347  0.5299 -0.0580
  360ntf    nn3 2094   0.353   1.325   6.292 -0.0656 -0.1047  0.1494
  360ntf    sn2 2095   0.377   1.185   6.225  0.1292 -0.0212  0.0438
  360ntf    cn1 2096   0.554   1.203   6.189  0.1467  0.0380  0.1581
  360ntf    fn4 2097   0.168   1.421   6.603  0.1995  0.1202 -0.0525
  360ntf    fn4 2098   0.148   1.497   6.410 -0.1843 -0.0373 -0.3231
  360ntf    fn4 2099   0.128   1.284   6.459  0.4231  0.4430  0.5135
  360ntf    on5 2100   0.440   1.483   6.469  0.4627  0.5035  0.2718
  360ntf    on5 2101   0.406   1.253   6.538 -0.4971  0.1093 -0.1497
  360ntf    on5 2102   0.321   1.173   6.093 -0.0887  0.2123  0.1133
  360ntf    on5 2103   0.364   1.067   6.307  0.2103 -0.1660 -0.1508
  360ntf    fn4 2104   0.621   1.210   6.303 -0.4872  0.2789  0.5167
  360ntf    fn4 2105   0.607   1.106   6.115 -0.2435  0.0208 -0.0988
  360ntf    fn4 2106   0.585   1.311   6.118 -0.5788 -0.4020 -0.8523
  361ntf    cn1 2107   1.389   2.323   3.057  0.1606  0.3435  0.4624
  361ntf    sn2 2108   1.280   2.465   3.025  0.0531  0.2025  0.2062
  361ntf    nn3 2109   1.322   2.555   3.146  0.6611 -0.3728  0.4277
  361ntf    sn2 2110   1.369   2.705   3.144  0.2861 -0.2581 -0.0913
  361ntf    cn1 2111   1.549   2.680   3.153  0.3072 -0.1579 -0.2383
  361ntf    fn4 2112   1.374   2.284   3.183 -0.4652  0.5481  0.4570
  361ntf    fn4 2113   1.354   2.221   2.981 -0.1588  0.4051  0.5212
  361ntf    fn4 2114   1.517   2.353   3.043  0.2737 -0.3145  0.0630
  361ntf    on5 2115   1.317   2.520   2.897 -0.0402  0.3018  0.2216
  361ntf    on5 2116   1.144   2.426   3.054 -0.0029 -0.1315 -0.4808
  361ntf    on5 2117   1.334   2.772   3.267 -0.7991 -0.3258 -0.3523
  361ntf    on5 2118   1.338   2.783   3.027  0.2511 -0.2650 -0.0865
  361ntf    fn4 2119   1.587   2.603   3.254  0.1375 -0.2908 -0.2757
  361ntf    fn4 2120   1.593   2.624   3.042  0.1994  0.2527 -0.4911
  361ntf    fn4 2121   1.610   2.797   3.169 -0.3479  0.1878 -0.2475
  362ntf    cn1 2122   0.390   2.218   3.413 -0.3019  0.0986 -0.3285
  362ntf    sn2 2123   0.357   2.119   3.562 -0.2381  0.0169 -0.3688
  362ntf    nn3 2124   0.383   1.973   3.510 -0.0089 -0.1378  0.1746
  362ntf    sn2 2125   0.328   1.833   3.553  0.0082 -0.2623 -0.2066
  362ntf    cn1 2126   0.481   1.754   3.610  0.0360 -0.0452  0.0194
  362ntf    fn4 2127   0.518   2.218   3.379 -0.1572  0.4328  0.1997
  362ntf    fn4 2128   0.336   2.173   3.302 -0.4503  0.4511 -0.4005
  362ntf    fn4 2129   0.345   2.342   3.425 -0.3471  0.0530 -0.0024
  362ntf    on5 2130   0.453   2.157   3.662 -0.3351 -0.1235 -0.2220
  362ntf    on5 2131   0.220   2.161   3.581 -0.4173 -0.5441 -0.3867
  362ntf    on5 2132   0.277   1.752   3.445 -0.4903  0.4442 -0.5060
  362ntf    on5 2133   0.246   1.839   3.671  0.1000 -0.2553 -0.1435
  362ntf    fn4 2134   0.447   1.640   3.669 -0.9295  0.2801  0.1072
  362ntf    fn4 2135   0.567   1.728   3.513 -0.0755  0.0679 -0.1088
  362ntf    fn4 2136   0.542   1.831   3.698 -0.7693  0.4367  0.1643
  363ntf    cn1 2137   1.775   0.264   6.333  0.0105 -0.6858  0.2085
  363ntf    sn2 2138   1.695   0.143   6.223  0.0553 -0.3108 -0.2356
  363ntf    nn3 2139   1.813   0.040   6.209  0.0417 -0.4926  0.9501
  363ntf    sn2 2140   1.805  -0.106   6.151  0.1645 -0.0819 -0.1239
  363ntf    cn1 2141   1.965  -0.124   6.067 -0.1459  0.1497 -0.7695
  363ntf    fn4 2142   1.702   0.367   6.370  0.0891 -0.6005  0.1269
  363ntf    fn4 2143   1.821   0.203   6.442 -0.0551  0.0562  0.6550
  363ntf    fn4 2144   1.881   0.310   6.269 -0.2665 -0.4217 -0.0606
  363ntf    on5 2145   1.586   0.098   6.304 -0.0141  0.4251  0.0865
  363ntf    on5 2146   1.661   0.203   6.096 -0.8366  0.6934  0.4607
  363ntf    on5 2147   1.711  -0.124   6.044  0.1590  0.4675 -0.2173
  363ntf    on5 2148   1.813  -0.202   6.258  0.4044 -0.1545 -0.2060
  363ntf    fn4 2149   1.974  -0.227   5.984  0.0409 -0.2225 -0.2983
  363ntf    fn4 2150   1.994  -0.015   5.999 -0.2291  0.6337 -0.0402
  363ntf    fn4 2151   2.061  -0.138   6.157 -0.5399  0.1741 -0.3395
  364ntf    cn1 2152   0.040   1.951   5.589  0.1151  0.0518 -0.1671
  364ntf    sn2 2153   0.056   1.923   5.768 -0.1374  0.3426 -0.0992
  364ntf    nn3 2154  -0.066   2.007   5.822 -0.2345  0.0204  0.1868
  364ntf    sn2 2155  -0.058   2.152   5.882  0.0476  0.1275 -0.1080
  364ntf    cn1 2156  -0.083   2.109   6.057  0.0824 -0.6305 -0.2851
  364ntf    fn4 2157   0.115   1.867   5.519  0.1096 -0.3334  0.2880
  364ntf    fn4 2158  -0.082   1.936   5.542 -0.0481 -0.1886  0.3283
  364ntf    fn4 2159   0.075   2.075   5.558  0.0034  0.2098  0.3376
  364ntf    on5 2160   0.028   1.782   5.778  0.2415  0.3187  0.6347
  364ntf    on5 2161   0.188   1.971   5.799  0.0125 -0.5442  0.6770
  364ntf    on5 2162  -0.170   2.231   5.837  0.0237  0.0757 -0.1399
  364ntf    on5 2163   0.072   2.215   5.879  0.1089 -0.0071 -0.3588
  364ntf    fn4 2164  -0.083   2.219   6.130  0.0213 -0.3115 -0.7568
  364ntf    fn4 2165  -0.196   2.042   6.074 -0.1735 -0.1733 -0.1787
  364ntf    fn4 2166   0.016   2.034   6.100  0.5073 -0.0166 -0.1813
  365ntf    cn1 2167   1.924   1.971   2.130 -0.3998 -0.0836 -0.1441
  365ntf    sn2 2168   1.845   2.039   1.981  0.0064  0.2099 -0.2263
  365ntf    nn3 2169   1.966   2.119   1.920  0.1946  0.0305 -0.0911
  365ntf    sn2 2170   2.081   2.086   1.819  0.0764 -0.0909 -0.1847
  365ntf    cn1 2171   2.232   2.083   1.920  0.1059  0.2279 -0.2182
  365ntf    fn4 2172   1.837   1.906   2.205 -0.1032 -0.1768  0.1218
  365ntf    fn4 2173   2.017   1.887   2.086 -0.3488 -0.4655  0.6721
  365ntf    fn4 2174   1.989   2.063   2.199  0.0388  0.0269 -0.6990
  365ntf    on5 2175   1.810   1.912   1.923  0.0886 -0.0312  0.2475
  365ntf    on5 2176   1.741   2.130   2.024 -0.3696 -0.3546  0.0643
  365ntf    on5 2177   2.097   2.198   1.729 -0.4680  0.2890  0.1816
  365ntf    on5 2178   2.071   1.956   1.756  0.0793  0.0898 -0.5585
  365ntf    fn4 2179   2.233   2.182   2.007 -0.1736 -0.3961  0.5128
  365ntf    fn4 2180   2.227   1.980   2.002  0.7456  0.1341 -0.2915
  365ntf    fn4 2181   2.346   2.077   1.853  0.2258 -0.3957  0.0322
  366ntf    cn1 2182   0.857   1.878   5.422 -0.1193  0.3139  0.3102
  366ntf    sn2 2183   0.732   1.859   5.552  0.1109 -0.1270  0.4687
  366ntf    nn3 2184   0.608   1.858   5.457  0.3735 -0.3125  0.1264
  366ntf    sn2 2185   0.560   1.976   5.365  0.0142 -0.2922  0.3376
  366ntf    cn1 2186   0.379   1.968   5.384 -0.1250 -0.3951 -0.9299
  366ntf    fn4 2187   0.986   1.885   5.452 -0.1695  0.5272  0.4740
  366ntf    fn4 2188   0.855   1.778   5.335 -0.2298  0.0877  0.5740
  366ntf    fn4 2189   0.836   1.985   5.346 -0.2610 -0.1566 -0.3265
  366ntf    on5 2190   0.746   1.728   5.611 -0.4238 -0.5309 -0.2912
  366ntf    on5 2191   0.734   1.967   5.647 -0.6582 -0.0249  0.3747
  366ntf    on5 2192   0.582   1.938   5.228  0.0124  0.0367  0.2467
  366ntf    on5 2193   0.591   2.112   5.402  0.1445 -0.1752 -0.1967
  366ntf    fn4 2194   0.317   1.877   5.313 -0.4597 -0.1439 -0.9610
  366ntf    fn4 2195   0.338   1.937   5.506  0.4739  0.8314 -0.3984
  366ntf    fn4 2196   0.317   2.081   5.354 -0.8413 -0.5559 -0.0832
  367ntf    cn1 2197   0.901   0.968   5.380 -0.0632  0.2354 -0.2920
  367ntf    sn2 2198   1.002   0.973   5.229  0.1006 -0.2570 -0.1989
  367ntf    nn3 2199   0.946   1.100   5.157  0.2000  0.0102  0.1958
  367ntf    sn2 2200   1.002   1.246   5.137  0.3523 -0.0893 -0.1183
  367ntf    cn1 2201   0.851   1.342   5.169  0.1355 -0.4539 -0.0409
  367ntf    fn4 2202   0.774   0.949   5.347 -0.1931 -0.0403  0.3464
  367ntf    fn4 2203   0.931   0.873   5.467  0.1974  0.6471  0.0717
  367ntf    fn4 2204   0.897   1.081   5.448 -0.0806  0.1297 -0.1171
  367ntf    on5 2205   1.141   0.979   5.264  0.2064  0.1803 -0.6905
  367ntf    on5 2206   0.964   0.849   5.164 -0.3574 -0.3410  0.2231
  367ntf    on5 2207   1.039   1.275   5.001 -0.1591 -0.0872 -0.2598
  367ntf    on5 2208   1.090   1.296   5.240  0.1698  0.7601 -0.3668
  367ntf    fn4 2209   0.750   1.315   5.087  0.3573 -0.4462 -0.3173
  367ntf    fn4 2210   0.800   1.301   5.284 -0.3086 -0.1621 -0.1304
  367ntf    fn4 2211   0.870   1.473   5.174  0.1338 -0.4685  0.3730
  368ntf    cn1 2212   0.513   1.983   4.020  0.2142  0.2343  0.1276
  368ntf    sn2 2213   0.471   1.918   4.185 -0.2762  0.2095 -0.0037
  368ntf    nn3 2214   0.474   1.762   4.166  0.0853  0.2208 -0.0621
  368ntf    sn2 2215   0.358   1.662   4.199  0.0699  0.3029  0.1303
  368ntf    cn1 2216   0.415   1.523   4.098 -0.0898  0.2032  0.1764
  368ntf    fn4 2217   0.497   2.114   4.025 -0.0175  0.2156 -0.1051
  368ntf    fn4 2218   0.634   1.955   3.977  0.2117  0.0653  0.2294
  368ntf    fn4 2219   0.437   1.938   3.921  0.0494  0.1562  0.2881
  368ntf    on5 2220   0.583   1.962   4.265  0.1597 -0.0591 -0.4603
  368ntf    on5 2221   0.342   1.978   4.208 -0.3958 -0.1068  0.1547
  368ntf    on5 2222   0.224   1.688   4.151  0.2226 -0.3354 -0.6521
  368ntf    on5 2223   0.360   1.604   4.331  0.2051 -0.8141 -0.3527
  368ntf    fn4 2224   0.455   1.545   3.974  0.0776 -0.2372  0.1469
  368ntf    fn4 2225   0.521   1.470   4.157 -0.0207  0.5126  0.3304
  368ntf    fn4 2226   0.333   1.420   4.087 -0.2358  0.2520  0.7903
  369ntf    cn1 2227   0.989   2.066   0.067  0.2088 -0.0679  0.1730
  369ntf    sn2 2228   0.926   1.895   0.071 -0.1147  0.0475  0.0567
  369ntf    nn3 2229   1.040   1.824   0.153 -0.3900 -0.6895 -0.1966
  369ntf    sn2 2230   1.039   1.749   0.291 -0.1611  0.0352  0.2052
  369ntf    cn1 2231   1.215   1.728   0.329 -0.1236  0.3358  0.2017
  369ntf    fn4 2232   1.108   2.076   0.010  0.0292  0.1809 -0.1595
  369ntf    fn4 2233   0.907   2.145  -0.001 -0.2951 -0.5576  0.2055
  369ntf    fn4 2234   1.010   2.113   0.189  0.7018 -0.1181  0.1069
  369ntf    on5 2235   0.799   1.895   0.140 -0.1062 -0.5172  0.0716
  369ntf    on5 2236   0.929   1.857  -0.068  0.6361  0.1569  0.0361
  369ntf    on5 2237   1.002   1.610   0.281  0.2371 -0.0476 -0.1560
  369ntf    on5 2238   1.005   1.836   0.400 -0.3508  0.5053 -0.2245
  369ntf    fn4 2239   1.279   1.833   0.378  0.4931  0.1368 -0.1614
  369ntf    fn4 2240   1.242   1.632   0.416 -0.0684  0.6451  0.5287
  369ntf    fn4 2241   1.284   1.685   0.224 -0.5780  0.8324 -0.3037
  370ntf    cn1 2242   1.706   2.143   1.144 -0.3721  0.2169  0.4753
  370ntf    sn2 2243   1.579   2.054   1.049 -0.1991  0.2301  0.2320
  370ntf    nn3 2244   1.663   1.930   1.000  0.1028  0.2975  0.5742
  370ntf    sn2 2245   1.653   1.783   1.054  0.0673  0.2226  0.3649
  370ntf    cn1 2246   1.825   1.770   1.110  0.2393  0.3329 -0.1328
  370ntf    fn4 2247   1.664   2.246   1.215  0.5261  1.0215 -0.1411
  370ntf    fn4 2248   1.742   2.051   1.233 -0.1226  0.3057  0.4669
  370ntf    fn4 2249   1.810   2.181   1.071 -0.6504  0.2645  0.0989
  370ntf    on5 2250   1.483   2.035   1.154  0.1913  0.4460  0.6308
  370ntf    on5 2251   1.545   2.135   0.935  0.8138  0.0133 -0.2450
  370ntf    on5 2252   1.638   1.681   0.954 -0.1630  0.8504 -0.2441
  370ntf    on5 2253   1.573   1.768   1.173  0.0909 -0.7495  0.2671
  370ntf    fn4 2254   1.859   1.649   1.152  0.2486  0.4298  0.1433
  370ntf    fn4 2255   1.904   1.800   1.008 -0.1010  0.3732 -0.3835
  370ntf    fn4 2256   1.858   1.852   1.209  0.8143 -0.0323 -0.0145
  371ntf    cn1 2257   1.679   0.199   5.173 -0.0943 -0.0218 -0.0225
  371ntf    sn2 2258   1.755   0.271   5.321 -0.4947  0.0986  0.1263
  371ntf    nn3 2259   1.812   0.406   5.264 -0.3151 -0.2192 -0.4525
  371ntf    sn2 2260   1.957   0.436   5.212 -0.1588 -0.1775  0.0044
  371ntf    cn1 2261   1.986   0.613   5.243 -0.1379 -0.2269  0.2700
  371ntf    fn4 2262   1.765   0.150   5.085  0.0730  0.0488  0.1035
  371ntf    fn4 2263   1.606   0.094   5.206 -0.1653  0.1950  0.5150
  371ntf    fn4 2264   1.609   0.290   5.107 -0.0765 -0.0611 -0.0975
  371ntf    on5 2265   1.646   0.291   5.413 -0.6992 -0.0894 -0.0753
  371ntf    on5 2266   1.858   0.174   5.352 -0.3393  0.3202  0.3020
  371ntf    on5 2267   1.966   0.438   5.068 -0.2297  0.3206  0.0055
  371ntf    on5 2268   2.065   0.383   5.290 -0.2624 -0.2702  0.0845
  371ntf    fn4 2269   2.111   0.646   5.215 -0.3054  0.0781 -0.1421
  371ntf    fn4 2270   1.902   0.692   5.178 -0.0900 -0.3311  0.0809
  371ntf    fn4 2271   1.964   0.648   5.369  0.2491 -0.1250  0.3079
  372ntf    cn1 2272   0.527   0.338   6.345  0.4190  0.3185  0.0676
  372ntf    sn2 2273   0.395   0.247   6.430  0.4506 -0.1506 -0.3852
  372ntf    nn3 2274   0.349   0.148   6.317 -0.0789 -0.2911 -0.0481
  372ntf    sn2 2275   0.204   0.097   6.285 -0.2885  0.2114  0.0950
  372ntf    cn1 2276   0.125   0.207   6.163 -0.0870  0.7686  0.4594
  372ntf    fn4 2277   0.490   0.401   6.234 -0.0028  0.1974  0.1390
  372ntf    fn4 2278   0.579   0.440   6.412 -0.0210  0.3138  0.4151
  372ntf    fn4 2279   0.629   0.260   6.313  0.0641  0.0148 -0.3290
  372ntf    on5 2280   0.477   0.188   6.533 -0.2455 -0.4723 -0.0092
  372ntf    on5 2281   0.299   0.349   6.464  0.2224 -0.3525 -0.4234
  372ntf    on5 2282   0.114   0.109   6.398 -0.6227  0.0240 -0.1499
  372ntf    on5 2283   0.206  -0.029   6.216 -0.4980  0.4344 -0.3267
  372ntf    fn4 2284   0.004   0.171   6.122  0.2325  0.1252  0.0623
  372ntf    fn4 2285   0.110   0.328   6.214 -0.3027  0.6988  0.5638
  372ntf    fn4 2286   0.195   0.220   6.052 -0.1733  0.1507  0.3265
  373ntf    cn1 2287   1.890   0.587   0.653  0.1096  0.0477  0.2206
  373ntf    sn2 2288   1.869   0.561   0.832 -0.0870 -0.0650  0.1820
  373ntf    nn3 2289   1.852   0.405   0.838 -0.2237 -0.0634 -0.1445
  373ntf    sn2 2290   1.757   0.326   0.935  0.0808  0.1647  0.3444
  373ntf    cn1 2291   1.614   0.288   0.829  0.0499  0.3747  0.3103
  373ntf    fn4 2292   1.804   0.525   0.574  0.2381  0.1359  0.0124
  373ntf    fn4 2293   1.878   0.715   0.624  0.3707  0.1072  0.3703
  373ntf    fn4 2294   2.009   0.553   0.606  0.1823  0.3227  0.2037
  373ntf    on5 2295   1.993   0.618   0.880 -0.2350 -0.0688  0.5701
  373ntf    on5 2296   1.754   0.646   0.850  0.3450  0.6934 -0.5619
  373ntf    on5 2297   1.709   0.405   1.046 -0.6382  0.2558 -0.0244
  373ntf    on5 2298   1.806   0.199   0.982  0.2142  0.2109  0.3302
  373ntf    fn4 2299   1.552   0.181   0.878 -0.0015  0.2562 -0.0142
  373ntf    fn4 2300   1.533   0.392   0.817  0.1184  0.4548  0.5363
  373ntf    fn4 2301   1.653   0.255   0.707 -0.4261 -1.1350  0.5413
  374ntf    cn1 2302   0.530   0.591   5.737 -0.5284  0.0716 -0.1732
  374ntf    sn2 2303   0.639   0.455   5.686 -0.2536  0.2489 -0.0684
  374ntf    nn3 2304   0.527   0.352   5.645  0.0719 -0.1206 -0.0350
  374ntf    sn2 2305   0.551   0.239   5.539  0.1988 -0.1633  0.0397
  374ntf    cn1 2306   0.429   0.293   5.416  0.0221  0.1785  0.3620
  374ntf    fn4 2307   0.457   0.628   5.633 -0.5010  0.1223 -0.1750
  374ntf    fn4 2308   0.437   0.553   5.822 -0.5169  0.6194  0.0929
  374ntf    fn4 2309   0.591   0.697   5.788 -0.0957 -0.1291 -0.2664
  374ntf    on5 2310   0.713   0.511   5.576  0.0251  0.3370  0.1652
  374ntf    on5 2311   0.719   0.424   5.801  0.3194  0.5837 -0.3740
  374ntf    on5 2312   0.490   0.115   5.582  0.0243  0.0883  0.5303
  374ntf    on5 2313   0.679   0.239   5.472  0.6466  0.6408  0.8603
  374ntf    fn4 2314   0.309   0.299   5.470 -0.2577 -0.2294 -0.2001
  374ntf    fn4 2315   0.454   0.410   5.359  0.3591  0.1555  0.4621
  374ntf    fn4 2316   0.418   0.201   5.321 -0.0503  0.5509  0.0097
  375ntf    cn1 2317   1.980   1.994   4.386 -0.2173 -0.1277  0.0666
  375ntf    sn2 2318   2.048   1.996   4.218 -0.4404 -0.0411 -0.0242
  375ntf    nn3 2319   2.013   1.854   4.161 -0.3572 -0.0496 -0.0543
  375ntf    sn2 2320   2.119   1.768   4.083 -0.3299  0.0578 -0.1369
  375ntf    cn1 2321   2.139   1.859   3.927 -0.3331  0.3155  0.0129
  375ntf    fn4 2322   2.035   1.905   4.467 -0.2669 -0.1737  0.0503
  375ntf    fn4 2323   1.990   2.109   4.451 -0.1645  0.1976 -0.5136
  375ntf    fn4 2324   1.852   1.959   4.387 -0.2170 -0.1273  0.5616
  375ntf    on5 2325   1.988   2.107   4.148  0.3784  0.3285 -0.1599
  375ntf    on5 2326   2.188   2.018   4.246 -0.3072 -0.8837 -0.0138
  375ntf    on5 2327   2.067   1.641   4.037 -0.2643  0.2704 -0.7951
  375ntf    on5 2328   2.250   1.749   4.141 -0.3653  0.5507  0.1043
  375ntf    fn4 2329   2.157   1.989   3.938  0.0965  0.2489  0.1433
  375ntf    fn4 2330   2.243   1.815   3.857 -0.0346  0.0682  0.5969
  375ntf    fn4 2331   2.038   1.854   3.842 -0.1565  0.2073 -0.1904
  376ntf    cn1 2332   1.781   1.946   3.045  0.0737 -0.1428  0.3095
  376ntf    sn2 2333   1.943   2.023   3.019 -0.1423  0.0999 -0.3519
  376ntf    nn3 2334   2.029   1.901   2.970  0.5730  0.2291  0.5525
  376ntf    sn2 2335   2.091   1.870   2.829  0.1261  0.4163  0.3105
  376ntf    cn1 2336   2.258   1.813   2.876  0.0013  0.2211  0.5209
  376ntf    fn4 2337   1.777   1.833   3.113 -0.6313 -0.3646 -0.0810
  376ntf    fn4 2338   1.708   2.030   3.118  0.4333  0.1316  0.3547
  376ntf    fn4 2339   1.714   1.922   2.933  0.0701  0.3469  0.2020
  376ntf    on5 2340   1.914   2.124   2.920 -0.1056  0.0063 -0.4586
  376ntf    on5 2341   1.972   2.058   3.156 -0.6464  0.3150 -0.2980
  376ntf    on5 2342   2.111   1.972   2.728  0.1155  0.0991 -0.0115
  376ntf    on5 2343   2.031   1.748   2.782 -0.2136  0.3670  0.8667
  376ntf    fn4 2344   2.327   1.794   2.765 -1.0137 -0.1127 -0.0719
  376ntf    fn4 2345   2.325   1.906   2.942  0.2312  0.1019  0.4551
  376ntf    fn4 2346   2.270   1.699   2.942  0.5612  0.2862  0.5340
  377ntf    cn1 2347   1.027   0.509   2.302  0.0500 -0.1697 -0.4041
  377ntf    sn2 2348   0.973   0.409   2.443  0.0529 -0.0075 -0.2876
  377ntf    nn3 2349   0.858   0.504   2.493 -0.0467 -0.3539  0.1486
  377ntf    sn2 2350   0.867   0.596   2.620  0.2021 -0.3489  0.1290
  377ntf    cn1 2351   0.845   0.762   2.548  0.0051 -0.2535  0.4081
  377ntf    fn4 2352   0.928   0.555   2.227 -0.2160  0.1505  0.1433
  377ntf    fn4 2353   1.112   0.607   2.330  0.0803 -0.2636 -0.1731
  377ntf    fn4 2354   1.084   0.435   2.207  0.1402 -0.4325 -0.1457
  377ntf    on5 2355   0.929   0.282   2.390 -0.2809  0.0234 -0.0876
  377ntf    on5 2356   1.089   0.393   2.526 -0.0095 -0.6480 -0.3136
  377ntf    on5 2357   0.989   0.604   2.696 -0.0205 -0.1987  0.4755
  377ntf    on5 2358   0.750   0.578   2.703  0.2182  0.8360  0.4212
  377ntf    fn4 2359   0.963   0.795   2.500 -0.0393 -0.1615  0.3633
  377ntf    fn4 2360   0.760   0.766   2.447  0.2225  0.1888  0.2449
  377ntf    fn4 2361   0.798   0.847   2.638  0.0927 -0.3342  0.5312
  378ntf    cn1 2362   1.492   1.258   4.022 -0.1824  0.1185  0.0323
  378ntf    sn2 2363   1.466   1.159   3.871 -0.1387 -0.0263  0.1199
  378ntf    nn3 2364   1.364   1.048   3.916  0.0744 -0.3252 -0.1302
  378ntf    sn2 2365   1.396   0.917   3.996  0.0184 -0.2231  0.0610
  378ntf    cn1 2366   1.262   0.912   4.118 -0.0442 -0.0513 -0.0007
  378ntf    fn4 2367   1.550   1.374   3.993 -0.1498  0.0418 -0.2139
  378ntf    fn4 2368   1.382   1.292   4.087 -0.1353 -0.1880  0.2721
  378ntf    fn4 2369   1.573   1.192   4.103 -0.5258  0.0940  0.3537
  378ntf    on5 2370   1.416   1.260   3.782  0.1539  0.3296  0.3553
  378ntf    on5 2371   1.592   1.100   3.836 -0.3312 -0.1841 -0.3091
  378ntf    on5 2372   1.509   0.924   4.086 -0.0206 -0.0665  0.0977
  378ntf    on5 2373   1.384   0.791   3.927  0.5643  0.0359 -0.5225
  378ntf    fn4 2374   1.281   0.808   4.198 -0.2502 -0.3850 -0.3859
  378ntf    fn4 2375   1.239   1.012   4.202 -0.1461  0.2425 -0.3809
  378ntf    fn4 2376   1.146   0.902   4.056 -0.0977 -0.0865  0.1045
   2.39813   2.39813   6.69884
