Converted from moscito
25920
    1SOL     ow    1   2.737   2.588   1.441 -0.4160  0.5988 -0.3487
    1SOL     hw    2   2.651   2.604   1.480 -2.0494  0.8886 -3.7074
    1SOL     hw    3   2.774   2.675   1.428  0.3304  0.4854  0.8078
    1SOL     vw    4   2.730   2.601   1.445 -0.5331  0.6222 -0.6393
    2SOL     ow    5   3.044   1.505   3.487  0.1197 -0.4816  0.4316
    2SOL     hw    6   2.987   1.574   3.522 -1.5265 -1.4275 -0.3002
    2SOL     hw    7   3.063   1.533   3.397 -2.4498 -2.0021 -0.6865
    2SOL     vw    8   3.039   1.518   3.480 -0.4365 -0.8070  0.1875
    3SOL     ow    9   1.321   3.606   3.118 -0.2552  0.2099  0.3089
    3SOL     hw   10   1.270   3.597   3.198 -2.7297 -1.5300 -1.2834
    3SOL     hw   11   1.296   3.691   3.082 -0.8113  0.0712  0.3600
    3SOL     vw   12   1.311   3.616   3.124 -0.6551 -0.0380  0.1055
    4SOL     ow   13   0.379   5.879   6.235  0.6301 -0.1595 -0.9503
    4SOL     hw   14   0.352   5.914   6.149 -0.2928 -4.3358 -2.6194
    4SOL     hw   15   0.299   5.878   6.287  0.4914 -0.3745 -1.1637
    4SOL     vw   16   0.365   5.883   6.230  0.4900 -0.7389 -1.1988
    5SOL     ow   17   7.315   6.690   6.438  0.0103 -0.2913  0.0749
    5SOL     hw   18   7.317   6.595   6.425 -1.3448 -0.3665  0.3424
    5SOL     hw   19   7.407   6.714   6.449  0.3935 -1.5317 -0.2681
    5SOL     vw   20   7.328   6.681   6.438 -0.1179 -0.4644  0.0648
    6SOL     ow   21   4.109   0.199   3.979 -0.5747 -0.1123 -0.4314
    6SOL     hw   22   4.140   0.130   4.037  0.2644  1.6547  1.3414
    6SOL     hw   23   4.034   0.238   4.025 -0.2200  0.9891 -0.7506
    6SOL     vw   24   4.103   0.195   3.992 -0.4172  0.2662 -0.2397
    7SOL     ow   25   1.819   3.887   3.320 -0.1291 -0.0592 -0.5171
    7SOL     hw   26   1.771   3.806   3.300  0.5287 -0.0435 -2.3131
    7SOL     hw   27   1.751   3.955   3.320 -0.9982 -0.7321  2.7480
    7SOL     vw   28   1.804   3.885   3.318 -0.1570 -0.1459 -0.3233
    8SOL     ow   29   1.477   6.558   2.636  1.2584  0.5250 -0.1634
    8SOL     hw   30   1.505   6.594   2.720  0.6845  0.8705 -0.1159
    8SOL     hw   31   1.390   6.595   2.622  1.4222  0.6093 -0.9929
    8SOL     vw   32   1.469   6.568   2.645  1.2043  0.5817 -0.2666
    9SOL     ow   33   6.569   3.145   2.591 -0.2856  0.3933  0.6126
    9SOL     hw   34   6.531   3.144   2.503  1.8300 -0.5477 -0.3776
    9SOL     hw   35   6.517   3.209   2.639 -1.0375  1.5074 -1.5483
    9SOL     vw   36   6.557   3.153   2.586 -0.1056  0.4162  0.1968
   10SOL     ow   37   3.314   4.949   0.435  0.5510 -0.2169 -0.7140
   10SOL     hw   38   3.386   4.902   0.395  0.3554 -0.3137 -0.9528
   10SOL     hw   39   3.306   4.911   0.523  0.5437 -0.4698 -0.8233
   10SOL     vw   40   3.322   4.938   0.442  0.5242 -0.2630 -0.7599
   11SOL     ow   41   3.565   1.026   0.789 -0.0641  0.1507  0.4866
   11SOL     hw   42   3.501   1.097   0.780 -1.1594 -0.8844 -0.2467
   11SOL     hw   43   3.632   1.047   0.723  0.1012  0.9714  0.9005
   11SOL     vw   44   3.565   1.038   0.779 -0.1868  0.1225  0.4445
   12SOL     ow   45   3.742   3.184   5.565 -0.0656  0.3106  0.5717
   12SOL     hw   46   3.778   3.203   5.652  0.8107  1.4106 -0.0018
   12SOL     hw   47   3.667   3.242   5.557  1.0824  1.7656 -0.1759
   12SOL     vw   48   3.737   3.194   5.576  0.2015  0.6477  0.3977
   13SOL     ow   49   5.462   6.197   0.806 -0.6872  0.1573 -0.5031
   13SOL     hw   50   5.453   6.105   0.833  0.2852  0.0753 -0.4096
   13SOL     hw   51   5.453   6.195   0.711 -0.1542 -0.1174 -0.5537
   13SOL     vw   52   5.460   6.185   0.797 -0.4885  0.1101 -0.4974
   14SOL     ow   53   3.560   4.562   1.018  0.1775  0.4919 -0.1245
   14SOL     hw   54   3.552   4.653   0.990 -0.3286 -0.1367 -2.1568
   14SOL     hw   55   3.630   4.526   0.964  0.3928 -0.3310  0.6751
   14SOL     vw   56   3.568   4.569   1.007  0.1392  0.3004 -0.2871
   15SOL     ow   57   5.940   2.119   2.839 -0.4042  0.3186 -0.0161
   15SOL     hw   58   5.856   2.165   2.833 -0.4647  0.1094 -0.8491
   15SOL     hw   59   5.969   2.135   2.929 -2.2607 -1.2268  0.9567
   15SOL     vw   60   5.933   2.127   2.850 -0.6571  0.0871  0.0024
   16SOL     ow   61   0.161   2.205   5.777 -0.0187  0.6556  0.3046
   16SOL     hw   62   0.176   2.234   5.687  1.7500  1.3753  0.7986
   16SOL     hw   63   0.202   2.272   5.831 -0.4859 -0.1068  1.6372
   16SOL     vw   64   0.169   2.217   5.772  0.1530  0.6500  0.5457
   17SOL     ow   65   3.050   3.362   1.310  0.2648  0.0080  0.2605
   17SOL     hw   66   3.066   3.374   1.217  1.4250  0.2619  0.4763
   17SOL     hw   67   3.112   3.295   1.337 -1.6308 -1.7849  0.4207
   17SOL     vw   68   3.060   3.355   1.302  0.1677 -0.1950  0.3101
   18SOL     ow   69   4.756   6.423   4.494  0.9241  0.1521 -0.8055
   18SOL     hw   70   4.670   6.426   4.536  1.4655 -0.4967  0.3846
   18SOL     hw   71   4.736   6.407   4.401 -0.2112 -0.7835 -0.4331
   18SOL     vw   72   4.742   6.421   4.487  0.8457 -0.0570 -0.5994
   19SOL     ow   73   4.497   6.553   2.730  0.2286  0.0415 -0.2581
   19SOL     hw   74   4.568   6.605   2.692 -0.2941  0.7390 -0.2997
   19SOL     hw   75   4.510   6.465   2.695  1.5067 -0.0198  0.3220
   19SOL     vw   76   4.508   6.548   2.720  0.3285  0.1252 -0.1872
   20SOL     ow   77   0.454   2.213   3.707  0.5570 -0.0648 -0.1604
   20SOL     hw   78   0.466   2.247   3.795  1.1471 -4.6370  1.8327
   20SOL     hw   79   0.360   2.224   3.689 -0.7918 -3.3650  3.3954
   20SOL     vw   80   0.443   2.219   3.716  0.4569 -1.1034  0.5716
   21SOL     ow   81   0.430   5.383   3.235  0.1932 -0.5527 -0.2210
   21SOL     hw   82   0.338   5.405   3.244  0.1580 -0.6712 -0.2857
   21SOL     hw   83   0.430   5.297   3.192  0.3913  1.5195 -4.8565
   21SOL     vw   84   0.418   5.374   3.231  0.2147 -0.2949 -0.8410
   22SOL     ow   85   1.819   2.144   0.149  0.0285  0.1214 -0.0580
   22SOL     hw   86   1.875   2.112   0.077  0.8570 -0.1847  0.7068
   22SOL     hw   87   1.749   2.192   0.104  0.8705  0.4684 -1.0540
   22SOL     vw   88   1.817   2.146   0.133  0.2490  0.1267 -0.0885
   23SOL     ow   89   5.358   4.551   1.015  0.2922 -0.1778 -0.2200
   23SOL     hw   90   5.365   4.456   1.020  1.4237 -0.1696 -1.2332
   23SOL     hw   91   5.403   4.583   1.093 -0.2979 -0.4710  0.2455
   23SOL     vw   92   5.365   4.543   1.026  0.3636 -0.2153 -0.2922
   24SOL     ow   93   2.456   2.268   2.391 -0.3329  0.3061 -1.1683
   24SOL     hw   94   2.414   2.345   2.429  0.4893  1.0980 -1.8161
   24SOL     hw   95   2.491   2.299   2.307  1.7100 -0.2483 -0.5703
   24SOL     vw   96   2.455   2.282   2.385  0.0452  0.3374 -1.1749
   25SOL     ow   97   6.196   7.240   1.804 -0.2882 -0.1602 -0.1522
   25SOL     hw   98   6.157   7.165   1.848  1.1928 -0.6531  0.3701
   25SOL     hw   99   6.141   7.314   1.831 -0.9629 -0.8407  0.4116
   25SOL     vw  100   6.184   7.240   1.813 -0.1817 -0.3150 -0.0089
   26SOL     ow  101   4.445   4.340   0.547 -0.1192 -0.2335 -0.0696
   26SOL     hw  102   4.515   4.320   0.609 -1.1381 -1.9897  0.6032
   26SOL     hw  103   4.485   4.329   0.461  0.7072 -0.1130  0.2894
   26SOL     vw  104   4.460   4.336   0.544 -0.1447 -0.4494  0.0665
   27SOL     ow  105   1.732   1.447   6.785 -0.1968 -0.3489  0.4170
   27SOL     hw  106   1.801   1.407   6.838 -1.1769 -1.3705  0.9487
   27SOL     hw  107   1.711   1.529   6.830  0.9185  0.1620  0.0394
   27SOL     vw  108   1.738   1.452   6.798 -0.1789 -0.4163  0.4375
   28SOL     ow  109   5.461   5.474   3.354  0.2423  0.3610 -0.5227
   28SOL     hw  110   5.483   5.453   3.263 -0.2446  1.3063 -0.8758
   28SOL     hw  111   5.400   5.404   3.380 -0.1561  0.4577 -1.1601
   28SOL     vw  112   5.456   5.462   3.345  0.1254  0.4985 -0.6534
   29SOL     ow  113   6.733   2.381   0.033 -0.3548 -0.3450  0.2570
   29SOL     hw  114   6.733   2.347   0.123  1.1566  0.4114  0.5886
   29SOL     hw  115   6.826   2.379   0.008 -0.5841  0.8134 -0.7498
   29SOL     vw  116   6.745   2.376   0.042 -0.1853 -0.0924  0.1679
   30SOL     ow  117   0.390   6.747   2.181 -0.6733 -0.0016 -0.1674
   30SOL     hw  118   0.481   6.753   2.152 -0.5576  1.1560  0.4007
   30SOL     hw  119   0.339   6.746   2.100 -0.2043  0.2761 -0.4692
   30SOL     vw  120   0.395   6.748   2.166 -0.5961  0.1881 -0.1323
   31SOL     ow  121   5.964   7.052   5.435  0.1302 -0.1167  1.3683
   31SOL     hw  122   5.869   7.050   5.424 -0.0105 -1.0208  2.5512
   31SOL     hw  123   5.994   7.122   5.376 -1.2430  0.0982  0.8966
   31SOL     vw  124   5.956   7.061   5.426 -0.0696 -0.2074  1.4622
   32SOL     ow  125   2.899   0.721   4.983 -0.2902  0.4300 -0.1422
   32SOL     hw  126   2.912   0.757   4.895 -0.9967  1.2200  0.0542
   32SOL     hw  127   2.952   0.642   4.985 -1.3332 -0.3558 -1.7467
   32SOL     vw  128   2.908   0.716   4.971 -0.5209  0.4305 -0.3283
   33SOL     ow  129   2.580   5.484   2.484  0.5855 -0.3089 -0.1116
   33SOL     hw  130   2.552   5.429   2.410 -1.1314 -0.4093  0.5653
   33SOL     hw  131   2.562   5.574   2.454 -0.2847 -0.3590  0.2212
   33SOL     vw  132   2.574   5.489   2.470  0.2443 -0.3288  0.0216
   34SOL     ow  133   4.394   0.633   6.000 -0.3117 -0.0003 -0.0178
   34SOL     hw  134   4.386   0.703   5.935 -0.5041 -1.2408 -1.3754
   34SOL     hw  135   4.303   0.610   6.021 -0.2680  0.9327  1.3410
   34SOL     vw  136   4.381   0.639   5.994 -0.3316 -0.0409 -0.0176
   35SOL     ow  137   6.837   4.297   3.515 -0.3040  0.3442 -0.0921
   35SOL     hw  138   6.911   4.303   3.455  1.1726  1.8332  1.7420
   35SOL     hw  139   6.805   4.387   3.524 -1.0093  0.0323  0.7211
   35SOL     vw  140   6.842   4.310   3.508 -0.2024  0.4995  0.2573
   36SOL     ow  141   0.628   2.026   6.993  0.2872  0.4100  0.2568
   36SOL     hw  142   0.683   2.047   7.069  1.4982 -2.6506  0.3639
   36SOL     hw  143   0.663   1.943   6.961 -1.9114  0.2762 -2.0529
   36SOL     vw  144   0.640   2.018   6.999  0.1569 -0.0114 -0.0336
   37SOL     ow  145   1.806   4.534   4.336  0.0424 -0.2480 -0.5342
   37SOL     hw  146   1.792   4.628   4.337  0.5402 -0.1619  0.7773
   37SOL     hw  147   1.871   4.520   4.267  0.2371  0.4113 -0.4878
   37SOL     vw  148   1.813   4.544   4.327  0.1338 -0.1497 -0.3550
   38SOL     ow  149   7.192   6.965   1.720 -0.2957 -0.2907 -0.3298
   38SOL     hw  150   7.141   6.893   1.756  0.5052 -1.3280 -1.2336
   38SOL     hw  151   7.258   6.983   1.787  0.1515 -1.0916 -0.5554
   38SOL     vw  152   7.194   6.958   1.734 -0.1311 -0.5331 -0.4788
   39SOL     ow  153   1.054   4.522   4.843 -0.2372 -0.2714 -0.2519
   39SOL     hw  154   0.979   4.482   4.799  1.3992 -3.2913 -0.5444
   39SOL     hw  155   1.029   4.526   4.935 -0.9044 -0.8895 -0.4002
   39SOL     vw  156   1.041   4.517   4.849 -0.1093 -0.7517 -0.3099
   40SOL     ow  157   3.411   2.788   3.697 -0.2678 -0.0699  0.1182
   40SOL     hw  158   3.491   2.834   3.675 -0.7329  0.2895 -0.8807
   40SOL     hw  159   3.435   2.732   3.771  0.7770  0.3657  0.1246
   40SOL     vw  160   3.425   2.786   3.704 -0.1913  0.0352 -0.0129
   41SOL     ow  161   6.451   6.432   6.333  0.0985 -0.6087  0.1752
   41SOL     hw  162   6.364   6.444   6.296 -1.9319 -0.5118  4.4256
   41SOL     hw  163   6.459   6.338   6.347  0.0574 -0.4810  1.0863
   41SOL     vw  164   6.441   6.421   6.330 -0.1748 -0.5794  0.8564
   42SOL     ow  165   1.470   3.383   2.952  0.0227  0.7946 -0.9726
   42SOL     hw  166   1.463   3.440   2.876 -0.1038  1.3330 -0.5616
   42SOL     hw  167   1.558   3.344   2.945  0.1973  1.2124 -1.1355
   42SOL     vw  168   1.481   3.385   2.941  0.0290  0.9209 -0.9400
   43SOL     ow  169   5.687   5.012   1.580  0.2615 -0.0757  0.0662
   43SOL     hw  170   5.667   5.103   1.601 -0.6892 -0.2984  0.1456
   43SOL     hw  171   5.653   4.962   1.654 -1.0301 -0.6695 -0.9041
   43SOL     vw  172   5.680   5.017   1.592 -0.0343 -0.1833 -0.0514
   44SOL     ow  173   2.593   5.993   1.528 -0.8113  0.5054 -0.1578
   44SOL     hw  174   2.611   6.065   1.467 -1.2323  1.2133  0.5317
   44SOL     hw  175   2.545   5.929   1.476  2.2387 -0.7773 -1.6528
   44SOL     vw  176   2.589   5.994   1.513 -0.4644  0.4299 -0.2641
   45SOL     ow  177   6.402   5.986   3.655  0.0381 -0.6151 -0.9102
   45SOL     hw  178   6.402   5.892   3.672  1.2314 -0.6078 -0.7805
   45SOL     hw  179   6.492   6.013   3.671 -0.0677  0.3789 -1.8693
   45SOL     vw  180   6.414   5.977   3.659  0.1814 -0.4830 -1.0198
   46SOL     ow  181   3.064   0.499   4.954  0.2191  0.2012 -0.2064
   46SOL     hw  182   3.137   0.500   4.892 -2.0981 -0.3262 -3.1728
   46SOL     hw  183   3.049   0.406   4.972 -1.3906  0.0798 -1.8879
   46SOL     vw  184   3.072   0.487   4.948 -0.2991  0.1156 -0.8197
   47SOL     ow  185   2.069   1.585   6.404  0.3111  0.4030 -0.0413
   47SOL     hw  186   2.138   1.586   6.470  0.1355  0.0304  0.1496
   47SOL     hw  187   2.114   1.597   6.321  0.3398  3.9402  0.3012
   47SOL     vw  188   2.084   1.587   6.402  0.2917  0.8205  0.0288
   48SOL     ow  189   6.243   2.254   6.451 -1.0767  0.2725 -0.3955
   48SOL     hw  190   6.284   2.167   6.449 -0.0803  0.7350 -1.1716
   48SOL     hw  191   6.191   2.254   6.531 -0.4423 -0.7551  0.0443
   48SOL     vw  192   6.242   2.242   6.461 -0.8614  0.1980 -0.4396
   49SOL     ow  193   4.439   7.104   4.908  0.4322 -0.7549  0.4465
   49SOL     hw  194   4.532   7.109   4.883  0.1869 -1.4375 -0.7091
   49SOL     hw  195   4.414   7.014   4.887 -0.5796 -0.4714  0.3898
   49SOL     vw  196   4.448   7.093   4.902  0.2666 -0.8078  0.2866
   50SOL     ow  197   1.615   3.707   5.559  0.0848  0.4275 -0.0194
   50SOL     hw  198   1.551   3.733   5.493  0.0717  1.6567  0.4530
   50SOL     hw  199   1.565   3.695   5.639 -0.1337 -2.4990 -0.4747
   50SOL     vw  200   1.600   3.709   5.561  0.0543  0.2035 -0.0174
   51SOL     ow  201   1.875   0.380   5.741  0.0960  0.0851  0.3116
   51SOL     hw  202   1.917   0.297   5.764  0.7467 -0.6139 -2.9351
   51SOL     hw  203   1.787   0.355   5.713  0.4142  0.4132 -1.0176
   51SOL     vw  204   1.869   0.366   5.741  0.2238  0.0362 -0.2921
   52SOL     ow  205   5.919   4.040   3.887  0.3698 -0.2357 -0.4556
   52SOL     hw  206   5.825   4.058   3.898  0.2070 -0.9404 -0.6444
   52SOL     hw  207   5.943   4.088   3.808  0.8724  2.4238  1.1941
   52SOL     vw  208   5.909   4.049   3.878  0.4144  0.0222 -0.2630
   53SOL     ow  209   4.061   3.786   4.138 -0.3759  0.1383 -0.3088
   53SOL     hw  210   4.133   3.791   4.201 -1.2230 -0.7451  0.7761
   53SOL     hw  211   4.097   3.739   4.063  1.1400  2.6553 -1.2711
   53SOL     vw  212   4.075   3.780   4.137 -0.2875  0.3538 -0.2928
   54SOL     ow  213   6.736   0.350   5.394  0.4883 -0.8170  0.4042
   54SOL     hw  214   6.713   0.419   5.456  0.7625  0.6294 -1.0219
   54SOL     hw  215   6.657   0.337   5.342  0.7811 -0.7397 -0.0717
   54SOL     vw  216   6.723   0.358   5.395  0.5629 -0.6160  0.1533
   55SOL     ow  217   4.581   0.111   3.730  0.9190  0.4079 -0.0472
   55SOL     hw  218   4.517   0.041   3.715 -0.9876  2.1992 -0.7884
   55SOL     hw  219   4.661   0.081   3.686  0.2335 -1.4031 -0.1163
   55SOL     vw  220   4.583   0.098   3.722  0.5770  0.4053 -0.1541
   56SOL     ow  221   0.389   3.021   0.574 -0.0424 -0.5103 -0.2835
   56SOL     hw  222   0.357   3.096   0.624  1.0674  0.6389 -1.2457
   56SOL     hw  223   0.480   3.010   0.603 -0.5876 -2.4620  0.9407
   56SOL     vw  224   0.397   3.029   0.585  0.0321 -0.6162 -0.2490
   57SOL     ow  225   4.818   1.824   5.882 -0.1796  0.1194  0.1364
   57SOL     hw  226   4.798   1.732   5.894 -0.6525  0.5023  3.1875
   57SOL     hw  227   4.753   1.870   5.936  1.7475  2.0187  1.0055
   57SOL     vw  228   4.807   1.818   5.891  0.0124  0.4206  0.6537
   58SOL     ow  229   6.703   2.929   2.712  0.0464  0.0816  0.1058
   58SOL     hw  230   6.777   2.986   2.732  0.3361  0.5174 -2.0080
   58SOL     hw  231   6.649   2.980   2.652  0.1709 -1.7185 -1.6502
   58SOL     vw  232   6.705   2.943   2.707  0.1011 -0.0985 -0.4048
   59SOL     ow  233   0.255   5.630   0.280 -0.3109 -0.2598 -0.2208
   59SOL     hw  234   0.183   5.567   0.273  0.5661 -1.3150  0.0563
   59SOL     hw  235   0.323   5.595   0.223  0.8611 -0.5223  1.2725
   59SOL     vw  236   0.254   5.617   0.271 -0.0405 -0.4339  0.0127
   60SOL     ow  237   6.533   5.849   6.296 -0.2272  0.4215 -0.1996
   60SOL     hw  238   6.532   5.911   6.222 -2.4008  0.5976 -0.0764
   60SOL     hw  239   6.477   5.777   6.267  2.1517 -1.5007 -0.2782
   60SOL     vw  240   6.525   5.848   6.282 -0.2003  0.1912 -0.1936
   61SOL     ow  241   6.342   0.215   6.320 -0.2264  0.1641  0.3267
   61SOL     hw  242   6.321   0.283   6.256  0.5295 -0.0703 -0.1918
   61SOL     hw  243   6.435   0.226   6.337 -0.5662  0.7239  2.0245
   61SOL     vw  244   6.351   0.225   6.314 -0.1712  0.2071  0.4823
   62SOL     ow  245   5.631   3.012   7.262 -0.4351  0.3601 -0.1181
   62SOL     hw  246   5.674   2.929   7.283  0.0550  0.9646  1.4327
   62SOL     hw  247   5.538   2.991   7.261 -0.2619 -0.4375 -0.9481
   62SOL     vw  248   5.624   2.998   7.265 -0.3476  0.3347 -0.0229
   63SOL     ow  249   5.994   2.319   5.630  0.3013 -0.2499  0.0484
   63SOL     hw  250   6.090   2.321   5.638  0.1690  0.9876  1.7054
   63SOL     hw  251   5.975   2.230   5.599  1.9711 -0.5806 -0.1266
   63SOL     vw  252   6.005   2.308   5.627  0.5043 -0.1303  0.2439
   64SOL     ow  253   1.870   7.044   3.339  0.1210 -0.0419  0.0221
   64SOL     hw  254   1.778   7.047   3.366  0.3168  2.4344  0.6575
   64SOL     hw  255   1.918   7.080   3.413  1.4303  0.2882 -0.9496
   64SOL     vw  256   1.864   7.049   3.352  0.3196  0.3283 -0.0224
   65SOL     ow  257   6.683   3.104   1.700  0.0702  0.0700  0.1957
   65SOL     hw  258   6.705   3.186   1.656  1.4132 -0.4754 -0.1974
   65SOL     hw  259   6.634   3.130   1.778 -0.7402  1.1534 -0.6370
   65SOL     vw  260   6.679   3.118   1.704  0.1404  0.1411  0.0340
   66SOL     ow  261   6.550   5.853   6.632  0.0235  0.1939 -0.7386
   66SOL     hw  262   6.513   5.934   6.667  0.2937  0.3680 -0.8498
   66SOL     hw  263   6.575   5.803   6.709  0.1180  0.3393 -0.6732
   66SOL     vw  264   6.548   5.857   6.647  0.0715  0.2360 -0.7448
   67SOL     ow  265   3.818   3.078   6.776 -0.6146 -0.3888 -0.1738
   67SOL     hw  266   3.796   3.167   6.800  1.4718  1.0153 -2.8613
   67SOL     hw  267   3.797   3.072   6.683 -1.0461 -2.8543  0.0063
   67SOL     vw  268   3.812   3.089   6.767 -0.3961 -0.5288 -0.5045
   68SOL     ow  269   2.708   7.319   5.703 -0.3202 -0.2526  0.5278
   68SOL     hw  270   2.735   7.410   5.708 -1.1508  0.0086  0.4633
   68SOL     hw  271   2.779   7.270   5.743  1.5629  0.1132 -2.0875
   68SOL     vw  272   2.721   7.325   5.709 -0.1813 -0.1700  0.1738
   69SOL     ow  273   1.320   6.226   2.489 -0.0702 -0.1612 -0.4198
   69SOL     hw  274   1.304   6.131   2.492 -4.1838  0.3703  0.4305
   69SOL     hw  275   1.237   6.263   2.460  1.2219  3.2627 -0.1472
   69SOL     vw  276   1.307   6.218   2.486 -0.4425  0.3607 -0.2717
   70SOL     ow  277   3.395   5.820   0.951  0.7593 -0.5604  0.3514
   70SOL     hw  278   3.392   5.799   1.045  2.1713 -1.7519  0.1664
   70SOL     hw  279   3.310   5.860   0.933  0.5220 -0.1488  2.1742
   70SOL     vw  280   3.383   5.822   0.961  0.9142 -0.6630  0.5675
   71SOL     ow  281   6.843   2.191   1.904  0.7843  0.1314 -0.4016
   71SOL     hw  282   6.857   2.164   1.995  1.7033 -1.0040 -0.8610
   71SOL     hw  283   6.924   2.170   1.859  0.0580 -0.0843 -1.6685
   71SOL     vw  284   6.855   2.185   1.910  0.8097 -0.0470 -0.6294
   72SOL     ow  285   2.421   6.053   2.960  0.3111  0.1906 -0.2692
   72SOL     hw  286   2.513   6.074   2.971 -0.0686  1.0484  1.7754
   72SOL     hw  287   2.377   6.097   3.033 -1.9476  1.2644 -2.1051
   72SOL     vw  288   2.427   6.061   2.971 -0.0371  0.4456 -0.2418
   73SOL     ow  289   7.337   4.742   4.380 -0.3540  0.5445 -0.2968
   73SOL     hw  290   7.348   4.764   4.473 -0.1061 -1.5796  0.2227
   73SOL     hw  291   7.248   4.708   4.374 -0.3259  0.5615 -0.8285
   73SOL     vw  292   7.327   4.741   4.392 -0.3176  0.2663 -0.2985
   74SOL     ow  293   5.024   5.984   4.441  0.1420 -0.6628  0.1702
   74SOL     hw  294   4.983   6.018   4.362 -1.8610  0.5105  1.6216
   74SOL     hw  295   5.071   5.906   4.412 -2.4877 -1.6690 -1.8103
   74SOL     vw  296   5.025   5.978   4.427 -0.4692 -0.6409  0.1004
   75SOL     ow  297   3.437   0.135   2.354 -0.2211 -0.1259 -0.0860
   75SOL     hw  298   3.375   0.093   2.414  1.0508 -0.8526  0.7622
   75SOL     hw  299   3.468   0.212   2.402  0.4615 -0.4560  0.0051
   75SOL     vw  300   3.433   0.140   2.369  0.0368 -0.2653  0.0378
   76SOL     ow  301   3.696   2.152   1.541  0.1740  0.0816 -0.3202
   76SOL     hw  302   3.619   2.197   1.574 -1.2505 -1.6868 -1.0845
   76SOL     hw  303   3.714   2.083   1.606  0.7635  0.1307 -0.4269
   76SOL     vw  304   3.688   2.149   1.554  0.0639 -0.1452 -0.4351
   77SOL     ow  305   3.590   3.109   2.399  0.5223 -1.1421  0.5391
   77SOL     hw  306   3.530   3.099   2.473 -0.0897  0.1130  0.2416
   77SOL     hw  307   3.549   3.060   2.328  0.5474 -1.4280  0.7200
   77SOL     vw  308   3.577   3.101   2.399  0.4449 -1.0142  0.5237
   78SOL     ow  309   2.071   1.147   4.034  0.0856  1.7083 -0.2449
   78SOL     hw  310   1.981   1.131   4.062  0.2803  1.2178  0.1097
   78SOL     hw  311   2.063   1.166   3.940 -0.1138 -1.4054 -0.9722
   78SOL     vw  312   2.058   1.147   4.025  0.0851  1.2327 -0.2940
   79SOL     ow  313   0.005   5.898   2.223  0.3803 -0.4948  0.1684
   79SOL     hw  314   0.092   5.927   2.249  0.7658  0.0643 -1.5634
   79SOL     hw  315  -0.034   5.864   2.303  2.8876 -2.5649  0.6525
   79SOL     vw  316   0.011   5.897   2.237  0.7620 -0.6940  0.0038
   80SOL     ow  317   0.501   3.888   4.010  0.4547  0.2656  0.8129
   80SOL     hw  318   0.565   3.828   4.047  0.2616  0.2411  1.1049
   80SOL     hw  319   0.499   3.962   4.070 -1.8308 -0.9474  2.3725
   80SOL     vw  320   0.510   3.890   4.023  0.1276  0.1024  1.0571
   81SOL     ow  321   0.303   5.311   1.819  0.1454 -0.1018  0.2780
   81SOL     hw  322   0.227   5.332   1.873 -0.5253 -0.0342 -0.6714
   81SOL     hw  323   0.316   5.217   1.831  0.6885  0.1066  1.4124
   81SOL     vw  324   0.295   5.301   1.828  0.1285 -0.0658  0.3024
   82SOL     ow  325   0.137   6.678   1.031 -0.0071 -0.0232  0.2707
   82SOL     hw  326   0.154   6.651   1.121 -0.4471  1.3800  0.8000
   82SOL     hw  327   0.194   6.622   0.978 -0.2545 -1.3547  1.3447
   82SOL     vw  328   0.146   6.667   1.036 -0.0978 -0.0138  0.4822
   83SOL     ow  329   1.782   4.184   6.993 -0.3927 -0.4453  0.4118
   83SOL     hw  330   1.820   4.148   6.913 -1.9373 -2.3858  0.4631
   83SOL     hw  331   1.750   4.271   6.968 -1.0450 -1.1016 -1.1519
   83SOL     vw  332   1.783   4.191   6.979 -0.6825 -0.7880  0.2122
   84SOL     ow  333   0.789   6.226   4.733  0.1781 -0.3055 -0.0308
   84SOL     hw  334   0.808   6.198   4.823 -0.1960  0.7074  0.3771
   84SOL     hw  335   0.816   6.318   4.731  3.5609 -1.1622 -1.9704
   84SOL     vw  336   0.795   6.235   4.745  0.5751 -0.2847 -0.2327
   85SOL     ow  337   7.181   2.661   6.821 -0.1641 -0.6100 -0.3608
   85SOL     hw  338   7.206   2.620   6.738  1.9138 -1.6799  0.6818
   85SOL     hw  339   7.240   2.736   6.830  0.3010 -1.0551  0.5341
   85SOL     vw  340   7.192   2.665   6.812  0.1714 -0.8099 -0.1051
   86SOL     ow  341   5.225   1.481   4.047  0.2273  0.1824  0.5174
   86SOL     hw  342   5.193   1.559   4.093  0.9281  0.8225 -0.0476
   86SOL     hw  343   5.145   1.435   4.020 -0.1984 -0.0271  2.0388
   86SOL     vw  344   5.210   1.485   4.049  0.2637  0.2392  0.6435
   87SOL     ow  345   0.438   1.670   5.714 -0.3796  0.5066 -0.2494
   87SOL     hw  346   0.366   1.608   5.720  0.3228 -0.2603  0.8361
   87SOL     hw  347   0.510   1.627   5.761  0.2877  1.9259  0.0797
   87SOL     vw  348   0.438   1.656   5.721 -0.1989  0.5926 -0.0629
   88SOL     ow  349   4.806   0.091   2.178 -0.0986  0.3854  0.4358
   88SOL     hw  350   4.887   0.125   2.215 -0.1719 -0.4313  1.3898
   88SOL     hw  351   4.834   0.041   2.101  0.3099  0.1576  0.7256
   88SOL     vw  352   4.820   0.089   2.172 -0.0544  0.2476  0.5999
   89SOL     ow  353   4.636   3.641   1.707 -0.4989  0.5076 -0.4618
   89SOL     hw  354   4.611   3.694   1.631 -2.8392 -0.8040 -0.6993
   89SOL     hw  355   4.617   3.551   1.680  0.7264 -0.1921  0.9231
   89SOL     vw  356   4.630   3.636   1.693 -0.6461  0.2424 -0.3105
   90SOL     ow  357   0.968   0.253   2.312  0.5880 -0.2465 -0.0575
   90SOL     hw  358   0.893   0.206   2.277  0.6617 -1.3017  1.1252
   90SOL     hw  359   0.935   0.341   2.330 -0.8322 -1.0834  1.7922
   90SOL     vw  360   0.954   0.259   2.310  0.4104 -0.4961  0.3425
   91SOL     ow  361   5.360   1.862   3.015 -0.3998  0.3308  0.2697
   91SOL     hw  362   5.351   1.850   2.920 -1.3050  0.3844  0.3328
   91SOL     hw  363   5.447   1.829   3.036  0.4169  1.7091 -0.7952
   91SOL     vw  364   5.370   1.856   3.005 -0.4117  0.5197  0.1376
   92SOL     ow  365   0.020   3.419   3.238 -0.2398 -0.0931  0.5263
   92SOL     hw  366   0.086   3.407   3.307 -1.2467  0.2171  1.5870
   92SOL     hw  367  -0.037   3.342   3.246 -0.9894  0.4732  0.7753
   92SOL     vw  368   0.021   3.407   3.248 -0.4715  0.0226  0.6993
   93SOL     ow  369   7.154   1.849   4.658  0.2416  0.0126 -0.5175
   93SOL     hw  370   7.187   1.938   4.666  2.2608 -0.7498  0.2937
   93SOL     hw  371   7.231   1.793   4.672 -0.8253 -1.8560 -1.6385
   93SOL     vw  372   7.169   1.853   4.661  0.3672 -0.3346 -0.5584
   94SOL     ow  373   5.413   1.009   3.074  0.1336  0.9599  0.0535
   94SOL     hw  374   5.458   1.017   2.990 -0.2245  0.5763 -0.1748
   94SOL     hw  375   5.451   0.931   3.115 -1.4894 -0.3585 -0.8699
   94SOL     vw  376   5.424   1.000   3.068 -0.1278  0.7354 -0.0985
   95SOL     ow  377   6.081   3.834   4.109  0.2732 -0.0636  0.9994
   95SOL     hw  378   6.137   3.770   4.065 -2.7137 -1.6750 -0.8206
   95SOL     hw  379   6.072   3.802   4.198  2.1442  0.2384  1.3345
   95SOL     vw  380   6.088   3.821   4.115  0.1259 -0.2363  0.8035
   96SOL     ow  381   6.412   6.984   6.423  0.3421 -0.4055  0.2128
   96SOL     hw  382   6.505   7.005   6.410  0.5127  0.0597  1.9659
   96SOL     hw  383   6.384   7.043   6.492 -0.9414 -1.4085  0.5767
   96SOL     vw  384   6.421   6.994   6.431  0.1953 -0.4764  0.4921
   97SOL     ow  385   5.552   0.258   5.158 -0.4786 -0.3254 -0.8023
   97SOL     hw  386   5.534   0.265   5.251 -1.1156  0.9816 -1.0111
   97SOL     hw  387   5.528   0.343   5.122 -3.3768 -1.7530 -2.6683
   97SOL     vw  388   5.546   0.270   5.165 -0.9451 -0.3413 -1.0757
   98SOL     ow  389   4.200   2.154   6.243 -0.3404  0.4355 -0.2083
   98SOL     hw  390   4.245   2.232   6.211 -2.7545  1.7237 -0.7359
   98SOL     hw  391   4.173   2.108   6.163  1.2456 -1.1276  0.0960
   98SOL     vw  392   4.202   2.159   6.228 -0.4497  0.3992 -0.2379
   99SOL     ow  393   6.259   6.604   6.026  0.2029  0.5894  0.2760
   99SOL     hw  394   6.352   6.598   6.001 -0.1442 -0.6614 -0.8562
   99SOL     hw  395   6.234   6.514   6.047 -0.6925  0.9527  0.8065
   99SOL     vw  396   6.268   6.592   6.025  0.0391  0.4723  0.1969
  100SOL     ow  397   7.018   2.418   3.311 -0.5934 -0.7784 -0.2815
  100SOL     hw  398   7.039   2.501   3.355 -2.0342 -0.3638 -0.3234
  100SOL     hw  399   7.103   2.383   3.285  0.0253  1.1001 -0.9985
  100SOL     vw  400   7.032   2.424   3.314 -0.7019 -0.4758 -0.3816
  101SOL     ow  401   4.136   7.160   0.840 -0.4823 -0.5678  0.0472
  101SOL     hw  402   4.208   7.104   0.813  1.6591  2.0078 -0.0418
  101SOL     hw  403   4.082   7.169   0.761  0.4761 -0.6215 -0.6377
  101SOL     vw  404   4.138   7.154   0.826 -0.0734 -0.2351 -0.0549
  102SOL     ow  405   7.004   2.282   3.772 -0.8079 -0.0009 -0.2843
  102SOL     hw  406   7.066   2.210   3.777  0.8522  1.3938  0.3440
  102SOL     hw  407   6.981   2.300   3.863  2.3635  3.0742  0.1346
  102SOL     vw  408   7.009   2.275   3.784 -0.1702  0.5890 -0.1463
  103SOL     ow  409   2.885   5.141   5.133 -0.0554  0.4137 -0.0698
  103SOL     hw  410   2.981   5.142   5.142  0.2730  0.6773 -2.6850
  103SOL     hw  411   2.856   5.219   5.179  1.1556  1.1456 -0.4938
  103SOL     vw  412   2.894   5.151   5.140  0.1477  0.5450 -0.4709
  104SOL     ow  413   5.209   2.041   5.378 -0.2152 -0.3463  0.0511
  104SOL     hw  414   5.148   2.102   5.419  0.0374 -1.2946  1.9218
  104SOL     hw  415   5.185   1.955   5.411  0.1189 -1.1780 -1.7137
  104SOL     vw  416   5.198   2.038   5.387 -0.1380 -0.5813  0.0653
  105SOL     ow  417   7.195   6.769   6.642 -0.1015  0.1243  0.3206
  105SOL     hw  418   7.199   6.864   6.640  0.3996  0.1272  1.1238
  105SOL     hw  419   7.252   6.740   6.571  1.2912  0.4057  1.2929
  105SOL     vw  420   7.203   6.777   6.632  0.1485  0.1619  0.5546
  106SOL     ow  421   4.237   1.909   5.398 -0.2740 -0.1576  0.0636
  106SOL     hw  422   4.176   1.868   5.460 -0.3293 -0.7774 -0.3994
  106SOL     hw  423   4.183   1.930   5.322  0.3052 -1.8937 -0.8901
  106SOL     vw  424   4.222   1.906   5.396 -0.2050 -0.4684 -0.1233
  107SOL     ow  425   6.505   4.869   4.101  0.0969  0.1973  0.1185
  107SOL     hw  426   6.573   4.891   4.164 -1.3119 -1.7101  2.5251
  107SOL     hw  427   6.534   4.785   4.063 -0.5141 -0.2313  0.5810
  107SOL     vw  428   6.518   4.861   4.104 -0.1698 -0.1106  0.4971
  108SOL     ow  429   0.613   0.065   4.596  0.7694 -0.0739 -0.4460
  108SOL     hw  430   0.703   0.047   4.621 -0.2435 -1.4370  2.7081
  108SOL     hw  431   0.600   0.158   4.616  1.0678 -0.2520  0.6068
  108SOL     vw  432   0.623   0.075   4.602  0.6751 -0.2773  0.1090
  109SOL     ow  433   0.001   4.380   2.239 -0.9312 -0.4806  0.1088
  109SOL     hw  434   0.042   4.365   2.324 -4.3128  0.3144  2.0708
  109SOL     hw  435   0.035   4.464   2.210  1.7520 -1.6566 -0.3798
  109SOL     vw  436   0.011   4.389   2.246 -1.0233 -0.5310  0.3033
  110SOL     ow  437   6.884   3.731   4.506 -0.1911 -0.1094 -0.0650
  110SOL     hw  438   6.864   3.813   4.550 -1.0056  1.3879 -3.0173
  110SOL     hw  439   6.805   3.710   4.456 -0.2952 -3.1518  1.1675
  110SOL     vw  440   6.871   3.739   4.505 -0.3123 -0.3134 -0.2921
  111SOL     ow  441   7.072   2.435   7.100 -0.3940 -0.4850  0.0588
  111SOL     hw  442   7.103   2.347   7.076  0.1498 -0.9116  2.0888
  111SOL     hw  443   7.072   2.434   7.196  0.2160  1.9466  0.1325
  111SOL     vw  444   7.076   2.423   7.110 -0.2418 -0.2204  0.3364
  112SOL     ow  445   2.354   0.519   5.474  0.1444 -0.0516 -0.1985
  112SOL     hw  446   2.435   0.500   5.520  0.7271  0.5738 -0.9220
  112SOL     hw  447   2.359   0.466   5.394 -0.6906 -0.8708  0.2882
  112SOL     vw  448   2.366   0.510   5.469  0.1111 -0.0772 -0.2296
  113SOL     ow  449   7.101   0.978   6.358 -0.4036 -0.4877 -0.3861
  113SOL     hw  450   7.017   0.944   6.388 -1.2931  0.3952 -1.8138
  113SOL     hw  451   7.085   1.010   6.269  0.4955  3.0784  0.5759
  113SOL     vw  452   7.088   0.977   6.350 -0.4022  0.0993 -0.4475
  114SOL     ow  453   0.756   2.099   7.213 -1.5207 -0.6276 -0.1037
  114SOL     hw  454   0.709   2.055   7.284 -1.3546  2.5187  2.1711
  114SOL     hw  455   0.845   2.065   7.218 -1.6334 -0.7954  0.8917
  114SOL     vw  456   0.761   2.089   7.223 -1.5136 -0.2346  0.3278
  115SOL     ow  457   2.591   6.401   3.630  0.3607 -0.3178  0.0256
  115SOL     hw  458   2.620   6.321   3.674 -0.3368  1.1086  3.4040
  115SOL     hw  459   2.659   6.419   3.565  0.6367 -3.4747 -0.7017
  115SOL     vw  460   2.604   6.393   3.627  0.3051 -0.5462  0.3754
  116SOL     ow  461   6.588   2.070   3.870 -0.4591  0.1477 -0.5344
  116SOL     hw  462   6.629   2.014   3.804  0.6689 -2.0768  1.8560
  116SOL     hw  463   6.500   2.034   3.880 -0.4565  0.1538 -0.4906
  116SOL     vw  464   6.582   2.058   3.863 -0.3097 -0.1450 -0.2133
  117SOL     ow  465   4.532   5.497   5.492 -0.4342 -0.2479  0.1703
  117SOL     hw  466   4.605   5.559   5.490 -1.7347  1.4844  1.9851
  117SOL     hw  467   4.514   5.478   5.400 -0.7507  3.1033 -0.5920
  117SOL     vw  468   4.539   5.503   5.480 -0.6475  0.4227  0.3092
  118SOL     ow  469   4.774   0.077   6.752  0.3192  0.3438 -0.2077
  118SOL     hw  470   4.782   0.074   6.656  0.4570  1.9557 -0.2762
  118SOL     hw  471   4.863   0.060   6.783  0.8463  2.3243 -0.4808
  118SOL     vw  472   4.787   0.074   6.743  0.4067  0.8178 -0.2530
  119SOL     ow  473   2.352   7.128   3.119  0.3027  0.1823 -0.5764
  119SOL     hw  474   2.387   7.039   3.116  2.2571  0.8962 -0.3496
  119SOL     hw  475   2.258   7.117   3.108  0.6266 -1.8174 -1.9675
  119SOL     vw  476   2.344   7.114   3.117  0.6032  0.0124 -0.7300
  120SOL     ow  477   0.039   6.495   4.164 -0.0592 -1.1903  0.0761
  120SOL     hw  478   0.115   6.539   4.203  0.2926  0.6094 -2.4130
  120SOL     hw  479  -0.033   6.515   4.224  0.6420  0.5447  0.4196
  120SOL     vw  480   0.040   6.503   4.177  0.0799 -0.7238 -0.2072
  121SOL     ow  481   3.308   7.002   1.063  0.0995  0.0064  0.3401
  121SOL     hw  482   3.337   7.053   0.987 -1.9368  0.5036 -0.1611
  121SOL     hw  483   3.354   7.041   1.137  1.0116  0.4562 -0.4329
  121SOL     vw  484   3.318   7.014   1.063 -0.0488  0.1314  0.1720
  122SOL     ow  485   6.591   2.766   3.407  0.0155  0.6772  0.4412
  122SOL     hw  486   6.686   2.759   3.417 -0.0635  0.3849  1.0074
  122SOL     hw  487   6.572   2.858   3.428  0.1595  0.7098  0.4355
  122SOL     vw  488   6.601   2.777   3.411  0.0238  0.6429  0.5151
  123SOL     ow  489   4.178   0.056   3.733 -0.1951 -0.4074  0.2821
  123SOL     hw  490   4.143   0.112   3.802 -2.8956 -1.6381  0.0525
  123SOL     hw  491   4.197  -0.027   3.777  0.9424 -0.2750  0.0692
  123SOL     vw  492   4.176   0.052   3.748 -0.4013 -0.5523  0.2235
  124SOL     ow  493   1.369   7.348   2.771 -0.0894 -0.2549  0.7059
  124SOL     hw  494   1.399   7.287   2.838  3.6624  0.9869  0.3922
  124SOL     hw  495   1.430   7.336   2.698 -1.3619  1.4773 -0.7325
  124SOL     vw  496   1.381   7.338   2.770  0.2376  0.1375  0.4748
  125SOL     ow  497   2.559   3.640   3.855 -0.2111  0.1894 -0.4054
  125SOL     hw  498   2.582   3.733   3.851 -1.2697  0.4649 -0.4738
  125SOL     hw  499   2.643   3.594   3.846  0.3881  1.1349  0.1613
  125SOL     vw  500   2.573   3.647   3.853 -0.2718  0.3506 -0.3396
  126SOL     ow  501   6.864   7.202   3.762 -0.3203 -0.4519  0.4008
  126SOL     hw  502   6.889   7.231   3.674 -4.4261 -1.2262 -1.2475
  126SOL     hw  503   6.869   7.280   3.816 -3.0183  1.5215 -1.9409
  126SOL     vw  504   6.868   7.216   3.758 -1.2178 -0.2935 -0.1256
  127SOL     ow  505   6.618   4.277   5.821 -0.3841 -0.2532 -1.1459
  127SOL     hw  506   6.645   4.202   5.873 -1.3515 -0.8010 -1.3948
  127SOL     hw  507   6.624   4.351   5.881 -0.0995 -0.6459 -0.6825
  127SOL     vw  508   6.622   4.277   5.836 -0.4740 -0.3772 -1.1172
  128SOL     ow  509   5.998   5.526   6.479 -0.5375 -0.0943  0.8162
  128SOL     hw  510   5.978   5.580   6.403  3.3452  1.2862  0.5459
  128SOL     hw  511   5.956   5.571   6.553 -3.8168 -1.1137 -0.2324
  128SOL     vw  512   5.990   5.539   6.479 -0.4578 -0.0467  0.6423
  129SOL     ow  513   0.773   6.909   0.249  0.2392  0.1629 -0.3067
  129SOL     hw  514   0.679   6.914   0.264  0.0374 -0.0631 -1.3750
  129SOL     hw  515   0.810   6.981   0.300 -0.6852  1.2466 -1.1169
  129SOL     vw  516   0.766   6.919   0.257  0.0906  0.2759 -0.5546
  130SOL     ow  517   2.852   6.772   3.068  0.3158 -0.2999 -0.0263
  130SOL     hw  518   2.810   6.767   2.982 -2.0815  2.3941  0.7981
  130SOL     hw  519   2.879   6.864   3.076 -0.3997 -0.2302  2.4104
  130SOL     vw  520   2.850   6.784   3.057 -0.0949  0.0648  0.4041
  131SOL     ow  521   1.897   1.456   0.566 -0.4407  0.4340  0.4521
  131SOL     hw  522   1.884   1.410   0.648 -2.5109 -0.6343 -0.3908
  131SOL     hw  523   1.834   1.416   0.506 -0.6412  2.7588 -1.0032
  131SOL     vw  524   1.887   1.445   0.569 -0.7402  0.5999  0.1489
  132SOL     ow  525   7.068   0.152   6.418  0.7954 -0.3204  0.2201
  132SOL     hw  526   7.115   0.069   6.416  0.9659 -0.2108 -0.9087
  132SOL     hw  527   7.083   0.191   6.332  1.7035  1.4390  1.1177
  132SOL     vw  528   7.076   0.146   6.406  0.9377 -0.0738  0.1895
  133SOL     ow  529   0.768   6.023   0.116  0.0180 -0.1181  0.4034
  133SOL     hw  530   0.824   6.083   0.067 -0.8782  1.1706  0.9242
  133SOL     hw  531   0.746   6.069   0.196 -1.0330 -0.9657  0.6381
  133SOL     vw  532   0.772   6.037   0.120 -0.2390 -0.0601  0.5031
  134SOL     ow  533   2.325   0.499   5.859  0.3579 -0.0163  0.0049
  134SOL     hw  534   2.325   0.457   5.945  2.4231 -0.5704 -0.2217
  134SOL     hw  535   2.376   0.580   5.872  1.3429 -0.4751 -0.8295
  134SOL     vw  536   2.332   0.504   5.872  0.7603 -0.1499 -0.1352
  135SOL     ow  537   5.257   4.361   5.284  0.6601  0.2956 -0.1682
  135SOL     hw  538   5.232   4.289   5.342  0.5678  0.1535 -0.3834
  135SOL     hw  539   5.257   4.438   5.341  2.8789 -0.1796  0.5724
  135SOL     vw  540   5.254   4.362   5.299  0.9408  0.2141 -0.0987
  136SOL     ow  541   7.201   5.133   6.568 -0.1457  0.2021 -0.3044
  136SOL     hw  542   7.131   5.170   6.622  1.1443  0.7595  1.0485
  136SOL     hw  543   7.243   5.069   6.624  0.3601 -0.2192 -1.1465
  136SOL     vw  544   7.197   5.130   6.583  0.0913  0.2201 -0.2370
  137SOL     ow  545   6.360   6.154   1.111  0.2755 -0.3424  0.0043
  137SOL     hw  546   6.286   6.103   1.142 -0.3548  1.2027  1.1558
  137SOL     hw  547   6.436   6.113   1.153  0.1488 -1.9113 -1.1617
  137SOL     vw  548   6.361   6.142   1.120  0.1757 -0.3455  0.0024
  138SOL     ow  549   0.068   1.665   0.043  0.0803  0.2056 -0.1692
  138SOL     hw  550  -0.022   1.680   0.014  1.0565  1.6845 -2.7680
  138SOL     hw  551   0.096   1.586  -0.004  0.4187  0.2728 -0.0874
  138SOL     vw  552   0.060   1.656   0.033  0.2537  0.4096 -0.5014
  139SOL     ow  553   6.087   4.002   2.887 -0.6542 -0.0283 -0.3839
  139SOL     hw  554   6.103   3.910   2.869 -2.4533 -1.1788  3.0119
  139SOL     hw  555   6.038   4.034   2.811  0.3803 -1.6834 -1.8125
  139SOL     vw  556   6.083   3.994   2.875 -0.7553 -0.3984 -0.1242
  140SOL     ow  557   1.393   4.636   5.125  0.6706  0.3352  0.4204
  140SOL     hw  558   1.424   4.606   5.211 -0.2457  0.6946  0.8900
  140SOL     hw  559   1.298   4.633   5.132  0.5732 -0.5152 -0.9075
  140SOL     vw  560   1.385   4.632   5.137  0.5369  0.2704  0.3071
  141SOL     ow  561   3.761   2.355   0.487 -0.3212 -0.1401 -0.0346
  141SOL     hw  562   3.790   2.434   0.533 -1.4701 -1.3799  3.1186
  141SOL     hw  563   3.692   2.385   0.429 -0.3981  1.2804  0.7380
  141SOL     vw  564   3.756   2.369   0.486 -0.4830 -0.1162  0.4833
  142SOL     ow  565   2.537   6.315   1.635  0.1063 -0.1680 -0.3627
  142SOL     hw  566   2.479   6.284   1.565 -0.8708 -1.3412  0.9084
  142SOL     hw  567   2.600   6.244   1.646  0.0216 -0.1587  0.1857
  142SOL     vw  568   2.537   6.302   1.627 -0.0337 -0.3214 -0.1226
  143SOL     ow  569   6.968   3.010   0.862 -0.5381  0.1951  0.1132
  143SOL     hw  570   7.053   3.022   0.820  0.5389  0.7669  2.3349
  143SOL     hw  571   6.927   3.096   0.857  0.6733  0.9901  2.3485
  143SOL     vw  572   6.974   3.023   0.856 -0.2363  0.3754  0.7012
  144SOL     ow  573   2.710   7.256   2.027 -0.7673  0.3241 -0.4220
  144SOL     hw  574   2.743   7.173   2.062 -1.2727  0.8174  1.3443
  144SOL     hw  575   2.722   7.318   2.099 -1.5270  1.5033 -1.2880
  144SOL     vw  576   2.716   7.253   2.041 -0.9342  0.5445 -0.3031
  145SOL     ow  577   5.849   2.312   2.027 -0.1387  0.4695 -0.5530
  145SOL     hw  578   5.823   2.350   2.111 -1.7355  0.1929 -0.8871
  145SOL     hw  579   5.882   2.387   1.977  1.5580  0.5108  0.5494
  145SOL     vw  580   5.850   2.327   2.031 -0.1254  0.4385 -0.4516
  146SOL     ow  581   5.139   6.389   4.776  0.7810 -0.5300  0.0650
  146SOL     hw  582   5.185   6.327   4.719  0.4055 -0.2924 -0.5099
  146SOL     hw  583   5.085   6.440   4.716 -0.4445 -0.9891  0.7395
  146SOL     vw  584   5.138   6.387   4.761  0.5698 -0.5591  0.0780
  147SOL     ow  585   0.101   5.718   3.002 -0.2066 -0.0765  0.3699
  147SOL     hw  586   0.011   5.693   3.022 -1.1425  0.5236 -2.6005
  147SOL     hw  587   0.098   5.747   2.911  2.4442  2.7091  1.0199
  147SOL     vw  588   0.089   5.718   2.993  0.0196  0.3700  0.0639
  148SOL     ow  589   0.197   2.394   2.577 -0.2166  0.0294  0.0174
  148SOL     hw  590   0.237   2.461   2.521  0.1189 -0.6354 -0.5549
  148SOL     hw  591   0.232   2.413   2.664  0.6632  0.0087 -0.3147
  148SOL     vw  592   0.207   2.405   2.581 -0.0562 -0.0610 -0.1018
  149SOL     ow  593   4.681   5.619   5.970  0.4375  0.6341 -0.1672
  149SOL     hw  594   4.703   5.710   5.990  2.7700 -0.2503  1.6579
  149SOL     hw  595   4.763   5.572   5.977 -1.0286 -1.9574  0.9823
  149SOL     vw  596   4.695   5.625   5.974  0.5517  0.1755  0.2253
  150SOL     ow  597   0.021   1.147   4.433  1.0466  0.1485  0.2451
  150SOL     hw  598   0.009   1.065   4.385  2.0065  0.5973 -0.8339
  150SOL     hw  599   0.016   1.123   4.525  0.4483 -0.9707 -0.0723
  150SOL     vw  600   0.019   1.133   4.439  1.0946  0.0600  0.0608
  151SOL     ow  601   1.867   1.453   2.172 -0.5411 -0.1143  0.3319
  151SOL     hw  602   1.780   1.484   2.196  0.4106  1.9090  1.5258
  151SOL     hw  603   1.923   1.480   2.245  1.3894  0.3374 -1.2095
  151SOL     vw  604   1.863   1.461   2.184 -0.1608  0.2122  0.2861
  152SOL     ow  605   1.894   3.510   2.512 -0.0829 -0.1995 -0.3793
  152SOL     hw  606   1.975   3.544   2.550  1.8948  1.1247 -5.0115
  152SOL     hw  607   1.923   3.446   2.447 -3.0635 -2.0316 -0.0900
  152SOL     vw  608   1.909   3.506   2.508 -0.2152 -0.2666 -0.9521
  153SOL     ow  609   1.806   6.486   1.030 -0.0055 -0.1376  0.3299
  153SOL     hw  610   1.810   6.545   1.106 -2.8979  1.0923 -0.3429
  153SOL     hw  611   1.742   6.419   1.055 -2.3200  1.2395 -1.4969
  153SOL     vw  612   1.798   6.485   1.043 -0.6924  0.2065  0.0001
  154SOL     ow  613   7.190   0.989   5.505  0.2813 -0.6500 -0.3045
  154SOL     hw  614   7.244   0.994   5.426  0.7536 -0.5211  0.0187
  154SOL     hw  615   7.253   0.998   5.577  0.0867 -2.3665  0.1260
  154SOL     vw  616   7.206   0.990   5.504  0.3181 -0.8595 -0.2053
  155SOL     ow  617   3.408   3.452   7.230  0.4162 -0.0598  0.0512
  155SOL     hw  618   3.349   3.523   7.205  1.6102  0.0420 -2.9289
  155SOL     hw  619   3.495   3.485   7.206  1.2254 -1.7406  0.5756
  155SOL     vw  620   3.412   3.466   7.224  0.6806 -0.2681 -0.2730
  156SOL     ow  621   0.931   4.021   5.086 -0.2390 -0.2677  0.4666
  156SOL     hw  622   1.003   4.000   5.026 -0.7953 -0.6728 -0.0694
  156SOL     hw  623   0.906   4.110   5.064  0.6604  0.2042  1.2475
  156SOL     vw  624   0.937   4.030   5.076 -0.1937 -0.2589  0.4990
  157SOL     ow  625   4.237   0.423   3.150  0.2658  0.0243  0.4088
  157SOL     hw  626   4.173   0.437   3.081  2.5391 -1.9588 -2.3388
  157SOL     hw  627   4.198   0.356   3.206  0.1107 -1.7485 -1.6698
  157SOL     vw  628   4.224   0.416   3.148  0.5453 -0.4713 -0.2280
  158SOL     ow  629   7.016   1.411   5.162 -0.3072 -0.4648 -0.3536
  158SOL     hw  630   7.102   1.444   5.137 -0.6962  0.7585 -0.1548
  158SOL     hw  631   7.032   1.320   5.189  1.7235  0.8314  3.6427
  158SOL     vw  632   7.029   1.403   5.162 -0.0906 -0.1324  0.2000
  159SOL     ow  633   7.233   4.708   6.526  0.0410  0.1372  0.0711
  159SOL     hw  634   7.324   4.680   6.517 -0.4073 -1.0933 -1.0361
  159SOL     hw  635   7.200   4.709   6.436 -1.3378 -0.5087  0.5522
  159SOL     vw  636   7.241   4.705   6.513 -0.1998 -0.1104 -0.0114
  160SOL     ow  637   4.907   0.917   1.585 -0.3262 -0.1374 -0.0309
  160SOL     hw  638   4.963   0.918   1.508 -0.6623 -0.5195 -0.2836
  160SOL     hw  639   4.836   0.977   1.563 -0.0692  0.2739  0.2516
  160SOL     vw  640   4.905   0.925   1.572 -0.3364 -0.1335 -0.0269
  161SOL     ow  641   0.239   1.917   0.262  0.2788  0.5459  0.1133
  161SOL     hw  642   0.164   1.886   0.313  0.8085 -1.1612 -0.0642
  161SOL     hw  643   0.227   1.879   0.175  1.7603 -0.5098  0.3249
  161SOL     vw  644   0.227   1.908   0.258  0.5441  0.1814  0.1178
  162SOL     ow  645   0.045   4.822   1.219 -0.1855  0.3333  0.7011
  162SOL     hw  646   0.057   4.912   1.189  0.6200  0.6372  1.8765
  162SOL     hw  647   0.011   4.776   1.142 -0.3177  1.5615 -0.0091
  162SOL     vw  648   0.042   4.828   1.205 -0.0963  0.5355  0.7625
  163SOL     ow  649   3.939   6.422   3.954 -0.8906  0.7492  0.1793
  163SOL     hw  650   3.918   6.398   3.864 -0.0291  0.9037 -0.0692
  163SOL     hw  651   3.947   6.338   4.000 -0.4186  0.6431 -0.0982
  163SOL     vw  652   3.937   6.408   3.948 -0.7147  0.7558  0.1100
  164SOL     ow  653   5.902   1.074   4.755 -0.2085  0.0320 -0.4371
  164SOL     hw  654   5.819   1.027   4.753 -0.0206 -0.2902 -0.7693
  164SOL     hw  655   5.968   1.007   4.775  0.0796  0.1126 -1.0722
  164SOL     vw  656   5.900   1.059   4.757 -0.1457  0.0002 -0.5648
  165SOL     ow  657   4.078   2.572   5.844 -0.1464 -0.2366  0.0510
  165SOL     hw  658   4.160   2.524   5.835 -0.6716 -1.1788  0.1621
  165SOL     hw  659   4.025   2.519   5.903 -0.8366  0.3597 -0.0136
  165SOL     vw  660   4.082   2.559   5.851 -0.3066 -0.2822  0.0567
  166SOL     ow  661   2.720   5.149   1.212 -0.1346  0.4687  0.0976
  166SOL     hw  662   2.798   5.173   1.162  0.3701  0.3689  0.8148
  166SOL     hw  663   2.657   5.121   1.146  0.6084  0.0737 -0.4681
  166SOL     vw  664   2.722   5.148   1.197  0.0302  0.4034  0.1176
  167SOL     ow  665   6.151   4.554   5.756  0.1756  0.1808  0.2537
  167SOL     hw  666   6.244   4.539   5.773  0.5906  2.3698  0.2860
  167SOL     hw  667   6.106   4.519   5.833  1.0192 -0.3444  0.5183
  167SOL     vw  668   6.157   4.548   5.768  0.3419  0.4001  0.2928
  168SOL     ow  669   5.932   3.588   0.245 -0.2629 -0.4562  0.5985
  168SOL     hw  670   5.865   3.531   0.207 -0.4376 -0.7797  1.3754
  168SOL     hw  671   6.003   3.586   0.181 -0.6190 -0.8523  0.2041
  168SOL     vw  672   5.933   3.580   0.232 -0.3331 -0.5512  0.6490
  169SOL     ow  673   6.768   4.498   6.834 -0.5767 -0.1591 -0.2447
  169SOL     hw  674   6.710   4.440   6.883  0.2542 -1.6190 -0.9331
  169SOL     hw  675   6.737   4.494   6.744  1.5942 -2.4477 -1.0198
  169SOL     vw  676   6.757   4.490   6.829 -0.1807 -0.6535 -0.4380
  170SOL     ow  677   1.398   0.308   1.494 -0.6951  0.0429  0.5622
  170SOL     hw  678   1.473   0.281   1.546 -0.7317  0.7143  0.9798
  170SOL     hw  679   1.328   0.247   1.518 -0.2528 -0.6816  0.0564
  170SOL     vw  680   1.398   0.297   1.504 -0.6416  0.0359  0.5506
  171SOL     ow  681   2.849   3.208   6.922  0.2151 -0.7611  1.1123
  171SOL     hw  682   2.915   3.274   6.900 -1.9960  1.0941 -0.2879
  171SOL     hw  683   2.827   3.225   7.013  1.8221 -1.6079  1.6990
  171SOL     vw  684   2.855   3.219   6.931  0.1354 -0.6280  1.0047
  172SOL     ow  685   5.572   0.605   5.735  0.4286  0.3078  0.2390
  172SOL     hw  686   5.574   0.509   5.738 -2.8466  0.1094 -0.5374
  172SOL     hw  687   5.603   0.627   5.647  0.5201 -0.0683  0.1759
  172SOL     vw  688   5.577   0.595   5.724  0.0083  0.2320  0.1283
  173SOL     ow  689   1.414   6.502   3.478  0.2331  0.4125  0.7247
  173SOL     hw  690   1.471   6.430   3.505  0.1614 -0.6526 -1.6982
  173SOL     hw  691   1.327   6.476   3.508 -0.0285 -1.2661 -1.2462
  173SOL     vw  692   1.410   6.489   3.485  0.1891  0.0505  0.1450
  174SOL     ow  693   5.991   0.309   5.768  0.3472  0.1867  0.0625
  174SOL     hw  694   6.025   0.390   5.732 -1.7113  1.1540  0.1293
  174SOL     hw  695   5.922   0.283   5.707 -0.2906 -0.4669  1.0329
  174SOL     vw  696   5.986   0.316   5.756 -0.0086  0.2281  0.1993
  175SOL     ow  697   6.138   0.939   0.216 -0.2002 -0.1766 -0.0849
  175SOL     hw  698   6.149   0.963   0.308 -0.2998  0.9294 -0.3381
  175SOL     hw  699   6.223   0.903   0.191 -0.7106 -2.2181  0.8833
  175SOL     vw  700   6.151   0.938   0.225 -0.2809 -0.3000  0.0094
  176SOL     ow  701   6.369   1.037   0.869  0.4638  0.3653 -0.1787
  176SOL     hw  702   6.397   1.120   0.830  1.7251  1.0619  2.0367
  176SOL     hw  703   6.396   0.971   0.805  3.5431  1.3566 -0.0923
  176SOL     vw  704   6.376   1.039   0.855  1.0364  0.5880  0.1250
  177SOL     ow  705   4.719   0.725   3.232  0.7602  0.2549  0.6844
  177SOL     hw  706   4.721   0.814   3.196  1.1274  0.0153  0.0954
  177SOL     hw  707   4.771   0.673   3.170 -2.6622 -1.2053 -1.2416
  177SOL     vw  708   4.726   0.730   3.219  0.3569  0.0306  0.3526
  178SOL     ow  709   6.526   3.748   1.372  1.2655 -0.0087  0.4101
  178SOL     hw  710   6.611   3.710   1.393  1.8599  1.1119  0.0563
  178SOL     hw  711   6.463   3.694   1.421  2.2863  0.0433  1.8003
  178SOL     vw  712   6.529   3.736   1.381  1.4784  0.1462  0.5469
  179SOL     ow  713   4.673   6.692   6.274 -0.7474 -0.4995  0.1822
  179SOL     hw  714   4.655   6.686   6.368 -5.1720 -2.5032 -0.5292
  179SOL     hw  715   4.649   6.781   6.250 -1.2303 -0.4806  0.7225
  179SOL     vw  716   4.668   6.703   6.283 -1.3947 -0.7613  0.1595
  180SOL     ow  717   5.633   5.450   3.772 -0.1050 -0.2887 -0.3310
  180SOL     hw  718   5.571   5.521   3.791  0.3997  0.7548 -2.3560
  180SOL     hw  719   5.617   5.386   3.841  0.6987  2.5625  2.7600
  180SOL     vw  720   5.623   5.451   3.784  0.0677  0.2251 -0.1904
  181SOL     ow  721   3.608   5.066   0.742  0.0630 -0.7063  0.0478
  181SOL     hw  722   3.591   4.990   0.798 -3.2103 -0.5892 -0.6035
  181SOL     hw  723   3.665   5.123   0.795 -2.9913 -0.4865  3.4656
  181SOL     vw  724   3.613   5.064   0.757 -0.7719 -0.6621  0.4128
  182SOL     ow  725   7.137   0.459   5.640 -0.0548 -0.5277  0.0750
  182SOL     hw  726   7.098   0.461   5.728 -0.5271  1.0084 -0.1353
  182SOL     hw  727   7.151   0.551   5.618  2.8780 -0.9689 -0.2595
  182SOL     vw  728   7.133   0.472   5.649  0.2701 -0.3832  0.0031
  183SOL     ow  729   6.422   6.717   6.339 -0.5255 -0.1270 -0.1935
  183SOL     hw  730   6.433   6.809   6.364 -0.4998 -0.1539 -0.1063
  183SOL     hw  731   6.328   6.709   6.322 -1.0071 -0.7035  2.3126
  183SOL     vw  732   6.411   6.728   6.340 -0.5858 -0.2067  0.1485
  184SOL     ow  733   6.273   6.649   0.942  0.1086  0.1669  0.8610
  184SOL     hw  734   6.292   6.733   0.984 -2.1673  0.8001  0.7599
  184SOL     hw  735   6.205   6.610   0.997  2.1969 -2.4246  1.8206
  184SOL     vw  736   6.267   6.655   0.955  0.0834 -0.0916  0.9742
  185SOL     ow  737   5.632   4.985   4.718 -0.5118 -0.1972  0.0007
  185SOL     hw  738   5.665   5.066   4.678  0.5172  0.1184  1.4243
  185SOL     hw  739   5.636   4.920   4.648  0.8287  0.4426 -0.5528
  185SOL     vw  740   5.637   4.987   4.704 -0.1993 -0.0710  0.1156
  186SOL     ow  741   2.930   6.383   1.570 -0.3798 -0.4732 -0.6366
  186SOL     hw  742   2.996   6.424   1.626 -0.2139 -0.7125 -0.6575
  186SOL     hw  743   2.973   6.373   1.485 -0.7214  0.1457 -0.8929
  186SOL     vw  744   2.944   6.387   1.566 -0.4029 -0.4234 -0.6732
  187SOL     ow  745   0.060   6.529   3.872 -0.4769  0.2478 -0.0298
  187SOL     hw  746   0.018   6.514   3.786 -1.2554 -1.0842  0.5455
  187SOL     hw  747   0.096   6.617   3.866 -1.1790  0.4707 -1.4701
  187SOL     vw  748   0.059   6.539   3.859 -0.6722  0.1013 -0.1440
  188SOL     ow  749   4.427   3.350   5.838 -0.2753  0.8959 -0.1104
  188SOL     hw  750   4.380   3.370   5.918 -0.9856  1.6639 -0.7082
  188SOL     hw  751   4.375   3.281   5.796  2.1543 -2.4978  1.9463
  188SOL     vw  752   4.414   3.343   5.843 -0.0486  0.5494  0.0820
  189SOL     ow  753   1.050   1.554   0.784  0.4704  0.1677  0.2493
  189SOL     hw  754   1.002   1.587   0.859 -0.0040  0.5255 -0.1986
  189SOL     hw  755   1.074   1.633   0.734  1.3042 -0.0210  0.3349
  189SOL     vw  756   1.047   1.569   0.787  0.5179  0.1900  0.2015
  190SOL     ow  757   1.124   6.840   1.180 -0.2404 -0.4887  0.0543
  190SOL     hw  758   1.077   6.854   1.262 -2.6735  0.0778 -1.3394
  190SOL     hw  759   1.195   6.780   1.203 -2.7421 -2.9812  2.0182
  190SOL     vw  760   1.127   6.834   1.193 -0.8916 -0.7432  0.1295
  191SOL     ow  761   3.785   2.770   1.042  0.5209  0.1178 -0.3705
  191SOL     hw  762   3.698   2.733   1.023  1.3302 -3.6864  2.2264
  191SOL     hw  763   3.846   2.706   1.007  2.2718  1.4410  0.1355
  191SOL     vw  764   3.781   2.757   1.035  0.8588 -0.2097  0.0390
  192SOL     ow  765   5.868   3.151   2.837 -0.0645 -0.4696  0.7391
  192SOL     hw  766   5.828   3.224   2.883  0.1278 -0.6382  1.1798
  192SOL     hw  767   5.903   3.095   2.906  0.4594 -0.5942  0.3829
  192SOL     vw  768   5.868   3.153   2.852  0.0298 -0.5083  0.7503
  193SOL     ow  769   0.576   7.244   5.031 -0.0581 -0.3007 -0.4675
  193SOL     hw  770   0.614   7.280   5.111 -0.2892  2.7702 -1.6105
  193SOL     hw  771   0.651   7.229   4.973  0.1494 -2.9032  0.3811
  193SOL     vw  772   0.591   7.247   5.034 -0.0612 -0.2387 -0.5066
  194SOL     ow  773   6.974   1.988   0.015  0.8439 -1.2593 -0.2444
  194SOL     hw  774   6.965   1.988   0.110 -3.6939  1.6277 -0.3506
  194SOL     hw  775   6.980   1.895  -0.009  3.3143 -2.0390  2.7386
  194SOL     vw  776   6.974   1.976   0.025  0.5713 -0.9812  0.1351
  195SOL     ow  777   0.741   1.371   2.196  0.5582 -1.0328 -0.5844
  195SOL     hw  778   0.762   1.300   2.256  1.8462  1.0879  1.6568
  195SOL     hw  779   0.668   1.417   2.238  0.1050 -0.6778 -1.7154
  195SOL     vw  780   0.734   1.368   2.209  0.6683 -0.7062 -0.4377
  196SOL     ow  781   4.817   7.338   2.669  0.7446 -0.0204  0.3447
  196SOL     hw  782   4.889   7.338   2.605  0.8885  3.5674  0.3191
  196SOL     hw  783   4.748   7.287   2.626  1.1099  1.6002 -2.4218
  196SOL     vw  784   4.817   7.331   2.655  0.8113  0.6666 -0.0235
  197SOL     ow  785   5.977   4.497   4.428  0.0090 -0.1579  0.4715
  197SOL     hw  786   6.005   4.427   4.488 -1.4124 -0.9561  0.2408
  197SOL     hw  787   6.042   4.566   4.440  0.1160 -0.5473  2.4751
  197SOL     vw  788   5.989   4.496   4.437 -0.1645 -0.3147  0.7055
  198SOL     ow  789   0.053   4.712   4.091  0.0835  0.4877 -0.1541
  198SOL     hw  790   0.049   4.623   4.125  0.0469  0.2165 -0.8471
  198SOL     hw  791   0.025   4.704   4.000 -0.4540  1.2953 -0.0706
  198SOL     vw  792   0.049   4.699   4.084  0.0077  0.5584 -0.2346
  199SOL     ow  793   5.866   1.991   6.868 -0.2054 -0.3563 -0.2117
  199SOL     hw  794   5.936   1.929   6.886 -0.0553  0.0029  0.4717
  199SOL     hw  795   5.833   2.016   6.954 -1.6089 -1.0054 -0.5416
  199SOL     vw  796   5.871   1.986   6.882 -0.3707 -0.3945 -0.1647
  200SOL     ow  797   5.075   1.552   5.002 -0.0694  0.5464  0.0080
  200SOL     hw  798   5.031   1.626   5.044  2.0308  1.0390  1.5287
  200SOL     hw  799   5.005   1.495   4.972 -1.7379  1.1789  2.4226
  200SOL     vw  800   5.060   1.554   5.003 -0.0126  0.6948  0.5274
  201SOL     ow  801   4.739   4.784   2.134  0.5185 -0.7575  0.2505
  201SOL     hw  802   4.731   4.802   2.040 -0.0488 -0.8377  0.2813
  201SOL     hw  803   4.797   4.708   2.138 -0.8020 -1.8412 -0.1533
  201SOL     vw  804   4.745   4.776   2.122  0.2694 -0.9112  0.2012
  202SOL     ow  805   1.694   2.372   2.348  0.2335 -0.0606 -0.2047
  202SOL     hw  806   1.628   2.307   2.374 -1.5109  1.6045 -0.2494
  202SOL     hw  807   1.714   2.420   2.428  0.3662  0.3349 -0.4713
  202SOL     vw  808   1.688   2.369   2.362  0.0209  0.2114 -0.2457
  203SOL     ow  809   2.690   4.284   0.393 -0.5032  0.3039 -0.0754
  203SOL     hw  810   2.744   4.310   0.318 -1.4585  0.6560 -0.6635
  203SOL     hw  811   2.640   4.363   0.415 -1.9740 -0.4279 -0.6108
  203SOL     vw  812   2.690   4.298   0.386 -0.8235  0.2539 -0.2236
  204SOL     ow  813   5.884   5.009   4.462  0.8810  0.4112 -0.5559
  204SOL     hw  814   5.893   5.105   4.461 -0.5925  0.6050  0.7776
  204SOL     hw  815   5.810   4.992   4.403  0.2446  0.2400  0.2753
  204SOL     vw  816   5.875   5.020   4.454  0.6025  0.4141 -0.2704
  205SOL     ow  817   0.573   7.151   4.121  0.5691 -0.0127 -0.4054
  205SOL     hw  818   0.492   7.139   4.071  0.6509  0.3877 -0.6396
  205SOL     hw  819   0.560   7.233   4.168 -0.1763 -1.1767  1.5400
  205SOL     vw  820   0.561   7.160   4.121  0.4815 -0.1137 -0.1793
  206SOL     ow  821   5.392   6.839   0.379 -0.3727 -0.3297 -0.8093
  206SOL     hw  822   5.471   6.879   0.341  3.0771  0.0627  5.4387
  206SOL     hw  823   5.415   6.746   0.389 -0.5935 -0.2138  1.0790
  206SOL     vw  824   5.406   6.832   0.375  0.0534 -0.2630  0.2642
  207SOL     ow  825   1.174   1.688   1.551  0.1299  0.4720  0.0226
  207SOL     hw  826   1.170   1.641   1.468 -0.1842  0.9132 -0.2163
  207SOL     hw  827   1.226   1.632   1.608  0.4210  0.2070 -0.4983
  207SOL     vw  828   1.180   1.675   1.548  0.1269  0.4953 -0.0777
  208SOL     ow  829   4.769   0.358   0.907 -0.2425 -0.8491 -0.0160
  208SOL     hw  830   4.751   0.265   0.890  0.9625 -0.9150 -1.0879
  208SOL     hw  831   4.726   0.403   0.834  0.9054 -0.7457 -0.6519
  208SOL     vw  832   4.761   0.351   0.895  0.0679 -0.8442 -0.2413
  209SOL     ow  833   2.512   2.693   1.496  0.7664  0.2973 -0.4147
  209SOL     hw  834   2.514   2.784   1.465 -0.5192  1.0085  1.3438
  209SOL     hw  835   2.489   2.701   1.589 -0.6613 -1.8987 -0.5119
  209SOL     vw  836   2.509   2.706   1.504  0.4084  0.1014 -0.1955
  210SOL     ow  837   6.728   4.016   3.520  0.2684  0.4503 -0.5863
  210SOL     hw  838   6.657   3.970   3.566 -0.3463  0.2993 -1.6507
  210SOL     hw  839   6.786   3.945   3.490  0.8649  0.5729  0.2699
  210SOL     vw  840   6.726   4.000   3.522  0.2661  0.4466 -0.6138
  211SOL     ow  841   2.965   3.292   6.448  0.4912  0.6908  0.2185
  211SOL     hw  842   3.022   3.218   6.470 -1.0909  0.3035  3.8097
  211SOL     hw  843   3.003   3.366   6.495  0.9235  1.7478 -1.7131
  211SOL     vw  844   2.977   3.292   6.457  0.3396  0.7793  0.4377
  212SOL     ow  845   4.777   7.167   4.009 -0.1298 -0.7855  0.1974
  212SOL     hw  846   4.743   7.142   3.922 -2.2579  0.1467  0.6911
  212SOL     hw  847   4.716   7.235   4.039  1.9824  0.6679  1.4086
  212SOL     vw  848   4.764   7.173   4.001 -0.1318 -0.4706  0.4222
  213SOL     ow  849   4.308   6.240   6.705 -0.1517  0.3080 -1.3445
  213SOL     hw  850   4.295   6.171   6.771 -1.6666  1.9524  0.2013
  213SOL     hw  851   4.400   6.234   6.682  0.3153 -0.6867  0.5563
  213SOL     vw  852   4.318   6.230   6.711 -0.2899  0.3936 -0.8898
  214SOL     ow  853   4.556   4.884   0.647 -0.3537  0.7506  0.8306
  214SOL     hw  854   4.478   4.939   0.632 -1.1057  0.0247  1.9251
  214SOL     hw  855   4.597   4.922   0.725 -0.7397 -0.0648  1.4462
  214SOL     vw  856   4.551   4.897   0.655 -0.5038  0.5474  1.0562
  215SOL     ow  857   2.226   7.109   6.919  0.5635  0.0482  0.1085
  215SOL     hw  858   2.152   7.143   6.969  0.6051  0.3200 -0.0089
  215SOL     hw  859   2.286   7.183   6.912 -0.8034  1.0616 -2.9864
  215SOL     vw  860   2.224   7.124   6.924  0.3887  0.2182 -0.3152
  216SOL     ow  861   1.718   0.811   6.523  0.2315 -0.1991 -0.7524
  216SOL     hw  862   1.767   0.891   6.508  1.5464 -0.9270 -0.4620
  216SOL     hw  863   1.629   0.832   6.496  0.3300  1.6442  0.2138
  216SOL     vw  864   1.713   0.824   6.517  0.4180 -0.0520 -0.5867
  217SOL     ow  865   6.012   0.075   5.961 -0.6149 -0.9439  0.3483
  217SOL     hw  866   6.006  -0.010   6.005  1.1560 -1.0918  0.3676
  217SOL     hw  867   5.995   0.139   6.030  0.5993 -1.2255  0.9334
  217SOL     vw  868   6.009   0.072   5.976 -0.2213 -1.0006  0.4282
  218SOL     ow  869   1.759   3.397   1.443 -0.1386 -0.5418  0.5899
  218SOL     hw  870   1.714   3.340   1.505  0.3749 -1.0488  0.5026
  218SOL     hw  871   1.808   3.338   1.386  2.2334  0.0445  1.8973
  218SOL     vw  872   1.759   3.382   1.443  0.2421 -0.5314  0.7508
  219SOL     ow  873   4.313   3.650   6.719 -0.3409 -0.0850  0.0008
  219SOL     hw  874   4.370   3.594   6.772 -1.9432 -3.7958 -1.8402
  219SOL     hw  875   4.369   3.676   6.645 -0.1440 -1.0484 -0.1993
  219SOL     vw  876   4.328   3.646   6.716 -0.5264 -0.7018 -0.2685
  220SOL     ow  877   2.221   3.542   6.107 -0.1232  0.1429  0.4803
  220SOL     hw  878   2.312   3.513   6.115  0.2119  0.2716 -2.0974
  220SOL     hw  879   2.221   3.631   6.143  1.0841  0.6159 -0.6029
  220SOL     vw  880   2.233   3.550   6.113  0.0802  0.2223 -0.0029
  221SOL     ow  881   0.917   5.984   4.557 -0.3302 -0.0906  0.3476
  221SOL     hw  882   0.999   6.032   4.568 -0.5650  0.1821  0.9773
  221SOL     hw  883   0.933   5.925   4.484  0.2871  0.2618  0.1899
  221SOL     vw  884   0.930   5.983   4.549 -0.2797 -0.0081  0.4096
  222SOL     ow  885   2.302   1.752   3.164 -0.1069 -0.4306 -0.1109
  222SOL     hw  886   2.266   1.793   3.243  0.1628  0.8075 -0.6103
  222SOL     hw  887   2.239   1.773   3.095 -0.2376 -1.3326 -0.2839
  222SOL     vw  888   2.289   1.760   3.165 -0.0886 -0.3862 -0.1997
  223SOL     ow  889   4.970   1.079   2.512 -0.5353  0.1574  0.0475
  223SOL     hw  890   5.061   1.090   2.483 -0.1246 -2.6585 -0.0112
  223SOL     hw  891   4.977   1.064   2.606 -1.2266  2.3943  0.5017
  223SOL     vw  892   4.983   1.079   2.520 -0.5722  0.0810  0.0997
  224SOL     ow  893   6.988   1.223   1.293  0.0663 -0.2912 -0.6090
  224SOL     hw  894   7.048   1.252   1.362  1.7123 -1.1084 -1.6114
  224SOL     hw  895   6.904   1.212   1.336  0.8134  0.1701  1.0409
  224SOL     vw  896   6.985   1.226   1.308  0.3822 -0.3381 -0.5236
  225SOL     ow  897   7.062   2.838   1.169  0.4317 -0.2873 -1.2514
  225SOL     hw  898   7.015   2.858   1.250  2.7137  0.7773 -0.0762
  225SOL     hw  899   7.132   2.779   1.197  2.1751  1.2737 -2.1165
  225SOL     vw  900   7.065   2.833   1.183  0.9627  0.0592 -1.2105
  226SOL     ow  901   0.516   6.869   0.315  0.0804  0.5438  0.5336
  226SOL     hw  902   0.483   6.817   0.242  1.7715 -0.7663  0.6137
  226SOL     hw  903   0.513   6.809   0.390  0.9009  0.9485  0.9101
  226SOL     vw  904   0.511   6.854   0.315  0.4118  0.4244  0.5938
  227SOL     ow  905   2.209   1.846   3.405 -0.8889  0.7179 -0.4172
  227SOL     hw  906   2.114   1.842   3.397 -0.8594  0.4996 -0.7000
  227SOL     hw  907   2.230   1.782   3.473 -1.2293  3.3293  2.3057
  227SOL     vw  908   2.199   1.837   3.413 -0.9300  1.0337 -0.0952
  228SOL     ow  909   6.577   2.117   0.004  0.2370  0.0834 -0.1804
  228SOL     hw  910   6.523   2.115   0.084 -0.5617 -0.1908 -0.7136
  228SOL     hw  911   6.585   2.026  -0.022  0.5246  0.1693 -0.3931
  228SOL     vw  912   6.571   2.105   0.011  0.1695  0.0585 -0.2787
  229SOL     ow  913   4.435   3.354   2.587 -0.0124  0.3983  0.6797
  229SOL     hw  914   4.469   3.358   2.498 -0.4013  0.1835  0.5146
  229SOL     hw  915   4.380   3.432   2.596  2.0571  1.8393  1.6233
  229SOL     vw  916   4.432   3.365   2.577  0.2091  0.5602  0.7823
  230SOL     ow  917   0.842   1.682   2.783 -0.2189  0.0891 -0.2393
  230SOL     hw  918   0.835   1.613   2.848  0.4260 -1.8218 -2.0923
  230SOL     hw  919   0.881   1.755   2.831 -0.4593 -0.9555  1.6719
  230SOL     vw  920   0.846   1.683   2.798 -0.1655 -0.3008 -0.2316
  231SOL     ow  921   0.026   1.380   0.608  0.7014 -0.0226 -0.6134
  231SOL     hw  922  -0.040   1.436   0.649 -0.4794 -0.2325 -2.1481
  231SOL     hw  923   0.068   1.335   0.681 -0.5790  0.4171  0.4288
  231SOL     vw  924   0.023   1.381   0.623  0.3765  0.0077 -0.6784
  232SOL     ow  925   5.118   0.610   3.660 -0.0259 -0.1020 -0.0574
  232SOL     hw  926   5.153   0.677   3.719  0.0410 -1.8329  1.9882
  232SOL     hw  927   5.190   0.589   3.601  0.2531  0.9156 -0.0961
  232SOL     vw  928   5.132   0.616   3.660  0.0196 -0.1962  0.2074
  233SOL     ow  929   6.021   7.151   5.664  0.1891  0.6541  0.1793
  233SOL     hw  930   6.100   7.101   5.687  0.0534  0.3412 -0.0320
  233SOL     hw  931   5.982   7.102   5.592 -0.9545  0.0383  1.1863
  233SOL     vw  932   6.026   7.138   5.657  0.0203  0.5317  0.2844
  234SOL     ow  933   3.745   0.323   0.678  0.3266  0.2097  1.1228
  234SOL     hw  934   3.688   0.394   0.708 -0.8558 -0.1913 -0.1001
  234SOL     hw  935   3.685   0.251   0.656  1.2967 -0.2483 -0.1342
  234SOL     vw  936   3.729   0.323   0.679  0.2986  0.0963  0.7956
  235SOL     ow  937   6.911   2.895   1.377  0.1913 -0.4058 -0.7885
  235SOL     hw  938   6.818   2.883   1.358  0.1215 -0.7115 -0.2897
  235SOL     hw  939   6.928   2.987   1.358 -0.5677  0.0313  0.5129
  235SOL     vw  940   6.901   2.905   1.372  0.0820 -0.3886 -0.5510
  236SOL     ow  941   4.998   3.663   2.662  0.0291 -0.2939  0.3343
  236SOL     hw  942   4.980   3.654   2.568 -0.1836  1.8928  0.1073
  236SOL     hw  943   4.978   3.577   2.699  1.5404 -1.6640 -1.8075
  236SOL     vw  944   4.993   3.651   2.654  0.2005 -0.1862  0.0217
  237SOL     ow  945   7.077   0.858   0.965 -0.3698  0.2927 -0.2651
  237SOL     hw  946   7.001   0.800   0.957 -0.3422  0.2210  0.0070
  237SOL     hw  947   7.148   0.801   0.994 -1.0898  0.9968  3.3051
  237SOL     vw  948   7.077   0.843   0.967 -0.4613  0.3762  0.2419
  238SOL     ow  949   0.219   3.366   5.805 -0.7929  0.2441  0.3520
  238SOL     hw  950   0.228   3.296   5.870 -1.9753 -0.5380 -0.2852
  238SOL     hw  951   0.231   3.322   5.721 -3.1756  0.4334 -0.1582
  238SOL     vw  952   0.222   3.351   5.802 -1.2633  0.1658  0.2005
  239SOL     ow  953   6.690   1.027   5.397  0.2714 -0.2248  0.0763
  239SOL     hw  954   6.715   1.016   5.305 -0.9911  0.0694 -0.3147
  239SOL     hw  955   6.614   1.085   5.395 -0.5209 -1.1670  1.2184
  239SOL     vw  956   6.684   1.033   5.384  0.0002 -0.3104  0.1755
  240SOL     ow  957   0.350   2.116   0.490 -0.7272 -0.6850 -0.3333
  240SOL     hw  958   0.284   2.135   0.557  0.4817  0.8938  0.4808
  240SOL     hw  959   0.432   2.112   0.539  0.3417  1.5213 -1.8005
  240SOL     vw  960   0.352   2.118   0.506 -0.4267 -0.1856 -0.4195
  241SOL     ow  961   2.130   0.135   2.223 -1.2376  0.7470  0.5108
  241SOL     hw  962   2.119   0.046   2.256 -0.3161 -0.0156 -1.0916
  241SOL     hw  963   2.072   0.139   2.147 -0.8991  1.3466  0.2833
  241SOL     vw  964   2.121   0.124   2.217 -1.0712  0.7255  0.2694
  242SOL     ow  965   0.928   1.707   1.721  0.1920 -0.4431 -0.5749
  242SOL     hw  966   0.981   1.738   1.647  0.4708  1.0836  0.2321
  242SOL     hw  967   0.989   1.658   1.776  0.5748  0.5243 -0.1185
  242SOL     vw  968   0.943   1.704   1.718  0.2793 -0.1141 -0.4082
  243SOL     ow  969   4.262   1.921   3.507  0.1829  0.1843  0.3772
  243SOL     hw  970   4.328   1.867   3.463 -1.3331  0.0130 -1.8608
  243SOL     hw  971   4.311   1.996   3.542  1.5598  0.1538 -1.3609
  243SOL     vw  972   4.277   1.924   3.506  0.1645  0.1577 -0.1473
  244SOL     ow  973   5.661   1.185   1.132 -0.6326 -0.0043  0.1474
  244SOL     hw  974   5.604   1.244   1.182 -0.9350 -0.4348  0.3139
  244SOL     hw  975   5.611   1.104   1.124  0.0352 -0.4507  0.4547
  244SOL     vw  976   5.647   1.182   1.137 -0.5844 -0.1200  0.2099
  245SOL     ow  977   3.702   2.185   2.989  0.4296 -0.0672  0.1600
  245SOL     hw  978   3.641   2.208   2.919 -0.5571  0.1541  1.0725
  245SOL     hw  979   3.648   2.181   3.068  1.9821  3.0320  1.5708
  245SOL     vw  980   3.687   2.188   2.990  0.5043  0.3709  0.4667
  246SOL     ow  981   4.518   3.632   0.207  0.0124  0.4023  0.2272
  246SOL     hw  982   4.546   3.542   0.187 -1.4862  0.2269 -1.2836
  246SOL     hw  983   4.500   3.630   0.301  1.8166 -0.3390  0.5950
  246SOL     vw  984   4.519   3.620   0.217  0.0529  0.2813  0.0764
  247SOL     ow  985   4.527   2.641   3.413 -0.1903 -0.8326  0.5111
  247SOL     hw  986   4.586   2.600   3.476  0.9476  1.8432  1.3429
  247SOL     hw  987   4.583   2.665   3.340 -0.2228  1.4095  1.1507
  247SOL     vw  988   4.542   2.639   3.412 -0.0443 -0.1836  0.7054
  248SOL     ow  989   3.304   2.567   0.449  0.5574 -0.0111  0.4972
  248SOL     hw  990   3.315   2.486   0.398  2.3692 -0.7739  1.9443
  248SOL     hw  991   3.231   2.549   0.507 -2.7589  1.5175 -2.7875
  248SOL     vw  992   3.296   2.554   0.450  0.3588  0.0899  0.2548
  249SOL     ow  993   2.965   0.757   2.102  0.1104  0.0432 -0.0162
  249SOL     hw  994   2.885   0.788   2.145  1.3109  0.3168  2.1871
  249SOL     hw  995   2.944   0.668   2.074 -1.7461  0.9810 -1.8149
  249SOL     vw  996   2.952   0.750   2.104  0.0240  0.2030  0.0373
  250SOL     ow  997   3.737   0.977   7.247 -0.0484 -0.2711 -0.2577
  250SOL     hw  998   3.749   0.923   7.325  0.4207 -0.2020 -0.2755
  250SOL     hw  999   3.683   0.924   7.189 -0.0952 -0.4726 -0.0325
  250SOL     vw 1000   3.732   0.963   7.250  0.0073 -0.2885 -0.2306
  251SOL     ow 1001   1.872   5.420   2.074 -0.0562  0.4024 -0.2826
  251SOL     hw 1002   1.794   5.435   2.020 -1.3671 -1.7346  0.8647
  251SOL     hw 1003   1.854   5.338   2.120  2.5525  0.2572  0.6666
  251SOL     vw 1004   1.859   5.411   2.073  0.1150  0.1013 -0.0058
  252SOL     ow 1005   1.549   3.599   6.808  0.6466 -0.0488 -0.1041
  252SOL     hw 1006   1.493   3.670   6.841  2.0893  1.1791 -0.1970
  252SOL     hw 1007   1.532   3.597   6.714  0.2664 -0.1463 -0.0364
  252SOL     vw 1008   1.539   3.608   6.800  0.7868  0.1004 -0.1078
  253SOL     ow 1009   1.413   1.336   2.805  0.9096 -0.0884  0.3722
  253SOL     hw 1010   1.371   1.362   2.723  1.8006 -0.4755 -0.2346
  253SOL     hw 1011   1.414   1.240   2.802 -1.0586 -0.2216  1.9152
  253SOL     vw 1012   1.408   1.327   2.793  0.7675 -0.1571  0.4958
  254SOL     ow 1013   5.396   4.635   0.131  0.0269  0.3881  0.5427
  254SOL     hw 1014   5.433   4.603   0.213 -2.0690  1.8343  2.1713
  254SOL     hw 1015   5.469   4.678   0.087  1.4310 -1.2913  1.1516
  254SOL     vw 1016   5.411   4.637   0.136 -0.0646  0.3574  0.8379
  255SOL     ow 1017   2.606   5.287   4.417  0.5336 -0.7234  0.0194
  255SOL     hw 1018   2.581   5.322   4.503  1.6731  1.9496 -0.6477
  255SOL     hw 1019   2.549   5.332   4.355 -0.0641 -2.4036 -0.7235
  255SOL     vw 1020   2.595   5.297   4.420  0.6051 -0.5925 -0.1664
  256SOL     ow 1021   4.322   6.180   7.234 -0.6666  0.6669  0.1440
  256SOL     hw 1022   4.381   6.251   7.211  2.3342 -0.8170  2.4734
  256SOL     hw 1023   4.309   6.132   7.152  0.2160  1.8827 -0.7383
  256SOL     vw 1024   4.328   6.183   7.221 -0.1543  0.6316  0.3347
  257SOL     ow 1025   7.324   2.629   0.786 -0.0304 -0.3728  0.1983
  257SOL     hw 1026   7.354   2.630   0.877 -0.9204  0.2256  0.4929
  257SOL     hw 1027   7.403   2.607   0.736  0.6837  0.1927  1.0365
  257SOL     vw 1028   7.339   2.627   0.792 -0.0536 -0.2193  0.3478
  258SOL     ow 1029   6.319   4.840   6.737  0.4024 -0.2879  0.2263
  258SOL     hw 1030   6.301   4.931   6.760 -0.5183 -0.2588 -0.5700
  258SOL     hw 1031   6.401   4.843   6.688  2.8436 -0.4204  3.8897
  258SOL     vw 1032   6.327   4.852   6.734  0.6030 -0.3016  0.6042
  259SOL     ow 1033   6.689   2.575   4.029  0.3289  0.7650  0.0440
  259SOL     hw 1034   6.693   2.627   4.108  0.8978  1.0962 -0.2009
  259SOL     hw 1035   6.676   2.639   3.959 -1.6265  0.3783 -0.0064
  259SOL     vw 1036   6.688   2.590   4.030  0.1459  0.7576  0.0050
  260SOL     ow 1037   4.321   6.572   4.835 -0.5035 -0.7949 -0.4903
  260SOL     hw 1038   4.319   6.477   4.835 -1.3235 -0.8625  2.1770
  260SOL     hw 1039   4.230   6.599   4.841 -0.2127 -0.0841  3.3756
  260SOL     vw 1040   4.309   6.563   4.836 -0.5734 -0.7100  0.3717
  261SOL     ow 1041   4.083   2.642   5.354 -0.2887  0.2864 -0.3980
  261SOL     hw 1042   4.178   2.631   5.362  0.0767  2.2136 -1.3040
  261SOL     hw 1043   4.049   2.623   5.441  0.8420 -1.0068 -0.2039
  261SOL     vw 1044   4.091   2.638   5.366 -0.0913  0.3700 -0.4921
  262SOL     ow 1045   5.726   6.786   4.739 -0.2286 -0.7855  0.0886
  262SOL     hw 1046   5.663   6.714   4.733  0.4752 -1.3538 -0.7254
  262SOL     hw 1047   5.809   6.747   4.712  1.0164 -0.6489  3.3498
  262SOL     vw 1048   5.728   6.771   4.734  0.0286 -0.8426  0.4113
  263SOL     ow 1049   0.971   2.844   2.991  0.9068 -0.5248 -0.2068
  263SOL     hw 1050   1.006   2.933   2.980  3.4702 -1.3463  0.5847
  263SOL     hw 1051   0.879   2.858   3.012  1.5295  2.0784  1.4130
  263SOL     vw 1052   0.964   2.858   2.992  1.3272 -0.2898  0.1115
  264SOL     ow 1053   4.557   5.411   2.153 -0.4785 -0.2072  0.3634
  264SOL     hw 1054   4.466   5.433   2.133  0.3839  4.8989  0.5731
  264SOL     hw 1055   4.595   5.386   2.068 -1.5249  0.2268 -0.2526
  264SOL     vw 1056   4.550   5.411   2.139 -0.5028  0.5236  0.3097
  265SOL     ow 1057   6.668   3.449   0.076  0.5483  0.2773 -0.1926
  265SOL     hw 1058   6.606   3.424   0.145  0.2579  1.6381  0.0782
  265SOL     hw 1059   6.666   3.377   0.014 -2.4854  0.9087 -0.9821
  265SOL     vw 1060   6.660   3.436   0.077  0.1097  0.5401 -0.2611
  266SOL     ow 1061   5.390   4.908   0.169  0.5372 -0.2757  0.0994
  266SOL     hw 1062   5.383   4.931   0.262 -3.3482  2.8305 -0.6894
  266SOL     hw 1063   5.376   4.813   0.167  4.1831 -1.1073  2.7421
  266SOL     vw 1064   5.387   4.899   0.181  0.5059  0.0243  0.3440
  267SOL     ow 1065   4.266   5.437   5.743 -0.6819  0.0384 -0.3504
  267SOL     hw 1066   4.176   5.430   5.713 -0.9168  0.8150  0.1487
  267SOL     hw 1067   4.260   5.436   5.838 -0.0712 -0.9264 -0.3159
  267SOL     vw 1068   4.254   5.436   5.751 -0.6323  0.0136 -0.2801
  268SOL     ow 1069   3.198   4.513   1.440  0.5068  0.4132 -0.6342
  268SOL     hw 1070   3.103   4.513   1.433  0.4293  1.4529  0.1733
  268SOL     hw 1071   3.230   4.531   1.352 -0.0289 -0.2736 -0.9740
  268SOL     vw 1072   3.190   4.515   1.428  0.4259  0.4599 -0.5724
  269SOL     ow 1073   4.028   3.484   6.697  0.2716 -0.1771 -0.7126
  269SOL     hw 1074   3.936   3.505   6.712  0.1348 -0.2952 -1.3459
  269SOL     hw 1075   4.027   3.393   6.667  0.5386 -0.0317 -1.1850
  269SOL     vw 1076   4.016   3.475   6.695  0.2887 -0.1736 -0.8585
  270SOL     ow 1077   6.189   4.879   0.371  0.0539  0.0125  0.1583
  270SOL     hw 1078   6.280   4.886   0.400  0.1624  1.0003 -0.3552
  270SOL     hw 1079   6.144   4.949   0.419 -0.0612  0.6786 -0.8774
  270SOL     vw 1080   6.195   4.889   0.381  0.0532  0.2306 -0.0461
  271SOL     ow 1081   6.840   3.108   2.463 -0.3163 -0.2391  1.0273
  271SOL     hw 1082   6.825   3.175   2.529 -2.1064 -0.7797  1.2283
  271SOL     hw 1083   6.764   3.113   2.406  0.7909 -0.3568 -0.5297
  271SOL     vw 1084   6.828   3.117   2.464 -0.4067 -0.3259  0.8484
  272SOL     ow 1085   5.548   2.832   3.493 -0.3375 -0.0673 -0.0592
  272SOL     hw 1086   5.480   2.791   3.546 -0.3415 -0.6946 -0.5331
  272SOL     hw 1087   5.626   2.830   3.548 -0.0829 -1.6498 -0.4247
  272SOL     vw 1088   5.549   2.826   3.507 -0.3045 -0.3587 -0.1700
  273SOL     ow 1089   6.844   3.152   6.616  0.3947 -0.0384  0.6801
  273SOL     hw 1090   6.818   3.148   6.524 -0.3405 -2.3800  0.9305
  273SOL     hw 1091   6.850   3.246   6.635  2.1059  0.5330 -2.1477
  273SOL     vw 1092   6.841   3.164   6.607  0.5236 -0.2719  0.3402
  274SOL     ow 1093   0.029   7.235   0.503 -0.0298  0.3466  0.8740
  274SOL     hw 1094  -0.036   7.174   0.540  0.1744  0.1449  0.9029
  274SOL     hw 1095   0.034   7.211   0.411 -0.0763  0.4338  0.8491
  274SOL     vw 1096   0.021   7.224   0.496 -0.0090  0.3314  0.8745
  275SOL     ow 1097   1.842   2.947   5.394  0.4885  0.6383 -0.2376
  275SOL     hw 1098   1.767   3.000   5.420 -0.1184 -0.0104 -0.6134
  275SOL     hw 1099   1.914   2.978   5.448 -0.6187 -0.3814  1.9356
  275SOL     vw 1100   1.841   2.958   5.405  0.2624  0.4182 -0.0005
  276SOL     ow 1101   7.227   4.138   2.333  0.2752  0.0308 -0.1476
  276SOL     hw 1102   7.175   4.063   2.361 -2.3606  0.3016 -3.5969
  276SOL     hw 1103   7.213   4.205   2.401  1.2080 -1.8927  2.0531
  276SOL     vw 1104   7.219   4.137   2.345  0.0503 -0.1872 -0.3123
  277SOL     ow 1105   4.537   3.506   5.064 -0.1415 -0.1584 -0.1514
  277SOL     hw 1106   4.587   3.463   4.995  0.5407 -0.6263  0.6060
  277SOL     hw 1107   4.459   3.541   5.020  0.1586 -0.6508 -1.1003
  277SOL     vw 1108   4.533   3.505   5.049 -0.0117 -0.2849 -0.1767
  278SOL     ow 1109   5.179   1.276   6.741  0.4080  0.0795  0.0590
  278SOL     hw 1110   5.197   1.344   6.677 -1.3281 -0.7471 -1.3849
  278SOL     hw 1111   5.129   1.321   6.810 -0.4796  0.3590 -0.7436
  278SOL     vw 1112   5.174   1.291   6.742  0.0620  0.0074 -0.2372
  279SOL     ow 1113   3.895   6.316   5.687  0.5742 -0.8613  0.1084
  279SOL     hw 1114   3.809   6.354   5.672  1.7268  0.8037 -3.4700
  279SOL     hw 1115   3.938   6.376   5.748 -0.1346 -0.5840  0.3363
  279SOL     vw 1116   3.889   6.329   5.693  0.6328 -0.6051 -0.3338
  280SOL     ow 1117   5.789   3.359   3.020 -0.2368 -0.6522  0.5385
  280SOL     hw 1118   5.845   3.427   3.060  1.7071  0.2180 -3.2008
  280SOL     hw 1119   5.701   3.397   3.022  0.2852  0.6013  1.2987
  280SOL     vw 1120   5.785   3.373   3.026  0.0889 -0.3719  0.1454
  281SOL     ow 1121   5.625   4.840   4.462  0.9684 -0.0864 -0.1874
  281SOL     hw 1122   5.581   4.908   4.411  2.6894  2.1416  1.1648
  281SOL     hw 1123   5.649   4.774   4.396  1.4300  1.7702 -1.9982
  281SOL     vw 1124   5.622   4.840   4.446  1.2565  0.4528 -0.2482
  282SOL     ow 1125   0.179   7.062   1.386  0.1696  0.1347  0.3998
  282SOL     hw 1126   0.169   7.021   1.472 -1.1245 -1.9684 -0.6719
  282SOL     hw 1127   0.261   7.110   1.392 -0.2140  0.6072  3.0004
  282SOL     vw 1128   0.188   7.063   1.398 -0.0517 -0.0801  0.6016
  283SOL     ow 1129   6.229   6.824   0.607 -0.8667 -0.0318  0.4496
  283SOL     hw 1130   6.296   6.880   0.568  0.0473 -2.3870 -1.6033
  283SOL     hw 1131   6.146   6.859   0.576 -0.4134  1.0148  0.3965
  283SOL     vw 1132   6.227   6.836   0.598 -0.6862 -0.2041  0.1718
  284SOL     ow 1133   3.545   5.921   2.162 -0.3109  0.0836 -0.0923
  284SOL     hw 1134   3.516   5.881   2.244  0.2776  0.7874  0.4820
  284SOL     hw 1135   3.465   5.954   2.122 -0.4384  1.2792  1.0663
  284SOL     vw 1136   3.531   5.920   2.168 -0.2501  0.3340  0.1364
  285SOL     ow 1137   4.128   4.553   2.071  0.0790  0.4421 -0.6156
  285SOL     hw 1138   4.209   4.551   2.122 -0.0388 -0.7337 -0.4563
  285SOL     hw 1139   4.156   4.532   1.982 -0.0216  0.2300 -0.5974
  285SOL     vw 1140   4.142   4.550   2.066  0.0503  0.2592 -0.5922
  286SOL     ow 1141   6.303   4.079   4.634  0.2868 -0.0729  0.1542
  286SOL     hw 1142   6.310   4.173   4.654  0.7031 -0.1418  0.3456
  286SOL     hw 1143   6.247   4.044   4.703 -2.8642  0.6273 -1.8412
  286SOL     vw 1144   6.297   4.087   4.646 -0.0739  0.0105 -0.0839
  287SOL     ow 1145   5.600   3.773   2.004 -0.4285  0.6664  0.2748
  287SOL     hw 1146   5.688   3.804   1.984 -1.3237  1.7956 -2.4047
  287SOL     hw 1147   5.549   3.795   1.926 -2.3904 -2.8499  0.3399
  287SOL     vw 1148   5.605   3.780   1.991 -0.8054  0.3515 -0.0701
  288SOL     ow 1149   3.003   3.864   2.637 -0.2844 -0.3111 -0.2142
  288SOL     hw 1150   3.004   3.769   2.629  0.4407 -0.4475  1.1715
  288SOL     hw 1151   2.982   3.880   2.730 -1.9439  0.9171 -0.7399
  288SOL     vw 1152   3.000   3.853   2.648 -0.4076 -0.1671 -0.1007
  289SOL     ow 1153   6.777   0.948   5.166 -0.9518  0.1755  0.2587
  289SOL     hw 1154   6.812   0.865   5.198  0.6691  0.8960  0.4503
  289SOL     hw 1155   6.852   0.992   5.125 -1.6293  1.8073  0.6901
  289SOL     vw 1156   6.791   0.943   5.165 -0.8273  0.4859  0.3412
  290SOL     ow 1157   4.446   3.793   7.356 -0.2104 -0.0334  0.0903
  290SOL     hw 1158   4.425   3.731   7.287 -2.5739  0.5765  0.1771
  290SOL     hw 1159   4.466   3.738   7.432 -0.1344 -0.6920 -0.3997
  290SOL     vw 1160   4.446   3.778   7.357 -0.5124 -0.0398  0.0372
  291SOL     ow 1161   2.583   2.854   6.656  0.4150 -0.1596 -0.7818
  291SOL     hw 1162   2.489   2.853   6.676  0.8335 -2.4031  1.7369
  291SOL     hw 1163   2.600   2.767   6.619  1.4998  0.2245 -1.2033
  291SOL     vw 1164   2.573   2.842   6.654  0.6133 -0.4048 -0.5050
  292SOL     ow 1165   4.109   1.876   1.952 -0.3186  0.2383 -0.4368
  292SOL     hw 1166   4.168   1.893   2.025 -3.1467  0.3220  2.0325
  292SOL     hw 1167   4.073   1.790   1.970 -2.6089  1.1133 -0.5507
  292SOL     vw 1168   4.112   1.867   1.964 -0.9937  0.3648 -0.1259
  293SOL     ow 1169   1.085   6.420   5.737 -0.3725 -0.4386 -0.2516
  293SOL     hw 1170   1.012   6.414   5.676 -0.8346  1.4267  0.0520
  293SOL     hw 1171   1.144   6.484   5.697  0.5052 -1.0065  0.1007
  293SOL     vw 1172   1.083   6.428   5.724 -0.3176 -0.2675 -0.1650
  294SOL     ow 1173   1.894   6.745   3.647  0.2328  0.1400 -0.0220
  294SOL     hw 1174   1.973   6.722   3.598 -0.8350 -0.4582 -1.5651
  294SOL     hw 1175   1.856   6.661   3.672  0.6720  0.4416  1.7673
  294SOL     vw 1176   1.900   6.731   3.644  0.1499  0.1011  0.0105
  295SOL     ow 1177   5.632   6.916   0.305 -0.4409 -0.0671 -0.3487
  295SOL     hw 1178   5.659   6.960   0.385 -3.5979  0.3556  0.6173
  295SOL     hw 1179   5.710   6.869   0.276  0.7943 -0.4443  3.0976
  295SOL     vw 1180   5.646   6.915   0.312 -0.6945 -0.0610  0.2334
  296SOL     ow 1181   3.401   6.517   5.032 -0.6071 -0.2225 -0.1362
  296SOL     hw 1182   3.442   6.515   4.945  1.6133 -1.0361  0.8656
  296SOL     hw 1183   3.404   6.426   5.062  1.3989  0.4653  1.9741
  296SOL     vw 1184   3.407   6.505   5.024 -0.0495 -0.2391  0.2747
  297SOL     ow 1185   4.105   0.774   4.701 -0.1142 -0.2631 -0.3384
  297SOL     hw 1186   4.163   0.698   4.696 -0.5695 -0.5956 -0.5843
  297SOL     hw 1187   4.103   0.797   4.794 -0.9201 -1.2952 -0.0831
  297SOL     vw 1188   4.112   0.767   4.713 -0.2804 -0.4431 -0.3374
  298SOL     ow 1189   3.522   2.725   0.969  0.3048 -0.2272 -0.1867
  298SOL     hw 1190   3.491   2.634   0.975 -0.0974 -0.2360 -1.8064
  298SOL     hw 1191   3.489   2.767   1.048  1.2938 -1.7023  1.0527
  298SOL     vw 1192   3.513   2.719   0.980  0.3823 -0.4230 -0.2369
  299SOL     ow 1193   2.320   0.637   1.830  0.7667  1.0262  0.4482
  299SOL     hw 1194   2.413   0.631   1.806  0.7376  1.1163  0.3122
  299SOL     hw 1195   2.279   0.679   1.754  0.4485  0.1051  0.0938
  299SOL     vw 1196   2.327   0.642   1.817  0.7207  0.9166  0.3835
  300SOL     ow 1197   2.529   5.969   1.799 -0.3331  0.6096 -0.4680
  300SOL     hw 1198   2.525   5.976   1.703 -2.6259  2.5752 -0.3284
  300SOL     hw 1199   2.480   6.045   1.830  1.9061  1.0665  2.3505
  300SOL     vw 1200   2.522   5.980   1.790 -0.3400  0.9294 -0.0777
  301SOL     ow 1201   1.690   0.760   0.096 -0.6346 -0.3566  0.1005
  301SOL     hw 1202   1.648   0.676   0.076 -0.5278 -0.3408 -0.1912
  301SOL     hw 1203   1.648   0.822   0.036 -1.7166  0.0756  1.2547
  301SOL     vw 1204   1.679   0.757   0.086 -0.7633 -0.2975  0.2143
  302SOL     ow 1205   6.883   4.966   3.868  0.7504 -0.6286  0.0920
  302SOL     hw 1206   6.903   4.953   3.776  1.9051 -0.3789  0.2896
  302SOL     hw 1207   6.851   4.881   3.899  0.6287 -0.7869 -0.4639
  302SOL     vw 1208   6.881   4.953   3.860  0.8867 -0.6166  0.0448
  303SOL     ow 1209   0.683   2.037   4.964  0.2011 -0.1041 -0.7662
  303SOL     hw 1210   0.748   2.041   5.034 -1.5466 -1.9601  1.0639
  303SOL     hw 1211   0.601   2.015   5.008 -1.3612  0.4472 -3.2082
  303SOL     vw 1212   0.681   2.035   4.979 -0.2355 -0.2763 -0.8469
  304SOL     ow 1213   0.251   0.240   1.428  0.3258 -0.4767  0.3779
  304SOL     hw 1214   0.307   0.168   1.456  0.8445  0.0968  0.8507
  304SOL     hw 1215   0.166   0.221   1.467  1.2960  0.8699  3.4198
  304SOL     vw 1216   0.247   0.228   1.437  0.5223 -0.2234  0.8416
  305SOL     ow 1217   0.428   5.847   5.357 -0.3369 -0.4322 -0.0438
  305SOL     hw 1218   0.430   5.780   5.426 -0.1975  0.8354  1.2147
  305SOL     hw 1219   0.365   5.912   5.388 -0.6891 -0.0958 -1.3939
  305SOL     vw 1220   0.420   5.847   5.370 -0.3650 -0.2203 -0.0558
  306SOL     ow 1221   3.725   4.127   6.141  0.4028  0.0593 -0.1383
  306SOL     hw 1222   3.764   4.135   6.229  0.0991  3.3117 -0.1497
  306SOL     hw 1223   3.662   4.056   6.148  0.9822 -0.3093  2.0530
  306SOL     vw 1224   3.722   4.119   6.153  0.4392  0.4396  0.1493
  307SOL     ow 1225   2.618   2.016   2.548  0.0683 -0.1277 -0.4245
  307SOL     hw 1226   2.611   1.963   2.627  0.0207 -1.7874 -1.4955
  307SOL     hw 1227   2.712   2.014   2.526  0.1358  0.6099 -0.2509
  307SOL     vw 1228   2.630   2.009   2.555  0.0710 -0.2493 -0.5429
  308SOL     ow 1229   4.543   0.223   5.157  0.2120  0.4864 -0.0618
  308SOL     hw 1230   4.527   0.318   5.158  0.4758  0.5610 -1.3926
  308SOL     hw 1231   4.623   0.212   5.209  0.8064  1.1343 -0.8116
  308SOL     vw 1232   4.551   0.234   5.164  0.3252  0.5817 -0.3362
  309SOL     ow 1233   4.141   4.404   0.585 -0.0712 -0.3912 -0.5341
  309SOL     hw 1234   4.101   4.388   0.500  1.0908 -0.4309 -1.0785
  309SOL     hw 1235   4.077   4.460   0.630 -0.5925 -0.1806 -1.5018
  309SOL     vw 1236   4.127   4.410   0.580  0.0134 -0.3686 -0.7336
  310SOL     ow 1237   7.286   2.010   0.121 -0.1962 -0.0646  0.2720
  310SOL     hw 1238   7.358   1.960   0.084  0.8478  2.0124 -0.6423
  310SOL     hw 1239   7.208   1.979   0.075  0.5465 -0.2429 -0.8825
  310SOL     vw 1240   7.285   1.999   0.110  0.0393  0.1860 -0.0009
  311SOL     ow 1241   0.565   1.668   2.668  0.1977  0.1788 -0.3694
  311SOL     hw 1242   0.552   1.738   2.732 -0.3854 -0.8682  0.7200
  311SOL     hw 1243   0.479   1.626   2.661 -0.1837  1.2166 -3.0751
  311SOL     vw 1244   0.552   1.672   2.675  0.0705  0.1776 -0.5827
  312SOL     ow 1245   6.997   5.635   4.913  0.0463  0.4018 -0.4182
  312SOL     hw 1246   6.958   5.548   4.917  2.4969 -0.7709  0.2601
  312SOL     hw 1247   6.935   5.692   4.958 -1.2282 -1.1417 -0.1526
  312SOL     vw 1248   6.984   5.631   4.919  0.2015  0.0436 -0.2933
  313SOL     ow 1249   0.085   7.222   5.487 -0.2173  0.0826 -0.6220
  313SOL     hw 1250   0.079   7.316   5.472  1.1648  0.1907 -0.6481
  313SOL     hw 1251   0.142   7.214   5.563 -3.2101 -0.6368  1.7604
  313SOL     vw 1252   0.092   7.233   5.495 -0.4299  0.0019 -0.3111
  314SOL     ow 1253   3.147   1.295   2.602  0.6440 -0.3653  0.8287
  314SOL     hw 1254   3.166   1.337   2.686 -1.9426 -1.4054  2.0346
  314SOL     hw 1255   3.079   1.230   2.622 -0.0674 -0.6570 -2.0808
  314SOL     vw 1256   3.140   1.292   2.615  0.2089 -0.5410  0.6040
  315SOL     ow 1257   1.964   3.540   1.594  0.0320 -0.0694 -0.2592
  315SOL     hw 1258   1.897   3.472   1.603  0.0186 -0.0829 -0.4603
  315SOL     hw 1259   2.041   3.504   1.638 -1.0344  1.2909  3.0677
  315SOL     vw 1260   1.965   3.526   1.601 -0.1104  0.1081  0.1533
  316SOL     ow 1261   4.388   7.272   2.600 -0.1566 -0.4549 -0.7054
  316SOL     hw 1262   4.475   7.264   2.560  0.1306 -0.1575 -0.1486
  316SOL     hw 1263   4.359   7.360   2.575 -0.4064 -0.6530 -1.1080
  316SOL     vw 1264   4.396   7.283   2.591 -0.1516 -0.4418 -0.6851
  317SOL     ow 1265   5.223   1.811   0.173  0.3930  0.1811  0.0460
  317SOL     hw 1266   5.212   1.739   0.235  0.3550  0.7997  0.7699
  317SOL     hw 1267   5.142   1.810   0.120 -0.0525  0.3176  0.7158
  317SOL     vw 1268   5.211   1.801   0.174  0.3293  0.2807  0.2299
  318SOL     ow 1269   5.554   0.418   3.958 -0.1210  0.4572  0.0035
  318SOL     hw 1270   5.506   0.426   3.875  0.3295  0.7041 -0.2390
  318SOL     hw 1271   5.486   0.424   4.026 -0.6415 -0.9420 -0.3704
  318SOL     vw 1272   5.538   0.420   3.956 -0.1299  0.3051 -0.0780
  319SOL     ow 1273   0.657   5.335   3.451 -0.4886 -0.1165 -0.0864
  319SOL     hw 1274   0.696   5.272   3.512 -1.5430 -2.1601 -1.3976
  319SOL     hw 1275   0.717   5.409   3.451  2.4254 -2.2739 -0.5813
  319SOL     vw 1276   0.670   5.336   3.459 -0.2432 -0.6709 -0.3246
  320SOL     ow 1277   1.229   6.880   5.753  0.5173  0.7669 -0.4177
  320SOL     hw 1278   1.246   6.815   5.684 -2.8634  0.8755 -1.5095
  320SOL     hw 1279   1.134   6.882   5.762  0.7212  0.9173  4.2187
  320SOL     vw 1280   1.219   6.871   5.745  0.0982  0.8011  0.0501
  321SOL     ow 1281   0.343   0.286   6.963  0.1556 -0.0274  0.2400
  321SOL     hw 1282   0.431   0.248   6.971  0.3919  0.7254  1.4814
  321SOL     hw 1283   0.347   0.367   7.014 -1.4919 -0.4103  1.0518
  321SOL     vw 1284   0.355   0.292   6.971 -0.0306  0.0214  0.5109
  322SOL     ow 1285   0.928   0.175   6.475  0.6844  0.6007  0.0338
  322SOL     hw 1286   1.020   0.199   6.475  0.7418  0.4044 -0.3862
  322SOL     hw 1287   0.881   0.255   6.451  0.5617  1.2679  2.3534
  322SOL     vw 1288   0.934   0.188   6.472  0.6758  0.6628  0.2847
  323SOL     ow 1289   0.391   7.197   1.372  0.0613  0.7103  0.0559
  323SOL     hw 1290   0.386   7.230   1.282 -0.1842  0.2931 -0.0871
  323SOL     hw 1291   0.401   7.276   1.426 -0.7464  1.0373 -0.2562
  323SOL     vw 1292   0.392   7.212   1.367 -0.0776  0.6983 -0.0041
  324SOL     ow 1293   2.477   0.231   3.407 -0.0343  0.1693 -0.4309
  324SOL     hw 1294   2.446   0.300   3.466  0.6797  0.9832 -0.9879
  324SOL     hw 1295   2.547   0.187   3.456 -2.6118 -2.3911  1.2823
  324SOL     vw 1296   2.482   0.234   3.421 -0.2800 -0.0611 -0.2782
  325SOL     ow 1297   6.823   4.288   6.334  0.3344  0.2020 -0.1580
  325SOL     hw 1298   6.782   4.268   6.250  0.3119  0.9899 -0.3469
  325SOL     hw 1299   6.792   4.220   6.393  2.1078 -1.6893 -1.3031
  325SOL     vw 1300   6.814   4.277   6.330  0.5653  0.0565 -0.3343
  326SOL     ow 1301   3.504   7.209   7.127 -0.9773 -0.4617 -0.4180
  326SOL     hw 1302   3.487   7.303   7.134  0.9577  0.2778 -3.5432
  326SOL     hw 1303   3.512   7.193   7.033  3.0605 -2.8543  0.1187
  326SOL     vw 1304   3.503   7.219   7.116 -0.1894 -0.6797 -0.7596
  327SOL     ow 1305   2.794   5.573   2.895  0.3397 -0.1179 -0.1634
  327SOL     hw 1306   2.887   5.582   2.915 -0.3700  1.4372  3.1547
  327SOL     hw 1307   2.775   5.480   2.912  1.0782 -0.2012  0.2700
  327SOL     vw 1308   2.804   5.562   2.900  0.3434  0.0765  0.3316
  328SOL     ow 1309   3.469   2.419   3.818 -0.6950 -0.1114  0.3959
  328SOL     hw 1310   3.507   2.496   3.860  0.5377 -1.4703  1.9322
  328SOL     hw 1311   3.390   2.400   3.868 -0.2737 -0.5843  0.9104
  328SOL     vw 1312   3.464   2.426   3.830 -0.4768 -0.3531  0.6665
  329SOL     ow 1313   6.423   4.724   4.461  0.0859 -0.6682  0.1915
  329SOL     hw 1314   6.461   4.793   4.406  0.0308 -0.4201  0.4646
  329SOL     hw 1315   6.432   4.757   4.550 -1.6862 -0.1357  0.2169
  329SOL     vw 1316   6.429   4.738   4.465 -0.1547 -0.5651  0.2310
  330SOL     ow 1317   1.934   3.832   3.559 -0.0495 -0.5549 -0.0254
  330SOL     hw 1318   1.958   3.741   3.571  0.6655 -0.3847 -0.1337
  330SOL     hw 1319   1.931   3.845   3.464 -3.8273 -1.4010 -0.1897
  330SOL     vw 1320   1.937   3.822   3.548 -0.4536 -0.6440 -0.0613
  331SOL     ow 1321   3.536   3.717   3.748 -0.4534 -0.1310 -0.3059
  331SOL     hw 1322   3.514   3.644   3.806 -1.2264  0.1768 -0.1938
  331SOL     hw 1323   3.631   3.713   3.739 -0.2741 -0.0443  1.1965
  331SOL     vw 1324   3.545   3.707   3.755 -0.5319 -0.0789 -0.0930
  332SOL     ow 1325   0.350   1.676   5.444 -0.0064  0.0158  0.2778
  332SOL     hw 1326   0.289   1.649   5.513 -1.1211  2.8671  0.5442
  332SOL     hw 1327   0.388   1.594   5.412 -1.7143 -1.6313  2.1817
  332SOL     vw 1328   0.347   1.662   5.449 -0.3788  0.1748  0.5643
  333SOL     ow 1329   4.445   7.259   2.860 -0.7333  0.1079 -0.5664
  333SOL     hw 1330   4.381   7.315   2.906  0.3834  0.9562 -0.0000
  333SOL     hw 1331   4.421   7.267   2.768 -1.3076  0.6021 -0.3822
  333SOL     vw 1332   4.433   7.268   2.854 -0.6616  0.2847 -0.4673
  334SOL     ow 1333   2.576   1.842   3.492 -0.0073 -0.3634 -0.2042
  334SOL     hw 1334   2.535   1.765   3.531  2.9955 -2.9100 -1.5610
  334SOL     hw 1335   2.537   1.848   3.404 -0.8218  0.2154  0.1848
  334SOL     vw 1336   2.566   1.833   3.485  0.2813 -0.6230 -0.3319
  335SOL     ow 1337   6.920   6.002   6.698  0.1714  0.7537 -0.6581
  335SOL     hw 1338   6.991   6.045   6.652 -0.8526  1.7139 -1.4044
  335SOL     hw 1339   6.888   5.936   6.636  0.4869  0.2340 -0.2755
  335SOL     vw 1340   6.925   5.999   6.684  0.0782  0.8118 -0.7060
  336SOL     ow 1341   6.195   6.073   4.966 -0.4794 -0.2142  0.7799
  336SOL     hw 1342   6.103   6.071   4.991 -0.6432  0.9546  0.3057
  336SOL     hw 1343   6.208   6.159   4.925  0.6238 -0.6829  0.0892
  336SOL     vw 1344   6.185   6.084   4.964 -0.3555 -0.1221  0.6263
  337SOL     ow 1345   5.669   3.465   0.678  0.2795  0.1934 -0.3671
  337SOL     hw 1346   5.620   3.548   0.682  0.0667  0.0851 -0.6401
  337SOL     hw 1347   5.652   3.432   0.589 -0.9571 -0.9430  0.2615
  337SOL     vw 1348   5.660   3.472   0.666  0.0882  0.0292 -0.3202
  338SOL     ow 1349   5.306   4.229   7.222  0.3105 -0.4312 -0.2558
  338SOL     hw 1350   5.257   4.148   7.233 -1.5699  0.5777 -0.7131
  338SOL     hw 1351   5.377   4.207   7.162  0.4126 -1.9238  0.3587
  338SOL     vw 1352   5.309   4.216   7.216  0.0753 -0.4947 -0.2351
  339SOL     ow 1353   1.860   1.892   0.339 -0.2503 -0.6217 -0.1053
  339SOL     hw 1354   1.858   1.851   0.425 -0.0210  0.4265  0.4213
  339SOL     hw 1355   1.953   1.892   0.315 -0.3080 -0.8656 -0.3288
  339SOL     vw 1356   1.872   1.887   0.347 -0.2277 -0.5156 -0.0653
  340SOL     ow 1357   0.180   4.132   3.187  0.0260  1.1118 -0.6552
  340SOL     hw 1358   0.185   4.042   3.155 -0.4384  1.0966 -0.6876
  340SOL     hw 1359   0.126   4.177   3.123 -1.2003  1.0038  0.2699
  340SOL     vw 1360   0.174   4.126   3.175 -0.1971  1.0958 -0.5374
  341SOL     ow 1361   5.667   5.442   5.784  0.1637  0.0246  0.3607
  341SOL     hw 1362   5.739   5.504   5.783  0.4687 -0.3351 -0.4898
  341SOL     hw 1363   5.700   5.368   5.835  0.6097 -0.3733 -0.4840
  341SOL     vw 1364   5.681   5.440   5.791  0.2630 -0.0753  0.1369
  342SOL     ow 1365   4.659   2.513   6.940  0.3294 -0.4835  0.2651
  342SOL     hw 1366   4.571   2.499   6.907  0.9083 -3.0982 -0.4352
  342SOL     hw 1367   4.716   2.475   6.873  1.8747 -0.3569  1.4466
  342SOL     vw 1368   4.655   2.506   6.927  0.6096 -0.8118  0.3285
  343SOL     ow 1369   6.209   6.876   1.272 -0.0259  0.0162  0.3253
  343SOL     hw 1370   6.205   6.826   1.353  0.3497 -1.5916 -0.6139
  343SOL     hw 1371   6.279   6.836   1.222 -1.0818  0.1366 -1.3247
  343SOL     vw 1372   6.218   6.864   1.276 -0.1156 -0.1805 -0.0163
  344SOL     ow 1373   4.852   1.371   0.674  0.8160  0.4587 -0.2377
  344SOL     hw 1374   4.910   1.380   0.598 -0.7116  0.5677 -1.4271
  344SOL     hw 1375   4.879   1.288   0.714  1.2938  0.1228 -1.2136
  344SOL     vw 1376   4.864   1.361   0.670  0.6776  0.4287 -0.5234
  345SOL     ow 1377   2.330   6.911   6.280  0.1234  0.1136  0.4746
  345SOL     hw 1378   2.301   6.870   6.198 -1.4013 -0.1128  1.0994
  345SOL     hw 1379   2.251   6.915   6.334  0.0295  4.3329  0.2894
  345SOL     vw 1380   2.316   6.906   6.276 -0.0901  0.6406  0.5326
  346SOL     ow 1381   4.146   5.524   2.422 -0.3216  0.6043  0.3054
  346SOL     hw 1382   4.127   5.618   2.422 -1.5952  0.3638 -0.5407
  346SOL     hw 1383   4.113   5.493   2.338 -1.7267 -0.9314  1.3663
  346SOL     vw 1384   4.139   5.532   2.411 -0.6747  0.3700  0.3337
  347SOL     ow 1385   6.753   2.025   4.082  0.4771 -0.0469 -0.5849
  347SOL     hw 1386   6.733   2.094   4.145  1.0187  0.5697 -1.0740
  347SOL     hw 1387   6.704   2.048   4.003  0.1945 -0.5437 -0.5572
  347SOL     vw 1388   6.744   2.037   4.080  0.5112 -0.0311 -0.6456
  348SOL     ow 1389   2.493   6.946   6.959  0.2063 -0.1252  0.1118
  348SOL     hw 1390   2.527   6.856   6.961  1.0810  0.1199 -1.9754
  348SOL     hw 1391   2.570   7.001   6.953 -0.3866  0.6358 -0.8819
  348SOL     vw 1392   2.507   6.941   6.959  0.2434  0.0074 -0.2949
  349SOL     ow 1393   1.141   6.132   4.599  0.2201  0.4187 -0.2264
  349SOL     hw 1394   1.112   6.192   4.531  0.0104 -0.9013 -1.3532
  349SOL     hw 1395   1.205   6.075   4.555  1.2446  0.5084  1.0847
  349SOL     vw 1396   1.146   6.132   4.584  0.3275  0.2561 -0.2019
  350SOL     ow 1397   1.435   4.376   1.699  0.0365  0.2980 -0.3759
  350SOL     hw 1398   1.383   4.368   1.620 -0.7741 -0.9391  0.2433
  350SOL     hw 1399   1.486   4.294   1.703 -0.5733 -0.0490  0.7962
  350SOL     vw 1400   1.435   4.364   1.689 -0.1510  0.0889 -0.1396
  351SOL     ow 1401   0.815   1.864   1.962  0.6111  0.4466 -0.3293
  351SOL     hw 1402   0.806   1.850   2.056 -2.3533  2.4515 -0.2051
  351SOL     hw 1403   0.888   1.925   1.953  0.5630  0.6659  0.7209
  351SOL     vw 1404   0.824   1.870   1.973  0.2136  0.7401 -0.1743
  352SOL     ow 1405   2.486   0.062   1.863  0.3434  0.7829  0.7119
  352SOL     hw 1406   2.392   0.073   1.879 -0.1892 -1.0747 -0.7467
  352SOL     hw 1407   2.502   0.109   1.781 -0.2174 -1.9258 -1.0991
  352SOL     vw 1408   2.476   0.069   1.854  0.1992  0.1804  0.2805
  353SOL     ow 1409   6.553   1.733   3.821 -0.1074  0.0943 -0.1474
  353SOL     hw 1410   6.607   1.663   3.857  1.8583  1.8335  0.4869
  353SOL     hw 1411   6.468   1.723   3.865  0.6885 -0.8033  1.2488
  353SOL     vw 1412   6.549   1.722   3.832  0.2570  0.2053  0.1205
  354SOL     ow 1413   6.216   4.071   3.944 -0.0598  0.7798  0.3312
  354SOL     hw 1414   6.288   4.028   3.897 -0.6737  1.0296 -0.8745
  354SOL     hw 1415   6.260   4.131   4.004  0.7456  1.2368 -0.6781
  354SOL     vw 1416   6.231   4.073   3.945 -0.0346  0.8731  0.0390
  355SOL     ow 1417   4.627   0.874   3.744 -0.4711  0.3704 -0.2482
  355SOL     hw 1418   4.622   0.968   3.765 -0.0368  1.0127 -2.7651
  355SOL     hw 1419   4.554   0.858   3.685  0.1852 -0.6044 -0.8151
  355SOL     vw 1420   4.617   0.884   3.739 -0.3273  0.3265 -0.6551
  356SOL     ow 1421   1.877   4.570   5.821 -0.2376  0.9095 -0.0780
  356SOL     hw 1422   1.965   4.538   5.841 -0.9889  0.2577  2.5877
  356SOL     hw 1423   1.879   4.588   5.727  1.3769 -3.5353 -1.1727
  356SOL     vw 1424   1.889   4.568   5.811 -0.1237  0.2372  0.1290
  357SOL     ow 1425   2.759   0.440   5.341  0.0202  0.7406  0.1390
  357SOL     hw 1426   2.781   0.478   5.426 -1.0846 -0.4381  0.9938
  357SOL     hw 1427   2.788   0.349   5.347 -0.4068  0.5435 -0.6021
  357SOL     vw 1428   2.766   0.433   5.353 -0.1819  0.5590  0.1540
  358SOL     ow 1429   4.891   1.717   4.323  0.1289 -0.2467 -0.0308
  358SOL     hw 1430   4.887   1.763   4.239 -0.3155  1.7346  0.9920
  358SOL     hw 1431   4.799   1.699   4.345  0.2002 -0.2428  0.2819
  358SOL     vw 1432   4.878   1.721   4.315  0.0794  0.0152  0.1454
  359SOL     ow 1433   1.997   7.172   1.003 -0.1419  0.7915 -0.2522
  359SOL     hw 1434   2.026   7.241   0.943 -0.6204  0.2067 -1.1834
  359SOL     hw 1435   2.041   7.191   1.086  0.9110  1.3482 -0.9228
  359SOL     vw 1436   2.006   7.183   1.006 -0.0660  0.7880 -0.4635
  360SOL     ow 1437   1.132   1.512   3.309 -0.1900  0.7964  0.2071
  360SOL     hw 1438   1.096   1.462   3.382  0.8779  1.4408  1.2018
  360SOL     hw 1439   1.202   1.456   3.274 -1.0091  0.2784 -0.6586
  360SOL     vw 1440   1.137   1.498   3.314 -0.1572  0.8131  0.2241
  361SOL     ow 1441   4.740   6.353   3.999  0.4052  0.1425 -0.2153
  361SOL     hw 1442   4.788   6.359   3.916  1.8475 -0.5240  0.5507
  361SOL     hw 1443   4.679   6.427   3.996 -0.2587 -0.4211 -2.2870
  361SOL     vw 1444   4.738   6.364   3.987  0.5081 -0.0200 -0.3875
  362SOL     ow 1445   4.988   3.405   4.785  0.1928  0.8384  0.0148
  362SOL     hw 1446   5.027   3.356   4.858  0.3849  2.3710  0.9871
  362SOL     hw 1447   4.894   3.391   4.795  0.3340 -1.9787 -1.6927
  362SOL     vw 1448   4.980   3.397   4.796  0.2367  0.6689 -0.0825
  363SOL     ow 1449   6.172   1.331   0.860 -0.0745 -0.8668 -0.2476
  363SOL     hw 1450   6.121   1.403   0.822 -1.3160  0.1625  2.9845
  363SOL     hw 1451   6.263   1.354   0.841 -0.4557  1.4101  0.3094
  363SOL     vw 1452   6.178   1.344   0.853 -0.2887 -0.4306  0.2523
  364SOL     ow 1453   6.053   4.847   5.806 -0.2781 -0.1421 -0.1066
  364SOL     hw 1454   5.984   4.908   5.832 -1.0098 -1.2176  0.5499
  364SOL     hw 1455   6.134   4.889   5.834 -0.7658  0.5370  0.3182
  364SOL     vw 1456   6.054   4.860   5.813 -0.4389 -0.1943  0.0360
  365SOL     ow 1457   1.758   2.874   2.069 -0.3869 -0.5783  0.1893
  365SOL     hw 1458   1.703   2.936   2.117 -1.4186  0.1086 -1.7522
  365SOL     hw 1459   1.760   2.796   2.125  0.4679  0.9511  2.4154
  365SOL     vw 1460   1.751   2.872   2.082 -0.4103 -0.2860  0.2267
  366SOL     ow 1461   3.847   3.546   2.660  1.0173 -0.2704 -0.4524
  366SOL     hw 1462   3.935   3.582   2.646  1.5695 -2.1481 -2.4251
  366SOL     hw 1463   3.832   3.556   2.754  1.8832  3.1789 -0.5423
  366SOL     vw 1464   3.857   3.552   2.671  1.2046 -0.0632 -0.7247
  367SOL     ow 1465   3.695   3.877   7.119  0.2790 -0.2551 -0.1528
  367SOL     hw 1466   3.786   3.855   7.101  0.0042 -1.1444 -0.4834
  367SOL     hw 1467   3.686   3.870   7.214  0.5594 -0.1387 -0.1186
  367SOL     vw 1468   3.705   3.873   7.129  0.2798 -0.3570 -0.1919
  368SOL     ow 1469   5.232   6.041   2.406  0.0270  0.1956 -0.0310
  368SOL     hw 1470   5.201   6.109   2.346 -0.0458  1.2446  1.1336
  368SOL     hw 1471   5.185   6.059   2.488  0.9719 -0.4680  0.6741
  368SOL     vw 1472   5.222   6.052   2.409  0.1421  0.2463  0.2156
  369SOL     ow 1473   1.482   6.697   3.262 -0.3941 -0.2422  0.4071
  369SOL     hw 1474   1.447   6.630   3.322 -0.7937  0.3070  0.7926
  369SOL     hw 1475   1.405   6.733   3.219 -0.5281  2.0144  2.3370
  369SOL     vw 1476   1.467   6.693   3.264 -0.4644  0.1283  0.7126
  370SOL     ow 1477   2.025   2.820   2.119  0.7024 -0.5296 -0.0840
  370SOL     hw 1478   2.104   2.768   2.132  0.7036 -0.7669 -0.9491
  370SOL     hw 1479   1.980   2.817   2.203  0.8397 -1.7011 -0.0317
  370SOL     vw 1480   2.030   2.813   2.132  0.7206 -0.7156 -0.1912
  371SOL     ow 1481   2.462   3.892   1.007  0.9556  0.4966  0.3780
  371SOL     hw 1482   2.474   3.986   0.996 -1.3060  0.7123 -0.9174
  371SOL     hw 1483   2.498   3.854   0.927 -0.5811  0.5541 -0.3774
  371SOL     vw 1484   2.468   3.899   0.995  0.4545  0.5327  0.1074
  372SOL     ow 1485   5.154   6.949   4.372  0.9469  0.5852  0.4175
  372SOL     hw 1486   5.221   7.010   4.340  0.2986  1.7923  1.2999
  372SOL     hw 1487   5.156   6.957   4.467 -0.5453  0.7587  0.4588
  372SOL     vw 1488   5.163   6.958   4.380  0.6647  0.7672  0.5391
  373SOL     ow 1489   1.582   1.727   6.802 -0.7417  0.0056 -0.4774
  373SOL     hw 1490   1.495   1.687   6.798 -0.2641 -1.1455  0.0227
  373SOL     hw 1491   1.577   1.802   6.743 -1.5564 -1.0634 -1.8374
  373SOL     vw 1492   1.569   1.731   6.794 -0.7862 -0.2872 -0.5913
  374SOL     ow 1493   6.810   1.209   2.467  0.1824 -0.2568 -0.0553
  374SOL     hw 1494   6.898   1.195   2.501  0.3740 -1.0645 -0.8580
  374SOL     hw 1495   6.821   1.213   2.372 -0.8298 -1.9981 -0.2822
  374SOL     vw 1496   6.823   1.207   2.459  0.0741 -0.5931 -0.1911
  375SOL     ow 1497   2.229   0.872   5.656 -0.0987  0.0706 -0.4592
  375SOL     hw 1498   2.294   0.854   5.589  0.6227 -0.0885  0.2722
  375SOL     hw 1499   2.275   0.860   5.739 -1.0817 -0.1479  0.0770
  375SOL     vw 1500   2.243   0.868   5.659 -0.1332  0.0208 -0.2916
  376SOL     ow 1501   5.728   0.495   6.430  0.0911 -0.6865  0.2647
  376SOL     hw 1502   5.643   0.506   6.387 -0.7996 -2.1982  1.5325
  376SOL     hw 1503   5.777   0.574   6.406 -1.1621 -0.4065 -1.6036
  376SOL     vw 1504   5.723   0.507   6.421 -0.1917 -0.8490  0.1855
  377SOL     ow 1505   7.257   2.827   1.835  0.6811 -0.1748  0.4730
  377SOL     hw 1506   7.241   2.742   1.878  0.4301  0.3258  1.3944
  377SOL     hw 1507   7.172   2.869   1.834  1.0918  0.7120  1.4505
  377SOL     vw 1508   7.244   2.821   1.841  0.7019  0.0083  0.7235
  378SOL     ow 1509   6.220   4.299   0.469  0.1283  0.0956  0.6305
  378SOL     hw 1510   6.297   4.298   0.412 -1.3654 -0.1010 -1.4866
  378SOL     hw 1511   6.238   4.231   0.533  0.9429 -1.2677 -0.9538
  378SOL     vw 1512   6.233   4.290   0.470  0.0389 -0.1101  0.1422
  379SOL     ow 1513   1.041   6.828   0.930 -0.8467 -0.0778  0.3745
  379SOL     hw 1514   0.952   6.858   0.948 -1.2038 -2.1496  2.3709
  379SOL     hw 1515   1.081   6.815   1.016  1.5523  1.0751 -0.4556
  379SOL     vw 1516   1.035   6.830   0.943 -0.5773 -0.1991  0.5284
  380SOL     ow 1517   3.509   7.115   6.343 -0.0600  0.1582 -0.3028
  380SOL     hw 1518   3.453   7.037   6.344 -1.2278  0.9558 -0.2949
  380SOL     hw 1519   3.520   7.137   6.436 -1.5342  1.1998 -0.3384
  380SOL     vw 1520   3.503   7.108   6.356 -0.4084  0.4005 -0.3064
  381SOL     ow 1521   6.259   1.191   3.665  0.1863 -0.6325  1.0368
  381SOL     hw 1522   6.322   1.258   3.639  0.3282 -1.4873 -1.0442
  381SOL     hw 1523   6.304   1.140   3.732  1.9817 -1.5281 -0.7533
  381SOL     vw 1524   6.273   1.193   3.670  0.4418 -0.8634  0.5261
  382SOL     ow 1525   3.810   6.178   5.896 -0.7719 -0.3123  0.1459
  382SOL     hw 1526   3.850   6.205   5.814  0.0795 -2.1387 -0.0762
  382SOL     hw 1527   3.716   6.176   5.878 -0.5277 -1.6614 -1.1075
  382SOL     vw 1528   3.803   6.182   5.883 -0.6273 -0.7317 -0.0489
  383SOL     ow 1529   6.491   1.928   2.996 -0.0786  0.0201 -0.6426
  383SOL     hw 1530   6.452   1.840   3.001 -0.6692  0.1817 -1.8477
  383SOL     hw 1531   6.416   1.987   2.999  0.2768  0.4573 -0.3722
  383SOL     vw 1532   6.476   1.924   2.997 -0.1094  0.0991 -0.7660
  384SOL     ow 1533   6.860   4.056   6.527  0.2249 -0.4405 -0.1888
  384SOL     hw 1534   6.909   3.980   6.495 -1.5655 -1.5047 -0.5697
  384SOL     hw 1535   6.778   4.019   6.560 -0.8573  1.3521 -0.7158
  384SOL     vw 1536   6.855   4.041   6.527 -0.1540 -0.3443 -0.3088
  385SOL     ow 1537   4.488   2.475   2.721  0.0375  0.3916  0.0157
  385SOL     hw 1538   4.500   2.570   2.720  0.4288  0.3417 -1.1285
  385SOL     hw 1539   4.568   2.441   2.760  0.6092  0.4497 -1.0870
  385SOL     vw 1540   4.500   2.483   2.726  0.1645  0.3928 -0.2806
  386SOL     ow 1541   5.976   5.692   5.092 -0.2199 -0.4462 -0.5092
  386SOL     hw 1542   6.011   5.622   5.038  1.3529  0.4819 -0.7545
  386SOL     hw 1543   5.918   5.741   5.034  0.7154 -0.0266 -1.1271
  386SOL     vw 1544   5.973   5.690   5.077  0.1111 -0.2682 -0.6230
  387SOL     ow 1545   4.163   0.284   6.601 -0.8442  0.2794 -0.5044
  387SOL     hw 1546   4.073   0.312   6.618  0.0149  2.8702  0.3321
  387SOL     hw 1547   4.207   0.364   6.570  1.6041 -0.4051  0.9391
  387SOL     vw 1548   4.157   0.298   6.599 -0.4075  0.5309 -0.2036
  388SOL     ow 1549   1.123   5.929   4.825  0.1035  0.9174 -0.1547
  388SOL     hw 1550   1.120   5.835   4.806  1.1022  1.0475 -1.0817
  388SOL     hw 1551   1.122   5.971   4.739 -1.5117  1.8265  0.2720
  388SOL     vw 1552   1.123   5.922   4.811  0.0222  1.0548 -0.2208
  389SOL     ow 1553   0.318   3.836   1.589  0.0786  0.0911 -0.5627
  389SOL     hw 1554   0.272   3.907   1.635 -0.2844 -0.5770  0.1278
  389SOL     hw 1555   0.391   3.814   1.647  0.3714  0.1091 -0.9256
  389SOL     vw 1556   0.321   3.843   1.603  0.0693  0.0052 -0.5195
  390SOL     ow 1557   0.309   0.725   2.052 -0.7964  0.3813 -0.5359
  390SOL     hw 1558   0.244   0.658   2.031  0.1188 -0.6161 -0.2753
  390SOL     hw 1559   0.381   0.677   2.092 -0.0688  1.5168 -0.4347
  390SOL     vw 1560   0.310   0.710   2.054 -0.5797  0.3995 -0.4882
  391SOL     ow 1561   7.017   1.147   5.183 -0.1373 -0.0585 -0.0826
  391SOL     hw 1562   7.084   1.080   5.168 -0.3357 -0.3728  0.3977
  391SOL     hw 1563   6.968   1.114   5.259 -2.1038 -0.8315 -1.6246
  391SOL     vw 1564   7.019   1.134   5.191 -0.4230 -0.2020 -0.2229
  392SOL     ow 1565   2.906   6.590   0.937 -0.6628  0.1064 -0.2286
  392SOL     hw 1566   2.934   6.501   0.959  3.4479  1.1344 -0.4236
  392SOL     hw 1567   2.843   6.613   1.005 -1.6452 -2.8077 -0.0256
  392SOL     vw 1568   2.902   6.581   0.949 -0.2501 -0.1423 -0.2275
  393SOL     ow 1569   5.172   6.065   3.265 -0.1301  0.1683  0.6473
  393SOL     hw 1570   5.170   6.122   3.188 -1.7936  0.8972  1.1917
  393SOL     hw 1571   5.103   6.001   3.249  1.2250 -1.3050  0.3863
  393SOL     vw 1572   5.163   6.064   3.253 -0.1709  0.0701  0.6846
  394SOL     ow 1573   3.354   0.671   2.050 -0.2350  0.3100 -0.5869
  394SOL     hw 1574   3.370   0.587   2.092  1.2882  1.7764  1.9891
  394SOL     hw 1575   3.276   0.705   2.093  0.6767  1.3292  0.3187
  394SOL     vw 1576   3.346   0.664   2.061  0.0863  0.6379 -0.1276
  395SOL     ow 1577   5.167   2.806   1.292  0.6661 -0.4761 -0.4240
  395SOL     hw 1578   5.102   2.858   1.340  0.8163 -0.1485 -0.5748
  395SOL     hw 1579   5.175   2.725   1.343  0.8095 -0.1423  0.0924
  395SOL     vw 1580   5.159   2.802   1.305  0.7050 -0.3889 -0.3758
  396SOL     ow 1581   6.777   2.911   1.068 -0.4077  0.6176  0.1124
  396SOL     hw 1582   6.705   2.860   1.030  0.8058  1.6122 -4.0406
  396SOL     hw 1583   6.755   3.002   1.049  1.7903  0.9573 -1.2257
  396SOL     vw 1584   6.765   2.916   1.061  0.0424  0.7936 -0.6121
  397SOL     ow 1585   7.266   0.388   1.257 -0.9244 -0.3925 -0.1681
  397SOL     hw 1586   7.252   0.345   1.341 -0.0950 -0.8598 -0.2647
  397SOL     hw 1587   7.276   0.481   1.280 -2.9896 -0.1695  0.0093
  397SOL     vw 1588   7.266   0.395   1.271 -1.0875 -0.4247 -0.1574
  398SOL     ow 1589   4.634   1.976   5.999 -0.5726 -0.0544  1.0076
  398SOL     hw 1590   4.614   1.905   6.060 -0.8789  0.1616  1.1611
  398SOL     hw 1591   4.683   2.039   6.051  0.5635 -0.5972  0.6224
  398SOL     vw 1592   4.638   1.975   6.014 -0.4630 -0.0975  0.9770
  399SOL     ow 1593   5.662   3.461   6.561 -0.0746 -0.0627  0.4095
  399SOL     hw 1594   5.574   3.423   6.555 -0.6104  1.3242 -2.9042
  399SOL     hw 1595   5.651   3.537   6.619 -1.5162  0.9559 -1.0976
  399SOL     vw 1596   5.649   3.466   6.568 -0.3355  0.2548 -0.2265
  400SOL     ow 1597   2.079   3.608   3.605 -0.3429 -0.4687  0.1733
  400SOL     hw 1598   2.093   3.517   3.629  2.1837  0.6671  4.0060
  400SOL     hw 1599   2.163   3.638   3.571 -1.1232  0.4917 -1.0114
  400SOL     vw 1600   2.092   3.600   3.604 -0.1125 -0.1920  0.5226
  401SOL     ow 1601   3.704   0.408   0.418  0.4788  0.5754 -0.4857
  401SOL     hw 1602   3.630   0.350   0.397  2.0652 -0.9715 -2.2034
  401SOL     hw 1603   3.731   0.381   0.506 -0.1546  0.2306 -0.3885
  401SOL     vw 1604   3.698   0.397   0.427  0.6046  0.3258 -0.6995
  402SOL     ow 1605   4.171   6.456   6.715 -0.0796  0.1598 -0.4335
  402SOL     hw 1606   4.242   6.392   6.703  1.5287  1.7335  0.3016
  402SOL     hw 1607   4.129   6.460   6.629  2.6859  1.3762 -1.8648
  402SOL     vw 1608   4.175   6.448   6.702  0.4976  0.5279 -0.5252
  403SOL     ow 1609   1.544   3.639   1.462  0.0730 -0.0809 -0.1888
  403SOL     hw 1610   1.602   3.563   1.471  2.0327  1.1457 -1.5162
  403SOL     hw 1611   1.539   3.655   1.368  1.6946  2.7627  0.0685
  403SOL     vw 1612   1.551   3.631   1.451  0.5454  0.4562 -0.3300
  404SOL     ow 1613   2.498   0.409   6.875 -0.3442  0.1749 -0.1042
  404SOL     hw 1614   2.473   0.355   6.800 -1.5208  1.0660 -0.3802
  404SOL     hw 1615   2.567   0.466   6.841 -2.1392  1.8703 -1.1044
  404SOL     vw 1616   2.504   0.409   6.861 -0.7364  0.5162 -0.2728
  405SOL     ow 1617   5.692   7.198   4.339 -0.0790 -0.8513  0.5310
  405SOL     hw 1618   5.724   7.211   4.250 -1.0171 -0.5693  0.2302
  405SOL     hw 1619   5.698   7.104   4.353 -0.1912 -0.9274  0.0760
  405SOL     vw 1620   5.697   7.187   4.329 -0.2177 -0.8242  0.4313
  406SOL     ow 1621   7.272   4.770   6.992  0.4508 -0.2931 -0.2775
  406SOL     hw 1622   7.309   4.687   7.022  1.1461 -0.0955 -0.5613
  406SOL     hw 1623   7.263   4.823   7.072  0.1879 -0.5708 -0.1231
  406SOL     vw 1624   7.276   4.766   7.006  0.5076 -0.3037 -0.2947
  407SOL     ow 1625   7.020   3.070   2.815 -0.7294  0.5102  0.0973
  407SOL     hw 1626   7.060   3.047   2.899 -0.6283 -0.1788 -0.1243
  407SOL     hw 1627   6.986   3.158   2.827  0.2100  0.8259  0.5305
  407SOL     vw 1628   7.021   3.078   2.827 -0.5922  0.4607  0.1251
  408SOL     ow 1629   5.859   3.802   1.923  0.1156  0.2563 -0.0719
  408SOL     hw 1630   5.854   3.707   1.908  1.2305  0.5296 -2.7174
  408SOL     hw 1631   5.938   3.813   1.977 -1.4146 -0.4260  2.4878
  408SOL     vw 1632   5.869   3.791   1.928  0.0608  0.2024 -0.0832
  409SOL     ow 1633   2.552   0.780   2.857 -0.1014 -0.5121  0.3920
  409SOL     hw 1634   2.628   0.794   2.800 -0.2750 -0.4289  0.1781
  409SOL     hw 1635   2.563   0.844   2.927 -1.0492  0.9735 -0.7432
  409SOL     vw 1636   2.564   0.790   2.858 -0.2495 -0.3051  0.2140
  410SOL     ow 1637   6.767   5.938   6.990 -0.3049  0.4440  0.1316
  410SOL     hw 1638   6.862   5.940   6.978 -0.2948  1.2704  0.2692
  410SOL     hw 1639   6.736   6.017   6.947 -0.8308  0.6788  0.9134
  410SOL     vw 1640   6.775   5.949   6.983 -0.3729  0.5839  0.2527
  411SOL     ow 1641   5.482   5.966   2.497 -0.3872  0.7088  0.1765
  411SOL     hw 1642   5.392   5.982   2.471 -0.8156  0.6959  1.5632
  411SOL     hw 1643   5.491   6.010   2.581  1.8571  3.4728 -1.3320
  411SOL     vw 1644   5.472   5.974   2.505 -0.1476  1.0717  0.1603
  412SOL     ow 1645   7.168   1.209   0.573  0.5915 -0.0053  0.7090
  412SOL     hw 1646   7.188   1.150   0.646 -0.3877  1.1693  1.9789
  412SOL     hw 1647   7.249   1.257   0.558  0.8855 -0.4595  0.8116
  412SOL     vw 1648   7.181   1.208   0.581  0.5012  0.0898  0.8900
  413SOL     ow 1649   6.919   0.414   5.144 -0.3210 -0.1171  0.2337
  413SOL     hw 1650   6.909   0.501   5.183  1.3452  0.6116 -0.8837
  413SOL     hw 1651   6.843   0.405   5.087 -0.6940  0.4430  0.6296
  413SOL     vw 1652   6.907   0.424   5.142 -0.1507  0.0530  0.1385
  414SOL     ow 1653   3.228   6.610   4.364 -0.6987  0.1019 -0.4179
  414SOL     hw 1654   3.250   6.687   4.312  0.2917  0.4948  0.5322
  414SOL     hw 1655   3.313   6.577   4.394 -1.1933 -0.6183  0.2183
  414SOL     vw 1656   3.242   6.616   4.361 -0.6334  0.0587 -0.2089
  415SOL     ow 1657   1.427   5.631   0.892  0.1382 -0.2062 -0.1634
  415SOL     hw 1658   1.433   5.580   0.973  2.3643 -0.4964 -0.4541
  415SOL     hw 1659   1.415   5.721   0.922  2.3140 -0.1098  0.5952
  415SOL     vw 1660   1.426   5.636   0.907  0.7190 -0.2313 -0.1017
  416SOL     ow 1661   5.655   5.659   6.295  0.0688  0.0005 -0.2050
  416SOL     hw 1662   5.750   5.666   6.288 -0.0365  0.0963 -1.7177
  416SOL     hw 1663   5.625   5.748   6.314  0.1047  0.4615 -2.1714
  416SOL     vw 1664   5.664   5.671   6.297  0.0598  0.0739 -0.6640
  417SOL     ow 1665   3.511   4.321   5.351 -0.2695  0.0301 -0.3972
  417SOL     hw 1666   3.428   4.286   5.381 -0.8578  1.3281 -0.4677
  417SOL     hw 1667   3.569   4.245   5.347 -0.9415 -0.6053  1.3542
  417SOL     vw 1668   3.508   4.306   5.354 -0.4357  0.1178 -0.1755
  418SOL     ow 1669   4.275   4.743   4.228  0.2161  0.2178 -0.1942
  418SOL     hw 1670   4.227   4.815   4.269 -0.8539 -0.7770  0.3789
  418SOL     hw 1671   4.230   4.729   4.145  0.1494 -0.0644 -0.1112
  418SOL     vw 1672   4.263   4.751   4.223  0.0663  0.0491 -0.1078
  419SOL     ow 1673   3.863   4.356   1.420  0.1224 -0.1243  0.1548
  419SOL     hw 1674   3.806   4.390   1.352  1.2742 -0.2266 -0.8866
  419SOL     hw 1675   3.920   4.429   1.443  0.5628 -0.4481  0.1110
  419SOL     vw 1676   3.863   4.370   1.414  0.3325 -0.1805  0.0116
  420SOL     ow 1677   4.173   0.655   4.275 -0.2273 -0.2572 -0.9095
  420SOL     hw 1678   4.078   0.671   4.279 -0.5777 -2.0399 -1.1791
  420SOL     hw 1679   4.185   0.608   4.192  0.3160 -3.1520  0.6528
  420SOL     vw 1680   4.162   0.651   4.265 -0.2017 -0.8744 -0.7389
  421SOL     ow 1681   0.044   6.907   7.123 -0.2777  0.3134 -0.4601
  421SOL     hw 1682   0.120   6.906   7.181  1.2472 -0.0845 -2.3574
  421SOL     hw 1683   0.005   6.820   7.135 -1.3931  1.0237  1.6134
  421SOL     vw 1684   0.049   6.895   7.133 -0.2236  0.3548 -0.4368
  422SOL     ow 1685   7.055   4.435   6.245 -0.5155 -0.2752  0.8516
  422SOL     hw 1686   7.085   4.526   6.246  3.2983 -1.3745  0.5934
  422SOL     hw 1687   7.126   4.386   6.205 -3.4865 -3.1568 -1.4774
  422SOL     vw 1688   7.068   4.441   6.240 -0.4044 -0.8004  0.5102
  423SOL     ow 1689   4.445   5.996   0.081  0.0711 -0.5293  0.3025
  423SOL     hw 1690   4.516   6.045   0.123 -1.2508  3.2094 -1.3939
  423SOL     hw 1691   4.490   5.943   0.015  1.4356  2.9101 -1.8201
  423SOL     vw 1692   4.461   5.995   0.078  0.0772  0.4177 -0.2014
  424SOL     ow 1693   5.631   5.277   7.262 -0.3535  0.5295  0.2361
  424SOL     hw 1694   5.674   5.283   7.176 -0.4955  0.6353  0.1725
  424SOL     hw 1695   5.655   5.190   7.294 -0.2324  0.5214  0.1250
  424SOL     vw 1696   5.640   5.266   7.255 -0.3562  0.5424  0.2129
  425SOL     ow 1697   1.629   4.105   3.889 -0.6084  0.4207 -0.5059
  425SOL     hw 1698   1.701   4.114   3.952 -0.5704  1.1879 -0.6484
  425SOL     hw 1699   1.550   4.099   3.943 -0.4293 -0.7593 -0.3365
  425SOL     vw 1700   1.628   4.105   3.905 -0.5797  0.3662 -0.5022
  426SOL     ow 1701   5.105   6.650   0.336  0.4574  0.4848  0.6231
  426SOL     hw 1702   5.096   6.688   0.424 -0.2205 -0.0661  0.8084
  426SOL     hw 1703   5.065   6.563   0.344  2.1528 -0.3641  0.2700
  426SOL     vw 1704   5.099   6.643   0.349  0.5915  0.2999  0.6009
  427SOL     ow 1705   0.570   2.096   1.185  0.3968  0.0583  0.2448
  427SOL     hw 1706   0.539   2.098   1.276 -0.2979  1.5217 -0.0048
  427SOL     hw 1707   0.658   2.133   1.189  1.3419 -2.0681  0.6279
  427SOL     vw 1708   0.578   2.101   1.198  0.4298 -0.0291  0.2624
  428SOL     ow 1709   6.139   2.322   6.911 -0.8793  0.0900 -0.0898
  428SOL     hw 1710   6.172   2.376   6.839 -2.3305  0.9995 -0.1030
  428SOL     hw 1711   6.211   2.261   6.929  0.3469  1.2376 -0.8599
  428SOL     vw 1712   6.153   2.321   6.904 -0.9091  0.3613 -0.1931
  429SOL     ow 1713   3.399   6.270   5.130  0.4150  0.5892 -0.5131
  429SOL     hw 1714   3.436   6.237   5.049 -0.1959 -0.6768 -0.3085
  429SOL     hw 1715   3.311   6.231   5.134  1.2678 -1.3655  1.8572
  429SOL     vw 1716   3.392   6.260   5.120  0.4469  0.1640 -0.1733
  430SOL     ow 1717   2.672   4.055   2.357 -0.5547 -0.3986  0.3425
  430SOL     hw 1718   2.684   3.969   2.318  0.1509 -0.8297  1.4415
  430SOL     hw 1719   2.671   4.039   2.451  2.4285  1.0215  0.7537
  430SOL     vw 1720   2.674   4.042   2.364 -0.0681 -0.2682  0.5418
  431SOL     ow 1721   2.876   4.163   4.600 -0.2260  0.3797 -0.2726
  431SOL     hw 1722   2.783   4.187   4.609 -0.0664  0.8186  0.2265
  431SOL     hw 1723   2.923   4.245   4.611  0.2021  0.2330 -0.9888
  431SOL     vw 1724   2.870   4.177   4.603 -0.1485  0.4182 -0.3014
  432SOL     ow 1725   1.039   1.912   0.950  0.3991 -0.2370 -0.0804
  432SOL     hw 1726   0.961   1.916   0.895  0.6888 -0.1608 -0.4852
  432SOL     hw 1727   1.106   1.871   0.894  0.8129  0.2209  0.0738
  432SOL     vw 1728   1.038   1.907   0.935  0.4919 -0.1665 -0.1135
  433SOL     ow 1729   3.388   1.854   2.250 -0.1102 -0.2953  0.0216
  433SOL     hw 1730   3.463   1.913   2.245 -1.0392  0.8398 -1.3399
  433SOL     hw 1731   3.404   1.802   2.329  0.1554  2.5814  2.0137
  433SOL     vw 1732   3.400   1.855   2.260 -0.1979  0.2340  0.1048
  434SOL     ow 1733   4.083   7.259   2.470 -0.0174  0.3124  0.2027
  434SOL     hw 1734   4.122   7.277   2.555 -0.0952  0.8889  0.1179
  434SOL     hw 1735   4.143   7.197   2.428  1.0614  1.5326 -0.1111
  434SOL     vw 1736   4.096   7.253   2.476  0.1147  0.5496  0.1502
  435SOL     ow 1737   4.410   4.246   1.308  0.3641  0.0727 -0.4248
  435SOL     hw 1738   4.493   4.293   1.319  0.4410 -0.4088  1.2772
  435SOL     hw 1739   4.436   4.155   1.295  0.1355  0.1289 -1.3342
  435SOL     vw 1740   4.424   4.240   1.307  0.3443  0.0165 -0.3203
  436SOL     ow 1741   1.514   0.469   6.883  0.0450  0.7045  0.1190
  436SOL     hw 1742   1.454   0.398   6.909  0.3034 -0.6108 -2.5518
  436SOL     hw 1743   1.598   0.445   6.922 -0.4863  1.0772  1.5583
  436SOL     vw 1744   1.517   0.457   6.892  0.0090  0.5801 -0.0434
  437SOL     ow 1745   3.998   0.061   4.572  0.2359 -0.6607  0.1473
  437SOL     hw 1746   4.018   0.016   4.490  2.5629  0.0444  0.2739
  437SOL     hw 1747   3.981  -0.010   4.634 -0.1518 -1.2283 -0.5821
  437SOL     vw 1748   3.998   0.046   4.569  0.4917 -0.6425  0.0679
  438SOL     ow 1749   1.065   2.042   1.240  0.2654  0.0137 -0.0631
  438SOL     hw 1750   1.035   2.053   1.150  0.0334 -1.3606 -0.1749
  438SOL     hw 1751   1.014   1.968   1.274  1.0019 -0.0796  0.8968
  438SOL     vw 1752   1.054   2.034   1.233  0.3319 -0.1800  0.0488
  439SOL     ow 1753   3.560   4.606   1.937 -0.1578  0.2441  0.5489
  439SOL     hw 1754   3.640   4.563   1.909  0.1155  1.3383 -0.4245
  439SOL     hw 1755   3.544   4.673   1.871 -1.7816  0.1650  0.8230
  439SOL     vw 1756   3.568   4.609   1.925 -0.3361  0.3781  0.4566
  440SOL     ow 1757   4.139   3.065   3.483 -0.1767 -0.1472 -0.1514
  440SOL     hw 1758   4.131   3.015   3.402  0.5838  0.9698 -0.9350
  440SOL     hw 1759   4.119   3.155   3.459  0.4127  0.2645  0.8162
  440SOL     vw 1760   4.136   3.070   3.469  0.0014  0.0545 -0.1271
  441SOL     ow 1761   6.950   3.410   4.526 -0.1531 -0.6179  0.3687
  441SOL     hw 1762   6.876   3.353   4.505  0.0358 -0.0653 -2.0973
  441SOL     hw 1763   7.023   3.351   4.541 -0.1262 -1.0878 -1.4375
  441SOL     vw 1764   6.950   3.395   4.525 -0.1247 -0.6069 -0.1948
  442SOL     ow 1765   1.916   2.673   5.442  0.0739  0.2790 -0.0346
  442SOL     hw 1766   1.843   2.648   5.498  0.4372 -2.4717 -0.6383
  442SOL     hw 1767   1.986   2.611   5.463  2.0625  2.3663  0.0227
  442SOL     vw 1768   1.916   2.662   5.452  0.3842  0.1916 -0.1066
  443SOL     ow 1769   5.137   7.015   5.822 -0.2843  0.1479  0.3613
  443SOL     hw 1770   5.046   7.028   5.796 -0.5911 -0.5260  1.0850
  443SOL     hw 1771   5.179   7.100   5.804 -0.4729 -0.2248 -2.2414
  443SOL     vw 1772   5.131   7.028   5.816 -0.3493  0.0098  0.1135
  444SOL     ow 1773   4.496   6.194   0.558  0.5548  0.0485  0.6763
  444SOL     hw 1774   4.449   6.129   0.609 -0.3812  0.9765  1.0120
  444SOL     hw 1775   4.563   6.228   0.617  2.2174 -1.8122 -0.0347
  444SOL     vw 1776   4.499   6.190   0.572  0.6506 -0.0749  0.6268
  445SOL     ow 1777   6.619   6.542   0.832  0.0358  0.0400  0.0212
  445SOL     hw 1778   6.656   6.593   0.905  0.6799  2.2746 -1.7542
  445SOL     hw 1779   6.648   6.453   0.849  3.0280  1.0354  0.8012
  445SOL     vw 1780   6.628   6.537   0.844  0.5157  0.4663 -0.1101
  446SOL     ow 1781   6.605   2.627   4.967 -0.1417  0.2082 -0.4133
  446SOL     hw 1782   6.616   2.607   4.874  0.7676 -0.9358 -0.0827
  446SOL     hw 1783   6.672   2.575   5.011 -1.7874 -0.7602  1.0741
  446SOL     vw 1784   6.616   2.618   4.961 -0.2389 -0.0706 -0.1731
  447SOL     ow 1785   2.005   2.747   1.822 -0.0144 -0.1572 -0.4079
  447SOL     hw 1786   2.097   2.759   1.844  0.2484 -0.4374 -1.3059
  447SOL     hw 1787   2.006   2.700   1.738 -0.9744 -0.4724 -0.2588
  447SOL     vw 1788   2.017   2.742   1.814 -0.1065 -0.2358 -0.5067
  448SOL     ow 1789   5.405   3.380   6.598 -0.1408 -0.4080 -0.2236
  448SOL     hw 1790   5.362   3.304   6.559 -0.9697 -0.9341  1.6093
  448SOL     hw 1791   5.355   3.455   6.564 -0.3631 -0.7789 -0.7375
  448SOL     vw 1792   5.393   3.380   6.588 -0.2797 -0.5263 -0.0498
  449SOL     ow 1793   0.291   3.171   0.101 -0.2209 -0.0446 -0.1050
  449SOL     hw 1794   0.337   3.178   0.017  0.4944 -1.9037  0.0877
  449SOL     hw 1795   0.229   3.100   0.088  0.3395 -0.7869  1.1277
  449SOL     vw 1796   0.289   3.163   0.088 -0.0526 -0.3878  0.0831
  450SOL     ow 1797   3.878   3.940   1.253  0.2951  0.3529  0.2683
  450SOL     hw 1798   3.861   3.912   1.163 -0.3451 -1.5431  0.9385
  450SOL     hw 1799   3.821   3.885   1.307  2.0066  0.1348  1.9613
  450SOL     vw 1800   3.869   3.929   1.248  0.4365  0.0740  0.5801
  451SOL     ow 1801   1.712   1.239   3.313 -0.3194  0.0003 -0.4648
  451SOL     hw 1802   1.753   1.293   3.381 -3.4343  2.3303 -0.1993
  451SOL     hw 1803   1.668   1.169   3.361 -0.0706 -0.0713 -0.3428
  451SOL     vw 1804   1.711   1.237   3.328 -0.6975  0.2982 -0.4137
  452SOL     ow 1805   7.166   3.267   4.609  0.3387  0.1349  0.0597
  452SOL     hw 1806   7.232   3.232   4.550 -0.1477  0.9162 -0.9762
  452SOL     hw 1807   7.132   3.190   4.655  1.5957 -0.3261  0.2451
  452SOL     vw 1808   7.170   3.252   4.607  0.4404  0.1770 -0.0522
  453SOL     ow 1809   5.127   0.185   5.473 -0.4385 -0.3216  0.2618
  453SOL     hw 1810   5.203   0.226   5.432 -1.4453  1.6551  0.2391
  453SOL     hw 1811   5.102   0.246   5.543 -1.4792 -1.3801  0.8541
  453SOL     vw 1812   5.134   0.198   5.477 -0.7086 -0.2004  0.3371
  454SOL     ow 1813   4.031   0.321   7.129  0.3504  0.2321 -0.5454
  454SOL     hw 1814   4.092   0.248   7.139 -1.5485 -1.3347  0.3785
  454SOL     hw 1815   4.065   0.371   7.056  1.8630 -1.4598 -1.0730
  454SOL     vw 1816   4.043   0.318   7.121  0.2997 -0.1979 -0.4930
  455SOL     ow 1817   1.799   5.559   3.631 -0.0074 -0.1694 -0.0978
  455SOL     hw 1818   1.792   5.654   3.640 -1.6565 -0.4689  3.3100
  455SOL     hw 1819   1.733   5.536   3.566  0.5490  0.9868 -1.1112
  455SOL     vw 1820   1.789   5.569   3.623 -0.1516 -0.0565  0.2180
  456SOL     ow 1821   4.927   0.813   0.232  0.0878  0.0717 -0.1607
  456SOL     hw 1822   4.982   0.753   0.282 -1.6135  0.4343  2.3507
  456SOL     hw 1823   4.883   0.758   0.168 -1.3172 -1.4655  1.9877
  456SOL     vw 1824   4.928   0.798   0.230 -0.3221 -0.0833  0.4541
  457SOL     ow 1825   0.254   0.915   4.476 -0.0651 -0.1639 -0.0599
  457SOL     hw 1826   0.337   0.873   4.452 -0.9381 -1.1140 -1.6259
  457SOL     hw 1827   0.260   1.003   4.439 -0.1879 -0.6220 -1.2166
  457SOL     vw 1828   0.266   0.921   4.468 -0.1965 -0.3497 -0.4191
  458SOL     ow 1829   3.877   2.300   2.756 -0.1025 -0.1474  0.0308
  458SOL     hw 1830   3.815   2.371   2.737  0.3914  1.7114  4.3163
  458SOL     hw 1831   3.945   2.309   2.690  0.3004  3.9920  0.7582
  458SOL     vw 1832   3.877   2.310   2.745  0.0159  0.6441  0.6922
  459SOL     ow 1833   1.294   0.607   2.877 -0.4667 -0.1324  0.7689
  459SOL     hw 1834   1.272   0.677   2.816  1.6997 -1.1111 -1.3098
  459SOL     hw 1835   1.216   0.596   2.931 -1.2138  3.2025  0.5714
  459SOL     vw 1836   1.281   0.615   2.876 -0.2794  0.1785  0.4686
  460SOL     ow 1837   4.673   2.935   5.590  0.1560  0.3954 -0.0463
  460SOL     hw 1838   4.679   2.991   5.513  1.9887 -0.1215 -0.3275
  460SOL     hw 1839   4.668   2.846   5.555 -0.5232  0.2345  0.4283
  460SOL     vw 1840   4.673   2.930   5.575  0.3080  0.3060 -0.0203
  461SOL     ow 1841   3.589   2.426   5.582 -0.1748  0.3515 -0.3625
  461SOL     hw 1842   3.601   2.464   5.669 -0.4763 -1.7139  0.6406
  461SOL     hw 1843   3.525   2.483   5.539 -1.5472  0.3266  1.5175
  461SOL     vw 1844   3.582   2.439   5.588 -0.3957  0.0757  0.0181
  462SOL     ow 1845   6.039   5.874   5.276 -0.1684  0.0655 -0.6099
  462SOL     hw 1846   6.002   5.963   5.274 -0.5660  0.0448  2.1737
  462SOL     hw 1847   6.003   5.833   5.197 -2.5067  1.4458 -0.3862
  462SOL     vw 1848   6.029   5.881   5.265 -0.5295  0.2451 -0.2131
  463SOL     ow 1849   0.370   6.956   2.822 -0.7065  0.1249 -0.0956
  463SOL     hw 1850   0.461   6.986   2.819  0.2103 -2.2960  0.8168
  463SOL     hw 1851   0.352   6.924   2.734 -0.4427  0.0032 -0.1054
  463SOL     vw 1852   0.380   6.956   2.810 -0.5508 -0.2108  0.0235
  464SOL     ow 1853   3.534   7.202   2.379  0.5920 -0.8187  0.3913
  464SOL     hw 1854   3.452   7.171   2.341  0.0809  1.0334 -0.1163
  464SOL     hw 1855   3.511   7.228   2.468 -0.1495  2.2956 -0.5513
  464SOL     vw 1856   3.520   7.202   2.386  0.4267 -0.1633  0.2000
  465SOL     ow 1857   1.093   0.770   0.565  0.1865 -0.1709  1.2494
  465SOL     hw 1858   1.156   0.698   0.560  0.6127  0.2156  0.9285
  465SOL     hw 1859   1.088   0.804   0.476 -1.0787 -0.6951  1.1006
  465SOL     vw 1860   1.100   0.765   0.553  0.0757 -0.1891  1.1874
  466SOL     ow 1861   0.588   7.109   2.877 -0.1622  0.1284 -0.2481
  466SOL     hw 1862   0.655   7.060   2.828  1.3346  2.1737 -0.4003
  466SOL     hw 1863   0.599   7.079   2.967  3.6321  2.8744  0.4732
  466SOL     vw 1864   0.598   7.098   2.883  0.5359  0.7608 -0.1730
  467SOL     ow 1865   0.073   4.422   4.633 -0.0431 -0.2819 -0.3588
  467SOL     hw 1866   0.011   4.358   4.668  0.4781 -1.0463 -0.8072
  467SOL     hw 1867   0.020   4.500   4.616 -0.3098  0.1579  2.1642
  467SOL     vw 1868   0.058   4.423   4.635 -0.0095 -0.3250 -0.0851
  468SOL     ow 1869   4.666   6.550   5.382 -0.2989 -0.0461 -0.2728
  468SOL     hw 1870   4.706   6.489   5.444 -0.2707 -0.2438 -0.4867
  468SOL     hw 1871   4.650   6.629   5.434  0.6915  0.1644 -0.2714
  468SOL     vw 1872   4.669   6.552   5.397 -0.1643 -0.0446 -0.3011
  469SOL     ow 1873   6.962   2.712   0.918 -0.2214 -0.1429  0.1345
  469SOL     hw 1874   7.008   2.716   0.834 -1.9175  0.6264 -0.7882
  469SOL     hw 1875   6.889   2.652   0.903  0.4780 -1.4434  1.6138
  469SOL     vw 1876   6.959   2.704   0.905 -0.3526 -0.2130  0.2080
  470SOL     ow 1877   1.747   2.389   3.587  0.3294  0.6486  0.3969
  470SOL     hw 1878   1.652   2.397   3.584 -0.0839 -2.8202 -2.2680
  470SOL     hw 1879   1.780   2.477   3.568 -2.2951  1.8713  1.1401
  470SOL     vw 1880   1.739   2.402   3.584 -0.0714  0.3523  0.1434
  471SOL     ow 1881   3.184   6.715   2.614  0.4521 -0.2947  0.0802
  471SOL     hw 1882   3.275   6.707   2.583 -0.8643  1.3235 -5.4420
  471SOL     hw 1883   3.173   6.808   2.632 -0.5001 -0.0948 -1.3473
  471SOL     vw 1884   3.195   6.726   2.612  0.1528 -0.0548 -0.8367
  472SOL     ow 1885   4.684   1.853   5.672  0.3645 -0.0936 -0.0386
  472SOL     hw 1886   4.724   1.840   5.758 -1.2852  0.6530  0.8946
  472SOL     hw 1887   4.612   1.790   5.670 -0.6815  1.0586 -0.1251
  472SOL     vw 1888   4.680   1.843   5.683  0.0088  0.1570  0.0732
  473SOL     ow 1889   0.937   6.893   0.631  0.0614 -0.3426  0.3029
  473SOL     hw 1890   0.911   6.801   0.624  1.7436 -0.7927 -0.3565
  473SOL     hw 1891   0.885   6.938   0.564  2.6052 -1.6179 -2.7530
  473SOL     vw 1892   0.926   6.887   0.621  0.6190 -0.5701 -0.1873
  474SOL     ow 1893   5.371   3.917   6.517 -0.6670  0.3058 -0.5122
  474SOL     hw 1894   5.389   3.833   6.473 -0.4771  0.4425 -0.6971
  474SOL     hw 1895   5.409   3.907   6.604  0.2781  0.5707 -0.8793
  474SOL     vw 1896   5.378   3.904   6.523 -0.5171  0.3589 -0.5851
  475SOL     ow 1897   6.086   5.881   6.456 -0.2161  0.0442 -0.4186
  475SOL     hw 1898   6.091   5.855   6.548 -2.4552  0.3209 -0.1607
  475SOL     hw 1899   6.009   5.937   6.450 -1.8818 -2.2249 -2.9254
  475SOL     vw 1900   6.077   5.885   6.467 -0.7312 -0.2186 -0.7153
  476SOL     ow 1901   6.466   3.952   3.584 -0.8356 -0.0178 -0.0881
  476SOL     hw 1902   6.450   3.900   3.663  0.6985 -1.1317 -0.4451
  476SOL     hw 1903   6.384   3.998   3.568 -1.6501 -0.8991  1.3213
  476SOL     vw 1904   6.453   3.951   3.593 -0.7405 -0.2810  0.0507
  477SOL     ow 1905   6.665   5.035   5.138  0.2625 -0.7713 -0.1029
  477SOL     hw 1906   6.648   5.091   5.062  2.3423 -0.4465 -0.4044
  477SOL     hw 1907   6.650   4.946   5.106  2.8137 -0.7959 -1.5385
  477SOL     vw 1908   6.661   5.031   5.124  0.8736 -0.7315 -0.3321
  478SOL     ow 1909   7.278   5.408   6.582 -0.0763 -0.0074 -0.2935
  478SOL     hw 1910   7.342   5.433   6.515 -0.6985  1.2104 -0.4697
  478SOL     hw 1911   7.238   5.328   6.549  0.2357  0.1055 -0.9603
  478SOL     vw 1912   7.281   5.401   6.569 -0.1171  0.1681 -0.4048
  479SOL     ow 1913   7.023   4.691   0.903 -0.3284 -0.2078 -0.2643
  479SOL     hw 1914   6.966   4.738   0.963 -0.2270 -0.1067 -0.2486
  479SOL     hw 1915   7.058   4.758   0.844  0.8629 -0.0597  0.5808
  479SOL     vw 1916   7.020   4.706   0.903 -0.1578 -0.1750 -0.1507
  480SOL     ow 1917   3.359   3.816   2.567 -0.1785  0.1426 -0.0839
  480SOL     hw 1918   3.452   3.838   2.571 -0.2240  0.3417 -0.1152
  480SOL     hw 1919   3.321   3.858   2.644  0.3524 -2.8897  2.0024
  480SOL     vw 1920   3.367   3.824   2.578 -0.1144 -0.2313  0.1873
  481SOL     ow 1921   4.234   4.810   3.796 -0.4155  0.1448  0.4094
  481SOL     hw 1922   4.328   4.794   3.782  0.4190  2.2694  2.8791
  481SOL     hw 1923   4.204   4.848   3.713  1.0251 -0.0377 -0.2353
  481SOL     vw 1924   4.242   4.813   3.783 -0.1154  0.4008  0.6502
  482SOL     ow 1925   6.834   2.662   2.927  0.2830 -0.1151  0.3628
  482SOL     hw 1926   6.833   2.745   2.974  0.7050 -1.3264  2.6490
  482SOL     hw 1927   6.748   2.623   2.946  0.1440 -0.2962 -0.5735
  482SOL     vw 1928   6.822   2.668   2.935  0.3202 -0.2989  0.5410
  483SOL     ow 1929   5.944   5.723   6.275 -0.5114 -0.8000 -0.7010
  483SOL     hw 1930   5.991   5.773   6.341 -0.5620 -0.8022 -0.6632
  483SOL     hw 1931   5.959   5.771   6.193 -0.4819 -0.7754 -0.6813
  483SOL     vw 1932   5.952   5.736   6.273 -0.5143 -0.7968 -0.6936
  484SOL     ow 1933   5.894   2.360   0.213  0.0738  0.4515 -0.4348
  484SOL     hw 1934   5.807   2.379   0.180  0.2031  0.8567 -0.5484
  484SOL     hw 1935   5.931   2.445   0.236 -0.7127  0.0822  2.6031
  484SOL     vw 1936   5.888   2.374   0.211 -0.0129  0.4562 -0.0490
  485SOL     ow 1937   4.094   4.846   4.660  0.2749  0.2918 -0.0129
  485SOL     hw 1938   4.003   4.843   4.690 -0.0109  1.9527 -0.6596
  485SOL     hw 1939   4.140   4.787   4.720 -1.4579 -1.7893 -0.6106
  485SOL     vw 1940   4.088   4.838   4.672  0.0083  0.2365 -0.1771
  486SOL     ow 1941   0.386   0.186   3.678  0.5616  0.4181  0.1362
  486SOL     hw 1942   0.389   0.151   3.588 -0.1800  1.0969 -0.1649
  486SOL     hw 1943   0.293   0.197   3.696  0.7026  0.2009  1.0355
  486SOL     vw 1944   0.374   0.183   3.668  0.4824  0.4790  0.2152
  487SOL     ow 1945   4.548   5.467   5.809 -0.2284 -0.0776  0.2926
  487SOL     hw 1946   4.559   5.376   5.836 -0.5036  0.1391  1.1754
  487SOL     hw 1947   4.571   5.518   5.887  0.6220  0.6371 -0.4060
  487SOL     vw 1948   4.552   5.461   5.823 -0.1526  0.0453  0.3171
  488SOL     ow 1949   2.569   0.246   2.098 -0.0558  0.8786  0.0929
  488SOL     hw 1950   2.545   0.181   2.032  1.8705 -0.1322  0.2985
  488SOL     hw 1951   2.592   0.325   2.049  1.2560  0.1705 -0.5020
  488SOL     vw 1952   2.569   0.248   2.083  0.3713  0.6518  0.0416
  489SOL     ow 1953   1.473   4.652   5.438 -0.1568  0.1413 -0.3436
  489SOL     hw 1954   1.483   4.635   5.531 -4.9407 -0.2341  0.3657
  489SOL     hw 1955   1.518   4.735   5.424 -0.6720  1.0708  2.7402
  489SOL     vw 1956   1.480   4.661   5.448 -0.8559  0.2143  0.1569
  490SOL     ow 1957   1.374   7.300   3.826  0.1234  0.2002 -0.3972
  490SOL     hw 1958   1.313   7.331   3.758  0.5261  1.4455 -0.2099
  490SOL     hw 1959   1.352   7.352   3.903  1.2023  0.4435 -0.2347
  490SOL     vw 1960   1.363   7.311   3.827  0.3188  0.3967 -0.3510
  491SOL     ow 1961   1.021   6.288   6.021 -0.0400  0.5848 -0.6351
  491SOL     hw 1962   1.032   6.205   5.975  0.3534  0.6224 -0.6133
  491SOL     hw 1963   0.936   6.281   6.065  0.3720 -0.1569  0.0743
  491SOL     vw 1964   1.011   6.276   6.021  0.0662  0.4919 -0.5388
  492SOL     ow 1965   5.749   3.414   5.173 -0.2242  0.0305  0.0840
  492SOL     hw 1966   5.693   3.489   5.192  0.5426  0.2536  1.5760
  492SOL     hw 1967   5.721   3.347   5.234 -2.4052 -1.7924 -2.6471
  492SOL     vw 1968   5.738   3.415   5.183 -0.4108 -0.1807 -0.0796
  493SOL     ow 1969   3.564   2.528   0.354  0.0886  0.0104  0.8191
  493SOL     hw 1970   3.496   2.494   0.296  0.3557  0.1632  0.4097
  493SOL     hw 1971   3.624   2.575   0.296 -0.1959  1.0614  1.3489
  493SOL     vw 1972   3.563   2.530   0.339  0.0863  0.1693  0.8350
  494SOL     ow 1973   4.107   1.828   6.851  0.1313  0.3272 -0.5389
  494SOL     hw 1974   4.059   1.778   6.917 -0.1793  0.9562 -0.2776
  494SOL     hw 1975   4.077   1.794   6.767 -2.9904  2.5700 -0.5208
  494SOL     vw 1976   4.097   1.817   6.848 -0.3214  0.7062 -0.5021
  495SOL     ow 1977   2.129   3.976   6.693  0.0283 -0.1989  0.0840
  495SOL     hw 1978   2.134   3.996   6.600  1.5653  0.6203  0.3148
  495SOL     hw 1979   2.135   3.881   6.698 -2.1903 -0.4390 -0.7471
  495SOL     vw 1980   2.130   3.966   6.681 -0.0615 -0.1225  0.0048
  496SOL     ow 1981   5.452   7.279   4.661  0.2483 -0.2133  0.0321
  496SOL     hw 1982   5.451   7.365   4.704 -0.2170  0.2406 -0.8560
  496SOL     hw 1983   5.362   7.267   4.630  0.1372 -1.3259  0.7105
  496SOL     vw 1984   5.440   7.289   4.663  0.1721 -0.3002  0.0043
  497SOL     ow 1985   4.622   5.014   3.568 -0.2735 -0.3067 -0.5161
  497SOL     hw 1986   4.538   4.989   3.531 -1.0547  2.0758 -0.4923
  497SOL     hw 1987   4.685   5.001   3.496 -0.9037 -0.6324 -1.0144
  497SOL     vw 1988   4.619   5.009   3.553 -0.4597 -0.0353 -0.5786
  498SOL     ow 1989   2.362   1.984   6.590 -0.3146 -0.1105  0.6851
  498SOL     hw 1990   2.425   1.940   6.533 -0.5216 -0.7539  0.9554
  498SOL     hw 1991   2.404   1.984   6.676 -1.2755 -1.8267  1.1943
  498SOL     vw 1992   2.376   1.978   6.594 -0.4687 -0.4218  0.7880
  499SOL     ow 1993   2.198   6.419   0.075 -0.6016  0.3725  0.4075
  499SOL     hw 1994   2.131   6.434   0.142  0.7235  2.1620  1.4466
  499SOL     hw 1995   2.247   6.343   0.107 -0.4418  0.7643  1.1431
  499SOL     vw 1996   2.196   6.411   0.088 -0.4057  0.6604  0.6416
  500SOL     ow 1997   2.955   2.575   0.384 -0.4789  0.3113  0.0889
  500SOL     hw 1998   2.877   2.521   0.370 -0.2516  0.1702 -0.6724
  500SOL     hw 1999   2.992   2.544   0.467  1.3254 -2.7850 -1.7252
  500SOL     vw 2000   2.949   2.564   0.393 -0.2109 -0.1159 -0.2509
  501SOL     ow 2001   6.466   5.024   3.858 -0.3243 -0.1839  0.7286
  501SOL     hw 2002   6.541   5.073   3.892  1.2500 -1.6450 -0.4623
  501SOL     hw 2003   6.456   4.950   3.918 -1.8935  0.8208  1.7961
  501SOL     vw 2004   6.474   5.020   3.871 -0.3235 -0.2441  0.7123
  502SOL     ow 2005   4.595   0.739   7.155  0.7331 -0.2018 -0.9185
  502SOL     hw 2006   4.606   0.647   7.129 -0.8003 -1.4490  2.3480
  502SOL     hw 2007   4.507   0.762   7.127 -0.1761 -0.9172  1.1621
  502SOL     vw 2008   4.585   0.729   7.148  0.4106 -0.4607 -0.2129
  503SOL     ow 2009   2.461   6.627   3.579  0.5664  0.1179  0.7637
  503SOL     hw 2010   2.512   6.674   3.513  0.3876  2.5929  2.2194
  503SOL     hw 2011   2.508   6.545   3.593  0.5584 -0.5488 -2.3877
  503SOL     vw 2012   2.474   6.623   3.572  0.5417  0.3567  0.5400
  504SOL     ow 2013   2.768   3.058   6.630  0.5027 -0.5913 -0.4724
  504SOL     hw 2014   2.707   2.991   6.600  1.4927 -0.9407 -1.8078
  504SOL     hw 2015   2.814   3.085   6.551 -0.1137  1.9541 -0.0645
  504SOL     vw 2016   2.766   3.053   6.616  0.5521 -0.3014 -0.5946
  505SOL     ow 2017   2.361   2.156   3.188  0.3096  0.1448  0.2391
  505SOL     hw 2018   2.371   2.218   3.261 -2.2483 -1.1241  1.8351
  505SOL     hw 2019   2.289   2.192   3.137  1.6183  0.6335 -1.3522
  505SOL     vw 2020   2.353   2.169   3.191  0.1448  0.0417  0.2396
  506SOL     ow 2021   3.204   3.219   4.801 -0.1990  1.0284  1.2685
  506SOL     hw 2022   3.187   3.215   4.895  0.3613  0.8353  1.3714
  506SOL     hw 2023   3.118   3.214   4.760 -0.5241  2.1041  1.7908
  506SOL     vw 2024   3.191   3.218   4.808 -0.1678  1.1448  1.3511
  507SOL     ow 2025   1.675   4.350   4.477 -0.8760 -0.6963 -0.0317
  507SOL     hw 2026   1.729   4.274   4.501  2.1036  1.2516 -0.0707
  507SOL     hw 2027   1.737   4.412   4.439 -2.7115  2.6811  2.0716
  507SOL     vw 2028   1.691   4.348   4.475 -0.7250  0.0062  0.2408
  508SOL     ow 2029   0.314   5.968   7.207  0.3739 -0.5523  0.4314
  508SOL     hw 2030   0.260   5.989   7.283  1.6064 -1.7791  1.7072
  508SOL     hw 2031   0.277   5.887   7.173  2.7608 -2.8708  2.8632
  508SOL     vw 2032   0.302   5.960   7.213  0.8514 -1.0200  0.9205
  509SOL     ow 2033   5.754   0.356   6.655  0.4818 -0.5274 -0.6037
  509SOL     hw 2034   5.832   0.386   6.702  0.2072  0.3427 -0.6830
  509SOL     hw 2035   5.752   0.409   6.576 -1.1767  0.8119  0.2426
  509SOL     vw 2036   5.764   0.367   6.651  0.2267 -0.2359 -0.5023
  510SOL     ow 2037   3.568   0.834   1.362  0.4791 -0.2811  0.4225
  510SOL     hw 2038   3.636   0.803   1.422  0.5781  0.4280  0.6934
  510SOL     hw 2039   3.515   0.893   1.416 -2.4419 -3.3116  1.2063
  510SOL     vw 2040   3.570   0.838   1.377  0.1067 -0.5874  0.5617
  511SOL     ow 2041   6.565   1.934   3.638  0.1984  0.1257  0.4721
  511SOL     hw 2042   6.656   1.935   3.608 -0.5469 -0.1637 -2.1017
  511SOL     hw 2043   6.548   1.842   3.659  0.0145 -0.1992 -0.9442
  511SOL     vw 2044   6.575   1.922   3.637  0.0758  0.0446 -0.0546
  512SOL     ow 2045   6.183   4.670   4.305 -0.2951 -0.7589 -0.2180
  512SOL     hw 2046   6.225   4.742   4.351 -0.0014 -0.0974 -1.4956
  512SOL     hw 2047   6.246   4.598   4.310 -0.2407 -0.6812  0.3337
  512SOL     vw 2048   6.197   4.670   4.312 -0.2489 -0.6614 -0.3140
  513SOL     ow 2049   5.533   3.942   2.752  0.2604  0.5138  0.2126
  513SOL     hw 2050   5.589   4.020   2.751 -0.1291  0.7967  0.2000
  513SOL     hw 2051   5.476   3.953   2.676 -1.0164  1.1216  1.2113
  513SOL     vw 2052   5.533   3.954   2.742  0.0408  0.6312  0.3426
  514SOL     ow 2053   6.905   6.245   1.062  0.0106  0.2495  0.5317
  514SOL     hw 2054   6.989   6.258   1.106  0.9503 -2.1215 -0.3921
  514SOL     hw 2055   6.925   6.187   0.989 -2.6557 -1.6682  1.1706
  514SOL     vw 2056   6.918   6.239   1.058 -0.2172 -0.3161  0.4941
  515SOL     ow 2057   5.383   7.292   6.460 -0.4961 -0.3086  0.0566
  515SOL     hw 2058   5.340   7.342   6.390 -0.2551  1.0197  0.8253
  515SOL     hw 2059   5.428   7.221   6.414 -0.9853  0.0718 -1.0546
  515SOL     vw 2060   5.383   7.289   6.444 -0.5286 -0.0832  0.0114
  516SOL     ow 2061   0.185   0.270   6.703 -0.1324 -0.3621 -0.4835
  516SOL     hw 2062   0.219   0.276   6.792 -3.4780 -2.3261  1.1387
  516SOL     hw 2063   0.243   0.208   6.659  0.1711 -1.2854  1.1527
  516SOL     vw 2064   0.197   0.263   6.709 -0.5337 -0.7431 -0.0539
  517SOL     ow 2065   0.461   5.646   6.427 -0.9855 -0.1666 -0.4043
  517SOL     hw 2066   0.469   5.551   6.426 -0.6041 -0.1359 -0.6210
  517SOL     hw 2067   0.430   5.667   6.515  0.0343 -0.4091  0.0218
  517SOL     vw 2068   0.458   5.636   6.438 -0.8006 -0.1945 -0.3767
  518SOL     ow 2069   3.800   2.142   5.171 -0.3947 -0.3120 -0.9785
  518SOL     hw 2070   3.748   2.195   5.231 -0.0406 -0.6358 -0.3679
  518SOL     hw 2071   3.772   2.052   5.188 -0.1695 -0.4224 -1.1780
  518SOL     vw 2072   3.789   2.137   5.181 -0.3183 -0.3692 -0.9241
  519SOL     ow 2073   6.303   2.152   2.776 -0.4002  0.4042  0.1647
  519SOL     hw 2074   6.367   2.217   2.744  0.9629 -1.0428 -0.1633
  519SOL     hw 2075   6.306   2.082   2.711 -3.9443  1.1653 -1.0389
  519SOL     vw 2076   6.312   2.152   2.763 -0.6883  0.3136 -0.0376
  520SOL     ow 2077   3.501   4.260   5.009  0.4444  0.5758  0.0019
  520SOL     hw 2078   3.447   4.219   5.076  2.2159 -1.6800  0.1913
  520SOL     hw 2079   3.478   4.213   4.928  0.7391  0.9058 -0.2754
  520SOL     vw 2080   3.491   4.248   5.007  0.7169  0.3216 -0.0098
  521SOL     ow 2081   5.101   4.487   7.349  0.2264 -0.1202  0.5892
  521SOL     hw 2082   5.009   4.511   7.333  0.6934  0.5832 -1.4309
  521SOL     hw 2083   5.117   4.513   7.439 -1.7104 -0.8031  1.1866
  521SOL     vw 2084   5.091   4.494   7.359  0.0324 -0.1175  0.4015
  522SOL     ow 2085   3.047   5.582   2.993 -0.7052  0.3632 -0.3248
  522SOL     hw 2086   3.084   5.500   3.025 -0.3467  0.5106 -0.3567
  522SOL     hw 2087   3.085   5.650   3.049  2.4653  0.9942 -2.9324
  522SOL     vw 2088   3.057   5.580   3.004 -0.2395  0.4659 -0.6731
  523SOL     ow 2089   6.006   0.093   6.713 -0.0025  0.0089 -0.5561
  523SOL     hw 2090   6.047   0.009   6.689 -1.3503 -0.4892 -1.2289
  523SOL     hw 2091   6.071   0.136   6.769  0.5500 -1.6690  0.1688
  523SOL     vw 2092   6.020   0.088   6.717 -0.1075 -0.2782 -0.5493
  524SOL     ow 2093   5.334   4.642   2.669  0.1461  0.2382  0.0283
  524SOL     hw 2094   5.292   4.556   2.667 -1.8590  1.0768  1.7420
  524SOL     hw 2095   5.426   4.624   2.688 -0.3287 -1.5321  0.8609
  524SOL     vw 2096   5.340   4.628   2.671 -0.1812  0.1152  0.3643
  525SOL     ow 2097   4.357   6.949   1.678  0.1929  0.3193 -0.1353
  525SOL     hw 2098   4.276   6.944   1.628  1.7078  0.7922 -2.8315
  525SOL     hw 2099   4.369   7.043   1.694 -0.4819  0.1489  1.5912
  525SOL     vw 2100   4.348   6.961   1.674  0.3037  0.3595 -0.2633
  526SOL     ow 2101   0.579   1.719   2.228  0.4005 -0.4982 -1.0161
  526SOL     hw 2102   0.570   1.636   2.276  1.6263 -0.4743 -0.7221
  526SOL     hw 2103   0.540   1.785   2.285 -0.1086 -0.7901 -1.0213
  526SOL     vw 2104   0.573   1.716   2.242  0.4950 -0.5336 -0.9781
  527SOL     ow 2105   0.773   3.814   5.197  0.2698 -0.2963  0.1926
  527SOL     hw 2106   0.708   3.857   5.253  1.0740 -1.3076  1.9926
  527SOL     hw 2107   0.819   3.886   5.154 -1.8752  0.4445 -0.9904
  527SOL     vw 2108   0.771   3.829   5.198  0.0928 -0.3319  0.2742
  528SOL     ow 2109   3.642   2.390   6.352 -0.3178  0.5563 -0.3959
  528SOL     hw 2110   3.734   2.408   6.368  0.2084 -1.6041 -0.7002
  528SOL     hw 2111   3.626   2.426   6.264 -0.4259  2.9154  0.5010
  528SOL     vw 2112   3.652   2.397   6.342 -0.2625  0.5826 -0.3176
  529SOL     ow 2113   4.602   5.830   0.544  0.8033 -0.3368 -0.2498
  529SOL     hw 2114   4.599   5.857   0.635 -0.0786  0.4150 -0.4839
  529SOL     hw 2115   4.541   5.756   0.539  2.0694 -1.4360  0.0806
  529SOL     vw 2116   4.593   5.824   0.555  0.8540 -0.3829 -0.2371
  530SOL     ow 2117   0.360   5.422   0.699  0.6473  0.5029  0.1975
  530SOL     hw 2118   0.392   5.494   0.753 -0.0162 -0.0667  1.3892
  530SOL     hw 2119   0.311   5.366   0.760 -1.3871  0.5796 -1.2383
  530SOL     vw 2120   0.357   5.424   0.714  0.2914  0.4380  0.1653
  531SOL     ow 2121   7.048   6.922   3.819  0.0402  0.2015  0.2567
  531SOL     hw 2122   7.110   6.910   3.748  0.8183  0.4850  0.8770
  531SOL     hw 2123   6.986   6.849   3.809  0.7049 -0.3231 -0.1261
  531SOL     vw 2124   7.048   6.911   3.808  0.2306  0.1698  0.2880
  532SOL     ow 2125   4.130   1.607   3.147  0.0791 -0.2716 -0.3083
  532SOL     hw 2126   4.193   1.539   3.174 -0.9960 -1.5869 -0.9700
  532SOL     hw 2127   4.175   1.655   3.078  0.7402 -0.5331 -0.0688
  532SOL     vw 2128   4.144   1.604   3.142  0.0243 -0.4797 -0.3639
  533SOL     ow 2129   1.385   6.645   6.526  0.0467 -0.0334 -0.2940
  533SOL     hw 2130   1.319   6.655   6.594  0.6538 -0.3583  0.3584
  533SOL     hw 2131   1.398   6.550   6.519 -1.8732 -0.2154 -2.7049
  533SOL     vw 2132   1.378   6.634   6.534 -0.1265 -0.1001 -0.5264
  534SOL     ow 2133   7.351   6.981   5.085  0.4522  0.7678  0.4313
  534SOL     hw 2134   7.262   6.965   5.116  1.2771 -1.5273  1.8003
  534SOL     hw 2135   7.358   6.930   5.004  0.7035  0.4802  0.6345
  534SOL     vw 2136   7.340   6.972   5.078  0.5941  0.4268  0.6387
  535SOL     ow 2137   0.457   5.977   3.275 -0.1861 -0.4460 -0.2223
  535SOL     hw 2138   0.518   6.025   3.219  0.3595 -0.8791 -0.0093
  535SOL     hw 2139   0.468   6.017   3.361  0.2280 -0.9047 -0.0571
  535SOL     vw 2140   0.466   5.989   3.279 -0.0595 -0.5636 -0.1726
  536SOL     ow 2141   2.157   2.298   6.299 -0.1555  0.8143  0.3762
  536SOL     hw 2142   2.219   2.280   6.229 -1.0406 -1.2396  0.0278
  536SOL     hw 2143   2.206   2.351   6.362  3.1373 -3.2387  1.6734
  536SOL     vw 2144   2.171   2.302   6.298  0.1622  0.0085  0.5014
  537SOL     ow 2145   7.193   0.715   5.641 -0.0349  0.0531  0.4298
  537SOL     hw 2146   7.169   0.771   5.715  0.2082 -1.1451  1.4502
  537SOL     hw 2147   7.276   0.752   5.610 -1.3947  2.1500 -0.9670
  537SOL     vw 2148   7.201   0.727   5.647 -0.1826  0.1716  0.3803
  538SOL     ow 2149   6.594   6.572   4.182 -0.6376  0.2222 -0.0095
  538SOL     hw 2150   6.637   6.541   4.102 -1.0083 -1.2153  0.3232
  538SOL     hw 2151   6.628   6.515   4.251 -1.3643  0.5505  0.6285
  538SOL     vw 2152   6.604   6.560   4.180 -0.7823  0.0758  0.1187
  539SOL     ow 2153   3.714   2.108   4.906 -0.1049 -0.5077  0.1803
  539SOL     hw 2154   3.789   2.052   4.887  0.9118  0.6761  0.6129
  539SOL     hw 2155   3.725   2.134   4.997 -0.4921  0.4935 -0.0442
  539SOL     vw 2156   3.725   2.104   4.916 -0.0217 -0.2193  0.2079
  540SOL     ow 2157   6.324   4.218   2.890  0.4916  0.4415  0.1843
  540SOL     hw 2158   6.366   4.303   2.900  1.9135  0.1981 -2.6537
  540SOL     hw 2159   6.358   4.184   2.807 -1.6401 -1.9771  0.1737
  540SOL     vw 2160   6.334   4.224   2.880  0.3979  0.0901 -0.1916
  541SOL     ow 2161   4.337   6.400   0.511  0.7803  0.0849 -0.0130
  541SOL     hw 2162   4.407   6.335   0.509  0.6301 -0.0712 -0.4318
  541SOL     hw 2163   4.261   6.354   0.474 -0.2511 -0.5642  2.6899
  541SOL     vw 2164   4.336   6.385   0.506  0.6244 -0.0212  0.2884
  542SOL     ow 2165   6.441   3.782   4.562  0.3263  0.5570 -0.6366
  542SOL     hw 2166   6.465   3.733   4.640 -0.8504 -0.1596 -0.7093
  542SOL     hw 2167   6.428   3.715   4.494  0.6004  1.1139 -1.2525
  542SOL     vw 2168   6.443   3.767   4.563  0.2072  0.5358 -0.7272
  543SOL     ow 2169   2.448   0.099   5.674 -0.7418 -0.2734  0.1405
  543SOL     hw 2170   2.500   0.129   5.599 -2.1262 -0.9212 -1.1083
  543SOL     hw 2171   2.471   0.161   5.744 -0.9544  1.6459 -1.3850
  543SOL     vw 2172   2.458   0.111   5.674 -0.9525 -0.1057 -0.2253
  544SOL     ow 2173   3.034   0.536   3.866  0.4285 -0.2767  0.3515
  544SOL     hw 2174   3.087   0.536   3.946  1.3465 -3.3752 -0.1348
  544SOL     hw 2175   3.052   0.451   3.826 -1.9838  0.1567 -1.8547
  544SOL     vw 2176   3.044   0.525   3.871  0.2314 -0.6283 -0.0037
  545SOL     ow 2177   2.110   6.777   5.462  0.2799 -1.1766 -0.1021
  545SOL     hw 2178   2.168   6.810   5.393  1.2401 -1.2612  0.6475
  545SOL     hw 2179   2.159   6.705   5.501 -0.2703 -1.1451  0.6457
  545SOL     vw 2180   2.124   6.772   5.458  0.3339 -1.1837  0.0956
  546SOL     ow 2181   5.540   0.262   5.416  0.2852 -0.7421  0.0764
  546SOL     hw 2182   5.466   0.291   5.469  1.0334 -0.9406  1.2635
  546SOL     hw 2183   5.535   0.166   5.418  2.3159 -0.9064  2.8346
  546SOL     vw 2184   5.529   0.253   5.423  0.6521 -0.7899  0.5968
  547SOL     ow 2185   1.615   0.488   2.873 -0.4014 -0.3542  0.5360
  547SOL     hw 2186   1.665   0.484   2.954  1.4146  1.9240 -0.3429
  547SOL     hw 2187   1.676   0.458   2.806 -1.2385 -0.4180 -0.2068
  547SOL     vw 2188   1.630   0.484   2.875 -0.2722 -0.0620  0.3220
  548SOL     ow 2189   7.189   5.666   3.131 -0.2156 -0.6355 -0.0765
  548SOL     hw 2190   7.127   5.736   3.153  2.1759  2.5395 -2.3750
  548SOL     hw 2191   7.136   5.587   3.128 -3.6853  1.4573  0.1807
  548SOL     vw 2192   7.174   5.665   3.134 -0.3579  0.0596 -0.3458
  549SOL     ow 2193   7.191   0.183   6.923 -0.2570 -0.0243 -0.6027
  549SOL     hw 2194   7.276   0.176   6.968  0.5193 -1.8840 -2.1972
  549SOL     hw 2195   7.127   0.186   6.994  1.0150 -0.7479  0.6559
  549SOL     vw 2196   7.194   0.182   6.939  0.0129 -0.3652 -0.6468
  550SOL     ow 2197   2.300   7.216   6.340 -0.6094  0.0276 -0.7505
  550SOL     hw 2198   2.283   7.297   6.293  0.2898  1.0777  0.6630
  550SOL     hw 2199   2.267   7.232   6.429 -3.5712 -2.3838 -1.2161
  550SOL     vw 2200   2.293   7.228   6.346 -0.8816 -0.1521 -0.6254
  551SOL     ow 2201   2.942   5.902   6.953  0.4421 -0.2028  1.3315
  551SOL     hw 2202   2.917   5.946   7.035 -1.7416  1.2292  0.0082
  551SOL     hw 2203   2.862   5.903   6.901  2.0604  0.0459 -1.3001
  551SOL     vw 2204   2.928   5.908   6.957  0.3675  0.0193  0.8099
  552SOL     ow 2205   6.336   5.706   6.442 -0.0635 -0.1183  0.3410
  552SOL     hw 2206   6.261   5.752   6.405  0.9717  0.6362 -0.8967
  552SOL     hw 2207   6.300   5.657   6.516 -1.4234  1.6419  0.8904
  552SOL     vw 2208   6.321   5.705   6.447 -0.1061  0.2136  0.2503
  553SOL     ow 2209   6.639   6.064   3.670 -0.7137 -0.2835  0.1190
  553SOL     hw 2210   6.722   6.054   3.625 -1.0324  0.2770 -0.5992
  553SOL     hw 2211   6.628   6.158   3.681 -2.1674 -0.2137 -1.5555
  553SOL     vw 2212   6.648   6.075   3.666 -0.9475 -0.2000 -0.1967
  554SOL     ow 2213   0.379   1.933   5.600  0.0474  0.3959 -0.0281
  554SOL     hw 2214   0.296   1.943   5.554  0.6441  0.8311 -1.0268
  554SOL     hw 2215   0.400   2.021   5.632 -0.0925  0.2017  0.6168
  554SOL     vw 2216   0.371   1.946   5.598  0.1077  0.4277 -0.0749
  555SOL     ow 2217   4.139   6.492   0.127  1.1371  0.2000  0.2377
  555SOL     hw 2218   4.051   6.524   0.147  1.5113  0.7686  1.0280
  555SOL     hw 2219   4.178   6.560   0.072  0.2479 -1.1821 -2.2313
  555SOL     vw 2220   4.133   6.505   0.123  1.0693  0.0927  0.0162
  556SOL     ow 2221   6.652   5.746   6.848 -0.4120 -0.5526 -0.1406
  556SOL     hw 2222   6.739   5.714   6.822  0.6193 -1.5422  3.8749
  556SOL     hw 2223   6.669   5.834   6.883 -1.0663 -0.6694  0.4798
  556SOL     vw 2224   6.666   5.753   6.849 -0.3622 -0.6986  0.4709
  557SOL     ow 2225   6.613   2.389   3.600 -0.2043  0.2548 -0.1289
  557SOL     hw 2226   6.679   2.335   3.556  0.4746  0.4294  0.6604
  557SOL     hw 2227   6.553   2.415   3.530  1.0911  0.8823 -1.0455
  557SOL     vw 2228   6.614   2.385   3.585  0.0563  0.3606 -0.1456
  558SOL     ow 2229   0.376   2.345   6.088  0.7461 -0.1901 -0.4971
  558SOL     hw 2230   0.419   2.365   6.171  0.7313 -2.4109  0.0967
  558SOL     hw 2231   0.427   2.272   6.052 -0.1819 -0.2661 -1.7024
  558SOL     vw 2232   0.389   2.338   6.094  0.6217 -0.4932 -0.5779
  559SOL     ow 2233   3.390   3.843   1.965  0.3543 -0.3453  0.2850
  559SOL     hw 2234   3.450   3.807   1.899 -0.7605 -1.7957  0.0051
  559SOL     hw 2235   3.307   3.851   1.919  0.1075  0.8175  0.9109
  559SOL     vw 2236   3.387   3.839   1.950  0.1746 -0.3833  0.3306
  560SOL     ow 2237   0.190   3.441   0.592  0.1655  0.0224  0.6086
  560SOL     hw 2238   0.211   3.348   0.599 -0.2164 -0.1083  0.0846
  560SOL     hw 2239   0.095   3.444   0.587  0.1983  0.4036  0.1107
  560SOL     vw 2240   0.180   3.430   0.593  0.1194  0.0556  0.4738
  561SOL     ow 2241   2.040   1.061   1.810 -0.2319  0.4452  0.1935
  561SOL     hw 2242   2.002   1.044   1.724  0.1897 -1.8748  0.3951
  561SOL     hw 2243   2.134   1.072   1.793  0.0098 -1.0181  0.3974
  561SOL     vw 2244   2.047   1.060   1.796 -0.1445 -0.0539  0.2469
  562SOL     ow 2245   5.980   0.782   2.990 -0.1436  0.7485  0.4044
  562SOL     hw 2246   5.908   0.816   3.042 -0.3313  1.4376 -0.3010
  562SOL     hw 2247   6.059   0.818   3.032 -0.2271  0.4569  0.8266
  562SOL     vw 2248   5.981   0.791   3.003 -0.1793  0.8010  0.3670
  563SOL     ow 2249   5.900   1.217   4.519  0.6125 -0.4277 -0.2126
  563SOL     hw 2250   5.958   1.243   4.447  0.5011 -0.9035 -0.4825
  563SOL     hw 2251   5.881   1.125   4.501  1.5177 -0.8970  1.0513
  563SOL     vw 2252   5.905   1.208   4.507  0.7172 -0.5524 -0.0818
  564SOL     ow 2253   2.252   1.833   1.100 -0.2613  0.4492  0.5167
  564SOL     hw 2254   2.295   1.858   1.182  1.7600  2.6916 -1.1131
  564SOL     hw 2255   2.273   1.740   1.089 -0.7174  0.0526  2.5633
  564SOL     vw 2256   2.260   1.824   1.110 -0.0548  0.6927  0.5718
  565SOL     ow 2257   6.485   2.804   1.042 -0.1336  0.3612 -0.6441
  565SOL     hw 2258   6.394   2.825   1.021 -0.4739  0.0637  0.5130
  565SOL     hw 2259   6.480   2.745   1.117  0.9798 -0.5329 -1.2503
  565SOL     vw 2260   6.473   2.799   1.049 -0.0315  0.2038 -0.5714
  566SOL     ow 2261   2.640   4.746   2.657 -0.0769  0.3891 -0.0146
  566SOL     hw 2262   2.589   4.665   2.662  0.7406 -0.1420 -0.2059
  566SOL     hw 2263   2.598   4.796   2.586 -1.2866  0.6504  0.8446
  566SOL     vw 2264   2.628   4.742   2.648 -0.1286  0.3533  0.0736
  567SOL     ow 2265   1.680   1.100   6.353 -0.3871 -0.3037  0.2528
  567SOL     hw 2266   1.601   1.086   6.302 -0.3109  3.0295 -0.9848
  567SOL     hw 2267   1.750   1.063   6.300 -0.8770 -1.9825  0.7017
  567SOL     vw 2268   1.679   1.093   6.339 -0.4417 -0.0855  0.1488
  568SOL     ow 2269   1.611   2.047   0.375  0.5378  0.0709 -0.0100
  568SOL     hw 2270   1.565   1.973   0.414  1.0443  0.5488  1.5724
  568SOL     hw 2271   1.551   2.121   0.388 -0.6499 -0.2646 -2.9467
  568SOL     vw 2272   1.597   2.047   0.382  0.4479  0.0898 -0.1887
  569SOL     ow 2273   1.686   0.084   2.364 -0.0593  1.3195 -0.2497
  569SOL     hw 2274   1.701   0.002   2.317  0.1656  1.6834 -0.8313
  569SOL     hw 2275   1.773   0.124   2.370 -0.3421  2.1106 -1.1243
  569SOL     vw 2276   1.700   0.079   2.358 -0.0669  1.4719 -0.4418
  570SOL     ow 2277   5.831   6.046   0.144  0.6712  0.3536 -0.0583
  570SOL     hw 2278   5.855   6.104   0.216 -1.6427  1.9976 -0.4847
  570SOL     hw 2279   5.889   6.071   0.072  0.1091  1.7927 -0.0512
  570SOL     vw 2280   5.842   6.057   0.144  0.2916  0.7603 -0.1136
  571SOL     ow 2281   6.060   2.992   2.683  0.0247  0.0028  0.0074
  571SOL     hw 2282   5.993   3.045   2.726 -0.1337  0.6856 -1.0443
  571SOL     hw 2283   6.113   3.055   2.635  1.5949 -0.4896  0.9942
  571SOL     vw 2284   6.058   3.007   2.683  0.2110  0.0280 -0.0012
  572SOL     ow 2285   0.434   0.707   4.805 -0.2640 -0.1977  0.7634
  572SOL     hw 2286   0.480   0.629   4.837 -0.6380  0.3446  2.7653
  572SOL     hw 2287   0.502   0.774   4.800 -0.2780 -0.1779  0.8340
  572SOL     vw 2288   0.449   0.705   4.809 -0.3152 -0.1236  1.0366
  573SOL     ow 2289   4.830   7.123   1.791  0.0207 -1.0168  0.7933
  573SOL     hw 2290   4.789   7.209   1.782 -1.8309 -1.9395 -0.2903
  573SOL     hw 2291   4.924   7.141   1.798 -0.3437  1.0857  0.7594
  573SOL     vw 2292   4.837   7.137   1.791 -0.2716 -0.8614  0.6459
  574SOL     ow 2293   2.476   7.130   1.938  0.4760 -0.1518  0.5407
  574SOL     hw 2294   2.399   7.135   1.995 -0.2742 -1.6401 -0.2938
  574SOL     hw 2295   2.461   7.052   1.885  0.8011  1.5054 -2.1611
  574SOL     vw 2296   2.464   7.121   1.939  0.4199 -0.1292  0.0741
  575SOL     ow 2297   2.449   5.991   6.056  0.3028  0.0348  0.2020
  575SOL     hw 2298   2.397   5.939   5.994  1.3568  1.0657 -1.6231
  575SOL     hw 2299   2.498   5.926   6.106 -0.7232 -0.8342  0.1257
  575SOL     vw 2300   2.448   5.975   6.054  0.3065  0.0563 -0.0489
  576SOL     ow 2301   1.572   3.596   2.514  0.2940 -0.3525 -0.0393
  576SOL     hw 2302   1.527   3.677   2.491 -0.7392 -0.8138  0.3096
  576SOL     hw 2303   1.514   3.552   2.576  0.5184 -1.6867 -0.7354
  576SOL     vw 2304   1.559   3.601   2.519  0.1874 -0.5894 -0.0851
  577SOL     ow 2305   5.488   7.110   4.882 -0.3024 -0.3647  0.0807
  577SOL     hw 2306   5.430   7.175   4.920  1.7337  0.7642  1.4234
  577SOL     hw 2307   5.431   7.036   4.862 -2.3357  1.0451  0.4266
  577SOL     vw 2308   5.473   7.109   4.885 -0.3021 -0.0298  0.3033
  578SOL     ow 2309   5.074   6.758   4.747 -0.0639  0.0981  0.0767
  578SOL     hw 2310   5.050   6.715   4.665  0.3811  1.8193 -1.0312
  578SOL     hw 2311   5.008   6.827   4.758  1.9257  2.2912 -0.8803
  578SOL     vw 2312   5.062   6.762   4.737  0.2575  0.6142 -0.1955
  579SOL     ow 2313   6.214   6.592   5.452 -0.1353 -0.1918 -0.1979
  579SOL     hw 2314   6.237   6.520   5.394  0.9664  1.1201 -1.4448
  579SOL     hw 2315   6.288   6.600   5.512  0.1195  0.3955 -0.5783
  579SOL     vw 2316   6.227   6.584   5.452  0.0434  0.0587 -0.4125
  580SOL     ow 2317   7.100   2.129   1.825 -0.3759  0.2670  0.0924
  580SOL     hw 2318   7.169   2.114   1.760 -0.3477  3.4675 -0.8040
  580SOL     hw 2319   7.148   2.154   1.904 -0.3079  3.5190 -0.8124
  580SOL     vw 2320   7.116   2.131   1.827 -0.3633  1.1184 -0.1453
  581SOL     ow 2321   3.330   5.652   0.297 -0.2812  0.4185 -0.1516
  581SOL     hw 2322   3.356   5.578   0.243  0.2326 -0.3964  1.1880
  581SOL     hw 2323   3.260   5.694   0.247 -0.1959 -0.6272 -1.1896
  581SOL     vw 2324   3.324   5.648   0.283 -0.2023  0.1729 -0.1119
  582SOL     ow 2325   3.941   1.823   6.395  0.3087 -0.6822  0.0017
  582SOL     hw 2326   3.945   1.766   6.318  0.6310  1.5379 -1.7264
  582SOL     hw 2327   3.939   1.762   6.469 -1.4240 -2.9671 -1.7519
  582SOL     vw 2328   3.941   1.807   6.395  0.1225 -0.6907 -0.4575
  583SOL     ow 2329   3.522   4.851   0.891  0.3979  0.3972 -0.7181
  583SOL     hw 2330   3.482   4.923   0.939  0.3597  0.5788 -1.0150
  583SOL     hw 2331   3.452   4.816   0.837 -0.3254 -1.6432  1.3977
  583SOL     vw 2332   3.508   4.856   0.890  0.2974  0.1521 -0.4781
  584SOL     ow 2333   0.481   0.960   6.773  0.5092  0.6109  0.5931
  584SOL     hw 2334   0.492   0.886   6.832  0.5116  0.1480  0.0223
  584SOL     hw 2335   0.402   1.004   6.803  1.7040  1.7059  2.3238
  584SOL     vw 2336   0.472   0.956   6.784  0.6672  0.6943  0.7463
  585SOL     ow 2337   3.946   6.361   6.139 -0.1816 -0.1462  0.3928
  585SOL     hw 2338   3.942   6.452   6.109  0.1316 -0.7907 -1.7405
  585SOL     hw 2339   4.027   6.356   6.189 -1.2244  1.2138  2.3407
  585SOL     vw 2340   3.956   6.373   6.142 -0.2779 -0.0517  0.3684
  586SOL     ow 2341   3.121   3.191   5.051  0.1511 -0.6459 -0.6455
  586SOL     hw 2342   3.123   3.117   5.111 -1.3787 -0.1606  0.0501
  586SOL     hw 2343   3.040   3.237   5.072  1.5341  1.8309 -0.3453
  586SOL     vw 2344   3.111   3.187   5.061  0.1316 -0.2551 -0.5140
  587SOL     ow 2345   4.428   6.860   1.386 -0.0849 -0.6425 -0.8581
  587SOL     hw 2346   4.470   6.775   1.393  2.5872  0.6178 -0.0873
  587SOL     hw 2347   4.478   6.916   1.446 -2.0235  1.3760 -0.9965
  587SOL     vw 2348   4.440   6.856   1.395  0.0119 -0.2098 -0.7747
  588SOL     ow 2349   1.805   3.826   1.544  0.0829 -0.0900 -0.3656
  588SOL     hw 2350   1.798   3.920   1.565  0.0258  0.0081 -0.8292
  588SOL     hw 2351   1.719   3.802   1.509 -0.7318 -0.8878  1.9710
  588SOL     vw 2352   1.793   3.835   1.542 -0.0322 -0.1822 -0.1186
  589SOL     ow 2353   0.312   5.724   3.166 -0.1208 -0.1130  0.4097
  589SOL     hw 2354   0.381   5.687   3.110  0.0240  0.5536  0.1420
  589SOL     hw 2355   0.233   5.721   3.111  0.4313  2.4872 -0.6617
  589SOL     vw 2356   0.311   5.718   3.151 -0.0289  0.3181  0.2331
  590SOL     ow 2357   3.971   2.578   5.609  0.2428 -0.1458 -0.6565
  590SOL     hw 2358   3.919   2.658   5.617 -1.3214 -1.2071  0.3725
  590SOL     hw 2359   4.006   2.562   5.696 -2.2145 -2.2816  0.0776
  590SOL     vw 2360   3.969   2.586   5.621 -0.2878 -0.5678 -0.4237
  591SOL     ow 2361   0.195   5.002   5.446 -0.2864  0.0526  0.4024
  591SOL     hw 2362   0.181   5.097   5.451 -1.0179 -0.0726  0.9216
  591SOL     hw 2363   0.133   4.971   5.380 -0.6791 -0.1719  0.8672
  591SOL     vw 2364   0.185   5.010   5.438 -0.4347  0.0062  0.5322
  592SOL     ow 2365   7.352   5.323   6.838 -0.5931  0.0099  0.4862
  592SOL     hw 2366   7.324   5.232   6.849 -1.4628  0.1006 -0.7404
  592SOL     hw 2367   7.338   5.341   6.745  0.1841  1.2003  0.5850
  592SOL     vw 2368   7.346   5.313   6.827 -0.6053  0.1791  0.3374
  593SOL     ow 2369   1.596   4.587   4.904  0.3373 -0.5040 -0.5087
  593SOL     hw 2370   1.658   4.515   4.905  0.4823 -0.3805 -0.5615
  593SOL     hw 2371   1.636   4.655   4.957 -0.2759 -0.8527  0.4291
  593SOL     vw 2372   1.609   4.587   4.911  0.2755 -0.5336 -0.3920
  594SOL     ow 2373   7.153   2.636   2.987  0.0118  0.1000  0.0601
  594SOL     hw 2374   7.161   2.732   2.982  2.3790 -0.0335  0.0598
  594SOL     hw 2375   7.192   2.613   3.071  0.1530 -0.9180 -0.2740
  594SOL     vw 2376   7.159   2.646   2.997  0.3428 -0.0520  0.0160
  595SOL     ow 2377   3.243   7.089   3.062  0.4543  0.7227  0.7031
  595SOL     hw 2378   3.156   7.056   3.039  0.0228  1.3358  1.4033
  595SOL     hw 2379   3.282   7.113   2.978  0.3272 -0.4438  0.2967
  595SOL     vw 2380   3.237   7.088   3.048  0.3806  0.6497  0.7418
  596SOL     ow 2381   3.587   2.655   3.892 -0.2982  0.1312  0.4833
  596SOL     hw 2382   3.676   2.688   3.885 -0.0778 -0.7165 -1.0685
  596SOL     hw 2383   3.550   2.700   3.968  1.0033  1.5047  0.3279
  596SOL     vw 2384   3.594   2.665   3.902 -0.0975  0.2007  0.2578
  597SOL     ow 2385   1.196   6.192   3.714 -0.4464  0.1346  0.5566
  597SOL     hw 2386   1.244   6.222   3.791 -0.7218  0.0443  0.7660
  597SOL     hw 2387   1.194   6.268   3.656 -0.2959  0.2243  0.6665
  597SOL     vw 2388   1.202   6.206   3.717 -0.4629  0.1345  0.5987
  598SOL     ow 2389   0.902   6.117   4.957 -0.5010 -0.1647  0.0691
  598SOL     hw 2390   0.962   6.061   4.908 -0.3430 -1.1430  1.3556
  598SOL     hw 2391   0.845   6.057   5.004 -2.9337  0.7256 -1.5585
  598SOL     vw 2392   0.902   6.102   4.957 -0.8011 -0.1762  0.0241
  599SOL     ow 2393   5.654   7.197   7.086  0.3474 -0.0193 -0.2824
  599SOL     hw 2394   5.679   7.257   7.157 -3.4741  1.3741  0.0784
  599SOL     hw 2395   5.645   7.112   7.129  1.3748  0.0672  0.1429
  599SOL     vw 2396   5.656   7.194   7.101 -0.0212  0.1760 -0.1788
  600SOL     ow 2397   3.539   6.260   3.676 -0.2394 -0.3704  0.0448
  600SOL     hw 2398   3.477   6.299   3.737  0.9976  1.1580  0.3753
  600SOL     hw 2399   3.623   6.303   3.695  0.7428 -1.7340 -0.9800
  600SOL     vw 2400   3.542   6.270   3.686  0.0535 -0.3490 -0.0470
  601SOL     ow 2401   6.204   4.866   2.972 -0.6167  0.2351  0.9407
  601SOL     hw 2402   6.235   4.930   2.908 -0.2957 -1.1562 -0.3469
  601SOL     hw 2403   6.115   4.844   2.944 -0.0100 -1.3562  0.1416
  601SOL     vw 2404   6.196   4.872   2.960 -0.4940 -0.1583  0.6653
  602SOL     ow 2405   3.811   4.481   1.898  0.0746  0.5336 -0.2364
  602SOL     hw 2406   3.773   4.399   1.929  2.1939 -0.1478  0.7642
  602SOL     hw 2407   3.820   4.470   1.804  0.5614 -0.5179 -0.0831
  602SOL     vw 2408   3.807   4.469   1.890  0.4185  0.3052 -0.0842
  603SOL     ow 2409   4.199   3.069   1.113  0.0012  0.0236  0.4837
  603SOL     hw 2410   4.278   3.048   1.064 -0.2832 -0.1822  0.1057
  603SOL     hw 2411   4.223   3.056   1.205  0.4358  0.0714  0.3793
  603SOL     vw 2412   4.212   3.065   1.118  0.0210  0.0026  0.4201
  604SOL     ow 2413   6.621   6.621   6.527  0.1680 -0.4712  0.9992
  604SOL     hw 2414   6.634   6.696   6.586  1.3845 -0.3326  0.5737
  604SOL     hw 2415   6.621   6.545   6.585 -0.6013 -0.1863  1.3849
  604SOL     vw 2416   6.623   6.621   6.542  0.2267 -0.4153  0.9942
  605SOL     ow 2417   2.036   1.173   0.489 -0.1721 -0.2085  0.7055
  605SOL     hw 2418   2.029   1.111   0.416 -1.9051  0.4556  0.2758
  605SOL     hw 2419   2.052   1.117   0.565  1.3752 -0.9340 -0.0960
  605SOL     vw 2420   2.037   1.157   0.489 -0.1966 -0.2166  0.5431
  606SOL     ow 2421   3.406   2.755   3.403  0.6575 -0.1749 -0.0832
  606SOL     hw 2422   3.416   2.818   3.332 -0.1869  2.5549  2.0439
  606SOL     hw 2423   3.496   2.727   3.422  1.4225  2.3567  0.4806
  606SOL     vw 2424   3.419   2.760   3.396  0.6469  0.5193  0.2718
  607SOL     ow 2425   6.366   5.553   5.535 -0.4711 -0.3711 -0.1845
  607SOL     hw 2426   6.430   5.624   5.546  0.5321 -1.2017 -0.4540
  607SOL     hw 2427   6.417   5.473   5.549 -1.8344 -1.0261  1.2728
  607SOL     vw 2428   6.381   5.552   5.538 -0.5186 -0.5672 -0.0277
  608SOL     ow 2429   4.248   4.840   5.644  0.0503 -0.0208 -0.6440
  608SOL     hw 2430   4.342   4.836   5.663 -0.2817  0.3389  1.2562
  608SOL     hw 2431   4.209   4.779   5.706 -1.1819  1.6865  0.3325
  608SOL     vw 2432   4.256   4.831   5.655 -0.1559  0.2518 -0.2649
  609SOL     ow 2433   1.687   5.164   7.031  0.5609 -0.2842 -0.2172
  609SOL     hw 2434   1.626   5.179   6.959  0.8772 -0.4930 -0.5323
  609SOL     hw 2435   1.634   5.174   7.110  0.8098  3.0538 -0.3400
  609SOL     vw 2436   1.672   5.167   7.032  0.6355  0.1290 -0.2751
  610SOL     ow 2437   1.676   3.665   1.904 -0.1559 -0.3572  0.1305
  610SOL     hw 2438   1.684   3.736   1.967 -1.6609 -0.3872  0.3776
  610SOL     hw 2439   1.685   3.585   1.956  5.0845 -0.5895 -0.5217
  610SOL     vw 2440   1.678   3.664   1.919  0.3369 -0.3918  0.0771
  611SOL     ow 2441   3.030   1.820   3.725  0.0033  0.4983  0.1880
  611SOL     hw 2442   3.081   1.770   3.788  0.6672  2.2434  1.1232
  611SOL     hw 2443   3.079   1.902   3.715  0.2833  0.0459 -3.1409
  611SOL     vw 2444   3.043   1.824   3.732  0.1279  0.6688 -0.1277
  612SOL     ow 2445   0.873   4.104   2.772  0.5239  0.5582 -0.1324
  612SOL     hw 2446   0.791   4.131   2.813  1.1952  2.0020  0.3537
  612SOL     hw 2447   0.927   4.072   2.844 -0.2027 -2.1341 -0.6827
  612SOL     vw 2448   0.869   4.104   2.787  0.5166  0.3932 -0.1409
  613SOL     ow 2449   6.846   0.105   5.219  0.5024 -0.6059 -0.4203
  613SOL     hw 2450   6.773   0.069   5.168 -0.5047 -2.9692  2.3928
  613SOL     hw 2451   6.887   0.029   5.260  1.0390  1.0561  2.4365
  613SOL     vw 2452   6.842   0.091   5.218  0.4404 -0.6984  0.3278
  614SOL     ow 2453   1.090   2.887   4.044 -0.5346  0.1690  0.2487
  614SOL     hw 2454   1.173   2.905   3.999  0.2358 -0.9114  1.1854
  614SOL     hw 2455   1.093   2.943   4.122 -0.8339  0.3630  0.1207
  614SOL     vw 2456   1.101   2.897   4.048 -0.4725  0.0521  0.3555
  615SOL     ow 2457   1.774   3.451   5.514 -0.4497 -0.1416 -0.2478
  615SOL     hw 2458   1.816   3.436   5.599  0.2204  5.1477  0.7136
  615SOL     hw 2459   1.690   3.406   5.519 -0.2908 -0.2458  3.1192
  615SOL     vw 2460   1.769   3.443   5.526 -0.3403  0.5425  0.3233
  616SOL     ow 2461   5.257   1.521   3.759 -0.6064  0.1171  0.0702
  616SOL     hw 2462   5.164   1.502   3.746 -1.8274  3.4300  2.4063
  616SOL     hw 2463   5.291   1.537   3.671 -2.3527 -0.6484 -0.7963
  616SOL     vw 2464   5.249   1.521   3.746 -0.9980  0.4532  0.2640
  617SOL     ow 2465   3.102   3.905   2.401 -0.0479  0.3685 -0.2058
  617SOL     hw 2466   3.066   3.912   2.490  0.5641  0.7123  0.0273
  617SOL     hw 2467   3.080   3.989   2.360  0.1031  0.4080 -0.2070
  617SOL     vw 2468   3.094   3.917   2.408  0.0529  0.4191 -0.1751
  618SOL     ow 2469   5.679   4.586   4.294  0.2358  0.0839 -0.7524
  618SOL     hw 2470   5.631   4.517   4.249 -0.0357 -0.9598  1.0472
  618SOL     hw 2471   5.743   4.540   4.348  1.5059  1.3503 -1.1218
  618SOL     vw 2472   5.681   4.571   4.295  0.3679  0.1132 -0.5636
  619SOL     ow 2473   0.350   3.624   2.235 -0.2959  0.9777 -0.4974
  619SOL     hw 2474   0.304   3.543   2.257 -0.4234  0.9023 -1.0228
  619SOL     hw 2475   0.338   3.633   2.140 -0.1886  1.5540 -0.4585
  619SOL     vw 2476   0.343   3.614   2.225 -0.2986  1.0438 -0.5617
  620SOL     ow 2477   7.277   6.878   2.141 -0.1387  0.7195 -0.0194
  620SOL     hw 2478   7.245   6.836   2.061  0.2185  2.3837 -1.0954
  620SOL     hw 2479   7.366   6.906   2.118  0.7535 -0.5478  1.6657
  620SOL     vw 2480   7.285   6.876   2.127  0.0262  0.7718  0.0609
  621SOL     ow 2481   3.656   0.919   2.436 -0.0916 -0.2053  0.6463
  621SOL     hw 2482   3.661   0.855   2.365  0.1387  1.2686 -0.7202
  621SOL     hw 2483   3.650   0.866   2.515  3.5780 -2.0143 -0.0984
  621SOL     vw 2484   3.656   0.903   2.437  0.4231 -0.2495  0.3678
  622SOL     ow 2485   0.098   4.307   5.573  0.0520  0.7022  0.1048
  622SOL     hw 2486   0.135   4.285   5.658  2.8579  1.3266 -0.8538
  622SOL     hw 2487   0.024   4.246   5.562  0.4517 -0.2796  2.3663
  622SOL     vw 2488   0.093   4.296   5.582  0.4749  0.6547  0.2768
  623SOL     ow 2489   3.216   5.250   6.786 -0.2446  0.3283 -0.1986
  623SOL     hw 2490   3.137   5.220   6.831 -1.0317 -0.5873 -2.0961
  623SOL     hw 2491   3.184   5.300   6.712  1.0435  3.1661  1.0061
  623SOL     vw 2492   3.202   5.253   6.782 -0.1785  0.5820 -0.2899
  624SOL     ow 2493   3.355   5.091   0.859 -0.9528 -0.5144 -0.3484
  624SOL     hw 2494   3.388   5.131   0.940 -0.1163  0.3064 -1.0622
  624SOL     hw 2495   3.260   5.091   0.869 -0.8342 -1.1992  0.9775
  624SOL     vw 2496   3.347   5.096   0.871 -0.8268 -0.4964 -0.2676
  625SOL     ow 2497   6.010   5.102   4.691 -0.5022  0.0229 -0.5264
  625SOL     hw 2498   6.088   5.155   4.708 -0.9238 -0.5667  4.5414
  625SOL     hw 2499   5.937   5.159   4.713 -1.4484 -0.3600 -2.4618
  625SOL     vw 2500   6.011   5.117   4.696 -0.6828 -0.1054 -0.1132
  626SOL     ow 2501   0.164   4.836   0.442  0.8660  0.3369  0.3090
  626SOL     hw 2502   0.100   4.906   0.455  0.3386 -0.1643  0.4100
  626SOL     hw 2503   0.119   4.756   0.467  0.8640 -0.2917 -1.5382
  626SOL     vw 2504   0.150   4.835   0.447  0.7961  0.1876  0.0786
  627SOL     ow 2505   1.939   2.723   6.192 -0.3157 -0.8186  0.0228
  627SOL     hw 2506   1.957   2.811   6.225 -0.7824 -0.6699 -0.1101
  627SOL     hw 2507   2.022   2.693   6.156  0.4044 -1.2544  1.9280
  627SOL     vw 2508   1.952   2.730   6.192 -0.2822 -0.8564  0.2565
  628SOL     ow 2509   2.174   0.392   5.676  0.1859 -0.2079 -0.1310
  628SOL     hw 2510   2.235   0.422   5.608  0.5518 -1.0119 -0.1742
  628SOL     hw 2511   2.221   0.406   5.758  0.0287  0.0980 -0.0924
  628SOL     vw 2512   2.188   0.398   5.678  0.2134 -0.2736 -0.1316
  629SOL     ow 2513   3.780   1.870   5.288 -0.0860  0.1339  0.1041
  629SOL     hw 2514   3.813   1.802   5.230 -1.0495 -0.7307  0.5278
  629SOL     hw 2515   3.756   1.823   5.368 -2.9618  0.5242 -0.4094
  629SOL     vw 2516   3.781   1.854   5.291 -0.5925  0.0713  0.0920
  630SOL     ow 2517   5.920   5.853   0.666 -0.2290  0.1772 -0.2831
  630SOL     hw 2518   5.935   5.938   0.705  1.3723  0.0822 -0.6460
  630SOL     hw 2519   5.957   5.790   0.728  2.1770  0.0173 -1.7556
  630SOL     vw 2520   5.927   5.856   0.679  0.3002  0.1435 -0.5253
  631SOL     ow 2521   3.962   5.024   7.149  0.2256 -0.3098  0.0908
  631SOL     hw 2522   3.900   5.015   7.221 -1.5668  2.3438 -0.9391
  631SOL     hw 2523   3.909   5.012   7.070  1.4076  0.2300 -0.8100
  631SOL     vw 2524   3.947   5.022   7.149  0.1450  0.1113 -0.1643
  632SOL     ow 2525   0.091   2.187   0.259  0.5066  0.2153  0.8222
  632SOL     hw 2526   0.025   2.135   0.213  0.7185  1.0995 -0.5201
  632SOL     hw 2527   0.040   2.238   0.323 -0.1617  1.0207 -0.3225
  632SOL     vw 2528   0.075   2.187   0.262  0.4464  0.4383  0.4941
  633SOL     ow 2529   1.632   1.950   0.090  0.4098 -0.0110  0.2474
  633SOL     hw 2530   1.541   1.977   0.086 -0.2453 -1.9050  0.9893
  633SOL     hw 2531   1.633   1.863   0.051  1.6486 -0.5641  1.4068
  633SOL     vw 2532   1.620   1.942   0.085  0.4868 -0.3340  0.4982
  634SOL     ow 2533   4.388   7.174   6.706  0.1154  0.6102 -0.3917
  634SOL     hw 2534   4.435   7.093   6.723 -0.9474 -0.6046 -2.7848
  634SOL     hw 2535   4.451   7.230   6.661 -0.5512 -1.0268 -3.6332
  634SOL     vw 2536   4.402   7.171   6.702 -0.1128  0.2339 -1.1351
  635SOL     ow 2537   2.158   6.731   3.563  0.2343  0.5894 -0.3807
  635SOL     hw 2538   2.168   6.804   3.624 -2.3138  1.0692 -0.3974
  635SOL     hw 2539   2.204   6.758   3.484  2.0114  0.7539  0.6709
  635SOL     vw 2540   2.165   6.744   3.561  0.1326  0.6742 -0.2441
  636SOL     ow 2541   5.820   5.358   0.084 -0.2754 -0.1962 -0.2365
  636SOL     hw 2542   5.844   5.343   0.176  1.4337 -3.6622 -1.0549
  636SOL     hw 2543   5.902   5.384   0.042  0.1289 -3.0027 -1.4420
  636SOL     vw 2544   5.834   5.359   0.091  0.0036 -1.0238 -0.5035
  637SOL     ow 2545   2.612   6.699   6.986  0.1495  0.4696  0.0812
  637SOL     hw 2546   2.678   6.660   6.929  0.4853  1.4120 -0.1881
  637SOL     hw 2547   2.662   6.738   7.058 -0.1198  0.9974 -0.0088
  637SOL     vw 2548   2.627   6.699   6.988  0.1583  0.6638  0.0339
  638SOL     ow 2549   1.819   3.106   6.328 -0.4958  0.0743 -0.2004
  638SOL     hw 2550   1.842   3.096   6.236  1.0971 -0.1633  0.1971
  638SOL     hw 2551   1.750   3.041   6.343  0.6807 -1.3503 -0.7451
  638SOL     vw 2552   1.813   3.096   6.318 -0.1304 -0.1451 -0.2198
  639SOL     ow 2553   1.939   4.101   6.818 -0.3646  0.8636  0.4383
  639SOL     hw 2554   1.882   4.115   6.743  0.3987 -1.2629 -0.6263
  639SOL     hw 2555   2.009   4.045   6.785  0.9987  1.3663  2.3092
  639SOL     vw 2556   1.941   4.096   6.804 -0.0840  0.6492  0.5443
  640SOL     ow 2557   1.969   2.012   1.026  0.7133 -0.1540 -0.0510
  640SOL     hw 2558   1.925   2.096   1.034 -2.5036 -1.6452 -0.4060
  640SOL     hw 2559   1.919   1.953   1.081  1.0970 -2.4254 -1.9547
  640SOL     vw 2560   1.957   2.015   1.034  0.3395 -0.6504 -0.3490
  641SOL     ow 2561   3.437   4.726   2.376  0.0004 -0.8576  0.2037
  641SOL     hw 2562   3.436   4.822   2.371 -0.7936 -0.5784  3.4013
  641SOL     hw 2563   3.375   4.698   2.309  0.0923  0.8478 -0.6584
  641SOL     vw 2564   3.429   4.735   2.366 -0.0924 -0.5958  0.5119
  642SOL     ow 2565   2.307   4.135   3.516  0.5225  0.4589  0.4790
  642SOL     hw 2566   2.227   4.161   3.560  0.3018 -0.0472  0.3868
  642SOL     hw 2567   2.370   4.122   3.587  0.6084  1.1212  0.5329
  642SOL     vw 2568   2.305   4.137   3.531  0.5046  0.4792  0.4740
  643SOL     ow 2569   3.542   3.245   0.055 -0.5598 -0.0035  0.4868
  643SOL     hw 2570   3.511   3.231   0.145 -1.2192  1.1556  0.4552
  643SOL     hw 2571   3.616   3.305   0.065 -0.4737 -0.0757  0.2753
  643SOL     vw 2572   3.548   3.251   0.068 -0.6355  0.1398  0.4548
  644SOL     ow 2573   1.310   5.519   0.610 -0.1974 -0.6783  0.2241
  644SOL     hw 2574   1.359   5.506   0.529 -2.5364 -1.4992 -1.1557
  644SOL     hw 2575   1.241   5.452   0.608 -0.7912 -0.2282  2.5323
  644SOL     vw 2576   1.307   5.508   0.599 -0.5843 -0.7272  0.3466
  645SOL     ow 2577   1.937   2.276   6.502  0.2151 -0.4237 -0.2374
  645SOL     hw 2578   1.875   2.240   6.566 -0.7350  1.5901  0.0477
  645SOL     hw 2579   1.975   2.352   6.545  2.1069 -0.9756 -0.8497
  645SOL     vw 2580   1.934   2.281   6.516  0.3393 -0.2308 -0.2806
  646SOL     ow 2581   3.242   4.764   1.876  0.5096  0.0769  0.0288
  646SOL     hw 2582   3.259   4.686   1.928  1.0001  1.1343  1.5249
  646SOL     hw 2583   3.328   4.801   1.858  0.2899  0.2173 -0.7800
  646SOL     vw 2584   3.255   4.759   1.880  0.5454  0.2351  0.1194
  647SOL     ow 2585   3.514   5.512   2.555  0.3603  0.4759 -0.1292
  647SOL     hw 2586   3.534   5.542   2.466  1.0053 -2.4111 -1.1040
  647SOL     hw 2587   3.585   5.547   2.609  1.4880  0.0958 -1.3005
  647SOL     vw 2588   3.526   5.520   2.550  0.5941  0.0448 -0.4125
  648SOL     ow 2589   5.497   1.421   3.978 -0.0898  0.1728  0.0348
  648SOL     hw 2590   5.557   1.352   3.951 -1.0169 -0.1251 -1.4100
  648SOL     hw 2591   5.484   1.407   4.072  0.4095 -1.0739 -0.0677
  648SOL     vw 2592   5.503   1.410   3.987 -0.1464 -0.0310 -0.1693
  649SOL     ow 2593   2.828   0.566   7.339  0.4227  0.9470  0.2053
  649SOL     hw 2594   2.917   0.586   7.371  1.5981 -3.3357  0.2240
  649SOL     hw 2595   2.772   0.577   7.416  1.6849 -0.1498  1.3437
  649SOL     vw 2596   2.833   0.570   7.353  0.7443  0.2372  0.3579
  650SOL     ow 2597   6.395   2.653   3.531  0.3474 -0.6999  0.4353
  650SOL     hw 2598   6.432   2.625   3.615  0.7688  0.4267  0.6404
  650SOL     hw 2599   6.471   2.686   3.482 -0.0186 -0.6409 -0.0936
  650SOL     vw 2600   6.410   2.654   3.536  0.3545 -0.5436  0.3926
  651SOL     ow 2601   2.429   7.206   3.408 -0.9423  0.2401 -0.0314
  651SOL     hw 2602   2.334   7.197   3.420 -1.0605  2.3775  1.0252
  651SOL     hw 2603   2.458   7.255   3.484  1.3498 -1.8001  0.5344
  651SOL     vw 2604   2.420   7.211   3.419 -0.6554  0.2530  0.1826
  652SOL     ow 2605   6.057   7.203   6.629  0.3616 -0.0650  0.1112
  652SOL     hw 2606   6.007   7.185   6.548  0.2199  0.8713 -0.0190
  652SOL     hw 2607   6.068   7.117   6.669 -2.3958 -0.2244  0.7444
  652SOL     vw 2608   6.052   7.189   6.623 -0.0210  0.0377  0.1776
  653SOL     ow 2609   6.071   3.915   1.325  1.1197 -0.2389 -0.2544
  653SOL     hw 2610   6.019   3.963   1.261  1.4328  2.2297  1.2056
  653SOL     hw 2611   6.124   3.982   1.368  1.4455 -1.8571  2.0760
  653SOL     vw 2612   6.071   3.930   1.323  1.2040 -0.1267  0.2457
  654SOL     ow 2613   3.175   4.410   1.721 -0.0394  0.6737  0.0724
  654SOL     hw 2614   3.149   4.318   1.710  2.7242 -0.2052  0.0461
  654SOL     hw 2615   3.093   4.458   1.727 -1.6100 -1.5092 -2.1776
  654SOL     vw 2616   3.161   4.404   1.720  0.1180  0.2699 -0.2279
  655SOL     ow 2617   5.734   3.140   3.177  0.4838  0.4699  0.3461
  655SOL     hw 2618   5.771   3.066   3.128 -0.2968  0.7667 -0.7127
  655SOL     hw 2619   5.756   3.217   3.125 -0.7200  0.7548  0.2278
  655SOL     vw 2620   5.742   3.140   3.164  0.2220  0.5466  0.1909
  656SOL     ow 2621   1.814   6.436   2.470  0.2589  0.3530  0.1888
  656SOL     hw 2622   1.863   6.431   2.388 -0.1541  2.0302 -0.1996
  656SOL     hw 2623   1.751   6.364   2.465  0.4432  0.2536 -0.8295
  656SOL     vw 2624   1.812   6.426   2.459  0.2288  0.5612  0.0031
  657SOL     ow 2625   1.193   2.244   1.554  1.3253  0.0564  0.5266
  657SOL     hw 2626   1.172   2.262   1.645  2.1688 -0.0722  0.7543
  657SOL     hw 2627   1.285   2.268   1.545  0.8979  1.4036 -0.6447
  657SOL     vw 2628   1.202   2.249   1.564  1.3802  0.2171  0.4021
  658SOL     ow 2629   0.080   0.389   0.993 -0.3855 -0.6463  0.8804
  658SOL     hw 2630   0.057   0.480   0.976  1.3049 -0.2451  0.5304
  658SOL     hw 2631   0.010   0.356   1.049 -1.5006  0.5902  0.2470
  658SOL     vw 2632   0.068   0.397   0.998 -0.3096 -0.4302  0.7507
  659SOL     ow 2633   1.346   1.231   3.872 -0.6912  0.9106  0.0246
  659SOL     hw 2634   1.440   1.218   3.860 -0.8491  0.5634 -0.9428
  659SOL     hw 2635   1.336   1.325   3.887 -0.5269  1.7029 -3.9029
  659SOL     vw 2636   1.357   1.242   3.873 -0.6903  0.9694 -0.6211
  660SOL     ow 2637   3.880   1.122   4.584  0.3132 -0.3883 -0.1262
  660SOL     hw 2638   3.807   1.146   4.640  1.6714  2.6454  0.5254
  660SOL     hw 2639   3.958   1.136   4.638  1.5196 -1.1985 -1.5458
  660SOL     vw 2640   3.881   1.127   4.598  0.6517 -0.0949 -0.2277
  661SOL     ow 2641   2.306   6.642   3.831 -0.6182  0.1882 -0.0033
  661SOL     hw 2642   2.284   6.705   3.899  1.2683 -0.1804  1.0457
  661SOL     hw 2643   2.269   6.559   3.862 -0.9024  0.2809 -0.0946
  661SOL     vw 2644   2.299   6.639   3.844 -0.4067  0.1519  0.1231
  662SOL     ow 2645   2.732   5.684   3.172  0.0202  1.0401 -0.3698
  662SOL     hw 2646   2.791   5.637   3.231  1.7952  2.8637 -0.5657
  662SOL     hw 2647   2.753   5.649   3.085  1.3717  2.1232 -0.5220
  662SOL     vw 2648   2.743   5.673   3.169  0.4327  1.4236 -0.4157
  663SOL     ow 2649   4.458   2.058   5.530 -0.1633 -0.2185 -0.2712
  663SOL     hw 2650   4.418   2.143   5.513 -0.1877 -0.4553 -1.4266
  663SOL     hw 2651   4.396   1.994   5.496 -0.0284 -0.6997  0.3654
  663SOL     vw 2652   4.445   2.061   5.524 -0.1488 -0.3133 -0.3397
  664SOL     ow 2653   4.729   0.543   0.693 -0.1205 -0.5576  0.8760
  664SOL     hw 2654   4.807   0.576   0.738  0.2732 -0.0255 -0.1519
  664SOL     hw 2655   4.758   0.460   0.654  0.0875 -0.1316  0.1006
  664SOL     vw 2656   4.743   0.536   0.694 -0.0410 -0.4312  0.6380
  665SOL     ow 2657   0.084   4.805   1.502  0.0117  0.1735  0.5935
  665SOL     hw 2658   0.164   4.854   1.524 -0.3072  0.3038  1.5344
  665SOL     hw 2659   0.062   4.759   1.583  0.0436 -1.1827 -0.1445
  665SOL     vw 2660   0.091   4.806   1.516 -0.0261  0.0117  0.6203
  666SOL     ow 2661   5.351   0.378   5.576 -0.5182  0.8763 -0.3526
  666SOL     hw 2662   5.300   0.454   5.603  1.0012  2.0315 -0.5976
  666SOL     hw 2663   5.359   0.325   5.655 -0.7633  1.4671  0.0738
  666SOL     vw 2664   5.345   0.381   5.590 -0.3500  1.1066 -0.3288
  667SOL     ow 2665   6.440   3.105   6.480  1.1193  0.0992  0.1933
  667SOL     hw 2666   6.440   3.097   6.384  2.1568  1.7597  0.0304
  667SOL     hw 2667   6.368   3.048   6.508 -0.4046  0.9527 -1.7069
  667SOL     vw 2668   6.430   3.096   6.471  1.0552  0.4309 -0.0787
  668SOL     ow 2669   0.186   0.662   4.612 -0.1049 -0.1719 -0.3225
  668SOL     hw 2670   0.170   0.574   4.577  0.9368 -0.9345  1.0416
  668SOL     hw 2671   0.173   0.720   4.537 -2.1737 -1.3293 -0.9448
  668SOL     vw 2672   0.182   0.658   4.597 -0.2404 -0.4252 -0.2246
  669SOL     ow 2673   0.804   3.765   1.442  0.4392  0.0270 -0.2370
  669SOL     hw 2674   0.850   3.681   1.445 -0.9271 -0.7394  0.7906
  669SOL     hw 2675   0.825   3.807   1.525  0.1914  0.1522 -0.2357
  669SOL     vw 2676   0.813   3.759   1.453  0.2263 -0.0576 -0.1013
  670SOL     ow 2677   3.480   0.581   5.846 -0.0014 -0.3744  0.7308
  670SOL     hw 2678   3.435   0.606   5.926 -0.7450  1.6650 -0.2454
  670SOL     hw 2679   3.564   0.625   5.850  1.3839 -2.8869  1.8022
  670SOL     vw 2680   3.485   0.590   5.857  0.0832 -0.4368  0.7432
  671SOL     ow 2681   4.688   3.693   2.683 -1.0492  0.3140  0.1051
  671SOL     hw 2682   4.782   3.693   2.667 -1.0060  0.0692  0.3441
  671SOL     hw 2683   4.649   3.705   2.597 -0.7922  0.9125  0.0684
  671SOL     vw 2684   4.695   3.694   2.670 -1.0097  0.3608  0.1318
  672SOL     ow 2685   2.665   4.904   1.371  0.1014 -0.3764  0.1003
  672SOL     hw 2686   2.601   4.883   1.304  0.2232 -0.4167 -0.0023
  672SOL     hw 2687   2.684   4.820   1.414 -0.2208 -0.2974  0.3990
  672SOL     vw 2688   2.659   4.890   1.368  0.0749 -0.3712  0.1261
  673SOL     ow 2689   0.786   5.495   1.460 -0.0836 -0.0434  0.3403
  673SOL     hw 2690   0.772   5.438   1.536 -0.9438  0.5116  0.6082
  673SOL     hw 2691   0.728   5.460   1.393  0.0406 -0.0098  0.2147
  673SOL     vw 2692   0.777   5.483   1.461 -0.1807  0.0346  0.3591
  674SOL     ow 2693   1.340   2.626   4.288 -0.3750  0.3145  0.7574
  674SOL     hw 2694   1.426   2.588   4.308 -0.7111 -0.7331  0.2767
  674SOL     hw 2695   1.331   2.698   4.350  0.8005  0.3665  0.8925
  674SOL     vw 2696   1.350   2.630   4.299 -0.2643  0.1831  0.7119
  675SOL     ow 2697   5.685   3.102   6.631 -0.4607  0.4696 -0.3002
  675SOL     hw 2698   5.647   3.171   6.578  1.2225  0.2828 -1.8210
  675SOL     hw 2699   5.683   3.024   6.575  3.6210  0.8176 -1.2269
  675SOL     vw 2700   5.680   3.101   6.617  0.2999  0.4909 -0.6232
  676SOL     ow 2701   6.090   4.510   4.101  0.0863 -0.5802  0.4344
  676SOL     hw 2702   6.135   4.464   4.173  2.0095  2.0923  1.1083
  676SOL     hw 2703   6.015   4.455   4.081  1.7851 -3.6111  1.6185
  676SOL     vw 2704   6.086   4.497   4.108  0.5646 -0.6273  0.6793
  677SOL     ow 2705   3.513   2.013   5.702  0.9730 -0.0919  0.0832
  677SOL     hw 2706   3.421   2.020   5.679  0.0893 -1.9826  2.5673
  677SOL     hw 2707   3.544   1.937   5.653  0.0177 -1.9811  2.2207
  677SOL     vw 2708   3.505   2.004   5.693  0.7302 -0.5907  0.6926
  678SOL     ow 2709   4.045   2.302   5.003  1.0686  0.2435  0.4615
  678SOL     hw 2710   4.066   2.209   4.997 -1.3436 -0.4436  1.5470
  678SOL     hw 2711   4.075   2.328   5.090 -0.2491 -0.1071  1.0336
  678SOL     vw 2712   4.052   2.294   5.014  0.5765  0.1066  0.6804
  679SOL     ow 2713   2.067   4.885   6.956  0.0604  0.0341  0.6848
  679SOL     hw 2714   2.127   4.828   7.006 -0.6917 -0.6443  0.8415
  679SOL     hw 2715   2.016   4.824   6.902  1.5466  0.8161 -1.7454
  679SOL     vw 2716   2.068   4.869   6.956  0.1574  0.0477  0.3848
  680SOL     ow 2717   0.737   3.121   0.297  0.0495  0.2169 -0.1918
  680SOL     hw 2718   0.713   3.201   0.251  4.1381  1.7800 -0.0431
  680SOL     hw 2719   0.775   3.151   0.379 -0.8928 -2.1363  1.2060
  680SOL     vw 2720   0.739   3.135   0.302  0.4646  0.1127  0.0123
  681SOL     ow 2721   6.016   6.968   4.099  0.2746  0.8900  0.1976
  681SOL     hw 2722   6.035   7.052   4.140 -1.3587  2.2109 -1.5705
  681SOL     hw 2723   5.979   6.990   4.013 -2.2413 -1.5261  0.4919
  681SOL     vw 2724   6.014   6.982   4.093 -0.2725  0.7453  0.0033
  682SOL     ow 2725   3.483   5.717   0.667 -0.3299  0.4979  0.0115
  682SOL     hw 2726   3.398   5.686   0.636  0.3567  0.1520 -1.6033
  682SOL     hw 2727   3.547   5.663   0.620  0.8087  1.5150  0.3563
  682SOL     vw 2728   3.481   5.705   0.657 -0.0893  0.5865 -0.1561
  683SOL     ow 2729   2.678   6.271   0.361 -0.3640  0.0394 -0.3227
  683SOL     hw 2730   2.590   6.308   0.375  0.1518  1.3649 -0.4098
  683SOL     hw 2731   2.733   6.347   0.342  0.8002 -0.7784 -0.3304
  683SOL     vw 2732   2.673   6.286   0.360 -0.1422  0.1063 -0.3352
  684SOL     ow 2733   6.513   5.923   3.074  0.1940  0.4708 -0.2143
  684SOL     hw 2734   6.585   5.903   3.014  0.8100 -0.5593  0.8110
  684SOL     hw 2735   6.443   5.864   3.048  0.4354  0.0762  0.0160
  684SOL     vw 2736   6.513   5.912   3.063  0.3073  0.2830 -0.0485
  685SOL     ow 2737   3.448   1.545   7.210  0.5002 -0.1131 -0.1639
  685SOL     hw 2738   3.472   1.567   7.120 -0.1538  2.2874  0.1944
  685SOL     hw 2739   3.532   1.532   7.255  0.8621 -0.1319 -0.8363
  685SOL     vw 2740   3.462   1.546   7.204  0.4616  0.2012 -0.2053
  686SOL     ow 2741   5.778   0.300   4.128  0.0306  0.2086 -0.0805
  686SOL     hw 2742   5.863   0.316   4.170 -1.7563  1.8657  3.3573
  686SOL     hw 2743   5.739   0.229   4.180 -0.5665 -0.8670 -1.9175
  686SOL     vw 2744   5.784   0.293   4.141 -0.2837  0.2854  0.1304
  687SOL     ow 2745   4.838   5.835   6.061  0.3549  0.2721  0.2532
  687SOL     hw 2746   4.855   5.846   6.154  0.7763 -0.0513  0.2122
  687SOL     hw 2747   4.862   5.919   6.022  1.1495  0.0723  0.2987
  687SOL     vw 2748   4.843   5.848   6.068  0.5155  0.2031  0.2537
  688SOL     ow 2749   0.504   1.849   4.791 -0.1090 -0.8776  0.2077
  688SOL     hw 2750   0.541   1.800   4.864  1.5193 -0.0750 -0.0360
  688SOL     hw 2751   0.493   1.785   4.721 -0.7045 -1.4427  0.8071
  688SOL     vw 2752   0.508   1.834   4.792  0.0273 -0.8463  0.2546
  689SOL     ow 2753   5.595   4.343   2.552  0.3771 -0.5817  0.2589
  689SOL     hw 2754   5.531   4.279   2.522 -0.1549 -0.2684  0.6986
  689SOL     hw 2755   5.606   4.403   2.478  2.8814 -2.6173 -1.1920
  689SOL     vw 2756   5.588   4.343   2.538  0.6373 -0.8090  0.1254
  690SOL     ow 2757   2.885   4.338   0.614  0.2812 -0.1434 -0.2103
  690SOL     hw 2758   2.875   4.432   0.599  0.0772 -0.1761 -0.2838
  690SOL     hw 2759   2.946   4.331   0.687  1.1796  0.0193 -0.9281
  690SOL     vw 2760   2.892   4.349   0.622  0.3729 -0.1261 -0.3147
  691SOL     ow 2761   5.562   0.549   1.794  0.1587  0.0303  0.6759
  691SOL     hw 2762   5.541   0.476   1.852 -3.3259  0.5073  0.2133
  691SOL     hw 2763   5.571   0.510   1.707 -1.1419  0.0234  0.5224
  691SOL     vw 2764   5.560   0.534   1.791 -0.4725  0.0924  0.5946
  692SOL     ow 2765   1.210   6.082   5.269  0.8368  0.1753 -0.8037
  692SOL     hw 2766   1.250   6.134   5.338  0.2014 -0.5370  0.1272
  692SOL     hw 2767   1.252   5.996   5.276 -0.6278 -0.5145  0.0405
  692SOL     vw 2768   1.221   6.078   5.279  0.5597 -0.0095 -0.5693
  693SOL     ow 2769   4.622   2.263   0.839 -0.1000  0.2646 -0.8213
  693SOL     hw 2770   4.694   2.208   0.809 -0.1696  0.1693 -0.8131
  693SOL     hw 2771   4.561   2.265   0.765  0.7433  1.8141 -1.5217
  693SOL     vw 2772   4.623   2.256   0.825  0.0019  0.4566 -0.9126
  694SOL     ow 2773   7.087   5.446   5.898  0.0307 -1.0672  0.7933
  694SOL     hw 2774   7.135   5.529   5.896 -0.9624 -0.4669 -1.7154
  694SOL     hw 2775   7.100   5.409   5.811 -0.7913 -2.8275  1.3797
  694SOL     vw 2776   7.095   5.452   5.887 -0.2089 -1.2200  0.5395
  695SOL     ow 2777   5.984   5.663   0.849  0.3000  0.1732  0.0422
  695SOL     hw 2778   5.945   5.606   0.783 -1.4862  2.4096 -0.9718
  695SOL     hw 2779   5.910   5.702   0.896  1.3498  2.2545  0.1355
  695SOL     vw 2780   5.969   5.661   0.847  0.2027  0.7432 -0.0793
  696SOL     ow 2781   1.212   4.652   0.405 -0.0952  0.0889  0.5755
  696SOL     hw 2782   1.202   4.572   0.354 -1.2860  0.0129  0.8856
  696SOL     hw 2783   1.145   4.711   0.369  0.1190  0.5966  0.9986
  696SOL     vw 2784   1.202   4.649   0.394 -0.2241  0.1459  0.6722
  697SOL     ow 2785   3.749   2.213   0.023  0.4697 -0.0615 -0.1383
  697SOL     hw 2786   3.768   2.254   0.107  0.5628  1.6961 -0.9756
  697SOL     hw 2787   3.823   2.154   0.007  1.9028  1.6836 -0.2535
  697SOL     vw 2788   3.761   2.210   0.032  0.6710  0.4005 -0.2640
  698SOL     ow 2789   1.250   2.436   4.648  0.0944 -0.1268  0.3473
  698SOL     hw 2790   1.250   2.509   4.586 -3.5946  0.7914  1.1670
  698SOL     hw 2791   1.297   2.470   4.724  0.6687  0.4220 -0.2322
  698SOL     vw 2792   1.256   2.451   4.650 -0.3166  0.0669  0.3788
  699SOL     ow 2793   6.366   2.012   6.458  0.0788  0.2315  0.5283
  699SOL     hw 2794   6.458   2.035   6.469  0.4320 -2.2010  4.4221
  699SOL     hw 2795   6.366   1.945   6.390  1.0727  0.6342  0.1126
  699SOL     vw 2796   6.378   2.006   6.450  0.2565 -0.0362  0.9873
  700SOL     ow 2797   3.678   0.673   0.340 -0.0236 -0.1945  0.4790
  700SOL     hw 2798   3.740   0.724   0.392 -2.2525  0.1387  2.9604
  700SOL     hw 2799   3.674   0.588   0.384  0.9595 -1.3735 -1.5366
  700SOL     vw 2800   3.686   0.668   0.352 -0.1879 -0.3061  0.5405
  701SOL     ow 2801   3.543   4.481   2.381 -0.0882  0.2642  0.4696
  701SOL     hw 2802   3.500   4.566   2.376 -0.7617 -0.1311 -0.9579
  701SOL     hw 2803   3.617   4.488   2.321 -0.4178 -0.3013 -0.0113
  701SOL     vw 2804   3.547   4.493   2.373 -0.2205  0.1371  0.2178
  702SOL     ow 2805   4.023   5.879   4.569  0.3292  0.1584  0.3060
  702SOL     hw 2806   4.081   5.955   4.564 -0.1283  0.6153  1.4349
  702SOL     hw 2807   3.999   5.861   4.479  2.8137 -0.5378 -0.2871
  702SOL     vw 2808   4.027   5.887   4.557  0.5965  0.1266  0.3767
  703SOL     ow 2809   1.226   3.442   1.474 -0.6982 -0.0988  0.5987
  703SOL     hw 2810   1.270   3.512   1.427 -3.0781  1.4910  0.5713
  703SOL     hw 2811   1.281   3.427   1.551  1.6096 -0.6020 -1.0202
  703SOL     vw 2812   1.239   3.449   1.478 -0.7077  0.0447  0.3816
  704SOL     ow 2813   1.635   1.636   7.093  0.2072 -0.7071 -1.2087
  704SOL     hw 2814   1.680   1.702   7.146 -0.1352  1.0841 -3.0155
  704SOL     hw 2815   1.630   1.559   7.149 -0.6467  1.2338  1.5819
  704SOL     vw 2816   1.640   1.634   7.107  0.0494 -0.2148 -1.0788
  705SOL     ow 2817   1.744   5.803   5.156  0.1616  0.2287  0.0229
  705SOL     hw 2818   1.741   5.714   5.191  0.0936  0.4634  0.6293
  705SOL     hw 2819   1.688   5.853   5.215  0.8687  0.8432  0.1896
  705SOL     vw 2820   1.736   5.798   5.168  0.2459  0.3407  0.1249
  706SOL     ow 2821   0.825   1.842   2.495  0.6616 -0.5450  0.0103
  706SOL     hw 2822   0.905   1.886   2.525  0.0217 -0.2174  1.2724
  706SOL     hw 2823   0.831   1.845   2.399  1.8206  0.0851  0.0820
  706SOL     vw 2824   0.837   1.848   2.486  0.7301 -0.4187  0.1863
  707SOL     ow 2825   2.800   0.866   2.396  0.5163 -0.2370  0.7315
  707SOL     hw 2826   2.794   0.959   2.420 -0.2670  0.0335 -0.4646
  707SOL     hw 2827   2.781   0.820   2.478 -0.1448  0.6551  1.1019
  707SOL     vw 2828   2.797   0.872   2.410  0.3257 -0.0836  0.6225
  708SOL     ow 2829   0.808   5.332   1.660 -0.8165 -0.4074 -0.2995
  708SOL     hw 2830   0.820   5.357   1.751  1.2942  0.4319 -0.7397
  708SOL     hw 2831   0.826   5.238   1.657  0.3269 -0.2149 -0.0049
  708SOL     vw 2832   0.812   5.323   1.671 -0.3872 -0.2711 -0.3187
  709SOL     ow 2833   4.678   1.086   4.085 -0.5244 -0.4278 -0.1073
  709SOL     hw 2834   4.662   1.125   3.999 -0.9457  0.1619  0.2282
  709SOL     hw 2835   4.748   1.139   4.123 -2.1671  1.0743  0.9923
  709SOL     vw 2836   4.685   1.098   4.079 -0.7968 -0.1517  0.0820
  710SOL     ow 2837   1.748   7.126   0.572 -0.3776 -0.2084  0.2136
  710SOL     hw 2838   1.841   7.131   0.597 -0.3732  2.5951  0.0285
  710SOL     hw 2839   1.701   7.147   0.653 -0.6250  1.9732 -0.4124
  710SOL     vw 2840   1.754   7.130   0.586 -0.4096  0.4494  0.1066
  711SOL     ow 2841   4.172   3.370   3.029  0.4778 -0.1226 -0.2360
  711SOL     hw 2842   4.204   3.454   3.062  1.4641 -0.7924  0.5731
  711SOL     hw 2843   4.077   3.374   3.041  0.2901  1.5187 -1.7765
  711SOL     vw 2844   4.163   3.382   3.035  0.5829  0.0055 -0.3326
  712SOL     ow 2845   5.436   1.995   0.157  0.3855 -0.0666  0.3014
  712SOL     hw 2846   5.425   2.077   0.110 -0.4912 -1.6443 -2.4803
  712SOL     hw 2847   5.368   1.997   0.224 -0.7352  0.8135 -0.8013
  712SOL     vw 2848   5.426   2.006   0.160  0.1221 -0.1585 -0.2111
  713SOL     ow 2849   5.019   1.882   4.552 -0.1360 -0.3690  0.5255
  713SOL     hw 2850   5.084   1.888   4.622 -0.0172 -0.4592  0.4237
  713SOL     hw 2851   4.941   1.922   4.588  0.4133  1.1282  0.1505
  713SOL     vw 2852   5.018   1.888   4.566 -0.0477 -0.1833  0.4625
  714SOL     ow 2853   0.448   5.219   1.592 -0.1226  0.2721  0.4461
  714SOL     hw 2854   0.455   5.227   1.497  0.3470  0.5693  0.5060
  714SOL     hw 2855   0.518   5.158   1.616  0.6749  1.2989  0.7624
  714SOL     vw 2856   0.458   5.212   1.582  0.0446  0.4470  0.4959
  715SOL     ow 2857   0.025   4.851   7.258 -0.1458 -0.3408 -0.3461
  715SOL     hw 2858  -0.047   4.908   7.230 -0.8934 -0.3983  1.3613
  715SOL     hw 2859   0.059   4.814   7.176 -0.3214  1.7248 -1.4232
  715SOL     vw 2860   0.020   4.854   7.243 -0.2676 -0.0758 -0.2630
  716SOL     ow 2861   4.049   1.055   7.179  0.0519  0.4545 -0.6838
  716SOL     hw 2862   4.066   1.145   7.152  1.9396  1.1343  2.2366
  716SOL     hw 2863   4.106   1.002   7.124  0.4547  1.2408 -1.0403
  716SOL     vw 2864   4.058   1.060   7.168  0.3543  0.6479 -0.3457
  717SOL     ow 2865   6.242   3.971   5.412  0.1413 -0.8139  0.8264
  717SOL     hw 2866   6.151   3.976   5.384  0.3406  0.9748  0.3899
  717SOL     hw 2867   6.289   3.939   5.335  0.0084 -0.8602  0.7639
  717SOL     vw 2868   6.236   3.968   5.398  0.1500 -0.5840  0.7606
  718SOL     ow 2869   5.007   6.601   1.240  0.5037  0.4575 -0.0121
  718SOL     hw 2870   5.018   6.621   1.147 -0.3338 -0.1855 -0.2665
  718SOL     hw 2871   5.041   6.512   1.250  0.6750  0.5568  0.3234
  718SOL     vw 2872   5.013   6.592   1.229  0.4158  0.3858 -0.0014
  719SOL     ow 2873   0.767   1.825   1.163  0.1055 -0.5160  0.3586
  719SOL     hw 2874   0.735   1.908   1.126 -2.1323 -0.6940  1.7319
  719SOL     hw 2875   0.724   1.758   1.110  1.1465 -0.8347 -0.1148
  719SOL     vw 2876   0.757   1.827   1.151 -0.0524 -0.5815  0.4774
  720SOL     ow 2877   4.674   7.114   6.999  0.0927 -0.0593  0.2778
  720SOL     hw 2878   4.763   7.099   6.968 -0.0097  1.4226 -0.8859
  720SOL     hw 2879   4.685   7.145   7.089  0.4661 -3.4188  1.5015
  720SOL     vw 2880   4.687   7.116   7.007  0.1287 -0.3071  0.2856
  721SOL     ow 2881   5.034   4.062   4.873  0.8216 -0.4139  0.1821
  721SOL     hw 2882   5.104   3.996   4.873  1.0533 -0.1741 -0.0182
  721SOL     hw 2883   5.018   4.079   4.780  0.1666 -0.8128  0.2215
  721SOL     vw 2884   5.041   4.056   4.860  0.7656 -0.4351  0.1612
  722SOL     ow 2885   5.776   0.038   5.788 -0.1897  0.6608  0.5214
  722SOL     hw 2886   5.829   0.031   5.867 -0.8834 -0.4777  0.9096
  722SOL     hw 2887   5.755  -0.053   5.766 -1.3173  1.0582 -0.0788
  722SOL     vw 2888   5.780   0.025   5.795 -0.4299  0.5629  0.4935
  723SOL     ow 2889   6.059   2.496   6.335  0.2326 -0.1859  0.0116
  723SOL     hw 2890   6.072   2.578   6.383  1.2791 -1.4510  2.0473
  723SOL     hw 2891   5.965   2.483   6.334  0.1560  0.1553  1.2907
  723SOL     vw 2892   6.049   2.505   6.341  0.3603 -0.3079  0.4492
  724SOL     ow 2893   6.511   5.757   7.085  0.1818  0.9426 -0.5938
  724SOL     hw 2894   6.466   5.838   7.061 -0.3354  0.2672 -2.0400
  724SOL     hw 2895   6.562   5.734   7.008 -0.0874 -0.3739 -0.4048
  724SOL     vw 2896   6.512   5.764   7.072  0.0780  0.6797 -0.7598
  725SOL     ow 2897   4.720   5.244   1.003 -0.1606 -0.6509 -0.3631
  725SOL     hw 2898   4.811   5.271   0.990  0.1314 -1.5873 -0.3555
  725SOL     hw 2899   4.711   5.165   0.948  0.0950 -2.6654  2.3058
  725SOL     vw 2900   4.731   5.237   0.994 -0.0882 -1.0402 -0.0100
  726SOL     ow 2901   3.607   0.306   2.159 -0.1765 -0.2236 -0.4769
  726SOL     hw 2902   3.540   0.361   2.199 -1.5338 -2.1336 -0.0181
  726SOL     hw 2903   3.685   0.361   2.157 -0.4035  0.4866  3.4982
  726SOL     vw 2904   3.609   0.320   2.164 -0.3855 -0.3819  0.1080
  727SOL     ow 2905   3.270   5.694   3.848 -0.1040  0.5115 -0.0547
  727SOL     hw 2906   3.188   5.707   3.799 -0.2724 -0.6530 -0.0942
  727SOL     hw 2907   3.320   5.632   3.795 -0.7317 -1.6108  1.7010
  727SOL     vw 2908   3.266   5.688   3.834 -0.2090  0.0780  0.1717
  728SOL     ow 2909   2.806   2.156   7.042  0.1615 -0.1727  0.4761
  728SOL     hw 2910   2.753   2.235   7.044  0.4336  0.0472 -0.5945
  728SOL     hw 2911   2.892   2.183   7.074 -0.2571 -0.4590  1.9016
  728SOL     vw 2912   2.810   2.170   7.047  0.1421 -0.1814  0.5229
  729SOL     ow 2913   4.680   3.156   5.432 -0.1881 -0.3944  0.4121
  729SOL     hw 2914   4.625   3.229   5.461  0.4031  0.0487  0.4363
  729SOL     hw 2915   4.660   3.145   5.339 -0.6935 -0.5741  0.5409
  729SOL     vw 2916   4.670   3.164   5.424 -0.1769 -0.3598  0.4327
  730SOL     ow 2917   0.221   5.945   4.814  0.0697 -0.3071  0.3867
  730SOL     hw 2918   0.176   5.946   4.729  0.1061  1.8747  0.3256
  730SOL     hw 2919   0.242   6.037   4.831  0.9969 -0.8128  2.2849
  730SOL     vw 2920   0.218   5.957   4.805  0.1969 -0.0861  0.6292
  731SOL     ow 2921   7.202   5.471   6.153 -0.1590 -0.0056 -0.0936
  731SOL     hw 2922   7.294   5.449   6.173  0.3331  0.5384 -1.6262
  731SOL     hw 2923   7.205   5.562   6.125 -0.6781 -0.7763 -2.9644
  731SOL     vw 2924   7.215   5.480   6.152 -0.1628 -0.0355 -0.6742
  732SOL     ow 2925   2.677   4.717   4.784 -0.5642 -0.1771  1.1742
  732SOL     hw 2926   2.746   4.654   4.804  0.1719 -0.0088 -0.6338
  732SOL     hw 2927   2.601   4.663   4.762  0.1701 -0.5298 -0.7402
  732SOL     vw 2928   2.676   4.702   4.783 -0.3701 -0.2012  0.6833
  733SOL     ow 2929   4.874   0.434   1.128 -0.7685  0.0746 -0.7451
  733SOL     hw 2930   4.922   0.514   1.110 -1.0418  0.3348 -0.3346
  733SOL     hw 2931   4.842   0.405   1.042 -1.0894  0.6761 -0.8353
  733SOL     vw 2932   4.876   0.441   1.114 -0.8469  0.1883 -0.7028
  734SOL     ow 2933   2.238   3.702   1.116  0.1279  0.7182 -0.5542
  734SOL     hw 2934   2.144   3.716   1.130 -0.2838 -1.8336 -0.0822
  734SOL     hw 2935   2.244   3.670   1.027  0.0770 -1.8621  0.2778
  734SOL     vw 2936   2.226   3.699   1.106  0.0669  0.0410 -0.3822
  735SOL     ow 2937   1.937   1.070   3.228 -0.3956  0.3863  0.2730
  735SOL     hw 2938   2.011   1.036   3.178  0.4853  2.2076  0.2736
  735SOL     hw 2939   1.963   1.059   3.319  0.1773  1.6029  0.2706
  735SOL     vw 2940   1.950   1.064   3.234 -0.2038  0.7871  0.2729
  736SOL     ow 2941   2.476   0.260   5.880  0.4224 -0.4413  0.7082
  736SOL     hw 2942   2.398   0.247   5.934 -0.2203 -0.8081 -0.3013
  736SOL     hw 2943   2.534   0.312   5.936 -0.6644  0.1145  1.3575
  736SOL     vw 2944   2.474   0.265   5.895  0.1942 -0.4163  0.6609
  737SOL     ow 2945   5.364   6.935   2.290  0.5725  0.1202  0.2015
  737SOL     hw 2946   5.373   6.980   2.207  0.2529 -2.3011 -1.2559
  737SOL     hw 2947   5.441   6.962   2.340  0.8489  1.5206 -0.9131
  737SOL     vw 2948   5.375   6.944   2.286  0.5670 -0.0145 -0.1378
  738SOL     ow 2949   4.653   6.370   4.256  0.2995  0.2044 -0.5578
  738SOL     hw 2950   4.656   6.462   4.230  0.5698  0.0129 -1.2391
  738SOL     hw 2951   4.680   6.322   4.177  0.4361 -0.4410 -0.1283
  738SOL     vw 2952   4.657   6.376   4.242  0.3529  0.0939 -0.5910
  739SOL     ow 2953   5.721   1.758   6.841 -0.4287  0.8370 -1.4422
  739SOL     hw 2954   5.742   1.852   6.838 -1.7977  1.2035 -0.4201
  739SOL     hw 2955   5.802   1.715   6.813  1.1114  2.2144  0.6182
  739SOL     vw 2956   5.735   1.765   6.837 -0.4063  1.0670 -1.0357
  740SOL     ow 2957   3.881   1.056   4.253 -0.0037 -0.2218  0.1333
  740SOL     hw 2958   3.853   1.019   4.169  1.0268  0.0500 -0.3404
  740SOL     hw 2959   3.883   1.150   4.238 -0.2563 -0.1378  0.6092
  740SOL     vw 2960   3.877   1.063   4.240  0.0988 -0.1748  0.1338
  741SOL     ow 2961   0.198   3.351   7.164  0.2729  0.4747  0.8504
  741SOL     hw 2962   0.252   3.278   7.194  1.6249  1.1161  0.0866
  741SOL     hw 2963   0.235   3.428   7.206  0.5989  1.0539 -0.4225
  741SOL     vw 2964   0.210   3.351   7.173  0.4943  0.6359  0.5817
  742SOL     ow 2965   0.557   3.797   0.931 -0.0437  0.5375 -0.0149
  742SOL     hw 2966   0.472   3.834   0.908 -0.5780  0.4685  1.7350
  742SOL     hw 2967   0.618   3.871   0.922 -0.0473  0.3392 -2.2999
  742SOL     vw 2968   0.554   3.812   0.927 -0.1146  0.5022 -0.0855
  743SOL     ow 2969   0.350   6.583   5.510  0.1120 -0.3690 -0.2030
  743SOL     hw 2970   0.445   6.577   5.505  0.1420 -1.6765  1.1623
  743SOL     hw 2971   0.319   6.507   5.461 -0.2759  0.3698 -1.1402
  743SOL     vw 2972   0.359   6.572   5.503  0.0648 -0.4439 -0.1466
  744SOL     ow 2973   2.051   0.262   3.896  0.1343  0.6060 -0.3291
  744SOL     hw 2974   2.124   0.225   3.945 -0.2946  1.3297  0.9040
  744SOL     hw 2975   2.091   0.325   3.836  0.4826  1.5183  0.8342
  744SOL     vw 2976   2.066   0.265   3.894  0.1237  0.8218 -0.0130
  745SOL     ow 2977   4.761   0.678   0.059 -0.6773 -0.6594  0.2603
  745SOL     hw 2978   4.702   0.656   0.131 -1.0868 -0.5909 -0.0558
  745SOL     hw 2979   4.808   0.596   0.041  0.3296 -0.3733  1.4257
  745SOL     vw 2980   4.760   0.664   0.066 -0.5984 -0.6126  0.3724
  746SOL     ow 2981   2.503   1.401   6.991  1.0189 -0.0327 -0.2084
  746SOL     hw 2982   2.584   1.385   6.943  0.2351 -1.5395 -1.1067
  746SOL     hw 2983   2.461   1.473   6.944  0.5574 -1.0792 -1.4644
  746SOL     vw 2984   2.508   1.408   6.979  0.8546 -0.3695 -0.4926
  747SOL     ow 2985   5.543   3.517   2.985  0.3172  0.6594  0.0679
  747SOL     hw 2986   5.511   3.454   2.921 -0.6750  0.2054  0.9599
  747SOL     hw 2987   5.618   3.559   2.944 -0.2844  0.3701 -1.3654
  747SOL     vw 2988   5.549   3.514   2.971  0.1070  0.5615 -0.0036
  748SOL     ow 2989   5.193   1.072   2.870  0.2910 -0.3127  0.6736
  748SOL     hw 2990   5.254   1.100   2.801  0.2159  1.1196  1.1683
  748SOL     hw 2991   5.106   1.093   2.836  0.1926 -0.4920  0.8126
  748SOL     vw 2992   5.190   1.078   2.856  0.2685 -0.1474  0.7571
  749SOL     ow 2993   3.035   7.190   0.558  0.0265  0.3723 -0.0994
  749SOL     hw 2994   3.078   7.105   0.560  0.4959  0.6000 -0.2333
  749SOL     hw 2995   2.949   7.173   0.519  0.6896  0.2008 -1.5769
  749SOL     vw 2996   3.030   7.177   0.553  0.1760  0.3798 -0.3120
  750SOL     ow 2997   3.017   6.075   0.746  0.4683  0.5041  0.0615
  750SOL     hw 2998   2.968   6.156   0.758  0.7861  0.5625  0.9983
  750SOL     hw 2999   3.072   6.068   0.823 -0.8982 -1.5530  0.9364
  750SOL     vw 3000   3.018   6.085   0.757  0.3300  0.2401  0.3005
  751SOL     ow 3001   4.640   7.092   2.046 -0.1012 -0.2202 -0.3429
  751SOL     hw 3002   4.586   7.016   2.066  0.5380  0.0390  2.9234
  751SOL     hw 3003   4.577   7.161   2.023 -0.9206 -0.8103  0.0905
  751SOL     vw 3004   4.624   7.091   2.046 -0.1249 -0.2642  0.1451
  752SOL     ow 3005   4.731   6.315   4.836  0.8973  0.1353  0.2843
  752SOL     hw 3006   4.686   6.390   4.796 -0.5065 -1.6530 -1.7629
  752SOL     hw 3007   4.662   6.271   4.886  0.6612 -1.7478 -1.5638
  752SOL     vw 3008   4.716   6.319   4.837  0.6809 -0.3490 -0.2298
  753SOL     ow 3009   2.754   1.912   0.013 -0.0155  1.0575  0.4497
  753SOL     hw 3010   2.778   1.997  -0.023  1.0170  0.4000 -0.4469
  753SOL     hw 3011   2.710   1.933   0.096 -3.3044  2.6790 -1.5126
  753SOL     vw 3012   2.751   1.926   0.019 -0.3132  1.1846  0.0725
  754SOL     ow 3013   5.508   2.119   6.258  0.0912  0.2166  0.5894
  754SOL     hw 3014   5.507   2.081   6.170 -1.5798  1.9081 -0.1849
  754SOL     hw 3015   5.489   2.045   6.316 -0.3325 -0.6348 -0.5957
  754SOL     vw 3016   5.506   2.104   6.254 -0.1853  0.3275  0.3312
  755SOL     ow 3017   2.909   3.878   6.252  0.0922 -0.3185 -0.3409
  755SOL     hw 3018   2.823   3.920   6.249  1.0238  1.6108 -2.3214
  755SOL     hw 3019   2.965   3.940   6.297  0.2506 -2.1671  2.2293
  755SOL     vw 3020   2.905   3.892   6.257  0.2362 -0.3079 -0.2630
  756SOL     ow 3021   1.200   3.836   0.518 -0.2518 -0.3654 -0.3777
  756SOL     hw 3022   1.177   3.743   0.507 -2.7807  0.2886 -1.4076
  756SOL     hw 3023   1.242   3.859   0.435  0.7196 -0.6377  0.0208
  756SOL     vw 3024   1.203   3.827   0.505 -0.4573 -0.3150 -0.4610
  757SOL     ow 3025   2.742   1.575   2.270 -0.0233  0.1365  0.1098
  757SOL     hw 3026   2.701   1.657   2.299  0.5731  0.5072 -0.0592
  757SOL     hw 3027   2.676   1.532   2.217 -0.9100 -0.2379  1.4662
  757SOL     vw 3028   2.728   1.580   2.267 -0.0615  0.1360  0.2666
  758SOL     ow 3029   4.000   4.803   2.766  0.0349 -0.5683  0.7780
  758SOL     hw 3030   4.082   4.839   2.732  0.4701 -2.7637 -0.6576
  758SOL     hw 3031   4.020   4.780   2.857  0.6218  0.0422  0.8120
  758SOL     vw 3032   4.013   4.805   2.774  0.1698 -0.7772  0.5931
  759SOL     ow 3033   3.186   4.464   0.010 -0.6335 -0.0460  0.4468
  759SOL     hw 3034   3.242   4.435   0.083  0.6154 -2.2088 -1.2183
  759SOL     hw 3035   3.233   4.538  -0.028  0.9257 -1.4722 -0.5740
  759SOL     vw 3036   3.200   4.470   0.015 -0.2631 -0.5193  0.0923
  760SOL     ow 3037   1.313   0.760   1.383 -0.1822 -0.0321 -0.0572
  760SOL     hw 3038   1.273   0.814   1.315  0.6817  1.6719  0.7145
  760SOL     hw 3039   1.263   0.779   1.462  0.6270  0.2983  0.3954
  760SOL     vw 3040   1.301   0.770   1.384  0.0386  0.2363  0.1044
  761SOL     ow 3041   1.762   2.076   4.433  0.2880  0.0337  0.6485
  761SOL     hw 3042   1.775   2.022   4.511 -0.3955 -1.4524 -0.2326
  761SOL     hw 3043   1.704   2.147   4.463 -0.8034 -1.0918  1.2824
  761SOL     vw 3044   1.756   2.078   4.448  0.0539 -0.3108  0.6156
  762SOL     ow 3045   2.075   7.171   3.139 -0.2081 -0.0640  0.3068
  762SOL     hw 3046   2.012   7.243   3.146  1.5216  1.5847 -0.1238
  762SOL     hw 3047   2.062   7.120   3.218 -1.8709  0.3800  0.3624
  762SOL     vw 3048   2.065   7.174   3.150 -0.1991  0.2122  0.2571
  763SOL     ow 3049   6.805   4.494   0.995 -0.3095  0.4762  0.3530
  763SOL     hw 3050   6.793   4.533   1.081 -1.1407  0.7714  0.1193
  763SOL     hw 3051   6.864   4.553   0.949 -1.4755  1.4269  0.0381
  763SOL     vw 3052   6.811   4.507   1.000 -0.5732  0.6404  0.2807
  764SOL     ow 3053   5.064   1.363   5.212  0.7049  0.0889 -0.0844
  764SOL     hw 3054   5.061   1.276   5.171  0.8711 -0.1709  0.4429
  764SOL     hw 3055   5.065   1.424   5.139 -0.8127 -0.3004 -0.4658
  764SOL     vw 3056   5.064   1.360   5.197  0.5267  0.0033 -0.0653
  765SOL     ow 3057   6.686   5.636   7.307 -0.5573 -0.1722  0.2789
  765SOL     hw 3058   6.628   5.595   7.371 -1.8197 -0.4126 -0.9777
  765SOL     hw 3059   6.761   5.576   7.301 -0.6306 -0.3750  1.1791
  765SOL     vw 3060   6.688   5.623   7.315 -0.7336 -0.2303  0.2319
  766SOL     ow 3061   6.088   4.955   1.537  0.2751  0.7677 -0.1538
  766SOL     hw 3062   6.109   5.022   1.472 -0.1158 -0.4774 -1.6121
  766SOL     hw 3063   6.172   4.937   1.580  0.5908  1.4089 -0.4834
  766SOL     vw 3064   6.102   4.962   1.534  0.2651  0.6883 -0.3897
  767SOL     ow 3065   6.558   3.186   1.902  0.2399 -0.2164 -0.5981
  767SOL     hw 3066   6.521   3.159   1.986  1.1414 -1.9671 -0.7271
  767SOL     hw 3067   6.513   3.269   1.882 -0.6974 -0.2599  1.1151
  767SOL     vw 3068   6.547   3.194   1.911  0.2353 -0.4531 -0.3890
  768SOL     ow 3069   5.581   4.564   2.705  0.1778 -0.0088 -0.2011
  768SOL     hw 3070   5.604   4.482   2.662 -0.4452 -0.0182 -0.5237
  768SOL     hw 3071   5.615   4.555   2.794  0.7811 -0.3035 -0.4542
  768SOL     vw 3072   5.589   4.552   2.711  0.1750 -0.0489 -0.2770
  769SOL     ow 3073   4.632   1.512   0.751 -0.6916  0.6903 -0.1033
  769SOL     hw 3074   4.718   1.472   0.740 -0.6364  0.6130  0.6164
  769SOL     hw 3075   4.583   1.484   0.673 -0.3772 -0.0596 -0.0401
  769SOL     vw 3076   4.637   1.503   0.739 -0.6428  0.5811  0.0000
  770SOL     ow 3077   4.930   5.248   0.439 -0.2702  0.4184  0.3316
  770SOL     hw 3078   4.999   5.315   0.440  0.3502 -0.1981 -0.3354
  770SOL     hw 3079   4.905   5.238   0.531  1.3902 -0.2152  0.7477
  770SOL     vw 3080   4.936   5.256   0.452  0.0308  0.2534  0.2985
  771SOL     ow 3081   2.777   0.459   5.030 -0.3011 -0.3795 -0.6769
  771SOL     hw 3082   2.835   0.384   5.047  0.3909  0.1291 -0.7296
  771SOL     hw 3083   2.837   0.531   5.008 -0.9947 -0.0194 -1.4446
  771SOL     vw 3084   2.793   0.459   5.029 -0.3014 -0.2649 -0.7856
  772SOL     ow 3085   6.984   3.024   2.245  0.1904 -0.2414  0.2678
  772SOL     hw 3086   6.968   2.946   2.193  1.7922 -0.0033 -0.6627
  772SOL     hw 3087   6.921   3.088   2.212  0.8972 -0.2263 -1.1357
  772SOL     vw 3088   6.974   3.023   2.234  0.4947 -0.2080 -0.0402
  773SOL     ow 3089   7.055   2.375   0.028  0.2084 -0.0849 -0.0157
  773SOL     hw 3090   7.133   2.411   0.069  0.8234 -0.9287 -0.4200
  773SOL     hw 3091   7.053   2.283   0.055 -1.3750  0.2162  1.0718
  773SOL     vw 3092   7.065   2.368   0.037  0.0806 -0.1564  0.0744
  774SOL     ow 3093   3.423   3.770   7.136 -0.3844  0.4446  0.6857
  774SOL     hw 3094   3.516   3.748   7.140 -0.5091 -0.1606  0.3803
  774SOL     hw 3095   3.388   3.741   7.220 -0.5156 -0.4055  0.3506
  774SOL     vw 3096   3.431   3.763   7.148 -0.4182  0.2526  0.6013
  775SOL     ow 3097   5.900   5.470   3.664  0.2508  0.3498 -0.2200
  775SOL     hw 3098   5.942   5.555   3.653  0.8737 -0.0436 -0.9643
  775SOL     hw 3099   5.958   5.423   3.725  0.7842 -0.1018 -1.0506
  775SOL     vw 3100   5.913   5.475   3.671  0.4034  0.2384 -0.4277
  776SOL     ow 3101   5.461   7.345   5.390 -0.2903  0.5647  0.5525
  776SOL     hw 3102   5.485   7.265   5.436  0.8172 -0.3236 -1.4498
  776SOL     hw 3103   5.374   7.328   5.355 -0.0263  0.1697  0.0683
  776SOL     vw 3104   5.453   7.332   5.391 -0.1092  0.3953  0.2244
  777SOL     ow 3105   4.079   1.960   5.188  0.5077  0.4391  0.1177
  777SOL     hw 3106   4.059   1.885   5.131  0.7915 -1.0072  1.8477
  777SOL     hw 3107   4.000   1.970   5.241  0.3310  1.6285 -0.3544
  777SOL     vw 3108   4.066   1.951   5.187  0.5219  0.4051  0.2837
  778SOL     ow 3109   5.522   5.261   0.174 -0.2922  0.3171  0.0601
  778SOL     hw 3110   5.438   5.256   0.220  0.2788  0.4923  1.1650
  778SOL     hw 3111   5.541   5.170   0.151 -0.3924  0.1661  0.5497
  778SOL     vw 3112   5.513   5.248   0.177 -0.2301  0.3202  0.2705
  779SOL     ow 3113   2.848   2.881   0.471  0.6494 -0.4628  0.3745
  779SOL     hw 3114   2.873   2.933   0.547  1.2461  5.4575 -3.2413
  779SOL     hw 3115   2.755   2.897   0.460 -0.0908 -3.6132  1.2168
  779SOL     vw 3116   2.839   2.890   0.479  0.6305 -0.0974  0.0085
  780SOL     ow 3117   1.906   3.754   1.828 -0.3674  0.6664 -0.3070
  780SOL     hw 3118   1.815   3.727   1.833 -0.9059  2.3911 -0.1898
  780SOL     hw 3119   1.950   3.704   1.896 -0.1742 -3.7412 -3.2260
  780SOL     vw 3120   1.900   3.744   1.837 -0.4129  0.3123 -0.6766
  781SOL     ow 3121   0.844   2.891   5.967  0.1980  0.1594  0.4285
  781SOL     hw 3122   0.850   2.986   5.972 -1.4026  0.3393 -0.5450
  781SOL     hw 3123   0.759   2.874   5.926  0.7496 -1.6757 -0.0475
  781SOL     vw 3124   0.834   2.901   5.962  0.0596 -0.0590  0.2372
  782SOL     ow 3125   6.125   4.330   2.756 -0.1270 -0.0501  0.1749
  782SOL     hw 3126   6.209   4.305   2.794 -0.0289  0.0116 -0.0005
  782SOL     hw 3127   6.104   4.413   2.799 -0.3207 -0.2883  0.5535
  782SOL     vw 3128   6.133   4.338   2.767 -0.1397 -0.0732  0.2018
  783SOL     ow 3129   3.696   6.103   1.990  0.6738 -0.3806 -0.1944
  783SOL     hw 3130   3.630   6.153   2.039 -1.6216 -2.5528 -0.8531
  783SOL     hw 3131   3.710   6.155   1.911  0.2149  0.4224  0.2289
  783SOL     vw 3132   3.689   6.117   1.986  0.3105 -0.5615 -0.2255
  784SOL     ow 3133   1.738   6.912   1.462  0.2019  0.0132  0.8946
  784SOL     hw 3134   1.805   6.854   1.426  0.3865  1.0024 -0.4040
  784SOL     hw 3135   1.668   6.853   1.491 -0.6090 -0.8302 -2.3919
  784SOL     vw 3136   1.738   6.896   1.461  0.1193  0.0327  0.2896
  785SOL     ow 3137   1.451   0.483   2.635 -0.0492  0.0571 -0.6937
  785SOL     hw 3138   1.473   0.576   2.624  1.4647 -0.2336 -0.2535
  785SOL     hw 3139   1.526   0.436   2.601  0.8360 -0.9513  2.3561
  785SOL     vw 3140   1.464   0.489   2.629  0.2674 -0.1143 -0.2331
  786SOL     ow 3141   6.280   5.536   6.644 -0.7272  0.1523  0.3720
  786SOL     hw 3142   6.372   5.513   6.652 -0.2358  2.1463  0.9018
  786SOL     hw 3143   6.260   5.586   6.723 -3.7139 -4.4147  2.9644
  786SOL     vw 3144   6.289   5.540   6.655 -1.0564 -0.1869  0.7837
  787SOL     ow 3145   6.452   4.032   4.370  0.3006 -0.0963  0.2923
  787SOL     hw 3146   6.527   4.092   4.372  1.7538 -1.8265  1.9445
  787SOL     hw 3147   6.385   4.079   4.321  2.3853  1.6204 -1.1118
  787SOL     vw 3148   6.453   4.046   4.364  0.7675 -0.0982  0.3252
  788SOL     ow 3149   0.417   5.476   3.535  0.3122 -0.8339 -0.9514
  788SOL     hw 3150   0.491   5.510   3.585 -0.3271 -0.8123 -0.0032
  788SOL     hw 3151   0.352   5.451   3.601 -0.8321 -0.1577 -1.7670
  788SOL     vw 3152   0.418   5.477   3.550  0.0768 -0.7420 -0.9339
  789SOL     ow 3153   2.528   2.858   4.080 -0.2140  0.4768 -0.4293
  789SOL     hw 3154   2.555   2.893   3.995 -1.4284  2.9530  0.0819
  789SOL     hw 3155   2.534   2.933   4.139  1.0371 -1.2774  1.8258
  789SOL     vw 3156   2.533   2.873   4.076 -0.2092  0.5718 -0.0644
  790SOL     ow 3157   6.018   4.129   4.155 -0.5404 -0.5575  0.0248
  790SOL     hw 3158   5.951   4.186   4.118 -0.0101 -0.0060 -0.0864
  790SOL     hw 3159   6.045   4.172   4.236  1.1974  0.3427 -0.9799
  790SOL     vw 3160   6.013   4.142   4.161 -0.2410 -0.3662 -0.1225
  791SOL     ow 3161   7.350   1.170   0.041  0.0011  0.2214  0.0565
  791SOL     hw 3162   7.440   1.176   0.073 -1.0078  1.6997  3.0067
  791SOL     hw 3163   7.358   1.166  -0.054  3.1505  1.1011  0.1896
  791SOL     vw 3164   7.363   1.171   0.033  0.2835  0.5325  0.4634
  792SOL     ow 3165   4.243   4.923   7.007  0.3114  1.2438 -0.0816
  792SOL     hw 3166   4.304   4.851   7.023 -0.2050  0.3326 -1.9643
  792SOL     hw 3167   4.194   4.896   6.930 -0.4677  3.2667 -0.3454
  792SOL     vw 3168   4.245   4.910   6.999  0.1402  1.3905 -0.3648
  793SOL     ow 3169   0.060   0.198   6.443 -0.6188 -0.1916 -0.4182
  793SOL     hw 3170   0.102   0.215   6.358 -1.0607  0.0572 -0.5890
  793SOL     hw 3171  -0.015   0.142   6.422 -0.5511 -0.3862 -0.1493
  793SOL     vw 3172   0.056   0.193   6.429 -0.6681 -0.1845 -0.4053
  794SOL     ow 3173   4.616   1.056   0.124 -0.1687  0.4753  1.3820
  794SOL     hw 3174   4.680   1.013   0.067 -1.2323 -0.7875  1.1097
  794SOL     hw 3175   4.604   1.143   0.084 -0.2763 -0.0805  0.1595
  794SOL     vw 3176   4.623   1.062   0.111 -0.3231  0.2354  1.1848
  795SOL     ow 3177   3.345   6.148   3.507  0.3311  0.3067 -0.2823
  795SOL     hw 3178   3.302   6.069   3.473 -2.5990  0.4148  2.6171
  795SOL     hw 3179   3.277   6.215   3.504  1.3111  1.4613  1.4606
  795SOL     vw 3180   3.330   6.146   3.502  0.0738  0.4733  0.3302
  796SOL     ow 3181   6.196   4.941   4.465 -0.0765 -0.5784  0.4581
  796SOL     hw 3182   6.260   4.909   4.528 -1.0602  1.4085  2.6384
  796SOL     hw 3183   6.232   5.024   4.434 -0.9039 -0.1181  0.6768
  796SOL     vw 3184   6.209   4.948   4.470 -0.3154 -0.2556  0.7749
  797SOL     ow 3185   2.532   0.525   2.928 -0.8726  0.3124  0.1115
  797SOL     hw 3186   2.442   0.496   2.943 -1.4062 -0.0335 -3.0579
  797SOL     hw 3187   2.523   0.613   2.890 -0.0387 -0.3431 -1.7241
  797SOL     vw 3188   2.519   0.533   2.925 -0.8330  0.1803 -0.5488
  798SOL     ow 3189   1.383   4.376   4.957 -0.2912 -0.2479 -0.1408
  798SOL     hw 3190   1.361   4.357   5.048  1.0993 -2.1794 -0.1446
  798SOL     hw 3191   1.316   4.331   4.906 -0.6506  0.2274 -0.0961
  798SOL     vw 3192   1.372   4.368   4.962 -0.1551 -0.4401 -0.1354
  799SOL     ow 3193   7.323   2.873   4.569  0.5409  0.2430 -0.0866
  799SOL     hw 3194   7.324   2.953   4.517 -1.9330  0.7390  0.5019
  799SOL     hw 3195   7.294   2.901   4.656 -0.7506 -1.3046  0.0261
  799SOL     vw 3196   7.319   2.887   4.574  0.0441  0.1043  0.0060
  800SOL     ow 3197   2.636   1.277   7.209 -0.6370  0.1199  0.6734
  800SOL     hw 3198   2.678   1.312   7.287 -1.3166 -1.9956  2.0792
  800SOL     hw 3199   2.697   1.212   7.175  0.0192  1.5692 -1.1136
  800SOL     vw 3200   2.650   1.273   7.215 -0.6402  0.0320  0.6232
  801SOL     ow 3201   3.115   6.571   1.704 -0.2007 -0.3007  1.1118
  801SOL     hw 3202   3.073   6.611   1.781  2.6837  1.1088  2.0981
  801SOL     hw 3203   3.181   6.513   1.741 -1.6101 -3.0104 -0.3806
  801SOL     vw 3204   3.118   6.569   1.719 -0.0062 -0.4723  1.0450
  802SOL     ow 3205   0.842   7.224   6.466  0.4711 -0.0783  0.4909
  802SOL     hw 3206   0.880   7.213   6.553 -2.5374  0.2512  1.9746
  802SOL     hw 3207   0.844   7.136   6.427  2.4309 -0.1023  0.5805
  802SOL     vw 3208   0.847   7.211   6.472  0.3327 -0.0379  0.6986
  803SOL     ow 3209   4.064   0.921   4.493  0.3736  0.1324  0.3652
  803SOL     hw 3210   4.155   0.927   4.462  0.3768 -4.2500 -1.1147
  803SOL     hw 3211   4.070   0.869   4.573 -0.8483 -0.4956  0.0601
  803SOL     vw 3212   4.077   0.915   4.499  0.2129 -0.5287  0.1295
  804SOL     ow 3213   4.011   2.961   6.967  0.4641 -0.2403  0.3023
  804SOL     hw 3214   4.016   2.881   7.020 -1.2612 -0.7927 -0.2671
  804SOL     hw 3215   4.074   2.947   6.896 -2.3698 -2.9427 -2.0005
  804SOL     vw 3216   4.020   2.948   6.964 -0.1373 -0.6697 -0.0765
  805SOL     ow 3217   1.109   4.952   5.316 -0.0741  0.0236  0.0158
  805SOL     hw 3218   1.104   4.873   5.369  0.4075 -1.1461 -1.6239
  805SOL     hw 3219   1.047   5.012   5.357 -0.4348 -1.1706  1.3029
  805SOL     vw 3220   1.100   4.950   5.328 -0.0581 -0.2880 -0.0308
  806SOL     ow 3221   6.426   4.610   5.809 -0.0822  0.5667  0.2090
  806SOL     hw 3222   6.467   4.608   5.722  0.2513  0.4471  0.3704
  806SOL     hw 3223   6.499   4.600   5.870 -0.3916 -0.0088  0.4865
  806SOL     vw 3224   6.441   4.609   5.805 -0.0787  0.4749  0.2668
  807SOL     ow 3225   1.356   0.941   4.030  0.8306  0.7084 -0.9055
  807SOL     hw 3226   1.417   0.902   4.092  0.5517  1.7271  0.0370
  807SOL     hw 3227   1.384   0.908   3.944  1.2793 -0.6457 -0.2635
  807SOL     vw 3228   1.368   0.932   4.027  0.8530  0.6641 -0.6962
  808SOL     ow 3229   7.046   1.204   0.901 -0.0197 -0.1885 -0.3253
  808SOL     hw 3230   7.089   1.282   0.937  3.1732 -1.6418 -0.6925
  808SOL     hw 3231   7.036   1.223   0.808  4.2019 -1.3921 -1.2444
  808SOL     vw 3232   7.050   1.217   0.894  0.9587 -0.5391 -0.4950
  809SOL     ow 3233   3.604   4.428   7.136 -0.0365 -0.4069 -0.0016
  809SOL     hw 3234   3.646   4.475   7.064 -0.5500 -1.0861 -0.7623
  809SOL     hw 3235   3.514   4.412   7.105 -0.4169 -0.2752  0.9923
  809SOL     vw 3236   3.597   4.432   7.122 -0.1544 -0.4790  0.0293
  810SOL     ow 3237   5.505   7.191   2.311  0.8779  0.1301 -0.3841
  810SOL     hw 3238   5.416   7.226   2.307  0.9196  0.2801 -0.0194
  810SOL     hw 3239   5.544   7.215   2.227  0.6935  0.3909 -0.3966
  810SOL     vw 3240   5.498   7.199   2.300  0.8588  0.1843 -0.3376
  811SOL     ow 3241   1.485   7.005   3.963 -0.5973  0.0182 -0.6317
  811SOL     hw 3242   1.436   6.940   4.013  1.0502  0.3894  1.6146
  811SOL     hw 3243   1.567   6.961   3.940  0.0394  0.8806 -0.0998
  811SOL     vw 3244   1.490   6.991   3.967 -0.2960  0.1810 -0.2651
  812SOL     ow 3245   3.892   6.975   1.399 -0.7645 -0.1995  0.0130
  812SOL     hw 3246   3.911   6.979   1.305 -2.8381  0.9657 -0.4194
  812SOL     hw 3247   3.814   7.030   1.410  0.2978  0.9189  2.6741
  812SOL     vw 3248   3.884   6.983   1.388 -0.8978  0.1018  0.3071
  813SOL     ow 3249   5.294   5.643   3.533  0.2189 -0.6107 -1.0271
  813SOL     hw 3250   5.323   5.604   3.450 -0.1080 -0.8687 -1.0249
  813SOL     hw 3251   5.220   5.588   3.560 -1.2249  0.8981 -1.7721
  813SOL     vw 3252   5.288   5.630   3.525 -0.0148 -0.4458 -1.1252
  814SOL     ow 3253   6.396   3.874   5.646  1.0861  0.8298  0.4439
  814SOL     hw 3254   6.480   3.843   5.681  1.5604 -0.8477 -1.9691
  814SOL     hw 3255   6.350   3.794   5.621 -0.1747  1.8489 -0.5802
  814SOL     vw 3256   6.401   3.859   5.647  0.9825  0.7430 -0.0095
  815SOL     ow 3257   5.985   4.129   2.656 -0.0558  0.3067 -0.1874
  815SOL     hw 3258   6.034   4.205   2.688  0.4040  0.1184 -0.4249
  815SOL     hw 3259   5.894   4.148   2.676  0.1207  0.6511  0.2995
  815SOL     vw 3260   5.980   4.141   2.663  0.0284  0.3273 -0.1545
  816SOL     ow 3261   2.276   1.149   0.694 -0.3935 -0.5713 -0.9383
  816SOL     hw 3262   2.328   1.135   0.614 -0.9079  1.1916 -1.6549
  816SOL     hw 3263   2.334   1.125   0.765 -0.1811 -2.9711 -1.8267
  816SOL     vw 3264   2.290   1.144   0.693 -0.4333 -0.6554 -1.1500
  817SOL     ow 3265   0.530   3.801   1.241  1.3784 -0.2935  0.3955
  817SOL     hw 3266   0.463   3.869   1.249  2.5467  1.0038 -0.3383
  817SOL     hw 3267   0.525   3.773   1.149 -1.5364 -3.9459  1.3961
  817SOL     vw 3268   0.521   3.806   1.230  1.1480 -0.6042  0.4307
  818SOL     ow 3269   4.663   3.425   5.612 -0.3746  0.3380  0.4201
  818SOL     hw 3270   4.692   3.452   5.699 -0.2141  0.0338  0.4625
  818SOL     hw 3271   4.742   3.429   5.558 -0.0406 -1.2612  0.7146
  818SOL     vw 3272   4.677   3.429   5.616 -0.3090  0.0869  0.4647
  819SOL     ow 3273   1.109   5.110   5.012  0.2122  0.0947 -0.2428
  819SOL     hw 3274   1.139   5.200   5.004  0.7758  0.3733  3.2814
  819SOL     hw 3275   1.017   5.112   4.985  0.1842  1.7643 -0.1178
  819SOL     vw 3276   1.101   5.122   5.008  0.2829  0.3517  0.2389
  820SOL     ow 3277   2.379   4.963   5.175 -0.0078  0.4213 -0.0107
  820SOL     hw 3278   2.313   5.027   5.148 -2.3758 -2.0115 -0.3766
  820SOL     hw 3279   2.363   4.950   5.268 -0.5543 -0.6822 -0.2418
  820SOL     vw 3280   2.368   4.970   5.184 -0.3923 -0.0453 -0.0894
  821SOL     ow 3281   6.152   1.842   2.047 -0.0032 -0.5984 -0.1554
  821SOL     hw 3282   6.104   1.761   2.063 -1.9149  0.7318  1.3539
  821SOL     hw 3283   6.193   1.863   2.130  0.2435  0.1335 -0.4518
  821SOL     vw 3284   6.151   1.834   2.060 -0.2227 -0.3263  0.0046
  822SOL     ow 3285   6.956   2.399   2.956 -0.6821 -0.6467 -0.0233
  822SOL     hw 3286   6.893   2.402   3.027 -0.4761 -0.2342  0.1407
  822SOL     hw 3287   6.961   2.306   2.932  0.2744 -1.0030  1.4266
  822SOL     vw 3288   6.949   2.387   2.962 -0.5286 -0.6392  0.1897
  823SOL     ow 3289   7.195   7.047   1.156 -0.6884  0.2893  0.9438
  823SOL     hw 3290   7.194   7.137   1.187 -1.0310  1.2521 -1.6373
  823SOL     hw 3291   7.121   7.041   1.095 -0.1309 -1.4701  0.3577
  823SOL     vw 3292   7.185   7.058   1.152 -0.6597  0.1843  0.5260
  824SOL     ow 3293   6.335   3.991   1.439  0.4751  0.3692 -0.9270
  824SOL     hw 3294   6.289   4.073   1.421 -2.4549 -0.5581  1.4362
  824SOL     hw 3295   6.400   4.015   1.505  1.7043  1.2348 -2.3817
  824SOL     vw 3296   6.338   4.005   1.445  0.2508  0.3610 -0.8072
  825SOL     ow 3297   1.336   3.327   3.248  0.1546 -0.5269 -0.4090
  825SOL     hw 3298   1.339   3.355   3.339 -1.1005 -1.3093 -0.1018
  825SOL     hw 3299   1.399   3.255   3.242 -2.5751 -3.2596  0.9196
  825SOL     vw 3300   1.345   3.321   3.259 -0.3711 -0.9907 -0.1931
  826SOL     ow 3301   0.871   6.643   0.572  0.9514 -0.1419 -0.5802
  826SOL     hw 3302   0.779   6.623   0.555  1.0869 -0.4468 -0.9730
  826SOL     hw 3303   0.915   6.558   0.566  1.2520 -0.0025 -0.3479
  826SOL     vw 3304   0.864   6.629   0.569  1.0090 -0.1638 -0.6014
  827SOL     ow 3305   2.016   2.863   5.152 -0.7419  0.0437  0.5747
  827SOL     hw 3306   2.019   2.834   5.061 -2.1810 -1.0128  0.8290
  827SOL     hw 3307   2.076   2.938   5.156 -0.6867  0.1246 -1.2301
  827SOL     vw 3308   2.025   2.869   5.141 -0.9246 -0.0850  0.3700
  828SOL     ow 3309   2.696   5.374   3.152  0.3236  0.1558  0.0913
  828SOL     hw 3310   2.671   5.385   3.243  0.1987 -0.0430  0.0795
  828SOL     hw 3311   2.615   5.382   3.103  0.0379 -1.8293  0.1503
  828SOL     vw 3312   2.682   5.377   3.157  0.2695 -0.1326  0.0974
  829SOL     ow 3313   3.860   5.528   1.242 -0.2975 -0.3658 -0.2183
  829SOL     hw 3314   3.881   5.484   1.160  0.6189  0.5865 -0.5178
  829SOL     hw 3315   3.777   5.573   1.226 -1.0007 -1.5820 -0.0543
  829SOL     vw 3316   3.852   5.528   1.229 -0.2694 -0.4008 -0.2361
  830SOL     ow 3317   1.385   0.422   1.250  0.3009 -0.1083 -0.5462
  830SOL     hw 3318   1.306   0.476   1.246 -0.3841 -1.0257  0.1461
  830SOL     hw 3319   1.379   0.378   1.335  1.1525 -0.7999 -0.8345
  830SOL     vw 3320   1.374   0.423   1.261  0.3228 -0.3206 -0.4929
  831SOL     ow 3321   5.512   6.991   4.570  0.2403  0.4789 -0.1662
  831SOL     hw 3322   5.575   6.934   4.526  0.0428  0.6369 -0.6624
  831SOL     hw 3323   5.462   7.032   4.499 -1.2533 -0.5645  0.2415
  831SOL     vw 3324   5.514   6.989   4.555  0.0172  0.3619 -0.1779
  832SOL     ow 3325   5.272   2.475   2.272 -0.1206 -0.0013 -0.5556
  832SOL     hw 3326   5.328   2.437   2.204  2.9029  0.6400  1.3996
  832SOL     hw 3327   5.270   2.409   2.341  0.4381  1.0344  0.4844
  832SOL     vw 3328   5.279   2.461   2.272  0.3519  0.2201 -0.1605
  833SOL     ow 3329   4.190   2.345   4.529 -0.2341 -0.6436  0.2484
  833SOL     hw 3330   4.131   2.337   4.454  1.0751 -0.1972 -0.8696
  833SOL     hw 3331   4.275   2.316   4.497  0.8581  1.5670  0.8905
  833SOL     vw 3332   4.194   2.340   4.515  0.0823 -0.2930  0.1857
  834SOL     ow 3333   3.405   5.030   6.218 -0.3215  0.3481 -0.1584
  834SOL     hw 3334   3.485   4.981   6.239 -0.6967 -0.5103 -0.6859
  834SOL     hw 3335   3.411   5.046   6.124 -0.6083  0.6013 -0.1353
  834SOL     vw 3336   3.417   5.026   6.208 -0.4088  0.2680 -0.2248
  835SOL     ow 3337   6.239   3.731   3.701  0.5117 -0.0549 -0.8666
  835SOL     hw 3338   6.209   3.806   3.650  0.0908  0.5467  0.2285
  835SOL     hw 3339   6.269   3.668   3.635  2.0337  1.5424 -1.7925
  835SOL     vw 3340   6.239   3.732   3.685  0.6571  0.2352 -0.8442
  836SOL     ow 3341   3.876   2.314   5.526 -0.7216  0.1579 -0.2844
  836SOL     hw 3342   3.910   2.404   5.529  3.6134 -0.9758 -3.8734
  836SOL     hw 3343   3.919   2.271   5.599  2.2748 -0.1611 -2.0675
  836SOL     vw 3344   3.886   2.321   5.536  0.2459 -0.0337 -0.9930
  837SOL     ow 3345   3.797   2.613   0.230 -0.0922  0.2385 -0.5582
  837SOL     hw 3346   3.843   2.533   0.255 -0.5512  0.0933 -0.1640
  837SOL     hw 3347   3.793   2.610   0.135  0.7569  0.2805 -0.6013
  837SOL     vw 3348   3.803   2.602   0.221 -0.0408  0.2247 -0.5119
  838SOL     ow 3349   2.693   5.778   5.306 -0.1771  0.1420 -0.6525
  838SOL     hw 3350   2.764   5.837   5.283 -0.1384  0.4895  0.3199
  838SOL     hw 3351   2.734   5.692   5.311 -0.2626 -0.0184 -2.2065
  838SOL     vw 3352   2.707   5.774   5.304 -0.1833  0.1667 -0.7291
  839SOL     ow 3353   0.590   2.318   7.024 -0.4328  0.0816  0.3868
  839SOL     hw 3354   0.667   2.344   7.075  0.0519 -0.0318 -0.2729
  839SOL     hw 3355   0.516   2.357   7.070  0.0843  0.7571  0.6553
  839SOL     vw 3356   0.591   2.326   7.036 -0.3006  0.1557  0.3350
  840SOL     ow 3357   0.969   1.212   0.617 -0.4121 -0.8393  0.1840
  840SOL     hw 3358   1.001   1.129   0.582 -0.0139 -0.3964 -0.5191
  840SOL     hw 3359   0.902   1.186   0.681 -0.2453 -1.7014  0.0270
  840SOL     vw 3360   0.964   1.197   0.621 -0.3375 -0.8946  0.0705
  841SOL     ow 3361   5.866   1.863   2.996 -0.2644  0.3273 -0.1049
  841SOL     hw 3362   5.783   1.873   3.041 -3.4098 -1.0427 -4.8294
  841SOL     hw 3363   5.889   1.770   3.006 -0.0853  0.3801 -0.0105
  841SOL     vw 3364   5.858   1.852   3.003 -0.6557  0.1535 -0.7159
  842SOL     ow 3365   2.984   5.212   2.889 -0.1471 -0.1268 -0.7987
  842SOL     hw 3366   2.971   5.173   2.975  0.6285  1.5788  0.1400
  842SOL     hw 3367   2.899   5.205   2.846 -1.5508  1.9817  1.3937
  842SOL     vw 3368   2.971   5.206   2.895 -0.2300  0.3762 -0.3856
  843SOL     ow 3369   3.931   3.208   1.039  0.3362  0.7891  0.1548
  843SOL     hw 3370   3.959   3.285   1.087  1.8517  0.6044 -0.3770
  843SOL     hw 3371   3.914   3.239   0.950  0.4581  0.6058  0.0657
  843SOL     vw 3372   3.933   3.222   1.033  0.5523  0.7404  0.0729
  844SOL     ow 3373   5.629   3.100   3.417 -0.2652 -0.3905 -0.1878
  844SOL     hw 3374   5.698   3.148   3.370  0.5877 -0.0506  1.3617
  844SOL     hw 3375   5.650   3.112   3.509 -0.8591 -2.5824  0.2733
  844SOL     vw 3376   5.641   3.108   3.423 -0.2310 -0.6349  0.0775
  845SOL     ow 3377   5.774   2.453   5.457  0.1782  0.2337  0.1891
  845SOL     hw 3378   5.683   2.483   5.464 -0.5052 -1.5718 -0.2495
  845SOL     hw 3379   5.777   2.407   5.373  1.1969 -0.6383  0.6820
  845SOL     vw 3380   5.762   2.451   5.447  0.2224 -0.1196  0.1962
  846SOL     ow 3381   4.475   6.381   7.170  0.1610  0.1942  0.6702
  846SOL     hw 3382   4.557   6.356   7.128  0.0854  2.7290 -1.2221
  846SOL     hw 3383   4.501   6.443   7.238 -0.1612  1.6347 -0.4668
  846SOL     vw 3384   4.489   6.385   7.174  0.1087  0.7188  0.2706
  847SOL     ow 3385   4.478   0.627   3.208 -0.3416 -0.0031  0.0169
  847SOL     hw 3386   4.570   0.645   3.226 -0.3241 -1.7418  2.0558
  847SOL     hw 3387   4.439   0.714   3.197  1.2701  0.8514  0.5845
  847SOL     vw 3388   4.485   0.641   3.209 -0.1266 -0.1198  0.3607
  848SOL     ow 3389   2.051   6.476   3.210  0.2597  0.4524  0.4975
  848SOL     hw 3390   2.084   6.432   3.288  0.1985  0.7668  0.7038
  848SOL     hw 3391   2.128   6.522   3.175  0.2770  0.3480  0.3995
  848SOL     vw 3392   2.066   6.476   3.215  0.2539  0.4799  0.5116
  849SOL     ow 3393   6.766   4.152   1.062  0.3402 -0.4656  0.1191
  849SOL     hw 3394   6.721   4.093   1.001 -1.5682 -0.0720  1.0714
  849SOL     hw 3395   6.749   4.115   1.148  0.6121  0.5247  0.6144
  849SOL     vw 3396   6.758   4.139   1.065  0.1245 -0.2830  0.3100
  850SOL     ow 3397   3.787   3.604   2.935 -0.2984 -0.1405  0.2271
  850SOL     hw 3398   3.740   3.548   2.997  0.8960 -0.5662  0.7735
  850SOL     hw 3399   3.797   3.688   2.981 -0.0975 -0.2041  0.2986
  850SOL     vw 3400   3.782   3.608   2.949 -0.1142 -0.2052  0.3086
  851SOL     ow 3401   6.959   1.154   5.489  0.3671  0.7256  0.1597
  851SOL     hw 3402   6.983   1.233   5.538  1.2984  1.4567 -1.3921
  851SOL     hw 3403   7.038   1.099   5.494  0.3786  0.7005 -0.2996
  851SOL     vw 3404   6.973   1.157   5.496  0.4916  0.8188 -0.1056
  852SOL     ow 3405   4.020   2.345   6.451 -0.3480  0.1499 -0.0757
  852SOL     hw 3406   4.007   2.430   6.411  0.4016  0.3539  0.0937
  852SOL     hw 3407   4.068   2.363   6.532 -0.1433 -0.4345 -0.0604
  852SOL     vw 3408   4.025   2.358   6.456 -0.2220  0.0998 -0.0515
  853SOL     ow 3409   4.558   3.486   2.785 -0.3210 -0.5240  0.1167
  853SOL     hw 3410   4.602   3.558   2.739 -0.1917 -0.2427  0.6725
  853SOL     hw 3411   4.523   3.527   2.864 -0.0268 -1.1312  0.5651
  853SOL     vw 3412   4.559   3.501   2.789 -0.2651 -0.5670  0.2493
  854SOL     ow 3413   1.797   6.414   0.733  0.4027 -0.3061 -0.3343
  854SOL     hw 3414   1.723   6.424   0.673 -1.4696  0.8009  1.9875
  854SOL     hw 3415   1.823   6.322   0.724 -4.0639 -2.0907  1.6663
  854SOL     vw 3416   1.791   6.403   0.724 -0.4336 -0.3955  0.2360
  855SOL     ow 3417   3.092   3.747   6.895  0.2950 -0.0450 -0.0661
  855SOL     hw 3418   3.109   3.707   6.980  1.3638  0.1831 -0.1675
  855SOL     hw 3419   3.175   3.785   6.868  0.1966 -0.8089 -1.5924
  855SOL     vw 3420   3.105   3.747   6.903  0.4231 -0.1156 -0.2809
  856SOL     ow 3421   4.843   0.493   4.996  0.1510 -0.4305 -0.0679
  856SOL     hw 3422   4.834   0.544   5.077 -2.0099 -2.2165  0.9350
  856SOL     hw 3423   4.778   0.530   4.937  4.1197  3.3650 -2.6605
  856SOL     vw 3424   4.833   0.505   4.999  0.3898 -0.1654 -0.2778
  857SOL     ow 3425   4.264   2.284   3.081 -0.1838  0.6471  1.0719
  857SOL     hw 3426   4.261   2.275   3.176 -0.3717  1.9690  1.2105
  857SOL     hw 3427   4.328   2.354   3.066 -0.3898  0.6639  0.2448
  857SOL     vw 3428   4.272   2.292   3.092 -0.2358  0.8237  0.9810
  858SOL     ow 3429   5.888   6.084   7.084  0.4301  0.2550  0.7197
  858SOL     hw 3430   5.937   6.141   7.143  0.0806  0.4434  0.8311
  858SOL     hw 3431   5.954   6.046   7.026  0.8437 -0.3193  1.5498
  858SOL     vw 3432   5.903   6.087   7.084  0.4385  0.2041  0.8435
  859SOL     ow 3433   4.772   4.807   4.020 -0.4850 -0.3098 -0.5584
  859SOL     hw 3434   4.778   4.902   4.014  3.1550 -0.3708  0.1848
  859SOL     hw 3435   4.697   4.792   4.078 -0.7938  2.0916 -0.2296
  859SOL     vw 3436   4.763   4.817   4.027 -0.0453 -0.0010 -0.4168
  860SOL     ow 3437   4.534   3.832   1.926  0.1291 -0.6047  0.3315
  860SOL     hw 3438   4.585   3.777   1.986  3.1416  0.8550 -0.6760
  860SOL     hw 3439   4.537   3.786   1.842  0.5985 -0.1088  0.0641
  860SOL     vw 3440   4.541   3.819   1.923  0.5887 -0.3467  0.1632
  861SOL     ow 3441   1.342   4.939   5.086 -0.5798 -0.5267 -0.5954
  861SOL     hw 3442   1.352   4.991   5.006  0.1442  0.4611  0.1084
  861SOL     hw 3443   1.345   4.848   5.056  1.0557 -0.2020 -1.5747
  861SOL     vw 3444   1.344   4.934   5.071 -0.2684 -0.3538 -0.6316
  862SOL     ow 3445   6.560   3.720   3.509 -0.1469 -0.0494  0.2572
  862SOL     hw 3446   6.506   3.679   3.441 -0.5272  1.0259 -0.1237
  862SOL     hw 3447   6.519   3.805   3.523 -0.6991 -0.6403  2.6128
  862SOL     vw 3448   6.547   3.726   3.502 -0.2697  0.0144  0.5177
  863SOL     ow 3449   1.652   1.259   6.579  0.6813  0.3858  0.1418
  863SOL     hw 3450   1.683   1.201   6.509  0.2692  0.0902  0.1998
  863SOL     hw 3451   1.563   1.229   6.596  0.7933  0.4385  0.8213
  863SOL     vw 3452   1.644   1.248   6.572  0.6417  0.3538  0.2389
  864SOL     ow 3453   3.660   2.473   2.734 -0.2200 -1.3614 -0.2374
  864SOL     hw 3454   3.691   2.563   2.746  1.1584 -1.5752 -1.7746
  864SOL     hw 3455   3.598   2.460   2.805 -0.6604  0.8918 -0.1157
  864SOL     vw 3456   3.656   2.483   2.745 -0.0963 -1.0923 -0.4243
  865SOL     ow 3457   2.717   1.189   0.967  0.4474 -0.2578 -0.0691
  865SOL     hw 3458   2.624   1.183   0.944 -0.7102  1.8540  3.3950
  865SOL     hw 3459   2.750   1.261   0.913 -0.7106  0.8226  0.5927
  865SOL     vw 3460   2.709   1.198   0.957  0.1420  0.1634  0.4753
  866SOL     ow 3461   2.289   1.598   4.355 -0.5932 -0.5462  0.3094
  866SOL     hw 3462   2.372   1.579   4.399  0.1410  0.7933 -0.4065
  866SOL     hw 3463   2.296   1.691   4.332 -1.6241 -0.8157 -1.1908
  866SOL     vw 3464   2.301   1.608   4.358 -0.6324 -0.4051  0.0169
  867SOL     ow 3465   1.068   3.014   7.228 -0.5981  0.1858  0.7392
  867SOL     hw 3466   1.051   2.962   7.150 -1.1828 -0.6248  1.3951
  867SOL     hw 3467   1.118   2.957   7.286  1.2302  1.3015  0.3472
  867SOL     vw 3468   1.073   3.000   7.226 -0.4340  0.2259  0.7739
  868SOL     ow 3469   7.322   6.077   2.509 -0.1541  0.5169  0.1280
  868SOL     hw 3470   7.365   6.074   2.423  1.4576  0.4185  0.9013
  868SOL     hw 3471   7.394   6.084   2.571 -1.2539 -0.2135  1.5360
  868SOL     vw 3472   7.337   6.077   2.506 -0.0863  0.4075  0.4159
  869SOL     ow 3473   6.469   2.324   4.094  0.0432  1.0835  0.4977
  869SOL     hw 3474   6.497   2.261   4.161  1.6014  0.4043 -0.7289
  869SOL     hw 3475   6.373   2.320   4.097 -0.0116  2.2351  3.6959
  869SOL     vw 3476   6.460   2.315   4.103  0.2418  1.1457  0.7577
  870SOL     ow 3477   5.849   3.837   0.281 -0.1474  0.1908  0.5813
  870SOL     hw 3478   5.877   3.746   0.276 -1.8462 -0.4364  1.6338
  870SOL     hw 3479   5.819   3.848   0.372 -2.3801  1.0153 -0.1978
  870SOL     vw 3480   5.849   3.827   0.293 -0.6661  0.2168  0.6174
  871SOL     ow 3481   5.658   7.036   5.089 -0.2070  0.8418  0.1442
  871SOL     hw 3482   5.585   7.050   5.028 -0.8162 -0.1698  0.6141
  871SOL     hw 3483   5.735   7.030   5.032 -0.7273  0.2091 -0.5236
  871SOL     vw 3484   5.659   7.037   5.073 -0.3562  0.6251  0.1180
  872SOL     ow 3485   1.389   3.494   2.724  0.2367 -0.6142  0.6674
  872SOL     hw 3486   1.351   3.406   2.713 -0.4059 -0.1639 -1.0747
  872SOL     hw 3487   1.318   3.546   2.761 -0.4691 -0.1170 -1.2541
  872SOL     vw 3488   1.375   3.489   2.728  0.0588 -0.4892  0.1841
  873SOL     ow 3489   1.245   0.207   2.436  0.9904 -0.0672 -0.1155
  873SOL     hw 3490   1.241   0.287   2.488  0.8119  1.0399 -1.7780
  873SOL     hw 3491   1.307   0.151   2.483  1.2115  1.0754  1.0098
  873SOL     vw 3492   1.253   0.210   2.449  0.9961  0.2296 -0.1863
  874SOL     ow 3493   0.843   5.612   0.115 -0.2349 -1.0576  0.0678
  874SOL     hw 3494   0.795   5.581   0.038 -0.7994  1.6262 -0.7615
  874SOL     hw 3495   0.776   5.654   0.169  0.7918  1.0900 -0.2037
  874SOL     vw 3496   0.828   5.614   0.112 -0.1740 -0.4199 -0.0775
  875SOL     ow 3497   4.728   0.311   6.891 -0.4291 -0.0081 -0.2469
  875SOL     hw 3498   4.749   0.236   6.835 -3.0583 -0.8980 -0.1710
  875SOL     hw 3499   4.742   0.387   6.835  1.6239 -0.5474 -0.5387
  875SOL     vw 3500   4.732   0.311   6.876 -0.5052 -0.1967 -0.2751
  876SOL     ow 3501   5.112   6.790   2.159  1.0388 -0.4394 -0.2641
  876SOL     hw 3502   5.146   6.724   2.099 -0.9978 -0.7744 -1.1462
  876SOL     hw 3503   5.019   6.768   2.168  0.7950  0.9989  1.1932
  876SOL     vw 3504   5.104   6.779   2.153  0.7379 -0.2940 -0.1882
  877SOL     ow 3505   4.180   6.519   0.744 -0.1036  0.0560  0.2557
  877SOL     hw 3506   4.189   6.544   0.836 -1.2893  0.8158  0.1865
  877SOL     hw 3507   4.137   6.433   0.746  0.3833 -0.1864  0.4139
  877SOL     vw 3508   4.176   6.511   0.756 -0.1960  0.1242  0.2674
  878SOL     ow 3509   2.874   6.000   5.508  0.2229 -0.3857  0.1732
  878SOL     hw 3510   2.911   6.008   5.420  0.5898 -1.9421  0.1512
  878SOL     hw 3511   2.811   6.072   5.514  2.9218  2.2165  0.0730
  878SOL     vw 3512   2.871   6.011   5.497  0.6274 -0.2480  0.1571
  879SOL     ow 3513   2.421   6.595   0.153  0.7516 -0.1474  0.3610
  879SOL     hw 3514   2.465   6.549   0.223  1.5724 -3.0903 -1.9063
  879SOL     hw 3515   2.340   6.546   0.138  1.5644 -0.8843 -2.0296
  879SOL     vw 3516   2.416   6.583   0.160  0.9671 -0.6330 -0.2536
  880SOL     ow 3517   1.289   2.260   2.917 -0.0342  0.0096  0.2246
  880SOL     hw 3518   1.362   2.286   2.860 -0.5567 -1.5373 -1.2464
  880SOL     hw 3519   1.249   2.186   2.871 -1.2752 -0.4819  2.0242
  880SOL     vw 3520   1.293   2.254   2.903 -0.2669 -0.2594  0.2680
  881SOL     ow 3521   2.486   3.749   1.307 -0.7867 -0.0014  0.2400
  881SOL     hw 3522   2.560   3.789   1.352 -1.5970  1.6316  0.2015
  881SOL     hw 3523   2.518   3.663   1.279  1.4253  1.0551 -0.6945
  881SOL     vw 3524   2.500   3.743   1.309 -0.6018  0.3533  0.1115
  882SOL     ow 3525   5.731   5.932   3.394 -0.6570 -0.0012  0.5622
  882SOL     hw 3526   5.784   5.920   3.472  0.4621  2.0196  0.1952
  882SOL     hw 3527   5.770   5.873   3.329 -1.4371 -1.5017  1.3985
  882SOL     vw 3528   5.743   5.923   3.396 -0.6123  0.0677  0.6243
  883SOL     ow 3529   6.093   0.238   6.490 -0.5589  0.0477  0.6830
  883SOL     hw 3530   6.080   0.333   6.493  0.1184  0.1332  1.2192
  883SOL     hw 3531   6.010   0.202   6.522 -1.5051  0.3834 -1.2729
  883SOL     vw 3532   6.081   0.246   6.495 -0.5944  0.1033  0.4957
  884SOL     ow 3533   0.419   0.144   1.879  0.8105  0.5160  0.2309
  884SOL     hw 3534   0.347   0.100   1.834  0.6896 -1.3096  2.0469
  884SOL     hw 3535   0.492   0.140   1.817  1.0783 -3.1889  0.5337
  884SOL     vw 3536   0.419   0.137   1.865  0.8299 -0.2136  0.5105
  885SOL     ow 3537   0.427   4.207   3.390  0.8154 -0.9475 -0.2888
  885SOL     hw 3538   0.481   4.184   3.315  1.9793  2.2164 -0.5821
  885SOL     hw 3539   0.458   4.294   3.416 -1.7975 -0.4945  1.7735
  885SOL     vw 3540   0.438   4.216   3.384  0.6242 -0.4702 -0.0554
  886SOL     ow 3541   1.530   6.459   2.379  0.3587  0.4737  0.1579
  886SOL     hw 3542   1.546   6.536   2.325  0.0498  1.3150  1.2236
  886SOL     hw 3543   1.510   6.494   2.466  0.0925 -0.8054  0.6430
  886SOL     vw 3544   1.529   6.474   2.383  0.2829  0.4160  0.3625
  887SOL     ow 3545   2.375   3.324   4.664 -0.1823 -0.2799 -0.1333
  887SOL     hw 3546   2.324   3.243   4.669 -0.7102  0.0206 -0.4832
  887SOL     hw 3547   2.352   3.361   4.578  1.7944 -0.9026 -0.9928
  887SOL     vw 3548   2.365   3.318   4.653  0.0088 -0.3223 -0.2928
  888SOL     ow 3549   5.867   4.374   4.050  0.0989 -0.5456  0.6100
  888SOL     hw 3550   5.840   4.398   3.961  0.3360  1.3280  0.9894
  888SOL     hw 3551   5.793   4.399   4.105 -0.2443 -2.1577  0.9139
  888SOL     vw 3552   5.854   4.380   4.046  0.0851 -0.5112  0.7002
  889SOL     ow 3553   2.996   6.562   4.191 -0.2990  0.7661  0.7314
  889SOL     hw 3554   3.069   6.540   4.134 -0.2300  2.3370  0.1550
  889SOL     hw 3555   2.920   6.563   4.134 -0.9965 -1.7708  1.4983
  889SOL     vw 3556   2.996   6.559   4.176 -0.3819  0.6385  0.7563
  890SOL     ow 3557   1.275   1.985   1.418  0.7945 -0.0857 -0.1023
  890SOL     hw 3558   1.251   2.055   1.479 -0.9740  0.0830 -0.9290
  890SOL     hw 3559   1.208   1.988   1.350 -0.7013 -3.9054  0.8995
  890SOL     vw 3560   1.263   1.995   1.417  0.3638 -0.5674 -0.0792
  891SOL     ow 3561   1.570   3.858   1.710 -0.6015  0.0408 -0.4454
  891SOL     hw 3562   1.534   3.790   1.653  0.5238 -1.4696  0.5801
  891SOL     hw 3563   1.590   3.813   1.792  1.2516  1.3470 -0.1136
  891SOL     vw 3564   1.568   3.843   1.714 -0.2086  0.0138 -0.2663
  892SOL     ow 3565   0.887   5.021   5.435  0.5002  0.0793 -0.3485
  892SOL     hw 3566   0.878   5.116   5.442  1.1677  0.0222  2.2117
  892SOL     hw 3567   0.805   4.993   5.393 -0.9373  1.5715  1.2932
  892SOL     vw 3568   0.875   5.030   5.430  0.3986  0.2685  0.2058
  893SOL     ow 3569   4.102   5.295   3.782 -0.2059 -0.2168 -0.1608
  893SOL     hw 3570   4.118   5.320   3.873  0.4770 -0.1671 -0.2864
  893SOL     hw 3571   4.042   5.221   3.788 -0.8856  0.3597  0.2854
  893SOL     vw 3572   4.096   5.288   3.795 -0.2058 -0.1342 -0.1185
  894SOL     ow 3573   2.383   6.370   7.205  0.1544 -0.1213  0.3117
  894SOL     hw 3574   2.298   6.393   7.243  0.9250  0.3248  1.8609
  894SOL     hw 3575   2.370   6.284   7.166 -1.5220  0.7835 -1.2818
  894SOL     vw 3576   2.370   6.362   7.205  0.0348  0.0570  0.3059
  895SOL     ow 3577   5.478   1.821   7.272  0.4517 -0.3010 -0.3342
  895SOL     hw 3578   5.526   1.895   7.237  1.9975 -1.7829 -1.5090
  895SOL     hw 3579   5.477   1.757   7.200  0.9771 -2.2107  1.2669
  895SOL     vw 3580   5.484   1.822   7.258  0.7250 -0.7485 -0.2782
  896SOL     ow 3581   2.176   6.632   1.815  0.1582  0.3942  0.0206
  896SOL     hw 3582   2.089   6.603   1.842  0.2118  0.8284  0.6898
  896SOL     hw 3583   2.215   6.667   1.895  2.4282 -3.2243  0.7190
  896SOL     vw 3584   2.170   6.633   1.829  0.4648 -0.0260  0.2011
  897SOL     ow 3585   6.148   0.472   3.528 -0.1231 -0.2588  0.0468
  897SOL     hw 3586   6.235   0.434   3.519 -0.5562 -1.0239 -1.2565
  897SOL     hw 3587   6.103   0.415   3.591 -0.4922 -1.4455 -1.2502
  897SOL     vw 3588   6.153   0.459   3.535 -0.2294 -0.5164 -0.2962
  898SOL     ow 3589   0.148   6.072   0.044  0.4722  0.2246  0.6277
  898SOL     hw 3590   0.070   6.044  -0.003 -0.0997  1.7080  0.6374
  898SOL     hw 3591   0.159   6.008   0.114  0.5751 -1.2764 -0.7072
  898SOL     vw 3592   0.139   6.060   0.047  0.4104  0.2222  0.4530
  899SOL     ow 3593   5.931   1.265   1.048 -0.0702 -0.8160 -0.1039
  899SOL     hw 3594   5.837   1.252   1.064 -0.3877  0.0407 -1.1329
  899SOL     hw 3595   5.968   1.279   1.135 -1.0894 -0.0973  0.2382
  899SOL     vw 3596   5.923   1.265   1.062 -0.2465 -0.6082 -0.1945
  900SOL     ow 3597   1.569   7.099   2.576  0.4710 -0.4538  0.1773
  900SOL     hw 3598   1.588   7.041   2.650 -2.4674 -1.1541  0.4874
  900SOL     hw 3599   1.528   7.043   2.511 -1.1680  0.9709 -0.0937
  900SOL     vw 3600   1.566   7.084   2.577 -0.1330 -0.3583  0.1824
  901SOL     ow 3601   4.629   4.426   4.131  0.2735 -0.6372  0.2457
  901SOL     hw 3602   4.691   4.473   4.188 -0.3169 -1.9481  2.0462
  901SOL     hw 3603   4.543   4.443   4.169 -0.4612  0.3819 -1.6882
  901SOL     vw 3604   4.626   4.435   4.143  0.0985 -0.6757  0.2277
  902SOL     ow 3605   3.342   1.908   4.599 -0.1278 -0.0689  0.8665
  902SOL     hw 3606   3.355   1.961   4.520 -1.8796 -1.3759 -0.3656
  902SOL     hw 3607   3.396   1.951   4.666  1.3294  1.1376 -0.9900
  902SOL     vw 3608   3.351   1.921   4.598 -0.1667 -0.0822  0.4587
  903SOL     ow 3609   6.171   4.813   3.986  0.1405  0.1824  0.0136
  903SOL     hw 3610   6.207   4.793   3.899  0.5460  1.9923 -0.2825
  903SOL     hw 3611   6.227   4.884   4.019 -2.2649  2.1496  0.1388
  903SOL     vw 3612   6.183   4.820   3.979 -0.1230  0.6802 -0.0091
  904SOL     ow 3613   7.285   1.051   0.838 -0.0066  0.1833 -0.0925
  904SOL     hw 3614   7.349   1.115   0.869 -0.6415  0.0370  1.6263
  904SOL     hw 3615   7.336   0.987   0.789  0.9339  0.9039 -0.0780
  904SOL     vw 3616   7.300   1.051   0.836  0.0336  0.2590  0.1362
  905SOL     ow 3617   5.089   6.106   1.927 -0.7404 -0.0947 -0.3218
  905SOL     hw 3618   5.179   6.101   1.894 -0.7857 -0.8710 -0.3663
  905SOL     hw 3619   5.072   6.199   1.939 -0.5886  0.2137 -2.1571
  905SOL     vw 3620   5.098   6.117   1.924 -0.7262 -0.1566 -0.5698
  906SOL     ow 3621   5.026   2.680   4.856  0.9760 -0.0602 -0.2619
  906SOL     hw 3622   5.086   2.754   4.864  0.1825  0.5039  0.6016
  906SOL     hw 3623   4.939   2.717   4.872  0.6813 -1.3803  1.5506
  906SOL     vw 3624   5.023   2.694   4.859  0.8326 -0.1600  0.0911
  907SOL     ow 3625   7.158   6.712   2.369 -0.0788 -0.2310 -0.2011
  907SOL     hw 3626   7.098   6.691   2.298 -0.8519  2.8186 -0.6231
  907SOL     hw 3627   7.112   6.686   2.449 -1.3489  0.6756 -0.6134
  907SOL     vw 3628   7.144   6.706   2.370 -0.3483  0.2911 -0.3111
  908SOL     ow 3629   2.304   0.711   4.850  0.1668 -0.4191 -0.0134
  908SOL     hw 3630   2.298   0.695   4.944 -0.7692  0.8496  0.1673
  908SOL     hw 3631   2.214   0.702   4.818  0.3711 -0.2029 -0.6754
  908SOL     vw 3632   2.291   0.707   4.858  0.0702 -0.2232 -0.0768
  909SOL     ow 3633   3.750   0.164   7.192 -0.1710  0.1132  0.0614
  909SOL     hw 3634   3.692   0.135   7.122 -0.2302  0.7849 -0.1696
  909SOL     hw 3635   3.749   0.092   7.255 -1.2539  0.1125  0.0613
  909SOL     vw 3636   3.742   0.150   7.191 -0.3219  0.2017  0.0310
  910SOL     ow 3637   6.718   5.175   3.887  0.0497 -0.1137  0.3653
  910SOL     hw 3638   6.782   5.103   3.887 -0.5611 -0.6733  0.7732
  910SOL     hw 3639   6.723   5.213   3.974  0.3172  0.2910  0.1739
  910SOL     vw 3640   6.727   5.170   3.898  0.0045 -0.1340  0.3936
  911SOL     ow 3641   0.222   5.765   7.074  0.3754 -0.5896  0.9547
  911SOL     hw 3642   0.130   5.745   7.092  0.7306 -1.0992  2.2667
  911SOL     hw 3643   0.251   5.692   7.018  0.0531 -0.5608  0.7457
  911SOL     vw 3644   0.214   5.752   7.069  0.3797 -0.6530  1.1001
  912SOL     ow 3645   0.794   1.938   4.709  0.0377  0.0371  0.2699
  912SOL     hw 3646   0.797   1.845   4.685  3.8297  0.2269 -0.6340
  912SOL     hw 3647   0.872   1.951   4.762 -0.9767  2.5461  1.2819
  912SOL     vw 3648   0.805   1.927   4.713  0.4041  0.3932  0.2844
  913SOL     ow 3649   1.851   6.151   0.742  0.4393 -0.0320  0.6981
  913SOL     hw 3650   1.827   6.123   0.830  0.0231 -0.1020  0.5637
  913SOL     hw 3651   1.802   6.093   0.684  1.4369 -0.6068  0.4126
  913SOL     vw 3652   1.841   6.140   0.746  0.5159 -0.1168  0.6427
  914SOL     ow 3653   0.908   2.757   2.472 -1.0506  0.6011  0.4606
  914SOL     hw 3654   0.997   2.746   2.438 -1.4326  1.6219 -0.9538
  914SOL     hw 3655   0.920   2.772   2.565  0.3185  1.2342  0.2132
  914SOL     vw 3656   0.922   2.758   2.479 -0.9204  0.8194  0.2412
  915SOL     ow 3657   5.513   6.965   6.819 -0.3321  0.0742 -0.3195
  915SOL     hw 3658   5.460   6.886   6.828  0.5447 -0.8418 -2.4767
  915SOL     hw 3659   5.462   7.022   6.761  0.4383 -0.3277 -1.4444
  915SOL     vw 3660   5.500   6.962   6.812 -0.1147 -0.0997 -0.7524
  916SOL     ow 3661   5.780   5.857   0.371 -0.0782  0.3615 -0.9933
  916SOL     hw 3662   5.794   5.763   0.379  1.0650  0.4085 -2.0794
  916SOL     hw 3663   5.800   5.892   0.457 -2.7896 -0.5831  0.1433
  916SOL     vw 3664   5.784   5.849   0.383 -0.2851  0.2432 -0.9867
  917SOL     ow 3665   1.504   4.030   3.575 -0.1898 -0.2572 -0.1439
  917SOL     hw 3666   1.551   4.005   3.496 -0.4299 -0.4843 -0.2154
  917SOL     hw 3667   1.435   4.089   3.545 -0.1102 -0.1257 -0.0695
  917SOL     vw 3668   1.501   4.035   3.561 -0.2109 -0.2699 -0.1435
  918SOL     ow 3669   0.841   3.257   1.598  0.0521  0.2750  0.0226
  918SOL     hw 3670   0.857   3.178   1.649  1.1155  0.3180 -0.2061
  918SOL     hw 3671   0.801   3.226   1.517 -0.5745  0.0916  0.4005
  918SOL     vw 3672   0.838   3.242   1.594  0.1097  0.2563  0.0422
  919SOL     ow 3673   1.479   2.982   7.084  0.2941  0.8676 -0.1463
  919SOL     hw 3674   1.454   2.946   6.999  1.0037  2.1407 -0.9258
  919SOL     hw 3675   1.552   2.928   7.113  1.8592  2.0747 -1.6637
  919SOL     vw 3676   1.485   2.970   7.077  0.5942  1.1948 -0.4492
  920SOL     ow 3677   6.222   4.082   5.741 -0.3052  0.9692 -0.1663
  920SOL     hw 3678   6.170   4.143   5.794 -3.0973 -0.0275 -1.5501
  920SOL     hw 3679   6.187   3.996   5.763  1.8158  0.0401 -0.1402
  920SOL     vw 3680   6.211   4.078   5.751 -0.3939  0.7150 -0.3455
  921SOL     ow 3681   5.311   6.923   5.573 -0.1712  0.0170 -0.2484
  921SOL     hw 3682   5.243   6.927   5.505  0.4890 -0.2284 -0.9360
  921SOL     hw 3683   5.374   6.860   5.540  0.9873  1.0947 -0.1684
  921SOL     vw 3684   5.310   6.916   5.560  0.0689  0.1271 -0.3288
  922SOL     ow 3685   1.197   6.843   3.484 -0.7893 -0.2369 -0.2996
  922SOL     hw 3686   1.231   6.823   3.397 -0.7999 -1.9674  0.0734
  922SOL     hw 3687   1.155   6.763   3.513 -1.4978  0.5627  0.9916
  922SOL     vw 3688   1.196   6.830   3.477 -0.8842 -0.3598 -0.0800
  923SOL     ow 3689   5.662   0.154   3.905  0.2684  0.7215 -0.1591
  923SOL     hw 3690   5.627   0.144   3.817 -0.6888  0.7007  0.2111
  923SOL     hw 3691   5.667   0.064   3.939  3.0517  0.4318 -1.0538
  923SOL     vw 3692   5.658   0.140   3.898  0.5095  0.6805 -0.2283
  924SOL     ow 3693   1.853   0.826   0.671 -0.5218  0.3420  0.1446
  924SOL     hw 3694   1.922   0.887   0.699  0.2195  0.2105 -1.3338
  924SOL     hw 3695   1.876   0.743   0.713  0.0402  0.3749 -0.1008
  924SOL     vw 3696   1.865   0.823   0.680 -0.3498  0.3290 -0.0828
  925SOL     ow 3697   1.122   4.184   2.649 -0.0097  0.0134  0.0398
  925SOL     hw 3698   1.124   4.094   2.616 -1.9999  0.5199 -1.6910
  925SOL     hw 3699   1.191   4.229   2.601 -0.5246 -0.0819 -0.8066
  925SOL     vw 3700   1.131   4.178   2.639 -0.3402  0.0677 -0.3003
  926SOL     ow 3701   0.761   5.591   3.495 -0.6466 -0.1054 -0.0715
  926SOL     hw 3702   0.705   5.619   3.567  0.9550 -1.6155  1.8788
  926SOL     hw 3703   0.850   5.604   3.528  0.1560 -0.4005 -1.9866
  926SOL     vw 3704   0.765   5.597   3.509 -0.3294 -0.3433 -0.0669
  927SOL     ow 3705   6.699   2.559   0.840  0.0656  0.0275  0.4528
  927SOL     hw 3706   6.643   2.529   0.911 -1.7961 -1.0377 -1.3611
  927SOL     hw 3707   6.748   2.481   0.813  0.4270  0.3132  0.2666
  927SOL     vw 3708   6.698   2.545   0.846 -0.1323 -0.0753  0.1889
  928SOL     ow 3709   2.974   2.951   6.824 -0.1618 -0.0191 -0.1874
  928SOL     hw 3710   2.955   2.882   6.887 -0.3096 -0.6487 -0.9028
  928SOL     hw 3711   2.994   2.904   6.743  0.0135  0.7736 -0.6114
  928SOL     vw 3712   2.974   2.936   6.822 -0.1582  0.0024 -0.3376
  929SOL     ow 3713   2.860   6.279   0.788 -0.4464  0.1056 -0.5995
  929SOL     hw 3714   2.860   6.260   0.882 -0.8612  1.8253 -0.2238
  929SOL     hw 3715   2.828   6.369   0.781  0.2606  0.2669 -2.3446
  929SOL     vw 3716   2.856   6.288   0.800 -0.4079  0.3536 -0.7802
  930SOL     ow 3717   0.721   7.235   1.857 -0.4237 -0.1922  1.1380
  930SOL     hw 3718   0.813   7.211   1.854 -0.3687  0.0848  0.5637
  930SOL     hw 3719   0.682   7.188   1.783 -0.5803  0.3687  0.8620
  930SOL     vw 3720   0.728   7.225   1.847 -0.4371 -0.0820  1.0258
  931SOL     ow 3721   5.425   3.626   6.124  0.4499 -0.1791 -0.2233
  931SOL     hw 3722   5.405   3.590   6.038 -0.0411  3.8219 -1.9752
  931SOL     hw 3723   5.348   3.604   6.177 -0.5030 -0.3415 -1.6271
  931SOL     vw 3724   5.412   3.618   6.120  0.2594  0.3275 -0.6397
  932SOL     ow 3725   7.103   6.892   1.451 -0.4341  0.1199 -0.2980
  932SOL     hw 3726   7.162   6.827   1.489  0.7183  1.5993  0.5360
  932SOL     hw 3727   7.107   6.875   1.357  0.4365 -0.5436 -0.1555
  932SOL     vw 3728   7.111   6.881   1.443 -0.1671  0.2275 -0.1692
  933SOL     ow 3729   1.840   1.570   1.729 -0.1745  0.6368  1.4926
  933SOL     hw 3730   1.825   1.540   1.639 -0.0726 -2.2267  2.3137
  933SOL     hw 3731   1.752   1.589   1.762 -0.2346  1.4628  0.8799
  933SOL     vw 3732   1.826   1.569   1.721 -0.1690  0.3679  1.5202
  934SOL     ow 3733   7.029   4.952   6.818  0.9080  0.3664 -0.0453
  934SOL     hw 3734   6.992   5.035   6.788  2.1734  0.3187 -1.8446
  934SOL     hw 3735   7.121   4.955   6.792  0.7499 -2.0298 -1.1272
  934SOL     vw 3736   7.036   4.963   6.811  1.0538  0.0436 -0.4256
  935SOL     ow 3737   5.727   2.279   2.837  0.2606 -0.3664  0.1621
  935SOL     hw 3738   5.771   2.349   2.886  2.0129 -1.6285  0.4677
  935SOL     hw 3739   5.639   2.313   2.821  1.7355  3.0046 -1.9400
  935SOL     vw 3740   5.721   2.293   2.841  0.6864 -0.0881 -0.0749
  936SOL     ow 3741   6.276   1.725   3.888  0.3936  0.0186  0.1305
  936SOL     hw 3742   6.253   1.814   3.861 -2.1187 -0.8064 -0.7213
  936SOL     hw 3743   6.257   1.722   3.982  0.1551  0.2942  0.0907
  936SOL     vw 3744   6.271   1.736   3.897  0.0305 -0.0538  0.0129
  937SOL     ow 3745   6.550   2.156   4.332  0.1753 -0.7401 -0.3141
  937SOL     hw 3746   6.536   2.186   4.421 -0.2792 -0.6951 -0.3998
  937SOL     hw 3747   6.472   2.105   4.311  1.1561 -2.4823  0.0331
  937SOL     vw 3748   6.538   2.153   4.341  0.2444 -0.9639 -0.2797
  938SOL     ow 3749   5.733   5.871   2.354 -0.0839 -0.0500 -0.2453
  938SOL     hw 3750   5.714   5.949   2.302  0.4644  0.1761 -0.1189
  938SOL     hw 3751   5.797   5.822   2.302 -1.6332 -1.2555 -1.0916
  938SOL     vw 3752   5.739   5.875   2.341 -0.2160 -0.1793 -0.3402
  939SOL     ow 3753   4.188   2.370   6.666  0.7486 -0.1954 -0.5137
  939SOL     hw 3754   4.164   2.440   6.726  2.1934  0.4509 -0.6387
  939SOL     hw 3755   4.280   2.388   6.643  0.8796 -1.6149 -1.2557
  939SOL     vw 3756   4.197   2.382   6.671  0.9568 -0.2974 -0.6282
  940SOL     ow 3757   6.606   2.964   1.426  0.6496 -0.4913  0.0718
  940SOL     hw 3758   6.543   2.927   1.364  0.3582 -1.4814  0.9269
  940SOL     hw 3759   6.597   3.059   1.416 -2.1301 -0.5282  1.2572
  940SOL     vw 3760   6.597   2.972   1.416  0.2446 -0.6268  0.3409
  941SOL     ow 3761   0.105   4.512   5.001  0.2435 -0.5876  0.1498
  941SOL     hw 3762   0.020   4.482   4.969  1.0615 -2.1319 -0.7182
  941SOL     hw 3763   0.085   4.584   5.059 -1.5455  0.2858 -1.4434
  941SOL     vw 3764   0.091   4.517   5.004  0.1154 -0.6762 -0.1752
  942SOL     ow 3765   5.745   2.156   4.819 -0.5594 -1.3344 -0.4915
  942SOL     hw 3766   5.795   2.089   4.773 -1.4131 -1.0548 -1.8987
  942SOL     hw 3767   5.657   2.149   4.783  0.1020  3.1902 -3.9730
  942SOL     vw 3768   5.740   2.147   4.808 -0.5851 -0.7005 -1.1365
  943SOL     ow 3769   4.680   2.129   5.757 -1.1338 -0.8087 -0.3507
  943SOL     hw 3770   4.638   2.214   5.749  0.6237  0.1605  0.1531
  943SOL     hw 3771   4.649   2.094   5.840 -1.9912 -0.7689 -0.6392
  943SOL     vw 3772   4.671   2.136   5.767 -1.0149 -0.6756 -0.3223
  944SOL     ow 3773   3.247   2.992   0.187  0.1653 -0.3174  0.1646
  944SOL     hw 3774   3.171   3.048   0.201  0.2840 -0.3757  1.0856
  944SOL     hw 3775   3.314   3.027   0.246  0.4020 -1.1118  0.3775
  944SOL     vw 3776   3.246   3.004   0.197  0.2122 -0.4299  0.3142
  945SOL     ow 3777   1.044   2.296   4.853  0.4915 -0.8114  0.6439
  945SOL     hw 3778   0.994   2.302   4.934 -0.5115 -1.3312  0.0882
  945SOL     hw 3779   1.112   2.231   4.872 -0.5724 -1.9538  0.6760
  945SOL     vw 3780   1.047   2.288   4.866  0.2188 -1.0308  0.5748
  946SOL     ow 3781   4.325   0.901   5.965  0.3632  0.0489  1.0067
  946SOL     hw 3782   4.362   0.873   6.049  3.4411 -0.9497 -0.5076
  946SOL     hw 3783   4.401   0.925   5.912 -1.2961 -0.6803 -1.9533
  946SOL     vw 3784   4.340   0.900   5.969  0.5505 -0.1791  0.4163
  947SOL     ow 3785   1.230   5.813   0.788  0.1988 -0.0908  0.1223
  947SOL     hw 3786   1.227   5.862   0.870 -2.1383 -0.3762  0.2587
  947SOL     hw 3787   1.154   5.844   0.738  0.3393 -1.4693 -1.0212
  947SOL     vw 3788   1.220   5.823   0.792 -0.0910 -0.3102 -0.0106
  948SOL     ow 3789   1.643   2.640   2.151 -0.7923  0.4893 -0.0895
  948SOL     hw 3790   1.635   2.643   2.056  1.8273 -0.3892 -0.4341
  948SOL     hw 3791   1.553   2.638   2.183 -1.8545 -2.7326 -2.7030
  948SOL     vw 3792   1.630   2.640   2.142 -0.5868 -0.0515 -0.4798
  949SOL     ow 3793   7.029   3.186   3.537 -0.3848 -0.3246  0.3305
  949SOL     hw 3794   7.106   3.159   3.588 -0.7005  1.2180  1.6973
  949SOL     hw 3795   7.038   3.140   3.453  0.8537 -1.9044  1.2781
  949SOL     vw 3796   7.040   3.176   3.533 -0.2632 -0.3295  0.6359
  950SOL     ow 3797   6.457   2.598   1.284  0.4623 -0.0241  0.9247
  950SOL     hw 3798   6.421   2.641   1.362 -1.5632 -2.3852  1.4091
  950SOL     hw 3799   6.551   2.589   1.303 -0.1699 -1.8882  3.9110
  950SOL     vw 3800   6.465   2.602   1.297  0.1116 -0.5815  1.3826
  951SOL     ow 3801   1.887   6.459   2.807  0.2120  0.1701 -0.6422
  951SOL     hw 3802   1.941   6.498   2.876  1.2431 -3.2092  0.6735
  951SOL     hw 3803   1.855   6.378   2.845 -4.5087  1.0957 -2.0350
  951SOL     vw 3804   1.890   6.454   2.821 -0.2748 -0.1538 -0.6524
  952SOL     ow 3805   6.688   3.150   5.390 -0.2025  0.0834  0.6247
  952SOL     hw 3806   6.735   3.071   5.420  0.9624  0.8082  0.7673
  952SOL     hw 3807   6.668   3.132   5.298  4.3538  1.4409 -0.8934
  952SOL     vw 3808   6.692   3.137   5.382  0.5524  0.3581  0.4432
  953SOL     ow 3809   2.774   4.556   5.566 -0.1794  0.7142  0.2013
  953SOL     hw 3810   2.758   4.498   5.641 -0.6161  1.5239  0.7416
  953SOL     hw 3811   2.693   4.555   5.516  1.5567 -3.9615 -3.2813
  953SOL     vw 3812   2.761   4.548   5.569 -0.0079  0.2041 -0.1867
  954SOL     ow 3813   4.583   1.144   3.828 -0.3900 -0.0055  0.3694
  954SOL     hw 3814   4.502   1.191   3.805 -0.2812  0.0254  0.0491
  954SOL     hw 3815   4.653   1.205   3.808 -0.3426  0.5107  1.9827
  954SOL     vw 3816   4.581   1.158   3.822 -0.3693  0.0668  0.5400
  955SOL     ow 3817   7.045   6.601   2.584 -0.0723 -0.2286 -0.2958
  955SOL     hw 3818   6.958   6.634   2.560  0.1132 -0.5071 -1.4242
  955SOL     hw 3819   7.071   6.654   2.659 -2.4034 -1.9799  1.9504
  955SOL     vw 3820   7.037   6.612   2.590 -0.3555 -0.4961 -0.1483
  956SOL     ow 3821   0.168   6.975   3.066 -0.2871  0.1734  0.6113
  956SOL     hw 3822   0.125   6.956   3.149 -3.4403 -2.1028 -1.3156
  956SOL     hw 3823   0.121   7.050   3.031 -1.2093 -0.8351 -0.4304
  956SOL     vw 3824   0.156   6.982   3.072 -0.8248 -0.2604  0.2196
  957SOL     ow 3825   0.469   0.613   5.071 -0.4733  0.5868  0.1893
  957SOL     hw 3826   0.514   0.590   5.152  0.0723 -0.5260 -0.4148
  957SOL     hw 3827   0.408   0.683   5.097 -2.4858 -1.7293  2.2184
  957SOL     vw 3828   0.467   0.619   5.085 -0.6668  0.1344  0.3774
  958SOL     ow 3829   5.984   3.918   1.658 -0.0989 -0.0028 -0.4759
  958SOL     hw 3830   5.947   3.996   1.699  1.7047  0.4446  0.4211
  958SOL     hw 3831   5.978   3.851   1.725 -2.3937 -0.9524 -1.5143
  958SOL     vw 3832   5.978   3.920   1.672 -0.1636 -0.0690 -0.4945
  959SOL     ow 3833   3.049   2.011   4.634 -0.4577  0.0114 -0.2039
  959SOL     hw 3834   2.994   2.034   4.559 -1.4864 -0.5691  0.3411
  959SOL     hw 3835   2.987   2.004   4.707  0.4545  0.0709  0.5897
  959SOL     vw 3836   3.033   2.013   4.634 -0.4730 -0.0573 -0.0272
  960SOL     ow 3837   2.551   2.011   2.257 -0.3451 -0.8052 -0.3386
  960SOL     hw 3838   2.579   2.102   2.255  0.0942 -0.9307  0.1190
  960SOL     hw 3839   2.583   1.977   2.341  3.2391 -2.5672 -2.1894
  960SOL     vw 3840   2.559   2.019   2.268  0.1857 -1.0542 -0.5226
  961SOL     ow 3841   5.635   3.549   6.283 -0.0304  0.3652 -0.0581
  961SOL     hw 3842   5.543   3.535   6.263 -0.1608  0.1716  0.6513
  961SOL     hw 3843   5.644   3.524   6.375  1.1114 -1.4240 -0.5963
  961SOL     vw 3844   5.624   3.544   6.293  0.1032  0.1036 -0.0358
  962SOL     ow 3845   7.088   0.043   1.736  0.2297  0.0216 -0.2617
  962SOL     hw 3846   7.028   0.088   1.677 -0.6031 -0.7398 -0.0137
  962SOL     hw 3847   7.076   0.086   1.821 -0.1654 -0.2959 -0.1526
  962SOL     vw 3848   7.079   0.054   1.740  0.0677 -0.1207 -0.2146
  963SOL     ow 3849   6.519   4.503   6.712 -0.2896  0.0596  0.6242
  963SOL     hw 3850   6.511   4.537   6.801  0.2625 -0.1578  0.7601
  963SOL     hw 3851   6.545   4.412   6.723  1.9901  0.5948  0.2558
  963SOL     vw 3852   6.521   4.496   6.725  0.0839  0.1016  0.5937
  964SOL     ow 3853   1.548   7.013   1.997 -0.7661  0.2991 -0.1785
  964SOL     hw 3854   1.455   6.994   2.009 -0.5471  0.7188  2.8908
  964SOL     hw 3855   1.578   7.041   2.083  1.8544  1.7950 -1.4602
  964SOL     vw 3856   1.540   7.014   2.010 -0.3915  0.5517  0.0573
  965SOL     ow 3857   0.498   5.650   6.084 -0.2589  0.6256 -0.1724
  965SOL     hw 3858   0.487   5.556   6.067  3.0718  0.4200 -2.1013
  965SOL     hw 3859   0.441   5.693   6.020  0.4364 -0.1706 -1.3783
  965SOL     vw 3860   0.489   5.643   6.073  0.2723  0.4930 -0.5863
  966SOL     ow 3861   0.510   4.746   3.244 -0.1862 -0.7993  0.6547
  966SOL     hw 3862   0.462   4.778   3.169  0.6577 -1.8904 -0.3957
  966SOL     hw 3863   0.601   4.767   3.226  0.1946 -2.2526  0.6952
  966SOL     vw 3864   0.516   4.753   3.232 -0.0246 -1.1351  0.5215
  967SOL     ow 3865   3.575   0.633   1.110  0.1221 -0.1486  0.2795
  967SOL     hw 3866   3.658   0.613   1.153 -1.8965 -0.7376  4.3922
  967SOL     hw 3867   3.564   0.563   1.046  2.1386 -0.7920  0.5531
  967SOL     vw 3868   3.585   0.621   1.107  0.1218 -0.3112  0.8582
  968SOL     ow 3869   3.119   3.402   6.867  0.3050  0.3598 -0.4009
  968SOL     hw 3870   3.080   3.487   6.847  0.1774  0.0055 -1.7371
  968SOL     hw 3871   3.206   3.406   6.828  0.7620  0.2965  0.5733
  968SOL     vw 3872   3.126   3.414   6.859  0.3484  0.3047 -0.4485
  969SOL     ow 3873   5.477   6.641   3.609  0.1865  0.2327  0.5320
  969SOL     hw 3874   5.388   6.667   3.587  0.3438  1.0086  0.7768
  969SOL     hw 3875   5.496   6.688   3.690  1.0131  0.4897  0.1947
  969SOL     vw 3876   5.468   6.650   3.617  0.3164  0.3688  0.5199
  970SOL     ow 3877   4.104   1.708   1.704  0.3601  0.5319  0.3007
  970SOL     hw 3878   4.148   1.694   1.621  1.9417  0.6364  1.0797
  970SOL     hw 3879   4.048   1.631   1.715 -1.5600  1.5120 -1.8144
  970SOL     vw 3880   4.103   1.696   1.695  0.3152  0.6750  0.1243
  971SOL     ow 3881   2.880   6.545   6.188  0.5534 -0.1114 -0.4260
  971SOL     hw 3882   2.906   6.506   6.271  0.6514 -0.1591 -0.4780
  971SOL     hw 3883   2.963   6.568   6.146  0.4923  2.3189  0.6126
  971SOL     vw 3884   2.894   6.543   6.193  0.5581  0.2031 -0.2961
  972SOL     ow 3885   4.209   6.640   5.160 -0.6664  0.6471  0.4874
  972SOL     hw 3886   4.157   6.600   5.229 -0.3532 -2.0126 -0.6886
  972SOL     hw 3887   4.161   6.622   5.079  0.2461  1.4230 -0.2608
  972SOL     vw 3888   4.196   6.633   5.158 -0.5050  0.3986  0.2337
  973SOL     ow 3889   2.881   3.330   5.146  0.4742  0.4027 -0.1538
  973SOL     hw 3890   2.876   3.302   5.237  1.3355 -0.3523 -0.3267
  973SOL     hw 3891   2.803   3.293   5.104 -0.1686  1.1400  0.3617
  973SOL     vw 3892   2.870   3.321   5.152  0.5029  0.4002 -0.1085
  974SOL     ow 3893   6.105   6.856   5.560  0.2857 -0.1520 -0.0469
  974SOL     hw 3894   6.094   6.929   5.499 -0.7894 -1.1191 -1.0453
  974SOL     hw 3895   6.139   6.785   5.507  2.4556 -0.0949  1.1419
  974SOL     vw 3896   6.108   6.857   5.545  0.4301 -0.2723 -0.0217
  975SOL     ow 3897   2.985   5.404   4.400 -0.0826  0.3681 -0.0137
  975SOL     hw 3898   3.063   5.460   4.404  0.5060  0.2897 -4.6354
  975SOL     hw 3899   2.913   5.464   4.380 -0.1005 -0.0562 -1.3600
  975SOL     vw 3900   2.986   5.419   4.398 -0.0074  0.3016 -0.8011
  976SOL     ow 3901   2.208   5.203   7.296 -0.3613  0.3789  0.0186
  976SOL     hw 3902   2.227   5.263   7.369  0.5072 -0.2763  0.3485
  976SOL     hw 3903   2.219   5.116   7.334 -1.3454  0.0074 -0.5334
  976SOL     vw 3904   2.212   5.199   7.311 -0.3766  0.2434 -0.0110
  977SOL     ow 3905   3.545   3.163   7.176 -0.2752  0.4155  0.6527
  977SOL     hw 3906   3.558   3.167   7.271  0.9748  2.3809  0.4402
  977SOL     hw 3907   3.619   3.210   7.139 -0.1303 -1.2632 -1.3925
  977SOL     vw 3908   3.556   3.170   7.184 -0.0912  0.4534  0.3548
  978SOL     ow 3909   4.409   1.855   5.121 -0.0692 -0.4027  1.0455
  978SOL     hw 3910   4.460   1.936   5.127  1.1755 -1.0869  0.2393
  978SOL     hw 3911   4.348   1.871   5.049 -0.6958  0.2581  1.7108
  978SOL     vw 3912   4.408   1.868   5.112  0.0126 -0.4057  1.0269
  979SOL     ow 3913   3.709   4.508   1.242 -0.5005 -0.4001  0.2722
  979SOL     hw 3914   3.625   4.507   1.195 -0.2132  0.1697 -0.2694
  979SOL     hw 3915   3.731   4.600   1.249  0.7397 -0.5766 -0.7995
  979SOL     vw 3916   3.701   4.520   1.236 -0.2990 -0.3481  0.0594
  980SOL     ow 3917   4.759   2.075   5.447  0.5036  0.6470  0.2402
  980SOL     hw 3918   4.720   2.055   5.362 -1.4983  0.9064  1.0418
  980SOL     hw 3919   4.833   2.131   5.427 -0.8443  1.9979 -1.2624
  980SOL     vw 3920   4.763   2.080   5.433  0.0618  0.8594  0.1478
  981SOL     ow 3921   3.483   5.133   5.066  0.3687  0.3727  0.2457
  981SOL     hw 3922   3.510   5.057   5.117  0.3910  0.3844  0.2507
  981SOL     hw 3923   3.467   5.098   4.978 -2.3173 -0.1922  0.8654
  981SOL     vw 3924   3.484   5.118   5.061  0.0173  0.2997  0.3281
  982SOL     ow 3925   0.551   5.692   1.500 -0.1404  0.2612  0.2321
  982SOL     hw 3926   0.637   5.649   1.499 -0.3499 -0.1701  0.5071
  982SOL     hw 3927   0.510   5.663   1.419  0.0388  0.6058  0.0162
  982SOL     vw 3928   0.557   5.682   1.489 -0.1444  0.2499  0.2398
  983SOL     ow 3929   4.634   3.128   5.150  0.7936  0.5191 -0.5923
  983SOL     hw 3930   4.565   3.170   5.099  0.0808  0.5333  0.3577
  983SOL     hw 3931   4.697   3.198   5.167 -0.1278  1.1213  0.5218
  983SOL     vw 3932   4.634   3.143   5.146  0.5782  0.6006 -0.3202
  984SOL     ow 3933   3.655   4.724   2.610  0.0444 -0.2398  0.1121
  984SOL     hw 3934   3.567   4.719   2.574 -0.2099  2.1929  0.2119
  984SOL     hw 3935   3.711   4.742   2.534 -0.1592  2.3344  0.4757
  984SOL     vw 3936   3.651   4.726   2.595 -0.0160  0.4210  0.1733
  985SOL     ow 3937   6.892   4.933   2.535  0.0497 -0.2078 -0.1381
  985SOL     hw 3938   6.832   4.858   2.530 -0.6611  0.3876 -0.7466
  985SOL     hw 3939   6.841   5.007   2.503  0.6251  0.6226  0.7804
  985SOL     vw 3940   6.877   4.933   2.530  0.0322 -0.0193 -0.0973
  986SOL     ow 3941   3.857   2.294   4.770  0.2216  0.1076 -0.0729
  986SOL     hw 3942   3.819   2.237   4.837  2.3109  0.4290  1.5153
  986SOL     hw 3943   3.813   2.269   4.689 -1.3352 -1.3763  1.1595
  986SOL     vw 3944   3.846   2.283   4.768  0.2917 -0.0458  0.2990
  987SOL     ow 3945   2.171   2.768   1.162 -0.1277  0.3124 -0.0899
  987SOL     hw 3946   2.168   2.822   1.241 -2.8248 -0.8935  0.7365
  987SOL     hw 3947   2.100   2.802   1.108 -1.5808 -1.9930  0.2433
  987SOL     vw 3948   2.162   2.780   1.165 -0.6753 -0.1509  0.0631
  988SOL     ow 3949   1.090   0.712   1.575  0.8810 -0.3276 -0.2509
  988SOL     hw 3950   1.023   0.645   1.562  0.9047 -0.3007 -0.5339
  988SOL     hw 3951   1.085   0.734   1.668 -0.6689  0.8796 -0.5600
  988SOL     vw 3952   1.080   0.706   1.585  0.6796 -0.1648 -0.3290
  989SOL     ow 3953   2.475   1.206   1.652 -0.4912 -0.3770 -0.3041
  989SOL     hw 3954   2.565   1.200   1.620 -0.1764 -0.6941  0.6039
  989SOL     hw 3955   2.426   1.242   1.579  0.3401 -0.3805 -0.8789
  989SOL     vw 3956   2.481   1.210   1.638 -0.3400 -0.4193 -0.2602
  990SOL     ow 3957   5.879   1.055   0.293  0.6673 -1.1981  0.1936
  990SOL     hw 3958   5.815   1.014   0.351  0.8974  0.8263  1.9825
  990SOL     hw 3959   5.939   1.101   0.351  0.3050  1.8533 -1.6036
  990SOL     vw 3960   5.878   1.056   0.308  0.6497 -0.5284  0.1925
  991SOL     ow 3961   6.375   6.372   0.887  0.2502 -0.8741 -1.2126
  991SOL     hw 3962   6.361   6.463   0.861  1.9909  0.1574  1.1218
  991SOL     hw 3963   6.287   6.333   0.884 -0.9320  1.4809 -0.1643
  991SOL     vw 3964   6.361   6.379   0.883  0.3240 -0.4272 -0.7663
  992SOL     ow 3965   1.600   4.475   2.892  0.5781  1.0517 -0.2760
  992SOL     hw 3966   1.522   4.519   2.858  0.4173  1.3190  0.4090
  992SOL     hw 3967   1.616   4.517   2.977  0.9645  0.4206 -0.0230
  992SOL     vw 3968   1.591   4.486   2.899  0.6079  1.0037 -0.1522
  993SOL     ow 3969   2.946   2.400   1.575 -0.7497 -0.0228 -0.2241
  993SOL     hw 3970   2.962   2.322   1.628 -0.4875  1.7594  2.5043
  993SOL     hw 3971   2.994   2.470   1.619 -3.5914  2.3664 -0.5883
  993SOL     vw 3972   2.954   2.399   1.588 -1.0902  0.5276  0.0877
  994SOL     ow 3973   0.180   5.153   1.480 -0.9899  0.3718 -0.7386
  994SOL     hw 3974   0.153   5.121   1.394 -3.9217  0.7790 -0.0535
  994SOL     hw 3975   0.202   5.074   1.529  0.0399  0.0943 -1.5920
  994SOL     vw 3976   0.179   5.138   1.475 -1.2409  0.3889 -0.7608
  995SOL     ow 3977   1.077   3.087   2.934 -0.3977  0.2277  0.0087
  995SOL     hw 3978   1.018   3.113   2.863 -0.6557  0.0832  0.1726
  995SOL     hw 3979   1.150   3.043   2.889 -1.0790 -0.8363 -0.0914
  995SOL     vw 3980   1.079   3.085   2.918 -0.5217  0.0683  0.0172
  996SOL     ow 3981   6.203   5.174   2.454 -0.4070  0.0320 -0.0007
  996SOL     hw 3982   6.124   5.223   2.429 -0.9268 -0.8495 -0.1227
  996SOL     hw 3983   6.195   5.090   2.409  0.4181 -0.2156  0.2934
  996SOL     vw 3984   6.191   5.169   2.445 -0.3667 -0.1168  0.0221
  997SOL     ow 3985   0.933   4.786   5.558 -0.0901  0.0312 -0.3895
  997SOL     hw 3986   0.924   4.879   5.537 -1.1117 -0.0039 -0.1505
  997SOL     hw 3987   0.896   4.740   5.483 -1.0273 -0.1417  0.1571
  997SOL     vw 3988   0.927   4.792   5.545 -0.3485  0.0038 -0.2859
  998SOL     ow 3989   7.338   2.896   3.714  0.1326  0.4607 -0.4902
  998SOL     hw 3990   7.345   2.991   3.703  0.2778  0.6923  1.3860
  998SOL     hw 3991   7.251   2.875   3.679  0.2603  1.1978 -1.3058
  998SOL     vw 3992   7.328   2.906   3.708  0.1683  0.5885 -0.3504
  999SOL     ow 3993   2.882   2.746   4.730  0.8061  0.2582  0.2914
  999SOL     hw 3994   2.900   2.822   4.676  0.9044  0.5287  0.7054
  999SOL     hw 3995   2.865   2.781   4.817 -2.2918  0.1127 -0.1350
  999SOL     vw 3996   2.882   2.760   4.734  0.4103  0.2747  0.2897
 1000SOL     ow 3997   2.561   0.711   0.415 -0.0911  0.0845 -0.6328
 1000SOL     hw 3998   2.498   0.645   0.443  0.0040 -0.9611 -2.7366
 1000SOL     hw 3999   2.511   0.793   0.412 -0.1323  0.2806  2.3035
 1000SOL     vw 4000   2.546   0.713   0.418 -0.0839 -0.0276 -0.5229
 1001SOL     ow 4001   4.155   2.865   1.635 -0.2839 -0.6247 -0.2993
 1001SOL     hw 4002   4.172   2.775   1.606 -1.4299 -1.1079  0.4638
 1001SOL     hw 4003   4.175   2.863   1.729  0.7343  0.2186 -0.4725
 1001SOL     vw 4004   4.160   2.853   1.644 -0.3006 -0.5772 -0.2214
 1002SOL     ow 4005   1.901   6.984   5.393 -0.3688  0.7990  0.8785
 1002SOL     hw 4006   1.872   7.061   5.344  1.3729  2.0888  1.7729
 1002SOL     hw 4007   1.881   7.005   5.484  2.1355  1.2173  1.3891
 1002SOL     vw 4008   1.895   6.997   5.399  0.1915  1.0245  1.0641
 1003SOL     ow 4009   5.226   3.300   4.708 -0.0915 -0.0874 -1.0945
 1003SOL     hw 4010   5.270   3.253   4.637  2.0268  1.3082 -0.8273
 1003SOL     hw 4011   5.298   3.338   4.759 -1.5907  0.1222  0.9948
 1003SOL     vw 4012   5.242   3.299   4.705 -0.0100  0.1242 -0.7834
 1004SOL     ow 4013   5.798   4.875   7.333  0.4826  0.2762  0.8223
 1004SOL     hw 4014   5.838   4.939   7.274  0.2614 -0.2518  0.0907
 1004SOL     hw 4015   5.743   4.821   7.276  1.1581 -0.9677  1.3146
 1004SOL     vw 4016   5.796   4.877   7.318  0.5426  0.0424  0.7908
 1005SOL     ow 4017   6.192   0.816   4.364 -0.0469  0.3006 -0.2614
 1005SOL     hw 4018   6.218   0.827   4.272 -1.2430  0.0988 -0.6340
 1005SOL     hw 4019   6.258   0.757   4.400 -0.1841 -0.5105 -1.2841
 1005SOL     vw 4020   6.204   0.810   4.356 -0.2229  0.1670 -0.4454
 1006SOL     ow 4021   2.264   5.851   2.723 -0.2494 -0.6578  0.3948
 1006SOL     hw 4022   2.275   5.852   2.818  0.2815  0.8241  0.3434
 1006SOL     hw 4023   2.345   5.888   2.688 -0.8178 -0.2940 -0.5875
 1006SOL     vw 4024   2.276   5.856   2.731 -0.2543 -0.4141  0.2584
 1007SOL     ow 4025   3.727   4.316   0.069  0.1993 -0.0075 -0.5482
 1007SOL     hw 4026   3.663   4.293   0.137  1.5199 -1.5575  0.2311
 1007SOL     hw 4027   3.805   4.343   0.118  0.0869  2.2452 -1.4815
 1007SOL     vw 4028   3.729   4.317   0.085  0.3585  0.0851 -0.5685
 1008SOL     ow 4029   5.931   7.112   7.084  0.7284  0.3026  0.2651
 1008SOL     hw 4030   5.928   7.106   7.180  0.6685 -1.6422  0.1700
 1008SOL     hw 4031   6.006   7.058   7.059 -0.7891 -1.3543 -0.9039
 1008SOL     vw 4032   5.941   7.104   7.093  0.5202 -0.1726  0.0980
 1009SOL     ow 4033   2.845   5.801   6.480  0.2711 -0.4820  0.2311
 1009SOL     hw 4034   2.910   5.787   6.411 -0.7241  1.0051 -1.0685
 1009SOL     hw 4035   2.784   5.727   6.470 -0.2425  0.0785 -0.9667
 1009SOL     vw 4036   2.846   5.789   6.469  0.0720 -0.2117 -0.0982
 1010SOL     ow 4037   1.690   0.749   0.450  0.0952  0.1961 -0.9703
 1010SOL     hw 4038   1.632   0.692   0.500  0.6460 -0.3727 -0.9843
 1010SOL     hw 4039   1.746   0.791   0.516 -0.3618  0.7975 -0.9506
 1010SOL     vw 4040   1.690   0.747   0.465  0.1076  0.2004 -0.9696
 1011SOL     ow 4041   1.528   6.880   6.682  0.1461  1.0620  0.2636
 1011SOL     hw 4042   1.587   6.819   6.726 -1.5392  0.2727  1.5523
 1011SOL     hw 4043   1.506   6.945   6.749 -1.1108  0.8388  0.1013
 1011SOL     vw 4044   1.533   6.881   6.697 -0.2420  0.9282  0.4122
 1012SOL     ow 4045   0.307   0.382   4.575  0.3146 -0.0976 -0.3927
 1012SOL     hw 4046   0.400   0.361   4.576  0.5537  0.9561  0.8793
 1012SOL     hw 4047   0.263   0.296   4.574  1.2691 -0.6113 -1.9156
 1012SOL     vw 4048   0.314   0.368   4.575  0.4721 -0.0264 -0.4258
 1013SOL     ow 4049   4.828   5.993   6.755 -0.5444 -0.7856 -0.0848
 1013SOL     hw 4050   4.754   5.969   6.811  0.2591 -1.4156  0.7479
 1013SOL     hw 4051   4.793   6.061   6.697 -2.3500 -2.4812 -1.1240
 1013SOL     vw 4052   4.813   5.999   6.755 -0.6764 -1.0924 -0.1121
 1014SOL     ow 4053   2.837   7.177   4.297  0.0628 -0.3553  0.6801
 1014SOL     hw 4054   2.919   7.133   4.276  0.2584  0.7114 -1.0141
 1014SOL     hw 4055   2.770   7.127   4.250  0.3199  1.2073 -1.4792
 1014SOL     vw 4056   2.839   7.165   4.288  0.1223 -0.0083  0.1719
 1015SOL     ow 4057   3.846   2.109   0.513 -0.3981  0.0640  0.8276
 1015SOL     hw 4058   3.938   2.112   0.486 -0.1736 -1.2669  1.3735
 1015SOL     hw 4059   3.816   2.199   0.503  0.2172  0.0760 -1.9006
 1015SOL     vw 4060   3.854   2.121   0.508 -0.2873 -0.1100  0.5397
 1016SOL     ow 4061   3.258   2.720   0.773  0.1979 -0.4572 -0.3196
 1016SOL     hw 4062   3.184   2.781   0.768  0.0733 -0.3387  2.1373
 1016SOL     hw 4063   3.233   2.648   0.715 -0.1389  1.2600 -2.4577
 1016SOL     vw 4064   3.245   2.719   0.764  0.1371 -0.2151 -0.2775
 1017SOL     ow 4065   0.955   3.515   1.441 -0.2748 -0.2747  0.1050
 1017SOL     hw 4066   1.045   3.483   1.441  0.4840  1.5549  2.7521
 1017SOL     hw 4067   0.923   3.498   1.352  2.4589 -1.5228 -0.7216
 1017SOL     vw 4068   0.962   3.509   1.429  0.1860 -0.1981  0.3452
 1018SOL     ow 4069   5.644   5.014   3.338 -0.3539 -0.3908 -0.1478
 1018SOL     hw 4070   5.739   5.025   3.340 -0.2116 -1.3822 -0.5145
 1018SOL     hw 4071   5.629   4.951   3.267 -1.5226  1.9700 -2.1441
 1018SOL     vw 4072   5.654   5.007   3.329 -0.4892 -0.2103 -0.4596
 1019SOL     ow 4073   6.837   5.847   3.991 -0.6899  0.5693 -0.0081
 1019SOL     hw 4074   6.928   5.822   4.002 -0.9140 -0.5598 -0.6043
 1019SOL     hw 4075   6.839   5.914   3.922 -0.1658  1.7356  1.0947
 1019SOL     vw 4076   6.849   5.853   3.983 -0.6502  0.5744  0.0587
 1020SOL     ow 4077   1.182   5.504   2.108  0.2613 -0.1337 -0.3178
 1020SOL     hw 4078   1.121   5.533   2.040  0.1526  0.4272  0.0030
 1020SOL     hw 4079   1.214   5.586   2.147 -0.9644 -0.4280  1.4197
 1020SOL     vw 4080   1.178   5.519   2.104  0.0854 -0.0982 -0.0463
 1021SOL     ow 4081   4.502   3.344   0.291 -0.1929 -0.2128 -0.5157
 1021SOL     hw 4082   4.463   3.394   0.362 -0.5293 -0.5422 -0.4695
 1021SOL     hw 4083   4.566   3.287   0.334 -0.8868 -0.9152 -0.3849
 1021SOL     vw 4084   4.506   3.343   0.306 -0.3288 -0.3489 -0.4923
 1022SOL     ow 4085   5.077   7.055   1.914 -0.0617 -0.1510 -0.0159
 1022SOL     hw 4086   5.083   7.080   2.006 -1.2722  0.1466 -0.0071
 1022SOL     hw 4087   5.151   7.099   1.872  0.2128  0.1076  0.7274
 1022SOL     vw 4088   5.087   7.064   1.921 -0.1850 -0.0777  0.0833
 1023SOL     ow 4089   1.330   3.346   6.894 -0.2042 -0.6277 -0.1664
 1023SOL     hw 4090   1.262   3.333   6.827 -1.8501  1.6854  0.9288
 1023SOL     hw 4091   1.289   3.317   6.975 -1.3875  3.9103  1.1262
 1023SOL     vw 4092   1.315   3.340   6.896 -0.5774  0.2761  0.1485
 1024SOL     ow 4093   6.620   5.325   3.309  0.0510  0.1387  0.0806
 1024SOL     hw 4094   6.578   5.265   3.247 -0.2955  0.5853 -0.1230
 1024SOL     hw 4095   6.649   5.399   3.255  0.6507  0.0645  0.2976
 1024SOL     vw 4096   6.618   5.327   3.294  0.0842  0.1876  0.0824
 1025SOL     ow 4097   4.977   0.149   1.106 -0.0508 -0.0473 -0.7678
 1025SOL     hw 4098   4.885   0.140   1.130  0.3812  1.3624  1.8797
 1025SOL     hw 4099   4.981   0.126   1.013 -2.4531 -3.6457 -0.1836
 1025SOL     vw 4100   4.966   0.144   1.097 -0.3109 -0.3360 -0.3415
 1026SOL     ow 4101   3.728   4.382   2.170  0.3790  0.0823 -0.2563
 1026SOL     hw 4102   3.650   4.361   2.118  0.6986  0.7686 -1.0295
 1026SOL     hw 4103   3.786   4.306   2.158 -0.5870 -0.9270  1.1958
 1026SOL     vw 4104   3.725   4.369   2.161  0.2937  0.0398 -0.1669
 1027SOL     ow 4105   1.452   6.281   5.049 -0.2238 -0.4781 -0.0837
 1027SOL     hw 4106   1.451   6.300   5.143 -4.4780  1.0982 -0.2296
 1027SOL     hw 4107   1.477   6.364   5.008  0.2529 -0.7736 -0.4033
 1027SOL     vw 4108   1.455   6.295   5.056 -0.7222 -0.3090 -0.1452
 1028SOL     ow 4109   7.226   1.102   1.947 -0.5731 -0.0611  0.0190
 1028SOL     hw 4110   7.285   1.066   1.880  0.1361  0.7084  0.2085
 1028SOL     hw 4111   7.139   1.095   1.908 -0.7736 -3.6852  0.7731
 1028SOL     vw 4112   7.223   1.096   1.933 -0.5059 -0.4377  0.1434
 1029SOL     ow 4113   2.128   5.481   2.124  0.7804 -0.5734  0.6487
 1029SOL     hw 4114   2.136   5.576   2.133  3.5849 -0.7800  1.6060
 1029SOL     hw 4115   2.130   5.449   2.214  2.1262 -1.6022  0.2795
 1029SOL     vw 4116   2.130   5.489   2.137  1.3280 -0.7362  0.7265
 1030SOL     ow 4117   3.458   4.947   2.734  0.1134 -0.1236 -0.2118
 1030SOL     hw 4118   3.484   5.034   2.765 -1.5926  0.8069 -1.2348
 1030SOL     hw 4119   3.537   4.912   2.693  1.3730  0.1019  1.9018
 1030SOL     vw 4120   3.472   4.954   2.732  0.0545  0.0288 -0.0679
 1031SOL     ow 4121   2.104   1.295   2.043 -0.1030 -0.7194 -0.2938
 1031SOL     hw 4122   2.120   1.258   2.129  0.9280 -2.0962 -1.0324
 1031SOL     hw 4123   2.150   1.237   1.983 -1.1300 -0.0321 -1.8215
 1031SOL     vw 4124   2.112   1.283   2.046 -0.1024 -0.8104 -0.5928
 1032SOL     ow 4125   2.143   3.980   7.315  0.3072 -0.0825  0.1282
 1032SOL     hw 4126   2.169   4.013   7.400  1.0899 -1.1923  0.3515
 1032SOL     hw 4127   2.058   3.938   7.329  2.2436 -4.1020  1.4753
 1032SOL     vw 4128   2.136   3.979   7.328  0.6660 -0.7592  0.3352
 1033SOL     ow 4129   1.198   3.626   2.846 -0.2575  0.7921 -0.0780
 1033SOL     hw 4130   1.192   3.713   2.885  0.6498  1.0394 -0.4494
 1033SOL     hw 4131   1.121   3.579   2.878 -1.1764  1.9712 -0.4792
 1033SOL     vw 4132   1.187   3.631   2.855 -0.2590  0.9803 -0.1801
 1034SOL     ow 4133   3.967   3.242   5.409 -0.3569  0.3221  0.2192
 1034SOL     hw 4134   3.986   3.313   5.470 -0.9531 -0.1799  1.0069
 1034SOL     hw 4135   3.942   3.287   5.328 -2.1271  1.0626  1.1267
 1034SOL     vw 4136   3.966   3.257   5.406 -0.6691  0.3536  0.4427
 1035SOL     ow 4137   3.725   3.879   0.023 -0.2725  0.7052  0.4845
 1035SOL     hw 4138   3.750   3.793   0.056  1.4623  0.7633 -0.5078
 1035SOL     hw 4139   3.722   3.935   0.101 -0.1447  0.0246  0.9862
 1035SOL     vw 4140   3.728   3.875   0.038 -0.0268  0.6232  0.4199
 1036SOL     ow 4141   3.541   4.451   2.649  0.0962 -0.0258  0.7578
 1036SOL     hw 4142   3.450   4.438   2.677  0.3988  0.9445  2.2834
 1036SOL     hw 4143   3.537   4.443   2.553 -1.3439 -1.3522  0.8766
 1036SOL     vw 4144   3.528   4.448   2.640 -0.0540 -0.0727  0.9749
 1037SOL     ow 4145   2.058   6.641   2.563  0.3598  0.8641  0.5298
 1037SOL     hw 4146   2.058   6.687   2.479  0.6762  1.7501  1.0012
 1037SOL     hw 4147   2.126   6.575   2.555 -0.6207 -0.0677 -0.4352
 1037SOL     vw 4148   2.067   6.639   2.551  0.2722  0.8581  0.4646
 1038SOL     ow 4149   2.796   4.935   4.897  0.0371 -0.0693 -1.2190
 1038SOL     hw 4150   2.850   4.956   4.821  0.5797 -0.2181 -0.8880
 1038SOL     hw 4151   2.759   4.849   4.877  2.1548 -1.2857 -0.3082
 1038SOL     vw 4152   2.798   4.927   4.884  0.3880 -0.2491 -1.0552
 1039SOL     ow 4153   3.955   4.759   1.911 -0.1698  0.0001  0.6795
 1039SOL     hw 4154   3.918   4.727   1.829  1.6943  0.7845 -0.5373
 1039SOL     hw 4155   3.935   4.853   1.911  3.2389  0.8724 -0.9713
 1039SOL     vw 4156   3.947   4.767   1.900  0.5258  0.2184  0.3012
 1040SOL     ow 4157   1.268   5.170   5.266  0.3809  0.3686  0.0167
 1040SOL     hw 4158   1.363   5.165   5.276  0.1922  0.0718  2.2107
 1040SOL     hw 4159   1.243   5.244   5.322 -0.5361  1.6511 -1.9854
 1040SOL     vw 4160   1.278   5.179   5.275  0.2350  0.4988  0.0420
 1041SOL     ow 4161   3.307   4.513   1.961  0.1513  0.3071  0.1940
 1041SOL     hw 4162   3.285   4.477   1.876  3.3787  1.1284 -1.1172
 1041SOL     hw 4163   3.401   4.528   1.958  0.4043  0.4563  3.9067
 1041SOL     vw 4164   3.316   4.510   1.950  0.6104  0.4356  0.5108
 1042SOL     ow 4165   0.995   3.429   1.764 -0.5165 -0.0528  0.1179
 1042SOL     hw 4166   0.979   3.349   1.813  0.3845 -1.6862 -2.0660
 1042SOL     hw 4167   1.068   3.471   1.809 -0.9495 -0.4642  1.2441
 1042SOL     vw 4168   1.002   3.424   1.776 -0.4548 -0.3226 -0.0217
 1043SOL     ow 4169   0.921   2.342   5.096 -0.1215 -0.6556  0.2491
 1043SOL     hw 4170   1.007   2.343   5.139 -0.6730  2.2602  1.5313
 1043SOL     hw 4171   0.885   2.256   5.116  2.9650 -2.5569 -1.5299
 1043SOL     vw 4172   0.928   2.331   5.104  0.2130 -0.5218  0.1838
 1044SOL     ow 4173   5.386   4.604   0.403  0.0928 -0.1703 -0.2712
 1044SOL     hw 4174   5.312   4.578   0.457 -1.6802  1.5119 -1.7483
 1044SOL     hw 4175   5.427   4.676   0.452 -0.4087  0.1513 -0.3171
 1044SOL     vw 4176   5.382   4.610   0.417 -0.2074  0.0939 -0.4721
 1045SOL     ow 4177   3.561   1.073   3.344 -0.0708 -0.8755 -0.0082
 1045SOL     hw 4178   3.486   1.079   3.284 -0.2771  0.1381  0.3279
 1045SOL     hw 4179   3.523   1.040   3.425 -0.1990 -0.1964  0.2160
 1045SOL     vw 4180   3.546   1.069   3.347 -0.1148 -0.6523  0.0657
 1046SOL     ow 4181   0.089   6.326   6.619  0.3703 -0.7361  0.2778
 1046SOL     hw 4182   0.084   6.231   6.632  0.0451 -0.6918  0.4724
 1046SOL     hw 4183   0.134   6.336   6.535  3.1056 -1.0253  1.5752
 1046SOL     vw 4184   0.094   6.315   6.610  0.6883 -0.7687  0.4747
 1047SOL     ow 4185   5.643   0.422   1.553  0.1219  0.5181  0.1526
 1047SOL     hw 4186   5.602   0.428   1.467 -0.4157 -0.9472  0.2795
 1047SOL     hw 4187   5.734   0.449   1.538  0.7700 -2.1189 -1.4663
 1047SOL     vw 4188   5.650   0.426   1.540  0.1366 -0.0231 -0.0442
 1048SOL     ow 4189   5.709   7.033   2.449 -0.5341  0.1645 -0.2515
 1048SOL     hw 4190   5.773   6.996   2.388  0.7290  1.0608  0.4935
 1048SOL     hw 4191   5.742   7.010   2.536 -1.6912 -0.0923  0.1460
 1048SOL     vw 4192   5.722   7.025   2.453 -0.5200  0.2487 -0.1010
 1049SOL     ow 4193   0.092   1.154   1.274 -0.9095  0.1290 -0.0343
 1049SOL     hw 4194   0.170   1.099   1.280 -0.7036  0.3593 -0.5934
 1049SOL     hw 4195   0.084   1.195   1.360  0.8434  1.8314 -0.6310
 1049SOL     vw 4196   0.101   1.152   1.286 -0.6510  0.3840 -0.1868
 1050SOL     ow 4197   3.786   2.783   5.650 -0.4207 -0.0184  0.1828
 1050SOL     hw 4198   3.776   2.741   5.735  0.9296 -1.3702 -0.2535
 1050SOL     hw 4199   3.697   2.804   5.622 -0.8795  0.4931  1.9255
 1050SOL     vw 4200   3.773   2.780   5.657 -0.3030 -0.1293  0.3552
 1051SOL     ow 4201   0.186   1.010   3.692 -0.3011  0.1257  0.6231
 1051SOL     hw 4202   0.278   0.987   3.704  0.0931  0.2032 -1.7582
 1051SOL     hw 4203   0.165   1.067   3.767  0.7541 -2.0206  2.6854
 1051SOL     vw 4204   0.195   1.015   3.704 -0.1099 -0.1473  0.5809
 1052SOL     ow 4205   6.341   5.732   3.667 -0.5817  0.4505  0.1660
 1052SOL     hw 4206   6.418   5.686   3.702 -0.6541  1.6132  1.9584
 1052SOL     hw 4207   6.334   5.700   3.577 -0.7527 -3.2122  1.2876
 1052SOL     vw 4208   6.350   5.721   3.660 -0.6137  0.1209  0.5504
 1053SOL     ow 4209   1.898   1.423   4.342  0.1869 -0.2369 -0.1426
 1053SOL     hw 4210   1.915   1.513   4.373 -1.8498  0.1120  0.1270
 1053SOL     hw 4211   1.882   1.374   4.423 -0.8415 -0.3233 -0.3861
 1053SOL     vw 4212   1.898   1.429   4.357 -0.2176 -0.2022 -0.1390
 1054SOL     ow 4213   4.957   6.576   6.201 -1.1348 -0.6423  0.2905
 1054SOL     hw 4214   4.944   6.482   6.208  1.3545 -1.2169 -1.5466
 1054SOL     hw 4215   5.044   6.586   6.162 -1.1388  2.4357  0.8110
 1054SOL     vw 4216   4.967   6.565   6.197 -0.8070 -0.3119  0.1168
 1055SOL     ow 4217   0.650   0.558   0.948  0.8215  0.1504  0.5158
 1055SOL     hw 4218   0.631   0.545   0.855  1.9406  2.4088 -0.1114
 1055SOL     hw 4219   0.564   0.572   0.987  0.4280  0.6862 -0.4857
 1055SOL     vw 4220   0.636   0.558   0.941  0.9172  0.5190  0.3009
 1056SOL     ow 4221   4.764   1.186   2.412 -0.7468  0.0669  0.0491
 1056SOL     hw 4222   4.830   1.146   2.470 -1.9016 -2.7855 -0.4487
 1056SOL     hw 4223   4.801   1.271   2.390  0.8170  0.3397  3.0928
 1056SOL     vw 4224   4.778   1.192   2.417 -0.6931 -0.2734  0.3849
 1057SOL     ow 4225   7.234   5.985   0.267  0.4963 -0.4970 -0.4890
 1057SOL     hw 4226   7.209   6.011   0.178  1.5480  0.9556 -0.3958
 1057SOL     hw 4227   7.320   5.944   0.256  1.4315  1.1976 -0.0168
 1057SOL     vw 4228   7.242   5.983   0.254  0.7586 -0.0815 -0.4144
 1058SOL     ow 4229   6.547   4.246   3.393  0.1617 -0.3591  0.9080
 1058SOL     hw 4230   6.540   4.158   3.429  0.8939 -0.2904  1.2452
 1058SOL     hw 4231   6.631   4.278   3.426  1.3441 -0.6408 -1.5862
 1058SOL     vw 4232   6.557   4.239   3.402  0.4141 -0.3872  0.6235
 1059SOL     ow 4233   6.083   1.865   2.756 -0.2836  0.5176 -0.2945
 1059SOL     hw 4234   6.135   1.828   2.828 -0.2350  0.3579 -0.4121
 1059SOL     hw 4235   6.145   1.874   2.684 -0.3773  0.4970 -0.3776
 1059SOL     vw 4236   6.098   1.861   2.756 -0.2897  0.4938 -0.3210
 1060SOL     ow 4237   3.107   3.819   3.826 -0.2659  0.1916 -0.4554
 1060SOL     hw 4238   3.019   3.812   3.790 -0.6841 -0.3621  0.6520
 1060SOL     hw 4239   3.127   3.912   3.825 -1.3716  0.4526  0.4648
 1060SOL     vw 4240   3.098   3.830   3.821 -0.4669  0.1529 -0.1878
 1061SOL     ow 4241   4.897   4.194   5.072 -0.1842 -0.7875 -0.2144
 1061SOL     hw 4242   4.910   4.150   4.988 -1.0960 -0.2545 -0.6565
 1061SOL     hw 4243   4.899   4.287   5.050  1.0873 -0.5915  0.6077
 1061SOL     vw 4244   4.899   4.201   5.058 -0.1369 -0.6914 -0.1643
 1062SOL     ow 4245   1.329   3.696   4.488  0.5984  0.0679  0.0977
 1062SOL     hw 4246   1.254   3.752   4.507  0.4085  0.3912 -1.4518
 1062SOL     hw 4247   1.384   3.701   4.566 -0.8984 -0.0573  1.2064
 1062SOL     vw 4248   1.326   3.704   4.500  0.3759  0.0941  0.0396
 1063SOL     ow 4249   5.387   1.726   3.935  0.5671  0.1986 -0.3488
 1063SOL     hw 4250   5.456   1.763   3.990  1.8349 -0.2220 -1.6237
 1063SOL     hw 4251   5.358   1.799   3.881  0.1762  0.3078 -0.0014
 1063SOL     vw 4252   5.392   1.741   3.935  0.6828  0.1575 -0.4712
 1064SOL     ow 4253   2.976   3.046   6.166 -0.8735 -0.3210 -1.0537
 1064SOL     hw 4254   2.969   2.953   6.142  1.8615 -1.2399  1.1127
 1064SOL     hw 4255   3.045   3.081   6.109  3.1879 -1.6469  2.4790
 1064SOL     vw 4256   2.984   3.038   6.156  0.0232 -0.6173 -0.3018
 1065SOL     ow 4257   5.076   1.616   6.789 -0.6012  0.0445  0.1632
 1065SOL     hw 4258   5.061   1.531   6.831  0.5053 -1.2052 -1.8408
 1065SOL     hw 4259   5.089   1.595   6.697  0.8291  2.2887 -0.2099
 1065SOL     vw 4260   5.075   1.602   6.783 -0.2666  0.1757 -0.1504
 1066SOL     ow 4261   4.478   0.208   6.757  0.8269 -0.7509  0.8877
 1066SOL     hw 4262   4.454   0.276   6.694  0.8481 -0.4327  1.2205
 1066SOL     hw 4263   4.557   0.241   6.799  1.7987 -1.7353 -0.1088
 1066SOL     vw 4264   4.485   0.221   6.754  0.9580 -0.8388  0.7999
 1067SOL     ow 4265   4.899   6.003   4.165  0.5850 -0.1250  0.8654
 1067SOL     hw 4266   4.921   6.066   4.096 -1.8365 -1.1266 -0.9714
 1067SOL     hw 4267   4.980   5.954   4.180  1.2564  0.2711 -1.1442
 1067SOL     vw 4268   4.913   6.005   4.158  0.3543 -0.2048  0.3579
 1068SOL     ow 4269   0.131   1.374   3.239  0.2372  0.5023  0.3459
 1068SOL     hw 4270   0.195   1.358   3.309  1.0131 -1.8610 -0.7852
 1068SOL     hw 4271   0.049   1.391   3.284  0.5965 -1.4759  1.8708
 1068SOL     vw 4272   0.129   1.374   3.254  0.3870 -0.0705  0.3978
 1069SOL     ow 4273   4.158   4.284   1.164  0.5828 -0.2091  0.4966
 1069SOL     hw 4274   4.234   4.278   1.221 -0.3622 -0.5448  1.7482
 1069SOL     hw 4275   4.140   4.378   1.157  1.1645 -0.1211  0.0991
 1069SOL     vw 4276   4.166   4.296   1.170  0.5350 -0.2418  0.6093
 1070SOL     ow 4277   5.820   0.516   1.967 -0.7282 -0.7726 -0.0673
 1070SOL     hw 4278   5.815   0.432   2.014 -1.2343 -0.6077  0.1739
 1070SOL     hw 4279   5.914   0.528   1.951 -0.6825 -1.6060 -0.5074
 1070SOL     vw 4280   5.832   0.506   1.971 -0.7887 -0.8608 -0.0935
 1071SOL     ow 4281   2.716   3.339   6.290 -0.7989  0.3188 -0.6559
 1071SOL     hw 4282   2.766   3.317   6.368 -0.9686  2.0921  0.0096
 1071SOL     hw 4283   2.633   3.373   6.324 -2.1241 -1.6693 -1.7147
 1071SOL     vw 4284   2.711   3.341   6.305 -0.9962  0.2905 -0.7079
 1072SOL     ow 4285   3.008   6.652   1.480 -0.5981  0.8649 -0.3469
 1072SOL     hw 4286   3.072   6.627   1.547 -0.5852  1.1112 -0.2689
 1072SOL     hw 4287   2.926   6.665   1.529 -1.0791 -0.8569 -0.6144
 1072SOL     vw 4288   3.005   6.650   1.496 -0.6599  0.6702 -0.3719
 1073SOL     ow 4289   2.174   3.204   0.087  0.4993 -0.7348  0.2186
 1073SOL     hw 4290   2.138   3.264   0.022 -1.1010 -1.5443  0.2935
 1073SOL     hw 4291   2.169   3.118   0.046  0.3095 -1.1409  1.0582
 1073SOL     vw 4292   2.169   3.200   0.073  0.2631 -0.8951  0.3393
 1074SOL     ow 4293   2.295   0.809   1.621  1.0937  0.4557 -0.5976
 1074SOL     hw 4294   2.279   0.752   1.546  1.4987 -2.5992  1.4568
 1074SOL     hw 4295   2.386   0.791   1.645  1.0554  1.5683  0.4929
 1074SOL     vw 4296   2.305   0.799   1.614  1.1421  0.1995 -0.1827
 1075SOL     ow 4297   3.242   3.650   0.061 -0.2570 -0.3249  0.2894
 1075SOL     hw 4298   3.267   3.699   0.140  1.1595  0.7801 -0.8017
 1075SOL     hw 4299   3.152   3.676   0.044  0.8227  3.0346 -0.9832
 1075SOL     vw 4300   3.234   3.660   0.069  0.0724  0.2640 -0.0225
 1076SOL     ow 4301   4.467   6.667   5.184  0.2717 -0.4338  0.9535
 1076SOL     hw 4302   4.484   6.758   5.208 -1.0377  0.7667 -2.1317
 1076SOL     hw 4303   4.372   6.661   5.181  0.3339 -1.1697 -1.0927
 1076SOL     vw 4304   4.457   6.678   5.187  0.1070 -0.3726  0.2761
 1077SOL     ow 4305   1.906   2.133   3.440 -0.0294 -0.2607 -0.3308
 1077SOL     hw 4306   2.000   2.139   3.424 -0.1244 -1.4054 -1.5747
 1077SOL     hw 4307   1.888   2.039   3.437 -1.5258  0.0190 -2.3444
 1077SOL     vw 4308   1.916   2.121   3.437 -0.2393 -0.3749 -0.7607
 1078SOL     ow 4309   4.972   0.426   4.684 -0.2389  0.1517 -0.4781
 1078SOL     hw 4310   5.052   0.396   4.641 -0.5934  0.6972 -1.5432
 1078SOL     hw 4311   4.974   0.521   4.677 -0.3126  0.2603  0.7330
 1078SOL     vw 4312   4.982   0.434   4.677 -0.2954  0.2380 -0.4590
 1079SOL     ow 4313   1.659   6.198   6.855  0.2349  0.2450  0.0474
 1079SOL     hw 4314   1.676   6.195   6.761  0.2983  1.8243 -0.0212
 1079SOL     hw 4315   1.566   6.178   6.865  0.2041  0.1949 -0.3575
 1079SOL     vw 4316   1.649   6.195   6.844  0.2393  0.4468 -0.0153
 1080SOL     ow 4317   0.469   5.551   1.714  0.2276  0.2129 -0.2125
 1080SOL     hw 4318   0.491   5.621   1.653  0.3077  2.0055  1.7560
 1080SOL     hw 4319   0.525   5.567   1.790  0.2430 -2.0090  0.3281
 1080SOL     vw 4320   0.479   5.562   1.716  0.2402  0.1562  0.1186
 1081SOL     ow 4321   6.549   6.197   6.386 -0.3024 -0.3607 -0.4057
 1081SOL     hw 4322   6.624   6.243   6.423 -1.4620  0.0013  1.6254
 1081SOL     hw 4323   6.584   6.153   6.308  2.3468 -1.4106  1.2439
 1081SOL     vw 4324   6.564   6.197   6.381 -0.1059 -0.4511  0.0799
 1082SOL     ow 4325   6.862   0.986   1.164 -0.0999  0.0317  0.7021
 1082SOL     hw 4326   6.839   0.923   1.232 -2.1882  0.0408  0.0748
 1082SOL     hw 4327   6.931   1.039   1.203  0.0947 -1.1736  2.0884
 1082SOL     vw 4328   6.868   0.984   1.178 -0.3498 -0.1261  0.8022
 1083SOL     ow 4329   3.266   1.261   0.559  0.4382  0.0082 -0.2302
 1083SOL     hw 4330   3.192   1.301   0.604  2.0876 -2.0088  5.1465
 1083SOL     hw 4331   3.342   1.313   0.587  1.6351 -1.6485 -0.2121
 1083SOL     vw 4332   3.267   1.273   0.569  0.8136 -0.4765  0.4816
 1084SOL     ow 4333   5.026   5.843   2.098 -0.2522  0.4262  0.1626
 1084SOL     hw 4334   5.073   5.814   2.176  2.2327  1.8570 -0.6794
 1084SOL     hw 4335   4.936   5.857   2.128 -0.2287 -2.3912  1.8756
 1084SOL     vw 4336   5.020   5.841   2.112  0.0787  0.2434  0.2774
 1085SOL     ow 4337   5.411   3.795   2.959  0.8142 -1.1411  0.2525
 1085SOL     hw 4338   5.332   3.797   2.905  1.3604 -2.3007 -0.6448
 1085SOL     hw 4339   5.475   3.845   2.909  0.4089  0.6368  1.4380
 1085SOL     vw 4340   5.409   3.802   2.945  0.8326 -1.0594  0.2904
 1086SOL     ow 4341   1.014   6.780   0.346  0.7274 -0.1620 -0.6389
 1086SOL     hw 4342   1.002   6.719   0.418 -1.0186 -0.3849 -1.0826
 1086SOL     hw 4343   1.106   6.769   0.321  1.8576  1.0548  2.5008
 1086SOL     vw 4344   1.025   6.771   0.352  0.6462 -0.0312 -0.2832
 1087SOL     ow 4345   2.202   5.684   0.908 -0.1838  0.0272  0.7141
 1087SOL     hw 4346   2.196   5.595   0.941  1.2935 -0.2271  0.3922
 1087SOL     hw 4347   2.270   5.725   0.961 -1.5908  1.3281  1.5824
 1087SOL     vw 4348   2.210   5.678   0.919 -0.1746  0.1652  0.7862
 1088SOL     ow 4349   7.237   0.287   4.288 -0.4392 -0.2501  0.4450
 1088SOL     hw 4350   7.282   0.212   4.328 -0.2123 -0.6328 -0.5005
 1088SOL     hw 4351   7.278   0.296   4.202  0.0044  1.3898  0.7985
 1088SOL     vw 4352   7.249   0.278   4.282 -0.3507 -0.0842  0.3672
 1089SOL     ow 4353   2.163   2.137   3.488  0.2798 -0.3663 -0.2288
 1089SOL     hw 4354   2.201   2.060   3.447  0.9458  1.5583 -3.6524
 1089SOL     hw 4355   2.231   2.204   3.480 -0.6114  0.8779  1.7668
 1089SOL     vw 4356   2.177   2.136   3.482  0.2501  0.0517 -0.4172
 1090SOL     ow 4357   0.249   5.404   1.561 -0.3328 -0.8086  0.6855
 1090SOL     hw 4358   0.238   5.309   1.548  2.3737 -1.1397  0.4296
 1090SOL     hw 4359   0.218   5.443   1.480 -2.0023 -1.3785  0.9948
 1090SOL     vw 4360   0.243   5.396   1.549 -0.1960 -0.9277  0.6925
 1091SOL     ow 4361   0.112   0.052   0.296  0.3828 -0.0656 -0.3794
 1091SOL     hw 4362   0.051   0.048   0.222  0.3485  3.3466 -0.7057
 1091SOL     hw 4363   0.198   0.037   0.258  0.0725 -1.9142 -0.4280
 1091SOL     vw 4364   0.115   0.050   0.281  0.3373  0.1407 -0.4289
 1092SOL     ow 4365   2.505   4.716   3.879  0.6831  0.0297 -0.4112
 1092SOL     hw 4366   2.543   4.703   3.792 -0.2995 -1.0491 -0.7007
 1092SOL     hw 4367   2.524   4.636   3.927  0.9394  0.4883  0.2790
 1092SOL     vw 4368   2.513   4.704   3.874  0.5872 -0.0520 -0.3582
 1093SOL     ow 4369   3.381   5.181   0.524 -0.2338 -0.5601 -0.3705
 1093SOL     hw 4370   3.413   5.246   0.461  1.0162 -1.0383 -0.2419
 1093SOL     hw 4371   3.354   5.107   0.470  1.4297 -1.2218 -0.3375
 1093SOL     vw 4372   3.381   5.180   0.508  0.1507 -0.7107 -0.3492
 1094SOL     ow 4373   3.336   3.859   6.879  0.9680  0.2406  0.0240
 1094SOL     hw 4374   3.358   3.802   6.953  1.2842 -0.0892 -0.3129
 1094SOL     hw 4375   3.334   3.947   6.915  0.4996  0.0179  0.5495
 1094SOL     vw 4376   3.339   3.863   6.893  0.9477  0.1677  0.0486
 1095SOL     ow 4377   3.100   4.836   2.082  0.5154  0.3054 -0.6446
 1095SOL     hw 4378   3.149   4.822   2.001  0.2665 -0.3738 -0.6847
 1095SOL     hw 4379   3.009   4.828   2.057  0.4424 -0.1355 -0.2608
 1095SOL     vw 4380   3.095   4.833   2.068  0.4729  0.1578 -0.5991
 1096SOL     ow 4381   2.921   0.056   4.341 -0.4411 -0.1136  0.3916
 1096SOL     hw 4382   2.904   0.105   4.260  3.5997 -0.2730 -0.7859
 1096SOL     hw 4383   2.878  -0.028   4.327 -1.2502  0.4724 -0.8501
 1096SOL     vw 4384   2.913   0.052   4.328 -0.0148 -0.0573  0.0725
 1097SOL     ow 4385   4.206   6.567   2.439 -0.1911  0.2946 -0.0863
 1097SOL     hw 4386   4.272   6.542   2.504  0.8266  3.0863  0.0845
 1097SOL     hw 4387   4.257   6.600   2.365 -1.3890 -0.4115 -1.2625
 1097SOL     vw 4388   4.222   6.568   2.438 -0.2148  0.5696 -0.2189
 1098SOL     ow 4389   2.239   4.386   3.312 -0.0735 -0.3255 -0.6485
 1098SOL     hw 4390   2.279   4.436   3.241 -0.1391 -0.4837 -0.7981
 1098SOL     hw 4391   2.233   4.448   3.385 -0.0509 -0.1487 -0.7967
 1098SOL     vw 4392   2.244   4.401   3.312 -0.0790 -0.3228 -0.6878
 1099SOL     ow 4393   7.296   2.180   2.583  0.1105 -0.8231 -0.8104
 1099SOL     hw 4394   7.258   2.253   2.534  2.0679 -0.3727 -1.7370
 1099SOL     hw 4395   7.229   2.111   2.579 -2.0536  1.0466  0.6061
 1099SOL     vw 4396   7.282   2.181   2.576  0.0832 -0.5170 -0.7458
 1100SOL     ow 4397   2.390   2.250   4.742  0.4565  0.0137  0.0161
 1100SOL     hw 4398   2.408   2.196   4.666 -0.1470 -2.3240  1.4349
 1100SOL     hw 4399   2.443   2.328   4.730  3.7086 -2.1371 -0.7677
 1100SOL     vw 4400   2.399   2.253   4.731  0.8059 -0.5785  0.0997
 1101SOL     ow 4401   1.475   3.948   0.577 -0.2192  0.4971 -0.0981
 1101SOL     hw 4402   1.514   3.991   0.500 -0.7305 -1.2253 -1.3836
 1101SOL     hw 4403   1.540   3.957   0.646 -0.1246  2.9053 -0.4127
 1101SOL     vw 4404   1.488   3.955   0.576 -0.2742  0.5877 -0.3092
 1102SOL     ow 4405   2.756   6.529   1.691 -0.4081  0.5741 -0.4104
 1102SOL     hw 4406   2.819   6.479   1.639 -1.3134 -1.0810  0.0098
 1102SOL     hw 4407   2.798   6.542   1.775 -0.7539 -0.8863  0.0097
 1102SOL     vw 4408   2.769   6.525   1.695 -0.5730  0.1633 -0.2996
 1103SOL     ow 4409   0.800   0.088   2.187  0.3312 -0.3722  0.3725
 1103SOL     hw 4410   0.872   0.072   2.126 -0.5703  3.5393 -1.9909
 1103SOL     hw 4411   0.739   0.016   2.171  0.0766  0.5171 -3.6188
 1103SOL     vw 4412   0.802   0.076   2.177  0.1786  0.2612 -0.4659
 1104SOL     ow 4413   4.026   5.297   2.578  0.4074 -0.5359 -0.1551
 1104SOL     hw 4414   4.065   5.347   2.506  1.7260 -0.2443  0.7114
 1104SOL     hw 4415   3.950   5.254   2.540  1.0110 -0.2970 -1.6810
 1104SOL     vw 4416   4.021   5.298   2.564  0.6609 -0.4661 -0.2421
 1105SOL     ow 4417   0.483   3.047   0.276 -0.3583 -0.1983  0.6391
 1105SOL     hw 4418   0.577   3.064   0.271 -0.4499  0.0546 -0.5715
 1105SOL     hw 4419   0.452   3.057   0.186 -1.0873 -3.1156  0.4788
 1105SOL     vw 4420   0.492   3.051   0.264 -0.4666 -0.5499  0.4582
 1106SOL     ow 4421   7.269   6.007   0.554  0.7777  0.6318 -0.1871
 1106SOL     hw 4422   7.359   6.033   0.572  0.5864  0.9712  0.2923
 1106SOL     hw 4423   7.273   5.911   0.546  1.0648  0.5864  0.4933
 1106SOL     vw 4424   7.282   5.998   0.555  0.7904  0.6707 -0.0341
 1107SOL     ow 4425   5.808   2.462   3.003  0.1101 -0.4421 -0.5153
 1107SOL     hw 4426   5.785   2.421   3.086 -1.1285 -1.7364 -1.4524
 1107SOL     hw 4427   5.763   2.547   3.005 -1.1579 -1.0909 -0.4626
 1107SOL     vw 4428   5.799   2.468   3.014 -0.2208 -0.6984 -0.6319
 1108SOL     ow 4429   2.304   5.822   2.991  0.8770 -0.4376 -0.2456
 1108SOL     hw 4430   2.237   5.841   3.056 -0.4442  0.1604 -1.7141
 1108SOL     hw 4431   2.343   5.907   2.971 -1.4825  0.1713 -3.0443
 1108SOL     vw 4432   2.301   5.836   2.997  0.3914 -0.2782 -0.8085
 1109SOL     ow 4433   3.867   0.856   0.087  0.2740  0.3365 -0.4139
 1109SOL     hw 4434   3.883   0.762   0.078 -0.9194 -0.1636  1.9114
 1109SOL     hw 4435   3.852   0.869   0.181  1.3050  3.0248 -0.5378
 1109SOL     vw 4436   3.867   0.845   0.098  0.2526  0.6252 -0.1234
 1110SOL     ow 4437   2.262   0.113   5.896  0.4860  0.8544  0.4738
 1110SOL     hw 4438   2.323   0.083   5.829 -1.3376  0.2214 -1.0012
 1110SOL     hw 4439   2.287   0.064   5.974  1.9262  0.7189 -0.0470
 1110SOL     vw 4440   2.273   0.102   5.897  0.4354  0.7530  0.2105
 1111SOL     ow 4441   7.154   1.258   1.523  0.3853  0.6855 -0.4072
 1111SOL     hw 4442   7.080   1.204   1.552  0.0466  0.9350 -0.8084
 1111SOL     hw 4443   7.209   1.266   1.601  1.0426 -1.2267 -0.6236
 1111SOL     vw 4444   7.152   1.252   1.537  0.4272  0.4662 -0.4887
 1112SOL     ow 4445   2.309   1.541   2.112 -0.2485  1.0144  0.1335
 1112SOL     hw 4446   2.330   1.492   2.191  0.3272  4.1222  2.1053
 1112SOL     hw 4447   2.243   1.605   2.140 -0.5413  1.8013 -2.0815
 1112SOL     vw 4448   2.303   1.543   2.126 -0.2112  1.5283  0.1016
 1113SOL     ow 4449   4.861   6.885   1.957 -0.0137  0.3809  0.4300
 1113SOL     hw 4450   4.842   6.794   1.977  1.4942 -0.9003 -3.1455
 1113SOL     hw 4451   4.956   6.888   1.946 -0.1865  1.9374 -1.1517
 1113SOL     vw 4452   4.871   6.874   1.958  0.1626  0.4172 -0.2505
 1114SOL     ow 4453   2.344   0.835   5.905  0.0404 -0.5761 -0.3152
 1114SOL     hw 4454   2.260   0.866   5.939  0.5719  0.4780  0.0793
 1114SOL     hw 4455   2.406   0.905   5.927  0.9077 -1.0666 -1.1369
 1114SOL     vw 4456   2.341   0.848   5.913  0.2249 -0.5018 -0.3719
 1115SOL     ow 4457   3.607   2.868   2.006  0.6615 -0.0477 -0.2128
 1115SOL     hw 4458   3.537   2.901   2.064 -1.4673 -1.4075 -1.8361
 1115SOL     hw 4459   3.570   2.875   1.918  3.4735  1.1769 -1.4304
 1115SOL     vw 4460   3.593   2.874   2.002  0.7516 -0.0656 -0.5875
 1116SOL     ow 4461   1.156   1.808   2.942 -0.3407  0.3592 -0.7963
 1116SOL     hw 4462   1.181   1.858   2.864  2.0680  1.2377  0.4410
 1116SOL     hw 4463   1.146   1.874   3.010 -2.8921 -0.3495 -0.3923
 1116SOL     vw 4464   1.158   1.823   2.940 -0.3596  0.3816 -0.5798
 1117SOL     ow 4465   0.218   1.983   1.427  0.6346 -0.2024  0.1834
 1117SOL     hw 4466   0.298   2.032   1.410  0.4443  0.4892  1.2724
 1117SOL     hw 4467   0.198   1.998   1.519 -2.0358  1.5736 -0.5701
 1117SOL     vw 4468   0.226   1.991   1.437  0.2572  0.1231  0.2277
 1118SOL     ow 4469   1.765   2.463   1.165 -0.2870 -0.4723  0.0109
 1118SOL     hw 4470   1.774   2.528   1.235 -1.4549  2.7944 -2.6439
 1118SOL     hw 4471   1.672   2.464   1.143 -0.1347 -2.2432 -0.9303
 1118SOL     vw 4472   1.754   2.472   1.172 -0.4210 -0.2750 -0.4635
 1119SOL     ow 4473   4.411   6.687   0.633  0.3544 -0.0685 -0.1156
 1119SOL     hw 4474   4.438   6.694   0.725  2.8796 -2.3631 -0.5545
 1119SOL     hw 4475   4.493   6.675   0.585 -1.0680 -1.7781 -2.3358
 1119SOL     vw 4476   4.425   6.686   0.639  0.4997 -0.5968 -0.4664
 1120SOL     ow 4477   1.441   1.008   0.174  0.5322 -0.2289  0.1152
 1120SOL     hw 4478   1.355   0.969   0.160  1.2033 -2.2695  1.3527
 1120SOL     hw 4479   1.424   1.102   0.182 -1.9248 -0.7640  2.6527
 1120SOL     vw 4480   1.428   1.015   0.173  0.2965 -0.5687  0.6132
 1121SOL     ow 4481   5.026   5.704   5.896 -0.2678 -0.4220 -0.1229
 1121SOL     hw 4482   4.962   5.740   5.959 -1.3125  0.0988 -1.4338
 1121SOL     hw 4483   4.991   5.618   5.875  0.5626 -0.9680  0.6458
 1121SOL     vw 4484   5.013   5.697   5.902 -0.2959 -0.4253 -0.1945
 1122SOL     ow 4485   6.991   4.714   6.941  0.2953 -0.0053  1.0661
 1122SOL     hw 4486   7.004   4.793   6.889  1.4320 -1.5597 -1.2374
 1122SOL     hw 4487   7.058   4.720   7.010  2.8996 -0.4818 -1.2056
 1122SOL     vw 4488   7.002   4.725   6.943  0.7892 -0.2732  0.4625
 1123SOL     ow 4489   6.811   1.982   3.536  0.0023 -0.0028  0.0964
 1123SOL     hw 4490   6.839   2.073   3.525 -0.0173  0.2311  1.7014
 1123SOL     hw 4491   6.866   1.932   3.475  2.3754  0.7064  1.5056
 1123SOL     vw 4492   6.822   1.988   3.527  0.3128  0.1216  0.4941
 1124SOL     ow 4493   1.456   5.380   1.978  0.1589 -0.5211  0.4176
 1124SOL     hw 4494   1.527   5.317   1.963  0.6943  0.2157 -0.2130
 1124SOL     hw 4495   1.475   5.452   1.918 -0.7003  0.0376  0.8028
 1124SOL     vw 4496   1.468   5.381   1.968  0.1162 -0.3500  0.3852
 1125SOL     ow 4497   4.758   5.865   3.191  0.5956 -0.1981 -0.4922
 1125SOL     hw 4498   4.849   5.840   3.177  0.5687 -0.2774 -0.5319
 1125SOL     hw 4499   4.747   5.866   3.286  0.7892  0.3726 -0.4762
 1125SOL     vw 4500   4.768   5.862   3.201  0.6177 -0.1335 -0.4953
 1126SOL     ow 4501   2.510   6.858   1.679 -0.5669 -0.0564  0.2037
 1126SOL     hw 4502   2.548   6.835   1.594 -3.1658  0.3561 -1.1648
 1126SOL     hw 4503   2.485   6.774   1.717  0.2892 -0.2199  0.4291
 1126SOL     vw 4504   2.512   6.844   1.672 -0.7968 -0.0236  0.0529
 1127SOL     ow 4505   1.091   5.608   6.468 -0.5475  0.1375 -0.1355
 1127SOL     hw 4506   1.083   5.695   6.429  3.4951 -0.0164 -1.7668
 1127SOL     hw 4507   1.004   5.591   6.506 -2.8385  3.0537 -3.4078
 1127SOL     vw 4508   1.078   5.617   6.468 -0.3164  0.5021 -0.7825
 1128SOL     ow 4509   1.010   3.644   5.308 -0.4798  0.2355 -0.3853
 1128SOL     hw 4510   1.054   3.729   5.317 -2.5373  1.1795  2.0101
 1128SOL     hw 4511   1.062   3.585   5.362 -0.3295  0.5419 -0.1898
 1128SOL     vw 4512   1.023   3.648   5.316 -0.7315  0.4004 -0.0436
 1129SOL     ow 4513   0.444   3.449   6.591 -0.5136 -0.1703 -0.2183
 1129SOL     hw 4514   0.431   3.543   6.606 -0.4057  0.1753 -2.1212
 1129SOL     hw 4515   0.538   3.436   6.605 -0.4040  0.1519 -0.6340
 1129SOL     vw 4516   0.455   3.460   6.595 -0.4849 -0.0823 -0.5243
 1130SOL     ow 4517   1.791   6.741   5.515 -0.7908 -0.0419 -0.4397
 1130SOL     hw 4518   1.697   6.747   5.502 -0.5113 -0.0422 -2.8904
 1130SOL     hw 4519   1.808   6.648   5.528 -1.3048  0.1664  2.1663
 1130SOL     vw 4520   1.781   6.730   5.515 -0.8218 -0.0143 -0.4194
 1131SOL     ow 4521   0.444   6.743   3.050 -0.1554 -0.1102 -0.4025
 1131SOL     hw 4522   0.485   6.735   3.136 -1.3286 -1.8638  0.0410
 1131SOL     hw 4523   0.489   6.679   2.996 -1.8209 -1.6353 -0.0661
 1131SOL     vw 4524   0.455   6.734   3.054 -0.5300 -0.5426 -0.2995
 1132SOL     ow 4525   0.942   2.845   6.525  0.6188 -0.6051 -0.3570
 1132SOL     hw 4526   0.959   2.755   6.553 -1.5651 -1.2431 -0.8660
 1132SOL     hw 4527   0.923   2.892   6.607  0.5757 -0.9033 -0.1937
 1132SOL     vw 4528   0.942   2.839   6.540  0.3250 -0.7286 -0.4025
 1133SOL     ow 4529   7.071   2.474   5.134  0.3186 -0.2943 -0.4085
 1133SOL     hw 4530   7.141   2.538   5.122  1.9831 -1.6676  1.3748
 1133SOL     hw 4531   7.099   2.398   5.082  0.1805 -0.8690  0.3426
 1133SOL     vw 4532   7.084   2.472   5.125  0.5198 -0.5512 -0.0741
 1134SOL     ow 4533   4.862   5.177   3.910  0.5465  0.0311 -0.1913
 1134SOL     hw 4534   4.930   5.198   3.847  4.1825 -0.8271  3.0601
 1134SOL     hw 4535   4.865   5.249   3.973 -1.3730 -0.2454  0.2941
 1134SOL     vw 4536   4.871   5.189   3.910  0.7730 -0.1185  0.3018
 1135SOL     ow 4537   0.987   6.267   1.419 -0.8847 -0.2331  0.4305
 1135SOL     hw 4538   1.062   6.314   1.455 -2.8595  2.2064  1.6921
 1135SOL     hw 4539   1.004   6.175   1.440  1.5459  0.2713  0.9768
 1135SOL     vw 4540   0.999   6.261   1.427 -0.8246  0.1554  0.6690
 1136SOL     ow 4541   7.070   4.565   6.680 -0.6686 -0.2147  0.2974
 1136SOL     hw 4542   7.076   4.478   6.640  0.0473  0.7848 -1.9638
 1136SOL     hw 4543   7.136   4.617   6.633 -0.6085  1.4041  2.0434
 1136SOL     vw 4544   7.080   4.561   6.668 -0.5662  0.1307  0.2296
 1137SOL     ow 4545   1.395   4.661   0.595 -0.8289 -0.0291 -0.2014
 1137SOL     hw 4546   1.350   4.671   0.511 -0.7601  0.0971 -0.2245
 1137SOL     hw 4547   1.351   4.589   0.638  1.1113 -2.2526 -1.6613
 1137SOL     vw 4548   1.384   4.653   0.590 -0.5637 -0.3059 -0.3971
 1138SOL     ow 4549   2.555   5.029   0.990 -0.0583 -0.3697 -0.5060
 1138SOL     hw 4550   2.468   5.050   0.957 -0.1623 -0.2497 -0.1564
 1138SOL     hw 4551   2.606   5.008   0.911  0.2088  1.7115 -0.9330
 1138SOL     vw 4552   2.550   5.029   0.975 -0.0367 -0.0794 -0.5162
 1139SOL     ow 4553   6.915   1.590   4.914  0.3868  0.1705  0.5590
 1139SOL     hw 4554   6.936   1.498   4.931  0.2328  0.2377  1.1288
 1139SOL     hw 4555   6.951   1.607   4.827 -0.8797 -0.8434 -0.2059
 1139SOL     vw 4556   6.923   1.580   4.904  0.1993  0.0457  0.5331
 1140SOL     ow 4557   5.288   2.270   0.844  0.3377 -0.3566 -0.0626
 1140SOL     hw 4558   5.292   2.176   0.826 -0.4430 -0.1235 -1.6149
 1140SOL     hw 4559   5.278   2.310   0.758 -0.2024  1.0956  0.6482
 1140SOL     vw 4560   5.287   2.262   0.830  0.1636 -0.1341 -0.1736
 1141SOL     ow 4561   4.465   0.623   1.774  0.2643  0.1232  0.6608
 1141SOL     hw 4562   4.445   0.653   1.863 -1.5119 -1.1884  0.7749
 1141SOL     hw 4563   4.380   0.600   1.737  1.2415 -4.6637  0.6615
 1141SOL     vw 4564   4.451   0.624   1.781  0.1590 -0.6814  0.6760
 1142SOL     ow 4565   6.867   0.676   5.229 -0.2002 -0.6316  0.2608
 1142SOL     hw 4566   6.928   0.709   5.294 -0.7753  2.1547 -0.4737
 1142SOL     hw 4567   6.792   0.644   5.279 -0.3925  0.9504  1.0222
 1142SOL     vw 4568   6.865   0.676   5.244 -0.3016 -0.0553  0.2639
 1143SOL     ow 4569   3.540   2.877   5.628  0.2090 -0.3115  0.4276
 1143SOL     hw 4570   3.485   2.861   5.551  3.6428 -0.2788 -2.2810
 1143SOL     hw 4571   3.488   2.845   5.701 -3.7975  0.7564 -1.6588
 1143SOL     vw 4572   3.526   2.870   5.627  0.1335 -0.1664 -0.2050
 1144SOL     ow 4573   1.058   2.294   1.329 -0.6716  0.0580  0.1345
 1144SOL     hw 4574   1.062   2.205   1.293  0.3295  0.3596 -0.5558
 1144SOL     hw 4575   1.120   2.293   1.402  1.4457  0.8596 -1.5307
 1144SOL     vw 4576   1.067   2.282   1.334 -0.2602  0.2035 -0.1763
 1145SOL     ow 4577   3.925   4.849   3.622 -0.0751  0.5683  0.2195
 1145SOL     hw 4578   3.912   4.922   3.683 -0.1780  0.6145  0.1424
 1145SOL     hw 4579   3.907   4.886   3.536 -2.2044 -0.0539  0.3503
 1145SOL     vw 4580   3.921   4.864   3.619 -0.3694  0.4926  0.2265
 1146SOL     ow 4581   6.710   1.380   6.771  0.1436  0.1798 -0.0294
 1146SOL     hw 4582   6.690   1.318   6.841  0.0801 -0.9485 -1.0009
 1146SOL     hw 4583   6.632   1.378   6.715 -0.4970  2.3161  0.7046
 1146SOL     vw 4584   6.697   1.372   6.772  0.0508  0.3127 -0.0608
 1147SOL     ow 4585   6.027   6.104   7.313 -0.5811 -0.1771  0.1125
 1147SOL     hw 4586   6.103   6.046   7.309 -2.9796 -3.6176 -0.7014
 1147SOL     hw 4587   6.063   6.190   7.334  3.2682 -1.9873  1.9504
 1147SOL     vw 4588   6.041   6.108   7.315 -0.3898 -0.8698  0.2477
 1148SOL     ow 4589   1.748   4.160   3.619 -0.6201 -0.5613  0.0893
 1148SOL     hw 4590   1.728   4.192   3.531  1.1401 -3.3391 -1.4478
 1148SOL     hw 4591   1.843   4.162   3.624 -0.6329 -1.8114  1.3700
 1148SOL     vw 4592   1.758   4.165   3.608 -0.3895 -1.0929  0.0554
 1149SOL     ow 4593   4.398   4.124   0.037 -0.0652  0.1234 -0.0472
 1149SOL     hw 4594   4.444   4.208   0.040  0.0140  0.0526  1.2400
 1149SOL     hw 4595   4.440   4.071   0.105  0.8784 -1.5073 -1.7722
 1149SOL     vw 4596   4.410   4.128   0.046  0.0699 -0.1009 -0.1049
 1150SOL     ow 4597   0.402   5.183   3.448 -0.7627 -0.7404  0.0871
 1150SOL     hw 4598   0.413   5.119   3.519 -1.3368 -0.9841 -0.0340
 1150SOL     hw 4599   0.347   5.137   3.383  0.7595 -0.9611 -1.0882
 1150SOL     vw 4600   0.396   5.168   3.449 -0.6376 -0.8013 -0.0838
 1151SOL     ow 4601   2.408   6.304   0.343 -0.2495  0.0112  0.6624
 1151SOL     hw 4602   2.408   6.214   0.312 -1.4891  0.1756  0.1043
 1151SOL     hw 4603   2.333   6.309   0.402 -0.9114  0.9442 -0.2163
 1151SOL     vw 4604   2.398   6.293   0.347 -0.5003  0.1559  0.4728
 1152SOL     ow 4605   0.691   2.199   6.748  0.0733  0.4115  0.1146
 1152SOL     hw 4606   0.759   2.134   6.731 -0.5153 -0.5108  1.1258
 1152SOL     hw 4607   0.700   2.262   6.677  0.7366 -0.7282 -0.8659
 1152SOL     vw 4608   0.701   2.198   6.736  0.0831  0.1396  0.1190
 1153SOL     ow 4609   2.509   3.114   2.634  0.0125  0.2101 -0.3631
 1153SOL     hw 4610   2.438   3.165   2.674 -1.3464 -0.9562 -1.1828
 1153SOL     hw 4611   2.583   3.124   2.695 -0.6517  1.9331  0.2191
 1153SOL     vw 4612   2.509   3.122   2.647 -0.2544  0.2836 -0.3946
 1154SOL     ow 4613   6.854   4.628   0.234  0.0882  0.2186  0.4709
 1154SOL     hw 4614   6.876   4.595   0.321 -0.9846 -0.7911  0.3942
 1154SOL     hw 4615   6.758   4.624   0.231  0.0716  1.0102 -0.4656
 1154SOL     vw 4616   6.844   4.623   0.245 -0.0556  0.1898  0.3372
 1155SOL     ow 4617   3.179   2.649   4.839 -0.0339 -0.1025 -0.8097
 1155SOL     hw 4618   3.181   2.742   4.860 -1.1873 -0.4263  0.9661
 1155SOL     hw 4619   3.143   2.607   4.918 -1.6953 -1.8011 -2.3621
 1155SOL     vw 4620   3.174   2.655   4.852 -0.4053 -0.3693 -0.7801
 1156SOL     ow 4621   2.002   5.312   3.726  0.1629  0.4364 -0.1672
 1156SOL     hw 4622   1.967   5.231   3.690  1.3116 -0.4889  0.6954
 1156SOL     hw 4623   2.093   5.314   3.696  0.5297  0.6943  0.9014
 1156SOL     vw 4624   2.010   5.301   3.717  0.3629  0.3483  0.0876
 1157SOL     ow 4625   3.125   5.683   5.392  0.1860  0.2196  0.1717
 1157SOL     hw 4626   3.090   5.723   5.312  2.5948  0.8649 -0.6387
 1157SOL     hw 4627   3.103   5.590   5.384  0.7296  0.2031 -1.4641
 1157SOL     vw 4628   3.117   5.676   5.380  0.5755  0.3023 -0.1509
 1158SOL     ow 4629   5.566   6.394   3.608 -1.3213  0.0746  0.5284
 1158SOL     hw 4630   5.542   6.361   3.695 -0.1906  0.1679  0.8962
 1158SOL     hw 4631   5.557   6.489   3.616 -0.3595  0.1516  0.8371
 1158SOL     vw 4632   5.562   6.402   3.621 -1.0452  0.0973  0.6177
 1159SOL     ow 4633   4.103   6.645   0.506  0.4322 -0.2995 -0.2290
 1159SOL     hw 4634   4.063   6.569   0.463  1.5118 -0.4234 -1.0597
 1159SOL     hw 4635   4.030   6.687   0.552 -0.0167 -2.3798  1.1203
 1159SOL     vw 4636   4.088   6.640   0.506  0.5155 -0.5906 -0.1606
 1160SOL     ow 4637   2.190   4.992   6.744 -0.0636  0.1518 -0.4297
 1160SOL     hw 4638   2.125   4.985   6.674  1.4747 -1.9145 -1.7624
 1160SOL     hw 4639   2.153   4.941   6.816  0.5411 -2.1963 -1.6587
 1160SOL     vw 4640   2.176   4.984   6.744  0.2190 -0.4306 -0.7679
 1161SOL     ow 4641   5.932   4.329   0.492  0.0499  0.5536  0.5163
 1161SOL     hw 4642   5.932   4.423   0.508  1.0361  0.4721  1.0423
 1161SOL     hw 4643   6.023   4.302   0.503  0.0296 -0.2443 -1.0359
 1161SOL     vw 4644   5.944   4.337   0.496  0.1774  0.4375  0.3809
 1162SOL     ow 4645   4.657   5.411   2.459  0.4535  0.4297 -0.8562
 1162SOL     hw 4646   4.740   5.387   2.499 -0.4410  0.4770  1.1611
 1162SOL     hw 4647   4.601   5.435   2.533 -1.0594  1.3344 -2.2247
 1162SOL     vw 4648   4.660   5.411   2.474  0.1359  0.5553 -0.7707
 1163SOL     ow 4649   3.364   3.425   3.494  0.9166 -0.9670 -0.2801
 1163SOL     hw 4650   3.441   3.431   3.551  0.8112  2.1315 -0.2793
 1163SOL     hw 4651   3.399   3.413   3.406  1.1492 -3.6384  0.0832
 1163SOL     vw 4652   3.379   3.424   3.490  0.9333 -0.9108 -0.2322
 1164SOL     ow 4653   4.984   6.946   4.166 -0.0414  0.2166  0.1731
 1164SOL     hw 4654   5.017   6.868   4.120  1.2229  0.1056  1.2412
 1164SOL     hw 4655   5.036   6.952   4.245  1.4925  3.4582 -0.9150
 1164SOL     vw 4656   4.995   6.936   4.170  0.3276  0.6297  0.1705
 1165SOL     ow 4657   4.684   5.767   3.965  0.0627  0.6818  0.6133
 1165SOL     hw 4658   4.701   5.811   3.882 -3.1062 -0.9697 -1.0666
 1165SOL     hw 4659   4.737   5.688   3.962  1.3220  1.4677  1.0565
 1165SOL     vw 4660   4.693   5.763   3.954 -0.1893  0.5677  0.4503
 1166SOL     ow 4661   0.796   2.386   7.190  0.3884  0.5175  0.1581
 1166SOL     hw 4662   0.797   2.419   7.279  0.6247 -1.5682  0.9903
 1166SOL     hw 4663   0.797   2.290   7.199 -2.7967  0.1208 -2.0140
 1166SOL     vw 4664   0.797   2.377   7.203 -0.0007  0.1900 -0.0188
 1167SOL     ow 4665   5.433   5.934   3.280  0.7496 -0.3357 -0.5594
 1167SOL     hw 4666   5.352   5.985   3.284  1.6323  1.1074 -0.0852
 1167SOL     hw 4667   5.437   5.903   3.189  1.1731  2.2550 -1.5249
 1167SOL     vw 4668   5.423   5.937   3.268  0.9220  0.1967 -0.6241
 1168SOL     ow 4669   3.670   4.473   5.185  0.8784  0.5692  0.3903
 1168SOL     hw 4670   3.622   4.411   5.240 -0.2496  0.3150 -0.8059
 1168SOL     hw 4671   3.762   4.459   5.207  0.5909 -0.9960  0.7142
 1168SOL     vw 4672   3.676   4.463   5.195  0.6918  0.3290  0.2754
 1169SOL     ow 4673   7.155   3.058   2.524  0.0845  0.0289  0.1293
 1169SOL     hw 4674   7.244   3.024   2.523  2.0789  4.4924  0.0176
 1169SOL     hw 4675   7.147   3.102   2.609 -0.4385  2.9835 -1.3199
 1169SOL     vw 4676   7.166   3.060   2.535  0.2789  1.0077 -0.0765
 1170SOL     ow 4677   5.756   3.619   6.024  0.1805  0.7209  0.3083
 1170SOL     hw 4678   5.667   3.602   5.993 -1.0696  2.1927  2.7887
 1170SOL     hw 4679   5.812   3.583   5.955 -2.2691 -1.5692 -0.6871
 1170SOL     vw 4680   5.751   3.612   6.011 -0.3076  0.6131  0.5040
 1171SOL     ow 4681   6.366   6.001   3.382  0.1023 -0.1742  0.3946
 1171SOL     hw 4682   6.382   5.993   3.476 -0.7451  1.2875  0.7031
 1171SOL     hw 4683   6.293   5.942   3.365  1.4414 -1.8467  0.2662
 1171SOL     vw 4684   6.358   5.992   3.393  0.1671 -0.2022  0.4184
 1172SOL     ow 4685   6.663   5.215   3.608 -0.1581 -0.0159  0.1077
 1172SOL     hw 4686   6.605   5.139   3.596 -2.6418  1.2291  2.9524
 1172SOL     hw 4687   6.691   5.210   3.699  1.8046  1.0966 -0.3957
 1172SOL     vw 4688   6.659   5.204   3.618 -0.2267  0.2952  0.4165
 1173SOL     ow 4689   5.568   6.537   3.375 -0.3290 -0.1333  0.2508
 1173SOL     hw 4690   5.582   6.613   3.431 -0.6722 -0.1445  0.3534
 1173SOL     hw 4691   5.562   6.463   3.436  0.4776 -0.3161  0.1247
 1173SOL     vw 4692   5.569   6.537   3.390 -0.2677 -0.1590  0.2477
 1174SOL     ow 4693   2.402   0.796   5.490 -0.8164 -0.3556  0.3846
 1174SOL     hw 4694   2.402   0.704   5.462 -0.3590 -0.9121  2.0901
 1174SOL     hw 4695   2.494   0.816   5.506 -0.4203  1.5507 -3.2816
 1174SOL     vw 4696   2.414   0.786   5.488 -0.7038 -0.1775  0.1259
 1175SOL     ow 4697   0.647   6.177   0.458  0.4430  0.3754  0.3261
 1175SOL     hw 4698   0.657   6.269   0.434  0.7343  0.2183 -0.1700
 1175SOL     hw 4699   0.703   6.166   0.534  2.8707 -0.0892 -1.4009
 1175SOL     vw 4700   0.655   6.188   0.465  0.8017  0.2935  0.0328
 1176SOL     ow 4701   5.864   0.397   3.819 -0.3250 -0.1011 -0.3943
 1176SOL     hw 4702   5.851   0.430   3.730 -1.3648  2.4500  0.5871
 1176SOL     hw 4703   5.953   0.362   3.819 -0.6559 -1.1178 -2.6657
 1176SOL     vw 4704   5.874   0.397   3.808 -0.5059  0.1013 -0.5643
 1177SOL     ow 4705   6.175   2.865   3.504 -0.3255 -0.4699  0.1413
 1177SOL     hw 4706   6.145   2.873   3.595  0.4311  1.1514  0.2697
 1177SOL     hw 4707   6.261   2.824   3.511  0.1988  0.6259  0.2531
 1177SOL     vw 4708   6.182   2.861   3.517 -0.1564 -0.1113  0.1730
 1178SOL     ow 4709   2.519   2.847   2.432  0.2958 -0.0368 -0.1282
 1178SOL     hw 4710   2.609   2.836   2.462 -0.1507 -0.4880  1.0853
 1178SOL     hw 4711   2.495   2.762   2.396  0.0251 -0.2291  0.4900
 1178SOL     vw 4712   2.527   2.835   2.431  0.2013 -0.1216  0.1135
 1179SOL     ow 4713   3.851   1.414   2.745 -0.3019  0.0851 -0.2576
 1179SOL     hw 4714   3.803   1.400   2.664 -1.1382  0.9224  0.0701
 1179SOL     hw 4715   3.814   1.350   2.806 -1.2211  0.8848  0.0635
 1179SOL     vw 4716   3.840   1.404   2.742 -0.5335  0.3011 -0.1719
 1180SOL     ow 4717   0.104   5.855   0.209  0.1324 -0.1357  0.5785
 1180SOL     hw 4718   0.036   5.804   0.166 -1.1988  0.5840  1.7357
 1180SOL     hw 4719   0.164   5.790   0.244  0.1208 -0.7845 -0.5644
 1180SOL     vw 4720   0.103   5.840   0.208 -0.0448 -0.1264  0.5804
 1181SOL     ow 4721   4.526   0.100   2.131 -0.1856  0.2522  0.2618
 1181SOL     hw 4722   4.612   0.119   2.170 -0.3035 -0.4231  0.8743
 1181SOL     hw 4723   4.470   0.172   2.160 -0.4112 -0.5192  1.8459
 1181SOL     vw 4724   4.530   0.112   2.140 -0.2310  0.0613  0.5516
 1182SOL     ow 4725   2.067   1.038   5.476  0.0468 -0.2470 -0.1719
 1182SOL     hw 4726   1.991   1.085   5.443  0.4900 -0.5715 -1.7431
 1182SOL     hw 4727   2.139   1.067   5.420  0.8054 -0.9331  0.4329
 1182SOL     vw 4728   2.066   1.048   5.464  0.2054 -0.3803 -0.2995
 1183SOL     ow 4729   5.440   7.180   0.355  0.6064  0.0261  0.6235
 1183SOL     hw 4730   5.426   7.123   0.431 -0.2698 -0.4333  0.1374
 1183SOL     hw 4731   5.384   7.255   0.371  0.1609 -0.2271  0.2832
 1183SOL     vw 4732   5.431   7.182   0.367  0.4323 -0.0682  0.5144
 1184SOL     ow 4733   1.247   1.547   2.931  0.0848 -0.9381 -0.6263
 1184SOL     hw 4734   1.213   1.509   2.850  0.2766  0.3626 -1.3412
 1184SOL     hw 4735   1.205   1.633   2.937  2.4894  0.3674 -1.0726
 1184SOL     vw 4736   1.237   1.553   2.921  0.4272 -0.5943 -0.7795
 1185SOL     ow 4737   4.249   7.116   5.083  0.4173 -0.1142  0.1305
 1185SOL     hw 4738   4.169   7.107   5.031 -0.5956 -1.2936  1.8279
 1185SOL     hw 4739   4.320   7.107   5.019 -0.7909 -1.0999 -1.1222
 1185SOL     vw 4740   4.248   7.113   5.067  0.1245 -0.4001  0.1893
 1186SOL     ow 4741   1.955   0.152   2.423  0.1021  0.0124  0.0864
 1186SOL     hw 4742   1.980   0.224   2.481  0.9179  0.6078 -0.9810
 1186SOL     hw 4743   2.005   0.166   2.343  0.8124 -2.1322  0.0909
 1186SOL     vw 4744   1.965   0.163   2.420  0.3034 -0.1920 -0.0539
 1187SOL     ow 4745   5.111   4.495   0.856  0.4394  0.5357 -0.4043
 1187SOL     hw 4746   5.033   4.444   0.881  1.1763 -0.1216  0.6377
 1187SOL     hw 4747   5.123   4.475   0.763 -0.5166  0.4868 -0.5321
 1187SOL     vw 4748   5.102   4.485   0.847  0.4103  0.4425 -0.2837
 1188SOL     ow 4749   7.197   1.109   1.152  0.6818 -0.1246 -0.4365
 1188SOL     hw 4750   7.123   1.136   1.205 -0.9238 -1.0492 -2.0777
 1188SOL     hw 4751   7.274   1.137   1.201 -0.6788 -0.7324  2.2199
 1188SOL     vw 4752   7.198   1.116   1.165  0.2904 -0.3268 -0.3026
 1189SOL     ow 4753   5.866   0.288   0.979 -0.2368  0.4202 -0.4161
 1189SOL     hw 4754   5.823   0.289   0.893 -0.3065 -0.3609 -0.3942
 1189SOL     hw 4755   5.848   0.201   1.014  3.6357 -1.1030 -1.5867
 1189SOL     vw 4756   5.858   0.277   0.972  0.2649  0.1162 -0.5676
 1190SOL     ow 4757   4.235   1.655   1.463  1.0564  0.1939 -0.8290
 1190SOL     hw 4758   4.224   1.561   1.481  1.0261  0.3246 -0.1382
 1190SOL     hw 4759   4.210   1.665   1.371 -1.5668 -0.0513 -0.2219
 1190SOL     vw 4760   4.230   1.644   1.453  0.7064  0.1788 -0.6577
 1191SOL     ow 4761   4.067   5.422   2.193  0.1387  0.0582  0.8161
 1191SOL     hw 4762   4.009   5.346   2.202  1.0544 -0.9413 -1.0754
 1191SOL     hw 4763   4.119   5.403   2.114  2.9154  0.9693  2.2895
 1191SOL     vw 4764   4.066   5.410   2.184  0.6258  0.0467  0.7610
 1192SOL     ow 4765   0.018   0.517   6.516 -0.1627 -0.3381  0.3624
 1192SOL     hw 4766   0.034   0.557   6.430  0.0158  1.5535  1.2300
 1192SOL     hw 4767  -0.077   0.519   6.527 -0.0888  0.8869  0.8586
 1192SOL     vw 4768   0.008   0.522   6.506 -0.1295  0.0731  0.5422
 1193SOL     ow 4769   3.171   5.369   2.799  0.3486  0.1077 -0.3175
 1193SOL     hw 4770   3.102   5.304   2.818  1.2756 -1.2417 -1.3606
 1193SOL     hw 4771   3.228   5.325   2.736  1.6910  1.5244 -0.1366
 1193SOL     vw 4772   3.169   5.354   2.793  0.6481  0.1166 -0.4313
 1194SOL     ow 4773   2.631   6.445   7.094  0.1665  0.0711  0.5522
 1194SOL     hw 4774   2.683   6.417   7.019 -0.3269 -0.4446  0.3929
 1194SOL     hw 4775   2.585   6.523   7.064  1.0203  0.6667  0.7701
 1194SOL     vw 4776   2.632   6.452   7.080  0.2140  0.0820  0.5596
 1195SOL     ow 4777   2.823   5.170   4.324  0.4141 -0.9722 -0.1747
 1195SOL     hw 4778   2.732   5.197   4.316  0.3412 -1.0741  0.3106
 1195SOL     hw 4779   2.851   5.152   4.234  1.2748  3.3218 -0.9789
 1195SOL     vw 4780   2.815   5.171   4.311  0.5181 -0.4191 -0.2167
 1196SOL     ow 4781   5.515   5.880   0.535 -0.1019 -0.3702  0.2340
 1196SOL     hw 4782   5.597   5.842   0.565 -1.0809 -1.8782  1.1520
 1196SOL     hw 4783   5.486   5.822   0.464  0.2406  0.9008 -0.9976
 1196SOL     vw 4784   5.522   5.867   0.529 -0.1860 -0.4017  0.1926
 1197SOL     ow 4785   5.786   7.034   6.826  0.1484 -0.4637  0.4568
 1197SOL     hw 4786   5.697   7.002   6.808 -0.4187  0.5239  1.3992
 1197SOL     hw 4787   5.835   7.013   6.746 -0.7713 -1.5539  0.1455
 1197SOL     vw 4788   5.780   7.027   6.813 -0.0477 -0.4771  0.5403
 1198SOL     ow 4789   3.296   5.152   2.008  0.5936  0.2913  0.2223
 1198SOL     hw 4790   3.299   5.246   2.025 -2.4629  0.6225 -0.5136
 1198SOL     hw 4791   3.304   5.144   1.913 -1.4013  0.0580  0.0313
 1198SOL     vw 4792   3.298   5.163   1.998 -0.0728  0.3042  0.1000
 1199SOL     ow 4793   3.763   0.846   4.444  0.4140 -0.2497  0.1164
 1199SOL     hw 4794   3.727   0.815   4.361  1.2210  0.4004 -0.4944
 1199SOL     hw 4795   3.707   0.807   4.511 -0.7730 -0.0984 -0.7591
 1199SOL     vw 4796   3.751   0.837   4.442  0.3638 -0.1440 -0.0796
 1200SOL     ow 4797   5.654   4.119   3.907 -0.6269  0.9935  0.4341
 1200SOL     hw 4798   5.594   4.193   3.895 -0.5618  1.1058  0.8062
 1200SOL     hw 4799   5.597   4.045   3.927 -0.9979  0.2108 -2.8594
 1200SOL     vw 4800   5.639   4.119   3.908 -0.6673  0.9053  0.0488
 1201SOL     ow 4801   6.172   4.920   7.281 -0.4333 -0.3168 -0.2764
 1201SOL     hw 4802   6.119   4.958   7.211  0.8705  0.1244 -1.0760
 1201SOL     hw 4803   6.256   4.900   7.239  0.7192  0.8293  1.3528
 1201SOL     vw 4804   6.176   4.923   7.266 -0.1094 -0.1075 -0.1667
 1202SOL     ow 4805   1.890   1.877   3.373 -0.0220  0.3323 -0.7320
 1202SOL     hw 4806   1.877   1.857   3.280 -0.1084 -0.2816 -0.5915
 1202SOL     hw 4807   1.883   1.792   3.417  0.4114  0.5634 -0.2070
 1202SOL     vw 4808   1.887   1.863   3.366  0.0237  0.2818 -0.6442
 1203SOL     ow 4809   0.476   5.594   0.469 -0.3941  0.9050 -0.3724
 1203SOL     hw 4810   0.451   5.573   0.559 -0.8262  3.4953  0.1900
 1203SOL     hw 4811   0.393   5.608   0.423 -0.3806  5.6079  0.5022
 1203SOL     vw 4812   0.462   5.593   0.474 -0.4493  1.8675 -0.1828
 1204SOL     ow 4813   4.898   0.620   3.421  0.3744  0.1930  0.1940
 1204SOL     hw 4814   4.824   0.662   3.376  2.8148  2.4375 -2.1418
 1204SOL     hw 4815   4.911   0.537   3.375 -1.4396 -0.8859  1.5319
 1204SOL     vw 4816   4.890   0.615   3.409  0.4570  0.3468  0.0623
 1205SOL     ow 4817   4.150   0.339   6.879 -0.5944 -0.2155 -0.2657
 1205SOL     hw 4818   4.172   0.349   6.786  4.1766  0.6566  0.7028
 1205SOL     hw 4819   4.186   0.254   6.903 -0.2682  0.2980  1.1361
 1205SOL     vw 4820   4.157   0.329   6.870  0.0780 -0.0327  0.0467
 1206SOL     ow 4821   1.159   3.379   3.009  0.4610 -0.8512 -0.3608
 1206SOL     hw 4822   1.077   3.427   2.996  0.7767  0.3675  1.7142
 1206SOL     hw 4823   1.131   3.289   3.029 -0.8692  0.4045  4.9570
 1206SOL     vw 4824   1.144   3.373   3.010  0.3271 -0.5249  0.6145
 1207SOL     ow 4825   4.567   5.614   6.677 -0.0227  0.5434  0.1982
 1207SOL     hw 4826   4.509   5.684   6.650 -0.4722  0.0403 -0.1645
 1207SOL     hw 4827   4.655   5.648   6.662 -0.2413  0.3266 -1.8063
 1207SOL     vw 4828   4.571   5.627   6.672 -0.1109  0.4485 -0.1140
 1208SOL     ow 4829   5.299   2.040   3.247  0.5342 -0.1327  0.1342
 1208SOL     hw 4830   5.370   2.020   3.307  0.7305  2.2134  0.7471
 1208SOL     hw 4831   5.232   2.081   3.301 -0.9534 -1.4997 -0.5929
 1208SOL     vw 4832   5.299   2.043   3.262  0.3638 -0.0035  0.1191
 1209SOL     ow 4833   5.677   7.080   5.715 -0.6889  0.2274  0.7805
 1209SOL     hw 4834   5.620   7.107   5.644  0.6889  0.4637 -0.2742
 1209SOL     hw 4835   5.621   7.082   5.793 -1.2051  4.3646  0.5231
 1209SOL     vw 4836   5.662   7.084   5.716 -0.5753  0.8044  0.6073
 1210SOL     ow 4837   3.467   5.346   0.768  0.1037 -0.2562  0.1552
 1210SOL     hw 4838   3.407   5.405   0.811 -0.7756  0.4461 -1.9042
 1210SOL     hw 4839   3.528   5.403   0.721 -1.9406 -0.7643 -3.4909
 1210SOL     vw 4840   3.468   5.361   0.767 -0.2820 -0.2308 -0.5976
 1211SOL     ow 4841   1.553   7.075   3.417 -0.1732  0.2541  0.5944
 1211SOL     hw 4842   1.504   7.062   3.336 -3.4945  2.4794  2.0118
 1211SOL     hw 4843   1.591   7.163   3.409  2.4739 -0.8168  0.1958
 1211SOL     vw 4844   1.552   7.085   3.405 -0.2621  0.4063  0.7288
 1212SOL     ow 4845   6.112   1.028   0.965  0.4285  0.1651 -0.6123
 1212SOL     hw 4846   6.195   1.016   0.919 -0.0553 -0.5809 -1.3273
 1212SOL     hw 4847   6.098   0.946   1.011 -0.4409 -0.1544 -1.4098
 1212SOL     vw 4848   6.121   1.016   0.965  0.2496  0.0244 -0.8119
 1213SOL     ow 4849   4.316   2.239   2.771 -0.4636 -0.1696 -0.0951
 1213SOL     hw 4850   4.304   2.247   2.865  0.7642 -0.3841  0.0886
 1213SOL     hw 4851   4.259   2.166   2.745 -1.8639  0.7539  0.2372
 1213SOL     vw 4852   4.307   2.231   2.780 -0.4864 -0.0761 -0.0269
 1214SOL     ow 4853   1.086   1.648   5.870  0.1924  0.4559 -0.2024
 1214SOL     hw 4854   1.134   1.590   5.812 -0.7255  0.1398 -0.6617
 1214SOL     hw 4855   0.997   1.613   5.872  0.0837  0.7353  1.0265
 1214SOL     vw 4856   1.081   1.636   5.863  0.0569  0.4511 -0.1009
 1215SOL     ow 4857   4.191   5.397   3.512  0.0942 -0.0618  0.5512
 1215SOL     hw 4858   4.204   5.302   3.512 -1.2526 -0.3212 -1.4851
 1215SOL     hw 4859   4.279   5.433   3.499  0.6840 -0.9775  1.7780
 1215SOL     vw 4860   4.204   5.389   3.510 -0.0057 -0.2170  0.4444
 1216SOL     ow 4861   5.138   6.583   4.959  0.2778  0.2234 -0.9286
 1216SOL     hw 4862   5.121   6.656   4.900  0.1018  1.4088  0.5143
 1216SOL     hw 4863   5.125   6.504   4.906 -1.8133  1.1982 -1.9481
 1216SOL     vw 4864   5.134   6.582   4.944 -0.0212  0.5085 -0.8729
 1217SOL     ow 4865   0.481   2.044   1.445 -0.1030 -0.1510 -0.0800
 1217SOL     hw 4866   0.523   2.075   1.525  0.8483 -0.5913 -0.3938
 1217SOL     hw 4867   0.494   1.949   1.446 -2.2598 -0.4893  0.4555
 1217SOL     vw 4868   0.489   2.036   1.455 -0.2621 -0.2537 -0.0508
 1218SOL     ow 4869   4.437   4.934   3.979 -0.3897  0.1996  0.5011
 1218SOL     hw 4870   4.494   5.005   3.952 -0.0912 -0.1836  0.1185
 1218SOL     hw 4871   4.467   4.911   4.067 -1.4950  1.5807  1.2811
 1218SOL     vw 4872   4.448   4.940   3.987 -0.4964  0.3312  0.5535
 1219SOL     ow 4873   3.883   5.950   4.822  0.3150  0.5396 -0.2609
 1219SOL     hw 4874   3.887   5.955   4.917  2.1016  3.5258 -0.3374
 1219SOL     hw 4875   3.808   6.006   4.798  2.2117  3.1599 -0.5699
 1219SOL     vw 4876   3.873   5.958   4.831  0.8008  1.2794 -0.3116
 1220SOL     ow 4877   6.625   6.809   6.696  0.1232  0.5211  0.1358
 1220SOL     hw 4878   6.549   6.769   6.739  0.0161  1.0726  0.4736
 1220SOL     hw 4879   6.609   6.903   6.702  0.1509  0.6192 -1.0465
 1220SOL     vw 4880   6.613   6.816   6.703  0.1125  0.6070  0.0243
 1221SOL     ow 4881   7.029   0.273   5.445 -0.0998 -0.0940  0.5015
 1221SOL     hw 4882   7.071   0.343   5.496 -0.9304  0.4535  0.4652
 1221SOL     hw 4883   7.057   0.192   5.488  0.3222  0.2941  0.9728
 1221SOL     vw 4884   7.038   0.271   5.458 -0.1538  0.0294  0.5591
 1222SOL     ow 4885   5.849   0.745   6.427 -0.6788 -0.5828 -0.0884
 1222SOL     hw 4886   5.927   0.707   6.387  0.0169  2.0304 -1.4038
 1222SOL     hw 4887   5.856   0.839   6.410 -3.3724 -0.0728  1.0886
 1222SOL     vw 4888   5.860   0.753   6.420 -0.9425 -0.1707 -0.1066
 1223SOL     ow 4889   2.935   1.015   1.164 -0.1132  0.5818 -0.1032
 1223SOL     hw 4890   3.018   1.055   1.190  0.9806 -0.5567 -1.6393
 1223SOL     hw 4891   2.947   0.922   1.184 -0.9848  0.3874 -0.4615
 1223SOL     vw 4892   2.948   1.008   1.170 -0.0839  0.4060 -0.3531
 1224SOL     ow 4893   0.700   1.859   1.640  0.5162  0.2526 -0.5246
 1224SOL     hw 4894   0.667   1.948   1.627 -1.0475  0.0705  1.5930
 1224SOL     hw 4895   0.668   1.810   1.565  1.1265  1.3757 -1.5556
 1224SOL     vw 4896   0.691   1.865   1.629  0.3904  0.3768 -0.3812
 1225SOL     ow 4897   1.877   6.181   7.074 -0.7729  0.3976  0.5017
 1225SOL     hw 4898   1.937   6.240   7.028 -0.4145 -0.3165  0.0256
 1225SOL     hw 4899   1.870   6.217   7.162 -1.6591  1.9233 -0.1615
 1225SOL     vw 4900   1.884   6.193   7.080 -0.8425  0.5045  0.3514
 1226SOL     ow 4901   6.928   0.551   4.519  0.0244 -0.5150  0.2276
 1226SOL     hw 4902   6.966   0.601   4.592  0.7610 -0.9275  0.1417
 1226SOL     hw 4903   6.992   0.481   4.503  0.2236 -0.0127 -1.2714
 1226SOL     vw 4904   6.942   0.548   4.527  0.1478 -0.5032  0.0184
 1227SOL     ow 4905   4.897   5.503   4.864 -0.2421  0.2615 -0.1323
 1227SOL     hw 4906   4.948   5.439   4.913 -0.8169  0.5589  0.8730
 1227SOL     hw 4907   4.862   5.562   4.930  0.6626  1.9189 -1.0518
 1227SOL     vw 4908   4.899   5.503   4.879 -0.1986  0.5193 -0.1211
 1228SOL     ow 4909   2.933   0.044   1.484  0.0021  0.3911 -0.0524
 1228SOL     hw 4910   3.005  -0.011   1.515 -0.6465  0.6533  2.0831
 1228SOL     hw 4911   2.977   0.122   1.448  0.8890 -1.0859 -2.3823
 1228SOL     vw 4912   2.948   0.047   1.483  0.0336  0.2309 -0.0780
 1229SOL     ow 4913   2.473   5.330   3.000  0.0311 -0.1764 -0.1741
 1229SOL     hw 4914   2.497   5.343   2.909  3.3836  1.8667  0.8191
 1229SOL     hw 4915   2.508   5.243   3.022 -0.8819 -0.7197 -0.7993
 1229SOL     vw 4916   2.481   5.320   2.991  0.3529  0.0215 -0.1256
 1230SOL     ow 4917   4.624   4.256   3.852  0.1686 -0.4892  0.0509
 1230SOL     hw 4918   4.678   4.195   3.902  0.6432  1.1492  1.6354
 1230SOL     hw 4919   4.598   4.207   3.774  3.8617 -1.4089 -0.7677
 1230SOL     vw 4920   4.627   4.242   3.848  0.7186 -0.3943  0.1520
 1231SOL     ow 4921   5.081   2.660   2.115 -0.2724  0.1216  0.4032
 1231SOL     hw 4922   5.017   2.718   2.074  0.4770  0.3373 -0.4843
 1231SOL     hw 4923   5.038   2.575   2.120 -0.9357  0.4670  0.5970
 1231SOL     vw 4924   5.067   2.657   2.111 -0.2608  0.1956  0.3117
 1232SOL     ow 4925   0.604   2.362   1.741 -0.1751 -0.6189 -0.6615
 1232SOL     hw 4926   0.521   2.370   1.788  0.1555  0.8877 -0.2981
 1232SOL     hw 4927   0.667   2.336   1.809 -0.2010 -1.0574 -0.8005
 1232SOL     vw 4928   0.601   2.359   1.756 -0.1349 -0.4781 -0.6319
 1233SOL     ow 4929   6.617   4.210   3.712 -0.8183  0.4417 -0.1773
 1233SOL     hw 4930   6.546   4.148   3.697  0.1271 -0.7045 -0.0437
 1233SOL     hw 4931   6.573   4.295   3.721 -2.2812 -0.4002  1.1475
 1233SOL     vw 4932   6.602   4.213   3.711 -0.8867  0.1793  0.0151
 1234SOL     ow 4933   2.731   0.060   1.258  0.8085 -0.1405  0.4746
 1234SOL     hw 4934   2.641   0.058   1.289  1.0160  0.6909  1.1828
 1234SOL     hw 4935   2.783   0.078   1.336  1.6786 -1.4313  0.2211
 1234SOL     vw 4936   2.726   0.062   1.273  0.9507 -0.2012  0.5345
 1235SOL     ow 4937   3.324   0.772   1.170 -0.3583  0.5244  0.2676
 1235SOL     hw 4938   3.267   0.849   1.167  1.6866  2.1110 -2.2754
 1235SOL     hw 4939   3.271   0.702   1.134 -0.9028  1.8975 -1.7926
 1235SOL     vw 4940   3.310   0.773   1.165 -0.1605  0.9149 -0.3397
 1236SOL     ow 4941   4.982   4.193   6.642  0.3936 -1.1888 -0.0399
 1236SOL     hw 4942   4.904   4.166   6.691  0.5304 -2.2837 -0.3875
 1236SOL     hw 4943   5.034   4.242   6.705 -0.3107 -0.9452  0.3613
 1236SOL     vw 4944   4.978   4.196   6.657  0.3188 -1.3015 -0.0329
 1237SOL     ow 4945   6.997   2.833   2.479  0.2631 -0.0795 -0.0117
 1237SOL     hw 4946   6.939   2.764   2.513  0.7325 -0.5236 -0.1075
 1237SOL     hw 4947   7.075   2.827   2.535 -1.4629  3.5075  3.2771
 1237SOL     vw 4948   6.999   2.823   2.491  0.0973  0.3351  0.4096
 1238SOL     ow 4949   2.730   6.053   0.139  0.0048  0.2736 -0.0254
 1238SOL     hw 4950   2.737   6.100   0.056  1.0371  0.2333  0.0171
 1238SOL     hw 4951   2.736   5.961   0.115  0.8925  0.2796  0.1264
 1238SOL     vw 4952   2.732   6.047   0.125  0.2581  0.2689  0.0002
 1239SOL     ow 4953   6.252   3.824   1.164 -0.5212  0.1466  0.3651
 1239SOL     hw 4954   6.223   3.817   1.073  0.1044  0.1611  0.1539
 1239SOL     hw 4955   6.173   3.844   1.214 -1.1778 -1.5391  0.0593
 1239SOL     vw 4956   6.238   3.826   1.158 -0.5252 -0.0738  0.2968
 1240SOL     ow 4957   3.711   3.112   5.296  0.4452  0.9302  0.7818
 1240SOL     hw 4958   3.642   3.053   5.265  1.9763 -0.3516 -0.3168
 1240SOL     hw 4959   3.673   3.199   5.286  0.0906  0.5171 -2.9642
 1240SOL     vw 4960   3.697   3.115   5.291  0.6005  0.7064  0.1428
 1241SOL     ow 4961   2.062   1.523   0.346 -0.2309  0.1314  0.7904
 1241SOL     hw 4962   2.148   1.532   0.307 -1.5326 -1.0871 -2.7812
 1241SOL     hw 4963   2.029   1.612   0.355 -0.2339  0.4902 -2.1039
 1241SOL     vw 4964   2.069   1.536   0.342 -0.4030  0.0180 -0.0627
 1242SOL     ow 4965   3.448   4.353   1.648  0.5570  0.3016 -0.7591
 1242SOL     hw 4966   3.543   4.348   1.651  0.4688 -2.4729  1.5343
 1242SOL     hw 4967   3.419   4.263   1.634 -1.7060  0.5516  1.4938
 1242SOL     vw 4968   3.456   4.340   1.647  0.2468 -0.0315 -0.1593
 1243SOL     ow 4969   5.364   2.129   2.949 -0.1270  0.1796 -0.1408
 1243SOL     hw 4970   5.372   2.219   2.917 -1.1290  0.3606  0.0845
 1243SOL     hw 4971   5.454   2.102   2.966  0.2772  0.7284 -1.3031
 1243SOL     vw 4972   5.377   2.138   2.947 -0.2062  0.2759 -0.2643
 1244SOL     ow 4973   6.240   6.008   1.716  0.0326 -0.6024  0.1059
 1244SOL     hw 4974   6.159   5.967   1.747 -1.6285  1.6688 -0.8917
 1244SOL     hw 4975   6.297   6.011   1.792 -2.4234  1.3620  2.0402
 1244SOL     vw 4976   6.236   6.003   1.730 -0.5107 -0.0434  0.2295
 1245SOL     ow 4977   0.150   5.948   3.265 -0.3662  0.1461  0.0773
 1245SOL     hw 4978   0.132   5.991   3.182  1.5993 -0.6430 -0.8225
 1245SOL     hw 4979   0.065   5.941   3.308 -1.1783  2.1026 -1.0868
 1245SOL     vw 4980   0.136   5.953   3.260 -0.2140  0.3002 -0.1950
 1246SOL     ow 4981   2.843   6.016   0.425 -0.3730  0.0180 -0.4846
 1246SOL     hw 4982   2.860   5.922   0.418 -2.3939 -0.3836 -0.6533
 1246SOL     hw 4983   2.922   6.058   0.391 -0.0381 -1.6483 -1.8484
 1246SOL     vw 4984   2.855   6.009   0.420 -0.5956 -0.2549 -0.6868
 1247SOL     ow 4985   6.883   0.076   2.396  0.1676 -0.8451 -0.2208
 1247SOL     hw 4986   6.805   0.123   2.366 -0.5262 -2.8027 -1.6441
 1247SOL     hw 4987   6.950   0.096   2.330  1.5537  2.2382  1.8731
 1247SOL     vw 4988   6.882   0.085   2.383  0.2592 -0.6966 -0.1323
 1248SOL     ow 4989   0.712   0.486   5.983  0.9235  0.0356 -0.4805
 1248SOL     hw 4990   0.704   0.473   6.078  0.3194  1.8738 -0.2347
 1248SOL     hw 4991   0.665   0.412   5.944  1.8289 -1.1635  0.6158
 1248SOL     vw 4992   0.705   0.474   5.990  0.9633  0.1199 -0.3035
 1249SOL     ow 4993   2.040   1.536   1.900 -0.1600 -0.6527 -0.5983
 1249SOL     hw 4994   2.045   1.625   1.936  0.2907 -0.2845 -1.5500
 1249SOL     hw 4995   1.983   1.544   1.824  0.9425 -0.9009 -1.4743
 1249SOL     vw 4996   2.033   1.549   1.895  0.0449 -0.6368 -0.8395
 1250SOL     ow 4997   5.777   1.895   2.680  0.6082 -0.1076 -0.4008
 1250SOL     hw 4998   5.745   1.811   2.713  2.2879 -0.7152 -0.2117
 1250SOL     hw 4999   5.815   1.874   2.595  0.4351  0.6045 -0.6611
 1250SOL     vw 5000   5.778   1.881   2.673  0.8068 -0.0938 -0.4102
 1251SOL     ow 5001   2.557   0.411   5.599 -0.1345 -0.8220 -0.3880
 1251SOL     hw 5002   2.518   0.380   5.681 -0.8946 -1.0671 -0.8229
 1251SOL     hw 5003   2.641   0.447   5.624 -1.1520  0.8554  0.7831
 1251SOL     vw 5004   2.563   0.411   5.613 -0.3691 -0.6330 -0.2909
 1252SOL     ow 5005   7.003   7.182   1.592  0.3356  0.2412 -0.0383
 1252SOL     hw 5006   7.039   7.250   1.649  0.5315 -0.2318  0.4156
 1252SOL     hw 5007   6.914   7.212   1.571  0.1512  0.2818  0.7673
 1252SOL     vw 5008   6.996   7.195   1.597  0.3374  0.1843  0.1279
 1253SOL     ow 5009   5.009   4.460   5.160 -0.0944 -0.4292 -0.3777
 1253SOL     hw 5010   4.990   4.409   5.239 -0.2225 -2.0542 -1.4089
 1253SOL     hw 5011   4.931   4.513   5.146 -0.9256 -1.6513 -0.5272
 1253SOL     vw 5012   4.996   4.460   5.169 -0.2213 -0.8049 -0.5333
 1254SOL     ow 5013   4.483   2.320   6.752  0.4501  0.2400  0.3755
 1254SOL     hw 5014   4.553   2.272   6.708  1.5625  0.2533  2.0669
 1254SOL     hw 5015   4.488   2.293   6.843  0.1474  2.3946  1.0964
 1254SOL     vw 5016   4.493   2.310   6.758  0.5569  0.5261  0.6936
 1255SOL     ow 5017   6.072   6.248   1.778 -0.7565  0.0718  0.2043
 1255SOL     hw 5018   6.049   6.206   1.861  1.2415 -0.6796  0.4541
 1255SOL     hw 5019   6.050   6.340   1.789 -2.8451 -0.4350  0.6069
 1255SOL     vw 5020   6.066   6.254   1.790 -0.7684 -0.0944  0.2904
 1256SOL     ow 5021   1.723   4.586   6.053  0.2077  0.4153 -0.4815
 1256SOL     hw 5022   1.786   4.514   6.060  1.1374  1.2897  0.6664
 1256SOL     hw 5023   1.726   4.611   5.961  0.9639 -0.0763 -0.6019
 1256SOL     vw 5024   1.732   4.580   6.042  0.4302  0.4659 -0.3459
 1257SOL     ow 5025   6.361   4.486   4.388  0.1789  0.1748 -0.2754
 1257SOL     hw 5026   6.406   4.569   4.403 -0.8894  0.6606  0.4566
 1257SOL     hw 5027   6.409   4.423   4.441  1.1860  0.2504 -1.0782
 1257SOL     vw 5028   6.373   4.489   4.397  0.1709  0.2489 -0.2849
 1258SOL     ow 5029   0.065   6.806   2.437  0.3544  0.5595 -0.0865
 1258SOL     hw 5030   0.089   6.886   2.484 -0.0978  0.3105  0.5849
 1258SOL     hw 5031   0.148   6.758   2.427  0.0075 -1.1799  3.8576
 1258SOL     vw 5032   0.079   6.811   2.442  0.2490  0.2971  0.5225
 1259SOL     ow 5033   0.348   3.581   3.879  0.2976  0.3741 -1.3099
 1259SOL     hw 5034   0.397   3.525   3.819  1.4236 -0.9107  0.7191
 1259SOL     hw 5035   0.312   3.521   3.945 -1.6621  1.6316 -1.1546
 1259SOL     vw 5036   0.350   3.566   3.880  0.1876  0.3706 -1.0217
 1260SOL     ow 5037   5.921   6.567   2.538  1.0476  0.0387  0.2017
 1260SOL     hw 5038   5.954   6.631   2.476 -1.0979  1.2688  0.2385
 1260SOL     hw 5039   5.828   6.558   2.517  0.4488 -0.1824  2.6296
 1260SOL     vw 5040   5.914   6.574   2.527  0.6855  0.1717  0.5269
 1261SOL     ow 5041   3.943   2.771   6.732  0.2019 -0.9030 -0.3238
 1261SOL     hw 5042   3.960   2.758   6.638  0.0764 -1.8652 -0.2202
 1261SOL     hw 5043   3.999   2.707   6.776 -1.5510 -2.2161  0.1415
 1261SOL     vw 5044   3.952   2.761   6.725 -0.0460 -1.2033 -0.2487
 1262SOL     ow 5045   7.244   5.224   6.037  0.7510  0.1199 -0.7979
 1262SOL     hw 5046   7.293   5.254   5.960  1.2668 -0.2354 -0.6160
 1262SOL     hw 5047   7.300   5.247   6.111 -0.7464  2.5061 -0.3222
 1262SOL     vw 5048   7.258   5.231   6.036  0.6216  0.3881 -0.7112
 1263SOL     ow 5049   1.571   6.286   3.507 -0.5389  0.6747 -0.0540
 1263SOL     hw 5050   1.573   6.198   3.545 -1.7013  0.5119 -0.3250
 1263SOL     hw 5051   1.592   6.273   3.415 -1.7764  0.5178 -0.3324
 1263SOL     vw 5052   1.574   6.273   3.500 -0.8555  0.6323 -0.1264
 1264SOL     ow 5053   2.590   5.433   4.997  0.1217  0.5011 -0.1090
 1264SOL     hw 5054   2.613   5.413   5.088 -1.9304 -1.3586  0.0832
 1264SOL     hw 5055   2.617   5.524   4.986  1.7685  0.3517  1.8795
 1264SOL     vw 5056   2.597   5.442   5.008  0.0683  0.2358  0.1786
 1265SOL     ow 5057   0.369   2.187   6.889 -0.4470  0.1900  0.1893
 1265SOL     hw 5058   0.343   2.203   6.980 -0.3208 -1.7332  0.6031
 1265SOL     hw 5059   0.306   2.123   6.857 -0.8485  1.2816 -1.2962
 1265SOL     vw 5060   0.357   2.180   6.897 -0.4833  0.0802  0.0479
 1266SOL     ow 5061   5.100   4.274   6.388 -0.3522  0.6783  0.2167
 1266SOL     hw 5062   5.109   4.306   6.299 -1.0295 -3.1133 -1.4101
 1266SOL     hw 5063   5.190   4.254   6.415 -0.2280  0.9263 -0.0110
 1266SOL     vw 5064   5.113   4.276   6.380 -0.4253  0.2105 -0.0281
 1267SOL     ow 5065   2.345   3.412   3.691  0.1361 -0.0516  0.1409
 1267SOL     hw 5066   2.256   3.381   3.673 -0.1607  0.6299  0.4081
 1267SOL     hw 5067   2.397   3.332   3.701 -0.2216 -0.4581 -1.0891
 1267SOL     vw 5068   2.340   3.397   3.690  0.0498 -0.0154  0.0138
 1268SOL     ow 5069   2.665   5.422   0.282 -0.1511  0.3470 -0.1447
 1268SOL     hw 5070   2.725   5.484   0.241  1.2345 -1.1331 -0.4761
 1268SOL     hw 5071   2.643   5.360   0.212 -2.5551  1.1454 -0.1803
 1268SOL     vw 5072   2.670   5.422   0.268 -0.2855  0.2570 -0.1931
 1269SOL     ow 5073   4.101   6.069   0.050 -1.0689 -0.6445 -0.2360
 1269SOL     hw 5074   4.062   6.102  -0.031 -1.5227 -0.8457 -0.1037
 1269SOL     hw 5075   4.053   6.114   0.119 -0.7694 -0.5716 -0.0723
 1269SOL     vw 5076   4.090   6.080   0.048 -1.0893 -0.6616 -0.1970
 1270SOL     ow 5077   0.829   2.100   5.180  0.2239  0.3182 -0.5091
 1270SOL     hw 5078   0.880   2.020   5.166  0.4106  0.3165  0.1326
 1270SOL     hw 5079   0.826   2.111   5.276 -1.3569  0.0759 -0.4949
 1270SOL     vw 5080   0.835   2.091   5.191  0.0400  0.2861 -0.4227
 1271SOL     ow 5081   3.678   1.920   0.690 -0.3538 -0.0112  1.3135
 1271SOL     hw 5082   3.721   1.934   0.774 -1.6762 -0.7454  2.1501
 1271SOL     hw 5083   3.584   1.922   0.711 -0.7074 -2.1558  0.2105
 1271SOL     vw 5084   3.671   1.922   0.704 -0.5749 -0.3910  1.2783
 1272SOL     ow 5085   1.152   6.227   5.065  0.1027 -0.3211  0.3444
 1272SOL     hw 5086   1.166   6.186   5.150  3.6437 -1.8485 -0.8040
 1272SOL     hw 5087   1.062   6.204   5.041  0.3258 -3.2258  1.9355
 1272SOL     vw 5088   1.142   6.219   5.073  0.5993 -0.9055  0.4027
 1273SOL     ow 5089   1.662   0.329   2.532 -0.0222 -0.4136 -0.6042
 1273SOL     hw 5090   1.667   0.236   2.514 -2.1728 -0.9129  0.9558
 1273SOL     hw 5091   1.694   0.371   2.453 -1.6183 -2.4474 -2.4390
 1273SOL     vw 5092   1.667   0.323   2.519 -0.5166 -0.7478 -0.6404
 1274SOL     ow 5093   5.899   5.054   1.839 -0.1477 -0.1639  0.1938
 1274SOL     hw 5094   5.917   5.044   1.746 -0.7926  1.4904 -0.1553
 1274SOL     hw 5095   5.977   5.096   1.875 -0.5979  0.8911 -0.0011
 1274SOL     vw 5096   5.911   5.058   1.832 -0.2923  0.1936  0.1220
 1275SOL     ow 5097   3.608   4.121   7.211 -0.0408 -0.2670 -0.1118
 1275SOL     hw 5098   3.642   4.057   7.148 -0.1626  0.6456 -1.1498
 1275SOL     hw 5099   3.515   4.100   7.219  0.1415 -0.8920  0.3973
 1275SOL     vw 5100   3.600   4.110   7.204 -0.0329 -0.2289 -0.1814
 1276SOL     ow 5101   6.138   4.045   2.457 -0.2877 -0.1946 -0.7623
 1276SOL     hw 5102   6.075   4.071   2.525  1.1026  1.2327  0.0545
 1276SOL     hw 5103   6.206   3.997   2.505  1.6514  2.3912 -0.7405
 1276SOL     vw 5104   6.139   4.042   2.473  0.1514  0.3347 -0.6517
 1277SOL     ow 5105   7.058   3.564   5.533 -0.7532  0.2009 -0.4264
 1277SOL     hw 5106   7.004   3.608   5.598 -1.2894  1.2262 -1.5182
 1277SOL     hw 5107   7.147   3.568   5.567 -1.2730 -1.2393  1.2550
 1277SOL     vw 5108   7.063   3.570   5.546 -0.8926  0.1462 -0.3486
 1278SOL     ow 5109   5.979   2.107   6.600  0.1143  0.1902  0.6968
 1278SOL     hw 5110   5.983   2.011   6.595  0.3759  0.2787 -1.4890
 1278SOL     hw 5111   5.978   2.136   6.509 -2.0525  2.2134  1.2775
 1278SOL     vw 5112   5.980   2.098   6.587 -0.1371  0.4690  0.4849
 1279SOL     ow 5113   5.216   3.539   4.555 -0.8674  0.0329 -0.0467
 1279SOL     hw 5114   5.202   3.631   4.532 -1.2932 -0.3226 -1.2594
 1279SOL     hw 5115   5.285   3.510   4.496 -1.9204 -0.8778 -0.8564
 1279SOL     vw 5116   5.224   3.547   4.544 -1.0626 -0.1342 -0.3135
 1280SOL     ow 5117   2.828   5.702   6.083 -0.4098 -0.1258  0.0835
 1280SOL     hw 5118   2.856   5.610   6.081 -0.7422 -0.2800  1.4922
 1280SOL     hw 5119   2.891   5.745   6.141 -0.7329  0.3655  0.0739
 1280SOL     vw 5120   2.840   5.695   6.090 -0.4963 -0.0815  0.2680
 1281SOL     ow 5121   6.139   6.459   5.667  0.1702  0.2067  0.1902
 1281SOL     hw 5122   6.052   6.424   5.649 -0.8290  1.8909  1.4641
 1281SOL     hw 5123   6.174   6.481   5.581  0.2939 -2.5001 -0.5370
 1281SOL     vw 5124   6.132   6.457   5.653  0.0546  0.0715  0.2623
 1282SOL     ow 5125   0.993   0.790   4.808  0.7127  0.0573  0.1153
 1282SOL     hw 5126   0.897   0.788   4.805  0.6736 -0.6386  1.1669
 1282SOL     hw 5127   1.017   0.866   4.755 -0.4726  0.9050  0.7276
 1282SOL     vw 5128   0.983   0.800   4.801  0.5511  0.0773  0.3347
 1283SOL     ow 5129   5.455   6.111   0.257 -0.5247 -0.1414 -0.0431
 1283SOL     hw 5130   5.370   6.079   0.288  0.7585 -1.5933  2.2645
 1283SOL     hw 5131   5.504   6.127   0.337  1.9442 -0.8967 -1.3157
 1283SOL     vw 5132   5.450   6.109   0.272 -0.0296 -0.4325  0.0935
 1284SOL     ow 5133   1.391   4.629   1.869 -0.1060  0.5566  0.1329
 1284SOL     hw 5134   1.450   4.660   1.938  1.2142  0.2523 -0.8020
 1284SOL     hw 5135   1.354   4.708   1.831  0.4824  0.8197  0.0930
 1284SOL     vw 5136   1.394   4.643   1.873  0.1459  0.5515  0.0042
 1285SOL     ow 5137   3.767   2.798   6.958 -0.1434 -0.2897  0.1278
 1285SOL     hw 5138   3.743   2.705   6.967  0.6728 -0.3730  1.7185
 1285SOL     hw 5139   3.726   2.840   7.034 -2.2796  1.0801 -1.6662
 1285SOL     vw 5140   3.758   2.791   6.969 -0.3176 -0.1200  0.1009
 1286SOL     ow 5141   6.714   2.055   3.096 -0.5680 -0.3021 -0.4353
 1286SOL     hw 5142   6.652   2.007   3.042  0.8804 -0.5435 -1.9864
 1286SOL     hw 5143   6.787   2.075   3.037  0.7215  0.1840  1.2270
 1286SOL     vw 5144   6.716   2.051   3.081 -0.2069 -0.2697 -0.4206
 1287SOL     ow 5145   3.096   3.668   1.348 -0.3547 -0.3122 -0.3622
 1287SOL     hw 5146   3.171   3.655   1.290 -0.5843 -0.8615 -0.5433
 1287SOL     hw 5147   3.125   3.736   1.409  0.3250 -0.5850 -0.3689
 1287SOL     vw 5148   3.110   3.676   1.348 -0.2954 -0.4207 -0.3870
 1288SOL     ow 5149   2.499   0.577   5.196 -0.2291  0.1991  0.5947
 1288SOL     hw 5150   2.409   0.546   5.184  0.4567 -1.9846  0.6744
 1288SOL     hw 5151   2.490   0.671   5.212 -2.6118 -0.1753  1.9521
 1288SOL     vw 5152   2.486   0.586   5.196 -0.4530 -0.1384  0.7844
 1289SOL     ow 5153   6.415   5.518   1.262 -0.1279 -0.7515  0.1878
 1289SOL     hw 5154   6.450   5.429   1.255  0.3040 -0.7517  1.7673
 1289SOL     hw 5155   6.377   5.521   1.350  0.0598  0.6853  0.2367
 1289SOL     vw 5156   6.415   5.507   1.273 -0.0463 -0.5622  0.4027
 1290SOL     ow 5157   0.780   2.343   3.103 -0.0728  0.2257  0.7156
 1290SOL     hw 5158   0.792   2.265   3.157  2.4412  1.1376  1.6538
 1290SOL     hw 5159   0.736   2.405   3.159 -0.8980 -0.0744  0.4078
 1290SOL     vw 5160   0.776   2.341   3.117  0.1500  0.3062  0.7986
 1291SOL     ow 5161   1.251   5.142   0.417 -0.2852  0.4480 -0.0852
 1291SOL     hw 5162   1.231   5.069   0.359  0.0006 -0.6403  1.1182
 1291SOL     hw 5163   1.324   5.188   0.375 -0.3914 -0.0245 -0.7994
 1291SOL     vw 5164   1.258   5.138   0.404 -0.2615  0.2422 -0.0206
 1292SOL     ow 5165   6.579   3.976   4.701  0.3387 -0.4212 -0.1981
 1292SOL     hw 5166   6.674   3.974   4.708  0.4602 -2.5746 -1.5705
 1292SOL     hw 5167   6.548   3.946   4.786  0.9228 -0.6538 -0.0603
 1292SOL     vw 5168   6.587   3.972   4.713  0.4318 -0.7359 -0.3610
 1293SOL     ow 5169   6.473   7.258   1.923 -0.2833  0.5025 -0.1453
 1293SOL     hw 5170   6.456   7.177   1.971  0.6671  0.9596  1.0217
 1293SOL     hw 5171   6.510   7.317   1.989 -2.1847  2.3467 -0.6455
 1293SOL     vw 5172   6.476   7.255   1.938 -0.4089  0.8063 -0.0573
 1294SOL     ow 5173   2.442   4.757   5.019 -0.5445  0.3480 -0.2405
 1294SOL     hw 5174   2.480   4.800   4.943  1.6579  0.5118  0.8553
 1294SOL     hw 5175   2.414   4.828   5.076 -0.2928  0.2774 -0.0246
 1294SOL     vw 5176   2.444   4.772   5.017 -0.2205  0.3603 -0.0675
 1295SOL     ow 5177   6.969   2.836   7.124 -0.5032  0.6600  0.3697
 1295SOL     hw 5178   7.042   2.785   7.160  0.0259  1.7889  0.9696
 1295SOL     hw 5179   6.972   2.918   7.173 -0.6935  1.6662 -1.2410
 1295SOL     vw 5180   6.979   2.840   7.136 -0.4585  0.9416  0.2363
 1296SOL     ow 5181   6.029   4.050   2.146  0.1871  0.0851 -0.4058
 1296SOL     hw 5182   6.027   4.110   2.071 -0.1876 -1.5407 -1.7573
 1296SOL     hw 5183   5.938   4.026   2.160  0.3600 -0.3658 -0.0500
 1296SOL     vw 5184   6.017   4.055   2.138  0.1605 -0.1886 -0.5370
 1297SOL     ow 5185   1.227   4.610   7.230 -0.1902 -0.6894  0.5201
 1297SOL     hw 5186   1.242   4.538   7.291 -0.4544 -3.3616 -2.3114
 1297SOL     hw 5187   1.135   4.632   7.240  0.0577 -0.1967  1.9079
 1297SOL     vw 5188   1.217   4.603   7.240 -0.1923 -0.9773  0.3297
 1298SOL     ow 5189   7.242   0.228   6.638 -0.3100 -0.6012  0.7082
 1298SOL     hw 5190   7.165   0.231   6.581  0.8193  2.0944 -0.8658
 1298SOL     hw 5191   7.209   0.191   6.720 -2.7323 -1.6622 -0.6292
 1298SOL     vw 5192   7.228   0.224   6.641 -0.4809 -0.3856  0.3242
 1299SOL     ow 5193   6.186   6.987   5.823 -0.0802  0.2237 -0.1340
 1299SOL     hw 5194   6.228   6.932   5.889  0.3635 -1.5247 -1.7755
 1299SOL     hw 5195   6.244   7.064   5.816  1.1949 -0.7113 -0.2053
 1299SOL     vw 5196   6.199   6.990   5.831  0.1462 -0.1304 -0.3598
 1300SOL     ow 5197   4.156   5.268   4.890  0.5950 -0.2470  0.0006
 1300SOL     hw 5198   4.185   5.247   4.801 -0.1618 -1.0344 -0.0824
 1300SOL     hw 5199   4.227   5.319   4.928  1.9025 -1.7519 -0.3194
 1300SOL     vw 5200   4.169   5.272   4.883  0.6676 -0.5493 -0.0529
 1301SOL     ow 5201   5.494   0.538   6.294  0.2552  0.2198 -0.5629
 1301SOL     hw 5202   5.501   0.513   6.202  0.8276  1.2245 -0.8078
 1301SOL     hw 5203   5.461   0.628   6.292 -1.5701 -0.3711  0.2833
 1301SOL     vw 5204   5.490   0.547   6.282  0.0896  0.2744 -0.4835
 1302SOL     ow 5205   0.935   2.674   5.016  0.5146 -0.0073 -0.8067
 1302SOL     hw 5206   0.998   2.742   4.992  0.7222  0.4771  0.9890
 1302SOL     hw 5207   0.983   2.617   5.075 -0.4369 -0.2180 -0.2236
 1302SOL     vw 5208   0.949   2.675   5.020  0.4164  0.0288 -0.4928
 1303SOL     ow 5209   1.760   4.272   2.729 -0.0395  0.2362  0.1937
 1303SOL     hw 5210   1.741   4.349   2.783 -1.8474 -0.1133  0.1220
 1303SOL     hw 5211   1.842   4.294   2.684  1.5822  0.5119  3.0619
 1303SOL     vw 5212   1.769   4.285   2.730 -0.0640  0.2263  0.5627
 1304SOL     ow 5213   5.411   3.248   6.875 -0.5429 -0.4109 -0.7474
 1304SOL     hw 5214   5.409   3.339   6.905  1.4714 -0.3837 -0.5465
 1304SOL     hw 5215   5.466   3.251   6.796 -2.1303 -1.1710 -1.9244
 1304SOL     vw 5216   5.418   3.261   6.868 -0.4864 -0.5077 -0.8762
 1305SOL     ow 5217   0.924   2.817   2.733  0.6607  0.3236 -0.4377
 1305SOL     hw 5218   0.908   2.911   2.736 -0.3879  0.1185  1.5419
 1305SOL     hw 5219   0.942   2.792   2.824  3.6089 -0.9870 -1.2537
 1305SOL     vw 5220   0.925   2.826   2.745  0.9113  0.1236 -0.2842
 1306SOL     ow 5221   5.126   4.426   7.049 -0.5319  0.6178 -0.3665
 1306SOL     hw 5222   5.136   4.521   7.055 -0.1389  0.5500  0.0955
 1306SOL     hw 5223   5.154   4.405   6.960 -1.5663  1.0414 -0.8133
 1306SOL     vw 5224   5.131   4.436   7.038 -0.6163  0.6647 -0.3645
 1307SOL     ow 5225   0.325   3.190   6.537  0.2249  1.0914 -0.5953
 1307SOL     hw 5226   0.361   3.101   6.543  4.8297  2.7185 -0.4062
 1307SOL     hw 5227   0.332   3.213   6.445 -0.0650  1.5705 -0.5000
 1307SOL     vw 5228   0.331   3.181   6.526  0.7942  1.3694 -0.5577
 1308SOL     ow 5229   1.931   5.205   0.016  0.0198  0.9128 -0.5344
 1308SOL     hw 5230   1.996   5.209   0.086  0.4529 -2.4749 -0.5780
 1308SOL     hw 5231   1.847   5.209   0.061  0.2725 -2.3374  0.4687
 1308SOL     vw 5232   1.929   5.206   0.031  0.1102  0.0367 -0.4078
 1309SOL     ow 5233   2.894   3.940   6.921 -0.0867  0.1235  0.2763
 1309SOL     hw 5234   2.853   3.934   7.008 -1.9625  0.1803 -0.5552
 1309SOL     hw 5235   2.962   3.874   6.922 -0.1893  0.0047  1.7433
 1309SOL     vw 5236   2.897   3.931   6.933 -0.3477  0.1153  0.3603
 1310SOL     ow 5237   0.849   2.158   1.053 -0.3749  0.1632  0.5792
 1310SOL     hw 5238   0.902   2.231   1.021  1.6666 -1.5709 -0.1606
 1310SOL     hw 5239   0.819   2.113   0.974  0.0170 -0.9200  1.0243
 1310SOL     vw 5240   0.852   2.162   1.039 -0.0539 -0.2085  0.5403
 1311SOL     ow 5241   0.492   0.009   4.294  0.1380  0.4060 -0.3818
 1311SOL     hw 5242   0.431   0.066   4.249  1.3535  1.1078 -1.1761
 1311SOL     hw 5243   0.530   0.064   4.363  0.7641  0.3336 -0.6689
 1311SOL     vw 5244   0.489   0.024   4.297  0.3809  0.4890 -0.5243
 1312SOL     ow 5245   1.597   0.370   5.753  0.1234 -0.5220 -0.2505
 1312SOL     hw 5246   1.553   0.446   5.716 -0.9173 -0.4034  1.1562
 1312SOL     hw 5247   1.566   0.296   5.700  0.4438 -0.1000 -1.0433
 1312SOL     vw 5248   1.587   0.370   5.741  0.0284 -0.4507 -0.1695
 1313SOL     ow 5249   3.867   1.732   2.733  0.4416  0.0394 -0.5899
 1313SOL     hw 5250   3.800   1.742   2.666  0.5568  1.1981 -0.5620
 1313SOL     hw 5251   3.944   1.775   2.696  0.5329  0.6168  0.2331
 1313SOL     vw 5252   3.868   1.739   2.719  0.4689  0.2684 -0.4777
 1314SOL     ow 5253   6.401   4.834   0.560  0.1699 -0.1752  0.4707
 1314SOL     hw 5254   6.327   4.814   0.618 -0.9286  3.6042  0.6476
 1314SOL     hw 5255   6.465   4.876   0.617  1.3390 -1.0262 -0.1805
 1314SOL     vw 5256   6.399   4.837   0.575  0.1793  0.2110  0.4081
 1315SOL     ow 5257   6.988   5.134   1.123 -0.2287 -0.9788  0.4917
 1315SOL     hw 5258   7.012   5.150   1.215 -1.1477 -0.4715  0.6596
 1315SOL     hw 5259   7.060   5.082   1.088  1.9034  1.7453  0.5053
 1315SOL     vw 5260   7.000   5.129   1.131 -0.0689 -0.5524  0.5156
 1316SOL     ow 5261   3.691   5.900   0.763  0.5700  0.4039  0.5876
 1316SOL     hw 5262   3.690   5.986   0.721  0.2220  0.3226  0.4216
 1316SOL     hw 5263   3.783   5.880   0.775  0.8170 -0.6250 -2.3094
 1316SOL     vw 5264   3.703   5.909   0.759  0.5567  0.2575  0.1835
 1317SOL     ow 5265   2.771   5.193   4.593 -0.1335  0.4416 -0.2632
 1317SOL     hw 5266   2.709   5.213   4.523  1.8040 -1.5662 -2.7652
 1317SOL     hw 5267   2.787   5.099   4.585  1.7154  0.5231  1.5461
 1317SOL     vw 5268   2.765   5.183   4.582  0.3661  0.1874 -0.3545
 1318SOL     ow 5269   5.190   5.947   5.926  0.1304  0.8276  1.0391
 1318SOL     hw 5270   5.145   5.867   5.897 -0.3304  0.1750  3.3537
 1318SOL     hw 5271   5.119   6.008   5.947  0.4332  1.1043  1.2586
 1318SOL     vw 5272   5.174   5.944   5.925  0.1094  0.7780  1.3735
 1319SOL     ow 5273   2.019   5.919   4.607 -0.2195 -0.1805  0.2749
 1319SOL     hw 5274   2.054   5.888   4.524  1.3564 -1.5023  1.3686
 1319SOL     hw 5275   2.093   5.914   4.668 -1.8684 -1.5289  2.3146
 1319SOL     vw 5276   2.033   5.914   4.604 -0.2290 -0.5329  0.6883
 1320SOL     ow 5277   7.218   7.009   2.445 -0.2578  0.5678 -0.5142
 1320SOL     hw 5278   7.286   7.015   2.513 -0.1206 -1.9457 -0.3322
 1320SOL     hw 5279   7.148   7.066   2.476  1.6951  3.3035 -0.7228
 1320SOL     vw 5280   7.218   7.017   2.458  0.0181  0.5972 -0.5176
 1321SOL     ow 5281   1.309   2.445   4.062 -1.1046 -0.7884 -0.0222
 1321SOL     hw 5282   1.273   2.373   4.011 -2.1756 -1.9623  2.2400
 1321SOL     hw 5283   1.371   2.403   4.122  0.4543  0.5981 -0.5598
 1321SOL     vw 5284   1.313   2.430   4.063 -1.0403 -0.7603  0.2053
 1322SOL     ow 5285   3.402   6.370   2.692 -0.1073  0.5010 -0.2233
 1322SOL     hw 5286   3.451   6.341   2.769 -1.9604  0.7513  1.1243
 1322SOL     hw 5287   3.401   6.294   2.634  0.3115 -0.0918  0.5308
 1322SOL     vw 5288   3.409   6.356   2.694 -0.2965  0.4556  0.0539
 1323SOL     ow 5289   3.363   1.599   0.138 -0.0470  0.1015 -1.4277
 1323SOL     hw 5290   3.430   1.532   0.151  0.1613  0.2776 -1.5966
 1323SOL     hw 5291   3.316   1.601   0.222  1.6614  1.6358 -0.4385
 1323SOL     vw 5292   3.366   1.590   0.151  0.2059  0.3272 -1.3195
 1324SOL     ow 5293   1.699   4.932   1.341  0.2373 -0.2474 -0.3366
 1324SOL     hw 5294   1.657   4.992   1.402  1.7558 -0.5242  1.0678
 1324SOL     hw 5295   1.733   4.862   1.396  1.1860 -0.7967 -1.5693
 1324SOL     vw 5296   1.698   4.931   1.356  0.5629 -0.3564 -0.3139
 1325SOL     ow 5297   6.355   5.403   2.543 -0.1633  0.2304  0.6252
 1325SOL     hw 5298   6.318   5.442   2.622 -1.1838  0.9221 -0.1535
 1325SOL     hw 5299   6.307   5.320   2.533  1.7610 -1.1603  2.0889
 1325SOL     vw 5300   6.343   5.397   2.552 -0.0441  0.1383  0.7155
 1326SOL     ow 5301   4.496   3.700   2.496 -0.3638  0.0747 -0.0862
 1326SOL     hw 5302   4.528   3.734   2.412  1.4722 -0.0958  0.4834
 1326SOL     hw 5303   4.418   3.751   2.515 -1.0363 -0.1474 -2.0707
 1326SOL     vw 5304   4.490   3.711   2.487 -0.2103  0.0228 -0.2728
 1327SOL     ow 5305   5.350   1.961   3.820  0.6638  0.7163  0.0392
 1327SOL     hw 5306   5.423   2.023   3.824  1.2254  0.0789 -0.1444
 1327SOL     hw 5307   5.274   2.015   3.800  1.2408  1.2724 -0.7140
 1327SOL     vw 5308   5.350   1.976   3.818  0.8142  0.7055 -0.0844
 1328SOL     ow 5309   1.358   4.332   5.978  0.0299  0.0835  0.2481
 1328SOL     hw 5310   1.313   4.365   5.900  0.0649  1.0603  0.6270
 1328SOL     hw 5311   1.440   4.294   5.945 -0.7358 -1.0707 -0.3659
 1328SOL     vw 5312   1.363   4.331   5.964 -0.0665  0.0598  0.2172
 1329SOL     ow 5313   6.875   5.739   6.629  0.1860 -0.9532  0.5257
 1329SOL     hw 5314   6.948   5.712   6.574 -1.3561 -0.3743 -1.9377
 1329SOL     hw 5315   6.813   5.667   6.624  0.0426 -0.9169  1.5991
 1329SOL     vw 5316   6.876   5.726   6.621 -0.0362 -0.8721  0.3421
 1330SOL     ow 5317   4.902   3.443   2.764  0.3343  0.3087 -0.0104
 1330SOL     hw 5318   4.842   3.444   2.838  1.4315  0.0677  0.9156
 1330SOL     hw 5319   4.941   3.355   2.766 -2.3053 -1.1700 -3.1607
 1330SOL     vw 5320   4.900   3.431   2.774  0.1307  0.0818 -0.3037
 1331SOL     ow 5321   5.707   6.978   5.356 -0.3375  0.2996 -0.0780
 1331SOL     hw 5322   5.692   6.993   5.262  0.2123 -0.1444 -0.2434
 1331SOL     hw 5323   5.736   6.887   5.361 -2.1026 -0.2596  0.7206
 1331SOL     vw 5324   5.709   6.968   5.344 -0.4976  0.1674  0.0057
 1332SOL     ow 5325   5.227   1.564   0.955  0.3479 -0.5154 -0.6110
 1332SOL     hw 5326   5.147   1.574   0.905  0.5872 -0.7985 -1.0546
 1332SOL     hw 5327   5.287   1.517   0.897  0.6677 -0.7489 -0.1051
 1332SOL     vw 5328   5.224   1.559   0.941  0.4218 -0.5835 -0.6028
 1333SOL     ow 5329   6.936   1.604   6.680  0.4894  0.0401  0.1337
 1333SOL     hw 5330   6.963   1.565   6.597  0.0466  0.2749 -0.1231
 1333SOL     hw 5331   6.981   1.689   6.682 -2.2338  1.6494 -1.5504
 1333SOL     vw 5332   6.946   1.610   6.670  0.0718  0.2834 -0.1223
 1334SOL     ow 5333   4.455   4.399   5.233  0.3863 -0.1654  0.4812
 1334SOL     hw 5334   4.372   4.350   5.231  0.8428 -1.0020  1.4219
 1334SOL     hw 5335   4.470   4.416   5.326  0.0222  2.1953  0.1592
 1334SOL     vw 5336   4.446   4.395   5.245  0.3986  0.0358  0.5627
 1335SOL     ow 5337   4.466   2.632   4.272 -0.3635 -0.1191  0.2867
 1335SOL     hw 5338   4.510   2.702   4.224  2.1062  1.5705  4.5026
 1335SOL     hw 5339   4.533   2.596   4.329 -2.3994 -3.8310  0.6231
 1335SOL     vw 5340   4.480   2.637   4.273 -0.3066 -0.3860  0.8872
 1336SOL     ow 5341   6.739   0.724   7.081 -0.0089  0.0906 -0.1711
 1336SOL     hw 5342   6.662   0.691   7.125  0.0772 -0.5498 -0.4871
 1336SOL     hw 5343   6.812   0.699   7.138 -0.0344  0.7801  0.1761
 1336SOL     vw 5344   6.739   0.717   7.094 -0.0010  0.0971 -0.1671
 1337SOL     ow 5345   6.152   6.547   1.817  0.2335 -0.3509 -0.5553
 1337SOL     hw 5346   6.132   6.630   1.775  0.9221  0.3654  0.4716
 1337SOL     hw 5347   6.187   6.571   1.903  2.3324 -1.5946 -0.9796
 1337SOL     vw 5348   6.154   6.561   1.823  0.6013 -0.4206 -0.4758
 1338SOL     ow 5349   1.793   0.728   5.414  0.8453 -0.4814 -0.4129
 1338SOL     hw 5350   1.760   0.800   5.361  0.6139  0.5298  1.0339
 1338SOL     hw 5351   1.728   0.659   5.404 -0.0178  0.2849 -0.1813
 1338SOL     vw 5352   1.780   0.728   5.406  0.7008 -0.2469 -0.1912
 1339SOL     ow 5353   5.122   4.844   3.600  0.7347  0.5551 -0.9868
 1339SOL     hw 5354   5.120   4.912   3.533  1.8480  1.3306 -0.2707
 1339SOL     hw 5355   5.188   4.874   3.662 -1.2391  0.5938  1.2408
 1339SOL     vw 5356   5.131   4.857   3.599  0.6213  0.6626 -0.5985
 1340SOL     ow 5357   1.131   4.273   6.201 -0.7102 -0.6754 -0.0845
 1340SOL     hw 5358   1.138   4.325   6.282  1.5818 -2.3304  0.8857
 1340SOL     hw 5359   1.076   4.198   6.225 -1.5254 -0.2708 -0.6269
 1340SOL     vw 5360   1.124   4.270   6.215 -0.5154 -0.8402 -0.0281
 1341SOL     ow 5361   6.117   0.651   2.767 -0.3116  0.1659 -0.2606
 1341SOL     hw 5362   6.165   0.720   2.721  0.3244 -0.8157 -1.1266
 1341SOL     hw 5363   6.157   0.570   2.736 -0.6009 -0.5771  1.2350
 1341SOL     vw 5364   6.128   0.650   2.757 -0.2658 -0.0616 -0.1776
 1342SOL     ow 5365   2.708   7.296   1.727  0.3576  0.4590 -0.1253
 1342SOL     hw 5366   2.720   7.296   1.632  1.5034  1.3559  0.0113
 1342SOL     hw 5367   2.796   7.284   1.763 -0.0387  0.3231  0.8379
 1342SOL     vw 5368   2.721   7.294   1.720  0.4566  0.5596  0.0198
 1343SOL     ow 5369   0.310   6.207   4.887  0.4811 -0.7162 -0.5716
 1343SOL     hw 5370   0.325   6.196   4.981  1.0162 -1.5672 -0.7446
 1343SOL     hw 5371   0.354   6.289   4.865  2.9643 -1.9792 -0.6200
 1343SOL     vw 5372   0.318   6.216   4.897  0.8793 -0.9952 -0.6008
 1344SOL     ow 5373   1.316   5.844   5.270 -0.3182 -0.5672 -0.0549
 1344SOL     hw 5374   1.408   5.834   5.295  0.1996 -2.4609 -2.3879
 1344SOL     hw 5375   1.270   5.776   5.319 -0.2382 -0.5829 -0.0013
 1344SOL     vw 5376   1.323   5.834   5.280 -0.2394 -0.8190 -0.3557
 1345SOL     ow 5377   4.549   6.943   3.019  0.0243 -0.3751  0.3061
 1345SOL     hw 5378   4.582   7.004   3.085  1.9083 -2.0862  1.0287
 1345SOL     hw 5379   4.610   6.953   2.946 -1.1740  0.4167 -0.6268
 1345SOL     vw 5380   4.561   6.952   3.018  0.1149 -0.4961  0.2781
 1346SOL     ow 5381   4.736   2.301   7.103  0.7285 -0.0317 -0.1983
 1346SOL     hw 5382   4.831   2.312   7.102  0.6259  0.9008 -0.7040
 1346SOL     hw 5383   4.702   2.381   7.063 -0.5229  2.2604  4.6142
 1346SOL     vw 5384   4.744   2.313   7.098  0.5498  0.3937  0.3698
 1347SOL     ow 5385   7.095   3.328   6.472  0.0258  0.4940 -0.1512
 1347SOL     hw 5386   7.106   3.235   6.493  4.1437  0.4636 -1.4688
 1347SOL     hw 5387   7.015   3.331   6.420 -1.9364 -1.7209  2.4424
 1347SOL     vw 5388   7.086   3.316   6.468  0.3099  0.1976  0.0172
 1348SOL     ow 5389   3.255   3.144   7.289  0.5502 -0.1237 -0.2641
 1348SOL     hw 5390   3.275   3.074   7.352  2.2927  0.2195 -0.4047
 1348SOL     hw 5391   3.228   3.218   7.343  0.1030 -0.4385 -0.0451
 1348SOL     vw 5392   3.254   3.145   7.305  0.7210 -0.1199 -0.2537
 1349SOL     ow 5393   6.623   1.693   5.002 -0.0267  0.1876 -0.7508
 1349SOL     hw 5394   6.608   1.747   4.924  1.8025 -0.9649 -1.9864
 1349SOL     hw 5395   6.559   1.724   5.065 -1.5905  1.1899 -2.7022
 1349SOL     vw 5396   6.613   1.704   5.000  0.0083  0.1678 -1.1714
 1350SOL     ow 5397   0.452   1.929   2.325 -0.3628 -0.2747  0.2387
 1350SOL     hw 5398   0.389   1.975   2.269 -0.9551 -1.8730 -0.4393
 1350SOL     hw 5399   0.401   1.900   2.401 -0.6085 -2.0175 -0.5523
 1350SOL     vw 5400   0.437   1.932   2.328 -0.4733 -0.7156  0.0448
 1351SOL     ow 5401   5.882   2.960   3.029 -0.1847 -0.2148  0.8227
 1351SOL     hw 5402   5.841   2.874   3.024  1.0056 -0.8193  1.1768
 1351SOL     hw 5403   5.962   2.946   3.079 -0.3705  1.2524  1.5882
 1351SOL     vw 5404   5.887   2.947   3.035 -0.0522 -0.1011  0.9704
 1352SOL     ow 5405   1.748   6.902   1.831  0.6096  0.2056  0.0921
 1352SOL     hw 5406   1.815   6.854   1.880  0.2111 -0.4741 -0.0185
 1352SOL     hw 5407   1.685   6.930   1.898 -0.3406 -1.3851 -0.0854
 1352SOL     vw 5408   1.749   6.899   1.846  0.4317 -0.0942  0.0540
 1353SOL     ow 5409   1.478   4.253   2.752 -0.2651 -0.3392 -0.2235
 1353SOL     hw 5410   1.412   4.317   2.725  0.4371  0.3337 -0.3508
 1353SOL     hw 5411   1.523   4.294   2.826 -0.1270 -0.8887  0.0026
 1353SOL     vw 5412   1.475   4.267   2.759 -0.1543 -0.3231 -0.2104
 1354SOL     ow 5413   2.300   2.053   2.539 -0.1266  0.8667  0.0387
 1354SOL     hw 5414   2.234   2.062   2.608 -1.3913  1.3129 -1.2017
 1354SOL     hw 5415   2.312   1.958   2.531  0.7285  0.8185  1.4788
 1354SOL     vw 5416   2.293   2.041   2.547 -0.1807  0.9191  0.0651
 1355SOL     ow 5417   7.258   2.338   4.109 -0.0171  0.3366  0.5734
 1355SOL     hw 5418   7.219   2.426   4.107  0.2308  0.4364 -0.9790
 1355SOL     hw 5419   7.351   2.353   4.095  0.0651 -0.1653  0.5755
 1355SOL     vw 5420   7.265   2.352   4.107  0.0265  0.2836  0.3688
 1356SOL     ow 5421   6.089   5.526   5.570 -1.1105  0.2747  0.0621
 1356SOL     hw 5422   6.043   5.446   5.545 -1.6488  0.7972 -0.6481
 1356SOL     hw 5423   6.063   5.542   5.661 -2.5792  0.7134 -0.4030
 1356SOL     vw 5424   6.080   5.518   5.579 -1.3754  0.4015 -0.0930
 1357SOL     ow 5425   6.856   3.909   4.716 -0.0453 -0.4696 -0.7911
 1357SOL     hw 5426   6.923   3.971   4.744 -0.3345 -0.5069  0.0105
 1357SOL     hw 5427   6.870   3.832   4.770 -2.2623  0.4093  1.2055
 1357SOL     vw 5428   6.866   3.907   4.727 -0.3757 -0.3586 -0.4220
 1358SOL     ow 5429   4.842   0.052   3.738 -0.1578  0.9140  0.4208
 1358SOL     hw 5430   4.796   0.073   3.820  1.8759  0.4271  1.7840
 1358SOL     hw 5431   4.811  -0.035   3.714  0.3977  0.3575  1.6231
 1358SOL     vw 5432   4.832   0.043   3.746  0.1836  0.7763  0.7594
 1359SOL     ow 5433   0.813   4.475   1.293  0.2651 -0.7472 -0.2682
 1359SOL     hw 5434   0.900   4.513   1.277 -0.1602 -0.1623 -1.2619
 1359SOL     hw 5435   0.766   4.544   1.340  0.1577 -0.8531 -0.2218
 1359SOL     vw 5436   0.818   4.489   1.297  0.1948 -0.6840 -0.3932
 1360SOL     ow 5437   6.138   6.750   4.120  0.5317 -0.1908 -0.1160
 1360SOL     hw 5438   6.186   6.746   4.037 -3.1419 -1.0655 -2.4399
 1360SOL     hw 5439   6.101   6.839   4.122 -0.1667 -0.4739  0.0691
 1360SOL     vw 5440   6.139   6.761   4.109 -0.0453 -0.3436 -0.3984
 1361SOL     ow 5441   0.439   4.529   3.391 -0.9405  0.1693  0.9477
 1361SOL     hw 5442   0.488   4.592   3.337 -0.4450 -2.2545 -1.6399
 1361SOL     hw 5443   0.473   4.542   3.479  0.3217  2.3443  0.2255
 1361SOL     vw 5444   0.450   4.539   3.396 -0.7086  0.1366  0.5109
 1362SOL     ow 5445   6.160   4.172   1.336 -0.6608 -0.3396  0.2520
 1362SOL     hw 5446   6.163   4.200   1.245  0.0224  1.1948  0.7129
 1362SOL     hw 5447   6.127   4.249   1.384 -3.4933 -1.8837  1.0382
 1362SOL     vw 5448   6.156   4.186   1.331 -0.9444 -0.3409  0.4166
 1363SOL     ow 5449   6.677   3.122   6.863  0.1852  0.3123  0.5189
 1363SOL     hw 5450   6.667   3.093   6.953 -1.2157  0.1923  0.3536
 1363SOL     hw 5451   6.619   3.198   6.856 -2.0730 -1.3970 -0.9974
 1363SOL     vw 5452   6.668   3.128   6.874 -0.2975  0.0710  0.2973
 1364SOL     ow 5453   2.157   6.458   3.667 -0.3830  0.3544 -0.8498
 1364SOL     hw 5454   2.116   6.373   3.653  0.7853 -0.6283  1.2590
 1364SOL     hw 5455   2.157   6.470   3.762 -1.3753  3.1953 -1.1021
 1364SOL     vw 5456   2.152   6.448   3.677 -0.3598  0.5996 -0.6050
 1365SOL     ow 5457   6.378   2.218   3.566 -0.0251  0.0672  0.2248
 1365SOL     hw 5458   6.369   2.286   3.499  2.4862  0.0103 -0.2803
 1365SOL     hw 5459   6.322   2.248   3.638 -1.9975  0.6456 -1.4539
 1365SOL     vw 5460   6.369   2.231   3.567  0.0463  0.1360 -0.0633
 1366SOL     ow 5461   6.993   1.637   4.540 -0.0174 -0.0669 -0.4571
 1366SOL     hw 5462   6.909   1.667   4.575 -0.2418 -1.1726 -0.0207
 1366SOL     hw 5463   6.983   1.542   4.531 -0.4815  0.1659 -4.7719
 1366SOL     vw 5464   6.981   1.629   4.543 -0.1080 -0.1821 -0.9685
 1367SOL     ow 5465   6.243   5.651   1.113 -0.3191 -0.3528 -0.4450
 1367SOL     hw 5466   6.281   5.733   1.083 -0.8231  0.4877  1.0984
 1367SOL     hw 5467   6.303   5.619   1.180 -0.2374 -1.1408 -0.8814
 1367SOL     vw 5468   6.256   5.657   1.118 -0.3748 -0.3459 -0.2989
 1368SOL     ow 5469   5.267   5.286   0.310  0.5359 -0.2049  0.0804
 1368SOL     hw 5470   5.217   5.330   0.242  0.5139 -0.1406  0.1380
 1368SOL     hw 5471   5.225   5.312   0.392  0.3005 -0.6165  0.0942
 1368SOL     vw 5472   5.255   5.295   0.312  0.5021 -0.2511  0.0898
 1369SOL     ow 5473   4.175   7.194   6.908  0.4372  0.0399  0.0287
 1369SOL     hw 5474   4.136   7.126   6.853  0.9041 -0.7628  0.6598
 1369SOL     hw 5475   4.115   7.201   6.982  0.3291  0.4015 -0.0932
 1369SOL     vw 5476   4.162   7.186   6.911  0.4845 -0.0181  0.0958
 1370SOL     ow 5477   2.211   2.662   0.883  0.0027 -0.5830  0.2959
 1370SOL     hw 5478   2.202   2.570   0.856  0.7952 -0.9545  1.2259
 1370SOL     hw 5479   2.121   2.690   0.903 -0.2664 -1.1029 -0.1653
 1370SOL     vw 5480   2.198   2.653   0.882  0.0716 -0.7006  0.3577
 1371SOL     ow 5481   0.088   4.530   1.378 -0.1962 -0.4383  0.3462
 1371SOL     hw 5482   0.129   4.526   1.465  0.9976 -2.2879 -0.2372
 1371SOL     hw 5483   0.158   4.507   1.317  0.6801  6.0199 -1.8939
 1371SOL     vw 5484   0.103   4.527   1.382  0.0772  0.1698 -0.0262
 1372SOL     ow 5485   1.906   1.354   6.474  0.6061 -0.1730  0.1914
 1372SOL     hw 5486   1.947   1.280   6.430 -1.3093 -0.0371 -2.0451
 1372SOL     hw 5487   1.946   1.431   6.434 -0.4881 -0.0481 -0.7177
 1372SOL     vw 5488   1.916   1.355   6.463  0.2090 -0.1385 -0.2236
 1373SOL     ow 5489   2.529   7.241   5.437 -0.0235  0.1779  0.6730
 1373SOL     hw 5490   2.461   7.183   5.403  0.0753  0.5504 -0.1764
 1373SOL     hw 5491   2.586   7.259   5.363  0.5679  0.4948  1.1879
 1373SOL     vw 5492   2.527   7.236   5.423  0.0676  0.2687  0.6287
 1374SOL     ow 5493   6.489   6.101   5.043 -0.6525  0.2185  0.9365
 1374SOL     hw 5494   6.558   6.121   5.106  0.4245 -0.5348  0.0550
 1374SOL     hw 5495   6.514   6.148   4.964  0.2432 -1.9355 -0.1692
 1374SOL     vw 5496   6.501   6.110   5.041 -0.3924 -0.1652  0.6742
 1375SOL     ow 5497   2.595   3.032   3.148  0.1823 -0.1969 -0.0760
 1375SOL     hw 5498   2.681   3.021   3.108 -0.8928  1.2949 -3.1483
 1375SOL     hw 5499   2.536   2.979   3.093 -1.1356  0.3073  0.7991
 1375SOL     vw 5500   2.598   3.023   3.136 -0.1335  0.0664 -0.3660
 1376SOL     ow 5501   0.138   4.632   2.262  0.1074  0.9502  0.1847
 1376SOL     hw 5502   0.158   4.645   2.169 -0.0879 -0.3304 -0.0507
 1376SOL     hw 5503   0.151   4.719   2.301 -0.0202  1.5660 -1.0683
 1376SOL     vw 5504   0.142   4.645   2.255  0.0648  0.8624 -0.0117
 1377SOL     ow 5505   7.077   2.704   0.688 -0.6711  0.0555 -0.3489
 1377SOL     hw 5506   7.151   2.661   0.730 -0.8397  0.5547  0.4938
 1377SOL     hw 5507   7.107   2.794   0.673 -0.4770 -0.2171 -1.6818
 1377SOL     vw 5508   7.091   2.711   0.692 -0.6678  0.0855 -0.4136
 1378SOL     ow 5509   3.512   0.839   1.844 -0.2710  0.4152  0.5261
 1378SOL     hw 5510   3.538   0.921   1.885  1.1296 -0.3151  1.2062
 1378SOL     hw 5511   3.590   0.812   1.794 -1.4640  0.5835 -1.5264
 1378SOL     vw 5512   3.526   0.846   1.843 -0.2435  0.3411  0.3449
 1379SOL     ow 5513   2.394   2.712   4.332 -0.1670 -0.5575  0.0528
 1379SOL     hw 5514   2.371   2.805   4.344 -1.1276 -0.8986  0.9632
 1379SOL     hw 5515   2.311   2.668   4.319  0.3991 -1.0950 -2.1434
 1379SOL     vw 5516   2.380   2.719   4.332 -0.2191 -0.6733 -0.1168
 1380SOL     ow 5517   4.925   2.395   4.770  0.1652  0.6000 -0.1333
 1380SOL     hw 5518   4.901   2.353   4.853  2.0947 -1.6628 -0.6057
 1380SOL     hw 5519   4.908   2.328   4.704  1.4020  1.2875 -1.1945
 1380SOL     vw 5520   4.920   2.380   4.772  0.5829  0.3922 -0.3357
 1381SOL     ow 5521   5.174   3.805   2.821 -0.1123  0.5287  0.4703
 1381SOL     hw 5522   5.179   3.889   2.777 -0.9832  0.5560  0.4102
 1381SOL     hw 5523   5.131   3.747   2.758 -0.2581  0.2551  0.8173
 1381SOL     vw 5524   5.169   3.808   2.807 -0.2468  0.4963  0.5081
 1382SOL     ow 5525   0.172   3.024   1.792  0.6666  0.2496  0.1378
 1382SOL     hw 5526   0.191   3.108   1.834  4.2399 -0.4516  0.2423
 1382SOL     hw 5527   0.177   3.042   1.698 -0.4175  0.4638  0.1069
 1382SOL     vw 5528   0.175   3.037   1.785  0.9950  0.1855  0.1476
 1383SOL     ow 5529   4.678   0.496   6.115 -0.1853  0.5244 -0.3218
 1383SOL     hw 5530   4.771   0.511   6.135  0.1219 -0.0445 -1.2557
 1383SOL     hw 5531   4.635   0.496   6.200  0.7038  0.5551  0.1442
 1383SOL     vw 5532   4.685   0.498   6.129 -0.0277  0.4534 -0.3836
 1384SOL     ow 5533   4.036   0.293   0.795  0.4612 -0.4321 -0.2543
 1384SOL     hw 5534   4.095   0.325   0.726 -0.1527 -2.6374 -1.9501
 1384SOL     hw 5535   3.949   0.317   0.765  0.2727 -0.1667  0.4960
 1384SOL     vw 5536   4.033   0.300   0.782  0.3550 -0.6880 -0.3790
 1385SOL     ow 5537   3.159   1.230   3.453 -0.2077 -0.1186 -0.5567
 1385SOL     hw 5538   3.205   1.164   3.503  1.0312 -0.1397 -1.6731
 1385SOL     hw 5539   3.227   1.276   3.404 -1.2469  0.6119 -1.3834
 1385SOL     vw 5540   3.174   1.227   3.453 -0.1814 -0.0249 -0.8131
 1386SOL     ow 5541   0.215   0.911   4.760  0.4232 -0.3641  0.3333
 1386SOL     hw 5542   0.223   0.918   4.664 -1.1407  0.5596  0.2305
 1386SOL     hw 5543   0.282   0.970   4.794 -0.9315  1.6806 -0.3047
 1386SOL     vw 5544   0.225   0.920   4.752  0.0382  0.0275  0.2358
 1387SOL     ow 5545   4.462   6.932   5.222 -0.6096 -0.1881  0.0094
 1387SOL     hw 5546   4.417   7.005   5.181 -0.0567  0.0483 -0.1840
 1387SOL     hw 5547   4.493   6.967   5.306 -0.8893 -0.3834  0.1947
 1387SOL     vw 5548   4.460   6.946   5.228 -0.5736 -0.1829  0.0083
 1388SOL     ow 5549   0.189   2.965   0.369 -0.2270 -0.2087  0.2336
 1388SOL     hw 5550   0.168   3.033   0.433  1.4850  1.0188 -0.4534
 1388SOL     hw 5551   0.133   2.984   0.294 -0.7661 -0.4301  0.5719
 1388SOL     vw 5552   0.179   2.976   0.367 -0.0723 -0.0759  0.1875
 1389SOL     ow 5553   6.774   6.704   0.992  0.6612 -0.1097  0.4071
 1389SOL     hw 5554   6.856   6.690   1.039  1.2101 -0.1375 -0.5375
 1389SOL     hw 5555   6.780   6.794   0.960  1.8399 -1.1102 -2.4780
 1389SOL     vw 5556   6.785   6.714   0.994  0.8891 -0.2453 -0.0982
 1390SOL     ow 5557   6.629   4.370   3.031 -0.0573  1.0054  0.0378
 1390SOL     hw 5558   6.678   4.438   2.986 -1.5789  0.9425 -1.8535
 1390SOL     hw 5559   6.646   4.290   2.981 -2.5050  1.1050 -1.0987
 1390SOL     vw 5560   6.637   4.368   3.019 -0.5810  1.0104 -0.3617
 1391SOL     ow 5561   3.458   6.607   2.604 -0.5984 -0.0954 -0.2476
 1391SOL     hw 5562   3.475   6.611   2.510 -0.3329 -1.8402 -0.3029
 1391SOL     hw 5563   3.432   6.516   2.620 -1.5382  0.3938  1.2264
 1391SOL     vw 5564   3.457   6.596   2.594 -0.6874 -0.2611 -0.0603
 1392SOL     ow 5565   5.454   2.331   2.787 -0.3910 -0.0287  0.6659
 1392SOL     hw 5566   5.372   2.377   2.804  0.0636  1.5918 -1.1927
 1392SOL     hw 5567   5.474   2.351   2.695  1.0225 -2.1046  0.4664
 1392SOL     vw 5568   5.446   2.340   2.777 -0.1447 -0.0888  0.3942
 1393SOL     ow 5569   5.320   1.441   4.936  0.0521  0.1005  0.4778
 1393SOL     hw 5570   5.245   1.466   4.989  0.3172  0.7039  0.5785
 1393SOL     hw 5571   5.349   1.523   4.894  0.3617 -0.2100  0.0704
 1393SOL     vw 5572   5.314   1.455   4.937  0.1283  0.1391  0.4375
 1394SOL     ow 5573   1.030   4.619   1.188  0.4572  0.1007 -0.1048
 1394SOL     hw 5574   1.004   4.708   1.213  0.7103 -0.4337  2.2499
 1394SOL     hw 5575   0.966   4.595   1.121 -0.4279  1.5757  0.1419
 1394SOL     vw 5576   1.018   4.628   1.183  0.3738  0.2248  0.2385
 1395SOL     ow 5577   2.693   5.970   3.189  0.0882 -0.2583 -0.0896
 1395SOL     hw 5578   2.682   5.875   3.190 -0.8371 -0.2356 -2.2414
 1395SOL     hw 5579   2.750   5.989   3.264 -1.6258 -2.2277  1.8234
 1395SOL     vw 5580   2.699   5.960   3.199 -0.2601 -0.5150 -0.1212
 1396SOL     ow 5581   7.004   2.259   4.115  0.1100  0.3096 -0.2972
 1396SOL     hw 5582   7.011   2.175   4.070 -0.0572  0.2823 -0.2749
 1396SOL     hw 5583   7.093   2.293   4.118 -0.2687  1.9620 -3.7092
 1396SOL     vw 5584   7.016   2.252   4.110  0.0379  0.5239 -0.7448
 1397SOL     ow 5585   6.769   4.834   0.392 -0.4452 -0.4981  0.1358
 1397SOL     hw 5586   6.685   4.875   0.414 -0.2670  2.4580 -3.6083
 1397SOL     hw 5587   6.745   4.753   0.348 -1.5038  0.5370 -1.3126
 1397SOL     vw 5588   6.755   4.829   0.389 -0.5615  0.0284 -0.5492
 1398SOL     ow 5589   5.780   3.297   4.120 -0.2353  0.4618  0.5275
 1398SOL     hw 5590   5.693   3.288   4.081 -0.6237 -1.8581  1.7801
 1398SOL     hw 5591   5.783   3.231   4.189  2.2448  1.0299  1.0742
 1398SOL     vw 5592   5.769   3.287   4.124  0.0405  0.2307  0.7648
 1399SOL     ow 5593   5.162   4.617   3.412  0.2787 -0.1269 -0.0908
 1399SOL     hw 5594   5.195   4.534   3.447  0.3454 -0.3663 -0.7114
 1399SOL     hw 5595   5.138   4.668   3.489 -1.0701 -1.2455  0.2607
 1399SOL     vw 5596   5.164   4.613   3.427  0.1097 -0.3059 -0.1262
 1400SOL     ow 5597   5.986   2.199   6.365 -0.1171 -0.3929  0.2858
 1400SOL     hw 5598   5.896   2.220   6.339 -0.4080  0.1896  1.6850
 1400SOL     hw 5599   6.011   2.128   6.307 -1.1858 -0.0179 -0.6859
 1400SOL     vw 5600   5.977   2.193   6.354 -0.2964 -0.2666  0.3421
 1401SOL     ow 5601   6.454   4.140   5.550  0.0094 -0.5649  0.4862
 1401SOL     hw 5602   6.528   4.168   5.604  0.3123  0.6989 -0.5409
 1401SOL     hw 5603   6.491   4.126   5.463 -0.9959  0.5694 -0.1723
 1401SOL     vw 5604   6.469   4.142   5.546 -0.0832 -0.2487  0.2637
 1402SOL     ow 5605   5.612   1.789   3.074  0.4885  0.4931  0.6913
 1402SOL     hw 5606   5.580   1.768   3.162  0.1528 -1.1358  0.2100
 1402SOL     hw 5607   5.628   1.704   3.033  2.0043  1.2288 -0.3553
 1402SOL     vw 5608   5.610   1.775   3.080  0.6444  0.3753  0.4895
 1403SOL     ow 5609   6.392   6.547   0.666  0.3813 -0.5035 -0.4972
 1403SOL     hw 5610   6.396   6.469   0.610  0.5196  0.4289 -1.8590
 1403SOL     hw 5611   6.473   6.543   0.718  0.6511 -0.9894 -0.9347
 1403SOL     vw 5612   6.403   6.536   0.665  0.4354 -0.4447 -0.7346
 1404SOL     ow 5613   3.375   3.669   4.550  0.4214  0.2586 -0.2109
 1404SOL     hw 5614   3.366   3.760   4.577  1.1013  0.4839 -0.6921
 1404SOL     hw 5615   3.296   3.651   4.499 -0.5855  0.0026  1.3954
 1404SOL     vw 5616   3.363   3.679   4.547  0.3781  0.2548 -0.0625
 1405SOL     ow 5617   3.047   5.113   2.455 -0.5808 -0.2066  0.4005
 1405SOL     hw 5618   2.954   5.135   2.453 -0.5095  0.0101 -0.7800
 1405SOL     hw 5619   3.050   5.028   2.499 -1.0991  0.8134  2.5953
 1405SOL     vw 5620   3.035   5.105   2.461 -0.6397 -0.0434  0.5343
 1406SOL     ow 5621   6.713   2.673   2.603  0.5298 -0.3203 -0.1793
 1406SOL     hw 5622   6.652   2.679   2.530 -0.1725 -1.3664  0.2885
 1406SOL     hw 5623   6.705   2.757   2.649  1.7631  0.7723 -1.8610
 1406SOL     vw 5624   6.704   2.684   2.600  0.6001 -0.3142 -0.3394
 1407SOL     ow 5625   6.996   6.102   0.447  0.1389 -0.3884 -0.2025
 1407SOL     hw 5626   6.933   6.114   0.376  1.4924 -0.6607 -1.4692
 1407SOL     hw 5627   6.941   6.090   0.525 -1.3642  0.2242 -1.1236
 1407SOL     vw 5628   6.980   6.102   0.448  0.1192 -0.3436 -0.4912
 1408SOL     ow 5629   4.951   0.519   6.182 -0.6772 -0.7335 -0.7591
 1408SOL     hw 5630   5.009   0.594   6.168  0.3812 -0.9817  1.7842
 1408SOL     hw 5631   5.009   0.443   6.179 -1.5504 -1.3918 -2.0783
 1408SOL     vw 5632   4.966   0.519   6.179 -0.6528 -0.8531 -0.5977
 1409SOL     ow 5633   2.961   6.465   5.135 -0.5866  0.2195 -0.2459
 1409SOL     hw 5634   2.887   6.426   5.182 -0.7873  1.6929  0.7081
 1409SOL     hw 5635   2.947   6.439   5.044 -1.5482 -0.6281  0.1217
 1409SOL     vw 5636   2.949   6.456   5.129 -0.7399  0.3021 -0.0715
 1410SOL     ow 5637   0.814   5.661   4.341 -0.0982  0.3523 -0.0122
 1410SOL     hw 5638   0.790   5.647   4.249 -1.4099 -3.3136  0.7169
 1410SOL     hw 5639   0.908   5.641   4.344  0.0354  0.8546 -0.5807
 1410SOL     vw 5640   0.823   5.656   4.329 -0.2537 -0.0653  0.0088
 1411SOL     ow 5641   2.071   0.991   0.707 -0.4358  0.1098  0.6060
 1411SOL     hw 5642   2.146   1.050   0.707  0.1619 -0.6045  2.0473
 1411SOL     hw 5643   2.106   0.907   0.677 -1.2253  0.3665 -1.1774
 1411SOL     vw 5644   2.085   0.988   0.703 -0.4612  0.0494  0.5608
 1412SOL     ow 5645   6.991   0.818   5.430 -0.7026 -0.0000 -0.1609
 1412SOL     hw 5646   7.050   0.884   5.393 -1.1845  0.5213 -0.0188
 1412SOL     hw 5647   7.038   0.784   5.506 -1.1644  1.4558  0.8208
 1412SOL     vw 5648   7.005   0.822   5.435 -0.8271  0.2608 -0.0129
 1413SOL     ow 5649   6.129   4.600   0.488 -0.0064 -0.3690 -0.5500
 1413SOL     hw 5650   6.080   4.600   0.571 -0.0412 -1.8942 -0.5354
 1413SOL     hw 5651   6.196   4.532   0.500 -1.7283 -2.6253 -2.7036
 1413SOL     vw 5652   6.131   4.591   0.501 -0.2379 -0.8678 -0.8322
 1414SOL     ow 5653   3.300   4.802   0.682 -0.1014  0.3236  0.3133
 1414SOL     hw 5654   3.231   4.792   0.747 -1.4976  0.3642 -1.0971
 1414SOL     hw 5655   3.297   4.720   0.632  1.7466 -0.2151  0.9839
 1414SOL     vw 5656   3.291   4.790   0.684 -0.0417  0.2580  0.2157
 1415SOL     ow 5657   5.454   7.326   0.068  0.0791 -0.1517  0.7877
 1415SOL     hw 5658   5.471   7.412   0.030 -2.2328  0.0320  0.0760
 1415SOL     hw 5659   5.359   7.318   0.071  0.2088 -2.9925  0.1420
 1415SOL     vw 5660   5.444   7.336   0.064 -0.2089 -0.5021  0.6086
 1416SOL     ow 5661   2.256   0.372   1.765 -0.6403  0.2339 -0.2737
 1416SOL     hw 5662   2.278   0.465   1.777  1.4314 -0.0878 -1.1003
 1416SOL     hw 5663   2.316   0.342   1.697 -0.8607 -1.8633  0.3964
 1416SOL     vw 5664   2.267   0.380   1.758 -0.3960 -0.0853 -0.2944
 1417SOL     ow 5665   2.101   1.794   5.013  0.1290  0.3505 -0.2000
 1417SOL     hw 5666   2.034   1.735   5.047  1.0912 -0.7635 -0.2026
 1417SOL     hw 5667   2.051   1.863   4.968 -1.0081 -0.4337 -0.1877
 1417SOL     vw 5668   2.085   1.795   5.012  0.1060  0.1000 -0.1988
 1418SOL     ow 5669   6.481   5.913   0.004 -0.0924  0.3019  0.5949
 1418SOL     hw 5670   6.388   5.903  -0.018  0.3420  0.1698 -1.4163
 1418SOL     hw 5671   6.491   6.005   0.026 -0.6419  0.3944  0.4705
 1418SOL     vw 5672   6.470   5.924   0.004 -0.1073  0.2966  0.3131
 1419SOL     ow 5673   4.965   2.147   0.345 -0.0088 -0.1458 -0.0997
 1419SOL     hw 5674   5.018   2.221   0.375 -1.6479  0.3903  1.7178
 1419SOL     hw 5675   4.994   2.074   0.398  0.4485 -0.3939 -0.6923
 1419SOL     vw 5676   4.976   2.147   0.356 -0.1647 -0.1078  0.0619
 1420SOL     ow 5677   6.688   6.880   4.238  0.5157 -0.6334 -0.6668
 1420SOL     hw 5678   6.739   6.843   4.310  0.6739 -1.7853 -1.3475
 1420SOL     hw 5679   6.670   6.970   4.265 -0.0996 -1.2622  1.1555
 1420SOL     vw 5680   6.693   6.887   4.251  0.4554 -0.8686 -0.5164
 1421SOL     ow 5681   0.405   0.136   2.231  0.6576  0.5122  0.1031
 1421SOL     hw 5682   0.474   0.121   2.296  0.9911 -1.3707 -0.6244
 1421SOL     hw 5683   0.336   0.180   2.280  1.4555  0.3845  1.3997
 1421SOL     vw 5684   0.405   0.140   2.246  0.8069  0.2469  0.1782
 1422SOL     ow 5685   1.232   5.884   1.034 -0.5280 -0.0507 -0.2287
 1422SOL     hw 5686   1.197   5.805   1.075  0.9502 -0.2903  0.6277
 1422SOL     hw 5687   1.176   5.954   1.065 -0.4750 -0.4687  0.8325
 1422SOL     vw 5688   1.220   5.883   1.043 -0.3260 -0.1378  0.0243
 1423SOL     ow 5689   7.100   5.521   6.871  0.0462  0.1549  0.2058
 1423SOL     hw 5690   7.014   5.482   6.857  0.8716 -1.8884  0.3549
 1423SOL     hw 5691   7.082   5.606   6.911 -1.8854 -0.7433  1.4138
 1423SOL     vw 5692   7.086   5.527   6.875 -0.0999 -0.2332  0.3848
 1424SOL     ow 5693   3.526   0.157   0.570  0.2469 -0.5057 -0.1273
 1424SOL     hw 5694   3.465   0.085   0.586  0.4986 -0.5854  0.5248
 1424SOL     hw 5695   3.504   0.189   0.483 -0.3443 -0.9086 -0.1305
 1424SOL     vw 5696   3.515   0.152   0.561  0.2019 -0.5694 -0.0417
 1425SOL     ow 5697   3.213   4.647   4.298 -0.2018  0.2959  0.1551
 1425SOL     hw 5698   3.179   4.737   4.297  2.5775  1.4563 -1.6895
 1425SOL     hw 5699   3.187   4.610   4.214  0.1547 -0.0211  0.1814
 1425SOL     vw 5700   3.205   4.654   4.287  0.2118  0.4075 -0.0846
 1426SOL     ow 5701   0.632   1.639   1.855 -0.1152  0.1928 -0.6981
 1426SOL     hw 5702   0.558   1.640   1.916  0.6564 -1.7492  0.3799
 1426SOL     hw 5703   0.602   1.587   1.781  0.6343 -2.1086  0.5139
 1426SOL     vw 5704   0.618   1.633   1.853  0.0855 -0.3671 -0.3959
 1427SOL     ow 5705   1.130   1.089   4.092 -0.0113 -0.1182 -0.4172
 1427SOL     hw 5706   1.113   1.022   4.158  2.8271 -1.7328 -1.1539
 1427SOL     hw 5707   1.077   1.164   4.120  0.8055 -0.7740  3.5933
 1427SOL     vw 5708   1.121   1.090   4.104  0.4710 -0.4178  0.0148
 1428SOL     ow 5709   2.926   6.670   4.492  0.6320  0.6504 -0.5100
 1428SOL     hw 5710   2.832   6.650   4.494  1.0547 -1.8541  2.1872
 1428SOL     hw 5711   2.932   6.762   4.518 -1.0776  0.4169  0.9139
 1428SOL     vw 5712   2.914   6.679   4.496  0.4622  0.2894  0.0336
 1429SOL     ow 5713   6.238   6.209   1.486  0.2069 -0.1615 -0.7928
 1429SOL     hw 5714   6.159   6.172   1.446  0.2158 -0.3173 -0.6678
 1429SOL     hw 5715   6.291   6.238   1.412  1.5352 -3.0486 -1.1093
 1429SOL     vw 5716   6.234   6.208   1.471  0.3834 -0.5629 -0.8181
 1430SOL     ow 5717   2.512   6.005   5.217  0.9234  0.3446 -0.0633
 1430SOL     hw 5718   2.466   6.026   5.136 -1.9991  1.5428  1.7415
 1430SOL     hw 5719   2.511   6.086   5.268  0.9610 -0.8297  1.9193
 1430SOL     vw 5720   2.506   6.018   5.213  0.5426  0.3479  0.4365
 1431SOL     ow 5721   5.261   1.839   1.015  0.8304 -0.5717 -0.3730
 1431SOL     hw 5722   5.299   1.927   1.021  0.4670 -0.4054 -0.5256
 1431SOL     hw 5723   5.197   1.845   0.944  0.6723 -0.9086 -0.2592
 1431SOL     vw 5724   5.258   1.852   1.007  0.7617 -0.5942 -0.3782
 1432SOL     ow 5725   0.583   3.479   4.943  0.2578 -0.8062 -0.0453
 1432SOL     hw 5726   0.648   3.469   4.872 -0.5629 -1.7789 -0.6776
 1432SOL     hw 5727   0.599   3.405   5.001 -0.6701 -1.4016 -0.5287
 1432SOL     vw 5728   0.594   3.468   4.941  0.0271 -1.0132 -0.1924
 1433SOL     ow 5729   5.886   0.852   4.410  0.3411  0.8318 -0.4585
 1433SOL     hw 5730   5.853   0.893   4.330 -2.4626 -0.2907  0.0138
 1433SOL     hw 5731   5.807   0.823   4.456  1.9733 -0.3528  1.7526
 1433SOL     vw 5732   5.871   0.853   4.405  0.1867  0.5274 -0.1044
 1434SOL     ow 5733   4.877   0.211   2.785  0.0247  0.1387 -0.0612
 1434SOL     hw 5734   4.905   0.237   2.697 -1.0976  2.1352  0.1054
 1434SOL     hw 5735   4.919   0.274   2.843  0.8407 -1.2302  0.8770
 1434SOL     vw 5736   4.886   0.223   2.781 -0.0155  0.2215  0.0846
 1435SOL     ow 5737   6.226   7.312   6.443 -0.5895 -0.3186 -0.7063
 1435SOL     hw 5738   6.163   7.255   6.401  0.0169 -1.3344 -0.2677
 1435SOL     hw 5739   6.219   7.293   6.536 -0.5754  0.5271 -0.5220
 1435SOL     vw 5740   6.217   7.302   6.449 -0.5078 -0.3409 -0.6242
 1436SOL     ow 5741   2.761   3.898   4.393 -0.0887 -0.3596 -0.3997
 1436SOL     hw 5742   2.820   3.867   4.324  0.7823 -0.1372  0.2270
 1436SOL     hw 5743   2.685   3.840   4.386  0.7025 -1.4403 -0.4546
 1436SOL     vw 5744   2.759   3.886   4.383  0.1307 -0.4727 -0.3242
 1437SOL     ow 5745   5.428   0.109   4.842 -0.3375  0.6641 -0.4995
 1437SOL     hw 5746   5.378   0.043   4.890  0.3006  1.2232  1.0101
 1437SOL     hw 5747   5.361   0.167   4.805 -0.8722 -0.3271 -1.0998
 1437SOL     vw 5748   5.412   0.108   4.844 -0.3238  0.6071 -0.3796
 1438SOL     ow 5749   3.992   5.250   2.854 -0.2510  0.0689 -0.5597
 1438SOL     hw 5750   3.946   5.184   2.803  0.0747 -0.3688 -0.2967
 1438SOL     hw 5751   3.923   5.292   2.906 -0.2913 -0.9706  0.2602
 1438SOL     vw 5752   3.977   5.247   2.854 -0.2134 -0.1259 -0.4168
 1439SOL     ow 5753   1.542   0.640   6.689 -0.0780  0.0881  0.0840
 1439SOL     hw 5754   1.538   0.579   6.763 -2.7544  0.5564  0.4121
 1439SOL     hw 5755   1.469   0.615   6.632  0.4102  1.2982 -1.1353
 1439SOL     vw 5756   1.532   0.629   6.692 -0.3667  0.3095 -0.0336
 1440SOL     ow 5757   1.028   5.561   1.340 -0.3208  0.0337  0.0320
 1440SOL     hw 5758   0.960   5.510   1.384 -0.2661 -0.5620 -0.5649
 1440SOL     hw 5759   1.101   5.562   1.402 -0.7970  0.5084  0.5914
 1440SOL     vw 5760   1.029   5.555   1.354 -0.3764  0.0181  0.0270
 1441SOL     ow 5761   0.933   2.706   0.984 -0.4809  0.1684 -0.5580
 1441SOL     hw 5762   0.868   2.638   0.965 -2.0614  0.2041  3.5266
 1441SOL     hw 5763   0.892   2.788   0.956 -2.0745  0.1090  1.3347
 1441SOL     vw 5764   0.919   2.708   0.978 -0.8996  0.1652  0.2307
 1442SOL     ow 5765   1.771   7.292   2.629 -0.6363  0.3021  0.0127
 1442SOL     hw 5766   1.723   7.216   2.598  0.0057  0.7255 -2.1755
 1442SOL     hw 5767   1.794   7.341   2.550 -0.0800  2.2064  1.2665
 1442SOL     vw 5768   1.768   7.289   2.615 -0.4782  0.6096 -0.1106
 1443SOL     ow 5769   2.590   1.412   2.075  1.0425 -0.2938 -0.3286
 1443SOL     hw 5770   2.609   1.328   2.035 -3.5894 -0.9342 -1.8388
 1443SOL     hw 5771   2.620   1.477   2.012 -1.3210 -1.1548 -2.4942
 1443SOL     vw 5772   2.596   1.410   2.061  0.1196 -0.4919 -0.8136
 1444SOL     ow 5773   0.127   6.740   5.512  0.2050  0.2765  0.8933
 1444SOL     hw 5774   0.205   6.688   5.528  1.4356  1.3209 -1.2743
 1444SOL     hw 5775   0.129   6.809   5.579  1.1453  0.2676  0.8873
 1444SOL     vw 5776   0.137   6.743   5.523  0.4914  0.4134  0.6065
 1445SOL     ow 5777   3.413   0.474   5.629  0.4269  0.3324 -0.1067
 1445SOL     hw 5778   3.437   0.514   5.712  0.9948 -0.8478  0.3296
 1445SOL     hw 5779   3.399   0.547   5.570 -0.9466  1.2496  1.2645
 1445SOL     vw 5780   3.415   0.489   5.632  0.3206  0.2977  0.1318
 1446SOL     ow 5781   0.779   6.199   2.630 -0.6903 -0.6025  0.2236
 1446SOL     hw 5782   0.714   6.261   2.596 -0.7024 -1.1018 -0.6920
 1446SOL     hw 5783   0.840   6.253   2.680 -1.3209 -0.0065  0.3710
 1446SOL     vw 5784   0.778   6.214   2.632 -0.7751 -0.5896  0.1223
 1447SOL     ow 5785   6.895   2.674   6.930  0.0277  0.5125 -0.3557
 1447SOL     hw 5786   6.898   2.743   6.864  0.8245  1.3894  0.5781
 1447SOL     hw 5787   6.894   2.721   7.013  0.0043 -0.6016  0.2830
 1447SOL     vw 5788   6.895   2.689   6.932  0.1297  0.4811 -0.1481
 1448SOL     ow 5789   6.950   4.862   1.359 -0.1208  0.0453 -0.4141
 1448SOL     hw 5790   6.928   4.939   1.411  2.5273 -0.8841  2.3312
 1448SOL     hw 5791   6.896   4.792   1.396 -0.6067 -0.0063 -1.1777
 1448SOL     vw 5792   6.940   4.863   1.371  0.1643 -0.0844 -0.1527
 1449SOL     ow 5793   4.080   4.878   3.982  0.0803  0.4133  0.0692
 1449SOL     hw 5794   4.136   4.935   4.035  1.4038 -0.4711 -0.3109
 1449SOL     hw 5795   4.128   4.868   3.899 -1.2662  0.6287 -0.7638
 1449SOL     vw 5796   4.094   4.884   3.978  0.0772  0.3247 -0.0908
 1450SOL     ow 5797   6.102   2.897   3.214  0.2149 -0.4147  0.0998
 1450SOL     hw 5798   6.168   2.957   3.179 -0.8262  1.0615  0.5812
 1450SOL     hw 5799   6.087   2.927   3.303 -0.6300 -1.1556  0.2244
 1450SOL     vw 5800   6.109   2.909   3.221 -0.0336 -0.3178  0.1798
 1451SOL     ow 5801   0.441   7.338   4.778  0.6526  0.5277  0.1154
 1451SOL     hw 5802   0.510   7.363   4.716  0.1779  1.0966 -0.1988
 1451SOL     hw 5803   0.363   7.381   4.744 -0.3594 -1.8632 -0.7795
 1451SOL     vw 5804   0.440   7.347   4.765  0.4564  0.2873 -0.0441
 1452SOL     ow 5805   5.429   1.894   6.431 -0.6847  0.0108  0.0842
 1452SOL     hw 5806   5.448   1.846   6.511 -2.7968  1.3722  1.5108
 1452SOL     hw 5807   5.360   1.843   6.389  0.2220 -0.5496 -0.7670
 1452SOL     vw 5808   5.422   1.881   6.436 -0.8438  0.1165  0.1602
 1453SOL     ow 5809   4.357   3.251   1.422 -0.0258 -0.0981  0.5870
 1453SOL     hw 5810   4.276   3.200   1.423 -0.5598  0.6291 -1.2098
 1453SOL     hw 5811   4.410   3.210   1.354  0.9101 -0.2250  1.3716
 1453SOL     vw 5812   4.353   3.239   1.413  0.0272 -0.0188  0.4535
 1454SOL     ow 5813   4.560   6.563   7.326 -0.2502 -0.6516 -0.4392
 1454SOL     hw 5814   4.617   6.599   7.259  1.7736 -0.2567  1.3919
 1454SOL     hw 5815   4.495   6.632   7.343 -1.1225 -0.9646 -2.2807
 1454SOL     vw 5816   4.559   6.577   7.319 -0.0982 -0.6409 -0.4406
 1455SOL     ow 5817   2.910   1.465   5.795  0.4339 -0.1374  0.4464
 1455SOL     hw 5818   2.841   1.402   5.815 -0.7445  1.6361  2.3283
 1455SOL     hw 5819   2.960   1.473   5.876  2.2943 -0.6626 -0.5974
 1455SOL     vw 5820   2.908   1.458   5.808  0.5239  0.0273  0.5567
 1456SOL     ow 5821   3.316   1.552   4.452 -0.2502  0.4082 -0.7965
 1456SOL     hw 5822   3.297   1.541   4.359  1.5197 -4.4285 -0.8765
 1456SOL     hw 5823   3.239   1.517   4.497 -1.9566  4.4695 -0.1211
 1456SOL     vw 5824   3.304   1.546   4.446 -0.2418  0.3060 -0.7176
 1457SOL     ow 5825   3.066   4.571   3.575 -0.4594 -0.9028 -0.3978
 1457SOL     hw 5826   2.989   4.622   3.548 -1.1571 -1.8510 -0.2777
 1457SOL     hw 5827   3.067   4.578   3.670  0.6101  0.4940 -0.4913
 1457SOL     vw 5828   3.056   4.578   3.584 -0.4106 -0.8438 -0.3942
 1458SOL     ow 5829   3.578   4.676   6.005  0.6119 -0.5762 -0.8237
 1458SOL     hw 5830   3.658   4.728   6.015  1.6545 -2.4027  0.8915
 1458SOL     hw 5831   3.575   4.655   5.911  1.7274  0.1282 -1.0385
 1458SOL     vw 5832   3.588   4.680   5.994  0.8965 -0.7243 -0.6256
 1459SOL     ow 5833   3.415   2.130   5.990  0.2397 -0.1404  0.1621
 1459SOL     hw 5834   3.451   2.081   5.916  0.8847  0.1505  0.2736
 1459SOL     hw 5835   3.355   2.069   6.032  2.1969 -1.4278  1.2205
 1459SOL     vw 5836   3.412   2.116   5.986  0.5831 -0.2718  0.3166
 1460SOL     ow 5837   3.979   2.250   3.093  0.2278 -0.1908  0.0660
 1460SOL     hw 5838   4.073   2.263   3.082  0.4802 -1.7187  0.2079
 1460SOL     hw 5839   3.963   2.267   3.186  0.3042  0.3344 -0.0130
 1460SOL     vw 5840   3.989   2.254   3.104  0.2712 -0.3231  0.0744
 1461SOL     ow 5841   0.286   3.451   3.039  0.3242  0.4219  0.3476
 1461SOL     hw 5842   0.363   3.396   3.020  2.1621  2.0238  2.5300
 1461SOL     hw 5843   0.318   3.540   3.031 -1.4766  1.1484  0.8208
 1461SOL     vw 5844   0.301   3.455   3.036  0.3291  0.7291  0.6981
 1462SOL     ow 5845   6.828   0.925   5.616 -0.0887  0.3640 -0.7894
 1462SOL     hw 5846   6.876   0.909   5.698 -0.5717  0.0352 -0.5698
 1462SOL     hw 5847   6.881   0.883   5.549  0.9519  1.6781 -0.8249
 1462SOL     vw 5848   6.841   0.917   5.618 -0.0153  0.4939 -0.7648
 1463SOL     ow 5849   2.304   0.438   2.910  0.2901 -0.1284 -0.4287
 1463SOL     hw 5850   2.342   0.349   2.907  0.1652 -0.1646 -1.0232
 1463SOL     hw 5851   2.219   0.429   2.868 -0.0758  0.1066  0.2602
 1463SOL     vw 5852   2.298   0.425   2.904  0.2253 -0.1021 -0.4163
 1464SOL     ow 5853   6.297   6.551   4.311  0.1620  1.0199 -0.2534
 1464SOL     hw 5854   6.318   6.479   4.370  0.7833  1.7125  0.3861
 1464SOL     hw 5855   6.375   6.562   4.257  0.1059  1.2842 -0.2817
 1464SOL     vw 5856   6.310   6.543   4.312  0.2365  1.1461 -0.1726
 1465SOL     ow 5857   5.448   4.117   4.975 -0.2485  0.6904 -0.0356
 1465SOL     hw 5858   5.503   4.161   5.039 -0.1851 -1.1074  1.2111
 1465SOL     hw 5859   5.407   4.045   5.023 -0.2101 -0.7257 -1.9924
 1465SOL     vw 5860   5.450   4.114   4.990 -0.2351  0.2663 -0.1290
 1466SOL     ow 5861   4.852   3.801   3.623  0.0982 -0.9253  0.0156
 1466SOL     hw 5862   4.928   3.799   3.681 -0.2802 -2.0319  0.5106
 1466SOL     hw 5863   4.814   3.888   3.635  0.6641 -0.7536  0.5902
 1466SOL     vw 5864   4.857   3.812   3.632  0.1230 -1.0486  0.1568
 1467SOL     ow 5865   5.870   1.104   0.808 -0.3170  0.2557 -0.3021
 1467SOL     hw 5866   5.815   1.046   0.860  0.8837 -0.6463  0.0069
 1467SOL     hw 5867   5.832   1.101   0.720 -1.8471  1.1320  0.2866
 1467SOL     vw 5868   5.858   1.096   0.803 -0.3605  0.2523 -0.1837
 1468SOL     ow 5869   6.651   3.147   1.001 -0.0213  0.4437 -0.0473
 1468SOL     hw 5870   6.611   3.169   0.917  0.4742 -0.8410 -0.6437
 1468SOL     hw 5871   6.645   3.228   1.052 -0.0726  1.3386 -1.4174
 1468SOL     vw 5872   6.645   3.161   0.997  0.0374  0.3922 -0.3067
 1469SOL     ow 5873   6.667   2.348   3.850  0.1182  0.3013 -0.1881
 1469SOL     hw 5874   6.663   2.387   3.763 -0.6030  0.3271 -0.1444
 1469SOL     hw 5875   6.643   2.256   3.836 -1.2338  0.5811  0.1526
 1469SOL     vw 5876   6.663   2.341   3.837 -0.1552  0.3415 -0.1374
 1470SOL     ow 5877   0.940   3.131   0.099 -0.2437  0.7821 -0.5568
 1470SOL     hw 5878   1.032   3.127   0.122 -0.1059 -4.3342 -0.8323
 1470SOL     hw 5879   0.893   3.110   0.179 -0.9634  0.5489 -1.0213
 1470SOL     vw 5880   0.946   3.128   0.112 -0.3204  0.0763 -0.6544
 1471SOL     ow 5881   0.408   1.895   1.111  0.9185 -0.3349  0.0911
 1471SOL     hw 5882   0.463   1.969   1.136  2.5492 -1.6171  0.4145
 1471SOL     hw 5883   0.415   1.891   1.015 -2.7363  2.5633 -0.5314
 1471SOL     vw 5884   0.416   1.905   1.101  0.6514 -0.1217  0.0517
 1472SOL     ow 5885   3.058   0.093   0.602 -0.0534 -0.7822 -0.6189
 1472SOL     hw 5886   3.115   0.123   0.673 -1.1388 -0.6043  0.2075
 1472SOL     hw 5887   3.067  -0.002   0.601 -1.3763 -0.9565  0.9721
 1472SOL     vw 5888   3.066   0.085   0.611 -0.3712 -0.7817 -0.3000
 1473SOL     ow 5889   1.226   2.593   2.998 -0.0183  0.3018  0.4807
 1473SOL     hw 5890   1.193   2.683   2.997  3.0929  1.8181  4.6101
 1473SOL     hw 5891   1.312   2.599   2.956 -0.0097 -0.8924  0.3001
 1473SOL     vw 5892   1.233   2.606   2.992  0.3933  0.3443  1.0017
 1474SOL     ow 5893   2.306   1.037   1.772 -0.6367 -0.1979  0.3175
 1474SOL     hw 5894   2.304   0.977   1.697  2.4408 -0.0046 -0.0780
 1474SOL     hw 5895   2.376   1.099   1.750  0.6505 -0.3722  3.4902
 1474SOL     vw 5896   2.315   1.037   1.759 -0.0607 -0.1954  0.6839
 1475SOL     ow 5897   6.523   1.281   2.329 -0.3001 -0.7605 -0.0464
 1475SOL     hw 5898   6.463   1.213   2.298  0.5415 -1.3446 -0.4180
 1475SOL     hw 5899   6.465   1.348   2.366 -1.2099 -1.0602 -0.8792
 1475SOL     vw 5900   6.507   1.280   2.330 -0.3092 -0.8771 -0.2052
 1476SOL     ow 5901   5.546   0.187   6.458  0.2659 -0.0687  0.4938
 1476SOL     hw 5902   5.478   0.252   6.440  0.4567 -0.7207 -3.2859
 1476SOL     hw 5903   5.498   0.112   6.494 -1.0532 -0.3680 -1.7373
 1476SOL     vw 5904   5.531   0.186   6.461  0.1171 -0.1942 -0.2990
 1477SOL     ow 5905   6.055   0.676   4.634  0.1077  0.1680  0.6207
 1477SOL     hw 5906   6.099   0.592   4.642  2.2687  0.8553 -2.1083
 1477SOL     hw 5907   6.085   0.726   4.710  0.7982 -0.7188  0.9531
 1477SOL     vw 5908   6.065   0.672   4.645  0.4840  0.1417  0.3045
 1478SOL     ow 5909   6.180   2.478   2.922 -0.7540  0.5280 -0.2143
 1478SOL     hw 5910   6.159   2.430   3.002 -2.7290  1.4333 -0.1359
 1478SOL     hw 5911   6.203   2.410   2.859 -0.3418 -0.2766  0.7742
 1478SOL     vw 5912   6.180   2.462   2.925 -0.9603  0.5413 -0.0736
 1479SOL     ow 5913   5.457   6.729   3.117 -0.2666 -1.0933  0.2813
 1479SOL     hw 5914   5.526   6.775   3.068  1.4456 -1.1853  2.4471
 1479SOL     hw 5915   5.375   6.765   3.083  0.9116  2.5974  0.8323
 1479SOL     vw 5916   5.455   6.740   3.106  0.1149 -0.6187  0.6398
 1480SOL     ow 5917   2.324   3.405   4.373  0.2455 -0.0553 -0.1384
 1480SOL     hw 5918   2.316   3.373   4.283  2.3557  0.1032 -0.4168
 1480SOL     hw 5919   2.264   3.480   4.376  2.6224  2.1482 -2.5395
 1480SOL     vw 5920   2.315   3.411   4.362  0.8376  0.2564 -0.4921
 1481SOL     ow 5921   0.020   7.003   5.369  0.2486  0.2063  0.4620
 1481SOL     hw 5922   0.058   7.030   5.286 -0.2489  1.0131  0.4946
 1481SOL     hw 5923   0.024   7.080   5.425 -3.0603  0.9367 -0.1035
 1481SOL     vw 5924   0.025   7.016   5.366 -0.2537  0.4091  0.3915
 1482SOL     ow 5925   6.441   2.945   1.736 -0.4473  0.4780 -0.2246
 1482SOL     hw 5926   6.441   2.888   1.813  1.1504 -0.7162 -1.0572
 1482SOL     hw 5927   6.356   2.989   1.740 -1.7257 -1.8575  0.5381
 1482SOL     vw 5928   6.429   2.944   1.747 -0.4048  0.0122 -0.2339
 1483SOL     ow 5929   4.152   3.949   1.196 -0.1754 -0.3965 -0.2931
 1483SOL     hw 5930   4.191   3.942   1.283 -0.3249  0.8142 -0.1136
 1483SOL     hw 5931   4.216   3.908   1.137 -0.1943 -1.4601  0.4001
 1483SOL     vw 5932   4.166   3.942   1.199 -0.1976 -0.3771 -0.1779
 1484SOL     ow 5933   6.715   7.145   0.565  0.0019  0.0243 -0.6189
 1484SOL     hw 5934   6.706   7.238   0.547  0.7558  0.2120 -0.0696
 1484SOL     hw 5935   6.656   7.102   0.503 -2.1924  0.9763  0.6811
 1484SOL     vw 5936   6.706   7.151   0.555 -0.1881  0.1745 -0.3749
 1485SOL     ow 5937   2.118   2.033   6.485  0.2695 -0.2880 -0.0453
 1485SOL     hw 5938   2.059   1.958   6.492 -0.5968  0.4868  2.1644
 1485SOL     hw 5939   2.195   2.008   6.535 -0.0974  0.3164  0.8521
 1485SOL     vw 5940   2.120   2.020   6.493  0.1068 -0.1061  0.3643
 1486SOL     ow 5941   5.969   0.663   0.808 -0.2356  0.0324  0.3072
 1486SOL     hw 5942   5.901   0.638   0.745 -2.3946  2.6995  1.3727
 1486SOL     hw 5943   5.985   0.756   0.791  0.7930  0.2470  2.1612
 1486SOL     vw 5944   5.962   0.672   0.797 -0.3850  0.4126  0.6924
 1487SOL     ow 5945   2.184   2.632   6.135  0.6642  0.6557  0.5710
 1487SOL     hw 5946   2.266   2.663   6.174  0.6213  0.9136  0.4611
 1487SOL     hw 5947   2.208   2.601   6.048  0.9722 -1.0697  1.2312
 1487SOL     vw 5948   2.198   2.632   6.129  0.6992  0.4621  0.6435
 1488SOL     ow 5949   6.996   2.042   3.971  0.0565 -0.0948 -0.8727
 1488SOL     hw 5950   6.903   2.034   3.995 -0.4081  1.2869 -2.0278
 1488SOL     hw 5951   7.026   1.952   3.958 -0.7079 -0.6587  0.9346
 1488SOL     vw 5952   6.987   2.029   3.973 -0.1059  0.0130 -0.7868
 1489SOL     ow 5953   2.298   1.445   0.233  0.0337 -0.3731 -0.5138
 1489SOL     hw 5954   2.231   1.376   0.235 -1.6952  1.2647  1.1325
 1489SOL     hw 5955   2.349   1.430   0.312 -0.2945  0.1631 -0.1970
 1489SOL     vw 5956   2.296   1.434   0.244 -0.2377 -0.0864 -0.2548
 1490SOL     ow 5957   4.702   2.224   0.482 -0.4894 -0.1139 -0.5581
 1490SOL     hw 5958   4.660   2.151   0.527 -0.2584  0.9952  1.6082
 1490SOL     hw 5959   4.632   2.287   0.466 -0.7042 -0.7771 -2.4902
 1490SOL     vw 5960   4.687   2.223   0.486 -0.4873 -0.0551 -0.5272
 1491SOL     ow 5961   0.244   4.353   4.853  0.2541  0.2500 -0.3480
 1491SOL     hw 5962   0.201   4.408   4.918  0.3381  0.9339 -0.8683
 1491SOL     hw 5963   0.246   4.266   4.893  1.9833  1.0045  1.3727
 1491SOL     vw 5964   0.239   4.349   4.867  0.4933  0.4396 -0.1895
 1492SOL     ow 5965   6.397   1.945   4.616 -0.2223 -0.0875  0.1717
 1492SOL     hw 5966   6.382   1.918   4.525  0.5342 -1.4087  0.4103
 1492SOL     hw 5967   6.391   1.863   4.666  2.4404  0.1086  0.9286
 1492SOL     vw 5968   6.394   1.931   4.611  0.2291 -0.2360  0.3030
 1493SOL     ow 5969   1.585   1.119   3.907 -0.6384 -0.1016  0.0129
 1493SOL     hw 5970   1.619   1.097   3.994  0.0972 -1.6742 -0.6256
 1493SOL     hw 5971   1.617   1.049   3.851 -2.0323  0.2828 -1.3277
 1493SOL     vw 5972   1.594   1.107   3.911 -0.7252 -0.2584 -0.2483
 1494SOL     ow 5973   3.890   6.897   1.896  0.2931  0.2734 -0.4828
 1494SOL     hw 5974   3.890   6.986   1.933 -2.1265  1.5338 -3.0910
 1494SOL     hw 5975   3.957   6.850   1.946  0.3443  2.9867  2.3099
 1494SOL     vw 5976   3.899   6.903   1.908 -0.0194  0.7975 -0.4585
 1495SOL     ow 5977   0.969   4.702   5.906  0.4410 -0.3616 -0.9248
 1495SOL     hw 5978   1.059   4.678   5.880 -0.3793 -2.5209 -2.0155
 1495SOL     hw 5979   0.976   4.724   5.999  2.2818  0.6686 -1.2521
 1495SOL     vw 5980   0.982   4.702   5.915  0.5756 -0.5107 -1.1115
 1496SOL     ow 5981   4.236   0.747   0.312 -0.0635  0.0362 -0.3740
 1496SOL     hw 5982   4.177   0.755   0.387  0.3277 -1.4018  0.1287
 1496SOL     hw 5983   4.315   0.707   0.349  0.9388  1.2062 -1.1724
 1496SOL     vw 5984   4.239   0.743   0.327  0.1204  0.0008 -0.4130
 1497SOL     ow 5985   6.412   5.135   4.266 -0.0830  0.4205  0.4157
 1497SOL     hw 5986   6.370   5.116   4.183  2.8672 -1.5383 -0.8050
 1497SOL     hw 5987   6.464   5.214   4.249  1.6717 -0.8072 -0.1385
 1497SOL     vw 5988   6.413   5.143   4.253  0.5376  0.0002  0.1814
 1498SOL     ow 5989   3.731   2.945   7.187 -0.1532  0.4407 -0.2911
 1498SOL     hw 5990   3.665   3.015   7.190 -0.8637 -0.2416  0.3667
 1498SOL     hw 5991   3.686   2.868   7.222  1.1635  0.0883  0.6982
 1498SOL     vw 5992   3.716   2.944   7.192 -0.0732  0.3042 -0.0739
 1499SOL     ow 5993   6.279   7.086   0.455 -0.7466 -0.0003 -0.4366
 1499SOL     hw 5994   6.193   7.091   0.413  0.5570  0.8068 -3.2004
 1499SOL     hw 5995   6.308   7.177   0.460  0.1548 -0.3038  0.1007
 1499SOL     vw 5996   6.271   7.099   0.450 -0.4559  0.0663 -0.7304
 1500SOL     ow 5997   7.027   0.658   3.125  0.6763 -0.4207  0.0439
 1500SOL     hw 5998   7.112   0.622   3.098  0.6701 -0.1900 -0.2854
 1500SOL     hw 5999   6.964   0.616   3.066  0.8931  1.7707 -1.8799
 1500SOL     vw 6000   7.030   0.647   3.114  0.7043 -0.1012 -0.2534
 1501SOL     ow 6001   1.729   7.167   0.843 -0.2939 -0.1530  0.0060
 1501SOL     hw 6002   1.639   7.173   0.876  0.1266  0.0630  1.1618
 1501SOL     hw 6003   1.751   7.257   0.818  0.8793  0.6030  3.3292
 1501SOL     vw 6004   1.720   7.180   0.844 -0.0836 -0.0248  0.5969
 1502SOL     ow 6005   2.787   5.167   1.532 -0.1470 -0.1976 -0.1340
 1502SOL     hw 6006   2.831   5.151   1.615 -0.1501 -2.0694 -0.4415
 1502SOL     hw 6007   2.789   5.262   1.521  3.1581 -0.1192  0.2153
 1502SOL     vw 6008   2.793   5.177   1.541  0.2886 -0.4339 -0.1285
 1503SOL     ow 6009   4.374   5.683   5.669  0.6149 -0.1752  0.1158
 1503SOL     hw 6010   4.287   5.685   5.630  1.1494  0.4831 -1.0864
 1503SOL     hw 6011   4.428   5.739   5.613  1.7639 -0.3671  0.9730
 1503SOL     vw 6012   4.370   5.691   5.657  0.8371 -0.1135  0.0703
 1504SOL     ow 6013   3.933   5.083   3.804 -0.7117 -0.1311 -0.3177
 1504SOL     hw 6014   3.862   5.141   3.833 -2.1133 -2.4768  1.2559
 1504SOL     hw 6015   3.967   5.045   3.885  1.3511 -0.2186 -1.1746
 1504SOL     vw 6016   3.928   5.086   3.818 -0.6244 -0.4520 -0.2232
 1505SOL     ow 6017   2.603   4.219   4.589 -0.1741 -0.7548  0.3611
 1505SOL     hw 6018   2.508   4.209   4.575 -0.0748 -0.2272 -0.8916
 1505SOL     hw 6019   2.611   4.299   4.641 -0.3454  1.2532 -2.4034
 1505SOL     vw 6020   2.591   4.229   4.594 -0.1837 -0.4203 -0.1690
 1506SOL     ow 6021   7.147   4.677   6.259  0.4073 -0.6897  0.0635
 1506SOL     hw 6022   7.242   4.686   6.269  0.8328 -1.4261 -2.4271
 1506SOL     hw 6023   7.123   4.745   6.196 -0.7756 -0.4022  0.7985
 1506SOL     vw 6024   7.156   4.687   6.252  0.3071 -0.7486 -0.1681
 1507SOL     ow 6025   1.869   4.805   1.101  0.3521 -0.3275  0.3494
 1507SOL     hw 6026   1.858   4.729   1.044 -2.7092  1.3496 -1.5367
 1507SOL     hw 6027   1.962   4.824   1.097  0.6412 -1.8122 -2.0769
 1507SOL     vw 6028   1.880   4.797   1.093 -0.0137 -0.3023 -0.2196
 1508SOL     ow 6029   0.705   2.744   5.153  0.6697 -0.4920 -0.5679
 1508SOL     hw 6030   0.784   2.729   5.101  0.2560  1.3764 -1.8451
 1508SOL     hw 6031   0.685   2.837   5.140 -0.8293 -0.5398  1.0353
 1508SOL     vw 6032   0.713   2.755   5.144  0.4174 -0.2519 -0.5250
 1509SOL     ow 6033   3.111   2.814   6.615 -0.2589 -0.3402  0.2920
 1509SOL     hw 6034   3.081   2.750   6.550  2.1396  0.7798 -2.1395
 1509SOL     hw 6035   3.180   2.768   6.663 -0.4252 -0.4162  0.4624
 1509SOL     vw 6036   3.116   2.799   6.613  0.0356 -0.2024 -0.0062
 1510SOL     ow 6037   4.736   4.912   2.430 -0.5469  0.3929  0.4322
 1510SOL     hw 6038   4.729   4.992   2.483  0.1399  0.1964  0.8288
 1510SOL     hw 6039   4.683   4.848   2.478  0.0920  0.2091  0.9101
 1510SOL     vw 6040   4.728   4.914   2.443 -0.3719  0.3426  0.5475
 1511SOL     ow 6041   4.137   3.092   1.480  0.3895  0.0475  0.6543
 1511SOL     hw 6042   4.060   3.114   1.533  0.7555  0.2434  1.1158
 1511SOL     hw 6043   4.166   3.007   1.513 -0.2724 -0.5537 -0.2679
 1511SOL     vw 6044   4.131   3.084   1.491  0.3507 -0.0060  0.5935
 1512SOL     ow 6045   1.948   0.784   0.308  0.8330 -0.1337 -0.1948
 1512SOL     hw 6046   1.993   0.868   0.302  2.2033 -0.8575 -0.6562
 1512SOL     hw 6047   2.016   0.722   0.334  0.8136 -1.7670 -3.4864
 1512SOL     vw 6048   1.963   0.787   0.310  1.0112 -0.4447 -0.6900
 1513SOL     ow 6049   5.650   3.627   2.265 -0.0280  0.3454  0.0813
 1513SOL     hw 6050   5.712   3.691   2.303 -2.3644  2.5502  0.4413
 1513SOL     hw 6051   5.675   3.544   2.304  3.6879  0.7504 -1.0050
 1513SOL     vw 6052   5.662   3.625   2.275  0.1543  0.6896 -0.0147
 1514SOL     ow 6053   2.702   7.066   5.595 -0.2895 -0.5917 -0.2023
 1514SOL     hw 6054   2.649   6.986   5.591 -1.6547  0.3119 -1.4698
 1514SOL     hw 6055   2.757   7.055   5.672  0.3069 -3.1864 -0.9023
 1514SOL     vw 6056   2.702   7.054   5.604 -0.3909 -0.8149 -0.4616
 1515SOL     ow 6057   2.742   6.651   1.135 -0.2832 -0.3837  0.9343
 1515SOL     hw 6058   2.730   6.620   1.225 -0.0669  0.1039  1.1374
 1515SOL     hw 6059   2.655   6.677   1.107 -0.5019 -1.3512  0.6892
 1515SOL     vw 6060   2.729   6.650   1.143 -0.2837 -0.4473  0.9287
 1516SOL     ow 6061   3.194   6.781   1.255  0.0396 -0.4064  1.0038
 1516SOL     hw 6062   3.125   6.736   1.303  1.5107 -1.3738  2.2758
 1516SOL     hw 6063   3.206   6.864   1.302 -0.6866  0.0903  0.3602
 1516SOL     vw 6064   3.186   6.786   1.267  0.1379 -0.4685  1.0867
 1517SOL     ow 6065   6.325   3.948   3.067  0.1644 -0.2859  0.1348
 1517SOL     hw 6066   6.417   3.925   3.056  0.1776 -0.5698  0.7654
 1517SOL     hw 6067   6.311   3.947   3.162 -0.3900  0.1521  0.0685
 1517SOL     vw 6068   6.335   3.945   3.078  0.0927 -0.2655  0.2092
 1518SOL     ow 6069   0.250   5.058   3.243 -0.1052 -0.0530  0.2794
 1518SOL     hw 6070   0.226   5.100   3.161 -4.0439 -2.1281  0.1072
 1518SOL     hw 6071   0.271   4.968   3.219  4.7121  0.6078  1.0369
 1518SOL     vw 6072   0.250   5.051   3.229  0.0107 -0.2398  0.3568
 1519SOL     ow 6073   5.404   5.368   5.907 -0.5596 -0.0766  0.3389
 1519SOL     hw 6074   5.396   5.275   5.887 -0.4510 -0.1985  0.8378
 1519SOL     hw 6075   5.485   5.395   5.863  0.2316 -0.5750  1.4109
 1519SOL     vw 6076   5.414   5.359   5.898 -0.4411 -0.1585  0.5462
 1520SOL     ow 6077   6.415   6.419   3.219  0.0147  0.1820  0.1119
 1520SOL     hw 6078   6.319   6.414   3.223 -0.0482 -1.2911 -1.9118
 1520SOL     hw 6079   6.434   6.513   3.224 -1.6597  0.6431 -1.2494
 1520SOL     vw 6080   6.405   6.431   3.220 -0.2146  0.0486 -0.3349
 1521SOL     ow 6081   4.429   4.097   1.810  0.4680  0.0850 -0.0817
 1521SOL     hw 6082   4.363   4.032   1.789 -0.3774  0.5697  0.9884
 1521SOL     hw 6083   4.416   4.167   1.745  1.1231 -0.6036 -0.9847
 1521SOL     vw 6084   4.419   4.098   1.799  0.4430  0.0579 -0.0597
 1522SOL     ow 6085   5.077   6.810   0.532  0.2862  0.2896 -1.1310
 1522SOL     hw 6086   5.073   6.905   0.521 -0.1150  0.2309 -1.5282
 1522SOL     hw 6087   5.088   6.798   0.626 -4.4541  0.6638 -0.2736
 1522SOL     vw 6088   5.078   6.821   0.543 -0.3922  0.3312 -1.0703
 1523SOL     ow 6089   1.604   6.647   2.887 -0.1359  0.3043  0.1089
 1523SOL     hw 6090   1.525   6.690   2.921 -0.3922 -0.3365  0.3531
 1523SOL     hw 6091   1.651   6.620   2.966 -0.1497 -0.1608 -0.0410
 1523SOL     vw 6092   1.599   6.649   2.902 -0.1716  0.1583  0.1214
 1524SOL     ow 6093   1.742   0.477   6.526 -0.1141  0.2549 -0.0403
 1524SOL     hw 6094   1.666   0.421   6.510  1.2385 -1.0756 -2.4577
 1524SOL     hw 6095   1.811   0.417   6.555 -0.1239  1.5460  2.9872
 1524SOL     vw 6096   1.741   0.462   6.527  0.0630  0.2497  0.0403
 1525SOL     ow 6097   4.560   3.980   0.209  0.1656  0.6338 -0.3490
 1525SOL     hw 6098   4.538   3.888   0.198 -0.1719  0.7170 -0.3677
 1525SOL     hw 6099   4.628   3.997   0.143 -2.9042  1.5227 -3.5571
 1525SOL     vw 6100   4.566   3.970   0.199 -0.2840  0.7620 -0.7747
 1526SOL     ow 6101   5.376   1.666   6.839 -0.0166 -0.4934 -0.0968
 1526SOL     hw 6102   5.413   1.731   6.778 -0.8200 -1.1407 -1.3285
 1526SOL     hw 6103   5.281   1.673   6.825 -0.1071 -3.9703 -2.5830
 1526SOL     vw 6104   5.368   1.676   6.829 -0.1345 -1.0375 -0.5875
 1527SOL     ow 6105   0.898   1.632   0.981  0.0278  0.0038  0.9852
 1527SOL     hw 6106   0.920   1.713   1.027  0.0562  1.7758 -1.9068
 1527SOL     hw 6107   0.824   1.656   0.925  2.5761 -0.6496 -3.0775
 1527SOL     vw 6108   0.891   1.646   0.980  0.3678  0.1514  0.0676
 1528SOL     ow 6109   5.396   4.939   4.940  0.4508  0.4483 -0.1293
 1528SOL     hw 6110   5.479   4.913   4.980  0.3204  1.3602  0.7714
 1528SOL     hw 6111   5.368   5.015   4.991 -2.1339 -1.2259  1.1935
 1528SOL     vw 6112   5.403   4.946   4.952  0.0925  0.3476  0.1640
 1529SOL     ow 6113   6.471   4.471   3.209  0.8273 -0.2893 -0.7060
 1529SOL     hw 6114   6.483   4.432   3.296  2.2961  0.9346 -0.3273
 1529SOL     hw 6115   6.519   4.413   3.150 -0.0447 -1.0377 -0.7095
 1529SOL     vw 6116   6.479   4.458   3.212  0.9060 -0.2267 -0.6566
 1530SOL     ow 6117   0.132   0.690   4.938  0.6712  0.3152  0.1703
 1530SOL     hw 6118   0.111   0.597   4.948  2.6401 -0.0362  1.7670
 1530SOL     hw 6119   0.112   0.727   5.024 -0.4354  1.4765 -0.5659
 1530SOL     vw 6120   0.127   0.682   4.951  0.7850  0.4221  0.2837
 1531SOL     ow 6121   0.291   0.337   1.145 -0.3687  0.0948  0.4120
 1531SOL     hw 6122   0.342   0.303   1.071  0.1491 -2.5805  1.8800
 1531SOL     hw 6123   0.205   0.355   1.107  0.2172 -0.1064 -1.0955
 1531SOL     vw 6124   0.286   0.335   1.130 -0.2231 -0.2847  0.4067
 1532SOL     ow 6125   0.106   5.534   6.431  0.2709 -0.7354 -0.3403
 1532SOL     hw 6126   0.069   5.615   6.398  0.2838 -1.2461 -1.6788
 1532SOL     hw 6127   0.166   5.561   6.501 -1.3928  0.2167  0.7861
 1532SOL     vw 6128   0.109   5.548   6.436  0.0531 -0.6773 -0.3684
 1533SOL     ow 6129   6.298   2.430   3.431  0.1605  0.4309 -0.0051
 1533SOL     hw 6130   6.222   2.425   3.489  0.5323  1.6336  0.6095
 1533SOL     hw 6131   6.336   2.516   3.449 -0.1409  1.1711 -2.5821
 1533SOL     vw 6132   6.293   2.441   3.441  0.1698  0.6872 -0.2640
 1534SOL     ow 6133   6.508   3.315   6.844 -0.2874 -0.9028  0.4270
 1534SOL     hw 6134   6.421   3.313   6.884 -1.0351 -1.5705 -1.1629
 1534SOL     hw 6135   6.545   3.399   6.872 -0.1487 -1.9122  3.6925
 1534SOL     vw 6136   6.501   3.326   6.853 -0.3676 -1.1239  0.6480
 1535SOL     ow 6137   1.710   3.838   3.726 -0.0668 -0.1517 -0.2659
 1535SOL     hw 6138   1.685   3.750   3.754 -2.0785  0.4116 -0.1188
 1535SOL     hw 6139   1.784   3.825   3.667 -1.2354 -2.0903 -1.3999
 1535SOL     vw 6140   1.717   3.825   3.722 -0.4864 -0.3334 -0.3963
 1536SOL     ow 6141   5.527   6.424   3.111  0.0114 -0.1841 -0.2561
 1536SOL     hw 6142   5.569   6.362   3.171 -3.2572  0.3320  2.9725
 1536SOL     hw 6143   5.463   6.371   3.063 -1.1886  0.2147  0.8362
 1536SOL     vw 6144   5.524   6.409   3.113 -0.5784 -0.0632  0.3141
 1537SOL     ow 6145   6.583   3.159   0.353  0.3749 -0.4215 -0.3627
 1537SOL     hw 6146   6.506   3.177   0.300  0.0572  0.7648  0.4701
 1537SOL     hw 6147   6.649   3.129   0.290 -0.0494  0.7596 -1.4017
 1537SOL     vw 6148   6.582   3.158   0.338  0.2770 -0.1092 -0.3899
 1538SOL     ow 6149   0.757   3.545   1.689  0.4932  0.8776  1.1293
 1538SOL     hw 6150   0.662   3.542   1.702  0.3471 -1.5021  0.0528
 1538SOL     hw 6151   0.783   3.631   1.721 -2.1150  1.8662  0.8069
 1538SOL     vw 6152   0.748   3.556   1.695  0.1298  0.6940  0.9447
 1539SOL     ow 6153   2.917   4.812   5.666  0.0466 -0.0282 -0.4564
 1539SOL     hw 6154   2.873   4.774   5.742  2.3657  1.3092  1.7026
 1539SOL     hw 6155   2.860   4.884   5.640 -0.2175  0.2579  0.8137
 1539SOL     vw 6156   2.904   4.816   5.673  0.3177  0.1862 -0.0041
 1540SOL     ow 6157   5.517   1.625   7.071 -0.0777 -0.0288  0.6068
 1540SOL     hw 6158   5.611   1.632   7.057 -0.1854  2.2827  0.5714
 1540SOL     hw 6159   5.477   1.663   6.993 -0.9347  1.5871  1.7531
 1540SOL     vw 6160   5.524   1.631   7.059 -0.2050  0.4893  0.7532
 1541SOL     ow 6161   4.341   6.505   6.970 -0.7981  0.0518  0.2434
 1541SOL     hw 6162   4.379   6.447   7.036 -1.9911 -1.5292 -0.3687
 1541SOL     hw 6163   4.417   6.544   6.926  0.0137  0.7528  2.1609
 1541SOL     vw 6164   4.356   6.502   6.973 -0.8485 -0.0644  0.4156
 1542SOL     ow 6165   0.698   0.266   2.933  0.7397  0.9748 -0.2480
 1542SOL     hw 6166   0.613   0.290   2.970  0.1065 -2.6148  0.9970
 1542SOL     hw 6167   0.751   0.241   3.008  2.0627  0.7859 -1.2153
 1542SOL     vw 6168   0.694   0.266   2.948  0.8307  0.4763 -0.2114
 1543SOL     ow 6169   1.670   7.345   0.436  0.5678 -0.1070 -0.2514
 1543SOL     hw 6170   1.664   7.271   0.497 -0.4918 -1.5124 -1.9401
 1543SOL     hw 6171   1.606   7.408   0.469 -1.4279 -1.6807 -0.8946
 1543SOL     vw 6172   1.661   7.343   0.449  0.1648 -0.5000 -0.5590
 1544SOL     ow 6173   1.735   6.688   0.802 -0.2021 -0.4133  0.2945
 1544SOL     hw 6174   1.707   6.724   0.718 -0.1214 -1.0791 -0.0232
 1544SOL     hw 6175   1.794   6.753   0.838  2.1780 -1.4126 -1.5354
 1544SOL     vw 6176   1.739   6.701   0.796  0.1225 -0.6328  0.0112
 1545SOL     ow 6177   4.206   4.434   3.847 -0.6794  0.0026  0.8475
 1545SOL     hw 6178   4.226   4.402   3.759 -2.8694  1.6772 -0.3702
 1545SOL     hw 6179   4.190   4.355   3.898  0.0365 -0.9849 -0.4037
 1545SOL     vw 6180   4.206   4.419   3.842 -0.8740  0.0935  0.5218
 1546SOL     ow 6181   6.997   2.565   2.703 -0.0929  0.2254 -1.0510
 1546SOL     hw 6182   7.046   2.515   2.638 -1.1037 -1.5768 -0.4718
 1546SOL     hw 6183   6.911   2.579   2.662 -0.2596  0.3299 -0.6666
 1546SOL     vw 6184   6.992   2.561   2.689 -0.2487  0.0013 -0.9239
 1547SOL     ow 6185   2.788   5.209   2.719  0.2907  0.1866  0.0118
 1547SOL     hw 6186   2.728   5.136   2.732  0.0453 -0.1981 -2.6921
 1547SOL     hw 6187   2.732   5.286   2.711  0.2990  0.1520 -0.4012
 1547SOL     vw 6188   2.773   5.209   2.720  0.2595  0.1314 -0.3995
 1548SOL     ow 6189   4.826   3.871   2.869  0.2809  0.8454  0.7620
 1548SOL     hw 6190   4.759   3.810   2.839  2.2201  0.1423 -2.7403
 1548SOL     hw 6191   4.891   3.816   2.913  0.1230  1.0050  1.1928
 1548SOL     vw 6192   4.826   3.856   2.871  0.5157  0.7738  0.3566
 1549SOL     ow 6193   1.288   3.185   7.134  0.6560  0.1324  0.0455
 1549SOL     hw 6194   1.355   3.123   7.104 -0.0032 -1.2140  1.2611
 1549SOL     hw 6195   1.217   3.130   7.167 -0.8031  1.5383 -0.6281
 1549SOL     vw 6196   1.288   3.170   7.134  0.3765  0.1403  0.1171
 1550SOL     ow 6197   2.580   5.003   2.789  0.6568  0.5840 -0.3121
 1550SOL     hw 6198   2.577   5.001   2.885  0.5060  2.0151 -0.2603
 1550SOL     hw 6199   2.603   4.914   2.764  1.7131  0.4155  1.1014
 1550SOL     vw 6200   2.583   4.991   2.798  0.7763  0.7503 -0.1187
 1551SOL     ow 6201   5.456   0.913   5.788  0.3295 -0.6334  0.0977
 1551SOL     hw 6202   5.465   0.996   5.835 -1.1775 -0.7569  0.6556
 1551SOL     hw 6203   5.414   0.937   5.706  1.5796 -0.6259 -0.5686
 1551SOL     vw 6204   5.452   0.927   5.783  0.2954 -0.6487  0.0834
 1552SOL     ow 6205   1.739   1.754   7.296  0.2442 -0.0089 -0.2945
 1552SOL     hw 6206   1.834   1.757   7.287  0.3539 -1.9644 -0.3741
 1552SOL     hw 6207   1.722   1.670   7.339 -1.4556  0.2163 -0.4555
 1552SOL     vw 6208   1.749   1.743   7.300  0.0344 -0.2371 -0.3262
 1553SOL     ow 6209   6.691   6.628   4.869 -0.2027  0.3970  0.3112
 1553SOL     hw 6210   6.762   6.661   4.815  0.2440 -0.3581  0.4314
 1553SOL     hw 6211   6.670   6.542   4.833 -2.3542  1.3465 -0.9418
 1553SOL     vw 6212   6.697   6.621   4.857 -0.4275  0.4227  0.1616
 1554SOL     ow 6213   5.404   7.107   4.333  0.3752  1.0727  0.4854
 1554SOL     hw 6214   5.412   7.202   4.329  0.1309  1.0567 -1.1730
 1554SOL     hw 6215   5.451   7.076   4.256  2.1480 -0.3065  2.0244
 1554SOL     vw 6216   5.411   7.116   4.322  0.5767  0.8883  0.4694
 1555SOL     ow 6217   4.979   1.084   1.808 -0.3267 -0.5769 -0.3203
 1555SOL     hw 6218   4.960   1.177   1.795  2.8499  0.2588  0.1643
 1555SOL     hw 6219   4.957   1.043   1.725 -1.3256  0.6777 -0.7096
 1555SOL     vw 6220   4.974   1.091   1.795 -0.0393 -0.3011 -0.3078
 1556SOL     ow 6221   1.273   4.321   4.114  0.3590 -0.5132 -0.3153
 1556SOL     hw 6222   1.303   4.282   4.031 -1.0627 -0.5597 -0.8426
 1556SOL     hw 6223   1.194   4.272   4.135  0.2390  0.0794  0.6345
 1556SOL     vw 6224   1.267   4.309   4.106  0.1556 -0.4413 -0.2596
 1557SOL     ow 6225   6.428   6.860   1.084  0.0780  0.2318  0.0943
 1557SOL     hw 6226   6.507   6.875   1.136  1.0970 -0.5317 -1.1659
 1557SOL     hw 6227   6.451   6.893   0.997  1.0172 -4.5736 -1.7573
 1557SOL     vw 6228   6.442   6.867   1.079  0.3364 -0.5028 -0.3163
 1558SOL     ow 6229   6.390   3.023   0.580  0.0433 -0.3650  0.5643
 1558SOL     hw 6230   6.295   3.020   0.569 -0.0464 -2.2329  1.4684
 1558SOL     hw 6231   6.407   2.969   0.657  1.8651 -0.3656  0.2049
 1558SOL     vw 6232   6.380   3.015   0.589  0.2718 -0.6115  0.6361
 1559SOL     ow 6233   6.332   4.194   4.146 -0.1422 -0.2305  0.5845
 1559SOL     hw 6234   6.246   4.234   4.164 -0.6702  0.4268 -2.7816
 1559SOL     hw 6235   6.380   4.261   4.098  0.4567 -2.1605 -1.6803
 1559SOL     vw 6236   6.327   4.208   4.142 -0.1328 -0.3984 -0.1585
 1560SOL     ow 6237   5.079   6.883   1.279  0.2196 -0.2163 -0.4184
 1560SOL     hw 6238   5.062   6.970   1.314 -2.5833 -1.1146  0.7115
 1560SOL     hw 6239   5.130   6.899   1.199  1.3978  2.2827  0.7215
 1560SOL     vw 6240   5.083   6.897   1.273  0.0052 -0.0050 -0.1189
 1561SOL     ow 6241   3.545   6.106   0.560  0.7255 -0.5788  0.0102
 1561SOL     hw 6242   3.485   6.173   0.527  2.0566  0.6199 -0.0623
 1561SOL     hw 6243   3.564   6.052   0.483  0.3898 -0.4763 -0.1503
 1561SOL     vw 6244   3.539   6.107   0.545  0.8570 -0.4072 -0.0205
 1562SOL     ow 6245   5.022   5.332   6.126 -0.0960  0.1904 -0.7718
 1562SOL     hw 6246   5.058   5.243   6.123  0.0090  0.1792  0.3918
 1562SOL     hw 6247   5.046   5.365   6.212  0.6989  1.7215 -1.5380
 1562SOL     vw 6248   5.030   5.324   6.137  0.0226  0.3912 -0.7193
 1563SOL     ow 6249   3.226   1.307   5.344  0.5264 -0.0188  0.2864
 1563SOL     hw 6250   3.178   1.235   5.303 -0.4889  0.3815  0.7391
 1563SOL     hw 6251   3.310   1.310   5.298  0.5194 -1.3796  0.1430
 1563SOL     vw 6252   3.231   1.298   5.333  0.3917 -0.1456  0.3271
 1564SOL     ow 6253   2.202   1.420   0.601 -0.1251 -0.6579 -0.9496
 1564SOL     hw 6254   2.233   1.336   0.634 -0.2884 -0.3826 -0.0627
 1564SOL     hw 6255   2.257   1.485   0.644 -1.1523 -0.2286 -0.2135
 1564SOL     vw 6256   2.213   1.417   0.611 -0.2822 -0.5650 -0.7354
 1565SOL     ow 6257   4.443   4.879   3.460 -0.5028 -0.0663  0.0011
 1565SOL     hw 6258   4.403   4.841   3.382 -0.4639  0.8826 -0.5045
 1565SOL     hw 6259   4.371   4.924   3.504 -0.1201  1.2891 -0.6875
 1565SOL     vw 6260   4.428   4.880   3.456 -0.4470  0.2377 -0.1564
 1566SOL     ow 6261   2.719   2.053   1.848 -0.6328 -0.2160 -0.1882
 1566SOL     hw 6262   2.804   2.064   1.806 -0.1812 -1.2172  0.4203
 1566SOL     hw 6263   2.690   2.142   1.868  0.7865  0.1030  0.5899
 1566SOL     vw 6264   2.726   2.066   1.845 -0.3859 -0.3060 -0.0053
 1567SOL     ow 6265   6.314   5.842   5.476 -0.0569 -0.3945  0.1128
 1567SOL     hw 6266   6.406   5.832   5.498  0.5977  1.9030 -1.2217
 1567SOL     hw 6267   6.314   5.880   5.387 -2.3392 -2.2117 -0.7806
 1567SOL     vw 6268   6.326   5.846   5.467 -0.2718 -0.3307 -0.1810
 1568SOL     ow 6269   0.278   2.461   2.826  0.6755  0.1082  0.8257
 1568SOL     hw 6270   0.328   2.525   2.876  1.9290 -1.7511  2.0551
 1568SOL     hw 6271   0.187   2.488   2.837  1.2055  2.1809  0.5182
 1568SOL     vw 6272   0.272   2.473   2.834  0.9108  0.1364  0.9474
 1569SOL     ow 6273   6.832   0.643   3.380  0.0550  0.0429  0.3199
 1569SOL     hw 6274   6.799   0.574   3.323  1.1595  0.4262 -0.8448
 1569SOL     hw 6275   6.791   0.627   3.465 -1.7996 -0.4271 -0.6281
 1569SOL     vw 6276   6.822   0.632   3.384 -0.0436  0.0315  0.0411
 1570SOL     ow 6277   1.951   3.572   6.422 -0.1696 -0.0131 -0.3251
 1570SOL     hw 6278   1.916   3.659   6.401 -0.5406  0.0514  0.5423
 1570SOL     hw 6279   1.926   3.557   6.513 -2.4679 -2.1656 -1.1984
 1570SOL     vw 6280   1.943   3.582   6.431 -0.5217 -0.2886 -0.3262
 1571SOL     ow 6281   0.236   4.203   6.731  0.2048  0.5776 -0.4046
 1571SOL     hw 6282   0.275   4.239   6.652 -1.4886 -0.3114 -1.7163
 1571SOL     hw 6283   0.237   4.275   6.794  3.5788  0.6753 -0.4267
 1571SOL     vw 6284   0.241   4.217   6.729  0.4265  0.4733 -0.5803
 1572SOL     ow 6285   0.871   2.859   6.218 -0.5704  0.7860 -0.4004
 1572SOL     hw 6286   0.859   2.765   6.229  0.7324  0.6267 -0.2165
 1572SOL     hw 6287   0.867   2.872   6.123  0.7596  0.3026 -0.5463
 1572SOL     vw 6288   0.869   2.848   6.207 -0.2231  0.7012 -0.3953
 1573SOL     ow 6289   5.570   5.903   0.086  0.6750  0.4144 -1.0815
 1573SOL     hw 6290   5.499   5.951   0.127  1.2418  1.0248 -0.8072
 1573SOL     hw 6291   5.548   5.903  -0.007 -0.0847 -0.0971 -0.9175
 1573SOL     vw 6292   5.558   5.909   0.079  0.6495  0.4275 -1.0237
 1574SOL     ow 6293   0.439   6.201   0.128 -1.0576 -0.0498 -0.0431
 1574SOL     hw 6294   0.442   6.278   0.185  1.2766 -1.7767  2.4330
 1574SOL     hw 6295   0.346   6.180   0.121 -1.6346  2.0768  0.4826
 1574SOL     vw 6296   0.427   6.209   0.135 -0.8258  0.0029  0.3529
 1575SOL     ow 6297   2.874   1.316   3.645  0.2956  0.9320 -0.2855
 1575SOL     hw 6298   2.914   1.360   3.720 -1.5578  1.1419  0.6254
 1575SOL     hw 6299   2.823   1.245   3.683 -0.3156  0.7587 -1.3866
 1575SOL     vw 6300   2.873   1.313   3.660 -0.0297  0.9368 -0.3107
 1576SOL     ow 6301   4.115   2.500   4.777 -0.3191  0.5303  0.3374
 1576SOL     hw 6302   4.155   2.580   4.808 -1.0943  1.4370 -0.9020
 1576SOL     hw 6303   4.168   2.473   4.702 -0.4716  0.2608  0.3227
 1576SOL     vw 6304   4.127   2.507   4.771 -0.4416  0.6145  0.1721
 1577SOL     ow 6305   5.136   4.561   0.256 -0.4206 -0.6270 -0.1790
 1577SOL     hw 6306   5.075   4.611   0.310  0.2342  1.3416 -1.1594
 1577SOL     hw 6307   5.221   4.599   0.274 -0.3455  1.4653 -3.8173
 1577SOL     vw 6308   5.139   4.572   0.265 -0.3242 -0.0913 -0.7884
 1578SOL     ow 6309   3.659   5.520   0.623  0.8199 -0.5187  0.0731
 1578SOL     hw 6310   3.660   5.449   0.558  0.2979 -1.5350  1.1307
 1578SOL     hw 6311   3.751   5.537   0.641  1.1201  1.6714 -2.8637
 1578SOL     vw 6312   3.671   5.513   0.617  0.7907 -0.3638 -0.1749
 1579SOL     ow 6313   6.488   1.939   0.903  0.2923  0.1712  0.2984
 1579SOL     hw 6314   6.420   1.881   0.870  0.0055  0.3809  0.5148
 1579SOL     hw 6315   6.496   1.915   0.996  1.4489 -0.7662 -0.0250
 1579SOL     vw 6316   6.480   1.928   0.911  0.4072  0.0753  0.2843
 1580SOL     ow 6317   7.171   0.913   5.242 -0.0623 -0.8168  0.0508
 1580SOL     hw 6318   7.262   0.938   5.224 -0.4243  2.0603  1.6463
 1580SOL     hw 6319   7.174   0.818   5.249  3.0385 -0.7557  1.0773
 1580SOL     vw 6320   7.184   0.904   5.240  0.2987 -0.4292  0.3970
 1581SOL     ow 6321   4.704   3.893   5.242 -0.0728  0.3725  0.7879
 1581SOL     hw 6322   4.714   3.877   5.148  1.7569  1.1012  0.8076
 1581SOL     hw 6323   4.763   3.831   5.284  1.6931  2.2034  1.2126
 1581SOL     vw 6324   4.713   3.883   5.235  0.4017  0.7101  0.8464
 1582SOL     ow 6325   6.207   5.565   2.736  0.2776 -0.0613  0.3857
 1582SOL     hw 6326   6.153   5.576   2.658  1.1248 -0.0109 -0.2160
 1582SOL     hw 6327   6.182   5.637   2.794  1.8130  1.8488 -1.1512
 1582SOL     vw 6328   6.197   5.576   2.734  0.5922  0.1974  0.1035
 1583SOL     ow 6329   0.724   0.053   6.218 -0.2996  0.2493  0.3251
 1583SOL     hw 6330   0.714  -0.033   6.178  0.1503  0.1501  0.4252
 1583SOL     hw 6331   0.634   0.083   6.232 -0.5043 -0.9636  1.9279
 1583SOL     vw 6332   0.711   0.046   6.214 -0.2673  0.0763  0.5498
 1584SOL     ow 6333   3.657   2.127   5.525  0.0598 -0.1213 -0.2723
 1584SOL     hw 6334   3.732   2.078   5.559  0.3547  1.8716  2.2576
 1584SOL     hw 6335   3.585   2.104   5.583  0.2098  2.2858  1.0064
 1584SOL     vw 6336   3.657   2.118   5.537  0.1185  0.4592  0.2306
 1585SOL     ow 6337   2.149   0.092   3.207  0.5216  0.5724  0.4855
 1585SOL     hw 6338   2.162   0.187   3.202  2.7710  0.3335  0.8104
 1585SOL     hw 6339   2.062   0.078   3.169  1.5489  2.4217 -3.0154
 1585SOL     vw 6340   2.139   0.103   3.201  0.9539  0.7849  0.0664
 1586SOL     ow 6341   6.041   3.518   5.142 -0.4893  0.3897  0.5835
 1586SOL     hw 6342   6.109   3.461   5.179 -1.7646 -0.6405  1.4248
 1586SOL     hw 6343   6.054   3.602   5.187  0.8087  0.5172  0.0253
 1586SOL     vw 6344   6.052   3.521   5.153 -0.4864  0.2706  0.6208
 1587SOL     ow 6345   0.913   3.119   6.370 -0.3945 -0.2345 -0.2004
 1587SOL     hw 6346   0.987   3.177   6.388 -0.7853 -0.0039  0.6916
 1587SOL     hw 6347   0.866   3.162   6.298 -0.2463  0.1534 -0.0698
 1587SOL     vw 6348   0.917   3.132   6.363 -0.4265 -0.1529 -0.0658
 1588SOL     ow 6349   6.882   2.476   5.622  0.1228  0.5409  0.8324
 1588SOL     hw 6350   6.792   2.507   5.625 -1.6873 -3.6161 -1.3256
 1588SOL     hw 6351   6.912   2.497   5.534  1.4697  2.1794  1.6399
 1588SOL     vw 6352   6.874   2.483   5.611  0.0620  0.2086  0.6542
 1589SOL     ow 6353   4.747   5.622   2.226 -0.2895 -0.2801  0.2348
 1589SOL     hw 6354   4.727   5.709   2.259 -0.2792  0.0820 -0.6761
 1589SOL     hw 6355   4.826   5.634   2.173 -1.3773 -0.4375 -1.5169
 1589SOL     vw 6356   4.755   5.635   2.223 -0.4318 -0.2530 -0.1165
 1590SOL     ow 6357   5.442   1.419   5.172 -0.5261  0.0528 -0.3572
 1590SOL     hw 6358   5.399   1.419   5.087  0.6883 -0.5827 -1.0135
 1590SOL     hw 6359   5.530   1.452   5.154 -0.2875  0.0268  0.6795
 1590SOL     vw 6360   5.448   1.423   5.159 -0.3343 -0.0345 -0.3071
 1591SOL     ow 6361   4.971   7.040   6.898  0.2305  0.1984 -0.7179
 1591SOL     hw 6362   5.041   6.975   6.899 -0.5839 -0.7066  0.3622
 1591SOL     hw 6363   5.005   7.113   6.949 -1.0708 -1.9635  3.7773
 1591SOL     vw 6364   4.985   7.041   6.905 -0.0484 -0.2062  0.0179
 1592SOL     ow 6365   2.770   6.544   3.299  0.4760  0.5000  0.5404
 1592SOL     hw 6366   2.794   6.602   3.371 -1.9101  1.3928  0.7180
 1592SOL     hw 6367   2.810   6.460   3.321  0.7636  1.0642  2.3069
 1592SOL     vw 6368   2.778   6.541   3.312  0.1992  0.6924  0.7969
 1593SOL     ow 6369   5.941   3.587   6.279 -0.5535 -0.7019  0.4864
 1593SOL     hw 6370   5.981   3.511   6.322 -1.0142 -1.9835 -1.2255
 1593SOL     hw 6371   6.014   3.635   6.242 -0.3807 -1.7982 -0.6824
 1593SOL     vw 6372   5.956   3.583   6.280 -0.5915 -1.0155  0.1063
 1594SOL     ow 6373   4.732   0.972   0.360  0.3447 -0.0779  0.4965
 1594SOL     hw 6374   4.684   0.988   0.278 -0.9399 -1.9524  0.8099
 1594SOL     hw 6375   4.664   0.971   0.427  1.0020 -1.3419  1.1767
 1594SOL     vw 6376   4.717   0.974   0.358  0.2618 -0.4920  0.6276
 1595SOL     ow 6377   7.102   4.281   2.073  0.7239  0.1970 -0.4417
 1595SOL     hw 6378   7.050   4.298   2.152  1.1440 -0.5784  0.0049
 1595SOL     hw 6379   7.050   4.219   2.023  0.1162  1.2298 -1.1417
 1595SOL     vw 6380   7.088   4.275   2.077  0.6990  0.2308 -0.4752
 1596SOL     ow 6381   2.117   4.034   7.015  0.0846  0.2141 -1.0607
 1596SOL     hw 6382   2.061   4.088   6.959  0.0224  1.4609  0.1386
 1596SOL     hw 6383   2.083   3.945   7.004 -0.3418  0.5246 -2.4679
 1596SOL     vw 6384   2.105   4.030   7.006  0.0200  0.4194 -1.0881
 1597SOL     ow 6385   6.421   4.461   2.899 -0.2661 -0.8353  0.2474
 1597SOL     hw 6386   6.502   4.429   2.939  0.9449 -1.0785 -2.1835
 1597SOL     hw 6387   6.428   4.556   2.902 -0.4103 -0.8437  0.9902
 1597SOL     vw 6388   6.433   4.469   2.905 -0.1252 -0.8688  0.0248
 1598SOL     ow 6389   4.765   0.251   3.998  0.5221  0.3067 -0.2695
 1598SOL     hw 6390   4.703   0.274   3.929 -0.4578  0.4418  0.6350
 1598SOL     hw 6391   4.787   0.334   4.039  1.5889  0.3061 -0.7885
 1598SOL     vw 6392   4.760   0.265   3.994  0.5333  0.3245 -0.2185
 1599SOL     ow 6393   1.550   4.340   4.250 -0.0280 -0.2348 -0.3791
 1599SOL     hw 6394   1.571   4.254   4.215 -2.6425 -1.5812  1.0498
 1599SOL     hw 6395   1.573   4.335   4.343  2.7067  1.7833 -0.7967
 1599SOL     vw 6396   1.556   4.328   4.258 -0.0121 -0.1464 -0.2458
 1600SOL     ow 6397   1.305   3.794   0.798  1.0472 -0.4910 -0.2371
 1600SOL     hw 6398   1.360   3.838   0.863  1.1015 -0.4666 -0.2996
 1600SOL     hw 6399   1.343   3.707   0.789  1.2688 -0.3670 -0.5158
 1600SOL     vw 6400   1.317   3.789   0.805  1.0836 -0.4715 -0.2821
 1601SOL     ow 6401   5.361   5.337   6.215  0.1075 -0.0751 -0.0878
 1601SOL     hw 6402   5.327   5.248   6.208  1.2566 -0.4664 -1.1647
 1601SOL     hw 6403   5.358   5.358   6.308  0.2992 -1.4452  0.2365
 1601SOL     vw 6404   5.356   5.328   6.226  0.2844 -0.3073 -0.1874
 1602SOL     ow 6405   1.944   3.267   6.486  0.0687  0.2823 -0.2989
 1602SOL     hw 6406   1.913   3.179   6.464  2.4115 -0.7854  0.2801
 1602SOL     hw 6407   1.949   3.267   6.582  4.2261 -0.6970 -0.3181
 1602SOL     vw 6408   1.941   3.255   6.496  0.9263  0.0123 -0.2251
 1603SOL     ow 6409   5.354   1.314   3.002  1.0615 -0.3259  0.2578
 1603SOL     hw 6410   5.274   1.367   2.998  0.4213 -1.2529  0.2706
 1603SOL     hw 6411   5.395   1.337   3.085  2.7868  2.8604 -1.2845
 1603SOL     vw 6412   5.349   1.324   3.012  1.2043 -0.0278  0.0561
 1604SOL     ow 6413   2.843   0.692   4.051  0.7037  0.1191 -0.5405
 1604SOL     hw 6414   2.764   0.737   4.079 -0.2429 -1.9205  0.2710
 1604SOL     hw 6415   2.914   0.736   4.099 -0.1190  1.0113 -0.1190
 1604SOL     vw 6416   2.842   0.703   4.061  0.4700 -0.0323 -0.3779
 1605SOL     ow 6417   1.526   4.636   0.858 -0.5184  0.2130 -0.0118
 1605SOL     hw 6418   1.537   4.596   0.944 -0.9809  0.1686  0.0324
 1605SOL     hw 6419   1.560   4.571   0.797 -0.3123  0.1888  0.1298
 1605SOL     vw 6420   1.532   4.622   0.861 -0.5522  0.2041  0.0128
 1606SOL     ow 6421   7.198   7.173   3.783  0.4182  0.4702  0.0592
 1606SOL     hw 6422   7.245   7.147   3.704 -0.5386  1.2926 -0.8192
 1606SOL     hw 6423   7.220   7.266   3.794 -1.0778  0.9119 -0.4656
 1606SOL     vw 6424   7.207   7.182   3.774  0.0947  0.6366 -0.1259
 1607SOL     ow 6425   5.856   0.565   1.325  0.6023 -0.3203  0.2038
 1607SOL     hw 6426   5.882   0.637   1.383  0.4537  0.6026 -0.8368
 1607SOL     hw 6427   5.761   0.570   1.323  0.2509 -2.7438  2.8091
 1607SOL     vw 6428   5.847   0.575   1.333  0.5362 -0.5183  0.4102
 1608SOL     ow 6429   6.450   2.940   5.447  0.1632  0.2249 -1.2593
 1608SOL     hw 6430   6.523   2.988   5.487 -1.3851  1.0033  0.8366
 1608SOL     hw 6431   6.386   3.007   5.426 -0.7035 -0.6081 -1.3336
 1608SOL     vw 6432   6.451   2.955   5.450 -0.1552  0.2177 -0.9925
 1609SOL     ow 6433   3.888   2.850   1.895 -0.1284  0.2927  0.0510
 1609SOL     hw 6434   3.876   2.792   1.820  0.4474 -1.0656  0.9729
 1609SOL     hw 6435   3.983   2.857   1.905 -0.1811  1.3774 -0.0061
 1609SOL     vw 6436   3.899   2.844   1.886 -0.0594  0.2567  0.1651
 1610SOL     ow 6437   6.847   6.864   0.757  0.1653 -0.1101 -0.6262
 1610SOL     hw 6438   6.789   6.898   0.689  0.4514  1.9890  0.1002
 1610SOL     hw 6439   6.826   6.771   0.762 -3.1180  0.5246 -0.4349
 1610SOL     vw 6440   6.837   6.856   0.749 -0.2301  0.2503 -0.5051
 1611SOL     ow 6441   6.753   4.387   5.623  0.0127 -0.4111 -0.3157
 1611SOL     hw 6442   6.713   4.346   5.700  2.5067 -3.1442 -0.2881
 1611SOL     hw 6443   6.790   4.469   5.656 -2.1744  0.3492  0.4435
 1611SOL     vw 6444   6.753   4.393   5.637  0.0532 -0.6711 -0.2120
 1612SOL     ow 6445   2.126   2.419   4.831  0.1114 -0.2529  0.1280
 1612SOL     hw 6446   2.142   2.490   4.893 -1.6155 -1.5381  2.1876
 1612SOL     hw 6447   2.064   2.456   4.767  0.8856  0.6933 -0.0896
 1612SOL     vw 6448   2.120   2.433   4.830 -0.0143 -0.2975  0.3710
 1613SOL     ow 6449   5.511   0.262   6.771  0.1816  0.6757 -0.0971
 1613SOL     hw 6450   5.471   0.242   6.855 -0.1368  2.3156  0.1824
 1613SOL     hw 6451   5.567   0.338   6.788 -0.3059  1.3726 -1.4518
 1613SOL     vw 6452   5.513   0.270   6.784  0.0753  0.9840 -0.2389
 1614SOL     ow 6453   0.533   4.789   0.379  0.3478 -0.0383 -0.2572
 1614SOL     hw 6454   0.525   4.817   0.288  1.4702 -1.3972 -0.8165
 1614SOL     hw 6455   0.627   4.792   0.396  0.1648  0.0103  0.7983
 1614SOL     vw 6456   0.545   4.793   0.369  0.4718 -0.2112 -0.1917
 1615SOL     ow 6457   1.502   5.172   3.985 -0.5516 -0.1507 -0.3199
 1615SOL     hw 6458   1.575   5.230   3.965 -0.7440  0.2073 -0.0105
 1615SOL     hw 6459   1.524   5.135   4.071 -2.0347  2.1436  1.1505
 1615SOL     vw 6460   1.515   5.175   3.994 -0.7727  0.1993 -0.0851
 1616SOL     ow 6461   5.933   0.080   3.251 -0.3920 -0.0841  0.5984
 1616SOL     hw 6462   5.879   0.053   3.325  0.3418 -3.3136  0.0848
 1616SOL     hw 6463   5.946   0.000   3.200  0.1360  1.7484 -2.4063
 1616SOL     vw 6464   5.927   0.066   3.254 -0.2255 -0.2684  0.1342
 1617SOL     ow 6465   0.164   0.960   2.088  0.1111 -0.6749 -0.0969
 1617SOL     hw 6466   0.235   1.018   2.115 -2.0388  0.8468  2.9988
 1617SOL     hw 6467   0.201   0.872   2.091  2.7643  0.2245 -2.3071
 1617SOL     vw 6468   0.178   0.956   2.092  0.1775 -0.3555  0.0199
 1618SOL     ow 6469   0.007   6.964   0.934 -0.0938  0.2427 -0.0427
 1618SOL     hw 6470  -0.046   7.018   0.993 -0.8688 -0.2114 -0.3125
 1618SOL     hw 6471  -0.019   6.993   0.846 -0.6591 -0.6905 -0.1942
 1618SOL     vw 6472  -0.003   6.975   0.930 -0.2708  0.0596 -0.0983
 1619SOL     ow 6473   0.007   0.178   1.823 -0.2972  0.5524 -0.0585
 1619SOL     hw 6474   0.015   0.202   1.916 -0.8084 -2.2178  0.7807
 1619SOL     hw 6475  -0.086   0.158   1.813 -0.2889  1.0634 -1.2734
 1619SOL     vw 6476  -0.005   0.179   1.834 -0.3636  0.2543 -0.1079
 1620SOL     ow 6477   2.671   5.149   0.380  0.0768  0.3876 -0.6111
 1620SOL     hw 6478   2.714   5.120   0.300  0.1418  0.0184 -0.4467
 1620SOL     hw 6479   2.626   5.070   0.412  3.9085 -0.9429  2.2891
 1620SOL     vw 6480   2.671   5.134   0.374  0.5909  0.1628 -0.2067
 1621SOL     ow 6481   2.986   5.936   6.665  0.3444  0.1223  0.0612
 1621SOL     hw 6482   2.976   6.023   6.627 -1.0163  0.6105  1.4395
 1621SOL     hw 6483   2.929   5.880   6.613 -0.1238  0.4179  0.2539
 1621SOL     vw 6484   2.978   5.940   6.653  0.1030  0.2255  0.2682
 1622SOL     ow 6485   0.417   1.669   2.022 -1.2458  0.0422  0.6890
 1622SOL     hw 6486   0.393   1.747   1.972 -0.1891 -1.2128 -1.9971
 1622SOL     hw 6487   0.468   1.702   2.095 -1.9557  1.9458  0.3984
 1622SOL     vw 6488   0.420   1.684   2.025 -1.2001  0.1277  0.2965
 1623SOL     ow 6489   1.507   3.095   0.433  0.4843  0.1106  0.0664
 1623SOL     hw 6490   1.549   3.162   0.380 -1.5225  2.3593  1.0982
 1623SOL     hw 6491   1.577   3.035   0.457  1.9231  0.4369 -2.9059
 1623SOL     vw 6492   1.522   3.096   0.429  0.4094  0.4503 -0.1896
 1624SOL     ow 6493   3.875   3.570   4.207  0.2905  0.0176 -0.0371
 1624SOL     hw 6494   3.845   3.521   4.130  1.0083  3.2281 -2.5650
 1624SOL     hw 6495   3.928   3.507   4.256 -0.2541 -2.2084 -2.1199
 1624SOL     vw 6496   3.878   3.555   4.203  0.3133  0.1475 -0.6452
 1625SOL     ow 6497   1.469   7.184   0.896 -0.3544  0.0767  0.2732
 1625SOL     hw 6498   1.463   7.140   0.981  1.4157  0.8767  0.8626
 1625SOL     hw 6499   1.444   7.274   0.914 -0.7646  0.0596 -0.2248
 1625SOL     vw 6500   1.465   7.190   0.910 -0.1750  0.1802  0.2853
 1626SOL     ow 6501   5.209   6.320   1.025  1.0865 -0.0148 -0.8388
 1626SOL     hw 6502   5.186   6.331   1.117  0.8258  1.0255 -1.0185
 1626SOL     hw 6503   5.125   6.317   0.979  1.1874 -1.2838 -0.9800
 1626SOL     vw 6504   5.195   6.321   1.031  1.0655 -0.0451 -0.8811
 1627SOL     ow 6505   0.378   4.012   6.870 -0.4337  0.4071 -0.3879
 1627SOL     hw 6506   0.440   3.940   6.880 -1.7260 -1.4913 -4.0735
 1627SOL     hw 6507   0.425   4.089   6.901  0.8937 -1.8825  4.2650
 1627SOL     vw 6508   0.392   4.012   6.876 -0.4291 -0.1454 -0.2604
 1628SOL     ow 6509   0.521   0.202   6.748 -0.1316  0.3401  0.4025
 1628SOL     hw 6510   0.547   0.193   6.840 -3.3963 -0.5929  1.3369
 1628SOL     hw 6511   0.519   0.297   6.734 -1.9900  0.6262  2.1307
 1628SOL     vw 6512   0.524   0.214   6.758 -0.8075  0.2548  0.7539
 1629SOL     ow 6513   1.712   7.174   1.129 -0.3074 -0.3364  0.1805
 1629SOL     hw 6514   1.633   7.182   1.184  0.3594  0.2330  1.0888
 1629SOL     hw 6515   1.738   7.265   1.112 -0.2050 -0.5150 -0.6619
 1629SOL     vw 6516   1.705   7.187   1.134 -0.2059 -0.2844  0.1892
 1630SOL     ow 6517   4.861   4.097   6.343 -0.2578  0.1353 -0.2139
 1630SOL     hw 6518   4.820   4.053   6.269 -1.0965 -3.0136  1.9554
 1630SOL     hw 6519   4.788   4.120   6.401  0.6082 -2.3818  2.0699
 1630SOL     vw 6520   4.846   4.095   6.341 -0.2544 -0.6123  0.3738
 1631SOL     ow 6521   2.859   1.753   4.762 -0.2258  0.3456  0.9498
 1631SOL     hw 6522   2.807   1.690   4.812 -1.2194 -0.2102 -0.6794
 1631SOL     hw 6523   2.946   1.714   4.757 -1.1910 -1.8151 -1.3546
 1631SOL     vw 6524   2.863   1.740   4.768 -0.4842 -0.0128  0.4308
 1632SOL     ow 6525   3.472   2.940   0.790  0.4234 -0.0030  0.5896
 1632SOL     hw 6526   3.390   2.981   0.815  0.4390  0.1441  0.4024
 1632SOL     hw 6527   3.534   2.964   0.859  0.0326 -1.0326  1.3134
 1632SOL     vw 6528   3.470   2.948   0.802  0.3740 -0.1193  0.6604
 1633SOL     ow 6529   0.983   2.804   5.384 -0.3233  0.0173  0.5420
 1633SOL     hw 6530   1.038   2.767   5.315 -2.5425  0.2758 -1.4941
 1633SOL     hw 6531   1.003   2.898   5.382  0.9536 -0.2032  1.5874
 1633SOL     vw 6532   0.993   2.812   5.374 -0.4476  0.0223  0.4110
 1634SOL     ow 6533   3.860   0.756   6.998 -0.4689  0.4029  0.6764
 1634SOL     hw 6534   3.871   0.749   6.903  0.5322 -3.0462  0.8979
 1634SOL     hw 6535   3.767   0.741   7.012 -0.8174  1.9592  0.2500
 1634SOL     vw 6536   3.849   0.753   6.987 -0.3829  0.1532  0.6492
 1635SOL     ow 6537   0.028   3.031   0.122  0.2397 -0.8695 -0.4407
 1635SOL     hw 6538   0.020   3.114   0.170  1.5860 -0.8104 -0.2715
 1635SOL     hw 6539  -0.057   3.019   0.080  0.2700  1.0297 -1.1567
 1635SOL     vw 6540   0.016   3.040   0.123  0.4214 -0.6112 -0.5128
 1636SOL     ow 6541   1.840   6.766   1.240  0.2195  0.1232  0.4276
 1636SOL     hw 6542   1.763   6.714   1.262  0.8641 -1.7372 -1.3437
 1636SOL     hw 6543   1.914   6.708   1.258  0.9328 -0.0605 -2.5454
 1636SOL     vw 6544   1.840   6.752   1.245  0.3987 -0.1464 -0.1982
 1637SOL     ow 6545   4.446   4.506   3.906 -0.2949  0.0704 -0.2837
 1637SOL     hw 6546   4.472   4.580   3.850  1.7297 -0.6540 -0.3793
 1637SOL     hw 6547   4.351   4.504   3.900 -0.2224  0.6176 -2.9650
 1637SOL     vw 6548   4.437   4.516   3.898 -0.0184  0.0470 -0.6500
 1638SOL     ow 6549   5.023   4.853   3.292 -0.3821 -0.1735 -0.0299
 1638SOL     hw 6550   5.050   4.944   3.280  0.4391  0.3634  4.3167
 1638SOL     hw 6551   4.930   4.852   3.267 -0.6480  2.0890  0.6519
 1638SOL     vw 6552   5.014   4.865   3.287 -0.3090  0.1957  0.6334
 1639SOL     ow 6553   6.833   3.751   7.340 -0.0418 -0.2500  0.0504
 1639SOL     hw 6554   6.828   3.730   7.247 -1.2423 -1.7619  0.4125
 1639SOL     hw 6555   6.923   3.728   7.365  0.1093 -0.3959 -0.6172
 1639SOL     vw 6556   6.844   3.745   7.331 -0.1802 -0.4686  0.0100
 1640SOL     ow 6557   1.154   5.312   0.598  0.2369 -0.7651  0.1600
 1640SOL     hw 6558   1.180   5.247   0.533 -0.4164  1.2817 -2.2940
 1640SOL     hw 6559   1.085   5.269   0.649 -0.0169 -2.0836 -1.2295
 1640SOL     vw 6560   1.148   5.298   0.596  0.1172 -0.6690 -0.3471
 1641SOL     ow 6561   2.538   5.423   4.648 -0.5970 -0.3349  0.3401
 1641SOL     hw 6562   2.513   5.506   4.607  1.4542  0.5472  0.7250
 1641SOL     hw 6563   2.495   5.425   4.734  1.0850  1.4070  1.2264
 1641SOL     vw 6564   2.529   5.434   4.654 -0.1043  0.0114  0.5076
 1642SOL     ow 6565   0.230   7.216   4.976  0.0532  0.1416  0.1651
 1642SOL     hw 6566   0.142   7.247   4.954 -0.3078 -0.4308  0.7781
 1642SOL     hw 6567   0.231   7.125   4.946  0.6235  0.3012 -0.3254
 1642SOL     vw 6568   0.219   7.208   4.969  0.0809  0.0873  0.1814
 1643SOL     ow 6569   5.750   3.080   4.289  0.2807 -0.4806 -0.5288
 1643SOL     hw 6570   5.794   3.011   4.339 -0.4771 -0.0163  0.8235
 1643SOL     hw 6571   5.678   3.034   4.245 -1.6176 -0.2860  2.1285
 1643SOL     vw 6572   5.746   3.065   4.290 -0.0696 -0.3937 -0.0002
 1644SOL     ow 6573   6.309   2.572   4.987 -0.0667  0.7064 -0.5505
 1644SOL     hw 6574   6.290   2.481   4.961 -0.3787  0.6744 -0.1995
 1644SOL     hw 6575   6.226   2.607   5.016  0.3508  0.6130  0.8268
 1644SOL     vw 6576   6.296   2.564   4.987 -0.0529  0.6899 -0.3223
 1645SOL     ow 6577   3.244   5.630   0.566 -0.1152  0.2034 -0.0497
 1645SOL     hw 6578   3.236   5.535   0.576 -1.4128  0.2977 -0.1162
 1645SOL     hw 6579   3.275   5.642   0.476  0.1427 -0.1512 -0.0119
 1645SOL     vw 6580   3.247   5.619   0.556 -0.2524  0.1688 -0.0535
 1646SOL     ow 6581   7.035   5.090   2.331  0.6675 -0.1877 -0.1320
 1646SOL     hw 6582   7.122   5.124   2.307  1.0453 -0.1930  1.1461
 1646SOL     hw 6583   6.999   5.058   2.249  1.5383  0.5670 -0.8393
 1646SOL     vw 6584   7.042   5.090   2.317  0.8323 -0.0889 -0.0567
 1647SOL     ow 6585   5.099   1.972   5.707 -0.0605 -0.2677  0.2335
 1647SOL     hw 6586   5.161   1.963   5.780 -1.0224  1.5877  1.3812
 1647SOL     hw 6587   5.057   1.886   5.700  0.0205 -0.4888  1.9455
 1647SOL     vw 6588   5.101   1.960   5.716 -0.1767 -0.0520  0.6111
 1648SOL     ow 6589   2.345   1.323   1.912 -0.0122 -0.3141 -0.0552
 1648SOL     hw 6590   2.429   1.311   1.956  1.7481  2.4494 -2.3152
 1648SOL     hw 6591   2.363   1.304   1.820 -1.8615  0.3983 -0.6114
 1648SOL     vw 6592   2.358   1.319   1.906 -0.0240  0.1445 -0.4268
 1649SOL     ow 6593   4.611   2.210   7.346 -0.2924  0.1145  0.0857
 1649SOL     hw 6594   4.658   2.235   7.266 -0.2123 -1.0438 -0.2486
 1649SOL     hw 6595   4.521   2.240   7.331  0.6041  4.4041  1.6408
 1649SOL     vw 6596   4.605   2.218   7.333 -0.1636  0.5275  0.2468
 1650SOL     ow 6597   2.892   1.282   3.354  0.6079  0.3437  0.4363
 1650SOL     hw 6598   2.917   1.313   3.267 -1.5139  2.6371  0.5216
 1650SOL     hw 6599   2.836   1.207   3.338 -0.0634  0.9698 -0.2261
 1650SOL     vw 6600   2.888   1.276   3.341  0.2394  0.7290  0.3601
 1651SOL     ow 6601   3.580   7.325   2.131 -0.0555 -0.1811  0.0767
 1651SOL     hw 6602   3.550   7.267   2.061 -2.3670  0.3521  0.5099
 1651SOL     hw 6603   3.569   7.273   2.211 -1.3774  0.5003  0.3858
 1651SOL     vw 6604   3.574   7.310   2.133 -0.5349 -0.0207  0.1745
 1652SOL     ow 6605   3.628   5.679   5.159 -0.4840  0.0057  0.3384
 1652SOL     hw 6606   3.644   5.767   5.125  1.0127  0.3683  1.8323
 1652SOL     hw 6607   3.609   5.692   5.252 -2.0441 -1.1316  0.2161
 1652SOL     vw 6608   3.627   5.692   5.167 -0.4925 -0.0966  0.5193
 1653SOL     ow 6609   5.570   3.021   6.973 -0.4603  0.1847  0.5917
 1653SOL     hw 6610   5.587   2.928   6.960 -3.6536 -0.0705 -3.6064
 1653SOL     hw 6611   5.602   3.062   6.893 -0.2590  2.5752  1.8198
 1653SOL     vw 6612   5.577   3.014   6.961 -0.8550  0.4663  0.2000
 1654SOL     ow 6613   6.134   5.698   3.235 -0.7163 -0.0775 -0.2772
 1654SOL     hw 6614   6.050   5.744   3.228 -0.4103  0.4380 -0.5998
 1654SOL     hw 6615   6.118   5.613   3.195 -0.3996  0.9552 -2.8021
 1654SOL     vw 6616   6.121   5.693   3.229 -0.6340  0.1268 -0.6529
 1655SOL     ow 6617   0.460   3.228   6.835 -0.0832  0.1236 -0.0447
 1655SOL     hw 6618   0.503   3.292   6.892 -1.5568  0.0432  1.2269
 1655SOL     hw 6619   0.478   3.143   6.876 -0.0104 -0.0660 -0.4656
 1655SOL     vw 6620   0.468   3.225   6.848 -0.2680  0.0880  0.0677
 1656SOL     ow 6621   0.507   1.759   1.425 -0.0108 -0.4134 -0.2643
 1656SOL     hw 6622   0.432   1.722   1.472  0.1004  0.5784  0.7404
 1656SOL     hw 6623   0.485   1.747   1.332 -0.1094 -2.6741 -0.0140
 1656SOL     vw 6624   0.494   1.753   1.419 -0.0091 -0.5808 -0.0986
 1657SOL     ow 6625   1.578   6.343   1.103  0.2103  0.0810 -0.6400
 1657SOL     hw 6626   1.624   6.267   1.068  0.4279 -0.2921  0.4388
 1657SOL     hw 6627   1.527   6.309   1.177 -1.0245  0.6687 -1.1761
 1657SOL     vw 6628   1.577   6.328   1.108  0.0761  0.1094 -0.5684
 1658SOL     ow 6629   1.529   2.007   4.015 -0.2240  0.2981 -0.2221
 1658SOL     hw 6630   1.525   2.078   3.950 -0.3103 -0.9263 -1.6171
 1658SOL     hw 6631   1.512   1.928   3.964  2.7361 -1.0590  0.7057
 1658SOL     vw 6632   1.526   2.006   4.000  0.1552 -0.0424 -0.2836
 1659SOL     ow 6633   4.051   5.536   3.754 -1.0197 -0.6260 -1.3093
 1659SOL     hw 6634   3.962   5.553   3.787 -0.5331  0.6357 -0.5598
 1659SOL     hw 6635   4.067   5.444   3.774 -1.6072 -0.4749 -0.0631
 1659SOL     vw 6636   4.041   5.526   3.761 -1.0328 -0.4396 -1.0459
 1660SOL     ow 6637   2.589   5.006   3.848 -0.2067  0.4318  0.0220
 1660SOL     hw 6638   2.659   4.981   3.788  0.7021  0.3363  1.1079
 1660SOL     hw 6639   2.572   5.098   3.828  0.0924  0.4032 -0.3678
 1660SOL     vw 6640   2.596   5.015   3.837 -0.0473  0.4156  0.1138
 1661SOL     ow 6641   4.217   2.607   4.495 -0.7746  0.8603  0.4102
 1661SOL     hw 6642   4.124   2.614   4.474 -0.3194 -0.0913 -2.2427
 1661SOL     hw 6643   4.230   2.514   4.514 -0.3807  1.0285  0.9904
 1661SOL     vw 6644   4.206   2.596   4.495 -0.6626  0.7569  0.1364
 1662SOL     ow 6645   1.796   2.780   5.850  0.4175  0.1431  0.5501
 1662SOL     hw 6646   1.729   2.846   5.834  0.1585 -1.0169 -5.2758
 1662SOL     hw 6647   1.878   2.823   5.829  0.3257 -0.9090 -2.4059
 1662SOL     vw 6648   1.798   2.794   5.845  0.3712 -0.1487 -0.6087
 1663SOL     ow 6649   4.463   4.667   5.165  0.9524 -0.7375 -0.3486
 1663SOL     hw 6650   4.544   4.717   5.176  0.9917 -0.6739 -0.9317
 1663SOL     hw 6651   4.489   4.576   5.183  0.8501 -0.5478  0.8556
 1663SOL     vw 6652   4.477   4.661   5.169  0.9441 -0.7038 -0.2668
 1664SOL     ow 6653   0.170   6.928   5.702  0.2919  0.0223 -0.1388
 1664SOL     hw 6654   0.250   6.979   5.717  0.7726 -0.6783 -0.2530
 1664SOL     hw 6655   0.099   6.985   5.732  0.8807  0.4224  0.5199
 1664SOL     vw 6656   0.171   6.943   5.708  0.4330 -0.0176 -0.0670
 1665SOL     ow 6657   6.735   2.315   4.163 -0.3056 -0.0060  0.1221
 1665SOL     hw 6658   6.699   2.315   4.252 -0.3967  1.3571  0.1114
 1665SOL     hw 6659   6.829   2.325   4.175 -0.0486 -1.9691  0.0995
 1665SOL     vw 6660   6.743   2.316   4.176 -0.2840 -0.0852  0.1175
 1666SOL     ow 6661   5.423   5.630   3.811  0.7403  0.1482 -0.5642
 1666SOL     hw 6662   5.350   5.658   3.754  1.8529  1.6295 -1.3310
 1666SOL     hw 6663   5.430   5.700   3.876 -0.1813 -1.2779  1.1751
 1666SOL     vw 6664   5.414   5.643   3.812  0.7656  0.1557 -0.4359
 1667SOL     ow 6665   2.021   6.583   0.862 -0.1694 -1.0067  0.4281
 1667SOL     hw 6666   2.097   6.584   0.804 -0.6880 -0.9604 -0.2700
 1667SOL     hw 6667   2.056   6.602   0.949  0.1110  3.8892 -0.4828
 1667SOL     vw 6668   2.036   6.586   0.866 -0.2007 -0.3545  0.2158
 1668SOL     ow 6669   3.353   2.136   1.238 -0.3292  0.6393  0.1494
 1668SOL     hw 6670   3.354   2.099   1.149  1.2375 -2.4430  1.2899
 1668SOL     hw 6671   3.295   2.077   1.287  0.1470  1.2940  1.5267
 1668SOL     vw 6672   3.345   2.123   1.233 -0.0597  0.3191  0.4816
 1669SOL     ow 6673   7.129   2.505   5.659 -0.1005  0.2596 -0.3409
 1669SOL     hw 6674   7.141   2.532   5.568  0.8815 -0.2683 -0.3858
 1669SOL     hw 6675   7.035   2.491   5.668 -0.3158  1.1754 -1.0173
 1669SOL     vw 6676   7.119   2.507   5.648  0.0007  0.3107 -0.4358
 1670SOL     ow 6677   7.299   6.535   6.962 -0.2284  0.6304  0.2480
 1670SOL     hw 6678   7.371   6.573   6.911  0.9236  1.3136  2.3015
 1670SOL     hw 6679   7.287   6.596   7.035  0.4537 -1.9491  2.6683
 1670SOL     vw 6680   7.307   6.548   6.965  0.0136  0.3805  0.8380
 1671SOL     ow 6681   2.231   0.131   1.939  0.3188  0.2882  0.2330
 1671SOL     hw 6682   2.199   0.214   1.904 -0.2243  0.3910  0.9589
 1671SOL     hw 6683   2.152   0.079   1.955  0.6324 -0.2382  0.1095
 1671SOL     vw 6684   2.216   0.135   1.937  0.2886  0.2323  0.3124
 1672SOL     ow 6685   5.888   0.328   5.363 -0.5684  0.0952  0.1103
 1672SOL     hw 6686   5.892   0.423   5.364 -1.2682  0.1313  0.8383
 1672SOL     hw 6687   5.873   0.304   5.455  1.4759 -0.8176  0.2665
 1672SOL     vw 6688   5.887   0.337   5.375 -0.3910 -0.0205  0.2270
 1673SOL     ow 6689   2.618   6.179   7.200  0.2521  0.2883  0.3701
 1673SOL     hw 6690   2.582   6.093   7.218  0.5241  0.0852 -0.0290
 1673SOL     hw 6691   2.687   6.163   7.136 -0.1806  0.8907 -0.2583
 1673SOL     vw 6692   2.623   6.166   7.194  0.2309  0.3412  0.2344
 1674SOL     ow 6693   0.909   1.417   1.740 -0.2469  0.4654  0.1376
 1674SOL     hw 6694   0.858   1.388   1.665  0.6913 -1.8365  0.3056
 1674SOL     hw 6695   0.920   1.511   1.727 -2.6798  0.6610 -0.9757
 1674SOL     vw 6696   0.904   1.425   1.728 -0.4442  0.1875  0.0129
 1675SOL     ow 6697   2.720   3.046   6.305  0.7144 -0.3077  0.4270
 1675SOL     hw 6698   2.688   2.956   6.308 -0.5684  0.0281 -1.6008
 1675SOL     hw 6699   2.812   3.037   6.281  0.7407 -1.0676  0.7662
 1675SOL     vw 6700   2.728   3.033   6.303  0.5486 -0.3636  0.2043
 1676SOL     ow 6701   6.849   5.435   3.434  0.0908 -0.5789 -0.1130
 1676SOL     hw 6702   6.902   5.447   3.355  1.4666 -0.1891  0.8239
 1676SOL     hw 6703   6.819   5.523   3.457 -1.6741 -0.8884 -1.0627
 1676SOL     vw 6704   6.852   5.448   3.426  0.0396 -0.5686 -0.1147
 1677SOL     ow 6705   4.351   4.631   0.641  0.0227  0.4290 -0.1502
 1677SOL     hw 6706   4.284   4.671   0.586  1.2689  0.0059 -2.0561
 1677SOL     hw 6707   4.414   4.702   0.657 -0.3224  0.5473  0.7769
 1677SOL     vw 6708   4.350   4.646   0.636  0.1414  0.3889 -0.2793
 1678SOL     ow 6709   6.274   6.701   1.490 -0.1550 -0.4792  0.6026
 1678SOL     hw 6710   6.287   6.610   1.464 -0.7869 -0.3714 -0.1091
 1678SOL     hw 6711   6.200   6.699   1.550  2.3964 -0.9893  4.0756
 1678SOL     vw 6712   6.266   6.689   1.495  0.0980 -0.5324  0.9669
 1679SOL     ow 6713   6.164   2.107   3.003 -0.3192 -0.0112  0.7898
 1679SOL     hw 6714   6.208   2.120   2.920 -1.0755  1.6079  0.5989
 1679SOL     hw 6715   6.197   2.177   3.060 -2.7979  1.5044  0.5166
 1679SOL     vw 6716   6.174   2.118   3.000 -0.7463  0.4023  0.7285
 1680SOL     ow 6717   1.734   6.903   2.400 -0.4781  0.0330  0.0488
 1680SOL     hw 6718   1.693   6.844   2.337  0.4157 -0.1834 -0.3523
 1680SOL     hw 6719   1.828   6.892   2.385 -0.1763 -0.9086  2.2089
 1680SOL     vw 6720   1.741   6.894   2.390 -0.3204 -0.1197  0.2810
 1681SOL     ow 6721   6.980   6.998   1.017 -0.3083 -0.1346 -0.7589
 1681SOL     hw 6722   6.946   7.030   1.101  0.9201 -1.8627  0.4614
 1681SOL     hw 6723   6.953   7.065   0.954 -2.8767  0.3156  0.6671
 1681SOL     vw 6724   6.972   7.011   1.020 -0.4849 -0.3033 -0.4098
 1682SOL     ow 6725   5.263   2.837   5.983 -0.0594 -0.0705  0.3279
 1682SOL     hw 6726   5.339   2.790   5.949  0.3015  0.3362  0.5639
 1682SOL     hw 6727   5.296   2.885   6.059 -0.6933 -0.3933  0.8163
 1682SOL     vw 6728   5.278   2.837   5.989 -0.0951 -0.0595  0.4234
 1683SOL     ow 6729   6.470   2.819   0.752 -0.4638 -0.0945 -0.1168
 1683SOL     hw 6730   6.479   2.801   0.845  0.4722 -0.3230 -0.2389
 1683SOL     hw 6731   6.449   2.734   0.713 -0.2584 -0.1100 -0.1908
 1683SOL     vw 6732   6.468   2.805   0.759 -0.3130 -0.1267 -0.1427
 1684SOL     ow 6733   1.912   7.139   4.270  0.2726  1.1687 -0.4721
 1684SOL     hw 6734   1.914   7.073   4.339 -1.5290  1.4657 -0.0888
 1684SOL     hw 6735   1.961   7.099   4.198 -1.0148 -0.7573 -0.3642
 1684SOL     vw 6736   1.919   7.125   4.269 -0.1349  0.9534 -0.4075
 1685SOL     ow 6737   5.412   7.218   6.720 -0.1405  0.0787 -0.3002
 1685SOL     hw 6738   5.394   7.258   6.635 -2.4070  3.3555  1.5034
 1685SOL     hw 6739   5.469   7.281   6.764 -1.6821  0.0923  1.7610
 1685SOL     vw 6740   5.417   7.231   6.714 -0.6428  0.5131  0.2096
 1686SOL     ow 6741   6.826   3.181   2.108  0.7199 -0.1960 -0.3010
 1686SOL     hw 6742   6.887   3.254   2.099  2.0380 -1.3002 -0.5828
 1686SOL     hw 6743   6.775   3.182   2.026 -0.1405  1.1333  0.2163
 1686SOL     vw 6744   6.827   3.191   2.096  0.7803 -0.1663 -0.2698
 1687SOL     ow 6745   0.214   4.415   3.320 -0.1312 -0.2422 -0.2682
 1687SOL     hw 6746   0.201   4.450   3.232 -2.0525  1.9734  0.7941
 1687SOL     hw 6747   0.289   4.465   3.354  0.4089 -0.8746 -0.5078
 1687SOL     vw 6748   0.222   4.427   3.313 -0.3135 -0.0334 -0.1596
 1688SOL     ow 6749   1.029   2.619   4.098  0.2538  0.5867 -0.0634
 1688SOL     hw 6750   1.040   2.709   4.066 -0.3298 -0.0099 -2.1095
 1688SOL     hw 6751   0.946   2.590   4.061 -0.5881 -0.1701  2.2350
 1688SOL     vw 6752   1.019   2.627   4.089  0.0657  0.4081 -0.0300
 1689SOL     ow 6753   5.991   2.693   3.050  0.3290  0.4107  0.1311
 1689SOL     hw 6754   5.911   2.659   3.090  2.1752 -2.7062  1.5405
 1689SOL     hw 6755   6.022   2.759   3.111 -0.5894  0.9167  0.0775
 1689SOL     vw 6756   5.985   2.698   3.063  0.4516  0.0664  0.3099
 1690SOL     ow 6757   3.116   1.682   4.696 -0.5973  0.8410 -0.2201
 1690SOL     hw 6758   3.170   1.609   4.725  0.5742  1.8905  0.3196
 1690SOL     hw 6759   3.081   1.654   4.612  1.0289  0.2294 -0.7291
 1690SOL     vw 6760   3.119   1.669   4.689 -0.2280  0.8988 -0.2160
 1691SOL     ow 6761   1.705   5.309   3.779 -0.0848  0.6414  0.7840
 1691SOL     hw 6762   1.686   5.234   3.723  1.4334 -0.8416  2.1283
 1691SOL     hw 6763   1.626   5.362   3.777  0.4078  1.6671 -4.1071
 1691SOL     vw 6764   1.692   5.306   3.771  0.1804  0.5810  0.3159
 1692SOL     ow 6765   5.476   3.059   3.195 -0.5476 -0.1950 -0.0678
 1692SOL     hw 6766   5.410   3.103   3.141 -1.3100 -0.3506  0.6984
 1692SOL     hw 6767   5.555   3.112   3.185 -1.5254  1.5692  1.0912
 1692SOL     vw 6768   5.477   3.071   3.187 -0.7775  0.0172  0.1861
 1693SOL     ow 6769   1.799   4.638   5.547  0.6492 -0.8464  1.3751
 1693SOL     hw 6770   1.844   4.714   5.511 -1.2707  0.1529  0.9200
 1693SOL     hw 6771   1.854   4.564   5.524  2.0782  0.2971  0.9415
 1693SOL     vw 6772   1.812   4.638   5.539  0.5845 -0.5634  1.2579
 1694SOL     ow 6773   2.583   0.282   5.139 -0.2373 -1.0223 -0.0970
 1694SOL     hw 6774   2.572   0.221   5.212  2.6736 -1.1834  0.3119
 1694SOL     hw 6775   2.542   0.238   5.065 -0.6039 -2.2237  0.7748
 1694SOL     vw 6776   2.576   0.268   5.139  0.0985 -1.2020  0.0722
 1695SOL     ow 6777   0.869   1.236   4.988 -0.1964 -0.3380 -0.6147
 1695SOL     hw 6778   0.930   1.304   5.017  2.2212 -2.8935  0.7976
 1695SOL     hw 6779   0.783   1.275   5.001  0.9175  1.4077  3.2192
 1695SOL     vw 6780   0.866   1.250   4.994  0.2696 -0.4449  0.0775
 1696SOL     ow 6781   1.571   0.563   1.401 -0.4773  0.6479 -0.1435
 1696SOL     hw 6782   1.507   0.511   1.352 -0.1874 -0.8229  0.9447
 1696SOL     hw 6783   1.613   0.500   1.460  1.5441  1.6791 -0.3702
 1696SOL     vw 6784   1.568   0.548   1.402 -0.1723  0.5899 -0.0299
 1697SOL     ow 6785   4.001   0.585   0.110 -0.2488 -1.0440 -0.2234
 1697SOL     hw 6786   3.992   0.530   0.188  1.1649  0.8031  1.3535
 1697SOL     hw 6787   4.093   0.577   0.085  0.3206  1.3385  0.7587
 1697SOL     vw 6788   4.012   0.577   0.117  0.0129 -0.4859  0.1142
 1698SOL     ow 6789   4.001   4.601   3.859  0.2149  0.3264 -0.4353
 1698SOL     hw 6790   4.065   4.531   3.848  0.9505  0.9004  0.0671
 1698SOL     hw 6791   4.053   4.676   3.888 -0.4136  1.3553 -1.8425
 1698SOL     vw 6792   4.017   4.602   3.861  0.2291  0.5379 -0.5548
 1699SOL     ow 6793   5.996   4.936   0.125 -0.4579  0.0164 -0.4954
 1699SOL     hw 6794   5.927   4.911   0.064 -2.0080 -1.4190  1.6953
 1699SOL     hw 6795   6.076   4.938   0.072 -2.0027  0.7684 -2.9033
 1699SOL     vw 6796   5.998   4.933   0.110 -0.8662 -0.0739 -0.5240
 1700SOL     ow 6797   5.966   2.618   2.753 -0.6596  0.4712 -0.1544
 1700SOL     hw 6798   5.888   2.673   2.753  0.1168  1.6159  0.3232
 1700SOL     hw 6799   5.968   2.579   2.666 -1.4366  0.9137 -0.3773
 1700SOL     vw 6800   5.956   2.620   2.742 -0.6599  0.6804 -0.1208
 1701SOL     ow 6801   2.870   6.846   6.137 -0.5064  0.4171 -1.1631
 1701SOL     hw 6802   2.912   6.866   6.221 -2.0373  0.9518 -0.4881
 1701SOL     hw 6803   2.927   6.885   6.071 -0.3320  1.8103 -0.2272
 1701SOL     vw 6804   2.883   6.853   6.140 -0.6855  0.6716 -0.9503
 1702SOL     ow 6805   6.579   6.117   3.291  0.2893  0.0278  0.2201
 1702SOL     hw 6806   6.505   6.057   3.304 -0.8829  0.6506 -2.7144
 1702SOL     hw 6807   6.653   6.060   3.269 -0.6086 -0.4657 -1.7389
 1702SOL     vw 6808   6.579   6.102   3.290  0.0160  0.0446 -0.4256
 1703SOL     ow 6809   1.892   5.076   2.627  0.1769 -0.6600 -0.2447
 1703SOL     hw 6810   1.839   5.153   2.648  0.2506 -0.6699 -0.0256
 1703SOL     hw 6811   1.870   5.056   2.536 -0.7336 -1.1018  0.0619
 1703SOL     vw 6812   1.882   5.084   2.618  0.0664 -0.7198 -0.1754
 1704SOL     ow 6813   2.116   2.148   4.675  0.1399 -0.4503  0.1027
 1704SOL     hw 6814   2.026   2.139   4.708  0.4350 -2.6714  0.4120
 1704SOL     hw 6815   2.118   2.093   4.596  1.1535 -0.1619 -0.0804
 1704SOL     vw 6816   2.104   2.140   4.669  0.3124 -0.7055  0.1192
 1705SOL     ow 6817   3.383   0.729   0.455 -0.3185 -0.2373 -0.5350
 1705SOL     hw 6818   3.337   0.731   0.371 -0.7862 -0.6988 -0.2968
 1705SOL     hw 6819   3.468   0.690   0.435  0.7044  2.2104 -1.3057
 1705SOL     vw 6820   3.388   0.724   0.441 -0.2451  0.0248 -0.6052
 1706SOL     ow 6821   1.784   6.560   3.299 -0.3648  0.1860 -0.0034
 1706SOL     hw 6822   1.869   6.541   3.259 -1.2004 -2.8278 -0.6630
 1706SOL     hw 6823   1.794   6.533   3.390 -0.5454 -0.0653 -0.0550
 1706SOL     vw 6824   1.796   6.554   3.305 -0.4988 -0.2446 -0.0972
 1707SOL     ow 6825   3.842   4.608   2.181  0.3929 -0.2342 -0.9297
 1707SOL     hw 6826   3.819   4.639   2.269 -0.3197  1.3832 -1.6389
 1707SOL     hw 6827   3.796   4.525   2.172 -0.0851 -0.0856 -0.0179
 1707SOL     vw 6828   3.833   4.601   2.192  0.2359 -0.0010 -0.9030
 1708SOL     ow 6829   2.695   4.027   6.763 -0.2139  1.3009  0.8128
 1708SOL     hw 6830   2.721   4.114   6.733  0.1059  0.4787 -1.4833
 1708SOL     hw 6831   2.772   3.995   6.810  1.8534  0.2967 -2.8459
 1708SOL     vw 6832   2.709   4.035   6.765  0.1011  1.0600  0.0272
 1709SOL     ow 6833   3.897   0.090   3.356  0.1321  0.1201 -0.1479
 1709SOL     hw 6834   3.844   0.068   3.279  0.4387 -2.1799  0.2286
 1709SOL     hw 6835   3.868   0.178   3.380 -4.3498 -1.2745  0.6042
 1709SOL     vw 6836   3.886   0.098   3.349 -0.4188 -0.3673  0.0011
 1710SOL     ow 6837   7.192   6.338   6.742  0.5141 -0.6678  0.4742
 1710SOL     hw 6838   7.142   6.394   6.683 -0.1870  0.1369  1.7887
 1710SOL     hw 6839   7.263   6.303   6.688 -0.8547 -1.0158 -1.1834
 1710SOL     vw 6840   7.195   6.340   6.727  0.2410 -0.6073  0.4292
 1711SOL     ow 6841   3.282   3.237   7.032 -0.4088  0.8752  0.6252
 1711SOL     hw 6842   3.308   3.187   6.954  0.1958  1.3221  0.5290
 1711SOL     hw 6843   3.231   3.310   6.997  0.2326  1.3220  0.5954
 1711SOL     vw 6844   3.279   3.240   7.017 -0.2444  0.9930  0.6082
 1712SOL     ow 6845   6.043   0.790   1.101 -0.0007 -0.1740 -0.0451
 1712SOL     hw 6846   6.024   0.781   1.194 -0.2429  2.1593  0.2011
 1712SOL     hw 6847   5.957   0.799   1.060  0.1731  1.3642 -0.1230
 1712SOL     vw 6848   6.029   0.790   1.108 -0.0100  0.3368 -0.0229
 1713SOL     ow 6849   6.817   4.568   2.902  0.3377  0.2781  0.0553
 1713SOL     hw 6850   6.904   4.552   2.939  1.4721  0.4657 -2.3439
 1713SOL     hw 6851   6.826   4.545   2.810 -1.9108  1.2327 -0.4537
 1713SOL     vw 6852   6.830   4.563   2.895  0.1905  0.4289 -0.3283
 1714SOL     ow 6853   1.088   2.811   7.005 -0.0273 -0.1633  0.3131
 1714SOL     hw 6854   1.133   2.728   6.989 -1.1992 -0.7860  0.1201
 1714SOL     hw 6855   1.009   2.806   6.952  1.8598  2.9469 -3.2617
 1714SOL     vw 6856   1.084   2.799   6.996  0.0671  0.1650 -0.1838
 1715SOL     ow 6857   3.864   1.069   3.416 -0.0613  0.2269 -0.5313
 1715SOL     hw 6858   3.934   1.127   3.387  0.0071  1.2195  1.4193
 1715SOL     hw 6859   3.893   1.040   3.503 -1.3211 -0.6488 -0.3904
 1715SOL     vw 6860   3.877   1.073   3.424 -0.2184  0.2424 -0.2552
 1716SOL     ow 6861   1.721   3.533   2.793 -0.5853  0.8757  0.0117
 1716SOL     hw 6862   1.746   3.469   2.860 -1.4611 -0.3827 -0.8092
 1716SOL     hw 6863   1.741   3.618   2.832  2.9856  0.1008  0.1973
 1716SOL     vw 6864   1.727   3.535   2.807 -0.2297  0.6075 -0.0720
 1717SOL     ow 6865   2.160   1.355   4.291  0.1454  0.0900  0.1370
 1717SOL     hw 6866   2.200   1.439   4.315  0.4927 -0.7530  2.9086
 1717SOL     hw 6867   2.066   1.373   4.293  0.2449  0.7207 -0.6146
 1717SOL     vw 6868   2.153   1.369   4.295  0.2044  0.0620  0.4036
 1718SOL     ow 6869   7.274   6.715   5.242  0.0414  0.4805  0.1905
 1718SOL     hw 6870   7.306   6.626   5.254 -0.1317  0.2683 -0.8158
 1718SOL     hw 6871   7.221   6.711   5.162 -0.1056  1.4473  0.2272
 1718SOL     vw 6872   7.271   6.703   5.233 -0.0012  0.5801  0.0625
 1719SOL     ow 6873   3.209   0.175   0.793 -0.2984 -0.3881 -0.0860
 1719SOL     hw 6874   3.278   0.109   0.800 -0.4913 -0.7324 -1.1738
 1719SOL     hw 6875   3.210   0.221   0.877  1.4845 -0.1420 -0.2202
 1719SOL     vw 6876   3.218   0.172   0.805 -0.0886 -0.4010 -0.2472
 1720SOL     ow 6877   4.585   0.387   3.805 -0.0543  0.3298 -0.4574
 1720SOL     hw 6878   4.500   0.431   3.800 -0.1386  0.1777 -0.3576
 1720SOL     hw 6879   4.574   0.307   3.753  0.3793  0.8756 -1.4194
 1720SOL     vw 6880   4.572   0.382   3.798 -0.0081  0.3817 -0.5710
 1721SOL     ow 6881   2.116   0.920   3.093  0.0937  1.0134  0.1208
 1721SOL     hw 6882   2.110   0.825   3.101 -1.1091  1.0687  0.0408
 1721SOL     hw 6883   2.208   0.940   3.110 -0.1326  0.1043  2.8738
 1721SOL     vw 6884   2.127   0.910   3.096 -0.0949  0.9008  0.4734
 1722SOL     ow 6885   1.612   1.826   6.017 -0.3252  1.0130 -0.2512
 1722SOL     hw 6886   1.674   1.875   6.071  0.7071  0.2915 -0.7388
 1722SOL     hw 6887   1.621   1.735   6.047 -1.5168  0.9668  0.0017
 1722SOL     vw 6888   1.622   1.820   6.028 -0.3462  0.9118 -0.2823
 1723SOL     ow 6889   1.382   6.199   4.784  0.8131  0.6927  0.2869
 1723SOL     hw 6890   1.299   6.176   4.742  0.6331 -0.5036  1.2410
 1723SOL     hw 6891   1.410   6.280   4.740 -0.2793  0.4935 -0.8266
 1723SOL     vw 6892   1.375   6.207   4.772  0.6453  0.5085  0.2661
 1724SOL     ow 6893   3.950   2.932   1.188  0.0203 -0.0902 -0.0204
 1724SOL     hw 6894   3.912   2.995   1.249  1.1693 -0.3222  0.9648
 1724SOL     hw 6895   3.875   2.879   1.160 -0.6867  0.6469  0.4213
 1724SOL     vw 6896   3.935   2.933   1.192  0.0786 -0.0235  0.1678
 1725SOL     ow 6897   5.359   1.009   5.561  0.1212  0.1556  0.3975
 1725SOL     hw 6898   5.381   0.973   5.475  1.9368 -0.1581  0.9389
 1725SOL     hw 6899   5.265   0.994   5.571  0.0871 -0.7630 -1.0727
 1725SOL     vw 6900   5.350   1.003   5.551  0.3564 -0.0070  0.2749
 1726SOL     ow 6901   5.355   0.378   6.507 -0.9914  0.3585 -0.4668
 1726SOL     hw 6902   5.376   0.427   6.427 -0.7915 -0.1496 -0.7290
 1726SOL     hw 6903   5.266   0.344   6.491 -1.3707  1.1206 -0.0409
 1726SOL     vw 6904   5.346   0.380   6.494 -1.0149  0.3920 -0.4451
 1727SOL     ow 6905   5.578   7.069   0.099  0.2442 -0.1318  0.2984
 1727SOL     hw 6906   5.598   7.000   0.163 -0.2052 -1.5803 -1.0660
 1727SOL     hw 6907   5.631   7.048   0.023 -0.8567  0.2806 -0.6187
 1727SOL     vw 6908   5.587   7.057   0.098  0.0396 -0.2685 -0.0026
 1728SOL     ow 6909   1.757   2.608   5.628  0.3506 -0.1851 -0.5048
 1728SOL     hw 6910   1.661   2.609   5.630  0.2839 -2.2247  1.4442
 1728SOL     hw 6911   1.783   2.649   5.711  1.2066  0.8225 -1.2490
 1728SOL     vw 6912   1.748   2.613   5.640  0.4547 -0.3211 -0.3462
 1729SOL     ow 6913   2.184   2.173   4.978  0.2180 -0.0020  0.1387
 1729SOL     hw 6914   2.263   2.155   5.029  0.6214  0.3919 -0.3518
 1729SOL     hw 6915   2.115   2.183   5.044  0.8991  1.3869  0.6674
 1729SOL     vw 6916   2.185   2.172   4.994  0.3612  0.2331  0.1438
 1730SOL     ow 6917   4.700   7.341   1.750 -0.4026  0.1959 -0.5435
 1730SOL     hw 6918   4.671   7.357   1.660  0.0621  1.4821 -0.4880
 1730SOL     hw 6919   4.773   7.401   1.763 -0.7972  0.4227  0.8683
 1730SOL     vw 6920   4.706   7.351   1.740 -0.3932  0.3955 -0.3498
 1731SOL     ow 6921   4.235   4.995   3.573  0.0255  0.2120  0.8953
 1731SOL     hw 6922   4.294   5.068   3.588  0.6569  0.0846 -0.7237
 1731SOL     hw 6923   4.182   5.022   3.498  0.5032 -1.1066  0.0470
 1731SOL     vw 6924   4.236   5.008   3.565  0.1719  0.0212  0.5697
 1732SOL     ow 6925   0.930   1.548   2.230 -1.2467  0.3963  0.5996
 1732SOL     hw 6926   0.856   1.488   2.216 -1.0521 -0.4716  2.8360
 1732SOL     hw 6927   1.003   1.507   2.182 -1.4314 -0.5109  1.0640
 1732SOL     vw 6928   0.930   1.535   2.221 -1.2455  0.1621  0.9559
 1733SOL     ow 6929   3.898   7.145   2.007 -0.0522 -0.5523 -0.5672
 1733SOL     hw 6930   3.831   7.178   1.947 -0.6404 -0.2936  0.2143
 1733SOL     hw 6931   3.952   7.222   2.026 -1.0476 -0.1423  0.7605
 1733SOL     vw 6932   3.896   7.160   2.002 -0.2611 -0.4642 -0.2887
 1734SOL     ow 6933   4.634   7.195   2.513 -0.7289  0.3280  0.1931
 1734SOL     hw 6934   4.666   7.205   2.424  0.0208 -0.6002  0.3395
 1734SOL     hw 6935   4.676   7.115   2.545  0.8708  1.8527  2.1855
 1734SOL     vw 6936   4.644   7.185   2.506 -0.4191  0.4070  0.4754
 1735SOL     ow 6937   5.209   6.635   6.139 -0.4224  0.1144 -0.4024
 1735SOL     hw 6938   5.290   6.589   6.160 -0.1010  0.0990 -1.5729
 1735SOL     hw 6939   5.184   6.679   6.219  0.8802  0.3239 -0.0938
 1735SOL     vw 6940   5.216   6.634   6.152 -0.2081  0.1400 -0.5164
 1736SOL     ow 6941   2.585   5.106   5.089 -0.5751  0.8899 -0.5303
 1736SOL     hw 6942   2.534   5.035   5.128 -1.0382  1.5545  0.1175
 1736SOL     hw 6943   2.523   5.179   5.081  0.4648  2.0625  1.2415
 1736SOL     vw 6944   2.570   5.106   5.093 -0.4990  1.1322 -0.2110
 1737SOL     ow 6945   6.882   6.031   3.819  0.1532 -0.2461 -0.0117
 1737SOL     hw 6946   6.956   6.021   3.760 -0.1910  1.3347 -0.7428
 1737SOL     hw 6947   6.849   6.119   3.803 -2.5095 -1.2111 -0.4210
 1737SOL     vw 6948   6.887   6.041   3.809 -0.2437 -0.1645 -0.1622
 1738SOL     ow 6949   1.874   1.239   1.904  0.2516  0.3975  0.2459
 1738SOL     hw 6950   1.933   1.173   1.868 -1.3747 -0.1343 -1.6544
 1738SOL     hw 6951   1.811   1.189   1.955  0.7163  0.8380  1.2787
 1738SOL     vw 6952   1.874   1.224   1.906  0.0983  0.3855  0.1315
 1739SOL     ow 6953   2.041   1.109   5.774 -0.5259 -0.3364 -0.1712
 1739SOL     hw 6954   2.030   1.100   5.869 -0.7557 -2.4089 -0.3492
 1739SOL     hw 6955   2.125   1.154   5.764 -1.4106  1.7001  1.0067
 1739SOL     vw 6956   2.051   1.114   5.786 -0.6729 -0.3412 -0.0391
 1740SOL     ow 6957   3.530   1.682   4.629  0.0226 -0.1925 -0.7573
 1740SOL     hw 6958   3.515   1.660   4.721  2.1798  1.4299  0.0440
 1740SOL     hw 6959   3.462   1.747   4.609  0.1211  0.1437 -0.0334
 1740SOL     vw 6960   3.519   1.688   4.638  0.3202  0.0659 -0.5562
 1741SOL     ow 6961   4.817   0.479   3.662 -0.2583  0.4374  0.3332
 1741SOL     hw 6962   4.749   0.452   3.723 -1.4464 -0.2211 -1.2144
 1741SOL     hw 6963   4.843   0.397   3.618 -2.1922  1.2893 -2.7244
 1741SOL     vw 6964   4.812   0.464   3.664 -0.6702  0.4629 -0.2744
 1742SOL     ow 6965   0.160   2.121   2.442  0.3769  0.3350  0.1486
 1742SOL     hw 6966   0.239   2.141   2.393 -0.5276  0.0391 -1.4815
 1742SOL     hw 6967   0.089   2.124   2.378 -0.5940 -2.1933  0.9529
 1742SOL     vw 6968   0.161   2.124   2.427  0.1295 -0.0376  0.0396
 1743SOL     ow 6969   1.446   6.752   3.637 -0.0217  0.3536 -0.0574
 1743SOL     hw 6970   1.355   6.779   3.624 -0.8576 -1.1295  2.1360
 1743SOL     hw 6971   1.454   6.672   3.585 -0.7942 -0.8968  1.6504
 1743SOL     vw 6972   1.435   6.745   3.628 -0.2339 -0.0072  0.4574
 1744SOL     ow 6973   4.285   6.754   6.773  0.5632  0.0672  0.6807
 1744SOL     hw 6974   4.341   6.782   6.700 -1.3004 -1.1527 -1.3068
 1744SOL     hw 6975   4.229   6.830   6.789 -0.6930 -0.4877 -0.8905
 1744SOL     vw 6976   4.285   6.768   6.765  0.1514 -0.1671  0.2112
 1745SOL     ow 6977   6.699   1.014   6.969  0.7148  0.3144 -0.4887
 1745SOL     hw 6978   6.740   1.063   7.039 -0.9762 -0.8318  1.4012
 1745SOL     hw 6979   6.637   1.075   6.929  1.2799  0.8015 -0.6290
 1745SOL     vw 6980   6.696   1.028   6.973  0.5662  0.2275 -0.2580
 1746SOL     ow 6981   6.469   3.944   3.874  0.0025  0.1937  0.8908
 1746SOL     hw 6982   6.456   3.860   3.920  0.4378  0.1340  0.9127
 1746SOL     hw 6983   6.563   3.948   3.860 -0.2382 -0.4428 -1.2545
 1746SOL     vw 6984   6.480   3.933   3.879  0.0281  0.1019  0.6108
 1747SOL     ow 6985   5.010   2.163   5.515 -0.7166  0.2651  0.3533
 1747SOL     hw 6986   5.048   2.101   5.578 -0.9482  0.6858  0.9211
 1747SOL     hw 6987   5.005   2.245   5.563 -0.6074  0.6747 -0.3281
 1747SOL     vw 6988   5.014   2.166   5.530 -0.7331  0.3746  0.3383
 1748SOL     ow 6989   5.372   1.074   6.585 -0.3610 -0.4605  0.0635
 1748SOL     hw 6990   5.454   1.034   6.614  0.1545  2.1009  2.5514
 1748SOL     hw 6991   5.389   1.100   6.494  0.5975 -2.2784 -0.3223
 1748SOL     vw 6992   5.385   1.072   6.577 -0.1667 -0.3623  0.3407
 1749SOL     ow 6993   4.935   4.871   3.803 -0.4206 -0.9665 -0.0076
 1749SOL     hw 6994   4.987   4.884   3.724  1.1383  0.7334  1.2317
 1749SOL     hw 6995   4.880   4.949   3.809  1.6011  0.4330  2.0511
 1749SOL     vw 6996   4.935   4.883   3.793  0.0515 -0.5577  0.4276
 1750SOL     ow 6997   5.884   4.083   1.471 -0.9880 -0.1565  0.1530
 1750SOL     hw 6998   5.857   4.132   1.548 -2.2388 -0.2314 -0.2147
 1750SOL     hw 6999   5.894   4.150   1.403  1.1807  0.0518  0.6166
 1750SOL     vw 7000   5.882   4.099   1.472 -0.8669 -0.1390  0.1657
 1751SOL     ow 7001   3.069   2.251   7.128 -0.5753  0.2876  0.1037
 1751SOL     hw 7002   3.115   2.323   7.084 -0.3390  1.2556  1.8132
 1751SOL     hw 7003   3.071   2.275   7.221 -0.9653 -1.6889  0.6735
 1751SOL     vw 7004   3.075   2.264   7.134 -0.5955  0.1545  0.4046
 1752SOL     ow 7005   1.180   1.804   0.749  0.3310  0.2123  0.0848
 1752SOL     hw 7006   1.227   1.866   0.694 -1.0648  1.5420  0.3175
 1752SOL     hw 7007   1.246   1.773   0.812  1.0351  1.6175  0.0806
 1752SOL     vw 7008   1.195   1.808   0.750  0.2397  0.5731  0.1149
 1753SOL     ow 7009   0.942   0.785   3.691 -0.1221 -0.4826  0.1744
 1753SOL     hw 7010   0.907   0.701   3.662 -2.0190  0.7876 -1.5882
 1753SOL     hw 7011   1.028   0.791   3.650 -0.6237 -0.9441 -1.0060
 1753SOL     vw 7012   0.948   0.775   3.682 -0.4385 -0.3759 -0.2137
 1754SOL     ow 7013   7.213   4.673   1.401  0.1370  0.1246  0.4225
 1754SOL     hw 7014   7.186   4.639   1.486  2.5851  1.6995  1.9555
 1754SOL     hw 7015   7.166   4.756   1.393  0.5931  0.4110  0.6817
 1754SOL     vw 7016   7.203   4.680   1.411  0.5198  0.3703  0.6590
 1755SOL     ow 7017   2.002   0.135   5.772 -0.8086 -0.7936 -0.0247
 1755SOL     hw 7018   2.093   0.127   5.800 -0.8049 -1.3145 -0.1817
 1755SOL     hw 7019   2.003   0.112   5.679 -1.2513 -1.7887  0.1976
 1755SOL     vw 7020   2.014   0.131   5.763 -0.8664 -0.9936 -0.0162
 1756SOL     ow 7021   6.302   0.157   5.801  0.4217  0.3288 -0.3633
 1756SOL     hw 7022   6.378   0.150   5.858  0.7162  0.8675 -0.6765
 1756SOL     hw 7023   6.310   0.082   5.741 -0.3774 -0.7671  0.8404
 1756SOL     vw 7024   6.313   0.146   5.800  0.3550  0.2553 -0.2460
 1757SOL     ow 7025   3.889   5.302   5.011 -0.3586  0.1257  0.3923
 1757SOL     hw 7026   3.973   5.293   5.055  0.3622  1.3840 -0.6968
 1757SOL     hw 7027   3.894   5.243   4.936 -0.2695  0.5568  0.0594
 1757SOL     vw 7028   3.901   5.293   5.007 -0.2520  0.3486  0.2043
 1758SOL     ow 7029   1.883   7.355   3.152 -0.1159 -0.3491 -0.5124
 1758SOL     hw 7030   1.859   7.325   3.065 -1.9764 -0.5605  0.0175
 1758SOL     hw 7031   1.821   7.310   3.210  0.9686 -0.0892  0.9039
 1758SOL     vw 7032   1.871   7.345   3.148 -0.2183 -0.3426 -0.2556
 1759SOL     ow 7033   1.766   2.776   6.575  0.2793 -0.7850 -0.1452
 1759SOL     hw 7034   1.861   2.787   6.565  0.1957  0.4499  0.2663
 1759SOL     hw 7035   1.756   2.730   6.659  0.5006 -0.5471  0.0126
 1759SOL     vw 7036   1.777   2.771   6.585  0.2974 -0.5907 -0.0703
 1760SOL     ow 7037   4.446   3.430   1.643  0.2415  0.4001 -0.2548
 1760SOL     hw 7038   4.398   3.513   1.633  0.0653  0.3565  0.2242
 1760SOL     hw 7039   4.415   3.376   1.570 -1.7939 -0.2879  1.0266
 1760SOL     vw 7040   4.435   3.434   1.632 -0.0501  0.3035 -0.0225
 1761SOL     ow 7041   4.154   4.586   5.763  0.1373 -0.1128 -0.6535
 1761SOL     hw 7042   4.084   4.557   5.705  1.4645 -2.5494 -1.2070
 1761SOL     hw 7043   4.224   4.521   5.749  0.2936 -1.3711  4.2128
 1761SOL     vw 7044   4.154   4.573   5.753  0.3331 -0.6001 -0.0846
 1762SOL     ow 7045   5.392   5.008   0.434 -0.6960  0.4325 -0.1613
 1762SOL     hw 7046   5.380   5.103   0.442  1.5633  0.6980  1.3517
 1762SOL     hw 7047   5.394   4.977   0.525 -2.9995 -1.3809 -0.6413
 1762SOL     vw 7048   5.391   5.017   0.447 -0.7019  0.2282 -0.0250
 1763SOL     ow 7049   5.154   6.932   0.291 -0.1032  0.2508  0.0254
 1763SOL     hw 7050   5.244   6.900   0.304  0.3673  0.7268 -1.7055
 1763SOL     hw 7051   5.140   6.993   0.363  1.0505  0.3239  0.2206
 1763SOL     vw 7052   5.164   6.936   0.302  0.1113  0.3231 -0.1773
 1764SOL     ow 7053   5.881   2.617   4.344  0.0669  0.2941  0.5155
 1764SOL     hw 7054   5.850   2.702   4.376  2.2541  1.5926 -0.6137
 1764SOL     hw 7055   5.822   2.596   4.271  0.1681  1.3973  0.0940
 1764SOL     vw 7056   5.869   2.625   4.339  0.3686  0.6109  0.3109
 1765SOL     ow 7057   2.582   6.104   0.675 -0.1031  1.4185  0.1475
 1765SOL     hw 7058   2.676   6.084   0.675 -0.2326  0.4592  2.7817
 1765SOL     hw 7059   2.578   6.198   0.694  0.3482  1.2600  1.1086
 1765SOL     vw 7060   2.594   6.114   0.678 -0.0607  1.2710  0.6219
 1766SOL     ow 7061   7.055   4.480   5.261 -0.2548  0.5988  0.1206
 1766SOL     hw 7062   6.972   4.467   5.306  0.8781  0.4689  2.3355
 1766SOL     hw 7063   7.038   4.452   5.171 -2.2311 -0.7453  0.8371
 1766SOL     vw 7064   7.042   4.474   5.255 -0.3660  0.4041  0.5076
 1767SOL     ow 7065   4.721   6.713   4.983  0.3838  0.1189 -0.4913
 1767SOL     hw 7066   4.765   6.774   4.924  1.2692  1.1690  1.1900
 1767SOL     hw 7067   4.639   6.757   5.007  1.7988  1.5375  2.0786
 1767SOL     vw 7068   4.716   6.727   4.978  0.6871  0.4444  0.0696
 1768SOL     ow 7069   4.094   5.687   3.461 -0.9182 -0.4234 -0.0265
 1768SOL     hw 7070   4.142   5.733   3.530 -0.4692 -1.8997  0.6742
 1768SOL     hw 7071   4.073   5.756   3.397  2.8395  0.2065 -0.7883
 1768SOL     vw 7072   4.097   5.703   3.462 -0.3631 -0.5350 -0.0345
 1769SOL     ow 7073   7.117   0.585   3.441 -0.3032  0.3645  0.1381
 1769SOL     hw 7074   7.109   0.612   3.533 -1.0838 -0.4598  0.3248
 1769SOL     hw 7075   7.205   0.550   3.434 -0.5696 -0.4676  0.8308
 1769SOL     vw 7076   7.127   0.584   3.452 -0.4413  0.1460  0.2540
 1770SOL     ow 7077   5.905   4.729   4.150  0.1653  0.7526  0.2814
 1770SOL     hw 7078   5.830   4.689   4.194  0.4873  1.0892  1.1408
 1770SOL     hw 7079   5.866   4.793   4.090 -0.2879  0.0597 -0.1815
 1770SOL     vw 7080   5.890   4.732   4.148  0.1483  0.7060  0.3335
 1771SOL     ow 7081   4.174   6.920   1.470  0.3078  0.9266 -0.4083
 1771SOL     hw 7082   4.152   7.006   1.434  0.8677  0.6145 -1.5439
 1771SOL     hw 7083   4.260   6.900   1.433  0.0711 -0.2342 -0.3657
 1771SOL     vw 7084   4.182   6.928   1.460  0.3505  0.7319 -0.5525
 1772SOL     ow 7085   1.211   4.043   0.735  0.4383  0.1361  0.6428
 1772SOL     hw 7086   1.206   4.108   0.805  2.4788 -1.0037  1.9715
 1772SOL     hw 7087   1.129   3.995   0.740 -0.0709  1.0511  1.2554
 1772SOL     vw 7088   1.200   4.045   0.745  0.6403  0.1063  0.8989
 1773SOL     ow 7089   1.619   1.619   4.415  0.4312  0.1047  0.6996
 1773SOL     hw 7090   1.532   1.579   4.409 -0.4439  1.9413  0.4490
 1773SOL     hw 7091   1.666   1.565   4.478 -1.1662 -0.4728  1.4577
 1773SOL     vw 7092   1.613   1.607   4.422  0.1050  0.2708  0.7665
 1774SOL     ow 7093   4.210   0.035   0.941  0.7703  0.4093  0.6237
 1774SOL     hw 7094   4.300   0.019   0.971  1.3672 -1.8995 -1.9467
 1774SOL     hw 7095   4.180  -0.050   0.909 -1.7091  1.4937 -0.2082
 1774SOL     vw 7096   4.218   0.022   0.941  0.5217  0.2478  0.1748
 1775SOL     ow 7097   2.175   2.538   0.332  0.4563 -0.2363 -0.4106
 1775SOL     hw 7098   2.260   2.502   0.357 -0.0708 -0.9749  0.3423
 1775SOL     hw 7099   2.185   2.632   0.344  1.4879 -0.2072 -1.3177
 1775SOL     vw 7100   2.188   2.546   0.337  0.5229 -0.3300 -0.4309
 1776SOL     ow 7101   3.615   2.960   3.661 -0.3523 -0.1309 -0.1387
 1776SOL     hw 7102   3.679   3.009   3.609 -0.0396  1.2694  1.4730
 1776SOL     hw 7103   3.646   2.969   3.751 -2.5006  0.1135  0.6277
 1776SOL     vw 7104   3.628   2.968   3.666 -0.5946  0.0861  0.1751
 1777SOL     ow 7105   1.372   4.302   1.036 -0.0392  0.3420  0.4565
 1777SOL     hw 7106   1.416   4.217   1.045  1.0742  0.9357  0.7155
 1777SOL     hw 7107   1.281   4.279   1.018 -0.1247 -0.9068  2.2361
 1777SOL     vw 7108   1.366   4.288   1.035  0.0965  0.2558  0.7254
 1778SOL     ow 7109   0.901   0.919   0.713 -0.4520 -0.9757  0.2809
 1778SOL     hw 7110   0.971   0.860   0.684 -2.2780 -3.1322 -0.0171
 1778SOL     hw 7111   0.847   0.932   0.635 -0.9626 -0.1958  0.7483
 1778SOL     vw 7112   0.903   0.913   0.699 -0.7603 -1.1573  0.3033
 1779SOL     ow 7113   4.994   2.961   1.438  0.5257  0.2380  0.0514
 1779SOL     hw 7114   4.998   2.991   1.529  0.8903 -0.7364  0.3682
 1779SOL     hw 7115   4.903   2.935   1.426  0.2561  1.2341 -0.1604
 1779SOL     vw 7116   4.983   2.962   1.448  0.5383  0.2408  0.0653
 1780SOL     ow 7117   2.642   7.196   3.140 -0.2123  0.2830 -0.2884
 1780SOL     hw 7118   2.692   7.266   3.098  0.4630 -0.3840 -0.6173
 1780SOL     hw 7119   2.700   7.162   3.207 -0.8293  0.5319  0.3903
 1780SOL     vw 7120   2.656   7.201   3.143 -0.2046  0.2277 -0.2424
 1781SOL     ow 7121   0.098   6.206   6.104  0.3948  0.1816  0.2332
 1781SOL     hw 7122   0.052   6.177   6.183  0.3335  2.4988  1.1232
 1781SOL     hw 7123   0.148   6.130   6.076  0.9329 -0.5438  2.8902
 1781SOL     vw 7124   0.098   6.192   6.111  0.4577  0.3917  0.7012
 1782SOL     ow 7125   2.732   5.394   1.366 -0.7695 -0.3730 -0.1674
 1782SOL     hw 7126   2.701   5.482   1.342  2.3915  0.9828  0.2819
 1782SOL     hw 7127   2.740   5.349   1.282 -1.6360  0.0077 -0.4777
 1782SOL     vw 7128   2.729   5.400   1.352 -0.4667 -0.1440 -0.1490
 1783SOL     ow 7129   5.603   5.026   0.070 -0.3246  0.1765 -0.6303
 1783SOL     hw 7130   5.671   4.959   0.068 -0.4532  0.0066 -3.8956
 1783SOL     hw 7131   5.521   4.978   0.060 -0.4600  0.7213 -2.4285
 1783SOL     vw 7132   5.601   5.011   0.069 -0.3593  0.2258 -1.2984
 1784SOL     ow 7133   0.733   7.059   4.379 -0.0206 -0.3512  0.0696
 1784SOL     hw 7134   0.739   6.996   4.451 -0.4190 -0.7356 -0.2282
 1784SOL     hw 7135   0.824   7.083   4.360  0.1893 -1.4690 -0.3715
 1784SOL     vw 7136   0.746   7.054   4.386 -0.0454 -0.5496 -0.0279
 1785SOL     ow 7137   1.670   6.787   3.475  0.0590  0.1785  0.0742
 1785SOL     hw 7138   1.729   6.772   3.548  3.0768  4.1428 -1.2036
 1785SOL     hw 7139   1.587   6.814   3.516  1.8259  2.9075  2.2494
 1785SOL     vw 7140   1.667   6.789   3.490  0.6902  1.0617  0.1926
 1786SOL     ow 7141   7.099   0.352   4.516 -0.7174 -0.6263 -0.3891
 1786SOL     hw 7142   7.155   0.330   4.441  0.2366  3.0034 -0.9497
 1786SOL     hw 7143   7.161   0.365   4.588 -1.1111  0.6356 -0.2680
 1786SOL     vw 7144   7.115   0.351   4.516 -0.6437  0.0191 -0.4473
 1787SOL     ow 7145   3.396   4.649   1.619 -0.3771  0.3288  1.0690
 1787SOL     hw 7146   3.404   4.730   1.569  1.7600  0.2276  1.1744
 1787SOL     hw 7147   3.425   4.672   1.707 -0.5948 -0.3662  1.3299
 1787SOL     vw 7148   3.401   4.663   1.624 -0.1237  0.2236  1.1174
 1788SOL     ow 7149   2.501   1.920   3.226 -0.1579  0.2887  0.6200
 1788SOL     hw 7150   2.458   2.004   3.211  0.5803  0.4072 -1.1571
 1788SOL     hw 7151   2.435   1.854   3.203 -0.1539  0.4298  0.1864
 1788SOL     vw 7152   2.487   1.922   3.221 -0.0600  0.3229  0.3283
 1789SOL     ow 7153   3.756   1.067   3.115 -0.3451  0.2034 -0.1806
 1789SOL     hw 7154   3.837   1.017   3.118 -1.2053 -1.2995 -0.8627
 1789SOL     hw 7155   3.739   1.080   3.022 -1.1797 -0.0175 -0.0657
 1789SOL     vw 7156   3.764   1.062   3.103 -0.5687 -0.0241 -0.2555
 1790SOL     ow 7157   0.513   2.788   5.406  0.2717 -0.5104 -0.2409
 1790SOL     hw 7158   0.442   2.782   5.469  1.1573 -2.6514  0.6364
 1790SOL     hw 7159   0.512   2.880   5.378 -2.7514 -0.4519 -0.2477
 1790SOL     vw 7160   0.504   2.799   5.411 -0.0103 -0.7851 -0.1259
 1791SOL     ow 7161   3.140   3.038   6.425 -0.0439  0.3764 -0.4437
 1791SOL     hw 7162   3.107   2.966   6.478  1.5476 -0.9287 -1.1452
 1791SOL     hw 7163   3.104   3.023   6.338 -0.2937  0.8690 -0.4336
 1791SOL     vw 7164   3.131   3.027   6.420  0.1330  0.2691 -0.5348
 1792SOL     ow 7165   6.262   3.624   5.552  0.6174 -0.1539 -0.2278
 1792SOL     hw 7166   6.214   3.634   5.470 -0.0212 -0.8066  0.0633
 1792SOL     hw 7167   6.237   3.538   5.585  1.3229 -0.1469  0.3614
 1792SOL     vw 7168   6.253   3.614   5.545  0.6261 -0.2390 -0.1118
 1793SOL     ow 7169   4.654   3.206   0.475 -0.2469  0.0468 -0.0304
 1793SOL     hw 7170   4.702   3.124   0.471 -4.0447 -2.3839 -2.4808
 1793SOL     hw 7171   4.605   3.202   0.557 -0.3824 -0.1250 -0.1196
 1793SOL     vw 7172   4.654   3.195   0.485 -0.7658 -0.2966 -0.3655
 1794SOL     ow 7173   1.560   5.530   3.480  0.1546 -0.0293 -0.0223
 1794SOL     hw 7174   1.479   5.485   3.454  1.5848 -2.6090 -0.3230
 1794SOL     hw 7175   1.548   5.620   3.449 -2.0618 -0.6327 -1.1860
 1794SOL     vw 7176   1.547   5.536   3.473  0.0508 -0.4492 -0.2156
 1795SOL     ow 7177   6.712   2.442   1.881  0.5535 -0.5413  0.7352
 1795SOL     hw 7178   6.630   2.406   1.913  0.6390 -0.7954  0.6745
 1795SOL     hw 7179   6.774   2.368   1.885  0.7299 -0.4024  0.6068
 1795SOL     vw 7180   6.709   2.427   1.885  0.5879 -0.5566  0.7104
 1796SOL     ow 7181   6.627   0.313   7.288 -0.2591  0.0603 -0.0576
 1796SOL     hw 7182   6.556   0.298   7.225 -0.3640  0.8112 -0.1272
 1796SOL     hw 7183   6.693   0.247   7.266 -1.3067 -1.2438  0.5938
 1796SOL     vw 7184   6.626   0.303   7.277 -0.4115 -0.0127  0.0193
 1797SOL     ow 7185   0.714   5.951   2.874 -0.8500  0.0833  0.1659
 1797SOL     hw 7186   0.621   5.970   2.888 -0.6816  1.4976 -0.4039
 1797SOL     hw 7187   0.733   5.877   2.932 -2.4085 -0.4673  0.0198
 1797SOL     vw 7188   0.704   5.944   2.883 -1.0334  0.1969  0.0715
 1798SOL     ow 7189   4.765   0.283   0.638  0.0639  0.3036  0.5280
 1798SOL     hw 7190   4.738   0.203   0.593 -0.7791  0.7956  0.1230
 1798SOL     hw 7191   4.852   0.263   0.672  0.5182 -0.2708 -0.8760
 1798SOL     vw 7192   4.773   0.270   0.636  0.0126  0.2928  0.2894
 1799SOL     ow 7193   5.750   7.174   4.650 -0.3232  0.7364  0.7807
 1799SOL     hw 7194   5.789   7.088   4.638 -0.7764  0.5936  0.2321
 1799SOL     hw 7195   5.719   7.198   4.562 -2.3588  0.3870  1.3524
 1799SOL     vw 7196   5.751   7.166   4.637 -0.6514  0.6714  0.7837
 1800SOL     ow 7197   7.057   2.912   3.619 -0.8438 -0.7125 -0.3597
 1800SOL     hw 7198   6.981   2.890   3.565 -1.5213 -1.6968  0.9462
 1800SOL     hw 7199   7.049   2.856   3.696  0.2213  0.4873  0.6661
 1800SOL     vw 7200   7.046   2.902   3.622 -0.7925 -0.6841 -0.0521
 1801SOL     ow 7201   6.633   0.855   0.967  0.6335 -0.7984 -0.5238
 1801SOL     hw 7202   6.700   0.819   0.908  0.7220  1.4288 -1.9011
 1801SOL     hw 7203   6.553   0.808   0.944  1.0542 -1.2219 -1.1566
 1801SOL     vw 7204   6.631   0.844   0.956  0.7007 -0.5605 -0.7890
 1802SOL     ow 7205   3.153   2.785   0.330 -0.0607 -0.0932 -0.1271
 1802SOL     hw 7206   3.204   2.840   0.271  1.5893  0.1659  1.4705
 1802SOL     hw 7207   3.188   2.697   0.317  0.5773  0.0242  0.6954
 1802SOL     vw 7208   3.164   2.780   0.320  0.2412 -0.0435  0.1922
 1803SOL     ow 7209   0.864   4.169   0.320  0.9756  0.8215 -0.5307
 1803SOL     hw 7210   0.958   4.152   0.313  0.9461 -0.5806  1.6017
 1803SOL     hw 7211   0.843   4.153   0.412 -1.4759  0.5592 -1.0573
 1803SOL     vw 7212   0.873   4.165   0.331  0.6483  0.6020 -0.3188
 1804SOL     ow 7213   7.026   6.738   1.163  0.2465  0.8414 -0.1452
 1804SOL     hw 7214   7.102   6.775   1.118  1.1730  4.0225  3.5179
 1804SOL     hw 7215   7.061   6.667   1.215 -0.1456 -0.3888 -1.5003
 1804SOL     vw 7216   7.040   6.734   1.164  0.3173  1.0991  0.1593
 1805SOL     ow 7217   4.999   2.860   1.056 -0.1276  0.7815 -0.0163
 1805SOL     hw 7218   4.935   2.848   0.986  0.7744 -0.1544 -0.7238
 1805SOL     hw 7219   4.963   2.929   1.111 -1.4279  0.7106 -0.7458
 1805SOL     vw 7220   4.986   2.867   1.054 -0.1802  0.6485 -0.2058
 1806SOL     ow 7221   4.418   5.845   4.073 -0.2374 -0.4307  0.1186
 1806SOL     hw 7222   4.343   5.906   4.075 -0.2941 -0.2529  4.5845
 1806SOL     hw 7223   4.382   5.763   4.106  0.7114 -1.7033 -1.9005
 1806SOL     vw 7224   4.403   5.842   4.078 -0.1194 -0.5753  0.4418
 1807SOL     ow 7225   2.275   0.880   2.007 -0.1267  0.3279  0.2256
 1807SOL     hw 7226   2.282   0.921   1.921 -1.7202 -3.0381 -1.7354
 1807SOL     hw 7227   2.364   0.880   2.041  0.7036  1.0406 -1.7999
 1807SOL     vw 7228   2.287   0.885   2.000 -0.2273 -0.0222 -0.3004
 1808SOL     ow 7229   4.615   2.840   5.865  0.6100  0.3541 -0.7042
 1808SOL     hw 7230   4.520   2.842   5.849  0.4708 -0.2574 -0.0185
 1808SOL     hw 7231   4.623   2.856   5.959  1.0600 -1.4555 -0.4020
 1808SOL     vw 7232   4.603   2.842   5.875  0.6509  0.0347 -0.5736
 1809SOL     ow 7233   6.184   0.089   3.418  0.2780 -1.1740 -0.6103
 1809SOL     hw 7234   6.275   0.114   3.432 -0.7770  2.2367  1.3421
 1809SOL     hw 7235   6.154   0.056   3.502 -0.7560 -0.3812 -0.6435
 1809SOL     vw 7236   6.192   0.088   3.431  0.0024 -0.6194 -0.3570
 1810SOL     ow 7237   0.096   1.387   6.449 -0.3866  0.2674  0.5685
 1810SOL     hw 7238   0.176   1.422   6.408 -0.4495  0.5628  0.7007
 1810SOL     hw 7239   0.073   1.451   6.516 -0.8387  0.2718  0.4108
 1810SOL     vw 7240   0.104   1.400   6.452 -0.4546  0.3069  0.5653
 1811SOL     ow 7241   4.489   5.554   2.633 -0.6967 -0.8122 -0.2393
 1811SOL     hw 7242   4.459   5.641   2.605  0.8192 -0.5144 -1.0604
 1811SOL     hw 7243   4.414   5.497   2.618 -0.9793 -0.0563 -1.9005
 1811SOL     vw 7244   4.475   5.558   2.627 -0.5341 -0.6735 -0.5668
 1812SOL     ow 7245   2.513   6.020   0.368 -0.4129  0.2267 -0.0673
 1812SOL     hw 7246   2.489   5.970   0.446  1.6827 -2.2459 -0.8870
 1812SOL     hw 7247   2.507   5.958   0.296  1.3148  1.4081 -1.3222
 1812SOL     vw 7248   2.509   6.006   0.369  0.0916  0.0565 -0.3410
 1813SOL     ow 7249   3.067   0.922   2.461  0.1654 -0.0317 -0.2097
 1813SOL     hw 7250   2.982   0.904   2.421  0.1296  1.8186 -1.0505
 1813SOL     hw 7251   3.056   0.898   2.553 -0.6320 -1.6714 -0.7064
 1813SOL     vw 7252   3.055   0.917   2.468  0.0554 -0.0039 -0.3861
 1814SOL     ow 7253   3.454   6.668   5.247 -0.1469  0.1263 -0.0264
 1814SOL     hw 7254   3.455   6.615   5.167  2.0993 -0.2994  0.1925
 1814SOL     hw 7255   3.486   6.608   5.315  2.7360  1.7216  0.1733
 1814SOL     vw 7256   3.459   6.653   5.245  0.5298  0.2806  0.0288
 1815SOL     ow 7257   5.336   2.702   3.616  0.2960  0.9151  0.1913
 1815SOL     hw 7258   5.365   2.614   3.592 -1.9087  0.0911  0.3346
 1815SOL     hw 7259   5.316   2.696   3.709 -3.1589  0.4898 -0.4417
 1815SOL     vw 7260   5.337   2.689   3.625 -0.4506  0.7502  0.1268
 1816SOL     ow 7261   5.767   5.062   1.247 -1.0022 -0.0466  0.0322
 1816SOL     hw 7262   5.719   5.145   1.240 -2.9329 -1.2056 -1.8566
 1816SOL     hw 7263   5.759   5.023   1.160  0.4487 -1.9201  0.6851
 1816SOL     vw 7264   5.760   5.068   1.235 -1.0655 -0.4470 -0.1309
 1817SOL     ow 7265   4.386   1.653   5.326  0.1322 -0.3486  0.0679
 1817SOL     hw 7266   4.380   1.577   5.384  4.9611 -1.3859 -0.3608
 1817SOL     hw 7267   4.338   1.722   5.373  0.3807 -2.1476  3.3211
 1817SOL     vw 7268   4.379   1.652   5.340  0.8018 -0.7228  0.4406
 1818SOL     ow 7269   5.266   3.160   7.135  0.5862  0.5025  0.3784
 1818SOL     hw 7270   5.276   3.245   7.177  1.0130  0.8977 -0.4966
 1818SOL     hw 7271   5.265   3.097   7.207  4.0437  0.8818  0.9272
 1818SOL     vw 7272   5.267   3.163   7.150  1.0989  0.6049  0.3357
 1819SOL     ow 7273   2.743   6.819   7.177  0.1584  0.1275 -0.0456
 1819SOL     hw 7274   2.727   6.911   7.197 -2.9953 -0.0980 -0.9993
 1819SOL     hw 7275   2.705   6.772   7.251  1.8797 -0.4820  0.5040
 1819SOL     vw 7276   2.736   6.825   7.190 -0.0308  0.0174 -0.0989
 1820SOL     ow 7277   5.253   5.098   6.129 -0.1174  0.3370 -0.0699
 1820SOL     hw 7278   5.308   5.020   6.134 -1.4447 -0.8245 -2.0666
 1820SOL     hw 7279   5.269   5.134   6.042 -0.0756  1.9242  0.5484
 1820SOL     vw 7280   5.262   5.093   6.118 -0.2871  0.3934 -0.2515
 1821SOL     ow 7281   4.408   6.650   2.953 -0.1802 -0.5543  0.0509
 1821SOL     hw 7282   4.426   6.618   2.864 -0.3373 -1.1159  0.2147
 1821SOL     hw 7283   4.470   6.603   3.009 -1.7409 -2.1097  0.5489
 1821SOL     vw 7284   4.419   6.640   2.949 -0.4067 -0.8335  0.1383
 1822SOL     ow 7285   0.020   0.452   4.948 -0.0666 -0.3869  0.0787
 1822SOL     hw 7286   0.031   0.410   5.033 -1.7329  0.1122  0.5675
 1822SOL     hw 7287  -0.025   0.387   4.894  0.1130 -0.3416 -0.1307
 1822SOL     vw 7288   0.016   0.438   4.952 -0.2628 -0.3151  0.1156
 1823SOL     ow 7289   1.638   2.906   6.370  0.1896 -0.1133 -0.4249
 1823SOL     hw 7290   1.667   2.870   6.453  0.3982 -1.0331 -0.8875
 1823SOL     hw 7291   1.544   2.922   6.382  0.4553  0.9184  0.3790
 1823SOL     vw 7292   1.629   2.903   6.382  0.2522 -0.0985 -0.3798
 1824SOL     ow 7293   2.407   0.052   3.203 -0.4904  0.2275 -1.3533
 1824SOL     hw 7294   2.433   0.109   3.275  0.4272 -1.2582 -0.4541
 1824SOL     hw 7295   2.311   0.056   3.203 -0.4434  2.3681 -1.8611
 1824SOL     vw 7296   2.398   0.060   3.213 -0.3631  0.3142 -1.3018
 1825SOL     ow 7297   6.101   0.270   3.711 -0.1329  0.3123  0.7246
 1825SOL     hw 7298   6.119   0.217   3.633  0.3499  1.9470 -0.3169
 1825SOL     hw 7299   6.147   0.225   3.782  0.2400 -0.6625 -0.1112
 1825SOL     vw 7300   6.109   0.257   3.710 -0.0198  0.3994  0.4770
 1826SOL     ow 7301   3.458   4.806   4.272 -0.2167  0.0589 -0.0998
 1826SOL     hw 7302   3.532   4.808   4.212 -0.8824  0.5678 -0.9231
 1826SOL     hw 7303   3.442   4.898   4.294  0.7339 -0.1794  1.7887
 1826SOL     vw 7304   3.465   4.818   4.267 -0.1791  0.0947  0.0405
 1827SOL     ow 7305   7.321   0.841   6.577  0.0151  0.6805 -0.6966
 1827SOL     hw 7306   7.409   0.816   6.605  0.2191  1.1477 -0.9112
 1827SOL     hw 7307   7.265   0.819   6.651  0.3510  0.6199 -0.4610
 1827SOL     vw 7308   7.325   0.835   6.590  0.0863  0.7342 -0.6940
 1828SOL     ow 7309   5.975   6.356   7.049 -0.3816  0.2534  0.8194
 1828SOL     hw 7310   5.933   6.431   7.091  1.5368  0.6236  2.2155
 1828SOL     hw 7311   6.069   6.370   7.063  0.0765 -1.9747  0.3551
 1828SOL     vw 7312   5.982   6.368   7.057 -0.0679  0.0081  0.9425
 1829SOL     ow 7313   0.097   1.226   3.502  1.2888  0.6646 -0.5204
 1829SOL     hw 7314   0.017   1.266   3.467 -0.7949 -2.9139 -0.3266
 1829SOL     hw 7315   0.108   1.266   3.588 -2.6415 -1.2784  1.1471
 1829SOL     vw 7316   0.088   1.237   3.508  0.4954 -0.0639 -0.2749
 1830SOL     ow 7317   6.230   3.091   1.763 -0.4289  0.2509 -0.0801
 1830SOL     hw 7318   6.134   3.085   1.758 -0.6170  1.0140  1.7430
 1830SOL     hw 7319   6.247   3.180   1.793  0.6915 -0.6166  2.0875
 1830SOL     vw 7320   6.220   3.102   1.766 -0.3059  0.2371  0.4464
 1831SOL     ow 7321   5.548   0.449   1.302  0.2959 -0.1533 -0.6326
 1831SOL     hw 7322   5.576   0.436   1.211 -1.2486  3.2223 -1.7414
 1831SOL     hw 7323   5.529   0.543   1.308  0.0986 -0.3055  3.1492
 1831SOL     vw 7324   5.549   0.460   1.291  0.0663  0.2720 -0.2800
 1832SOL     ow 7325   4.397   0.764   0.071 -0.6110 -0.8192  0.0491
 1832SOL     hw 7326   4.386   0.669   0.073  0.6033 -1.0266 -1.2935
 1832SOL     hw 7327   4.486   0.778   0.039 -1.4785  0.7661 -1.9196
 1832SOL     vw 7328   4.407   0.754   0.067 -0.5653 -0.6374 -0.3877
 1833SOL     ow 7329   6.449   1.330   0.850  0.2313 -0.4824 -0.0978
 1833SOL     hw 7330   6.495   1.400   0.896  3.8043 -1.0054 -2.5082
 1833SOL     hw 7331   6.475   1.340   0.759 -1.5002 -3.2318 -1.0146
 1833SOL     vw 7332   6.459   1.341   0.844  0.4747 -0.9142 -0.5368
 1834SOL     ow 7333   5.076   0.946   1.378 -0.1850 -0.0220 -0.5453
 1834SOL     hw 7334   5.040   0.993   1.302  0.5374  1.9882  0.2760
 1834SOL     hw 7335   5.160   0.912   1.348 -1.2981 -2.0444 -1.5481
 1834SOL     vw 7336   5.082   0.948   1.364 -0.2363 -0.0236 -0.5692
 1835SOL     ow 7337   2.355   5.137   6.501 -0.0813  0.0362 -0.1349
 1835SOL     hw 7338   2.300   5.205   6.462  0.1824  0.3285 -0.0036
 1835SOL     hw 7339   2.435   5.182   6.526 -0.7123  0.1454  1.9097
 1835SOL     vw 7340   2.358   5.152   6.499 -0.1298  0.0889  0.1523
 1836SOL     ow 7341   1.647   6.706   2.238 -0.2268 -0.5570 -0.7245
 1836SOL     hw 7342   1.708   6.637   2.214 -1.1191 -2.3689  1.7606
 1836SOL     hw 7343   1.596   6.722   2.158  2.5112  0.0752 -2.4535
 1836SOL     vw 7344   1.648   6.699   2.224  0.0167 -0.7122 -0.6248
 1837SOL     ow 7345   6.079   1.346   4.737 -0.2609  0.2019 -0.8407
 1837SOL     hw 7346   6.161   1.305   4.767 -1.6617 -0.4686  2.6102
 1837SOL     hw 7347   6.097   1.372   4.647  4.4471  1.9641  0.2986
 1837SOL     vw 7348   6.092   1.344   4.729  0.1752  0.3459 -0.2351
 1838SOL     ow 7349   0.237   2.441   5.883  0.2313 -0.2573  0.0932
 1838SOL     hw 7350   0.276   2.519   5.843  0.0970 -0.6119 -0.7552
 1838SOL     hw 7351   0.300   2.414   5.950  0.9242 -0.1805 -0.5115
 1838SOL     vw 7352   0.251   2.448   5.886  0.3050 -0.2939 -0.0985
 1839SOL     ow 7353   0.161   2.728   4.471  0.1876  0.2839 -0.2175
 1839SOL     hw 7354   0.219   2.798   4.501  1.6419  0.3044 -2.7929
 1839SOL     hw 7355   0.220   2.664   4.431 -1.1224 -2.3192  1.6846
 1839SOL     vw 7356   0.176   2.729   4.470  0.2066 -0.0570 -0.3064
 1840SOL     ow 7357   5.524   6.153   0.535  0.0777 -0.2847 -0.0031
 1840SOL     hw 7358   5.618   6.170   0.540  0.1954 -0.5723 -1.0389
 1840SOL     hw 7359   5.516   6.058   0.532 -0.1738 -0.2443 -0.9714
 1840SOL     vw 7360   5.535   6.143   0.535  0.0601 -0.3171 -0.2675
 1841SOL     ow 7361   6.345   6.013   6.471  0.6916  0.1379  0.0965
 1841SOL     hw 7362   6.252   6.035   6.477  0.5422 -0.0527 -1.1897
 1841SOL     hw 7363   6.388   6.097   6.455  0.9380  0.4450  2.0845
 1841SOL     vw 7364   6.339   6.027   6.470  0.7043  0.1533  0.1891
 1842SOL     ow 7365   1.831   5.456   3.971 -0.1014  0.2873 -0.1045
 1842SOL     hw 7366   1.742   5.469   4.003 -0.2239 -1.6076  0.4040
 1842SOL     hw 7367   1.871   5.396   4.033  1.6592  1.3168 -0.1644
 1842SOL     vw 7368   1.824   5.450   3.983  0.1147  0.1731 -0.0453
 1843SOL     ow 7369   3.484   0.122   7.075 -1.2778 -1.0525  0.3597
 1843SOL     hw 7370   3.439   0.120   6.990 -2.4767  1.0498  0.8592
 1843SOL     hw 7371   3.441   0.194   7.122  2.8005  1.3955  0.8130
 1843SOL     vw 7372   3.472   0.132   7.070 -0.8979 -0.4522  0.4854
 1844SOL     ow 7373   6.200   2.781   2.864  1.4017 -0.2673  0.3078
 1844SOL     hw 7374   6.182   2.850   2.800  0.3039 -1.1094 -0.3189
 1844SOL     hw 7375   6.292   2.795   2.889  1.1538  1.5286  0.3581
 1844SOL     vw 7376   6.210   2.792   2.859  1.2240 -0.1415  0.2319
 1845SOL     ow 7377   0.669   1.772   5.537  0.2498 -0.0031 -1.3241
 1845SOL     hw 7378   0.681   1.823   5.617 -0.7114 -1.6651 -0.0511
 1845SOL     hw 7379   0.753   1.776   5.493  1.0348  0.3692  0.1510
 1845SOL     vw 7380   0.681   1.779   5.542  0.2266 -0.1733 -0.9615
 1846SOL     ow 7381   6.787   2.540   5.143 -0.3933 -0.0230  0.3698
 1846SOL     hw 7382   6.778   2.466   5.202 -0.5476  0.3903  0.8780
 1846SOL     hw 7383   6.873   2.530   5.103 -0.9715 -1.2438 -0.6460
 1846SOL     vw 7384   6.797   2.529   5.145 -0.4900 -0.1295  0.3026
 1847SOL     ow 7385   2.628   6.723   0.032 -0.4327 -0.5930 -0.0376
 1847SOL     hw 7386   2.549   6.717   0.085 -1.0017 -0.9644 -0.9175
 1847SOL     hw 7387   2.700   6.721   0.096 -1.1354  0.5101  0.8175
 1847SOL     vw 7388   2.627   6.722   0.047 -0.6005 -0.4966 -0.0409
 1848SOL     ow 7389   2.054   6.020   2.902  0.2275  0.1703  0.4093
 1848SOL     hw 7390   2.064   5.982   2.989 -1.0978 -0.9067  0.1378
 1848SOL     hw 7391   1.974   6.072   2.908  1.4213  2.0957  0.4630
 1848SOL     vw 7392   2.045   6.022   2.914  0.2102  0.2820  0.3806
 1849SOL     ow 7393   6.168   1.927   3.190  0.0926  0.7641  0.2067
 1849SOL     hw 7394   6.152   2.001   3.131  2.2720  1.9175  0.9431
 1849SOL     hw 7395   6.081   1.901   3.219 -0.8289  2.2081 -1.0634
 1849SOL     vw 7396   6.154   1.933   3.186  0.2584  1.1068  0.1361
 1850SOL     ow 7397   4.496   3.683   5.479 -0.1252 -0.0225  0.5034
 1850SOL     hw 7398   4.504   3.701   5.385 -0.0455 -0.9903  0.3167
 1850SOL     hw 7399   4.406   3.705   5.500  0.1175  1.1211  0.4149
 1850SOL     vw 7400   4.485   3.688   5.469 -0.0825  0.0005  0.4671
 1851SOL     ow 7401   1.679   3.317   2.574  0.5309  0.5664  0.0489
 1851SOL     hw 7402   1.694   3.247   2.637  1.5723  1.1069  0.4192
 1851SOL     hw 7403   1.611   3.283   2.516 -0.4650  0.0485  1.4467
 1851SOL     vw 7404   1.672   3.304   2.575  0.5369  0.5693  0.2822
 1852SOL     ow 7405   6.033   1.750   1.717  0.3596  0.3657  0.4988
 1852SOL     hw 7406   6.041   1.690   1.643  1.3330 -0.3916  1.1912
 1852SOL     hw 7407   5.949   1.728   1.757  0.0363  0.4785 -0.1116
 1852SOL     vw 7408   6.023   1.739   1.713  0.4454  0.2806  0.5096
 1853SOL     ow 7409   1.913   3.021   1.852  1.2347 -0.1076 -0.2555
 1853SOL     hw 7410   1.854   3.079   1.900  0.3551 -0.2686 -1.1254
 1853SOL     hw 7411   1.999   3.063   1.859  1.5067 -0.9380  2.8306
 1853SOL     vw 7412   1.917   3.034   1.859  1.1545 -0.2384  0.0370
 1854SOL     ow 7413   0.196   5.672   4.863 -0.3365  0.3783 -0.0079
 1854SOL     hw 7414   0.261   5.619   4.910 -0.2786  0.8835  0.4961
 1854SOL     hw 7415   0.230   5.679   4.774  0.7841  1.3768  0.4637
 1854SOL     vw 7416   0.209   5.666   4.858 -0.1810  0.5765  0.1209
 1855SOL     ow 7417   6.441   6.197   3.036 -0.0920  0.0761  0.5897
 1855SOL     hw 7418   6.465   6.105   3.022  0.5202 -0.0404  2.1760
 1855SOL     hw 7419   6.443   6.235   2.948 -0.9277 -1.5393 -0.1801
 1855SOL     vw 7420   6.444   6.190   3.022 -0.1214 -0.1523  0.6975
 1856SOL     ow 7421   6.202   5.863   7.296  0.1174  0.4172  0.2102
 1856SOL     hw 7422   6.121   5.845   7.248  0.0451 -0.1339  0.5237
 1856SOL     hw 7423   6.189   5.821   7.381  0.6860  0.4217  0.3033
 1856SOL     vw 7424   6.190   5.855   7.301  0.1829  0.3455  0.2637
 1857SOL     ow 7425   2.984   7.001   3.060 -0.5633  0.0648 -0.4364
 1857SOL     hw 7426   2.966   7.059   2.986  1.1951  0.4707 -0.5954
 1857SOL     hw 7427   2.990   7.059   3.136 -2.0928 -0.3221  0.0140
 1857SOL     vw 7428   2.982   7.016   3.060 -0.5331  0.0675 -0.3979
 1858SOL     ow 7429   3.542   4.915   5.218  0.2859 -0.5528  0.1875
 1858SOL     hw 7430   3.636   4.920   5.233  0.1148  0.2990  1.0183
 1858SOL     hw 7431   3.504   4.905   5.305 -0.6890  4.1465  0.5523
 1858SOL     vw 7432   3.550   4.915   5.231  0.1348  0.1800  0.3452
 1859SOL     ow 7433   4.030   4.152   1.392  0.1719  0.5925 -0.5170
 1859SOL     hw 7434   3.975   4.074   1.380  1.7289 -0.8146  0.9102
 1859SOL     hw 7435   3.967   4.223   1.405 -1.3562 -0.9178  0.9816
 1859SOL     vw 7436   4.014   4.151   1.392  0.1755  0.2074 -0.1310
 1860SOL     ow 7437   7.311   6.485   6.097  0.0359 -0.6118 -0.8421
 1860SOL     hw 7438   7.301   6.465   6.190  1.0015  1.5138 -0.2038
 1860SOL     hw 7439   7.280   6.575   6.088  0.2846 -0.6516 -2.5228
 1860SOL     vw 7440   7.306   6.494   6.108  0.1962 -0.3366 -0.9797
 1861SOL     ow 7441   3.899   1.604   3.005 -0.6099 -0.5163  0.7419
 1861SOL     hw 7442   3.849   1.683   3.026  0.3048  0.3799 -0.3428
 1861SOL     hw 7443   3.973   1.606   3.066 -1.4333 -1.4195  1.8062
 1861SOL     vw 7444   3.902   1.615   3.016 -0.5978 -0.5173  0.7391
 1862SOL     ow 7445   6.980   3.446   3.749  0.8016  0.5494 -0.0181
 1862SOL     hw 7446   6.989   3.541   3.752 -1.8233  0.9152 -1.1857
 1862SOL     hw 7447   7.025   3.415   3.828  1.4766  2.7616  0.5322
 1862SOL     vw 7448   6.987   3.454   3.760  0.5445  0.8897 -0.0994
 1863SOL     ow 7449   6.238   6.316   5.989  0.0508 -0.0852 -0.1334
 1863SOL     hw 7450   6.266   6.351   5.905  0.2214 -1.4014 -0.6413
 1863SOL     hw 7451   6.143   6.330   5.990 -0.2576 -1.7135 -1.3989
 1863SOL     vw 7452   6.229   6.322   5.978  0.0327 -0.4737 -0.3676
 1864SOL     ow 7453   6.284   4.562   6.607 -0.6126 -0.0549 -0.0491
 1864SOL     hw 7454   6.370   4.541   6.643 -0.3037  0.6570 -0.3399
 1864SOL     hw 7455   6.273   4.502   6.533  0.1838  0.6576 -0.7728
 1864SOL     vw 7456   6.294   4.552   6.602 -0.4666  0.1328 -0.1831
 1865SOL     ow 7457   3.924   1.702   5.108 -0.5502  0.1664  0.0494
 1865SOL     hw 7458   3.944   1.699   5.014 -0.3304 -0.2485  0.1075
 1865SOL     hw 7459   3.856   1.636   5.121 -0.4839  0.1278  0.2043
 1865SOL     vw 7460   3.918   1.693   5.097 -0.5125  0.1065  0.0775
 1866SOL     ow 7461   3.934   2.916   5.430  0.6142  0.9951  0.1447
 1866SOL     hw 7462   4.016   2.887   5.391 -0.5144 -1.0871 -0.8547
 1866SOL     hw 7463   3.902   2.840   5.479 -1.1316  1.4440 -0.2175
 1866SOL     vw 7464   3.941   2.902   5.432  0.2351  0.7796 -0.0353
 1867SOL     ow 7465   4.249   0.090   6.787  0.3275 -0.5285 -0.7237
 1867SOL     hw 7466   4.329   0.142   6.786 -0.5294  0.8570 -1.3845
 1867SOL     hw 7467   4.202   0.118   6.709 -2.9069  2.1732  1.8923
 1867SOL     vw 7468   4.253   0.100   6.777 -0.2122  0.0108 -0.4661
 1868SOL     ow 7469   3.172   3.581   7.116 -0.0376 -0.2239 -0.5938
 1868SOL     hw 7470   3.102   3.525   7.083  0.3772 -0.1441 -1.6676
 1868SOL     hw 7471   3.130   3.636   7.182 -0.6210 -1.2479 -0.0752
 1868SOL     vw 7472   3.158   3.581   7.120 -0.0598 -0.3486 -0.6669
 1869SOL     ow 7473   4.311   6.258   0.151 -0.1204  0.2195 -0.5228
 1869SOL     hw 7474   4.250   6.332   0.152  0.4060  0.8321  3.5580
 1869SOL     hw 7475   4.397   6.297   0.166  0.3551 -1.0485  0.2808
 1869SOL     vw 7476   4.314   6.273   0.153  0.0119  0.1330  0.1216
 1870SOL     ow 7477   3.145   1.764   4.427  0.1467  0.2233 -0.2599
 1870SOL     hw 7478   3.085   1.719   4.367  1.2420 -1.5042 -0.1356
 1870SOL     hw 7479   3.230   1.723   4.411  1.1185  1.9435  0.2424
 1870SOL     vw 7480   3.149   1.752   4.417  0.4195  0.2223 -0.1774
 1871SOL     ow 7481   2.691   0.285   2.948  0.3988  0.3322  0.5547
 1871SOL     hw 7482   2.783   0.284   2.919  0.0533  1.3061 -0.6563
 1871SOL     hw 7483   2.640   0.278   2.867 -0.5915  1.5088  1.0429
 1871SOL     vw 7484   2.697   0.284   2.933  0.2226  0.6159  0.4593
 1872SOL     ow 7485   0.753   2.882   3.539 -0.2162 -0.4460  0.8894
 1872SOL     hw 7486   0.710   2.955   3.583 -0.2128 -0.2251  0.5295
 1872SOL     hw 7487   0.724   2.889   3.447  2.3634  1.0964  0.0840
 1872SOL     vw 7488   0.743   2.893   3.532  0.1246 -0.2134  0.7356
 1873SOL     ow 7489   7.328   4.646   1.018  0.0028  0.2017  0.2756
 1873SOL     hw 7490   7.374   4.614   0.940  1.1970  0.2933  0.9111
 1873SOL     hw 7491   7.236   4.642   0.995  0.3460  0.5091 -1.2508
 1873SOL     vw 7492   7.322   4.641   1.005  0.2055  0.2546  0.1580
 1874SOL     ow 7493   1.635   4.904   7.109  0.1546 -0.4012 -0.1883
 1874SOL     hw 7494   1.670   4.835   7.054 -1.2842 -0.4672 -1.0687
 1874SOL     hw 7495   1.656   4.985   7.063  0.4643 -0.3448  0.0483
 1874SOL     vw 7496   1.642   4.906   7.096  0.0057 -0.4025 -0.2732
 1875SOL     ow 7497   0.853   4.531   1.021  0.0553  0.6532 -0.7946
 1875SOL     hw 7498   0.861   4.447   0.976  0.2526  0.7666 -0.9714
 1875SOL     hw 7499   0.829   4.507   1.111  0.2041  0.4047 -0.8187
 1875SOL     vw 7500   0.851   4.516   1.027  0.1010  0.6354 -0.8211
 1876SOL     ow 7501   1.130   5.505   0.834 -0.5616  0.6240 -0.3529
 1876SOL     hw 7502   1.072   5.439   0.795 -1.9273  2.0425 -0.8075
 1876SOL     hw 7503   1.120   5.493   0.929  0.1063 -0.5628 -0.4135
 1876SOL     vw 7504   1.121   5.495   0.842 -0.6536  0.6542 -0.4209
 1877SOL     ow 7505   5.375   6.878   4.797  0.5120 -0.4138 -0.4241
 1877SOL     hw 7506   5.288   6.838   4.801  0.7149 -1.1441 -2.1675
 1877SOL     hw 7507   5.379   6.917   4.709  2.4305 -1.6553 -0.9582
 1877SOL     vw 7508   5.364   6.878   4.786  0.7920 -0.6740 -0.7248
 1878SOL     ow 7509   5.057   3.378   5.727 -0.3291  0.5983  0.1688
 1878SOL     hw 7510   5.021   3.367   5.639 -0.7295 -0.0748  0.4065
 1878SOL     hw 7511   5.038   3.469   5.750  1.2108  1.2835 -1.0603
 1878SOL     vw 7512   5.050   3.388   5.718 -0.1788  0.5999  0.0379
 1879SOL     ow 7513   0.511   2.531   5.271  0.1218 -0.1012 -0.2097
 1879SOL     hw 7514   0.419   2.519   5.294  0.5005 -0.8160  1.0383
 1879SOL     hw 7515   0.545   2.443   5.262  1.2272  0.0846  1.7096
 1879SOL     vw 7516   0.503   2.518   5.273  0.3176 -0.1711  0.2084
 1880SOL     ow 7517   5.719   4.994   2.121  0.4533  0.2406  0.4214
 1880SOL     hw 7518   5.687   4.919   2.172  3.4425 -0.3430  1.6893
 1880SOL     hw 7519   5.726   5.065   2.185  0.6019  0.6723 -0.0721
 1880SOL     vw 7520   5.716   4.993   2.136  0.8676  0.2205  0.5236
 1881SOL     ow 7521   7.186   2.230   5.675  0.1401 -0.1693 -0.2297
 1881SOL     hw 7522   7.111   2.172   5.665  0.4218 -1.0069  2.0471
 1881SOL     hw 7523   7.157   2.313   5.637 -1.8722 -0.5409  0.3893
 1881SOL     vw 7524   7.173   2.234   5.668 -0.0882 -0.3288  0.1521
 1882SOL     ow 7525   2.460   1.721   2.234  0.0030  0.1202 -1.4273
 1882SOL     hw 7526   2.410   1.650   2.192 -0.9032  0.4281 -0.9101
 1882SOL     hw 7527   2.432   1.717   2.326  1.8738 -0.4808 -0.8484
 1882SOL     vw 7528   2.449   1.711   2.240  0.1304  0.0816 -1.2828
 1883SOL     ow 7529   4.950   2.622   4.539 -0.6060  0.0749  0.5462
 1883SOL     hw 7530   4.927   2.574   4.460 -1.1641 -1.3112  1.5195
 1883SOL     hw 7531   4.945   2.714   4.513  2.4732 -0.2865 -1.9529
 1883SOL     vw 7532   4.946   2.628   4.525 -0.2732 -0.1557  0.3450
 1884SOL     ow 7533   0.563   2.099   1.678  0.2727  0.3586  0.5939
 1884SOL     hw 7534   0.592   2.189   1.691  0.5347  1.2659 -4.3089
 1884SOL     hw 7535   0.469   2.101   1.696 -0.0180  2.0636 -0.8278
 1884SOL     vw 7536   0.554   2.111   1.682  0.2689  0.7031 -0.2406
 1885SOL     ow 7537   4.715   4.965   0.408  0.3483 -0.9817  0.4192
 1885SOL     hw 7538   4.685   4.963   0.500  0.0248 -0.0994  0.3482
 1885SOL     hw 7539   4.694   4.878   0.374 -3.0076 -0.2264  0.1370
 1885SOL     vw 7540   4.708   4.953   0.416 -0.1373 -0.7656  0.3726
 1886SOL     ow 7541   5.724   7.307   0.240  0.5731  0.8931  0.3374
 1886SOL     hw 7542   5.802   7.278   0.193  0.0071  2.5405 -1.7601
 1886SOL     hw 7543   5.752   7.384   0.289  0.1568  1.9272 -0.9950
 1886SOL     vw 7544   5.738   7.313   0.241  0.4435  1.2472 -0.1151
 1887SOL     ow 7545   1.345   4.164   3.915 -0.1446  0.1126 -0.3396
 1887SOL     hw 7546   1.283   4.154   3.843 -2.8547  0.1186  1.8259
 1887SOL     hw 7547   1.339   4.081   3.964  1.4789  0.1795  0.0451
 1887SOL     vw 7548   1.336   4.152   3.912 -0.2879  0.1223 -0.0031
 1888SOL     ow 7549   3.866   2.534   4.946  0.0418 -0.6874 -0.0576
 1888SOL     hw 7550   3.778   2.539   4.985  0.2698 -0.2915  0.4213
 1888SOL     hw 7551   3.903   2.620   4.961  0.8432 -1.1269  0.5346
 1888SOL     vw 7552   3.859   2.546   4.953  0.1775 -0.6932  0.0839
 1889SOL     ow 7553   7.362   0.152   1.523  0.5864  0.3178 -0.6860
 1889SOL     hw 7554   7.274   0.160   1.487  0.6140 -0.6165 -0.9736
 1889SOL     hw 7555   7.348   0.145   1.617  0.4887  2.2886 -0.5143
 1889SOL     vw 7556   7.348   0.152   1.531  0.5772  0.4545 -0.7012
 1890SOL     ow 7557   6.566   2.206   0.977 -0.1272 -0.4852  0.0119
 1890SOL     hw 7558   6.552   2.300   0.983  1.2365 -0.3141  0.8045
 1890SOL     hw 7559   6.591   2.179   1.065 -0.2930 -1.5625 -0.2520
 1890SOL     vw 7560   6.567   2.215   0.989  0.0305 -0.6050  0.0817
 1891SOL     ow 7561   2.552   5.685   2.874 -0.2194  0.2038 -0.0085
 1891SOL     hw 7562   2.562   5.774   2.838  0.8076  1.1565  2.4498
 1891SOL     hw 7563   2.641   5.653   2.882 -0.5998 -1.2374 -1.1744
 1891SOL     vw 7564   2.565   5.693   2.870 -0.1340  0.1392  0.1619
 1892SOL     ow 7565   6.082   6.564   0.710 -0.6935  0.4245 -0.6013
 1892SOL     hw 7566   6.070   6.475   0.744  2.5559  0.0557 -0.0807
 1892SOL     hw 7567   6.044   6.561   0.622 -0.3634 -1.6165 -0.7253
 1892SOL     vw 7568   6.076   6.552   0.703 -0.2213  0.1068 -0.5489
 1893SOL     ow 7569   2.060   0.345   2.576  0.3541 -0.2173 -0.5676
 1893SOL     hw 7570   2.094   0.270   2.626  0.9894  0.6283  0.3190
 1893SOL     hw 7571   2.137   0.380   2.530  0.1180  0.0266 -0.7774
 1893SOL     vw 7572   2.075   0.340   2.577  0.4069 -0.0735 -0.4784
 1894SOL     ow 7573   3.237   7.318   3.334 -0.7083  0.1999 -0.2170
 1894SOL     hw 7574   3.213   7.333   3.243 -1.8059 -0.0388  0.0209
 1894SOL     hw 7575   3.161   7.347   3.384 -0.5860 -0.7507  0.5556
 1894SOL     vw 7576   3.224   7.324   3.329 -0.8370  0.0432 -0.0836
 1895SOL     ow 7577   3.261   5.016   2.232 -0.7072  0.2422  0.1096
 1895SOL     hw 7578   3.191   4.962   2.196  1.7636 -0.9722 -3.5260
 1895SOL     hw 7579   3.285   5.074   2.160  1.7002  0.9128  1.3441
 1895SOL     vw 7580   3.255   5.016   2.218 -0.0635  0.1705 -0.2071
 1896SOL     ow 7581   5.301   2.977   6.868  0.5563  0.5755 -0.1309
 1896SOL     hw 7582   5.308   3.020   6.783  1.0722  0.3606 -0.1994
 1896SOL     hw 7583   5.283   2.885   6.847  1.1233  0.4363 -0.0172
 1896SOL     vw 7584   5.299   2.970   6.854  0.6993  0.5289 -0.1249
 1897SOL     ow 7585   6.876   1.890   4.630  0.3105  0.2698  0.4507
 1897SOL     hw 7586   6.789   1.878   4.667 -0.6201  0.1241 -1.6309
 1897SOL     hw 7587   6.921   1.948   4.692 -0.1782 -1.9564  3.1120
 1897SOL     vw 7588   6.871   1.896   4.643  0.1233 -0.0432  0.5269
 1898SOL     ow 7589   2.542   1.052   6.348 -0.1687  0.7354  0.3519
 1898SOL     hw 7590   2.570   1.025   6.261  0.7427  0.5200  0.7010
 1898SOL     hw 7591   2.610   1.112   6.378  0.6704 -0.8158  1.7418
 1898SOL     vw 7592   2.555   1.056   6.341  0.0622  0.5023  0.5813
 1899SOL     ow 7593   2.828   0.192   5.396  0.9050  0.5016  0.9609
 1899SOL     hw 7594   2.880   0.112   5.394  1.3795  0.7793 -1.3198
 1899SOL     hw 7595   2.738   0.163   5.407  0.9196 -0.4976 -1.1805
 1899SOL     vw 7596   2.823   0.178   5.397  0.9695  0.4064  0.3777
 1900SOL     ow 7597   5.662   5.565   3.501 -0.4928  0.4598  0.1705
 1900SOL     hw 7598   5.588   5.538   3.446 -3.4918 -1.3373  4.5535
 1900SOL     hw 7599   5.626   5.634   3.557  1.6578  0.6254  1.4592
 1900SOL     vw 7600   5.647   5.571   3.501 -0.6049  0.2446  0.9187
 1901SOL     ow 7601   5.270   3.008   1.063 -0.0499  0.2786  0.4450
 1901SOL     hw 7602   5.324   3.036   0.990 -1.4624  0.6450 -0.4956
 1901SOL     hw 7603   5.287   3.072   1.132 -0.4007  1.2822 -0.3687
 1901SOL     vw 7604   5.279   3.020   1.063 -0.2825  0.4594  0.2136
 1902SOL     ow 7605   0.275   3.218   0.733  0.2243  0.0489  0.7865
 1902SOL     hw 7606   0.235   3.180   0.811 -1.4632  2.2449  1.0806
 1902SOL     hw 7607   0.344   3.275   0.766  2.1687 -1.9488  0.3923
 1902SOL     vw 7608   0.279   3.220   0.747  0.2582  0.0750  0.7733
 1903SOL     ow 7609   0.592   7.145   1.642 -0.1626  0.1703  0.6383
 1903SOL     hw 7610   0.510   7.135   1.593  0.5180  1.0539 -0.7542
 1903SOL     hw 7611   0.655   7.176   1.577  2.6088 -4.8801  0.3537
 1903SOL     vw 7612   0.590   7.148   1.627  0.2928 -0.3796  0.4170
 1904SOL     ow 7613   7.270   5.078   6.925  0.2732  0.0386 -0.5665
 1904SOL     hw 7614   7.203   5.041   6.982  2.3494 -3.3216  0.0003
 1904SOL     hw 7615   7.334   5.007   6.915  4.1858  3.2140 -0.3391
 1904SOL     vw 7616   7.270   5.063   6.931  1.0633  0.0141 -0.4616
 1905SOL     ow 7617   6.821   7.199   0.815  0.6520  0.3618 -0.1212
 1905SOL     hw 7618   6.746   7.241   0.856  1.0893 -1.4173  2.7815
 1905SOL     hw 7619   6.788   7.167   0.731 -2.2615 -1.4380  1.5602
 1905SOL     vw 7620   6.807   7.200   0.809  0.3252 -0.1104  0.4837
 1906SOL     ow 7621   6.389   4.838   4.721 -0.2602 -0.0450 -0.3947
 1906SOL     hw 7622   6.453   4.907   4.741  0.1347 -0.4466 -0.2626
 1906SOL     hw 7623   6.382   4.789   4.803  0.9649 -1.3809 -1.0372
 1906SOL     vw 7624   6.397   4.841   4.735 -0.0463 -0.2747 -0.4623
 1907SOL     ow 7625   6.358   2.198   0.776 -0.4414 -0.0563 -0.3178
 1907SOL     hw 7626   6.365   2.282   0.732  0.8361 -0.5188 -1.0452
 1907SOL     hw 7627   6.280   2.206   0.831 -1.6237  0.8272 -2.0376
 1907SOL     vw 7628   6.348   2.210   0.778 -0.4287 -0.0006 -0.6406
 1908SOL     ow 7629   0.984   4.720   7.188  0.1748 -0.2722 -0.3472
 1908SOL     hw 7630   1.025   4.767   7.116 -0.6830  0.0320 -0.6476
 1908SOL     hw 7631   0.965   4.787   7.253  2.4251 -0.7436  0.9383
 1908SOL     vw 7632   0.987   4.735   7.187  0.3585 -0.2944 -0.2170
 1909SOL     ow 7633   6.728   4.011   1.303 -0.0002 -0.4464  0.2981
 1909SOL     hw 7634   6.812   4.024   1.347  0.4590 -0.1477 -0.6623
 1909SOL     hw 7635   6.663   4.032   1.371  0.6266  4.0262 -0.1414
 1909SOL     vw 7636   6.730   4.016   1.318  0.1431  0.1831  0.1133
 1910SOL     ow 7637   1.198   0.948   0.105 -0.3466 -0.3420 -0.6078
 1910SOL     hw 7638   1.184   1.042   0.089 -1.3925 -0.8907 -3.3474
 1910SOL     hw 7639   1.117   0.919   0.146 -0.1341 -0.1563 -0.0292
 1910SOL     vw 7640   1.186   0.957   0.109 -0.4566 -0.3899 -0.8929
 1911SOL     ow 7641   1.936   4.864   5.797 -0.4974  0.0618 -0.7118
 1911SOL     hw 7642   1.996   4.848   5.724  0.4080  0.5331 -0.0760
 1911SOL     hw 7643   1.875   4.790   5.793  1.1848 -1.4233 -0.2906
 1911SOL     vw 7644   1.936   4.852   5.787 -0.1560 -0.0720 -0.5722
 1912SOL     ow 7645   6.665   1.161   5.677  1.2771  0.4720  0.4075
 1912SOL     hw 7646   6.664   1.251   5.709  1.1675 -0.2877  2.7471
 1912SOL     hw 7647   6.577   1.128   5.693  1.3654 -0.1201 -0.2481
 1912SOL     vw 7648   6.654   1.169   5.684  1.2746  0.2937  0.6297
 1913SOL     ow 7649   5.252   1.319   7.142  0.4961 -0.0176 -0.1186
 1913SOL     hw 7650   5.335   1.365   7.130  0.7351 -0.0203  1.3804
 1913SOL     hw 7651   5.278   1.230   7.169  0.0081 -0.1407 -0.0463
 1913SOL     vw 7652   5.266   1.313   7.144  0.4630 -0.0342  0.0889
 1914SOL     ow 7653   3.452   4.533   4.137  0.3579  0.2171 -0.1870
 1914SOL     hw 7654   3.418   4.453   4.097  0.9039  0.4738 -1.1937
 1914SOL     hw 7655   3.443   4.600   4.069 -2.3224  1.6294  1.4034
 1914SOL     vw 7656   3.446   4.532   4.122  0.0763  0.4375 -0.1101
 1915SOL     ow 7657   5.867   2.995   7.073  0.3006 -0.1087 -0.5191
 1915SOL     hw 7658   5.846   2.902   7.062 -1.6037  0.0435  1.1146
 1915SOL     hw 7659   5.959   2.997   7.097  0.5808 -1.4955 -1.3902
 1915SOL     vw 7660   5.876   2.983   7.075  0.0863 -0.2717 -0.4184
 1916SOL     ow 7661   1.399   7.061   3.648  0.2175  0.5970  0.2109
 1916SOL     hw 7662   1.313   7.060   3.606 -0.8536  2.9283  2.1274
 1916SOL     hw 7663   1.461   7.069   3.575 -1.2929  0.6189 -1.1128
 1916SOL     vw 7664   1.396   7.062   3.633 -0.1231  0.9074  0.2892
 1917SOL     ow 7665   3.885   4.230   7.179  0.0400  0.1311  0.1536
 1917SOL     hw 7666   3.932   4.311   7.200  1.3445 -1.1618  2.7583
 1917SOL     hw 7667   3.901   4.215   7.086  2.3408  1.3015  0.3083
 1917SOL     vw 7668   3.893   4.239   7.170  0.5157  0.1149  0.5176
 1918SOL     ow 7669   2.025   4.084   3.622  0.3761  0.2586  0.5311
 1918SOL     hw 7670   2.057   4.072   3.711 -0.3526 -1.0470  0.6453
 1918SOL     hw 7671   2.003   3.995   3.592  1.5321  0.5266 -1.3163
 1918SOL     vw 7672   2.027   4.070   3.630  0.4325  0.1216  0.3026
 1919SOL     ow 7673   1.220   3.393   4.491 -0.0249 -0.5461  0.4758
 1919SOL     hw 7674   1.162   3.437   4.553 -0.9896 -0.0242 -0.7621
 1919SOL     hw 7675   1.202   3.300   4.504  0.4551 -0.4915  1.6060
 1919SOL     vw 7676   1.210   3.386   4.501 -0.0889 -0.4700  0.4616
 1920SOL     ow 7677   2.935   0.005   4.678 -0.8835 -0.8801  0.5453
 1920SOL     hw 7678   3.028   0.009   4.699 -0.6848  3.0465 -0.3811
 1920SOL     hw 7679   2.892  -0.000   4.763  0.1898  1.7999  1.3559
 1920SOL     vw 7680   2.942   0.005   4.692 -0.7157 -0.0084  0.5300
 1921SOL     ow 7681   6.042   0.046   5.658  0.7017 -0.4426 -0.2648
 1921SOL     hw 7682   6.029   0.081   5.569  2.0592 -0.8560 -0.6445
 1921SOL     hw 7683   6.017  -0.046   5.650 -0.5688 -0.1535  0.1551
 1921SOL     vw 7684   6.037   0.039   5.645  0.7131 -0.4590 -0.2596
 1922SOL     ow 7685   6.494   4.003   1.171  0.5535  0.0597 -0.7857
 1922SOL     hw 7686   6.586   3.980   1.186  0.5380 -0.2691 -1.1734
 1922SOL     hw 7687   6.487   4.012   1.076  0.2110  0.2026 -0.7489
 1922SOL     vw 7688   6.505   4.001   1.160  0.5064  0.0353 -0.8321
 1923SOL     ow 7689   0.966   4.069   6.268 -0.1645 -0.5657  0.5910
 1923SOL     hw 7690   0.941   4.142   6.324  0.5146 -1.1922  1.7502
 1923SOL     hw 7691   0.883   4.026   6.246 -0.3830 -0.6972  1.6604
 1923SOL     vw 7692   0.952   4.073   6.272 -0.1037 -0.6657  0.8850
 1924SOL     ow 7693   4.591   6.336   0.149  0.3207 -0.6459 -0.8556
 1924SOL     hw 7694   4.627   6.396   0.083  0.0733  1.0232  0.4571
 1924SOL     hw 7695   4.660   6.329   0.215 -0.7318  0.5850  0.4451
 1924SOL     vw 7696   4.605   6.343   0.149  0.1493 -0.2630 -0.5108
 1925SOL     ow 7697   5.742   2.279   6.325  0.5298 -0.1262  0.1066
 1925SOL     hw 7698   5.744   2.370   6.295  0.3259  0.1905  1.0214
 1925SOL     hw 7699   5.670   2.240   6.276  1.1375 -0.0192 -0.8916
 1925SOL     vw 7700   5.733   2.286   6.315  0.5829 -0.0705  0.0956
 1926SOL     ow 7701   2.411   3.425   3.979 -0.6028  0.1861 -0.6861
 1926SOL     hw 7702   2.488   3.373   4.002 -0.5588 -0.2801 -1.8525
 1926SOL     hw 7703   2.338   3.377   4.016 -0.3440  0.6953  0.5388
 1926SOL     vw 7704   2.412   3.412   3.987 -0.5629  0.1918 -0.6783
 1927SOL     ow 7705   3.545   4.539   3.709  0.2465 -0.4897 -0.1201
 1927SOL     hw 7706   3.505   4.591   3.778 -0.7231 -0.3347 -0.7821
 1927SOL     hw 7707   3.505   4.452   3.717 -0.2300 -0.3361 -0.7833
 1927SOL     vw 7708   3.535   4.534   3.719  0.0559 -0.4489 -0.2949
 1928SOL     ow 7709   4.774   4.911   6.642  0.8879  0.6618  0.6373
 1928SOL     hw 7710   4.753   4.993   6.687 -0.0530  0.3542  0.7724
 1928SOL     hw 7711   4.857   4.929   6.597  1.7145  1.0677  2.2428
 1928SOL     vw 7712   4.782   4.924   6.642  0.8729  0.6747  0.8669
 1929SOL     ow 7713   1.926   2.082   6.245 -0.6088 -0.4729 -0.1667
 1929SOL     hw 7714   1.831   2.087   6.237 -0.5874 -0.6825 -0.5650
 1929SOL     hw 7715   1.945   1.988   6.250 -0.7357 -0.4633  3.9258
 1929SOL     vw 7716   1.916   2.070   6.244 -0.6227 -0.4994  0.3209
 1930SOL     ow 7717   6.979   3.872   6.364 -0.1598 -0.3744  0.6660
 1930SOL     hw 7718   6.953   3.932   6.295  0.2766 -0.6427  0.2688
 1930SOL     hw 7719   6.943   3.787   6.337  0.7244 -0.6535  0.3416
 1930SOL     vw 7720   6.971   3.869   6.352  0.0145 -0.4468  0.5708
 1931SOL     ow 7721   3.493   2.638   0.623 -0.4036  0.0119  0.0422
 1931SOL     hw 7722   3.567   2.578   0.619  0.2970  0.8717 -0.1433
 1931SOL     hw 7723   3.432   2.607   0.556  0.3718  0.0664 -0.6912
 1931SOL     vw 7724   3.494   2.626   0.614 -0.2089  0.1324 -0.0790
 1932SOL     ow 7725   5.756   7.198   4.085  0.2997 -0.5394 -0.4790
 1932SOL     hw 7726   5.731   7.113   4.048 -1.3505 -0.1981 -0.2322
 1932SOL     hw 7727   5.843   7.215   4.049  0.0621 -1.6758 -1.6735
 1932SOL     vw 7728   5.764   7.189   4.075  0.0505 -0.6442 -0.6039
 1933SOL     ow 7729   6.488   6.761   5.071  0.2365  0.1631 -0.6089
 1933SOL     hw 7730   6.483   6.841   5.122 -2.7084 -0.7704  0.7701
 1933SOL     hw 7731   6.524   6.696   5.132  1.5206  0.1324 -1.3628
 1933SOL     vw 7732   6.492   6.763   5.086  0.0174  0.0360 -0.5264
 1934SOL     ow 7733   3.613   1.605   4.349  0.2784 -0.4255 -0.6059
 1934SOL     hw 7734   3.600   1.629   4.257 -0.5216  0.7936 -0.1925
 1934SOL     hw 7735   3.682   1.664   4.380  0.1762 -0.4709 -0.2853
 1934SOL     vw 7736   3.621   1.616   4.341  0.1591 -0.2706 -0.5090
 1935SOL     ow 7737   1.874   0.855   5.663 -0.1433  0.0266 -0.0775
 1935SOL     hw 7738   1.799   0.903   5.700  0.2338  0.2394  0.4152
 1935SOL     hw 7739   1.840   0.818   5.582 -0.5326  0.8790 -0.3229
 1935SOL     vw 7740   1.859   0.857   5.657 -0.1448  0.1671 -0.0451
 1936SOL     ow 7741   6.344   5.720   3.390  0.0290 -1.0675 -0.7652
 1936SOL     hw 7742   6.275   5.689   3.332  1.2996 -1.6692 -2.0294
 1936SOL     hw 7743   6.425   5.690   3.349  1.1945  1.5502 -0.5738
 1936SOL     vw 7744   6.346   5.712   3.377  0.3505 -0.8018 -0.9068
 1937SOL     ow 7745   0.323   0.069   6.624 -0.2315  0.6366  0.2068
 1937SOL     hw 7746   0.407   0.094   6.662  0.3657 -0.7438 -0.1603
 1937SOL     hw 7747   0.345   0.004   6.557 -1.3772  1.9915 -1.5924
 1937SOL     vw 7748   0.337   0.064   6.620 -0.3039  0.6332 -0.0789
 1938SOL     ow 7749   2.310   3.773   3.508  0.5336 -0.5085 -0.8203
 1938SOL     hw 7750   2.387   3.816   3.546  1.4670 -1.2390 -1.8225
 1938SOL     hw 7751   2.246   3.843   3.497  0.7876 -0.0080  0.6551
 1938SOL     vw 7752   2.312   3.788   3.512  0.6903 -0.5389 -0.7578
 1939SOL     ow 7753   4.986   6.518   4.597  0.6050  0.3705 -0.2096
 1939SOL     hw 7754   4.899   6.483   4.576  0.4467 -0.0169  0.9712
 1939SOL     hw 7755   5.042   6.490   4.525 -0.3669  1.1667 -1.3213
 1939SOL     vw 7756   4.982   6.510   4.585  0.4559  0.4246 -0.2005
 1940SOL     ow 7757   4.572   3.099   2.640  0.9294 -0.0024  0.4124
 1940SOL     hw 7758   4.502   3.039   2.612 -0.7309 -0.3501  4.5529
 1940SOL     hw 7759   4.651   3.046   2.636  0.8947 -0.0012 -3.1563
 1940SOL     vw 7760   4.573   3.084   2.636  0.7060 -0.0483  0.4878
 1941SOL     ow 7761   2.788   3.246   6.016 -0.2324 -0.2799 -0.2140
 1941SOL     hw 7762   2.745   3.298   5.948  0.9892 -0.4950 -1.1900
 1941SOL     hw 7763   2.785   3.156   5.984 -0.4650 -0.5270  0.4711
 1941SOL     vw 7764   2.782   3.241   6.003 -0.1019 -0.3408 -0.2522
 1942SOL     ow 7765   7.311   2.415   5.841  0.2243  0.7177  0.1962
 1942SOL     hw 7766   7.251   2.446   5.773 -0.8347  0.1447  0.8439
 1942SOL     hw 7767   7.383   2.478   5.839 -1.9361  3.4657  1.6297
 1942SOL     vw 7768   7.312   2.428   5.832 -0.2005  1.0046  0.4709
 1943SOL     ow 7769   5.888   6.877   5.770 -0.0625 -0.2328 -0.3553
 1943SOL     hw 7770   5.856   6.966   5.757  0.1144  0.2690  2.0766
 1943SOL     hw 7771   5.820   6.821   5.732 -0.6144  0.9051 -1.0905
 1943SOL     vw 7772   5.875   6.881   5.763 -0.1121 -0.0165 -0.1316
 1944SOL     ow 7773   3.422   0.102   5.681 -0.4107  0.0456  0.0659
 1944SOL     hw 7774   3.407   0.113   5.775 -0.8944  4.8414 -0.3133
 1944SOL     hw 7775   3.347   0.052   5.650 -0.4919 -1.2259  2.1051
 1944SOL     vw 7776   3.410   0.097   5.690 -0.4854  0.5106  0.2849
 1945SOL     ow 7777   0.004   1.130   6.501  0.5034 -1.1349  0.1685
 1945SOL     hw 7778   0.045   1.210   6.468 -0.1678 -1.7988 -2.6019
 1945SOL     hw 7779  -0.022   1.151   6.590  3.0319  0.6816  0.5843
 1945SOL     vw 7780   0.006   1.143   6.508  0.7484 -0.9828 -0.1423
 1946SOL     ow 7781   4.513   3.752   5.772  0.2253 -0.0703 -0.2570
 1946SOL     hw 7782   4.481   3.809   5.842  0.0649 -1.6392  1.0138
 1946SOL     hw 7783   4.605   3.776   5.763  0.0308  0.7615 -0.1327
 1946SOL     vw 7784   4.521   3.763   5.780  0.1783 -0.1675 -0.0730
 1947SOL     ow 7785   2.817   3.878   4.673 -0.1488 -0.2503  0.5567
 1947SOL     hw 7786   2.847   3.790   4.652 -0.9718 -0.8628  1.8363
 1947SOL     hw 7787   2.778   3.870   4.760 -1.6442  1.0569  0.0520
 1947SOL     vw 7788   2.816   3.865   4.682 -0.4548 -0.1587  0.6585
 1948SOL     ow 7789   2.349   3.108   4.244 -0.0935  0.4808  0.1139
 1948SOL     hw 7790   2.276   3.097   4.305  1.3275 -1.6416  1.5825
 1948SOL     hw 7791   2.426   3.116   4.301  1.3595 -2.0181 -1.3224
 1948SOL     vw 7792   2.349   3.107   4.260  0.2856 -0.1287  0.1180
 1949SOL     ow 7793   2.412   5.717   5.142 -0.0846  0.3570 -0.3351
 1949SOL     hw 7794   2.352   5.657   5.186  1.6597 -0.7395  0.6267
 1949SOL     hw 7795   2.448   5.666   5.069  0.5040  0.6311 -0.2417
 1949SOL     vw 7796   2.408   5.702   5.138  0.2232  0.2484 -0.1962
 1950SOL     ow 7797   3.704   4.406   4.825 -0.2080 -0.7213  0.2359
 1950SOL     hw 7798   3.711   4.365   4.739 -1.1225 -0.2763 -0.0695
 1950SOL     hw 7799   3.794   4.415   4.856  0.1066 -1.1348 -0.5590
 1950SOL     vw 7800   3.717   4.402   4.818 -0.2872 -0.7169  0.0906
 1951SOL     ow 7801   2.145   7.098   3.460 -0.4487  0.4071 -0.5079
 1951SOL     hw 7802   2.088   7.023   3.445 -0.3812  0.0258  0.9306
 1951SOL     hw 7803   2.115   7.135   3.543  0.4029  1.1458 -0.5059
 1951SOL     vw 7804   2.134   7.093   3.469 -0.3273  0.4539 -0.3179
 1952SOL     ow 7805   2.435   4.066   2.094 -0.8051 -0.4844 -0.5499
 1952SOL     hw 7806   2.515   4.028   2.058 -1.3302 -2.1325 -0.0310
 1952SOL     hw 7807   2.414   4.012   2.170 -0.9949  1.5134  0.9110
 1952SOL     vw 7808   2.443   4.054   2.099 -0.8994 -0.4385 -0.2886
 1953SOL     ow 7809   4.969   1.096   0.184  0.3140  0.0088  0.3283
 1953SOL     hw 7810   5.056   1.087   0.145  0.1660 -0.4146  0.0882
 1953SOL     hw 7811   4.938   1.181   0.153  0.2206 -0.2952 -0.4512
 1953SOL     vw 7812   4.976   1.106   0.175  0.2823 -0.0873  0.1938
 1954SOL     ow 7813   3.126   6.408   2.642 -0.2953 -0.6167  0.1949
 1954SOL     hw 7814   3.109   6.320   2.607  0.6689  0.0863 -2.2761
 1954SOL     hw 7815   3.218   6.405   2.670 -0.7575 -0.8532  1.8243
 1954SOL     vw 7816   3.136   6.396   2.641 -0.2290 -0.5550  0.0838
 1955SOL     ow 7817   0.821   1.289   1.950  0.1545  0.5143 -0.3444
 1955SOL     hw 7818   0.774   1.331   2.022  1.2634  0.8730  0.2040
 1955SOL     hw 7819   0.829   1.356   1.883  2.4495  1.4654  0.7710
 1955SOL     vw 7820   0.816   1.303   1.951  0.6036  0.6872 -0.1249
 1956SOL     ow 7821   0.055   3.215   0.449 -0.0363  0.5779 -0.0171
 1956SOL     hw 7822  -0.038   3.218   0.427  0.0192  0.0866 -0.3299
 1956SOL     hw 7823   0.098   3.263   0.379 -0.0281  0.5577 -0.0260
 1956SOL     vw 7824   0.048   3.222   0.437 -0.0279  0.5105 -0.0595
 1957SOL     ow 7825   5.073   6.930   2.399 -0.2664 -0.2307  0.0490
 1957SOL     hw 7826   5.039   6.992   2.335 -0.0361  0.8723  0.9671
 1957SOL     hw 7827   5.007   6.929   2.468  0.5307  0.3031  0.8334
 1957SOL     vw 7828   5.060   6.938   2.400 -0.1309 -0.0148  0.2736
 1958SOL     ow 7829   4.292   4.231   1.576 -0.9593  0.0418 -0.3532
 1958SOL     hw 7830   4.206   4.189   1.569 -0.5972 -0.7665 -0.1537
 1958SOL     hw 7831   4.322   4.240   1.486 -0.3067 -1.7507 -0.3613
 1958SOL     vw 7832   4.285   4.226   1.563 -0.8254 -0.3014 -0.3279
 1959SOL     ow 7833   1.400   7.107   5.939  0.2168  0.5505  0.2657
 1959SOL     hw 7834   1.317   7.152   5.951 -0.9612 -1.8033  1.6287
 1959SOL     hw 7835   1.451   7.129   6.017  0.1076  0.4692  0.3603
 1959SOL     vw 7836   1.396   7.116   5.951  0.0470  0.2294  0.4578
 1960SOL     ow 7837   1.737   3.441   6.305  1.0501  0.2299 -0.2103
 1960SOL     hw 7838   1.725   3.534   6.288  1.4032  0.4522  0.7009
 1960SOL     hw 7839   1.672   3.397   6.249  1.3720  0.9744 -1.1815
 1960SOL     vw 7840   1.727   3.447   6.295  1.1392  0.3574 -0.2182
 1961SOL     ow 7841   1.774   6.496   3.580  0.4040  0.2644  0.1441
 1961SOL     hw 7842   1.857   6.450   3.566  0.2202  0.1285 -0.5273
 1961SOL     hw 7843   1.707   6.429   3.565  0.1824  0.0743  1.8171
 1961SOL     vw 7844   1.776   6.481   3.576  0.3505  0.2215  0.2761
 1962SOL     ow 7845   6.549   6.644   1.142 -0.0362  0.8116  0.2808
 1962SOL     hw 7846   6.488   6.705   1.100  0.5106  0.7103 -0.6741
 1962SOL     hw 7847   6.634   6.663   1.103  0.3941  0.3471  0.9628
 1962SOL     vw 7848   6.552   6.654   1.132  0.0927  0.7370  0.2447
 1963SOL     ow 7849   1.160   4.268   4.844  0.3340 -0.2713 -0.8876
 1963SOL     hw 7850   1.084   4.224   4.882  0.1988 -1.2101 -2.1926
 1963SOL     hw 7851   1.130   4.358   4.829  0.5792  0.3408  1.6871
 1963SOL     vw 7852   1.146   4.274   4.847  0.3485 -0.3145 -0.7200
 1964SOL     ow 7853   0.177   5.798   2.034  0.0169 -0.1425 -0.3630
 1964SOL     hw 7854   0.240   5.782   2.105 -1.3064 -1.5040  0.5552
 1964SOL     hw 7855   0.231   5.833   1.963  1.4876  0.7301  1.0846
 1964SOL     vw 7856   0.193   5.801   2.034  0.0363 -0.2069 -0.0509
 1965SOL     ow 7857   3.026   3.390   6.026 -0.0841  0.1069  0.1662
 1965SOL     hw 7858   3.077   3.309   6.019  1.7943  1.0421  1.9356
 1965SOL     hw 7859   2.941   3.362   6.058 -0.6508 -1.4604 -2.4128
 1965SOL     vw 7860   3.022   3.376   6.029  0.0889  0.0235  0.0594
 1966SOL     ow 7861   2.125   5.939   3.147 -0.0692  0.5524 -0.0651
 1966SOL     hw 7862   2.105   5.887   3.225  2.0409 -0.0718  0.1087
 1966SOL     hw 7863   2.126   6.030   3.178 -4.2651  0.9341 -0.4662
 1966SOL     vw 7864   2.123   5.944   3.161 -0.3445  0.5207 -0.0951
 1967SOL     ow 7865   3.192   6.689   5.084  0.4876  1.2688  0.4340
 1967SOL     hw 7866   3.255   6.711   5.153  0.6230  0.8763  0.4388
 1967SOL     hw 7867   3.241   6.632   5.025  0.2637  1.3150  0.2025
 1967SOL     vw 7868   3.207   6.685   5.085  0.4759  1.2231  0.4039
 1968SOL     ow 7869   0.448   0.217   3.976  0.1175 -0.4183  0.1565
 1968SOL     hw 7870   0.406   0.132   3.992  0.9378 -0.7283  0.7391
 1968SOL     hw 7871   0.393   0.281   4.021  0.9025 -0.9608  1.9878
 1968SOL     vw 7872   0.435   0.214   3.984  0.3293 -0.5308  0.4750
 1969SOL     ow 7873   1.690   7.136   2.227  0.4371  0.0892 -0.4460
 1969SOL     hw 7874   1.708   7.065   2.289  1.8111  0.3556 -0.5151
 1969SOL     hw 7875   1.774   7.156   2.188 -0.7579 -2.0693 -4.6631
 1969SOL     vw 7876   1.703   7.129   2.230  0.4607 -0.1607 -1.0116
 1970SOL     ow 7877   4.788   0.946   7.320 -0.1726 -0.2176  0.3793
 1970SOL     hw 7878   4.775   0.853   7.304 -2.6084 -0.2263  1.9270
 1970SOL     hw 7879   4.868   0.950   7.374 -0.1231 -1.4253  0.4071
 1970SOL     vw 7880   4.797   0.934   7.325 -0.4873 -0.3781  0.5870
 1971SOL     ow 7881   6.604   2.100   3.376 -0.0772 -0.1029 -0.3129
 1971SOL     hw 7882   6.621   2.072   3.286  0.2335 -1.1329  0.0538
 1971SOL     hw 7883   6.655   2.039   3.430 -2.8061 -1.6628  0.7248
 1971SOL     vw 7884   6.613   2.088   3.371 -0.3963 -0.4448 -0.1276
 1972SOL     ow 7885   0.539   7.356   2.852  0.3828 -0.4220 -0.3144
 1972SOL     hw 7886   0.451   7.376   2.884  1.1266  0.1425  1.5240
 1972SOL     hw 7887   0.548   7.261   2.863  0.2073 -0.3966  0.0474
 1972SOL     vw 7888   0.529   7.346   2.858  0.4578 -0.3440 -0.0241
 1973SOL     ow 7889   3.515   2.122   3.954 -1.1108 -0.8429  0.0785
 1973SOL     hw 7890   3.433   2.141   3.999  0.4346  1.4932  2.2145
 1973SOL     hw 7891   3.560   2.059   4.011  0.5779  1.6304  1.6827
 1973SOL     vw 7892   3.510   2.116   3.968 -0.6841 -0.2083  0.5718
 1974SOL     ow 7893   6.424   7.016   2.010  0.0078 -0.0922  0.1062
 1974SOL     hw 7894   6.392   7.050   2.093  1.0120  2.0252 -0.3185
 1974SOL     hw 7895   6.372   6.937   1.995 -1.4562  0.4792  1.8409
 1974SOL     vw 7896   6.413   7.010   2.019 -0.0527  0.2625  0.2789
 1975SOL     ow 7897   2.660   1.633   0.138 -0.4394  0.3215  0.3874
 1975SOL     hw 7898   2.696   1.628   0.227 -1.2754  2.1692  0.8584
 1975SOL     hw 7899   2.701   1.710   0.099  1.5628 -1.6114 -1.6671
 1975SOL     vw 7900   2.670   1.642   0.145 -0.2856  0.3103  0.1786
 1976SOL     ow 7901   6.940   3.589   6.342 -0.1990 -0.0157  0.5125
 1976SOL     hw 7902   7.034   3.590   6.324 -0.0018 -2.4360  1.0630
 1976SOL     hw 7903   6.934   3.599   6.437 -0.5774  1.1843  0.3733
 1976SOL     vw 7904   6.952   3.590   6.352 -0.2227 -0.1768  0.5667
 1977SOL     ow 7905   1.870   3.200   2.745  0.3265  0.8236  0.1235
 1977SOL     hw 7906   1.909   3.119   2.779  1.9933  1.7886  0.6824
 1977SOL     hw 7907   1.940   3.240   2.693 -0.7050  1.5666 -0.7454
 1977SOL     vw 7908   1.885   3.195   2.743  0.4104  1.0490  0.0826
 1978SOL     ow 7909   5.054   4.753   4.078 -0.6610  0.0459  0.1906
 1978SOL     hw 7910   5.143   4.718   4.075 -0.6409  0.1321 -0.3934
 1978SOL     hw 7911   5.049   4.799   4.162 -1.1157 -2.4114  1.5895
 1978SOL     vw 7912   5.065   4.754   4.089 -0.7184 -0.2668  0.2983
 1979SOL     ow 7913   3.389   0.839   2.435  0.6984 -0.2903  0.5216
 1979SOL     hw 7914   3.413   0.746   2.436 -2.3043 -1.1593  0.4236
 1979SOL     hw 7915   3.472   0.885   2.445  2.2545 -2.9776  0.9074
 1979SOL     vw 7916   3.403   0.833   2.437  0.5075 -0.7595  0.5597
 1980SOL     ow 7917   4.282   4.371   0.819 -0.6969  0.3980 -0.2626
 1980SOL     hw 7918   4.325   4.433   0.878  2.2731 -0.5673 -1.2479
 1980SOL     hw 7919   4.300   4.285   0.856 -1.5750 -0.0733 -0.8900
 1980SOL     vw 7920   4.290   4.368   0.831 -0.4208  0.2084 -0.4753
 1981SOL     ow 7921   5.794   5.747   0.077 -0.8747 -0.5840  0.6316
 1981SOL     hw 7922   5.812   5.772  -0.014 -0.7633 -0.2064  0.7562
 1981SOL     hw 7923   5.852   5.673   0.093 -1.7857 -1.4615  0.0034
 1981SOL     vw 7924   5.804   5.741   0.067 -0.9801 -0.6499  0.5652
 1982SOL     ow 7925   3.120   5.713   0.153 -0.6894 -0.5406  0.1055
 1982SOL     hw 7926   3.035   5.756   0.158 -2.5847 -3.5368 -2.2289
 1982SOL     hw 7927   3.151   5.731   0.065  1.8130  1.4728  1.2812
 1982SOL     vw 7928   3.113   5.721   0.142 -0.6093 -0.6704 -0.0474
 1983SOL     ow 7929   3.810   6.328   3.716 -0.0596  0.0185 -0.0677
 1983SOL     hw 7930   3.818   6.365   3.628 -2.1242 -0.3418 -0.4748
 1983SOL     hw 7931   3.856   6.244   3.711 -1.6696 -0.8588 -1.4166
 1983SOL     vw 7932   3.817   6.322   3.703 -0.5444 -0.1447 -0.2993
 1984SOL     ow 7933   2.665   6.764   2.831  0.3555 -0.8744 -0.5648
 1984SOL     hw 7934   2.573   6.768   2.857 -0.0456 -1.6269 -1.7899
 1984SOL     hw 7935   2.682   6.851   2.793  0.5997 -0.2063  1.0102
 1984SOL     vw 7936   2.655   6.776   2.829  0.3347 -0.8855 -0.5188
 1985SOL     ow 7937   7.157   6.712   6.080  0.3784 -0.1571 -0.0675
 1985SOL     hw 7938   7.141   6.763   6.159  0.9815  0.7922 -0.5411
 1985SOL     hw 7939   7.085   6.736   6.021  0.3016 -0.3572 -0.0574
 1985SOL     vw 7940   7.145   6.722   6.083  0.4480 -0.0582 -0.1285
 1986SOL     ow 7941   1.672   5.037   1.026  0.6242  0.2216 -0.9084
 1986SOL     hw 7942   1.626   5.114   1.059 -0.9917 -1.1704  0.2141
 1986SOL     hw 7943   1.736   5.073   0.964 -2.6172  2.2493 -3.4034
 1986SOL     vw 7944   1.675   5.052   1.022 -0.0166  0.3054 -1.0896
 1987SOL     ow 7945   1.215   2.989   0.573 -0.1993  0.4736 -0.6207
 1987SOL     hw 7946   1.122   3.011   0.575 -0.5206 -0.6523 -1.8713
 1987SOL     hw 7947   1.217   2.894   0.586  0.9868  0.7810  2.3115
 1987SOL     vw 7948   1.203   2.979   0.575 -0.0852  0.3656 -0.3988
 1988SOL     ow 7949   4.923   5.039   2.240 -0.9757  0.0384 -0.5116
 1988SOL     hw 7950   4.921   5.113   2.179 -1.0790  0.5580  0.1094
 1988SOL     hw 7951   4.954   5.077   2.323 -1.4747 -0.5134 -0.0620
 1988SOL     vw 7952   4.927   5.054   2.243 -1.0552  0.0341 -0.3704
 1989SOL     ow 7953   6.218   3.645   3.963  0.4263 -0.0285  0.7724
 1989SOL     hw 7954   6.182   3.638   3.875  0.0669 -1.8276  1.0266
 1989SOL     hw 7955   6.311   3.625   3.952 -0.0181 -2.6029  1.0488
 1989SOL     vw 7956   6.225   3.641   3.950  0.3204 -0.6053  0.8423
 1990SOL     ow 7957   7.354   4.998   5.280  0.2562  0.5902  0.5916
 1990SOL     hw 7958   7.304   5.020   5.358 -3.3192 -2.2587 -0.5888
 1990SOL     hw 7959   7.315   5.052   5.211 -0.1235 -0.4619 -0.0439
 1990SOL     vw 7960   7.342   5.008   5.281 -0.2657  0.0756  0.3519
 1991SOL     ow 7961   4.000   6.702   1.368  0.8162  0.1645  0.0869
 1991SOL     hw 7962   3.934   6.739   1.309  1.0198  0.2489 -0.0904
 1991SOL     hw 7963   4.028   6.621   1.325  0.1983 -0.3211  0.5930
 1991SOL     vw 7964   3.995   6.696   1.354  0.7616  0.1118  0.1304
 1992SOL     ow 7965   5.178   3.613   6.257 -0.0055  0.5723 -0.2260
 1992SOL     hw 7966   5.109   3.663   6.214  0.1934 -0.5085 -1.9136
 1992SOL     hw 7967   5.147   3.522   6.254  0.9355  0.2279  0.0965
 1992SOL     vw 7968   5.165   3.608   6.251  0.1450  0.3843 -0.4060
 1993SOL     ow 7969   1.385   0.277   2.889  0.5477 -0.8056 -0.4854
 1993SOL     hw 7970   1.367   0.184   2.877 -2.6372 -0.4419  0.4447
 1993SOL     hw 7971   1.364   0.293   2.981 -0.1420  1.0260 -0.9287
 1993SOL     vw 7972   1.380   0.267   2.900  0.0364 -0.5159 -0.4212
 1994SOL     ow 7973   5.584   5.920   6.305  0.0758 -0.0284  0.0879
 1994SOL     hw 7974   5.514   5.934   6.242  0.6145 -2.4862 -1.1598
 1994SOL     hw 7975   5.616   6.008   6.326 -2.6706  1.0959 -0.0458
 1994SOL     vw 7976   5.579   5.933   6.300 -0.2153 -0.2046 -0.0947
 1995SOL     ow 7977   1.107   0.449   7.046  0.4886 -0.0292  0.1390
 1995SOL     hw 7978   1.022   0.405   7.044  0.8001 -0.6338 -0.1959
 1995SOL     hw 7979   1.149   0.419   7.126  0.6453 -0.2473 -0.0212
 1995SOL     vw 7980   1.101   0.439   7.056  0.5504 -0.1378  0.0737
 1996SOL     ow 7981   3.095   6.102   0.403  0.0437  0.7186  0.7404
 1996SOL     hw 7982   3.082   6.163   0.330  1.1056 -0.8827 -0.8462
 1996SOL     hw 7983   3.178   6.059   0.384 -1.5938 -2.7110  0.6401
 1996SOL     vw 7984   3.104   6.104   0.391 -0.0323  0.0548  0.5178
 1997SOL     ow 7985   3.206   0.861   2.182  0.2992  0.1153 -0.7092
 1997SOL     hw 7986   3.224   0.922   2.110  1.2364 -1.2596 -1.6932
 1997SOL     hw 7987   3.120   0.823   2.161 -0.3511  1.1457 -0.0215
 1997SOL     vw 7988   3.197   0.864   2.170  0.3371  0.0699 -0.7483
 1998SOL     ow 7989   2.034   3.370   6.194 -0.3666  0.2290 -0.9520
 1998SOL     hw 7990   2.007   3.312   6.123  0.7089 -1.2824 -0.1903
 1998SOL     hw 7991   2.104   3.423   6.156  1.4284 -1.7740 -0.6407
 1998SOL     vw 7992   2.040   3.369   6.180  0.0122 -0.2346 -0.8106
 1999SOL     ow 7993   4.087   4.562   3.542 -0.3713 -0.4430  0.0297
 1999SOL     hw 7994   4.024   4.551   3.471  0.4472  1.0811 -0.9901
 1999SOL     hw 7995   4.172   4.541   3.502 -0.0537 -1.0332  0.9807
 1999SOL     vw 7996   4.090   4.558   3.527 -0.2217 -0.3197  0.0205
 2000SOL     ow 7997   2.533   3.263   2.970  0.4799 -0.2810  0.7666
 2000SOL     hw 7998   2.477   3.302   2.903  1.1379  1.4680  1.1673
 2000SOL     hw 7999   2.622   3.289   2.945  0.6754  1.3203  2.7870
 2000SOL     vw 8000   2.538   3.272   2.958  0.5927  0.1611  1.0861
 2001SOL     ow 8001   4.379   3.355   5.452  0.3124  0.4431  0.1660
 2001SOL     hw 8002   4.332   3.363   5.369  0.2363  1.9129  0.3147
 2001SOL     hw 8003   4.390   3.261   5.465  2.6033  0.1595 -2.7864
 2001SOL     vw 8004   4.374   3.344   5.443  0.6049  0.5996 -0.2041
 2002SOL     ow 8005   6.969   2.522   5.366 -0.6659 -0.4663 -0.3960
 2002SOL     hw 8006   6.923   2.596   5.325 -0.4273 -0.0311  0.1029
 2002SOL     hw 8007   7.026   2.488   5.297  3.7338  3.4851  0.7308
 2002SOL     vw 8008   6.971   2.527   5.352 -0.0539  0.1125 -0.1817
 2003SOL     ow 8009   2.922   2.513   4.033 -0.3856 -0.4410 -0.4435
 2003SOL     hw 8010   2.953   2.598   4.003  1.7622 -1.7292 -2.1540
 2003SOL     hw 8011   2.988   2.483   4.094 -1.9498 -0.2531  1.4286
 2003SOL     vw 8012   2.935   2.520   4.037 -0.3086 -0.5860 -0.4222
 2004SOL     ow 8013   5.144   6.707   5.679  0.4990 -0.0646  1.0466
 2004SOL     hw 8014   5.176   6.624   5.714 -2.6501 -1.1520  1.6693
 2004SOL     hw 8015   5.129   6.690   5.586 -2.6122 -1.1967  1.6324
 2004SOL     vw 8016   5.146   6.694   5.671 -0.3266 -0.3574  1.2059
 2005SOL     ow 8017   1.017   2.366   2.961 -0.0723  0.1723 -0.4856
 2005SOL     hw 8018   0.997   2.322   2.879 -0.9048  2.5068 -1.6137
 2005SOL     hw 8019   0.939   2.355   3.014 -0.3504  0.4482 -0.8364
 2005SOL     vw 8020   1.004   2.359   2.957 -0.2187  0.5167 -0.6807
 2006SOL     ow 8021   2.339   1.766   2.479  0.1865 -0.2659  0.4046
 2006SOL     hw 8022   2.263   1.721   2.517 -0.4767 -0.3602 -0.9702
 2006SOL     hw 8023   2.414   1.730   2.525 -0.6998  2.0333  4.0405
 2006SOL     vw 8024   2.339   1.755   2.490 -0.0180  0.0250  0.7030
 2007SOL     ow 8025   4.804   6.142   4.462  0.1805  0.9605  0.2091
 2007SOL     hw 8026   4.800   6.237   4.469 -1.0230  0.9117  0.3936
 2007SOL     hw 8027   4.714   6.115   4.447  0.1552 -0.3069  2.2167
 2007SOL     vw 8028   4.792   6.151   4.461  0.0184  0.7868  0.4983
 2008SOL     ow 8029   0.310   6.862   0.873 -0.1863 -0.5706 -0.4290
 2008SOL     hw 8030   0.326   6.956   0.878 -0.0290 -0.6509  0.7315
 2008SOL     hw 8031   0.342   6.837   0.786  0.7641  0.2536 -0.3288
 2008SOL     vw 8032   0.316   6.871   0.862 -0.0401 -0.4725 -0.2627
 2009SOL     ow 8033   0.353   4.294   4.577  0.4162  0.2745 -0.0919
 2009SOL     hw 8034   0.328   4.288   4.485  0.5072 -0.3939 -0.0795
 2009SOL     hw 8035   0.449   4.304   4.576  0.5113 -0.5721 -0.0539
 2009SOL     vw 8036   0.363   4.294   4.565  0.4408  0.0746 -0.0851
 2010SOL     ow 8037   6.361   5.115   3.631 -0.6414  0.2824  0.3029
 2010SOL     hw 8038   6.269   5.092   3.644 -1.4482  2.9126 -0.1708
 2010SOL     hw 8039   6.406   5.074   3.705 -2.5166  0.5779  1.6942
 2010SOL     vw 8040   6.355   5.106   3.643 -0.9952  0.6683  0.4240
 2011SOL     ow 8041   1.460   0.008   2.484  0.5971  0.3907  0.9262
 2011SOL     hw 8042   1.545   0.046   2.462 -0.5293  1.5435 -1.8623
 2011SOL     hw 8043   1.463  -0.080   2.446  0.7774  0.1705  1.4432
 2011SOL     vw 8044   1.471   0.001   2.476  0.4722  0.5138  0.6264
 2012SOL     ow 8045   5.306   3.604   6.507  0.8990 -0.1091  0.0521
 2012SOL     hw 8046   5.258   3.578   6.429  1.1122 -1.9032  0.4787
 2012SOL     hw 8047   5.242   3.651   6.561  0.8859  1.6302 -1.3760
 2012SOL     vw 8048   5.291   3.607   6.504  0.9255 -0.1162 -0.0801
 2013SOL     ow 8049   4.769   5.258   0.676 -0.3249 -0.4407 -0.3469
 2013SOL     hw 8050   4.813   5.316   0.738  0.7752 -1.1552 -0.4393
 2013SOL     hw 8051   4.705   5.315   0.633 -0.4962  0.2756  0.7990
 2013SOL     vw 8052   4.767   5.273   0.678 -0.2022 -0.4406 -0.2080
 2014SOL     ow 8053   2.543   0.208   5.419 -0.1155  0.4411  0.1842
 2014SOL     hw 8054   2.448   0.209   5.421 -0.2204  0.5441 -2.0651
 2014SOL     hw 8055   2.569   0.281   5.476 -1.4270  1.1216 -0.0532
 2014SOL     vw 8056   2.534   0.218   5.427 -0.3024  0.5445 -0.1435
 2015SOL     ow 8057   4.936   2.143   5.825 -0.5720  0.1513  0.3348
 2015SOL     hw 8058   4.848   2.137   5.787  0.1684 -1.6154 -1.2530
 2015SOL     hw 8059   4.990   2.085   5.771  1.1966 -0.2327  2.3656
 2015SOL     vw 8060   4.931   2.135   5.813 -0.2408 -0.1324  0.3934
 2016SOL     ow 8061   3.554   6.365   3.385 -0.2979 -0.8246 -0.4762
 2016SOL     hw 8062   3.571   6.441   3.441  0.0649 -0.5402 -0.9678
 2016SOL     hw 8063   3.540   6.402   3.298  1.8091 -1.4392 -1.1308
 2016SOL     vw 8064   3.554   6.380   3.381  0.0280 -0.8683 -0.6274
 2017SOL     ow 8065   2.774   5.757   5.649 -0.0193 -0.6475  0.1869
 2017SOL     hw 8066   2.846   5.721   5.598 -0.7678 -3.5499  0.9852
 2017SOL     hw 8067   2.774   5.850   5.629  3.6499 -0.5956 -0.1561
 2017SOL     vw 8068   2.783   5.764   5.639  0.3660 -1.0238  0.2470
 2018SOL     ow 8069   5.694   0.019   6.630 -0.7314 -0.3664  0.7172
 2018SOL     hw 8070   5.727  -0.033   6.557  0.0122  1.9453 -0.6992
 2018SOL     hw 8071   5.749  -0.008   6.704  3.2508  1.8191 -1.0889
 2018SOL     vw 8072   5.706   0.008   6.630 -0.1078  0.2269  0.2921
 2019SOL     ow 8073   3.551   0.634   4.272  0.0948  0.7212 -0.5356
 2019SOL     hw 8074   3.542   0.684   4.190 -1.2727  0.3538 -0.6379
 2019SOL     hw 8075   3.579   0.547   4.243 -0.3227  0.6107 -0.6183
 2019SOL     vw 8076   3.554   0.630   4.257 -0.1407  0.6582 -0.5600
 2020SOL     ow 8077   2.233   5.228   0.203 -0.0930  0.0936 -0.0481
 2020SOL     hw 8078   2.143   5.198   0.218  0.1437 -0.6959 -0.1097
 2020SOL     hw 8079   2.227   5.323   0.193 -0.6652  0.2896  1.8930
 2020SOL     vw 8080   2.221   5.236   0.204 -0.1372  0.0153  0.1999
 2021SOL     ow 8081   5.826   7.343   6.895  0.0126 -0.4727  0.9761
 2021SOL     hw 8082   5.906   7.375   6.853  0.7878 -0.5473  2.3127
 2021SOL     hw 8083   5.813   7.402   6.970  0.6818 -2.3209  2.6601
 2021SOL     vw 8084   5.835   7.355   6.900  0.2029 -0.7265  1.3745
 2022SOL     ow 8085   0.863   2.132   1.484  0.1074  0.0535  0.4100
 2022SOL     hw 8086   0.878   2.171   1.570  1.0955 -0.3576  0.4412
 2022SOL     hw 8087   0.912   2.187   1.423 -0.6578  0.3919  0.0913
 2022SOL     vw 8088   0.871   2.144   1.488  0.1369  0.0439  0.3721
 2023SOL     ow 8089   4.352   0.552   3.839  0.1155 -0.1686  0.2261
 2023SOL     hw 8090   4.287   0.495   3.881 -0.5377 -0.2083 -0.8083
 2023SOL     hw 8091   4.301   0.627   3.808  1.0939  1.4941  2.3864
 2023SOL     vw 8092   4.336   0.555   3.840  0.1581  0.0456  0.3747
 2024SOL     ow 8093   3.952   2.434   5.274  0.2254  0.0955  0.4067
 2024SOL     hw 8094   4.025   2.493   5.291  0.3824 -0.4705  1.8405
 2024SOL     hw 8095   3.991   2.347   5.275 -0.4391 -0.2033  1.1056
 2024SOL     vw 8096   3.967   2.430   5.277  0.1584 -0.0186  0.6881
 2025SOL     ow 8097   5.355   1.104   6.890 -0.0337  0.1529 -0.0228
 2025SOL     hw 8098   5.447   1.127   6.873  0.1736 -0.0688  0.7623
 2025SOL     hw 8099   5.352   1.087   6.984 -1.1456  1.3407  0.1682
 2025SOL     vw 8100   5.367   1.104   6.900 -0.1531  0.2804  0.1063
 2026SOL     ow 8101   4.957   6.305   0.928 -0.8336 -0.2024 -0.3413
 2026SOL     hw 8102   4.912   6.241   0.985 -0.4261 -0.8022 -0.6830
 2026SOL     hw 8103   4.984   6.254   0.852  0.5694  0.1125 -0.0687
 2026SOL     vw 8104   4.954   6.290   0.926 -0.5949 -0.2398 -0.3504
 2027SOL     ow 8105   4.158   4.192   3.971  0.3898 -0.1023  0.1686
 2027SOL     hw 8106   4.101   4.223   4.041 -1.3462  1.5667 -1.8328
 2027SOL     hw 8107   4.113   4.116   3.935  0.7702 -0.3668  0.2538
 2027SOL     vw 8108   4.145   4.186   3.975  0.2110  0.0827 -0.0843
 2028SOL     ow 8109   0.823   1.545   2.507 -0.4200  0.0544  0.1834
 2028SOL     hw 8110   0.821   1.450   2.516  1.3684  0.1229  1.9437
 2028SOL     hw 8111   0.870   1.561   2.425  0.5971 -0.6098  0.6139
 2028SOL     vw 8112   0.829   1.535   2.497 -0.0499 -0.0242  0.4723
 2029SOL     ow 8113   0.882   2.729   1.270  0.2154 -0.4281  0.3232
 2029SOL     hw 8114   0.899   2.695   1.358 -1.1116 -0.6826  0.5047
 2029SOL     hw 8115   0.795   2.698   1.249  0.5363 -0.4151 -1.1243
 2029SOL     vw 8116   0.873   2.721   1.279  0.0827 -0.4600  0.1562
 2030SOL     ow 8117   1.831   7.153   0.301 -0.2195  0.6078 -0.7061
 2030SOL     hw 8118   1.917   7.193   0.292  0.0094 -0.0645 -1.6651
 2030SOL     hw 8119   1.841   7.089   0.372 -0.0426  0.8020 -0.5554
 2030SOL     vw 8120   1.843   7.149   0.309 -0.1659  0.5448 -0.8128
 2031SOL     ow 8121   1.551   4.142   1.722  0.0469 -0.1116 -0.1900
 2031SOL     hw 8122   1.631   4.143   1.669 -0.5396 -1.7506 -1.1703
 2031SOL     hw 8123   1.520   4.052   1.718 -2.0181  0.5281 -0.0730
 2031SOL     vw 8124   1.557   4.130   1.715 -0.3029 -0.2434 -0.3039
 2032SOL     ow 8125   3.344   5.077   2.525  0.2277 -0.0664  0.3777
 2032SOL     hw 8126   3.377   5.002   2.574  1.9142 -0.5571 -1.3818
 2032SOL     hw 8127   3.368   5.153   2.577  0.4716 -0.6413  1.1086
 2032SOL     vw 8128   3.351   5.077   2.538  0.4824 -0.2069  0.2420
 2033SOL     ow 8129   2.262   0.411   2.457  0.1801  0.2366  0.1525
 2033SOL     hw 8130   2.229   0.501   2.453  1.8392  0.9480  1.3813
 2033SOL     hw 8131   2.289   0.392   2.367 -1.1950  0.5331 -0.3491
 2033SOL     vw 8132   2.262   0.420   2.444  0.2174  0.3696  0.2486
 2034SOL     ow 8133   3.383   3.305   4.609  0.0875 -0.9399  0.4560
 2034SOL     hw 8134   3.431   3.228   4.581 -0.6292 -1.6246  1.0735
 2034SOL     hw 8135   3.326   3.274   4.680 -3.9515 -1.0242 -2.4728
 2034SOL     vw 8136   3.382   3.291   4.615 -0.5399 -1.0414  0.1512
 2035SOL     ow 8137   3.637   5.413   5.055  0.8296 -0.8135  0.3725
 2035SOL     hw 8138   3.728   5.388   5.040  1.3546  0.4418  1.3360
 2035SOL     hw 8139   3.642   5.495   5.104 -0.7684  1.2851 -2.6594
 2035SOL     vw 8140   3.650   5.420   5.059  0.6881 -0.3712  0.0994
 2036SOL     ow 8141   5.698   6.350   6.980  0.1953 -1.0132 -0.1535
 2036SOL     hw 8142   5.679   6.443   6.995 -0.3738 -1.3531  1.4166
 2036SOL     hw 8143   5.619   6.317   6.938 -0.5499 -1.2448  1.3630
 2036SOL     vw 8144   5.685   6.358   6.976  0.0219 -1.0886  0.2537
 2037SOL     ow 8145   0.427   5.623   0.830 -0.1774 -0.0692 -0.1444
 2037SOL     hw 8146   0.437   5.582   0.915  0.1826  1.5216  0.6279
 2037SOL     hw 8147   0.495   5.690   0.827 -0.7464  0.5048 -1.3178
 2037SOL     vw 8148   0.437   5.627   0.841 -0.2050  0.2162 -0.1973
 2038SOL     ow 8149   3.800   4.570   3.610 -0.9517 -0.2900  0.8095
 2038SOL     hw 8150   3.810   4.480   3.580 -1.3910 -0.1452  0.2041
 2038SOL     hw 8151   3.709   4.576   3.640 -0.7153 -0.2440  1.5412
 2038SOL     vw 8152   3.789   4.559   3.610 -0.9785 -0.2649  0.8262
 2039SOL     ow 8153   0.932   4.345   2.917 -0.7084 -0.2264 -0.1455
 2039SOL     hw 8154   0.968   4.338   3.005 -3.3555 -0.8952  0.9827
 2039SOL     hw 8155   0.854   4.400   2.927 -1.2380 -0.5560 -1.9986
 2039SOL     vw 8156   0.926   4.351   2.930 -1.1275 -0.3583 -0.2410
 2040SOL     ow 8157   0.072   3.426   6.020 -0.0955 -0.4933 -0.0475
 2040SOL     hw 8158  -0.017   3.392   6.007 -0.9842  1.5127  0.4020
 2040SOL     hw 8159   0.107   3.433   5.931  0.6748 -3.7312 -0.1272
 2040SOL     vw 8160   0.065   3.422   6.006 -0.1112 -0.6559  0.0012
 2041SOL     ow 8161   1.291   6.403   5.958  0.1064  0.3315 -0.1205
 2041SOL     hw 8162   1.331   6.367   5.879  0.5979 -1.6232  0.9568
 2041SOL     hw 8163   1.361   6.401   6.023 -0.8569 -0.1290  0.9330
 2041SOL     vw 8164   1.306   6.398   5.956  0.0442  0.0131  0.1607
 2042SOL     ow 8165   0.025   4.741   5.169  0.7741  0.4833 -0.0524
 2042SOL     hw 8166   0.042   4.829   5.203 -4.0273  2.4107 -1.6920
 2042SOL     hw 8167  -0.011   4.756   5.081 -0.6136 -3.0735 -0.2622
 2042SOL     vw 8168   0.022   4.755   5.161 -0.0427  0.2685 -0.2961
 2043SOL     ow 8169   4.428   6.811   4.938  0.7394 -0.2912 -0.6290
 2043SOL     hw 8170   4.403   6.727   4.900 -0.4859 -0.6082  0.7890
 2043SOL     hw 8171   4.408   6.803   5.031 -0.3387  1.8928 -0.6008
 2043SOL     vw 8172   4.422   6.799   4.945  0.4358 -0.0448 -0.4380
 2044SOL     ow 8173   5.986   1.334   1.301 -0.0371  0.0307 -0.9311
 2044SOL     hw 8174   5.965   1.428   1.304 -0.1581  0.0232 -1.4169
 2044SOL     hw 8175   5.913   1.291   1.344  1.0645  0.2999  1.3626
 2044SOL     vw 8176   5.974   1.341   1.307  0.0923  0.0651 -0.6925
 2045SOL     ow 8177   2.706   5.224   4.869  0.5796 -0.2172  0.0821
 2045SOL     hw 8178   2.660   5.305   4.892 -0.1560 -0.4664 -0.4942
 2045SOL     hw 8179   2.713   5.227   4.774 -0.1099 -1.1834 -0.0098
 2045SOL     vw 8180   2.701   5.235   4.860  0.3915 -0.3774 -0.0062
 2046SOL     ow 8181   2.943   0.271   5.110 -0.0842 -0.6284 -0.0640
 2046SOL     hw 8182   2.947   0.184   5.071  1.5572 -0.7465  0.2842
 2046SOL     hw 8183   2.950   0.255   5.204  1.7602 -0.0963 -0.0633
 2046SOL     vw 8184   2.945   0.257   5.117  0.3757 -0.5738 -0.0176
 2047SOL     ow 8185   0.644   0.050   6.545 -0.4276 -0.3664  0.3739
 2047SOL     hw 8186   0.594  -0.026   6.575 -0.6806  0.3321  1.8057
 2047SOL     hw 8187   0.588   0.125   6.563 -0.2957  0.1796 -1.2761
 2047SOL     vw 8188   0.630   0.050   6.551 -0.4435 -0.2022  0.3452
 2048SOL     ow 8189   5.212   4.260   5.004 -0.4740 -0.2893 -0.5556
 2048SOL     hw 8190   5.288   4.219   4.963  0.0434  0.8828 -0.8154
 2048SOL     hw 8191   5.137   4.208   4.975  0.2540 -1.8095  0.1435
 2048SOL     vw 8192   5.212   4.248   4.995 -0.3097 -0.3352 -0.4978
 2049SOL     ow 8193   3.830   0.641   1.227 -0.4190 -0.0936 -0.0027
 2049SOL     hw 8194   3.837   0.737   1.221 -1.8610 -0.0350 -1.5617
 2049SOL     hw 8195   3.912   0.614   1.269  0.7081  1.7099 -0.8930
 2049SOL     vw 8196   3.842   0.650   1.232 -0.4606  0.1521 -0.3258
 2050SOL     ow 8197   6.660   1.144   0.934  0.3330 -0.4910  0.7747
 2050SOL     hw 8198   6.630   1.126   0.846  0.0588 -0.1171  0.7873
 2050SOL     hw 8199   6.594   1.204   0.970 -0.7135 -2.2935  1.9861
 2050SOL     vw 8200   6.648   1.150   0.927  0.1585 -0.6795  0.9362
 2051SOL     ow 8201   2.947   2.775   6.197  0.5061  0.2157 -0.1466
 2051SOL     hw 8202   3.029   2.749   6.156  0.4553  1.0430 -0.8111
 2051SOL     hw 8203   2.949   2.734   6.284  0.3364 -2.1152 -1.1569
 2051SOL     vw 8204   2.958   2.766   6.203  0.4772  0.0174 -0.3674
 2052SOL     ow 8205   3.734   0.464   7.075 -0.7193 -0.2748  0.2164
 2052SOL     hw 8206   3.651   0.500   7.105  0.3406  2.0598  0.5920
 2052SOL     hw 8207   3.727   0.462   6.980 -0.7888  1.0573  0.1838
 2052SOL     vw 8208   3.722   0.468   7.066 -0.5887  0.2090  0.2615
 2053SOL     ow 8209   1.108   2.852   4.906 -0.5895  0.5095 -0.2127
 2053SOL     hw 8210   1.178   2.896   4.859  0.4034  1.8332  2.3207
 2053SOL     hw 8211   1.033   2.913   4.900 -0.2041  1.0807  0.5716
 2053SOL     vw 8212   1.107   2.866   4.899 -0.4078  0.7595  0.2251
 2054SOL     ow 8213   3.053   2.670   1.629 -0.7747 -0.2223 -0.5556
 2054SOL     hw 8214   3.010   2.742   1.582 -0.4536 -0.1453 -0.7323
 2054SOL     hw 8215   3.075   2.707   1.715  1.6102  0.6895 -1.4792
 2054SOL     vw 8216   3.050   2.685   1.634 -0.4177 -0.0919 -0.7008
 2055SOL     ow 8217   2.238   2.964   5.326 -0.1452 -0.1352 -0.2418
 2055SOL     hw 8218   2.174   2.958   5.397  0.2397  0.1548  0.1341
 2055SOL     hw 8219   2.309   2.906   5.353  1.8739  2.9595  1.6117
 2055SOL     vw 8220   2.239   2.955   5.339  0.1720  0.3114  0.0522
 2056SOL     ow 8221   1.663   2.804   7.212  0.1393  0.6293  0.4837
 2056SOL     hw 8222   1.729   2.768   7.152 -0.3825  1.5830 -0.7074
 2056SOL     hw 8223   1.614   2.727   7.241 -0.3114  0.2172 -1.2110
 2056SOL     vw 8224   1.665   2.789   7.208  0.0109  0.7007  0.1030
 2057SOL     ow 8225   2.431   5.800   5.449  0.1380  0.3452  0.0611
 2057SOL     hw 8226   2.506   5.784   5.506  0.4585 -0.8604 -0.6509
 2057SOL     hw 8227   2.355   5.791   5.506  0.4671 -0.4989  0.3927
 2057SOL     vw 8228   2.431   5.797   5.464  0.2236  0.0749  0.0107
 2058SOL     ow 8229   3.848   6.785   1.641  0.1391 -0.0486  0.4435
 2058SOL     hw 8230   3.856   6.831   1.724  0.2234 -0.5582  0.7148
 2058SOL     hw 8231   3.841   6.693   1.664 -0.9338 -0.1040 -0.0595
 2058SOL     vw 8232   3.848   6.779   1.655  0.0087 -0.1233  0.4129
 2059SOL     ow 8233   3.595   5.184   2.798  0.1776  0.6843 -0.2757
 2059SOL     hw 8234   3.601   5.267   2.846 -0.3986  1.6748 -1.8587
 2059SOL     hw 8235   3.685   5.159   2.781  0.3636  0.8144  0.4501
 2059SOL     vw 8236   3.607   5.191   2.802  0.1261  0.8321 -0.3887
 2060SOL     ow 8237   3.138   5.915   5.559 -0.2762  0.3881  0.1949
 2060SOL     hw 8238   3.178   5.989   5.605  0.7050  1.9736 -2.9042
 2060SOL     hw 8239   3.046   5.940   5.548 -0.0051  1.0929 -0.6072
 2060SOL     vw 8240   3.131   5.928   5.563 -0.1109  0.6902 -0.3200
 2061SOL     ow 8241   2.588   4.435   4.753 -0.2765  1.2773  0.6760
 2061SOL     hw 8242   2.496   4.414   4.764 -0.2824 -0.3806 -1.6387
 2061SOL     hw 8243   2.626   4.431   4.841 -1.7603 -1.4830  1.2821
 2061SOL     vw 8244   2.581   4.432   4.766 -0.4730  0.6945  0.4506
 2062SOL     ow 8245   1.735   3.535   3.794 -0.6531 -0.1483 -0.3474
 2062SOL     hw 8246   1.719   3.465   3.730 -1.8819  0.9102 -1.2496
 2062SOL     hw 8247   1.802   3.499   3.853 -0.8140 -1.8385 -1.1435
 2062SOL     vw 8248   1.742   3.521   3.793 -0.8364 -0.2316 -0.5715
 2063SOL     ow 8249   2.472   1.148   0.905 -0.2090  0.6083  0.4835
 2063SOL     hw 8250   2.449   1.095   0.982  0.2738  0.3856  0.4764
 2063SOL     hw 8251   2.512   1.086   0.844  1.0798  1.1116  0.7898
 2063SOL     vw 8252   2.474   1.133   0.907  0.0248  0.6453  0.5229
 2064SOL     ow 8253   1.995   5.696   4.989 -0.4648  0.1593  0.3192
 2064SOL     hw 8254   1.927   5.646   4.944 -1.5110  2.0626 -0.3197
 2064SOL     hw 8255   2.070   5.694   4.930 -1.0258  0.6263 -0.4246
 2064SOL     vw 8256   1.996   5.689   4.975 -0.6769  0.4718  0.1369
 2065SOL     ow 8257   3.698   2.359   5.296  0.1629 -0.7790  0.7460
 2065SOL     hw 8258   3.780   2.404   5.276  1.1887 -2.4940  0.9217
 2065SOL     hw 8259   3.635   2.394   5.232  1.9062 -1.9270 -1.7843
 2065SOL     vw 8260   3.700   2.370   5.285  0.5281 -1.1567  0.4354
 2066SOL     ow 8261   6.819   5.419   1.143 -0.3120  0.4542 -0.1044
 2066SOL     hw 8262   6.731   5.453   1.128 -0.7008 -0.9870 -1.3179
 2066SOL     hw 8263   6.858   5.480   1.206 -1.3283  2.4618 -1.3467
 2066SOL     vw 8264   6.813   5.431   1.150 -0.4976  0.5291 -0.4284
 2067SOL     ow 8265   3.967   4.142   1.023 -0.0729  0.2028  0.6694
 2067SOL     hw 8266   3.998   4.085   0.953  0.5738 -1.2595  2.0850
 2067SOL     hw 8267   3.875   4.158   1.003 -0.1269 -0.9373 -0.0256
 2067SOL     vw 8268   3.959   4.137   1.011  0.0054 -0.1407  0.7645
 2068SOL     ow 8269   4.787   0.689   1.750 -0.4708 -0.1556  0.4229
 2068SOL     hw 8270   4.849   0.659   1.816 -0.9564  2.2546  2.0723
 2068SOL     hw 8271   4.837   0.751   1.697 -0.4330 -1.1509 -0.7564
 2068SOL     vw 8272   4.802   0.693   1.751 -0.5300  0.0311  0.4849
 2069SOL     ow 8273   2.887   0.023   0.349  0.3390 -0.3221 -0.1005
 2069SOL     hw 8274   2.893   0.030   0.254  1.0199  0.4587 -0.0124
 2069SOL     hw 8275   2.797  -0.005   0.366  0.3190 -0.8137 -0.9854
 2069SOL     vw 8276   2.876   0.020   0.339  0.4262 -0.2840 -0.2056
 2070SOL     ow 8277   6.445   2.723   5.216 -0.5163 -0.0624 -0.1578
 2070SOL     hw 8278   6.449   2.808   5.260 -1.1339  0.0944 -0.3987
 2070SOL     hw 8279   6.440   2.659   5.288  2.5508 -0.1247  0.1468
 2070SOL     vw 8280   6.445   2.726   5.231 -0.1934 -0.0498 -0.1495
 2071SOL     ow 8281   4.369   4.738   7.179  0.3809  0.4289  0.2574
 2071SOL     hw 8282   4.316   4.662   7.156  1.0988  0.4466 -1.6741
 2071SOL     hw 8283   4.451   4.700   7.213  0.4436  0.3404  0.0126
 2071SOL     vw 8284   4.373   4.723   7.180  0.4840  0.4196 -0.0300
 2072SOL     ow 8285   3.088   5.682   4.098 -0.2227 -0.5356 -0.1716
 2072SOL     hw 8286   3.065   5.613   4.037 -0.7463  0.2881 -0.9238
 2072SOL     hw 8287   3.004   5.708   4.137 -0.0925 -0.0195 -0.2304
 2072SOL     vw 8288   3.074   5.676   4.095 -0.2747 -0.3591 -0.2787
 2073SOL     ow 8289   5.894   4.184   0.273 -0.3927  0.1082 -1.1527
 2073SOL     hw 8290   5.897   4.233   0.355 -0.7114 -0.7440 -0.6278
 2073SOL     hw 8291   5.865   4.249   0.208 -1.0975  0.5572 -0.4105
 2073SOL     vw 8292   5.890   4.199   0.275 -0.5279  0.0553 -0.9855
 2074SOL     ow 8293   6.122   6.332   4.934  0.4945 -0.2536 -0.1052
 2074SOL     hw 8294   6.031   6.310   4.914  0.2930  0.0397  0.4455
 2074SOL     hw 8295   6.165   6.337   4.849  0.0360 -0.5693 -0.3603
 2074SOL     vw 8296   6.116   6.330   4.920  0.4077 -0.2565 -0.0663
 2075SOL     ow 8297   1.242   4.829   1.750 -0.3056 -0.2087 -0.1991
 2075SOL     hw 8298   1.276   4.879   1.676  0.2145  0.7522  0.6518
 2075SOL     hw 8299   1.147   4.842   1.747 -0.2784 -0.0895 -0.6234
 2075SOL     vw 8300   1.234   4.837   1.740 -0.2334 -0.0663 -0.1428
 2076SOL     ow 8301   5.371   5.515   5.482 -0.1511  0.1634 -0.3657
 2076SOL     hw 8302   5.363   5.472   5.397 -0.0996 -0.7000  0.0621
 2076SOL     hw 8303   5.451   5.481   5.520 -0.3491  0.2855  0.1795
 2076SOL     vw 8304   5.380   5.505   5.476 -0.1707  0.0658 -0.2375
 2077SOL     ow 8305   5.521   3.306   4.051 -0.7492 -0.8798 -0.0525
 2077SOL     hw 8306   5.445   3.253   4.075 -0.3982 -0.1932  3.1195
 2077SOL     hw 8307   5.483   3.388   4.018 -1.5389 -0.1729  2.3754
 2077SOL     vw 8308   5.506   3.310   4.050 -0.8070 -0.6958  0.6864
 2078SOL     ow 8309   3.082   2.515   0.608 -0.1884  0.3952 -0.7250
 2078SOL     hw 8310   3.105   2.425   0.630  1.1621  0.8947  0.0579
 2078SOL     hw 8311   2.991   2.525   0.636 -0.9468 -1.2037 -2.4150
 2078SOL     vw 8312   3.073   2.505   0.615 -0.1103  0.2502 -0.8447
 2079SOL     ow 8313   1.171   5.408   4.957 -0.6513  0.1836 -0.7466
 2079SOL     hw 8314   1.227   5.475   4.917 -0.3954  1.1576  1.1169
 2079SOL     hw 8315   1.139   5.449   5.037  0.7855 -2.4525  1.3264
 2079SOL     vw 8316   1.174   5.423   4.962 -0.4280 -0.0358 -0.2272
 2080SOL     ow 8317   4.699   2.252   1.153 -0.4938 -0.6450  0.4342
 2080SOL     hw 8318   4.758   2.296   1.214 -0.2073 -0.5338  0.0813
 2080SOL     hw 8319   4.726   2.160   1.157 -1.5388 -0.9301  1.6842
 2080SOL     vw 8320   4.710   2.245   1.162 -0.5941 -0.6680  0.5525
 2081SOL     ow 8321   0.037   4.151   2.032 -0.9010  0.2906 -0.0627
 2081SOL     hw 8322   0.019   4.059   2.049 -1.5915  0.3632 -0.3591
 2081SOL     hw 8323   0.054   4.156   1.938  1.3738  0.1278  0.2974
 2081SOL     vw 8324   0.037   4.140   2.022 -0.6920  0.2787 -0.0544
 2082SOL     ow 8325   3.391   0.147   2.018  0.5024 -0.3094  0.1340
 2082SOL     hw 8326   3.421   0.185   1.935  1.5890 -1.5329 -0.0620
 2082SOL     hw 8327   3.299   0.128   2.003  1.2542 -3.0958 -1.8770
 2082SOL     vw 8328   3.383   0.150   2.005  0.7449 -0.8385 -0.1572
 2083SOL     ow 8329   7.240   1.284   4.207  0.3594 -0.4885 -0.3195
 2083SOL     hw 8330   7.275   1.213   4.153 -0.1143 -0.4866 -0.6379
 2083SOL     hw 8331   7.214   1.352   4.145 -0.1350 -0.4617 -0.0893
 2083SOL     vw 8332   7.241   1.283   4.192  0.2317 -0.4846 -0.3312
 2084SOL     ow 8333   7.253   1.427   4.466  0.3030 -0.3190 -0.1616
 2084SOL     hw 8334   7.235   1.520   4.479  1.8263 -0.1311  0.7923
 2084SOL     hw 8335   7.170   1.383   4.486 -0.4651  0.8224 -0.7591
 2084SOL     vw 8336   7.239   1.433   4.470  0.4027 -0.1435 -0.1147
 2085SOL     ow 8337   0.090   2.595   3.779 -0.5044  0.5021 -0.0666
 2085SOL     hw 8338   0.083   2.537   3.855  0.7109  0.9899  0.4531
 2085SOL     hw 8339   0.094   2.536   3.704  2.4653 -0.2862  0.5580
 2085SOL     vw 8340   0.090   2.579   3.779  0.0477  0.4624  0.0843
 2086SOL     ow 8341   3.136   2.775   3.523 -0.7650 -0.2764  0.0614
 2086SOL     hw 8342   3.121   2.863   3.557 -0.9398 -0.8691  1.6125
 2086SOL     hw 8343   3.112   2.780   3.430 -2.9216  0.7833  0.6150
 2086SOL     vw 8344   3.131   2.787   3.515 -1.0726 -0.2148  0.3392
 2087SOL     ow 8345   6.559   5.745   5.515 -0.2522 -0.2386  0.0674
 2087SOL     hw 8346   6.607   5.824   5.538  1.8702 -1.1254 -1.0490
 2087SOL     hw 8347   6.588   5.724   5.426 -0.2875 -2.5802  0.5255
 2087SOL     vw 8348   6.569   5.752   5.506  0.0234 -0.6645 -0.0196
 2088SOL     ow 8349   0.361   0.922   7.255  0.1896  0.5846  0.3338
 2088SOL     hw 8350   0.448   0.951   7.285 -0.4156  1.6785  1.1001
 2088SOL     hw 8351   0.378   0.881   7.170  1.0685  3.8472 -1.2436
 2088SOL     vw 8352   0.375   0.921   7.248  0.2258  1.1595  0.2267
 2089SOL     ow 8353   2.631   1.839   2.005 -0.0202 -0.5555 -0.2487
 2089SOL     hw 8354   2.660   1.788   1.929  1.9375  0.2042 -0.0643
 2089SOL     hw 8355   2.666   1.926   1.991  0.2378 -0.3523  1.4387
 2089SOL     vw 8356   2.639   1.844   1.993  0.2720 -0.4284 -0.0018
 2090SOL     ow 8357   0.459   3.365   3.772  0.0882  0.0603 -0.4475
 2090SOL     hw 8358   0.477   3.344   3.864 -1.4205 -0.3589 -0.2226
 2090SOL     hw 8359   0.378   3.318   3.752  0.2740  0.3303 -1.9364
 2090SOL     vw 8360   0.451   3.356   3.782 -0.0863  0.0407 -0.6143
 2091SOL     ow 8361   3.949   0.372   0.308  0.0678  0.2685  0.5421
 2091SOL     hw 8362   3.867   0.363   0.357 -0.6259 -1.6787 -0.8582
 2091SOL     hw 8363   3.956   0.291   0.258  2.0567  1.0737 -0.5896
 2091SOL     vw 8364   3.939   0.360   0.308  0.2385  0.1178  0.2081
 2092SOL     ow 8365   3.394   3.844   2.244 -0.0404 -0.7374 -0.7177
 2092SOL     hw 8366   3.434   3.931   2.244 -0.8720 -0.3467 -0.5542
 2092SOL     hw 8367   3.384   3.823   2.151 -2.6694  0.7034 -0.8536
 2092SOL     vw 8368   3.398   3.853   2.231 -0.4971 -0.4958 -0.7139
 2093SOL     ow 8369   5.847   0.530   2.871  0.5195  0.2109 -0.9772
 2093SOL     hw 8370   5.876   0.447   2.909  0.8913 -0.4036 -2.5470
 2093SOL     hw 8371   5.751   0.527   2.879  0.5036 -0.5558 -1.3853
 2093SOL     vw 8372   5.838   0.519   2.877  0.5665  0.0286 -1.2382
 2094SOL     ow 8373   6.710   2.786   1.651  0.6125  0.8168  0.9530
 2094SOL     hw 8374   6.657   2.712   1.622  1.0601 -0.7047  3.7462
 2094SOL     hw 8375   6.782   2.790   1.588  1.1935 -1.8779  1.3244
 2094SOL     vw 8376   6.712   2.777   1.639  0.7482  0.2605  1.3705
 2095SOL     ow 8377   6.113   0.449   0.821 -0.2668  0.5504  0.3458
 2095SOL     hw 8378   6.055   0.523   0.803 -1.4989 -0.5580 -0.4568
 2095SOL     hw 8379   6.084   0.381   0.760  1.5336 -0.2419  0.3238
 2095SOL     vw 8380   6.102   0.450   0.811 -0.1917  0.2996  0.2370
 2096SOL     ow 8381   7.026   2.433   6.805  0.1473  0.1150 -0.0377
 2096SOL     hw 8382   7.038   2.340   6.787 -0.1499  0.3609 -1.6084
 2096SOL     hw 8383   6.963   2.462   6.739  0.8768  1.6100 -0.0996
 2096SOL     vw 8384   7.019   2.424   6.794  0.2038  0.3449 -0.2532
 2097SOL     ow 8385   7.236   6.432   6.353 -0.7169  0.0951 -0.3538
 2097SOL     hw 8386   7.163   6.440   6.414 -2.6978 -1.9085 -2.2227
 2097SOL     hw 8387   7.272   6.345   6.370 -1.1109 -0.3712 -1.7372
 2097SOL     vw 8388   7.231   6.421   6.363 -1.0304 -0.2308 -0.7830
 2098SOL     ow 8389   5.301   7.279   5.001 -0.4590 -0.7774  0.5511
 2098SOL     hw 8390   5.308   7.274   5.096  0.7761 -1.6393  0.4392
 2098SOL     hw 8391   5.216   7.240   4.980  0.8704 -4.3010  1.0754
 2098SOL     vw 8392   5.291   7.273   5.011 -0.1209 -1.3561  0.6056
 2099SOL     ow 8393   1.011   2.860   5.697  0.4112  0.9162  0.1645
 2099SOL     hw 8394   1.043   2.947   5.672  0.6227  1.0208  0.7757
 2099SOL     hw 8395   1.036   2.803   5.624  3.1756  0.7193  1.1543
 2099SOL     vw 8396   1.019   2.864   5.684  0.8038  0.9041  0.3755
 2100SOL     ow 8397   6.384   4.435   4.054  0.7635  0.4037  0.4006
 2100SOL     hw 8398   6.383   4.478   3.969 -2.1975  0.7586  0.5078
 2100SOL     hw 8399   6.468   4.461   4.093  1.4939  1.4902 -1.7613
 2100SOL     vw 8400   6.395   4.444   4.048  0.4694  0.5939  0.1295
 2101SOL     ow 8401   4.065   0.938   6.000  0.1891  0.1375 -0.2965
 2101SOL     hw 8402   4.157   0.927   5.977  0.3568  1.2541 -0.2327
 2101SOL     hw 8403   4.024   0.854   5.978  0.8641  0.2358 -2.1402
 2101SOL     vw 8404   4.071   0.925   5.994  0.3002  0.2978 -0.5314
 2102SOL     ow 8405   0.665   3.531   5.255 -0.8087  0.5021  0.7449
 2102SOL     hw 8406   0.594   3.557   5.313 -1.8773 -0.8552  0.0934
 2102SOL     hw 8407   0.652   3.437   5.241  1.5478  0.0350  1.1980
 2102SOL     vw 8408   0.654   3.522   5.261 -0.6388  0.2614  0.7188
 2103SOL     ow 8409   5.435   5.906   6.068 -0.2771  0.4395 -0.0936
 2103SOL     hw 8410   5.360   5.913   6.009  0.0800 -2.1892 -1.0281
 2103SOL     hw 8411   5.505   5.954   6.024  0.0454 -1.6353 -2.0427
 2103SOL     vw 8412   5.434   5.913   6.054 -0.1874 -0.1812 -0.4742
 2104SOL     ow 8413   4.910   4.362   5.398  0.7989  0.5758 -0.3639
 2104SOL     hw 8414   4.866   4.422   5.459  1.3014  1.3799 -0.7856
 2104SOL     hw 8415   4.845   4.294   5.382  0.7731  0.1239  1.3645
 2104SOL     vw 8416   4.895   4.361   5.404  0.8616  0.6223 -0.1917
 2105SOL     ow 8417   0.057   1.413   2.929  0.5928 -0.4434  1.0366
 2105SOL     hw 8418   0.053   1.508   2.926 -0.3587 -0.5027 -0.5341
 2105SOL     hw 8419  -0.018   1.383   2.878  1.2440 -2.0237  0.9184
 2105SOL     vw 8420   0.047   1.422   2.922  0.5532 -0.6598  0.8138
 2106SOL     ow 8421   5.303   1.104   1.758 -0.2937  0.5790 -0.1271
 2106SOL     hw 8422   5.277   1.154   1.680  2.5973 -2.7373 -3.5941
 2106SOL     hw 8423   5.385   1.144   1.787 -0.8762  1.2159  0.6914
 2106SOL     vw 8424   5.310   1.116   1.751  0.0110  0.2255 -0.4765
 2107SOL     ow 8425   2.552   6.360   0.772 -0.4351 -0.0167  0.3479
 2107SOL     hw 8426   2.638   6.393   0.799  0.8891  0.2567 -3.5640
 2107SOL     hw 8427   2.497   6.438   0.769 -0.2555  0.1403  0.9086
 2107SOL     vw 8428   2.556   6.375   0.775 -0.2367  0.0401 -0.0942
 2108SOL     ow 8429   4.243   2.181   3.332  0.2279 -0.6308 -0.2086
 2108SOL     hw 8430   4.244   2.270   3.367  1.5721 -0.4940 -0.5303
 2108SOL     hw 8431   4.266   2.126   3.406  2.1992 -0.4216 -0.6105
 2108SOL     vw 8432   4.246   2.186   3.346  0.6649 -0.5852 -0.3041
 2109SOL     ow 8433   1.728   0.523   0.264 -0.1113  0.3194  0.0241
 2109SOL     hw 8434   1.658   0.491   0.321 -0.3003 -0.2785 -0.5381
 2109SOL     hw 8435   1.746   0.451   0.205  0.3266  0.8089 -0.4527
 2109SOL     vw 8436   1.721   0.510   0.264 -0.0786  0.3051 -0.1130
 2110SOL     ow 8437   3.271   3.236   1.409  0.3927  0.5834  0.2365
 2110SOL     hw 8438   3.307   3.312   1.455 -0.5893  0.1704  1.7768
 2110SOL     hw 8439   3.262   3.170   1.478 -1.5564  0.0679 -0.4708
 2110SOL     vw 8440   3.275   3.237   1.424  0.0062  0.4609  0.3464
 2111SOL     ow 8441   6.269   5.100   4.037 -0.1085  0.2693 -0.4044
 2111SOL     hw 8442   6.186   5.073   3.998 -0.7186 -0.2690  1.1910
 2111SOL     hw 8443   6.333   5.086   3.967 -1.1895 -0.3540 -1.3151
 2111SOL     vw 8444   6.266   5.094   4.022 -0.3314  0.1161 -0.3140
 2112SOL     ow 8445   4.602   3.478   5.317  1.0667 -0.3997 -0.6414
 2112SOL     hw 8446   4.690   3.515   5.313  0.8215  0.3666  0.4340
 2112SOL     hw 8447   4.577   3.465   5.226  2.1670 -0.3323 -0.9644
 2112SOL     vw 8448   4.610   3.481   5.305  1.1797 -0.2897 -0.5422
 2113SOL     ow 8449   4.222   3.538   6.485  0.6513  1.4059 -0.1738
 2113SOL     hw 8450   4.284   3.598   6.443  3.3757 -1.6747 -0.9750
 2113SOL     hw 8451   4.277   3.477   6.534 -2.0107  0.0987  1.4315
 2113SOL     vw 8452   4.237   3.538   6.486  0.6595  0.8270 -0.0679
 2114SOL     ow 8453   1.483   5.589   1.794 -0.2853  0.2821 -0.0362
 2114SOL     hw 8454   1.399   5.633   1.797 -0.2063  0.4084  0.6367
 2114SOL     hw 8455   1.483   5.541   1.711  0.5365  3.2798 -1.9090
 2114SOL     vw 8456   1.472   5.588   1.784 -0.1665  0.6943 -0.1945
 2115SOL     ow 8457   5.425   5.718   5.236  0.5424 -0.4148 -0.2931
 2115SOL     hw 8458   5.367   5.696   5.164 -0.6510  0.9632  0.1826
 2115SOL     hw 8459   5.507   5.743   5.194  0.4364 -1.3205 -1.0576
 2115SOL     vw 8460   5.428   5.719   5.221  0.3710 -0.3526 -0.3312
 2116SOL     ow 8461   3.659   2.107   6.100  0.0361 -0.2425  0.0425
 2116SOL     hw 8462   3.724   2.111   6.031  1.1004  1.4396  1.0708
 2116SOL     hw 8463   3.578   2.139   6.059  0.3935 -0.2805 -0.6928
 2116SOL     vw 8464   3.657   2.112   6.086  0.2238 -0.0257  0.0811
 2117SOL     ow 8465   6.886   0.711   2.816 -0.1505  0.2386  0.3589
 2117SOL     hw 8466   6.959   0.757   2.858 -1.0413  0.9786  1.1414
 2117SOL     hw 8467   6.880   0.627   2.863  2.4806 -1.5157 -2.0825
 2117SOL     vw 8468   6.895   0.706   2.828  0.0792  0.1047  0.1401
 2118SOL     ow 8469   3.447   4.996   1.616  0.4886 -0.5702  0.2826
 2118SOL     hw 8470   3.445   5.090   1.633  1.4153 -0.6338  0.8434
 2118SOL     hw 8471   3.386   4.983   1.544  1.3445  0.6394 -0.6968
 2118SOL     vw 8472   3.439   5.007   1.609  0.7238 -0.4189  0.2274
 2119SOL     ow 8473   2.062   5.228   1.934 -0.1359 -0.7396 -0.3776
 2119SOL     hw 8474   1.984   5.173   1.947 -1.1532  0.0598 -2.6328
 2119SOL     hw 8475   2.122   5.174   1.884 -0.9313 -0.0444 -2.1543
 2119SOL     vw 8476   2.059   5.214   1.929 -0.3750 -0.5422 -0.9096
 2120SOL     ow 8477   4.937   1.377   3.243  0.5461  0.6558  0.0045
 2120SOL     hw 8478   4.912   1.467   3.260 -1.8223 -0.0281  0.4103
 2120SOL     hw 8479   4.855   1.328   3.243  1.5972 -1.2804 -1.6868
 2120SOL     vw 8480   4.923   1.382   3.245  0.3724  0.3100 -0.1651
 2121SOL     ow 8481   4.589   4.614   6.572  0.7242  0.0401 -0.7050
 2121SOL     hw 8482   4.536   4.534   6.575 -1.7365  1.5180 -1.8937
 2121SOL     hw 8483   4.650   4.599   6.499 -0.5603 -0.2888 -1.7499
 2121SOL     vw 8484   4.590   4.601   6.563  0.2301  0.1917 -0.9997
 2122SOL     ow 8485   6.308   1.942   3.456  0.3878 -0.3751 -0.5514
 2122SOL     hw 8486   6.299   1.921   3.363 -1.1040  1.3142 -0.8590
 2122SOL     hw 8487   6.222   1.976   3.481  0.3888 -1.8588  1.7769
 2122SOL     vw 8488   6.296   1.944   3.447  0.1910 -0.3480 -0.2848
 2123SOL     ow 8489   6.065   3.456   4.090 -0.2348 -0.5475 -0.3725
 2123SOL     hw 8490   6.104   3.530   4.043  0.2514  0.7966  1.9949
 2123SOL     hw 8491   6.128   3.384   4.077  0.7750  0.3054 -0.3386
 2123SOL     vw 8492   6.079   3.456   4.082 -0.0377 -0.2577 -0.0558
 2124SOL     ow 8493   6.469   6.944   0.829  0.2418  0.6419  0.0140
 2124SOL     hw 8494   6.519   6.910   0.754  0.4885 -0.1322  0.5266
 2124SOL     hw 8495   6.494   7.037   0.833  1.7475  0.2519  0.3190
 2124SOL     vw 8496   6.479   6.952   0.820  0.4730  0.4880  0.1218
 2125SOL     ow 8497   1.379   5.676   6.529  0.8491 -0.5077 -0.4063
 2125SOL     hw 8498   1.416   5.657   6.616  1.1984 -0.1680 -0.4746
 2125SOL     hw 8499   1.286   5.653   6.537  0.1236  2.2969  1.0343
 2125SOL     vw 8500   1.372   5.671   6.542  0.7994 -0.0927 -0.2253
 2126SOL     ow 8501   2.583   5.013   3.060  0.1021  0.3258  0.2877
 2126SOL     hw 8502   2.670   5.046   3.082  0.6456 -0.6048 -0.4027
 2126SOL     hw 8503   2.552   4.972   3.141  0.0860  1.0826  0.6784
 2126SOL     vw 8504   2.591   5.012   3.074  0.1717  0.3028  0.2483
 2127SOL     ow 8505   1.575   0.955   7.314  0.0153  0.0303 -0.8878
 2127SOL     hw 8506   1.530   0.980   7.394 -0.0368 -3.0095  0.1507
 2127SOL     hw 8507   1.538   1.012   7.246 -0.0573  2.5565  1.1365
 2127SOL     vw 8508   1.565   0.966   7.315 -0.0013 -0.0374 -0.4837
 2128SOL     ow 8509   3.414   5.815   2.381 -0.8923  0.2175  0.3842
 2128SOL     hw 8510   3.407   5.725   2.351  0.8830 -0.2882  1.3473
 2128SOL     hw 8511   3.463   5.810   2.463 -2.2107  1.9141  1.3604
 2128SOL     vw 8512   3.420   5.803   2.388 -0.8322  0.3746  0.6402
 2129SOL     ow 8513   4.239   0.277   4.685 -0.0608 -0.1917  0.1897
 2129SOL     hw 8514   4.287   0.353   4.718 -1.1262  0.1759  0.9330
 2129SOL     hw 8515   4.281   0.202   4.727  0.6163  0.0234 -0.0887
 2129SOL     vw 8516   4.251   0.277   4.695 -0.1118 -0.1148  0.2508
 2130SOL     ow 8517   6.270   5.221   4.610  0.6583 -0.2439  0.3613
 2130SOL     hw 8518   6.362   5.197   4.623  0.7837 -0.8736 -1.4475
 2130SOL     hw 8519   6.272   5.293   4.548 -0.1213 -1.5032 -1.1902
 2130SOL     vw 8520   6.282   5.228   4.604  0.5720 -0.4930 -0.0820
 2131SOL     ow 8521   4.366   1.025   0.212  0.7021 -0.4097 -0.7082
 2131SOL     hw 8522   4.461   1.023   0.212  0.8729  2.7551 -1.3531
 2131SOL     hw 8523   4.343   1.086   0.282 -0.6823  0.7833 -2.1248
 2131SOL     vw 8524   4.375   1.033   0.221  0.5419  0.1653 -0.9802
 2132SOL     ow 8525   6.138   6.689   5.808 -0.7804 -0.2666  0.5458
 2132SOL     hw 8526   6.140   6.612   5.751 -2.3765  0.3217 -0.3640
 2132SOL     hw 8527   6.175   6.658   5.891 -0.3783 -1.7086 -0.1365
 2132SOL     vw 8528   6.143   6.674   5.812 -0.9379 -0.3791  0.3359
 2133SOL     ow 8529   0.735   0.981   3.701  0.5083  0.0096  0.3312
 2133SOL     hw 8530   0.648   0.987   3.661  0.0281  0.4531  1.3897
 2133SOL     hw 8531   0.764   1.072   3.709  0.4631 -0.0452  1.2313
 2133SOL     vw 8532   0.727   0.993   3.697  0.4390  0.0609  0.5896
 2134SOL     ow 8533   4.886   6.900   6.235 -0.2748 -0.5677 -0.0214
 2134SOL     hw 8534   4.818   6.948   6.282 -0.9118 -1.4201 -0.0491
 2134SOL     hw 8535   4.967   6.946   6.256 -0.4294 -1.2573  2.4203
 2134SOL     vw 8536   4.888   6.912   6.244 -0.3793 -0.7713  0.2968
 2135SOL     ow 8537   6.561   0.777   6.838  0.1854 -0.3841  0.7250
 2135SOL     hw 8538   6.518   0.728   6.769  1.5245 -1.5183  0.6423
 2135SOL     hw 8539   6.490   0.816   6.889 -0.8511 -0.8886 -0.3094
 2135SOL     vw 8540   6.546   0.776   6.836  0.2253 -0.6003  0.5774
 2136SOL     ow 8541   6.889   2.252   3.511  0.3487  0.2636  0.3324
 2136SOL     hw 8542   6.942   2.271   3.589 -0.8531  2.6183  0.6738
 2136SOL     hw 8543   6.931   2.302   3.441 -1.7986  2.9970  0.8173
 2136SOL     vw 8544   6.901   2.261   3.512 -0.0935  0.9350  0.4413
 2137SOL     ow 8545   4.197   2.453   2.586  0.3392  0.4911  0.3509
 2137SOL     hw 8546   4.148   2.525   2.624 -1.3224 -0.1480 -0.4811
 2137SOL     hw 8547   4.171   2.453   2.494  2.8165  0.8347 -0.4151
 2137SOL     vw 8548   4.187   2.462   2.579  0.4468  0.4522  0.1401
 2138SOL     ow 8549   0.572   7.310   2.084 -0.1339  0.5234 -0.8556
 2138SOL     hw 8550   0.609   7.279   2.002  2.0336  1.8578 -0.4429
 2138SOL     hw 8551   0.524   7.234   2.119 -0.6675 -0.2195 -3.0481
 2138SOL     vw 8552   0.570   7.296   2.078  0.0817  0.6013 -1.0904
 2139SOL     ow 8553   1.122   2.444   4.296  0.2301 -0.6205  0.2802
 2139SOL     hw 8554   1.044   2.425   4.349  0.8071  0.7214  1.7042
 2139SOL     hw 8555   1.164   2.359   4.283 -0.5769 -1.1405  0.9409
 2139SOL     vw 8556   1.117   2.430   4.301  0.1997 -0.5121  0.5555
 2140SOL     ow 8557   3.524   3.962   6.194  0.1383 -0.0794 -0.2383
 2140SOL     hw 8558   3.544   3.892   6.255 -1.2867 -0.8928 -0.6620
 2140SOL     hw 8559   3.432   3.984   6.210  0.3666  1.2367 -0.5682
 2140SOL     vw 8560   3.514   3.956   6.204 -0.0194 -0.0131 -0.3378
 2141SOL     ow 8561   2.258   3.938   5.702 -1.3632  0.1221 -0.6965
 2141SOL     hw 8562   2.278   3.972   5.789 -1.4240  0.2093 -0.7164
 2141SOL     hw 8563   2.200   4.004   5.664 -0.3860  0.6759 -1.2634
 2141SOL     vw 8564   2.253   3.951   5.709 -1.2422  0.2066 -0.7741
 2142SOL     ow 8565   2.432   6.594   1.720 -0.2627 -0.0871  0.0905
 2142SOL     hw 8566   2.337   6.596   1.736 -0.4534 -4.0166  0.5616
 2142SOL     hw 8567   2.469   6.571   1.805  1.1383  1.1395 -0.1631
 2142SOL     vw 8568   2.424   6.591   1.733 -0.1030 -0.4437  0.1191
 2143SOL     ow 8569   4.326   2.773   3.538 -0.0372 -1.2083  0.4633
 2143SOL     hw 8570   4.254   2.722   3.501 -0.6164 -0.7873  0.9763
 2143SOL     hw 8571   4.404   2.744   3.490 -0.9491  0.3663 -2.1895
 2143SOL     vw 8572   4.327   2.763   3.527 -0.2339 -0.9451  0.1808
 2144SOL     ow 8573   2.308   2.432   6.463 -0.5093 -0.2022  0.2343
 2144SOL     hw 8574   2.377   2.488   6.429  1.8507 -2.7931  0.3575
 2144SOL     hw 8575   2.298   2.458   6.555  0.6871 -0.0853  0.3416
 2144SOL     vw 8576   2.315   2.443   6.471 -0.0399 -0.5288  0.2646
 2145SOL     ow 8577   2.566   7.224   1.124 -0.9483  1.0692 -0.5147
 2145SOL     hw 8578   2.547   7.221   1.030 -1.3349  1.8922 -0.4719
 2145SOL     hw 8579   2.481   7.236   1.166 -0.8759 -0.1283  0.0073
 2145SOL     vw 8580   2.552   7.225   1.117 -0.9898  1.0197 -0.4403
 2146SOL     ow 8581   1.047   2.582   4.789 -0.2815 -0.2084 -0.6001
 2146SOL     hw 8582   1.072   2.660   4.739  0.5953  0.4175  0.7429
 2146SOL     hw 8583   1.008   2.616   4.869 -0.2061 -1.1473 -0.1459
 2146SOL     vw 8584   1.045   2.597   4.793 -0.1559 -0.2496 -0.3631
 2147SOL     ow 8585   4.828   1.012   2.154 -0.0216  0.9133  0.0359
 2147SOL     hw 8586   4.842   0.936   2.210 -2.2645  1.4463  1.4311
 2147SOL     hw 8587   4.815   0.975   2.066 -1.3625 -0.3749  0.7264
 2147SOL     vw 8588   4.828   0.997   2.149 -0.4947  0.8136  0.3111
 2148SOL     ow 8589   2.578   2.521   4.199  0.1034 -0.3016 -0.0358
 2148SOL     hw 8590   2.612   2.498   4.113 -0.6163  1.0091 -0.6953
 2148SOL     hw 8591   2.600   2.446   4.254  0.0041 -1.4407 -1.4948
 2148SOL     vw 8592   2.585   2.508   4.195 -0.0046 -0.2789 -0.3154
 2149SOL     ow 8593   0.063   6.843   6.770  0.6427  1.1239 -0.6940
 2149SOL     hw 8594  -0.014   6.844   6.713  0.7074 -0.0104 -0.8374
 2149SOL     hw 8595   0.096   6.753   6.762  1.8749  1.5511 -0.4963
 2149SOL     vw 8596   0.057   6.831   6.761  0.8138  1.0304 -0.6869
 2150SOL     ow 8597   2.703   2.920   6.902  0.4915 -0.0804 -0.3903
 2150SOL     hw 8598   2.645   2.889   6.833 -0.9558  2.0372 -0.2357
 2150SOL     hw 8599   2.685   2.862   6.976  0.3814 -0.9459 -1.0760
 2150SOL     vw 8600   2.693   2.908   6.903  0.2860  0.0848 -0.4601
 2151SOL     ow 8601   3.880   2.183   6.254 -0.1131  0.5450 -0.0587
 2151SOL     hw 8602   3.869   2.263   6.202  0.9085 -1.1139 -3.0979
 2151SOL     hw 8603   3.808   2.127   6.227  0.6028 -0.4758  0.1065
 2151SOL     vw 8604   3.869   2.187   6.243  0.1161  0.1913 -0.4380
 2152SOL     ow 8605   5.675   5.762   2.611  0.4324 -0.6568 -0.5297
 2152SOL     hw 8606   5.643   5.691   2.667  0.8894 -1.0571 -0.7605
 2152SOL     hw 8607   5.757   5.789   2.653  0.6938 -0.8497 -0.9154
 2152SOL     vw 8608   5.682   5.756   2.624  0.5271 -0.7353 -0.6109
 2153SOL     ow 8609   0.195   2.259   3.641 -0.5636  0.1970  0.1186
 2153SOL     hw 8610   0.180   2.323   3.711 -2.8958 -0.3703  0.2104
 2153SOL     hw 8611   0.224   2.311   3.567 -0.6921  1.1299  0.7071
 2153SOL     vw 8612   0.197   2.274   3.641 -0.8883  0.2452  0.2085
 2154SOL     ow 8613   2.392   1.450   7.328  0.7247  0.5375  0.0469
 2154SOL     hw 8614   2.388   1.454   7.423 -1.0865 -1.5494  0.1267
 2154SOL     hw 8615   2.323   1.509   7.298 -0.0040 -0.2704  0.1061
 2154SOL     vw 8616   2.383   1.459   7.336  0.3896  0.1556  0.0653
 2155SOL     ow 8617   0.683   2.980   6.494  0.9148  0.1813  0.0403
 2155SOL     hw 8618   0.703   3.074   6.495  1.6674  0.0327 -0.1615
 2155SOL     hw 8619   0.593   2.974   6.526  1.1267  0.9048  0.8005
 2155SOL     vw 8620   0.674   2.992   6.498  1.0421  0.2573  0.1137
 2156SOL     ow 8621   3.860   5.063   2.703 -0.3061 -0.0509 -0.4146
 2156SOL     hw 8622   3.892   5.048   2.614  0.9873  0.7155 -0.1096
 2156SOL     hw 8623   3.894   4.988   2.753  0.3718  0.3583 -0.2496
 2156SOL     vw 8624   3.869   5.051   2.698 -0.0461  0.1040 -0.3526
 2157SOL     ow 8625   6.020   4.694   0.190  0.0481  0.4734 -0.1191
 2157SOL     hw 8626   5.988   4.654   0.109  0.5288  1.0498 -0.6101
 2157SOL     hw 8627   6.011   4.788   0.175 -0.3140  0.5748  0.6974
 2157SOL     vw 8628   6.015   4.701   0.177  0.0639  0.5627 -0.0762
 2158SOL     ow 8629   2.329   4.390   4.790 -1.3853 -0.0891  0.2690
 2158SOL     hw 8630   2.301   4.316   4.844  1.9620  0.0467  2.4495
 2158SOL     hw 8631   2.330   4.355   4.701 -2.1932 -1.9068  0.9273
 2158SOL     vw 8632   2.325   4.376   4.785 -1.0502 -0.3109  0.6435
 2159SOL     ow 8633   1.388   0.267   6.013 -0.4603  0.2196 -0.8698
 2159SOL     hw 8634   1.368   0.266   6.107  0.1553 -2.0858 -0.6900
 2159SOL     hw 8635   1.308   0.236   5.971  0.5818 -3.2485 -0.6314
 2159SOL     vw 8636   1.375   0.262   6.020 -0.2415 -0.5421 -0.8144
 2160SOL     ow 8637   4.496   7.307   6.941  0.4306 -0.1522  0.2777
 2160SOL     hw 8638   4.550   7.382   6.917  1.1316 -0.6580  0.2673
 2160SOL     hw 8639   4.557   7.234   6.948 -0.1576 -0.5984  0.8810
 2160SOL     vw 8640   4.511   7.307   6.939  0.4454 -0.2778  0.3560
 2161SOL     ow 8641   5.913   3.268   0.813 -0.0092  0.5801  0.7791
 2161SOL     hw 8642   5.941   3.176   0.811  0.0737  0.6160 -0.3977
 2161SOL     hw 8643   5.885   3.282   0.903  2.1392  0.0526  1.6022
 2161SOL     vw 8644   5.913   3.258   0.824  0.2854  0.5152  0.7324
 2162SOL     ow 8645   4.186   5.511   2.816  0.4814 -0.6100  0.1819
 2162SOL     hw 8646   4.233   5.493   2.897 -0.8476 -1.5846  0.7872
 2162SOL     hw 8647   4.113   5.566   2.843  0.4018 -0.3922 -0.4707
 2162SOL     vw 8648   4.183   5.516   2.830  0.2954 -0.7098  0.1756
 2163SOL     ow 8649   6.261   3.381   6.332  0.4803 -0.1566  0.7463
 2163SOL     hw 8650   6.177   3.347   6.363  0.9505 -2.3473 -0.2412
 2163SOL     hw 8651   6.241   3.421   6.247  0.4854 -0.9944  0.3461
 2163SOL     vw 8652   6.247   3.382   6.325  0.5429 -0.5561  0.5634
 2164SOL     ow 8653   6.910   5.317   6.120 -0.1706 -0.0183 -0.2415
 2164SOL     hw 8654   6.861   5.247   6.163 -1.1342  1.2222  0.7785
 2164SOL     hw 8655   6.864   5.398   6.146  1.1904  1.0286 -0.9598
 2164SOL     vw 8656   6.897   5.319   6.129 -0.1183  0.2837 -0.2015
 2165SOL     ow 8657   7.201   1.084   0.324  0.6965 -0.7219 -0.0556
 2165SOL     hw 8658   7.216   1.131   0.406  0.4120  0.7434 -0.8067
 2165SOL     hw 8659   7.120   1.036   0.338  0.0052  0.4617  0.1395
 2165SOL     vw 8660   7.193   1.084   0.336  0.5677 -0.3724 -0.1290
 2166SOL     ow 8661   3.725   2.497   2.448  0.0539  0.4090  1.1805
 2166SOL     hw 8662   3.674   2.455   2.517 -1.6097  1.1345  0.4337
 2166SOL     hw 8663   3.767   2.571   2.491  0.3865 -0.1043  1.7641
 2166SOL     vw 8664   3.724   2.501   2.463 -0.1216  0.4370  1.1591
 2167SOL     ow 8665   6.238   1.767   2.979  0.3539 -0.0865  0.5537
 2167SOL     hw 8666   6.217   1.818   3.057 -0.1085 -0.6365  0.7979
 2167SOL     hw 8667   6.225   1.676   3.006 -0.1908 -0.2697 -0.2701
 2167SOL     vw 8668   6.233   1.762   2.993  0.2213 -0.1832  0.4772
 2168SOL     ow 8669   5.325   4.919   1.734  0.0398  0.6251  0.1909
 2168SOL     hw 8670   5.260   4.857   1.700 -1.3726  0.8085  2.3472
 2168SOL     hw 8671   5.281   5.004   1.731  0.6003  0.9365  0.6016
 2168SOL     vw 8672   5.311   4.922   1.729 -0.0725  0.6905  0.5295
 2169SOL     ow 8673   3.237   4.566   1.172 -0.4402 -0.0337 -0.6511
 2169SOL     hw 8674   3.291   4.569   1.094  0.0777 -0.3062 -0.3102
 2169SOL     hw 8675   3.147   4.577   1.140 -0.3074 -0.8713 -1.3606
 2169SOL     vw 8676   3.232   4.568   1.158 -0.3543 -0.1802 -0.6998
 2170SOL     ow 8677   4.781   6.691   5.981 -0.5434  0.0579  0.2920
 2170SOL     hw 8678   4.748   6.609   5.943 -1.0809  0.1046  0.6423
 2170SOL     hw 8679   4.799   6.746   5.905 -0.6172 -0.2192  0.0682
 2170SOL     vw 8680   4.779   6.687   5.966 -0.6239  0.0279  0.3085
 2171SOL     ow 8681   6.205   0.170   3.110  0.2739 -0.1900  0.2623
 2171SOL     hw 8682   6.256   0.095   3.080  0.2636  0.0467 -0.3628
 2171SOL     hw 8683   6.251   0.246   3.075 -1.4704 -0.0285 -1.9293
 2171SOL     vw 8684   6.218   0.170   3.101  0.0424 -0.1374 -0.1093
 2172SOL     ow 8685   5.499   1.843   6.704 -0.0776 -0.4710  0.2786
 2172SOL     hw 8686   5.572   1.796   6.746 -3.8056 -4.2991  3.3224
 2172SOL     hw 8687   5.478   1.913   6.765 -1.6037 -2.2119  1.8816
 2172SOL     vw 8688   5.506   1.846   6.718 -0.7710 -1.2057  0.8917
 2173SOL     ow 8689   5.925   6.213   6.768  0.6688 -0.0104  0.2824
 2173SOL     hw 8690   6.018   6.195   6.782  0.6419 -1.3504 -1.0857
 2173SOL     hw 8691   5.923   6.275   6.695  0.4987  0.6766  0.8576
 2173SOL     vw 8692   5.937   6.219   6.760  0.6425 -0.0966  0.1779
 2174SOL     ow 8693   1.823   2.244   0.968  0.0053 -0.1709 -0.3173
 2174SOL     hw 8694   1.747   2.209   0.923  0.3204 -1.5701  0.1951
 2174SOL     hw 8695   1.789   2.314   1.023 -1.4562 -2.5374  2.0396
 2174SOL     vw 8696   1.809   2.249   0.969 -0.1460 -0.6679  0.0613
 2175SOL     ow 8697   5.938   3.254   5.018 -0.0970  0.1293  0.1203
 2175SOL     hw 8698   5.984   3.189   5.071 -0.6987 -0.4550 -0.0511
 2175SOL     hw 8699   5.946   3.222   4.928 -0.8971 -0.0289  0.0958
 2175SOL     vw 8700   5.945   3.241   5.013 -0.2820  0.0312  0.0944
 2176SOL     ow 8701   4.738   2.200   6.685  0.1892 -0.3002  0.0841
 2176SOL     hw 8702   4.821   2.209   6.637 -1.2979 -4.6078 -4.0445
 2176SOL     hw 8703   4.744   2.114   6.726 -2.1268 -0.6737 -0.2391
 2176SOL     vw 8704   4.750   2.190   6.684 -0.3126 -0.9178 -0.5031
 2177SOL     ow 8705   5.142   1.213   3.174  0.1196  0.7616  0.3099
 2177SOL     hw 8706   5.204   1.263   3.228  0.5276  0.6883 -0.0878
 2177SOL     hw 8707   5.057   1.252   3.194  0.1248  0.1208  1.7212
 2177SOL     vw 8708   5.139   1.225   3.184  0.1740  0.6674  0.4436
 2178SOL     ow 8709   5.800   0.199   5.579 -0.2402  0.6287  0.6486
 2178SOL     hw 8710   5.779   0.125   5.635 -1.1165 -0.4469 -1.0117
 2178SOL     hw 8711   5.716   0.242   5.563 -0.2569  0.0716 -0.9415
 2178SOL     vw 8712   5.786   0.195   5.584 -0.3583  0.4133  0.2196
 2179SOL     ow 8713   4.435   5.605   2.334  0.3183  0.0492  0.2109
 2179SOL     hw 8714   4.346   5.572   2.325 -0.4920  1.7462  1.5083
 2179SOL     hw 8715   4.428   5.699   2.317  1.9776  0.1425 -0.2064
 2179SOL     vw 8716   4.423   5.614   2.330  0.4303  0.2854  0.3270
 2180SOL     ow 8717   2.335   4.198   4.588  0.3423  0.1490  0.4551
 2180SOL     hw 8718   2.291   4.134   4.643  0.7468  1.7396  2.7695
 2180SOL     hw 8719   2.284   4.199   4.507 -2.3724  0.0969  2.0371
 2180SOL     vw 8720   2.322   4.190   4.585  0.0373  0.3521  0.9694
 2181SOL     ow 8721   2.410   4.063   6.741  0.3048 -0.0285 -0.0320
 2181SOL     hw 8722   2.443   4.118   6.670 -0.0443  0.5746  0.2701
 2181SOL     hw 8723   2.325   4.032   6.710  0.9792 -1.3336 -0.6789
 2181SOL     vw 8724   2.403   4.066   6.727  0.3476 -0.1209 -0.0775
 2182SOL     ow 8725   0.923   4.712   6.899  0.2098 -0.5218  0.4012
 2182SOL     hw 8726   0.906   4.618   6.900  0.1558 -0.5258  1.7636
 2182SOL     hw 8727   1.018   4.719   6.893  0.1280 -0.6172 -1.2925
 2182SOL     vw 8728   0.933   4.701   6.899  0.1919 -0.5352  0.3574
 2183SOL     ow 8729   4.169   4.475   1.798 -0.3571  0.6670 -0.1013
 2183SOL     hw 8730   4.188   4.394   1.751  1.6535  0.9838  0.0661
 2183SOL     hw 8731   4.108   4.522   1.742  0.2536  0.0436 -1.3192
 2183SOL     vw 8732   4.164   4.471   1.785 -0.0114  0.6263 -0.2399
 2184SOL     ow 8733   0.320   0.609   7.323 -0.4816  0.7051  0.1692
 2184SOL     hw 8734   0.281   0.533   7.365 -0.7781  0.6436 -0.2223
 2184SOL     hw 8735   0.414   0.588   7.318 -0.1498  1.3596  2.2222
 2184SOL     vw 8736   0.328   0.596   7.328 -0.4770  0.7834  0.3886
 2185SOL     ow 8737   3.345   0.468   2.216  0.1576  0.4631 -0.2829
 2185SOL     hw 8738   3.366   0.499   2.304  0.5113 -0.8649  0.1198
 2185SOL     hw 8739   3.258   0.431   2.223  0.9426 -1.4386  0.0176
 2185SOL     vw 8740   3.337   0.467   2.229  0.3078  0.0370 -0.1900
 2186SOL     ow 8741   5.671   2.142   6.699  0.9342 -1.0268  0.4083
 2186SOL     hw 8742   5.643   2.149   6.791  0.8872  1.6144  0.2606
 2186SOL     hw 8743   5.626   2.214   6.655  2.5197 -1.0015 -1.2637
 2186SOL     vw 8744   5.661   2.153   6.706  1.1373 -0.6750  0.1681
 2187SOL     ow 8745   2.559   6.539   1.438  0.5723  0.4039 -0.2113
 2187SOL     hw 8746   2.604   6.501   1.362 -0.5357 -0.4675 -0.4616
 2187SOL     hw 8747   2.478   6.576   1.402  0.1983  0.2828  0.4905
 2187SOL     vw 8748   2.554   6.539   1.423  0.3767  0.2730 -0.1517
 2188SOL     ow 8749   0.566   5.905   7.060 -0.1085  0.7271 -0.1139
 2188SOL     hw 8750   0.578   5.810   7.051  1.2430  0.8941 -0.3058
 2188SOL     hw 8751   0.644   5.942   7.021 -2.3322  2.0983 -3.7391
 2188SOL     vw 8752   0.578   5.897   7.054 -0.2236  0.9301 -0.6177
 2189SOL     ow 8753   0.707   5.771   6.294  0.1145 -0.1997  0.3848
 2189SOL     hw 8754   0.774   5.752   6.228 -1.7063  2.1089 -2.3761
 2189SOL     hw 8755   0.756   5.789   6.374  2.6287 -0.7082 -0.9474
 2189SOL     vw 8756   0.722   5.771   6.296  0.2061  0.0381 -0.1552
 2190SOL     ow 8757   4.891   3.364   0.492  0.0118  0.8277 -0.3760
 2190SOL     hw 8758   4.901   3.375   0.397 -0.9625  2.4503 -0.3287
 2190SOL     hw 8759   4.814   3.308   0.502  1.0595 -0.6945 -0.5360
 2190SOL     vw 8760   4.882   3.358   0.481  0.0212  0.8409 -0.3909
 2191SOL     ow 8761   4.133   4.972   4.368  0.2248 -0.0032  0.1566
 2191SOL     hw 8762   4.047   5.011   4.384  0.4253 -0.1048  1.6717
 2191SOL     hw 8763   4.170   5.023   4.296 -0.9893  0.1981 -0.3526
 2191SOL     vw 8764   4.126   4.984   4.361  0.0908  0.0100  0.2892
 2192SOL     ow 8765   6.813   5.120   3.348  1.3131  0.6647 -0.8121
 2192SOL     hw 8766   6.865   5.043   3.372  1.1958 -0.7278 -4.3413
 2192SOL     hw 8767   6.830   5.132   3.254 -1.1435  3.0260 -1.0895
 2192SOL     vw 8768   6.822   5.111   3.339  0.9737  0.7925 -1.3143
 2193SOL     ow 8769   5.511   6.163   3.498  0.9457  1.0948 -0.5275
 2193SOL     hw 8770   5.559   6.211   3.566 -1.3506  2.4363  0.2521
 2193SOL     hw 8771   5.419   6.181   3.516  0.1677  0.0050 -2.9627
 2193SOL     vw 8772   5.505   6.171   3.510  0.5403  1.1280 -0.7459
 2194SOL     ow 8773   5.410   2.474   1.025 -0.0622 -0.3349 -0.8115
 2194SOL     hw 8774   5.382   2.442   0.939 -0.1987  1.3001 -1.4190
 2194SOL     hw 8775   5.473   2.410   1.055 -0.1828 -1.0687 -2.0375
 2194SOL     vw 8776   5.415   2.461   1.017 -0.0961 -0.2160 -1.0535
 2195SOL     ow 8777   0.595   0.361   3.724  0.0700  0.3000  0.5489
 2195SOL     hw 8778   0.515   0.317   3.694  0.8335 -1.1831  0.5624
 2195SOL     hw 8779   0.602   0.438   3.667 -0.0771 -0.8705 -1.1544
 2195SOL     vw 8780   0.585   0.365   3.712  0.1513 -0.0501  0.3259
 2196SOL     ow 8781   4.119   0.891   0.056  0.7667 -0.1037  0.2318
 2196SOL     hw 8782   4.098   0.938  -0.025  0.8930  3.1895  1.9356
 2196SOL     hw 8783   4.035   0.855   0.085  0.5197 -0.4018 -0.8308
 2196SOL     vw 8784   4.105   0.893   0.049  0.7508  0.2915  0.3164
 2197SOL     ow 8785   1.642   1.904   4.273 -0.0724  0.3702 -0.7830
 2197SOL     hw 8786   1.699   1.974   4.304 -1.1496  0.3915  1.2864
 2197SOL     hw 8787   1.604   1.937   4.192 -1.8039  2.9462  0.9289
 2197SOL     vw 8788   1.645   1.917   4.266 -0.4429  0.7129 -0.2842
 2198SOL     ow 8789   0.334   4.883   1.576 -0.1002  0.0986 -0.2015
 2198SOL     hw 8790   0.393   4.839   1.638  2.0409  1.4485 -1.1506
 2198SOL     hw 8791   0.391   4.908   1.503 -2.2867 -0.2675 -2.1275
 2198SOL     vw 8792   0.350   4.880   1.574 -0.1062  0.2284 -0.5808
 2199SOL     ow 8793   4.906   6.814   0.159  0.7009  1.1595 -0.5740
 2199SOL     hw 8794   4.868   6.829   0.072 -1.8511 -2.3207 -0.2727
 2199SOL     hw 8795   4.867   6.881   0.215 -2.5588 -0.1808 -1.0140
 2199SOL     vw 8796   4.896   6.825   0.155 -0.0658  0.5233 -0.5923
 2200SOL     ow 8797   6.516   3.628   3.851  0.6745 -0.0579 -0.5358
 2200SOL     hw 8798   6.537   3.664   3.765  0.0989 -2.7258 -1.8930
 2200SOL     hw 8799   6.601   3.611   3.891  0.9512  1.6968 -0.2929
 2200SOL     vw 8800   6.530   3.631   3.845  0.6349 -0.1783 -0.6828
 2201SOL     ow 8801   1.727   3.304   2.961 -0.1396  0.8702 -0.4451
 2201SOL     hw 8802   1.755   3.264   3.044 -0.6745  1.7085  0.1597
 2201SOL     hw 8803   1.774   3.256   2.894 -1.3892 -1.3762  0.1761
 2201SOL     vw 8804   1.737   3.292   2.963 -0.3751  0.6845 -0.2835
 2202SOL     ow 8805   4.712   2.772   6.925  0.2131  0.2115 -0.0136
 2202SOL     hw 8806   4.686   2.683   6.947  2.2282 -0.3883  0.2090
 2202SOL     hw 8807   4.656   2.797   6.852 -1.3512 -0.6855  0.8390
 2202SOL     vw 8808   4.701   2.763   6.918  0.2728  0.0139  0.1285
 2203SOL     ow 8809   2.277   3.983   1.216  0.1970 -0.9033  0.6333
 2203SOL     hw 8810   2.217   3.998   1.144  1.7408 -2.4733 -1.0858
 2203SOL     hw 8811   2.230   4.015   1.294 -1.6163  0.6045 -0.9878
 2203SOL     vw 8812   2.263   3.989   1.217  0.1615 -0.9115  0.1925
 2204SOL     ow 8813   5.889   2.272   6.838 -0.2655  0.4212  0.1015
 2204SOL     hw 8814   5.862   2.364   6.839 -0.6821  0.2947  1.0102
 2204SOL     hw 8815   5.984   2.275   6.849 -0.0277  0.8028 -1.7029
 2204SOL     vw 8816   5.898   2.284   6.839 -0.2890  0.4548 -0.0165
 2205SOL     ow 8817   0.800   3.583   0.964  0.1671  0.0799 -0.5140
 2205SOL     hw 8818   0.819   3.505   0.912 -3.1571 -1.5170  0.4162
 2205SOL     hw 8819   0.736   3.632   0.913 -1.1562 -0.1638  0.8485
 2205SOL     vw 8820   0.794   3.579   0.951 -0.4461 -0.1631 -0.2115
 2206SOL     ow 8821   5.766   2.555   2.151  0.1950 -0.1138  0.1929
 2206SOL     hw 8822   5.838   2.599   2.197  0.4997 -0.2869 -0.1074
 2206SOL     hw 8823   5.767   2.594   2.063 -0.1093 -0.0833  0.2034
 2206SOL     vw 8824   5.776   2.566   2.145  0.1950 -0.1327  0.1547
 2207SOL     ow 8825   5.020   2.825   6.853  0.7693  0.3653  0.4539
 2207SOL     hw 8826   5.100   2.776   6.870  0.7682 -0.3482 -1.3892
 2207SOL     hw 8827   5.022   2.842   6.759 -1.2156  0.3700  0.3768
 2207SOL     vw 8828   5.031   2.821   6.843  0.5071  0.2717  0.2005
 2208SOL     ow 8829   4.988   7.315   2.935 -0.5883 -0.6828 -0.2327
 2208SOL     hw 8830   5.078   7.339   2.911  0.0439 -0.2643  2.3230
 2208SOL     hw 8831   4.998   7.238   2.991 -1.9937 -1.6864 -1.2891
 2208SOL     vw 8832   5.001   7.308   2.939 -0.6905 -0.7598 -0.0349
 2209SOL     ow 8833   5.600   4.946   1.838  0.1348 -0.2310 -0.1941
 2209SOL     hw 8834   5.637   4.858   1.836  1.0270  0.1453 -0.9354
 2209SOL     hw 8835   5.506   4.932   1.849  0.3315 -1.2491  0.2876
 2209SOL     vw 8836   5.592   4.932   1.839  0.2787 -0.3159 -0.2283
 2210SOL     ow 8837   5.309   4.708   0.760 -0.3942 -0.0044  0.1522
 2210SOL     hw 8838   5.402   4.688   0.744 -0.0346  1.3262  0.4711
 2210SOL     hw 8839   5.296   4.794   0.720 -1.5132 -0.2019  0.0782
 2210SOL     vw 8840   5.320   4.717   0.753 -0.4947  0.1450  0.1845
 2211SOL     ow 8841   4.532   4.861   4.208 -0.0194 -0.0120  0.2919
 2211SOL     hw 8842   4.603   4.829   4.262  0.6109 -1.9140 -1.5215
 2211SOL     hw 8843   4.463   4.795   4.218 -0.2927  0.1646 -0.3726
 2211SOL     vw 8844   4.532   4.848   4.216  0.0274 -0.2398 -0.0348
 2212SOL     ow 8845   5.497   5.608   6.101 -0.2586  0.7689  0.6921
 2212SOL     hw 8846   5.560   5.622   6.172 -0.0355  1.2101  0.4123
 2212SOL     hw 8847   5.469   5.696   6.076 -1.1646  0.5675  0.9697
 2212SOL     vw 8848   5.502   5.621   6.107 -0.3486  0.8004  0.6919
 2213SOL     ow 8849   6.971   2.046   0.338 -0.1797  0.3309  0.4092
 2213SOL     hw 8850   6.913   1.979   0.376 -0.0383 -1.0451 -1.6658
 2213SOL     hw 8851   6.913   2.116   0.310 -0.9172 -0.9596 -1.4924
 2213SOL     vw 8852   6.956   2.046   0.340 -0.2584 -0.0209 -0.1155
 2214SOL     ow 8853   0.568   6.140   7.236 -0.3977  0.1490 -0.3011
 2214SOL     hw 8854   0.517   6.193   7.298 -1.8513 -0.1869 -1.1637
 2214SOL     hw 8855   0.656   6.176   7.241 -0.8125  1.0780  0.8969
 2214SOL     vw 8856   0.573   6.152   7.245 -0.6442  0.2272 -0.2570
 2215SOL     ow 8857   1.062   2.477   1.137 -0.0794 -0.1303 -0.1313
 2215SOL     hw 8858   1.050   2.403   1.196 -1.4995 -0.6346 -0.9835
 2215SOL     hw 8859   1.129   2.448   1.075  0.5590 -0.0519  0.5149
 2215SOL     vw 8860   1.069   2.463   1.136 -0.1826 -0.1866 -0.1585
 2216SOL     ow 8861   6.171   2.404   4.267  0.4445  0.1806 -0.5507
 2216SOL     hw 8862   6.172   2.310   4.250  1.7589 -0.1128  0.8858
 2216SOL     hw 8863   6.152   2.444   4.182 -0.0046 -1.3701 -1.2095
 2216SOL     vw 8864   6.169   2.397   4.253  0.5584 -0.0626 -0.4485
 2217SOL     ow 8865   6.464   0.951   3.696 -0.0628  0.1082 -0.1724
 2217SOL     hw 8866   6.406   0.925   3.625  1.0607  0.0383 -1.1090
 2217SOL     hw 8867   6.479   0.870   3.746 -2.7939  0.6123  1.7132
 2217SOL     vw 8868   6.459   0.937   3.693 -0.2747  0.1655 -0.0473
 2218SOL     ow 8869   0.131   3.327   0.219 -0.1358  0.4195 -0.0391
 2218SOL     hw 8870   0.214   3.295   0.184 -0.1380  0.2724  0.0903
 2218SOL     hw 8871   0.134   3.422   0.206  0.4252  0.5174  0.7452
 2218SOL     vw 8872   0.142   3.336   0.213 -0.0621  0.4129  0.0814
 2219SOL     ow 8873   2.787   5.128   3.131 -0.3535 -0.7503 -0.0925
 2219SOL     hw 8874   2.776   5.078   3.212  0.6509 -1.8932 -0.6153
 2219SOL     hw 8875   2.757   5.216   3.153  1.6025 -0.5172  2.1089
 2219SOL     vw 8876   2.782   5.133   3.145  0.0370 -0.8707  0.1290
 2220SOL     ow 8877   7.051   3.140   1.326 -0.8257 -0.3419 -0.0505
 2220SOL     hw 8878   7.110   3.186   1.266 -2.7340  3.5498  0.7316
 2220SOL     hw 8879   7.052   3.193   1.405 -3.5012 -1.4725  0.8449
 2220SOL     vw 8880   7.059   3.153   1.328 -1.4303  0.0223  0.1709
 2221SOL     ow 8881   2.448   7.203   5.747 -0.4218  0.0675 -0.6558
 2221SOL     hw 8882   2.365   7.166   5.717  0.1320 -0.9253 -1.0098
 2221SOL     hw 8883   2.439   7.297   5.730 -0.6112 -0.2856 -2.8603
 2221SOL     vw 8884   2.436   7.211   5.741 -0.3737 -0.1101 -0.9933
 2222SOL     ow 8885   3.976   6.619   2.274  0.1333 -0.0522 -0.2481
 2222SOL     hw 8886   3.954   6.690   2.334  0.7605 -0.0578 -0.0076
 2222SOL     hw 8887   3.893   6.598   2.230  0.1207  1.4312 -0.9812
 2222SOL     vw 8888   3.962   6.626   2.276  0.2145  0.1426 -0.3130
 2223SOL     ow 8889   1.566   4.758   1.140 -0.0644  0.3794 -0.3082
 2223SOL     hw 8890   1.578   4.671   1.104 -0.2896  0.9498 -1.8626
 2223SOL     hw 8891   1.502   4.747   1.210  0.0444 -0.7307 -0.3805
 2223SOL     vw 8892   1.559   4.745   1.144 -0.0798  0.3080 -0.5229
 2224SOL     ow 8893   6.515   6.385   1.178  0.4702 -0.0631 -0.0025
 2224SOL     hw 8894   6.576   6.375   1.251  0.0739 -1.0727  0.2140
 2224SOL     hw 8895   6.520   6.478   1.154  1.4039  0.0513  0.5975
 2224SOL     vw 8896   6.523   6.396   1.184  0.5412 -0.1814  0.1052
 2225SOL     ow 8897   3.009   1.400   5.555  0.4394  0.4840 -0.1080
 2225SOL     hw 8898   2.939   1.458   5.526  0.5682  0.6043 -0.1811
 2225SOL     hw 8899   3.013   1.413   5.650  0.1856  0.2785 -0.0698
 2225SOL     vw 8900   3.001   1.409   5.564  0.4228  0.4727 -0.1128
 2226SOL     ow 8901   6.621   0.122   0.158 -1.0785  0.3301  0.5469
 2226SOL     hw 8902   6.578   0.062   0.218 -1.7927 -1.8689 -1.9567
 2226SOL     hw 8903   6.694   0.071   0.122 -0.7828  1.5021 -0.5789
 2226SOL     vw 8904   6.625   0.107   0.161 -1.1334  0.1946  0.0680
 2227SOL     ow 8905   4.901   5.469   5.930  0.1199  0.9505 -0.3050
 2227SOL     hw 8906   4.910   5.415   6.008  1.9898  2.1126  0.3356
 2227SOL     hw 8907   4.901   5.406   5.857 -2.6073 -0.2218  0.5725
 2227SOL     vw 8908   4.902   5.454   5.930  0.0069  0.9489 -0.1049
 2228SOL     ow 8909   3.573   1.376   4.557  0.1288 -0.0674  0.1511
 2228SOL     hw 8910   3.635   1.347   4.624 -1.5779 -2.1100  0.9705
 2228SOL     hw 8911   3.594   1.323   4.480 -0.5113 -0.7020  0.4036
 2228SOL     vw 8912   3.584   1.365   4.556 -0.1808 -0.4206  0.2923
 2229SOL     ow 8913   5.985   2.009   1.907  0.1375  0.7518  0.5964
 2229SOL     hw 8914   6.031   1.937   1.951 -0.1657  1.2635  1.7943
 2229SOL     hw 8915   6.018   2.007   1.817 -0.8424 -1.6985  0.2364
 2229SOL     vw 8916   5.996   2.000   1.901 -0.0317  0.4960  0.7070
 2230SOL     ow 8917   1.938   2.986   6.104 -0.3379 -0.0756 -0.2530
 2230SOL     hw 8918   1.964   3.059   6.048 -2.2974  0.1151 -0.9919
 2230SOL     hw 8919   1.905   2.920   6.044  0.9084 -1.3808  0.4517
 2230SOL     vw 8920   1.937   2.987   6.089 -0.4320 -0.2227 -0.2575
 2231SOL     ow 8921   5.227   1.322   5.408 -0.8641  0.8287 -0.3768
 2231SOL     hw 8922   5.176   1.361   5.479 -1.7138  0.4520 -0.7619
 2231SOL     hw 8923   5.172   1.334   5.330  0.8858  2.9929 -1.3795
 2231SOL     vw 8924   5.213   1.329   5.407 -0.7455  1.0645 -0.5598
 2232SOL     ow 8925   3.380   0.953   0.615 -0.2625  0.3432 -0.1165
 2232SOL     hw 8926   3.455   0.951   0.675  2.0761  0.9174 -2.8237
 2232SOL     hw 8927   3.389   0.874   0.562 -2.5881 -0.4422  0.5322
 2232SOL     vw 8928   3.391   0.943   0.616 -0.2608  0.3153 -0.3881
 2233SOL     ow 8929   7.276   5.725   4.793 -0.8375 -0.1319 -0.5169
 2233SOL     hw 8930   7.370   5.714   4.809 -0.8441 -0.6105 -0.7854
 2233SOL     hw 8931   7.268   5.813   4.756 -0.3873 -0.4040 -1.2868
 2233SOL     vw 8932   7.287   5.735   4.790 -0.7789 -0.2308 -0.6540
 2234SOL     ow 8933   3.394   5.235   1.738  0.4346 -0.1437 -0.0090
 2234SOL     hw 8934   3.378   5.313   1.791  0.1587 -0.3907  0.2746
 2234SOL     hw 8935   3.319   5.231   1.679 -0.2262 -0.9112  0.8486
 2234SOL     vw 8936   3.382   5.245   1.737  0.3110 -0.2775  0.1416
 2235SOL     ow 8937   0.733   2.276   3.594 -0.2710  0.2494 -0.0934
 2235SOL     hw 8938   0.798   2.247   3.529  0.8718  2.6025 -0.1109
 2235SOL     hw 8939   0.754   2.225   3.672  1.8117  1.0935 -0.0340
 2235SOL     vw 8940   0.745   2.265   3.596  0.1546  0.6714 -0.0879
 2236SOL     ow 8941   1.297   6.952   6.521 -0.2395  0.3370 -0.5011
 2236SOL     hw 8942   1.347   7.019   6.475  1.2286 -1.3106 -1.4038
 2236SOL     hw 8943   1.206   6.969   6.497 -0.1538  3.0324  0.7030
 2236SOL     vw 8944   1.292   6.963   6.512 -0.0345  0.4749 -0.4613
 2237SOL     ow 8945   0.884   2.201   3.398  0.0126  0.1095  0.0813
 2237SOL     hw 8946   0.879   2.122   3.345  0.9222  0.4837 -0.5937
 2237SOL     hw 8947   0.974   2.202   3.431 -0.0565  0.7523  0.2623
 2237SOL     vw 8948   0.895   2.191   3.396  0.1235  0.2437  0.0162
 2238SOL     ow 8949   5.438   4.768   4.689 -0.1304 -0.3792  0.0024
 2238SOL     hw 8950   5.467   4.697   4.746  1.4025  1.2323  1.3243
 2238SOL     hw 8951   5.486   4.753   4.607  1.1110 -0.2298  0.6752
 2238SOL     vw 8952   5.448   4.756   4.686  0.2356 -0.1466  0.2656
 2239SOL     ow 8953   5.864   0.799   2.724  0.8500  0.1855  0.2267
 2239SOL     hw 8954   5.777   0.828   2.696  0.4621 -3.2471 -2.7464
 2239SOL     hw 8955   5.924   0.853   2.673  0.3946  0.8212  0.3503
 2239SOL     vw 8956   5.860   0.810   2.714  0.7389 -0.1835 -0.1491
 2240SOL     ow 8957   1.698   5.607   1.943  0.1115 -0.0561 -0.0584
 2240SOL     hw 8958   1.661   5.630   2.029  0.6798  1.2083 -0.1189
 2240SOL     hw 8959   1.626   5.619   1.882  0.5338  2.4343 -0.1802
 2240SOL     vw 8960   1.684   5.612   1.947  0.2422  0.4392 -0.0824
 2241SOL     ow 8961   3.683   5.219   5.277  0.9661 -0.5534 -0.2390
 2241SOL     hw 8962   3.758   5.277   5.285 -0.2102  0.7919  1.6901
 2241SOL     hw 8963   3.688   5.161   5.353 -0.7808  0.6196  0.8240
 2241SOL     vw 8964   3.693   5.219   5.288  0.5803 -0.2210  0.1559
 2242SOL     ow 8965   6.283   5.893   5.174  0.0679  0.3527 -0.2662
 2242SOL     hw 8966   6.307   5.801   5.182 -0.2734  0.4059  2.2147
 2242SOL     hw 8967   6.196   5.899   5.212 -0.1472  1.6191 -0.8985
 2242SOL     vw 8968   6.275   5.882   5.180 -0.0052  0.5269 -0.0224
 2243SOL     ow 8969   7.126   0.034   5.520  0.0663  0.0221 -0.6690
 2243SOL     hw 8970   7.106   0.062   5.610  0.6305  1.0784 -0.8576
 2243SOL     hw 8971   7.046  -0.011   5.491  0.2505 -1.2841  0.7102
 2243SOL     vw 8972   7.113   0.032   5.528  0.1652 -0.0109 -0.5124
 2244SOL     ow 8973   5.477   1.195   5.376 -0.0118 -0.1859 -0.4212
 2244SOL     hw 8974   5.558   1.149   5.352  0.1117  0.1762 -0.7118
 2244SOL     hw 8975   5.461   1.253   5.302  0.3956  0.9966  0.3960
 2244SOL     vw 8976   5.486   1.196   5.363  0.0582  0.0179 -0.3519
 2245SOL     ow 8977   5.456   1.633   1.198  0.0154 -0.5709  0.5986
 2245SOL     hw 8978   5.531   1.692   1.208 -0.0428 -0.4559  0.3615
 2245SOL     hw 8979   5.473   1.562   1.260  1.4649 -1.7032 -0.9989
 2245SOL     vw 8980   5.468   1.631   1.207  0.1991 -0.7052  0.3566
 2246SOL     ow 8981   6.442   6.871   0.434 -0.8448 -0.2114 -0.5214
 2246SOL     hw 8982   6.387   6.942   0.401  0.8872  0.7467 -1.5439
 2246SOL     hw 8983   6.472   6.825   0.355  2.6364  1.5490 -0.4497
 2246SOL     vw 8984   6.439   6.874   0.419 -0.1571  0.1476 -0.6468
 2247SOL     ow 8985   2.697   2.088   6.733  0.7953  0.1689  0.2947
 2247SOL     hw 8986   2.694   2.051   6.645  1.2135 -3.2002  1.5619
 2247SOL     hw 8987   2.608   2.119   6.749  0.5093  0.0667 -0.9690
 2247SOL     vw 8988   2.685   2.087   6.723  0.8126 -0.2890  0.2952
 2248SOL     ow 8989   1.879   4.781   6.091  0.2083 -0.1380 -0.2203
 2248SOL     hw 8990   1.826   4.702   6.083  1.3885 -0.9913  0.2762
 2248SOL     hw 8991   1.834   4.833   6.157  0.2736 -1.0980  0.5981
 2248SOL     vw 8992   1.866   4.778   6.099  0.3726 -0.3772 -0.0470
 2249SOL     ow 8993   3.219   3.615   2.383 -0.9854 -0.3371  0.5560
 2249SOL     hw 8994   3.230   3.539   2.327 -2.6328  1.8032 -3.0249
 2249SOL     hw 8995   3.133   3.602   2.424 -3.2295  1.2158 -3.2305
 2249SOL     vw 8996   3.209   3.603   2.381 -1.4989  0.1501 -0.4159
 2250SOL     ow 8997   3.269   6.006   0.616  0.1115  0.0692  0.0962
 2250SOL     hw 8998   3.265   6.050   0.701 -0.2266  0.2755 -0.0230
 2250SOL     hw 8999   3.360   6.018   0.587 -0.0675  1.0264 -0.1036
 2250SOL     vw 9000   3.281   6.013   0.624  0.0433  0.2224  0.0541
 2251SOL     ow 9001   3.560   3.600   0.346  0.1811 -0.2750 -0.9071
 2251SOL     hw 9002   3.599   3.569   0.428  1.2646  0.1083 -1.2520
 2251SOL     hw 9003   3.626   3.579   0.279 -1.3529 -2.0450 -1.9468
 2251SOL     vw 9004   3.574   3.593   0.348  0.1216 -0.4580 -1.0898
 2252SOL     ow 9005   5.316   2.246   2.418  0.3227 -0.1673 -0.2899
 2252SOL     hw 9006   5.222   2.234   2.430  0.6345 -1.6118  0.9928
 2252SOL     hw 9007   5.348   2.162   2.385  0.9136  0.9231 -2.6905
 2252SOL     vw 9008   5.308   2.234   2.415  0.4418 -0.2140 -0.4374
 2253SOL     ow 9009   1.636   2.677   6.217  0.2479 -0.1241  0.8210
 2253SOL     hw 9010   1.567   2.611   6.211 -1.8560  2.0122 -0.7731
 2253SOL     hw 9011   1.612   2.731   6.292 -0.2281  0.9807 -0.0869
 2253SOL     vw 9012   1.624   2.675   6.226 -0.0925  0.3035  0.4907
 2254SOL     ow 9013   4.951   3.100   1.204 -0.7982  0.1963  0.1194
 2254SOL     hw 9014   4.977   3.073   1.292  1.4459  2.0700  0.1203
 2254SOL     hw 9015   4.881   3.163   1.218 -2.6286 -1.7551  0.3263
 2254SOL     vw 9016   4.945   3.105   1.218 -0.7436  0.1861  0.1468
 2255SOL     ow 9017   1.492   4.656   7.198  0.1192  0.8198  1.6094
 2255SOL     hw 9018   1.546   4.582   7.172 -0.2584  0.5378  1.6238
 2255SOL     hw 9019   1.403   4.621   7.200 -0.3008  1.6821 -0.0545
 2255SOL     vw 9020   1.487   4.642   7.194  0.0139  0.8965  1.3916
 2256SOL     ow 9021   3.667   2.502   2.170  1.2231 -0.3549  0.3267
 2256SOL     hw 9022   3.682   2.520   2.263 -0.1400  1.7327  0.2129
 2256SOL     hw 9023   3.623   2.580   2.138 -3.8289 -3.1648 -0.7258
 2256SOL     vw 9024   3.663   2.515   2.178  0.3768 -0.4503  0.1729
 2257SOL     ow 9025   5.186   6.566   5.276  0.0503  0.3481 -0.5553
 2257SOL     hw 9026   5.100   6.526   5.291 -0.3215  1.4091  0.3237
 2257SOL     hw 9027   5.247   6.510   5.323 -0.0888 -0.6648 -1.5530
 2257SOL     vw 9028   5.183   6.554   5.284 -0.0169  0.3545 -0.5708
 2258SOL     ow 9029   5.202   2.520   4.667 -0.5634 -0.7346  0.1612
 2258SOL     hw 9030   5.198   2.426   4.648 -3.9788 -0.1976 -2.9634
 2258SOL     hw 9031   5.224   2.560   4.583 -2.7421  1.3524  0.4878
 2258SOL     vw 9032   5.204   2.513   4.653 -1.3013 -0.3884 -0.2079
 2259SOL     ow 9033   6.679   0.726   4.382 -0.0611  0.1820 -0.2076
 2259SOL     hw 9034   6.652   0.720   4.473 -0.3804  1.6787 -0.1856
 2259SOL     hw 9035   6.616   0.785   4.342  0.6619  0.3252 -1.1666
 2259SOL     vw 9036   6.667   0.733   4.389 -0.0079  0.3984 -0.3314
 2260SOL     ow 9037   0.230   6.906   1.165 -0.1621 -0.1312 -0.2310
 2260SOL     hw 9038   0.240   6.827   1.218  2.7660 -0.1046 -0.5746
 2260SOL     hw 9039   0.187   6.969   1.223  0.6496 -0.9018  1.2746
 2260SOL     vw 9040   0.226   6.904   1.179  0.3313 -0.2296 -0.0776
 2261SOL     ow 9041   3.594   0.869   7.014 -0.4880 -0.2322  0.2915
 2261SOL     hw 9042   3.540   0.791   7.001 -1.5081  0.7354 -1.7421
 2261SOL     hw 9043   3.603   0.907   6.927  1.2002  1.1521  1.0061
 2261SOL     vw 9044   3.588   0.864   7.001 -0.3998  0.0781  0.1175
 2262SOL     ow 9045   3.039   3.941   4.465  0.5868  0.2102  0.0616
 2262SOL     hw 9046   3.058   3.995   4.387  1.1684  1.7856  1.2435
 2262SOL     hw 9047   3.119   3.946   4.517 -0.4542  0.7979  1.6707
 2262SOL     vw 9048   3.052   3.949   4.461  0.5263  0.4957  0.4299
 2263SOL     ow 9049   2.672   0.566   0.204  0.0763 -0.8889  0.4374
 2263SOL     hw 9050   2.643   0.627   0.272  1.8847  0.1700  0.3143
 2263SOL     hw 9051   2.591   0.539   0.161 -0.8080  1.9211  0.1018
 2263SOL     vw 9052   2.657   0.570   0.207  0.1981 -0.3784  0.3769
 2264SOL     ow 9053   4.132   0.177   3.505  0.1069 -0.3396 -0.3748
 2264SOL     hw 9054   4.105   0.269   3.510 -0.7047 -0.5744 -0.2445
 2264SOL     hw 9055   4.181   0.162   3.586 -2.9999 -1.0044  1.5245
 2264SOL     vw 9056   4.135   0.187   3.516 -0.4101 -0.4583 -0.1070
 2265SOL     ow 9057   0.170   1.394   4.330 -0.0080  0.1888  0.2691
 2265SOL     hw 9058   0.235   1.435   4.387  0.8759 -0.2235 -0.4073
 2265SOL     hw 9059   0.193   1.423   4.242  0.4885 -1.5100 -0.2063
 2265SOL     vw 9060   0.182   1.403   4.326  0.1741 -0.0898  0.1173
 2266SOL     ow 9061   4.766   3.597   3.838  0.2874 -0.0389 -0.9766
 2266SOL     hw 9062   4.697   3.548   3.882 -0.6360  0.8809 -1.3701
 2266SOL     hw 9063   4.841   3.538   3.838  0.1529 -0.2910  1.2940
 2266SOL     vw 9064   4.767   3.583   3.844  0.1476  0.0492 -0.7288
 2267SOL     ow 9065   4.697   5.038   0.810 -0.0165 -0.0948  0.8619
 2267SOL     hw 9066   4.693   5.120   0.760  0.8553  0.5175  1.7546
 2267SOL     hw 9067   4.791   5.020   0.820 -0.1937 -0.9011  1.1631
 2267SOL     vw 9068   4.709   5.046   0.805  0.0751 -0.1206  1.0194
 2268SOL     ow 9069   5.837   0.323   2.153  0.0270 -0.0893  0.1604
 2268SOL     hw 9070   5.926   0.338   2.121 -0.3931  1.8636 -0.2749
 2268SOL     hw 9071   5.836   0.365   2.240 -0.7175  0.8436 -0.2779
 2268SOL     vw 9072   5.849   0.331   2.161 -0.1266  0.2915  0.0452
 2269SOL     ow 9073   0.387   2.910   6.528 -0.3601  0.0735  0.3861
 2269SOL     hw 9074   0.413   2.833   6.477 -0.5797  1.3474 -1.7902
 2269SOL     hw 9075   0.369   2.876   6.615 -1.6005 -2.5604 -0.7741
 2269SOL     vw 9076   0.388   2.895   6.532 -0.5527 -0.1060 -0.0541
 2270SOL     ow 9077   6.630   6.211   0.969  0.4820 -1.3374  0.0456
 2270SOL     hw 9078   6.637   6.132   0.917 -1.8807 -1.6121  0.0313
 2270SOL     hw 9079   6.712   6.216   1.017  0.9446 -3.4431 -0.4363
 2270SOL     vw 9080   6.642   6.202   0.969  0.2313 -1.6513 -0.0198
 2271SOL     ow 9081   5.853   5.936   3.622 -0.6995  0.0282  0.2430
 2271SOL     hw 9082   5.854   6.000   3.694 -2.8439 -1.8783  2.1104
 2271SOL     hw 9083   5.920   5.872   3.647 -0.1237  0.3218 -0.4910
 2271SOL     vw 9084   5.862   5.936   3.635 -0.9065 -0.1848  0.3924
 2272SOL     ow 9085   0.949   0.681   7.228 -0.5529  0.0871 -0.3184
 2272SOL     hw 9086   0.927   0.607   7.286  3.4858 -0.5555  0.6646
 2272SOL     hw 9087   0.911   0.757   7.272  0.2676 -0.7102  1.9210
 2272SOL     vw 9088   0.941   0.681   7.242  0.0882 -0.1029  0.1066
 2273SOL     ow 9089   5.338   3.368   7.303 -0.1353  0.3973 -0.0543
 2273SOL     hw 9090   5.385   3.363   7.386  1.7993 -0.4745 -1.1419
 2273SOL     hw 9091   5.393   3.421   7.246 -1.5469  1.1951 -0.7461
 2273SOL     vw 9092   5.351   3.374   7.306 -0.0663  0.3877 -0.2890
 2274SOL     ow 9093   2.767   5.866   2.027 -0.2077 -0.0399  0.3996
 2274SOL     hw 9094   2.744   5.882   2.119  1.2562 -2.4646  1.2839
 2274SOL     hw 9095   2.832   5.933   2.007 -0.1171  0.1639  1.3229
 2274SOL     vw 9096   2.773   5.877   2.037 -0.0026 -0.3331  0.6380
 2275SOL     ow 9097   2.074   4.850   5.013 -0.1289 -0.2020  1.1420
 2275SOL     hw 9098   2.086   4.916   4.945  4.2982 -2.4344 -0.6192
 2275SOL     hw 9099   2.052   4.900   5.092 -1.4888  2.8464 -0.9841
 2275SOL     vw 9100   2.072   4.865   5.015  0.2757 -0.0944  0.6289
 2276SOL     ow 9101   2.787   0.418   3.360  0.2770  0.1867 -0.0055
 2276SOL     hw 9102   2.764   0.398   3.451  1.4149 -1.6229 -0.0820
 2276SOL     hw 9103   2.813   0.335   3.322 -0.0410  0.9289 -1.9856
 2276SOL     vw 9104   2.788   0.405   3.367  0.3852  0.0459 -0.2769
 2277SOL     ow 9105   5.281   1.940   5.121  0.6785 -0.0210  0.0782
 2277SOL     hw 9106   5.187   1.921   5.123  0.1248  2.3052 -0.0950
 2277SOL     hw 9107   5.305   1.936   5.029  0.6872 -0.3795  0.0967
 2277SOL     vw 9108   5.271   1.937   5.109  0.6065  0.2386  0.0577
 2278SOL     ow 9109   3.391   7.270   6.101  0.2059 -0.2441 -0.8008
 2278SOL     hw 9110   3.394   7.357   6.061  0.8945 -0.4415 -1.1935
 2278SOL     hw 9111   3.307   7.268   6.147  0.5794  0.9504 -0.0303
 2278SOL     vw 9112   3.380   7.281   6.102  0.3459 -0.1125 -0.7508
 2279SOL     ow 9113   6.881   6.674   6.452  0.5055  0.7228  0.3253
 2279SOL     hw 9114   6.797   6.658   6.496  0.0423  2.6475  0.2032
 2279SOL     hw 9115   6.898   6.767   6.465  0.9353  1.1294 -2.5558
 2279SOL     vw 9116   6.872   6.684   6.459  0.5012  1.0304 -0.0708
 2280SOL     ow 9117   7.324   4.532   5.361  0.1594 -0.0591  0.4258
 2280SOL     hw 9118   7.239   4.493   5.339  0.2299  0.3501 -0.6492
 2280SOL     hw 9119   7.328   4.612   5.308  1.7776 -0.7709 -0.6151
 2280SOL     vw 9120   7.313   4.538   5.351  0.3819 -0.0992  0.1469
 2281SOL     ow 9121   2.435   5.894   0.614  0.1052 -0.5871  0.7269
 2281SOL     hw 9122   2.399   5.879   0.701  1.7882  1.0827  1.7758
 2281SOL     hw 9123   2.495   5.968   0.624  0.3685 -0.3308 -1.8548
 2281SOL     vw 9124   2.438   5.901   0.627  0.3619 -0.3328  0.5246
 2282SOL     ow 9125   6.244   4.625   3.120 -0.1824  0.3505 -0.8162
 2282SOL     hw 9126   6.323   4.574   3.139 -0.4664 -0.3383 -1.4201
 2282SOL     hw 9127   6.178   4.588   3.179 -0.7102 -0.8596 -2.0993
 2282SOL     vw 9128   6.246   4.613   3.131 -0.2897  0.0999 -1.0651
 2283SOL     ow 9129   0.300   1.557   6.399 -0.0237 -0.0248 -0.0322
 2283SOL     hw 9130   0.273   1.595   6.483 -1.0235  0.0545 -0.3789
 2283SOL     hw 9131   0.376   1.610   6.372 -2.3546  2.9472 -1.3190
 2283SOL     vw 9132   0.307   1.569   6.407 -0.4632  0.3778 -0.2477
 2284SOL     ow 9133   2.058   3.347   3.703  0.1739 -0.3715  0.4448
 2284SOL     hw 9134   2.020   3.357   3.790  2.9112 -1.8338  1.9568
 2284SOL     hw 9135   2.070   3.253   3.692  2.2714 -0.0728 -0.3290
 2284SOL     vw 9136   2.055   3.336   3.713  0.8118 -0.5250  0.5423
 2285SOL     ow 9137   5.077   4.663   1.080  0.3707  0.1717  0.0256
 2285SOL     hw 9138   5.113   4.666   1.168 -3.4373  1.1966  1.7756
 2285SOL     hw 9139   5.011   4.594   1.084  0.9687 -0.6365 -2.4704
 2285SOL     vw 9140   5.073   4.654   1.092 -0.0529  0.2005 -0.0728
 2286SOL     ow 9141   6.950   5.086   0.380  0.0318 -0.4394  0.2905
 2286SOL     hw 9142   7.032   5.124   0.412 -0.0290  0.0140 -0.0882
 2286SOL     hw 9143   6.881   5.137   0.422 -0.0560  1.0515 -1.5578
 2286SOL     vw 9144   6.952   5.098   0.390  0.0124 -0.1831 -0.0034
 2287SOL     ow 9145   2.348   1.285   4.040  0.6813  0.0167  0.6732
 2287SOL     hw 9146   2.430   1.248   4.007  0.7179  0.7451 -0.0987
 2287SOL     hw 9147   2.319   1.345   3.970 -1.1331 -1.1214  0.3845
 2287SOL     vw 9148   2.355   1.288   4.026  0.4467 -0.0373  0.5331
 2288SOL     ow 9149   0.893   3.123   2.723  0.0144  0.7640 -0.0505
 2288SOL     hw 9150   0.932   3.210   2.716  0.5074  0.7054  1.6855
 2288SOL     hw 9151   0.833   3.129   2.797 -0.3716 -0.2296 -0.2655
 2288SOL     vw 9152   0.890   3.136   2.732  0.0285  0.6251  0.1502
 2289SOL     ow 9153   5.590   2.640   2.362  0.4020  0.3804 -0.1993
 2289SOL     hw 9154   5.655   2.618   2.295 -0.3386  1.9119 -1.4827
 2289SOL     hw 9155   5.611   2.730   2.388 -0.3166  0.3771  0.4412
 2289SOL     vw 9156   5.601   2.649   2.357  0.2093  0.5820 -0.2843
 2290SOL     ow 9157   1.126   4.193   0.970 -0.9732 -0.1963 -0.1937
 2290SOL     hw 9158   1.106   4.165   1.059  1.0802 -1.4540 -0.0723
 2290SOL     hw 9159   1.041   4.193   0.925 -2.0906  0.7621  1.8034
 2290SOL     vw 9160   1.112   4.189   0.975 -0.8496 -0.2358  0.0858
 2291SOL     ow 9161   0.809   0.816   0.941  0.1957  0.2726 -0.0204
 2291SOL     hw 9162   0.837   0.862   0.862 -1.0877  3.3180  1.1378
 2291SOL     hw 9163   0.717   0.839   0.951 -0.0222 -1.0968  1.6865
 2291SOL     vw 9164   0.800   0.825   0.932 -0.0024  0.4938  0.3576
 2292SOL     ow 9165   0.619   0.251   2.040 -0.1345  0.2790 -0.2587
 2292SOL     hw 9166   0.711   0.228   2.031  0.1585  1.0611  0.6247
 2292SOL     hw 9167   0.619   0.337   2.082 -1.2766  0.1187  0.1118
 2292SOL     vw 9168   0.631   0.259   2.044 -0.2465  0.3610 -0.0932
 2293SOL     ow 9169   4.254   5.040   4.135 -0.7100 -0.6591 -0.0606
 2293SOL     hw 9170   4.318   5.004   4.073 -0.2828 -1.1703  0.6660
 2293SOL     hw 9171   4.288   5.127   4.156 -1.7653  0.2560 -1.8495
 2293SOL     vw 9172   4.267   5.047   4.129 -0.7930 -0.6061 -0.2007
 2294SOL     ow 9173   5.340   4.174   6.443  0.4289 -0.0649 -0.5918
 2294SOL     hw 9174   5.385   4.091   6.463  0.8570  0.2778 -0.0971
 2294SOL     hw 9175   5.404   4.241   6.465  0.1240  0.4011 -1.1011
 2294SOL     vw 9176   5.355   4.172   6.449  0.4454  0.0417 -0.5937
 2295SOL     ow 9177   3.722   4.323   1.648 -0.0548  0.4410 -0.4716
 2295SOL     hw 9178   3.762   4.317   1.561  1.5689  0.0381  0.2637
 2295SOL     hw 9179   3.693   4.234   1.668  1.2394  0.1271  0.1211
 2295SOL     vw 9180   3.724   4.310   1.639  0.3302  0.3462 -0.2964
 2296SOL     ow 9181   4.629   0.035   4.112  0.5810  0.7031 -0.2514
 2296SOL     hw 9182   4.684   0.098   4.065  1.4490 -0.3946 -0.7324
 2296SOL     hw 9183   4.543   0.043   4.069  0.5373  1.9014  0.0220
 2296SOL     vw 9184   4.625   0.044   4.100  0.6897  0.7164 -0.2789
 2297SOL     ow 9185   6.048   0.363   3.313 -0.1119  0.5911 -0.2561
 2297SOL     hw 9186   5.958   0.391   3.302 -0.5558 -0.6451  0.0864
 2297SOL     hw 9187   6.083   0.419   3.383 -0.7454  0.7502 -0.0651
 2297SOL     vw 9188   6.041   0.374   3.321 -0.2539  0.4490 -0.1857
 2298SOL     ow 9189   3.990   2.818   7.197  0.0831 -0.4870  0.5718
 2298SOL     hw 9190   3.968   2.726   7.211 -0.3393 -0.4230  0.3279
 2298SOL     hw 9191   3.906   2.861   7.180  0.3643 -0.1974 -0.1147
 2298SOL     vw 9192   3.976   2.812   7.197  0.0645 -0.4402  0.4492
 2299SOL     ow 9193   7.196   5.316   7.107 -0.1038  0.3223 -0.8449
 2299SOL     hw 9194   7.205   5.223   7.130 -0.0861  0.7184  0.8648
 2299SOL     hw 9195   7.158   5.357   7.185 -4.4220  1.0560 -3.0054
 2299SOL     vw 9196   7.192   5.309   7.121 -0.6711  0.4714 -0.9048
 2300SOL     ow 9197   2.908   0.186   3.292  0.5372  0.5986 -0.0854
 2300SOL     hw 9198   2.923   0.136   3.372 -0.8111 -0.9027 -0.7208
 2300SOL     hw 9199   2.982   0.246   3.287  0.7298  0.6237  2.1968
 2300SOL     vw 9200   2.919   0.187   3.302  0.3847  0.4039  0.1318
 2301SOL     ow 9201   1.591   4.490   1.088 -0.5017  0.3924 -0.0938
 2301SOL     hw 9202   1.673   4.444   1.108 -0.4855  0.2017 -0.5701
 2301SOL     hw 9203   1.528   4.419   1.071 -0.6771  0.5396 -0.0562
 2301SOL     vw 9204   1.594   4.474   1.088 -0.5227  0.3867 -0.1516
 2302SOL     ow 9205   1.730   6.689   2.613  0.3508  0.1179  0.2714
 2302SOL     hw 9206   1.655   6.639   2.580 -0.2678  0.2820  1.3766
 2302SOL     hw 9207   1.711   6.780   2.588  0.1133  0.1739  0.6373
 2302SOL     vw 9208   1.718   6.695   2.606  0.2379  0.1471  0.4654
 2303SOL     ow 9209   7.077   2.634   3.452  0.2448 -0.1207 -0.2676
 2303SOL     hw 9210   7.170   2.644   3.475  0.0986 -0.0408  0.2903
 2303SOL     hw 9211   7.051   2.721   3.420  0.1846  0.0349  0.2093
 2303SOL     vw 9212   7.086   2.647   3.451  0.2177 -0.0895 -0.1310
 2304SOL     ow 9213   1.442   5.013   3.724 -0.4318 -0.2333 -0.1111
 2304SOL     hw 9214   1.399   5.037   3.641  2.4373  0.0807 -1.6519
 2304SOL     hw 9215   1.475   4.924   3.709  1.1675  0.2780  0.1903
 2304SOL     vw 9216   1.440   5.004   3.711  0.1578 -0.1245 -0.2748
 2305SOL     ow 9217   1.313   5.991   4.988 -0.2961  0.5187  0.5333
 2305SOL     hw 9218   1.237   5.958   4.940 -1.3401  0.3427  2.2150
 2305SOL     hw 9219   1.298   5.962   5.078  1.6760  0.6688  0.9405
 2305SOL     vw 9220   1.301   5.983   4.994 -0.1736  0.5152  0.8090
 2306SOL     ow 9221   6.915   3.373   5.377 -0.1107  0.4187 -0.3412
 2306SOL     hw 9222   6.975   3.355   5.305  1.8807 -0.1723  1.3646
 2306SOL     hw 9223   6.961   3.434   5.433 -0.5211 -0.9816  1.6576
 2306SOL     vw 9224   6.929   3.378   5.375  0.0980  0.1560  0.1476
 2307SOL     ow 9225   5.350   4.548   7.257  0.0399  0.1669  0.6447
 2307SOL     hw 9226   5.435   4.578   7.227 -0.5592  0.6116 -0.6500
 2307SOL     hw 9227   5.333   4.598   7.337  1.5017 -0.7926  1.5956
 2307SOL     vw 9228   5.359   4.558   7.264  0.1538  0.0989  0.5991
 2308SOL     ow 9229   3.422   2.936   2.205 -0.6113 -0.0465  0.1648
 2308SOL     hw 9230   3.338   2.925   2.160 -0.4392  1.1985 -0.4921
 2308SOL     hw 9231   3.414   2.882   2.284 -1.3991 -1.2832 -0.7116
 2308SOL     vw 9232   3.410   2.927   2.209 -0.6926 -0.0454 -0.0374
 2309SOL     ow 9233   3.182   3.332   0.092  0.0995  0.0252  0.5949
 2309SOL     hw 9234   3.176   3.428   0.096 -0.4142 -0.0179  0.8725
 2309SOL     hw 9235   3.199   3.305   0.182  0.9076 -0.1052  0.4100
 2309SOL     vw 9236   3.183   3.341   0.104  0.1383  0.0021  0.6071
 2310SOL     ow 9237   0.285   4.366   3.650  0.1369 -0.1592 -0.8135
 2310SOL     hw 9238   0.334   4.440   3.686 -1.2447 -0.5031  2.0482
 2310SOL     hw 9239   0.347   4.294   3.649  0.3322 -0.0493  0.7258
 2310SOL     vw 9240   0.300   4.366   3.655 -0.0196 -0.1900 -0.2328
 2311SOL     ow 9241   3.294   1.108   2.410  0.1564  0.3803  0.8696
 2311SOL     hw 9242   3.382   1.145   2.422  0.2056  0.2143  1.0149
 2311SOL     hw 9243   3.236   1.172   2.451  0.1993  0.5453  0.6755
 2311SOL     vw 9244   3.298   1.121   2.417  0.1686  0.3802  0.8631
 2312SOL     ow 9245   0.232   1.666   1.504 -0.5201  0.8088 -0.2342
 2312SOL     hw 9246   0.186   1.663   1.588 -1.8527  0.6308 -0.9505
 2312SOL     hw 9247   0.252   1.574   1.485  0.8887  0.9400  0.4456
 2312SOL     vw 9248   0.229   1.653   1.513 -0.5100  0.8027 -0.2390
 2313SOL     ow 9249   3.527   0.969   1.098 -1.1039  0.1998 -0.0014
 2313SOL     hw 9250   3.567   0.989   1.013  0.0367  1.0414  0.7048
 2313SOL     hw 9251   3.572   1.026   1.160  0.8473 -3.0162  1.8181
 2313SOL     vw 9252   3.538   0.979   1.095 -0.6959 -0.1135  0.3318
 2314SOL     ow 9253   3.440   2.474   6.576  0.5596 -0.0168 -0.1719
 2314SOL     hw 9254   3.370   2.518   6.529  1.2889  0.7443 -0.5781
 2314SOL     hw 9255   3.422   2.492   6.669  1.4329  2.1246 -0.3663
 2314SOL     vw 9256   3.429   2.482   6.582  0.7712  0.3660 -0.2515
 2315SOL     ow 9257   1.653   6.591   1.216 -0.7774 -0.1890 -0.9742
 2315SOL     hw 9258   1.617   6.563   1.300  1.3811 -3.1128 -0.8948
 2315SOL     hw 9259   1.622   6.526   1.153  0.9058 -0.3727 -1.6552
 2315SOL     vw 9260   1.644   6.579   1.218 -0.2705 -0.5991 -1.0536
 2316SOL     ow 9261   7.023   0.869   5.810 -0.1457 -0.1427  0.3169
 2316SOL     hw 9262   7.035   0.958   5.843  0.7748  0.0383 -0.4827
 2316SOL     hw 9263   6.992   0.820   5.886 -2.3318  1.1911  0.3928
 2316SOL     vw 9264   7.020   0.874   5.824 -0.3128  0.0572  0.2213
 2317SOL     ow 9265   0.202   2.143   2.755  0.1769 -0.4328 -0.1682
 2317SOL     hw 9266   0.226   2.181   2.840 -0.2120  0.0568 -0.2711
 2317SOL     hw 9267   0.153   2.064   2.777 -0.6891  0.1652  0.0826
 2317SOL     vw 9268   0.199   2.138   2.769  0.0113 -0.2892 -0.1488
 2318SOL     ow 9269   2.151   5.565   3.136  0.7062  0.5482 -0.5231
 2318SOL     hw 9270   2.200   5.514   3.200  1.2885 -0.5228 -1.7851
 2318SOL     hw 9271   2.066   5.581   3.179  1.1204 -0.0250  0.5543
 2318SOL     vw 9272   2.146   5.560   3.150  0.8377  0.3314 -0.5474
 2319SOL     ow 9273   3.205   5.206   1.537  0.3490 -0.3631  0.7268
 2319SOL     hw 9274   3.124   5.194   1.588 -1.1284  2.2770 -0.7624
 2319SOL     hw 9275   3.186   5.168   1.452  1.4662 -1.5123  0.9678
 2319SOL     vw 9276   3.191   5.200   1.533  0.3015 -0.1664  0.5621
 2320SOL     ow 9277   5.207   7.314   5.323  0.0562  0.0249  0.3781
 2320SOL     hw 9278   5.128   7.260   5.331  0.5949 -0.8528 -0.1539
 2320SOL     hw 9279   5.185   7.394   5.371 -1.2624 -0.0811  0.0081
 2320SOL     vw 9280   5.194   7.318   5.330 -0.0470 -0.1049  0.2594
 2321SOL     ow 9281   6.046   4.566   2.890 -0.6255  0.6748  0.0757
 2321SOL     hw 9282   5.951   4.563   2.898 -0.6319  0.9765  0.1233
 2321SOL     hw 9283   6.078   4.573   2.980 -0.5881  1.2200  0.0288
 2321SOL     vw 9284   6.038   4.567   2.903 -0.6213  0.7863  0.0758
 2322SOL     ow 9285   4.474   6.380   5.184  0.2527  0.0597 -0.5366
 2322SOL     hw 9286   4.464   6.328   5.104 -1.7802  1.4554 -1.2871
 2322SOL     hw 9287   4.384   6.400   5.211  0.9259  0.9986  1.1830
 2322SOL     vw 9288   4.461   6.376   5.177  0.0732  0.3679 -0.4086
 2323SOL     ow 9289   3.355   4.741   6.180 -0.0934  0.5621  0.6049
 2323SOL     hw 9290   3.411   4.757   6.104 -2.6456  0.4887 -1.4747
 2323SOL     hw 9291   3.363   4.648   6.197 -0.0827  0.4164 -0.1365
 2323SOL     vw 9292   3.363   4.731   6.172 -0.4288  0.5333  0.2327
 2324SOL     ow 9293   5.296   5.056   4.655  0.1003 -0.9063 -0.2796
 2324SOL     hw 9294   5.238   5.106   4.712 -1.0794 -1.4872 -0.9283
 2324SOL     hw 9295   5.241   4.985   4.622  1.8916 -3.0948  1.1509
 2324SOL     vw 9296   5.281   5.053   4.658  0.1810 -1.2717 -0.1764
 2325SOL     ow 9297   4.404   4.499   4.249 -0.0716 -0.7667 -0.0350
 2325SOL     hw 9298   4.345   4.572   4.267  1.2842 -0.2865  3.1470
 2325SOL     hw 9299   4.432   4.468   4.335  1.0650 -3.7204 -1.3013
 2325SOL     vw 9300   4.400   4.504   4.262  0.2573 -1.0929  0.2177
 2326SOL     ow 9301   6.415   3.343   6.605 -0.0493  0.1453  0.1692
 2326SOL     hw 9302   6.456   3.342   6.692 -1.9437  1.1948  1.1364
 2326SOL     hw 9303   6.430   3.255   6.570  1.8214  0.0817  1.0089
 2326SOL     vw 9304   6.422   3.331   6.612 -0.0522  0.2754  0.4079
 2327SOL     ow 9305   4.603   6.549   4.781 -0.8031 -0.7298 -0.6096
 2327SOL     hw 9306   4.509   6.565   4.792 -1.1691 -3.0381  0.3777
 2327SOL     hw 9307   4.646   6.613   4.838 -1.6057  1.6546 -2.5432
 2327SOL     vw 9308   4.596   6.559   4.790 -0.9573 -0.7198 -0.7343
 2328SOL     ow 9309   0.103   5.329   6.212 -0.5069  0.0839 -0.0084
 2328SOL     hw 9310   0.186   5.301   6.176 -1.1631 -3.6764  0.9459
 2328SOL     hw 9311   0.126   5.377   6.291  0.8285 -1.5147  0.6386
 2328SOL     vw 9312   0.117   5.331   6.218 -0.4173 -0.6232  0.2029
 2329SOL     ow 9313   1.178   2.200   3.436 -0.0182 -0.0945  0.0794
 2329SOL     hw 9314   1.213   2.232   3.518 -0.6218 -1.7995  1.0670
 2329SOL     hw 9315   1.214   2.111   3.427 -1.5373 -0.7049 -0.4354
 2329SOL     vw 9316   1.187   2.192   3.445 -0.2983 -0.3999  0.1419
 2330SOL     ow 9317   6.377   0.155   6.606  0.2553 -0.2070  0.5539
 2330SOL     hw 9318   6.339   0.151   6.693 -0.6278 -0.4325  0.1693
 2330SOL     hw 9319   6.471   0.170   6.621  0.0055  0.4711  1.5136
 2330SOL     vw 9320   6.384   0.157   6.619  0.1059 -0.1473  0.6297
 2331SOL     ow 9321   1.327   2.888   6.861 -0.4902 -0.3346 -0.4667
 2331SOL     hw 9322   1.242   2.888   6.905 -0.8915  0.3434 -1.2084
 2331SOL     hw 9323   1.353   2.796   6.857 -2.8490 -1.0413 -3.3413
 2331SOL     vw 9324   1.319   2.876   6.866 -0.8543 -0.3382 -0.9439
 2332SOL     ow 9325   5.997   0.579   4.368  0.6148 -0.2746  0.1281
 2332SOL     hw 9326   6.019   0.582   4.275 -0.5287  2.1039 -0.1512
 2332SOL     hw 9327   5.957   0.493   4.381  0.2533 -0.4282 -1.7197
 2332SOL     vw 9328   5.995   0.568   4.357  0.4163  0.0190 -0.1523
 2333SOL     ow 9329   2.238   3.647   3.833  0.1139  0.2445  1.0696
 2333SOL     hw 9330   2.179   3.662   3.906 -0.9629  0.7677  0.1302
 2333SOL     hw 9331   2.188   3.674   3.756  1.4362  0.3105  0.1998
 2333SOL     vw 9332   2.224   3.652   3.832  0.1464  0.3222  0.8309
 2334SOL     ow 9333   0.696   4.831   6.690 -0.1042  0.0112  0.2238
 2334SOL     hw 9334   0.673   4.905   6.634 -0.4628 -0.4074 -0.1873
 2334SOL     hw 9335   0.619   4.774   6.689 -0.9674  0.9924  2.8349
 2334SOL     vw 9336   0.683   4.833   6.683 -0.2654  0.0854  0.5140
 2335SOL     ow 9337   2.749   5.766   0.217 -0.2144  0.5396  0.1470
 2335SOL     hw 9338   2.669   5.728   0.181 -1.9145  0.6666  3.3740
 2335SOL     hw 9339   2.811   5.694   0.219 -0.2772  0.3489 -2.1185
 2335SOL     vw 9340   2.746   5.752   0.212 -0.4470  0.5314  0.2738
 2336SOL     ow 9341   2.130   3.465   0.263  0.5197  0.0474 -0.6415
 2336SOL     hw 9342   2.172   3.541   0.221  2.7685 -1.4713 -1.3526
 2336SOL     hw 9343   2.108   3.496   0.351 -0.1680  1.9877 -1.4391
 2336SOL     vw 9344   2.133   3.479   0.269  0.7256  0.1031 -0.8406
 2337SOL     ow 9345   1.013   6.573   6.000  1.0640 -0.5084 -0.1423
 2337SOL     hw 9346   0.931   6.549   5.957  2.0302 -1.4825 -1.5256
 2337SOL     hw 9347   0.996   6.661   6.035  0.2554  0.4519 -2.6977
 2337SOL     vw 9348   1.000   6.582   5.999  1.0848 -0.5105 -0.6618
 2338SOL     ow 9349   5.671   0.172   4.927 -0.1709  0.3049  0.4603
 2338SOL     hw 9350   5.721   0.225   4.866 -0.5024  0.3147  0.2008
 2338SOL     hw 9351   5.589   0.153   4.883 -0.0769 -0.3919  0.5581
 2338SOL     vw 9352   5.667   0.176   4.913 -0.2024  0.2143  0.4389
 2339SOL     ow 9353   6.708   6.625   6.252 -0.6654  0.0985  0.4431
 2339SOL     hw 9354   6.727   6.687   6.182  1.2841 -1.1322 -0.1917
 2339SOL     hw 9355   6.777   6.640   6.317 -1.1524 -0.2928  1.0623
 2339SOL     vw 9356   6.720   6.635   6.251 -0.4725 -0.1154  0.4413
 2340SOL     ow 9357   4.339   7.271   5.273 -0.5000  0.7714 -0.3150
 2340SOL     hw 9358   4.308   7.227   5.194 -0.9314  0.4840  0.0111
 2340SOL     hw 9359   4.265   7.267   5.333  0.3490 -0.4520  0.6949
 2340SOL     vw 9360   4.326   7.265   5.270 -0.4451  0.5722 -0.1385
 2341SOL     ow 9361   3.483   0.256   0.297 -0.2866  0.9574 -0.8041
 2341SOL     hw 9362   3.405   0.301   0.265 -0.1945  1.5361 -0.2433
 2341SOL     hw 9363   3.533   0.234   0.218 -1.5025 -0.3727 -1.2458
 2341SOL     vw 9364   3.479   0.259   0.283 -0.4349  0.8582 -0.7884
 2342SOL     ow 9365   5.741   4.179   2.701 -0.1433  0.4870 -0.5418
 2342SOL     hw 9366   5.727   4.210   2.790  0.3719  0.6228 -0.5085
 2342SOL     hw 9367   5.700   4.246   2.646  1.1398  1.3516 -0.4800
 2342SOL     vw 9368   5.733   4.192   2.705  0.0942  0.6187 -0.5293
 2343SOL     ow 9369   6.399   2.867   4.945 -0.7472 -0.7778  0.1916
 2343SOL     hw 9370   6.388   2.893   4.853  0.4356 -0.1998  0.1864
 2343SOL     hw 9371   6.375   2.945   4.995 -0.1616 -0.6647  0.3063
 2343SOL     vw 9372   6.395   2.881   4.939 -0.5138 -0.6868  0.2062
 2344SOL     ow 9373   3.337   5.752   5.666  0.2867  0.1065  0.5645
 2344SOL     hw 9374   3.348   5.661   5.694  1.2491  0.8697  2.8497
 2344SOL     hw 9375   3.406   5.800   5.711 -1.9881  2.4727  1.8139
 2344SOL     vw 9376   3.348   5.746   5.675  0.1135  0.5193  1.0307
 2345SOL     ow 9377   4.608   6.069   3.945 -0.0111 -0.2931  0.4107
 2345SOL     hw 9378   4.653   6.058   3.862  2.5068 -1.0897  1.7725
 2345SOL     hw 9379   4.620   6.162   3.967 -2.2594  0.3706 -0.8807
 2345SOL     vw 9380   4.616   6.080   3.937  0.0246 -0.3107  0.4200
 2346SOL     ow 9381   0.244   0.569   1.333  0.1596 -0.2664  0.0481
 2346SOL     hw 9382   0.192   0.612   1.401 -0.6170  0.5346 -1.0217
 2346SOL     hw 9383   0.234   0.625   1.256  0.9039 -1.2302 -0.7729
 2346SOL     vw 9384   0.236   0.582   1.332  0.1553 -0.2879 -0.2013
 2347SOL     ow 9385   1.959   0.529   5.484 -0.3723 -0.1938 -0.2579
 2347SOL     hw 9386   1.918   0.453   5.443 -2.4210  0.3142  0.7294
 2347SOL     hw 9387   1.907   0.604   5.455  0.4586  0.6048  0.2634
 2347SOL     vw 9388   1.947   0.528   5.475 -0.5329 -0.0214 -0.0589
 2348SOL     ow 9389   3.849   0.419   7.354 -0.2336 -0.3082 -0.5596
 2348SOL     hw 9390   3.906   0.497   7.358  0.5595 -0.9015 -0.0645
 2348SOL     hw 9391   3.765   0.450   7.386  0.5337 -0.0411  1.3221
 2348SOL     vw 9392   3.846   0.434   7.359 -0.0277 -0.3513 -0.2460
 2349SOL     ow 9393   6.620   1.809   4.754  0.1064  0.1537 -0.2523
 2349SOL     hw 9394   6.574   1.736   4.712 -2.8938  0.1963  2.6266
 2349SOL     hw 9395   6.571   1.887   4.729  1.5213  0.8939 -0.8821
 2349SOL     vw 9396   6.608   1.809   4.745 -0.1030  0.2570  0.0441
 2350SOL     ow 9397   5.266   6.723   2.487 -0.6297  0.6729 -0.1207
 2350SOL     hw 9398   5.243   6.776   2.563 -0.9547  1.3757 -0.6920
 2350SOL     hw 9399   5.220   6.641   2.499  1.2628 -0.2248  1.6757
 2350SOL     vw 9400   5.257   6.719   2.498 -0.4227  0.6471  0.0410
 2351SOL     ow 9401   6.064   3.725   5.274 -0.0303 -0.2176 -0.1647
 2351SOL     hw 9402   5.992   3.786   5.288 -0.3649 -0.5530 -0.4288
 2351SOL     hw 9403   6.121   3.769   5.211  0.1384  0.1641  0.2480
 2351SOL     vw 9404   6.062   3.739   5.268 -0.0522 -0.2116 -0.1452
 2352SOL     ow 9405   3.401   7.355   3.566  0.5864  0.5154  0.4144
 2352SOL     hw 9406   3.395   7.423   3.633  1.7080  0.4747  0.5676
 2352SOL     hw 9407   3.450   7.284   3.607 -0.6766 -0.4513  0.2925
 2352SOL     vw 9408   3.407   7.355   3.580  0.5678  0.3824  0.4185
 2353SOL     ow 9409   4.494   4.918   5.726  0.2347 -0.0585 -0.2228
 2353SOL     hw 9410   4.517   5.009   5.748 -0.8300 -0.2061  1.7291
 2353SOL     hw 9411   4.579   4.875   5.715  0.8154  0.7086  0.9765
 2353SOL     vw 9412   4.508   4.925   5.728  0.1712  0.0234  0.1931
 2354SOL     ow 9413   7.279   1.694   4.426 -0.9123 -0.8126 -0.6744
 2354SOL     hw 9414   7.310   1.692   4.335  2.9561  2.5848  0.2565
 2354SOL     hw 9415   7.358   1.710   4.477 -2.7478 -3.4693  3.5395
 2354SOL     vw 9416   7.294   1.696   4.421 -0.6442 -0.7148  0.0043
 2355SOL     ow 9417   0.756   2.955   7.284  0.2559 -0.2294 -0.3043
 2355SOL     hw 9418   0.676   2.940   7.235  1.3892  2.0331 -3.1654
 2355SOL     hw 9419   0.782   2.868   7.316 -2.2100 -1.3099 -1.0040
 2355SOL     vw 9420   0.749   2.941   7.282  0.0801 -0.0734 -0.7741
 2356SOL     ow 9421   3.862   1.180   6.146 -0.0919  0.2365 -0.2260
 2356SOL     hw 9422   3.849   1.138   6.231  0.1942  1.9612  0.7176
 2356SOL     hw 9423   3.773   1.198   6.115 -0.1911 -0.0082 -0.0858
 2356SOL     vw 9424   3.848   1.177   6.153 -0.0671  0.4318 -0.0827
 2357SOL     ow 9425   6.443   3.008   3.486  0.2478 -0.5972 -0.0321
 2357SOL     hw 9426   6.443   3.000   3.581  0.1580  1.6826  0.2304
 2357SOL     hw 9427   6.352   3.024   3.463  0.5904  1.4823 -0.1503
 2357SOL     vw 9428   6.431   3.009   3.495  0.2811 -0.0219 -0.0130
 2358SOL     ow 9429   6.985   4.420   6.974 -0.0638  0.2996 -0.0248
 2358SOL     hw 9430   6.918   4.385   7.033 -0.7940  1.8153  0.0709
 2358SOL     hw 9431   7.058   4.359   6.983 -0.1225  0.5084  2.5015
 2358SOL     vw 9432   6.986   4.407   6.983 -0.1681  0.5271  0.3211
 2359SOL     ow 9433   1.466   0.083   4.567  0.5446  0.1993  0.2776
 2359SOL     hw 9434   1.458   0.168   4.610  2.6114 -0.0787  1.2903
 2359SOL     hw 9435   1.423   0.096   4.482  0.1348  2.0031  0.7103
 2359SOL     vw 9436   1.459   0.096   4.561  0.7633  0.4006  0.4683
 2360SOL     ow 9437   7.288   7.138   1.464  0.1308  0.2334  0.7199
 2360SOL     hw 9438   7.376   7.126   1.429  0.6532  1.1754  1.6736
 2360SOL     hw 9439   7.267   7.230   1.445 -1.7732 -0.6339 -1.9678
 2360SOL     vw 9440   7.297   7.149   1.457 -0.0515  0.2432  0.4912
 2361SOL     ow 9441   6.014   6.537   4.310  0.2988 -0.0226  0.1760
 2361SOL     hw 9442   6.108   6.516   4.308  0.2699 -0.4376  1.6474
 2361SOL     hw 9443   5.971   6.454   4.330 -0.3532  0.2633  0.0027
 2361SOL     vw 9444   6.021   6.523   4.312  0.2093 -0.0396  0.3474
 2362SOL     ow 9445   2.107   4.292   7.129 -0.1941  0.1037 -0.1693
 2362SOL     hw 9446   2.152   4.373   7.154 -1.5960  1.3947 -1.5482
 2362SOL     hw 9447   2.108   4.294   7.033 -0.7908 -1.2223 -0.2177
 2362SOL     vw 9448   2.113   4.303   7.119 -0.4578  0.0992 -0.3576
 2363SOL     ow 9449   0.199   6.801   5.194  0.5163 -0.3027  0.1362
 2363SOL     hw 9450   0.287   6.801   5.154  0.2620  1.5951 -0.5793
 2363SOL     hw 9451   0.149   6.862   5.139 -0.4790  0.7455  2.0935
 2363SOL     vw 9452   0.204   6.809   5.181  0.3514  0.0856  0.3002
 2364SOL     ow 9453   0.017   1.135   4.710  0.7093  0.2123  0.0009
 2364SOL     hw 9454   0.086   1.071   4.729 -1.2292 -1.8630  0.4231
 2364SOL     hw 9455   0.000   1.178   4.794 -0.4365 -1.3456  0.6266
 2364SOL     vw 9456   0.024   1.132   4.723  0.3028 -0.2670  0.1397
 2365SOL     ow 9457   2.430   0.520   4.631  0.5100  0.4347  0.1636
 2365SOL     hw 9458   2.372   0.451   4.664  1.3694 -0.5638 -0.3576
 2365SOL     hw 9459   2.428   0.509   4.536  2.4173 -0.3683  0.1818
 2365SOL     vw 9460   2.422   0.510   4.623  0.8750  0.1971  0.0973
 2366SOL     ow 9461   1.701   6.930   2.779 -0.2342 -0.1084 -0.0072
 2366SOL     hw 9462   1.717   6.836   2.791  1.2765  0.3410  2.2165
 2366SOL     hw 9463   1.784   6.964   2.746 -1.3639  0.2507 -2.7800
 2366SOL     vw 9464   1.714   6.922   2.776 -0.1839 -0.0019 -0.0798
 2367SOL     ow 9465   4.804   5.849   0.312  0.1652 -0.4163 -0.2397
 2367SOL     hw 9466   4.855   5.887   0.384 -0.3893 -2.0421  1.0642
 2367SOL     hw 9467   4.869   5.825   0.246  0.8370 -0.2593  0.3514
 2367SOL     vw 9468   4.819   5.851   0.313  0.1805 -0.6099  0.0103
 2368SOL     ow 9469   5.268   6.782   5.947 -0.4571  0.6536 -0.2313
 2368SOL     hw 9470   5.361   6.763   5.945 -0.4478  0.7098 -0.3492
 2368SOL     hw 9471   5.232   6.720   6.010 -0.2808  0.8898  0.1070
 2368SOL     vw 9472   5.275   6.772   5.955 -0.4325  0.6921 -0.2022
 2369SOL     ow 9473   2.277   5.528   2.913  0.1747  0.5718 -0.1090
 2369SOL     hw 9474   2.336   5.454   2.930 -0.5007 -0.3595 -1.6213
 2369SOL     hw 9475   2.215   5.526   2.987 -1.5014 -2.1531 -1.3931
 2369SOL     vw 9476   2.276   5.518   2.925 -0.1355  0.0894 -0.4778
 2370SOL     ow 9477   2.296   1.096   4.277  0.3023 -0.2947 -0.1827
 2370SOL     hw 9478   2.345   1.138   4.348  2.2876  0.9042 -2.1471
 2370SOL     hw 9479   2.363   1.057   4.221 -1.1830 -1.0751 -1.4958
 2370SOL     vw 9480   2.311   1.096   4.279  0.3682 -0.2394 -0.6149
 2371SOL     ow 9481   1.959   5.276   4.137 -0.2863 -0.2738 -0.4543
 2371SOL     hw 9482   1.943   5.182   4.148  1.6067 -0.6878 -0.8655
 2371SOL     hw 9483   1.949   5.313   4.225  0.4765 -1.1448  0.0214
 2371SOL     vw 9484   1.956   5.268   4.150  0.0640 -0.4435 -0.4458
 2372SOL     ow 9485   2.117   3.806   1.603  0.2583 -0.1971 -0.6260
 2372SOL     hw 9486   2.177   3.733   1.623 -2.3379 -2.2912  0.1287
 2372SOL     hw 9487   2.134   3.869   1.673 -0.0731 -1.8668  1.0659
 2372SOL     vw 9488   2.127   3.805   1.615 -0.1281 -0.6937 -0.3032
 2373SOL     ow 9489   4.617   2.842   4.182 -0.0362 -0.0806  0.2897
 2373SOL     hw 9490   4.609   2.926   4.137 -0.9468  0.6879  1.8162
 2373SOL     hw 9491   4.687   2.797   4.135  0.6208  1.5985 -0.4461
 2373SOL     vw 9492   4.625   2.847   4.170 -0.0696  0.2422  0.3939
 2374SOL     ow 9493   0.594   0.314   4.607 -0.2456  0.1064 -0.2532
 2374SOL     hw 9494   0.661   0.313   4.539 -2.4623 -0.8958 -2.5742
 2374SOL     hw 9495   0.623   0.382   4.668  2.6011  0.0050 -1.3574
 2374SOL     vw 9496   0.607   0.323   4.606 -0.1625 -0.0392 -0.7052
 2375SOL     ow 9497   4.667   5.873   4.245 -0.8109 -0.6362 -0.5163
 2375SOL     hw 9498   4.660   5.786   4.284  0.1529  1.0691  4.1734
 2375SOL     hw 9499   4.761   5.893   4.248 -1.2300  1.5128  1.3239
 2375SOL     vw 9500   4.679   5.864   4.251 -0.7393 -0.1276  0.3452
 2376SOL     ow 9501   1.857   0.671   6.741 -0.4732  0.5311 -0.1381
 2376SOL     hw 9502   1.866   0.758   6.781 -1.6685  0.2143  0.8983
 2376SOL     hw 9503   1.945   0.634   6.742  0.4429  2.4121 -2.2999
 2376SOL     vw 9504   1.870   0.678   6.746 -0.5101  0.7375 -0.2868
 2377SOL     ow 9505   3.289   3.704   3.637 -0.8901 -0.2824  0.0092
 2377SOL     hw 9506   3.218   3.749   3.681 -1.5600 -0.6032 -0.7164
 2377SOL     hw 9507   3.367   3.724   3.689 -0.7171  3.4275 -1.3578
 2377SOL     vw 9508   3.290   3.712   3.650 -0.9557  0.1647 -0.2669
 2378SOL     ow 9509   3.891   5.466   3.508  0.2426 -0.2227  0.6716
 2378SOL     hw 9510   3.883   5.426   3.421  0.4101  0.1787  0.4722
 2378SOL     hw 9511   3.813   5.434   3.555 -1.3307  1.6898 -0.4831
 2378SOL     vw 9512   3.880   5.456   3.502  0.0571  0.0825  0.4928
 2379SOL     ow 9513   3.306   4.173   5.163 -0.4708 -0.1352 -0.1249
 2379SOL     hw 9514   3.321   4.084   5.196  1.0566  0.1384 -0.0250
 2379SOL     hw 9515   3.275   4.222   5.239 -1.5097 -0.6063 -0.2233
 2379SOL     vw 9516   3.304   4.167   5.177 -0.4063 -0.1614 -0.1247
 2380SOL     ow 9517   3.398   5.354   5.244  0.2086  0.1300  0.9325
 2380SOL     hw 9518   3.394   5.447   5.222  0.2662 -0.0919 -0.1016
 2380SOL     hw 9519   3.307   5.326   5.248  0.2010 -0.0227  0.0053
 2380SOL     vw 9520   3.386   5.362   5.242  0.2151  0.0803  0.6735
 2381SOL     ow 9521   5.007   7.116   2.240  0.1129  0.2068  0.5433
 2381SOL     hw 9522   5.073   7.184   2.251 -0.3017  0.8996 -1.0795
 2381SOL     hw 9523   4.923   7.160   2.256 -0.2478  0.4160 -1.6308
 2381SOL     vw 9524   5.004   7.130   2.244  0.0107  0.3257  0.0424
 2382SOL     ow 9525   4.534   7.346   6.606  0.7591  0.2791 -0.0721
 2382SOL     hw 9526   4.565   7.429   6.643  3.5329 -0.4336 -0.5326
 2382SOL     hw 9527   4.515   7.367   6.515 -0.2132  0.7356  0.2176
 2382SOL     vw 9528   4.536   7.360   6.599  0.9968  0.2453 -0.0949
 2383SOL     ow 9529   2.324   6.984   7.187 -0.6337 -0.0570  0.0901
 2383SOL     hw 9530   2.373   7.036   7.251 -1.0262 -0.0240  0.3654
 2383SOL     hw 9531   2.299   6.905   7.234  0.0640 -0.5634 -0.3633
 2383SOL     vw 9532   2.327   6.980   7.201 -0.5934 -0.1194  0.0668
 2384SOL     ow 9533   2.908   5.559   0.242  0.3083 -0.2775 -0.3849
 2384SOL     hw 9534   2.986   5.609   0.217 -0.4505  2.8168  2.6989
 2384SOL     hw 9535   2.941   5.492   0.302  0.8584 -1.0639 -1.5083
 2384SOL     vw 9536   2.923   5.557   0.246  0.2809  0.0272 -0.1262
 2385SOL     ow 9537   0.540   1.496   2.372 -0.0852  0.0099  0.0558
 2385SOL     hw 9538   0.582   1.489   2.458  0.5444  0.8047 -0.1709
 2385SOL     hw 9539   0.455   1.454   2.383 -0.7444  1.6373  1.5544
 2385SOL     vw 9540   0.535   1.490   2.385 -0.0891  0.3296  0.2236
 2386SOL     ow 9541   2.775   0.575   3.141 -0.3803 -0.0648 -0.1614
 2386SOL     hw 9542   2.807   0.533   3.222 -0.3698 -2.0675 -1.1430
 2386SOL     hw 9543   2.766   0.667   3.164  0.4185 -0.4408  1.8891
 2386SOL     vw 9544   2.778   0.581   3.155 -0.2735 -0.3786 -0.0205
 2387SOL     ow 9545   6.447   1.395   3.685 -0.6137  0.1227 -0.0318
 2387SOL     hw 9546   6.516   1.339   3.650  0.6301 -0.4890  3.0788
 2387SOL     hw 9547   6.445   1.470   3.626 -1.9165 -2.6923 -4.0323
 2387SOL     vw 9548   6.456   1.397   3.673 -0.6213 -0.3294 -0.1490
 2388SOL     ow 9549   0.463   3.599   4.706 -0.1714  0.9259  0.2759
 2388SOL     hw 9550   0.482   3.685   4.670 -0.4288  1.5759  1.6166
 2388SOL     hw 9551   0.460   3.541   4.630 -0.0311  2.0978 -0.6542
 2388SOL     vw 9552   0.465   3.603   4.691 -0.1868  1.1663  0.3300
 2389SOL     ow 9553   0.527   3.424   2.347  0.2203 -0.4166 -0.6653
 2389SOL     hw 9554   0.549   3.371   2.424  0.8900  0.9521  0.1279
 2389SOL     hw 9555   0.540   3.365   2.273 -3.0095 -2.6332  0.3214
 2389SOL     vw 9556   0.532   3.409   2.347 -0.1174 -0.5285 -0.4305
 2390SOL     ow 9557   2.890   6.144   7.115 -0.1102 -0.1653  0.4291
 2390SOL     hw 9558   2.938   6.176   7.038 -1.7585  0.7241 -0.2823
 2390SOL     hw 9559   2.886   6.220   7.174 -0.8708 -0.1340  0.3479
 2390SOL     vw 9560   2.896   6.158   7.113 -0.4281 -0.0434  0.3245
 2391SOL     ow 9561   6.147   5.287   6.627  0.1888 -0.2632  0.2567
 2391SOL     hw 9562   6.184   5.223   6.688 -0.8828 -1.1560  0.0025
 2391SOL     hw 9563   6.202   5.364   6.638  1.3905 -1.1445  0.7278
 2391SOL     vw 9564   6.159   5.288   6.637  0.2058 -0.4971  0.2856
 2392SOL     ow 9565   5.240   2.687   6.864  0.1146  0.4882  0.0011
 2392SOL     hw 9566   5.228   2.595   6.886  0.8337  0.1707 -0.8685
 2392SOL     hw 9567   5.329   2.692   6.830  0.3886  1.6626  0.8123
 2392SOL     vw 9568   5.250   2.676   6.863  0.2456  0.6013 -0.0067
 2393SOL     ow 9569   7.304   2.418   0.125 -0.6194  0.6263  0.0614
 2393SOL     hw 9570   7.368   2.487   0.145 -0.5197  1.1074 -1.7610
 2393SOL     hw 9571   7.354   2.337   0.131 -0.7503  0.6642  2.2804
 2393SOL     vw 9572   7.319   2.417   0.128 -0.6237  0.6948  0.1137
 2394SOL     ow 9573   2.449   5.657   3.172 -0.3609  0.4357  0.0950
 2394SOL     hw 9574   2.541   5.648   3.196 -0.5322 -1.9071  0.0900
 2394SOL     hw 9575   2.401   5.628   3.249 -1.0378 -0.4655 -0.6388
 2394SOL     vw 9576   2.455   5.652   3.185 -0.4729  0.0079 -0.0025
 2395SOL     ow 9577   4.868   2.060   3.266 -0.2986 -0.3338 -0.5338
 2395SOL     hw 9578   4.912   2.014   3.337 -0.0616  1.7053  0.7478
 2395SOL     hw 9579   4.775   2.040   3.278 -0.3332  0.5153  0.8225
 2395SOL     vw 9580   4.862   2.051   3.277 -0.2723  0.0472 -0.1858
 2396SOL     ow 9581   2.317   0.333   2.202  0.7039 -0.3161  0.7238
 2396SOL     hw 9582   2.405   0.310   2.172  0.0945 -0.5166 -1.0232
 2396SOL     hw 9583   2.265   0.254   2.189  0.1812 -0.1197  1.4954
 2396SOL     vw 9584   2.322   0.320   2.197  0.5547 -0.3166  0.5951
 2397SOL     ow 9585   0.312   4.620   4.668 -0.7806 -0.3361  0.1591
 2397SOL     hw 9586   0.398   4.656   4.646 -2.2358  2.0973 -2.2510
 2397SOL     hw 9587   0.280   4.676   4.739  0.6525 -3.1481  3.3186
 2397SOL     vw 9588   0.319   4.632   4.675 -0.7835 -0.3860  0.2580
 2398SOL     ow 9589   6.968   1.376   4.487 -0.4143 -0.0134 -0.2415
 2398SOL     hw 9590   6.928   1.300   4.529  1.5354 -2.1340 -1.9750
 2398SOL     hw 9591   6.923   1.384   4.403  0.7583 -0.6021 -0.9506
 2398SOL     vw 9592   6.957   1.367   4.482 -0.0021 -0.3708 -0.5641
 2399SOL     ow 9593   6.290   7.258   5.847 -0.2162  0.6242 -0.3184
 2399SOL     hw 9594   6.374   7.232   5.884 -0.6276  1.2493  1.1188
 2399SOL     hw 9595   6.235   7.276   5.923 -1.3948  1.0353 -1.2412
 2399SOL     vw 9596   6.294   7.257   5.862 -0.4263  0.7608 -0.2506
 2400SOL     ow 9597   7.004   0.863   3.399 -0.0957  0.0234  0.0711
 2400SOL     hw 9598   7.033   0.898   3.483 -1.0941  0.8090  0.0953
 2400SOL     hw 9599   6.924   0.911   3.378 -0.1900 -0.5776 -1.0465
 2400SOL     vw 9600   6.997   0.874   3.407 -0.2398  0.0477 -0.0732
 2401SOL     ow 9601   3.644   5.609   0.957  0.1285  0.6024 -0.3636
 2401SOL     hw 9602   3.632   5.530   1.010  0.5119 -0.3495 -1.6355
 2401SOL     hw 9603   3.709   5.660   1.005  2.6697 -1.5672 -1.2529
 2401SOL     vw 9604   3.651   5.605   0.971  0.5144  0.1907 -0.6487
 2402SOL     ow 9605   6.057   5.671   3.753 -0.1929 -0.7684  0.3018
 2402SOL     hw 9606   6.058   5.677   3.849 -1.4959 -0.6555  0.3204
 2402SOL     hw 9607   6.149   5.681   3.728  0.2580 -1.4753  1.5733
 2402SOL     vw 9608   6.069   5.673   3.763 -0.3052 -0.8464  0.4721
 2403SOL     ow 9609   1.715   7.264   2.938  0.3798  0.1098  0.2907
 2403SOL     hw 9610   1.739   7.301   2.854  0.3391  1.6915  0.9455
 2403SOL     hw 9611   1.645   7.202   2.919 -0.4127  1.2862 -0.7117
 2403SOL     vw 9612   1.709   7.261   2.925  0.2698  0.4737  0.2449
 2404SOL     ow 9613   3.107   6.760   0.953 -0.1444 -0.7936 -0.1429
 2404SOL     hw 9614   3.032   6.700   0.952  0.0005 -1.0388  1.2697
 2404SOL     hw 9615   3.147   6.749   0.867 -1.2558 -1.2660 -0.6216
 2404SOL     vw 9616   3.102   6.750   0.942 -0.2719 -0.8881 -0.0196
 2405SOL     ow 9617   1.723   2.748   5.222  0.4474 -0.4581 -0.2475
 2405SOL     hw 9618   1.684   2.821   5.173 -0.3753 -2.4729 -2.8796
 2405SOL     hw 9619   1.666   2.737   5.298  0.4689  1.4454  0.0920
 2405SOL     vw 9620   1.710   2.756   5.225  0.3417 -0.4729 -0.5498
 2406SOL     ow 9621   3.243   5.297   2.344  0.4186 -0.3335  0.4196
 2406SOL     hw 9622   3.320   5.351   2.362 -0.1012  0.5053  0.2070
 2406SOL     hw 9623   3.206   5.333   2.264 -0.3627 -0.5290  0.6774
 2406SOL     vw 9624   3.248   5.309   2.336  0.2470 -0.2487  0.4256
 2407SOL     ow 9625   5.383   7.039   0.563 -0.3095  0.1560  0.2317
 2407SOL     hw 9626   5.344   7.046   0.650 -0.9235  2.7102 -0.1703
 2407SOL     hw 9627   5.376   6.946   0.541  0.2877 -0.6518  3.0462
 2407SOL     vw 9628   5.377   7.027   0.571 -0.3119  0.3865  0.5500
 2408SOL     ow 9629   6.159   4.205   3.137  0.1452 -0.3041 -0.1167
 2408SOL     hw 9630   6.081   4.250   3.103 -0.6041 -1.8758 -0.6033
 2408SOL     hw 9631   6.164   4.232   3.229  0.2483  1.4079 -0.5821
 2408SOL     vw 9632   6.149   4.215   3.145  0.0598 -0.2859 -0.2424
 2409SOL     ow 9633   4.929   4.127   2.956  0.2375  1.1853  0.0813
 2409SOL     hw 9634   4.972   4.090   3.032  0.2297  0.8513 -0.0728
 2409SOL     hw 9635   4.999   4.169   2.906  0.5440 -0.0827 -0.5987
 2409SOL     vw 9636   4.944   4.127   2.959  0.2773  0.9739 -0.0287
 2410SOL     ow 9637   4.304   3.147   0.314 -0.1200 -0.0249 -0.7597
 2410SOL     hw 9638   4.335   3.122   0.401  0.3747  0.3168 -0.8350
 2410SOL     hw 9639   4.365   3.214   0.285 -2.4326  2.7304  0.2088
 2410SOL     vw 9640   4.316   3.153   0.322 -0.3598  0.3839 -0.6419
 2411SOL     ow 9641   2.395   3.432   4.954  0.4104  0.2831  0.2753
 2411SOL     hw 9642   2.341   3.406   5.028  2.0862  1.5440  2.0102
 2411SOL     hw 9643   2.453   3.499   4.988  1.0988  1.0867 -2.2545
 2411SOL     vw 9644   2.396   3.437   4.968  0.7223  0.5554  0.1705
 2412SOL     ow 9645   4.613   0.967   4.356 -0.3544 -0.4655 -0.0414
 2412SOL     hw 9646   4.657   1.004   4.433 -0.8407 -0.9608  0.4837
 2412SOL     hw 9647   4.557   0.898   4.391 -2.7063  1.1147 -0.4908
 2412SOL     vw 9648   4.611   0.963   4.371 -0.7291 -0.3224 -0.0315
 2413SOL     ow 9649   7.281   1.380   3.402  0.1823 -0.8437  0.0286
 2413SOL     hw 9650   7.293   1.457   3.457  0.0080 -0.2684 -0.7134
 2413SOL     hw 9651   7.197   1.394   3.359 -0.3861 -2.0036  0.7375
 2413SOL     vw 9652   7.272   1.392   3.403  0.0844 -0.9208  0.0241
 2414SOL     ow 9653   4.062   6.635   6.965  0.4341  0.4570 -0.4680
 2414SOL     hw 9654   4.042   6.561   7.021 -0.3958  1.2324  0.2993
 2414SOL     hw 9655   3.991   6.637   6.901 -0.0107  1.0809  0.0353
 2414SOL     vw 9656   4.050   6.626   6.964  0.2658  0.6418 -0.3004
 2415SOL     ow 9657   1.740   6.848   3.171 -0.0778 -1.1821 -0.3788
 2415SOL     hw 9658   1.715   6.910   3.102  1.6600 -0.8859 -0.7867
 2415SOL     hw 9659   1.801   6.897   3.227 -3.5072 -0.4593  3.1426
 2415SOL     vw 9660   1.745   6.863   3.169 -0.3010 -1.0476  0.0319
 2416SOL     ow 9661   4.396   3.547   5.689 -0.7797 -0.1579  0.0300
 2416SOL     hw 9662   4.438   3.622   5.731  0.0970 -0.1331 -0.8642
 2416SOL     hw 9663   4.419   3.472   5.745  4.1671 -0.9409 -2.5031
 2416SOL     vw 9664   4.405   3.547   5.702 -0.0112 -0.2581 -0.4222
 2417SOL     ow 9665   1.464   1.302   3.103 -0.1626 -0.6991 -0.0265
 2417SOL     hw 9666   1.484   1.354   3.181 -2.5135  4.1498 -2.2277
 2417SOL     hw 9667   1.400   1.237   3.133  1.5695 -1.3823  2.5590
 2417SOL     vw 9668   1.458   1.300   3.117 -0.2443 -0.1494  0.0242
 2418SOL     ow 9669   6.948   2.108   2.947  0.4853 -0.3702  0.0112
 2418SOL     hw 9670   7.041   2.100   2.970  1.5162  1.0363 -3.1737
 2418SOL     hw 9671   6.941   2.071   2.859 -1.5270  1.4721 -0.6943
 2418SOL     vw 9672   6.959   2.102   2.939  0.3557  0.0585 -0.5022
 2419SOL     ow 9673   0.076   0.904   6.304  0.5586  0.1885  0.1929
 2419SOL     hw 9674   0.134   0.941   6.238  2.9879 -3.1560  0.2065
 2419SOL     hw 9675   0.063   0.814   6.276 -2.9634  0.1753  1.4206
 2419SOL     vw 9676   0.082   0.897   6.292  0.4144 -0.2545  0.3567
 2420SOL     ow 9677   0.429   0.916   3.719 -0.9378 -0.6436  1.1263
 2420SOL     hw 9678   0.404   0.826   3.700  1.7502 -1.1216 -0.8210
 2420SOL     hw 9679   0.458   0.915   3.810 -0.0838 -2.0004  0.8597
 2420SOL     vw 9680   0.429   0.904   3.728 -0.4705 -0.8856  0.8341
 2421SOL     ow 9681   3.841   4.572   2.790 -0.4062  0.5375  0.0250
 2421SOL     hw 9682   3.881   4.486   2.795  0.4403  0.9135  0.0251
 2421SOL     hw 9683   3.909   4.627   2.751 -0.0483  1.6990  2.1066
 2421SOL     vw 9684   3.856   4.568   2.786 -0.2472  0.7403  0.2996
 2422SOL     ow 9685   0.760   6.505   5.939 -0.1858 -0.3183 -0.6461
 2422SOL     hw 9686   0.730   6.561   6.011  1.7504 -0.0589 -0.0023
 2422SOL     hw 9687   0.719   6.543   5.861 -2.7822 -0.9400  0.3108
 2422SOL     vw 9688   0.750   6.518   5.938 -0.2729 -0.3662 -0.4351
 2423SOL     ow 9689   2.611   5.731   5.902  0.8011  0.7212  0.2027
 2423SOL     hw 9690   2.587   5.701   5.990 -0.9866 -4.2943 -1.6501
 2423SOL     hw 9691   2.528   5.749   5.859  0.8125 -3.7027 -2.2662
 2423SOL     vw 9692   2.597   5.729   5.908  0.5668 -0.5243 -0.3676
 2424SOL     ow 9693   2.716   2.259   2.226 -0.7090 -0.4424 -0.5918
 2424SOL     hw 9694   2.776   2.245   2.299 -0.7861  0.0178 -0.4383
 2424SOL     hw 9695   2.769   2.303   2.159 -0.8423 -0.1382 -0.4997
 2424SOL     vw 9696   2.731   2.263   2.227 -0.7366 -0.3414 -0.5594
 2425SOL     ow 9697   6.153   4.528   3.351 -0.4941  0.1324  0.0230
 2425SOL     hw 9698   6.225   4.490   3.401  0.5394  1.8432 -0.0876
 2425SOL     hw 9699   6.077   4.524   3.410  0.6497  1.9515  1.7103
 2425SOL     vw 9700   6.152   4.523   3.365 -0.2067  0.5982  0.2311
 2426SOL     ow 9701   1.242   3.279   0.512 -0.3161  0.7040  0.4234
 2426SOL     hw 9702   1.179   3.298   0.442  0.8039  0.8473 -0.5939
 2426SOL     hw 9703   1.193   3.290   0.593 -2.2363 -1.4449 -0.3348
 2426SOL     vw 9704   1.227   3.283   0.513 -0.4216  0.4395  0.1892
 2427SOL     ow 9705   2.577   5.783   6.185 -0.6358 -0.2570 -0.6738
 2427SOL     hw 9706   2.658   5.732   6.194 -0.4453  0.1856  0.1780
 2427SOL     hw 9707   2.524   5.757   6.260 -1.2940 -0.5453 -1.2305
 2427SOL     vw 9708   2.581   5.773   6.196 -0.6974 -0.2365 -0.6347
 2428SOL     ow 9709   4.940   3.342   4.527 -0.2249  0.0146  0.0159
 2428SOL     hw 9710   4.928   3.355   4.433 -0.6472  1.4480  0.2544
 2428SOL     hw 9711   4.860   3.297   4.555  0.5234 -1.7710 -0.5209
 2428SOL     vw 9712   4.928   3.338   4.518 -0.1819 -0.0318 -0.0234
 2429SOL     ow 9713   6.437   1.822   6.274  0.0045 -0.5834  0.5292
 2429SOL     hw 9714   6.416   1.750   6.214 -1.6595  0.8421 -0.6842
 2429SOL     hw 9715   6.487   1.884   6.221 -0.3430  0.0859  0.9691
 2429SOL     vw 9716   6.440   1.820   6.259 -0.2611 -0.3070  0.4270
 2430SOL     ow 9717   3.556   5.460   6.878  0.2622  0.6527  0.3889
 2430SOL     hw 9718   3.593   5.543   6.906  1.4314 -0.3134  1.8877
 2430SOL     hw 9719   3.544   5.469   6.783 -0.5466  2.8313  0.6606
 2430SOL     vw 9720   3.559   5.472   6.869  0.3098  0.8128  0.6225
 2431SOL     ow 9721   1.269   4.990   3.978  0.0342 -0.7132 -0.2323
 2431SOL     hw 9722   1.186   4.943   3.969  0.3531 -1.4595  0.5762
 2431SOL     hw 9723   1.247   5.067   4.030  0.3040 -2.3396  2.4907
 2431SOL     vw 9724   1.255   4.994   3.983  0.1118 -1.0264  0.2337
 2432SOL     ow 9725   3.001   3.615   2.572  0.2180  0.1099  0.4090
 2432SOL     hw 9726   3.009   3.528   2.613 -1.3103  1.3908  3.8193
 2432SOL     hw 9727   2.912   3.617   2.537  1.1350 -0.5471 -2.1615
 2432SOL     vw 9728   2.991   3.604   2.573  0.1373  0.1922  0.5198
 2433SOL     ow 9729   3.929   2.040   2.867  0.1079  0.2278 -0.0408
 2433SOL     hw 9730   3.937   1.965   2.926  2.1606  0.7213  0.3806
 2433SOL     hw 9731   3.902   2.002   2.784  1.3119 -1.0128  0.1116
 2433SOL     vw 9732   3.926   2.025   2.864  0.5376  0.1293  0.0348
 2434SOL     ow 9733   0.878   3.524   5.064  0.7951  0.2732  0.2941
 2434SOL     hw 9734   0.828   3.542   4.984 -0.2627 -0.9542  0.6351
 2434SOL     hw 9735   0.895   3.430   5.060  0.5650  0.1629  1.5933
 2434SOL     vw 9736   0.873   3.514   5.053  0.6252  0.0967  0.5102
 2435SOL     ow 9737   2.711   0.081   3.132 -0.1698 -0.3559  0.0754
 2435SOL     hw 9738   2.667   0.166   3.126 -0.8142 -0.5785  1.3409
 2435SOL     hw 9739   2.797   0.101   3.169 -0.0195 -0.1761 -0.3588
 2435SOL     vw 9740   2.716   0.095   3.136 -0.2350 -0.3615  0.1851
 2436SOL     ow 9741   7.128   4.122   6.393  0.2193 -0.1160 -0.6448
 2436SOL     hw 9742   7.192   4.103   6.325  2.3092 -3.4403  1.9314
 2436SOL     hw 9743   7.080   4.040   6.404 -0.0569  0.2908  1.8010
 2436SOL     vw 9744   7.130   4.108   6.385  0.4587 -0.5009  0.0181
 2437SOL     ow 9745   4.333   0.864   4.458 -0.4968  0.5140 -0.0188
 2437SOL     hw 9746   4.307   0.834   4.545 -1.6410  2.6515  0.4470
 2437SOL     hw 9747   4.320   0.788   4.402 -2.3356 -0.1567  1.2188
 2437SOL     vw 9748   4.328   0.850   4.462 -0.8905  0.7075  0.2060
 2438SOL     ow 9749   2.104   6.009   4.039 -0.3207  0.9669  0.5038
 2438SOL     hw 9750   2.046   6.016   3.963 -1.0101  1.4595  1.0548
 2438SOL     hw 9751   2.191   6.028   4.005 -0.4287 -0.0497 -0.3911
 2438SOL     vw 9752   2.108   6.013   4.024 -0.4259  0.8979  0.4585
 2439SOL     ow 9753   3.591   4.405   6.051 -0.7784 -0.0711  0.0779
 2439SOL     hw 9754   3.571   4.498   6.062  2.0892  0.9028 -1.6330
 2439SOL     hw 9755   3.534   4.377   5.980 -0.8583  0.7327 -0.1875
 2439SOL     vw 9756   3.581   4.414   6.043 -0.4107  0.1636 -0.1829
 2440SOL     ow 9757   3.684   1.248   4.758 -0.0592  0.6998  0.2494
 2440SOL     hw 9758   3.724   1.250   4.845  0.2839 -1.5310  0.1887
 2440SOL     hw 9759   3.621   1.176   4.762  1.0663 -0.4896 -1.7715
 2440SOL     vw 9760   3.681   1.239   4.770  0.1346  0.2486 -0.0253
 2441SOL     ow 9761   2.483   5.132   1.396 -0.5296 -0.2369  1.0501
 2441SOL     hw 9762   2.415   5.070   1.371 -0.7053  0.1896  0.4455
 2441SOL     hw 9763   2.462   5.212   1.347  1.5693 -0.7309 -0.8751
 2441SOL     vw 9764   2.471   5.134   1.386 -0.2759 -0.2458  0.7163
 2442SOL     ow 9765   0.822   2.552   2.370 -0.3818 -0.0538 -0.0467
 2442SOL     hw 9766   0.871   2.567   2.290 -0.6056 -3.2805 -0.9303
 2442SOL     hw 9767   0.838   2.630   2.423  2.6109  0.6721 -1.7805
 2442SOL     vw 9768   0.830   2.564   2.367 -0.0165 -0.3837 -0.3920
 2443SOL     ow 9769   3.387   6.682   1.105 -0.0081 -0.0765  0.4658
 2443SOL     hw 9770   3.320   6.627   1.144  0.8012 -2.4831 -1.2696
 2443SOL     hw 9771   3.456   6.687   1.171 -0.4167 -0.5581  0.9323
 2443SOL     vw 9772   3.387   6.676   1.119  0.0447 -0.4575  0.2984
 2444SOL     ow 9773   5.286   0.665   5.862  0.1660  0.0899 -0.2472
 2444SOL     hw 9774   5.217   0.645   5.798 -1.0470  1.3936  0.5851
 2444SOL     hw 9775   5.244   0.649   5.947  1.1706  0.1208  0.2707
 2444SOL     vw 9776   5.271   0.660   5.865  0.1388  0.2659 -0.0691
 2445SOL     ow 9777   4.771   2.310   0.174  0.6405  0.3740 -0.3632
 2445SOL     hw 9778   4.721   2.267   0.104 -1.7336  0.4063  1.1754
 2445SOL     hw 9779   4.751   2.404   0.163 -0.1686  0.3353  0.5893
 2445SOL     vw 9780   4.762   2.317   0.164  0.2203  0.3732 -0.0345
 2446SOL     ow 9781   1.529   0.098   0.221 -0.2940  0.2231 -0.1736
 2446SOL     hw 9782   1.489   0.072   0.138 -0.2039  3.7013 -1.4540
 2446SOL     hw 9783   1.463   0.151   0.264  0.2344 -0.2826  1.3073
 2446SOL     vw 9784   1.515   0.102   0.215 -0.2124  0.6153 -0.1471
 2447SOL     ow 9785   4.260   2.439   3.391  0.2534 -0.2107 -0.0886
 2447SOL     hw 9786   4.221   2.461   3.476  1.9393 -0.2031  0.7249
 2447SOL     hw 9787   4.349   2.473   3.396  0.5934 -0.7937 -1.6256
 2447SOL     vw 9788   4.267   2.446   3.403  0.5207 -0.2866 -0.1841
 2448SOL     ow 9789   4.271   0.522   0.046 -0.7250 -0.6921  0.7528
 2448SOL     hw 9790   4.312   0.438   0.022  1.7972  0.2610  1.3370
 2448SOL     hw 9791   4.289   0.530   0.140 -0.8773  0.5307  0.6879
 2448SOL     vw 9792   4.279   0.512   0.055 -0.4122 -0.4050  0.8214
 2449SOL     ow 9793   0.012   5.551   7.100  0.3891  0.2229  0.4083
 2449SOL     hw 9794   0.106   5.540   7.120  0.2142 -0.2445  1.0145
 2449SOL     hw 9795  -0.032   5.529   7.182 -0.3186 -0.6834 -0.1987
 2449SOL     vw 9796   0.019   5.547   7.114  0.2727  0.0417  0.4079
 2450SOL     ow 9797   5.903   4.839   1.397 -0.2598 -0.2169  0.4556
 2450SOL     hw 9798   5.963   4.856   1.469  0.1408 -2.1050  0.6171
 2450SOL     hw 9799   5.958   4.803   1.327 -1.0938 -1.6456  0.4861
 2450SOL     vw 9800   5.918   4.836   1.398 -0.3171 -0.6545  0.4808
 2451SOL     ow 9801   6.120   2.312   1.907 -0.0601 -0.5204  0.5923
 2451SOL     hw 9802   6.163   2.297   1.823  0.7127 -0.8984  1.0526
 2451SOL     hw 9803   6.172   2.381   1.949  0.8754 -1.8261  1.6752
 2451SOL     vw 9804   6.132   2.319   1.902  0.1655 -0.7426  0.7959
 2452SOL     ow 9805   6.954   4.882   0.156  0.4474  0.1008  0.2257
 2452SOL     hw 9806   6.970   4.799   0.110 -1.4467 -0.7421  0.9785
 2452SOL     hw 9807   6.930   4.943   0.087  0.2520 -0.4223 -0.1763
 2452SOL     vw 9808   6.953   4.879   0.141  0.1717 -0.0796  0.2719
 2453SOL     ow 9809   5.874   3.133   7.321  0.1766  0.3070 -0.0869
 2453SOL     hw 9810   5.918   3.217   7.330  1.2208 -0.3016  0.6226
 2453SOL     hw 9811   5.942   3.067   7.336 -0.6123 -0.6757 -0.6329
 2453SOL     vw 9812   5.889   3.135   7.324  0.2103  0.0970 -0.0653
 2454SOL     ow 9813   0.631   0.087   1.714  0.2796 -0.0678  0.1734
 2454SOL     hw 9814   0.653   0.007   1.762 -0.4096  0.4939  1.4799
 2454SOL     hw 9815   0.714   0.132   1.702  0.5604 -0.5862  0.1335
 2454SOL     vw 9816   0.645   0.082   1.719  0.2257 -0.0621  0.3404
 2455SOL     ow 9817   3.246   4.428   5.055 -0.2367  0.2388 -0.3911
 2455SOL     hw 9818   3.255   4.456   4.964 -1.6168  0.3050 -0.5342
 2455SOL     hw 9819   3.281   4.339   5.056  2.1030  1.1092 -0.4209
 2455SOL     vw 9820   3.252   4.420   5.043 -0.1101  0.3626 -0.4139
 2456SOL     ow 9821   1.805   0.023   0.115 -0.5217  0.3770 -0.4425
 2456SOL     hw 9822   1.900   0.022   0.125 -0.3730 -1.3035 -1.6385
 2456SOL     hw 9823   1.784   0.114   0.093  0.9341  0.5358 -1.2709
 2456SOL     vw 9824   1.815   0.035   0.114 -0.3100  0.1762 -0.7096
 2457SOL     ow 9825   2.516   6.870   5.524 -0.1983 -0.6100 -0.8751
 2457SOL     hw 9826   2.494   6.792   5.474 -1.8102  0.0401 -1.2698
 2457SOL     hw 9827   2.451   6.872   5.595  1.5414 -1.0805  0.8182
 2457SOL     vw 9828   2.504   6.860   5.527 -0.1816 -0.5863 -0.7036
 2458SOL     ow 9829   0.805   3.776   1.152  0.6341  0.3355  0.9488
 2458SOL     hw 9830   0.890   3.818   1.162  0.2671  0.7729  2.6051
 2458SOL     hw 9831   0.820   3.705   1.090  1.8979  1.2035  0.2293
 2458SOL     vw 9832   0.818   3.772   1.145  0.7524  0.5077  1.0724
 2459SOL     ow 9833   2.044   2.399   3.531 -0.0982  0.2464  0.3547
 2459SOL     hw 9834   2.040   2.442   3.617  3.0177  0.8363  0.3473
 2459SOL     hw 9835   2.039   2.471   3.468 -0.8930 -0.0320  0.0996
 2459SOL     vw 9836   2.043   2.415   3.534  0.2080  0.2875  0.3201
 2460SOL     ow 9837   4.257   3.763   5.572 -0.1926  0.2016 -0.7231
 2460SOL     hw 9838   4.189   3.807   5.623  0.4799 -0.1813  0.5498
 2460SOL     hw 9839   4.277   3.684   5.621  0.4451 -0.2197 -1.6253
 2460SOL     vw 9840   4.251   3.759   5.585 -0.0198  0.0955 -0.6740
 2461SOL     ow 9841   6.493   2.561   0.666  0.5663 -0.0619  0.0478
 2461SOL     hw 9842   6.552   2.594   0.734  1.9733  0.7053 -1.4835
 2461SOL     hw 9843   6.551   2.527   0.598 -0.8178 -1.5916 -0.4410
 2461SOL     vw 9844   6.509   2.561   0.666  0.5691 -0.1625 -0.2187
 2462SOL     ow 9845   0.996   0.985   5.049 -0.6343  0.2638  0.0347
 2462SOL     hw 9846   0.933   0.972   5.120 -0.1719  0.9586  0.5931
 2462SOL     hw 9847   0.997   1.080   5.036  1.3965  0.4440  1.0942
 2462SOL     vw 9848   0.988   0.996   5.057 -0.3054  0.3792  0.2484
 2463SOL     ow 9849   5.570   6.961   7.154  0.9209  0.1727  0.3131
 2463SOL     hw 9850   5.560   6.917   7.070  1.8651  0.6491 -0.0631
 2463SOL     hw 9851   5.516   6.910   7.215  2.5350 -1.9961  0.0541
 2463SOL     vw 9852   5.561   6.948   7.151  1.2586 -0.0505  0.2294
 2464SOL     ow 9853   2.067   0.644   5.762 -0.3833  0.3832 -0.0444
 2464SOL     hw 9854   2.015   0.723   5.776  0.1237  0.5445  1.0923
 2464SOL     hw 9855   2.157   0.675   5.759 -0.3541  0.2256 -2.9577
 2464SOL     vw 9856   2.072   0.658   5.764 -0.3127  0.3836 -0.2789
 2465SOL     ow 9857   0.349   1.018   3.429 -0.6744 -0.1473 -0.0390
 2465SOL     hw 9858   0.437   1.018   3.466 -0.2804 -1.6244 -0.8654
 2465SOL     hw 9859   0.363   1.024   3.334 -1.3354 -2.0706 -0.3053
 2465SOL     vw 9860   0.362   1.019   3.421 -0.7096 -0.5960 -0.1830
 2466SOL     ow 9861   4.084   5.583   1.484 -0.6178  0.0078 -0.1410
 2466SOL     hw 9862   4.138   5.584   1.563 -0.4404 -1.3954 -0.2183
 2466SOL     hw 9863   4.137   5.624   1.417 -0.6045  0.8271  0.3501
 2466SOL     vw 9864   4.098   5.589   1.486 -0.5927 -0.0691 -0.0864
 2467SOL     ow 9865   1.646   7.320   3.361  0.1617  0.3555 -0.0538
 2467SOL     hw 9866   1.599   7.348   3.283 -0.7488 -2.0020 -0.4444
 2467SOL     hw 9867   1.638   7.394   3.421 -1.8702  1.0468 -1.0539
 2467SOL     vw 9868   1.638   7.333   3.359 -0.2265  0.1352 -0.2373
 2468SOL     ow 9869   2.943   4.127   2.423 -0.6839  0.5448 -0.2970
 2468SOL     hw 9870   2.992   4.171   2.494  2.1789 -1.0296 -1.1430
 2468SOL     hw 9871   2.916   4.044   2.461  1.3040 -0.5309 -1.0681
 2468SOL     vw 9872   2.946   4.122   2.438 -0.0439  0.1953 -0.5105
 2469SOL     ow 9873   3.330   3.742   0.304  0.0061 -0.7582  0.6995
 2469SOL     hw 9874   3.390   3.672   0.328  0.7658 -0.8343 -1.2493
 2469SOL     hw 9875   3.364   3.819   0.348  0.2185 -1.2483  1.4067
 2469SOL     vw 9876   3.343   3.743   0.313  0.1343 -0.8330  0.5357
 2470SOL     ow 9877   0.333   5.910   5.084  0.2647  0.3142 -0.0012
 2470SOL     hw 9878   0.347   5.878   5.174 -0.2984  0.6748  0.2175
 2470SOL     hw 9879   0.379   5.994   5.082 -0.0942  0.5112  0.0802
 2470SOL     vw 9880   0.341   5.917   5.096  0.1431  0.3877  0.0384
 2471SOL     ow 9881   3.591   5.434   2.892  0.4447 -0.6360 -0.0561
 2471SOL     hw 9882   3.659   5.404   2.953 -0.4886 -0.2307  1.2266
 2471SOL     hw 9883   3.635   5.500   2.837  1.4534 -1.4358 -0.2422
 2471SOL     vw 9884   3.606   5.439   2.893  0.4548 -0.6881  0.0886
 2472SOL     ow 9885   3.047   5.829   0.543 -0.6458 -0.5320 -0.0503
 2472SOL     hw 9886   3.122   5.770   0.544  0.9721  1.4206  1.1049
 2472SOL     hw 9887   2.989   5.796   0.611 -0.6842 -1.8310 -0.6850
 2472SOL     vw 9888   3.049   5.817   0.552 -0.4373 -0.4456  0.0184
 2473SOL     ow 9889   5.064   4.080   1.869  0.6985 -0.7965 -0.0024
 2473SOL     hw 9890   5.037   4.061   1.959 -1.4801  0.0192 -0.3983
 2473SOL     hw 9891   5.015   4.018   1.815 -0.0421  0.3842 -0.7513
 2473SOL     vw 9892   5.054   4.070   1.873  0.3133 -0.5333 -0.1534
 2474SOL     ow 9893   1.112   4.699   5.153 -0.5185 -0.5883 -0.2333
 2474SOL     hw 9894   1.135   4.683   5.244  1.7548 -1.0387 -0.8172
 2474SOL     hw 9895   1.020   4.676   5.147 -0.6144 -0.9681  1.8454
 2474SOL     vw 9896   1.103   4.694   5.164 -0.2311 -0.6979 -0.0362
 2475SOL     ow 9897   7.174   4.981   7.186  0.2923  0.1004  0.1996
 2475SOL     hw 9898   7.100   4.921   7.191  1.4642 -1.2734  2.2883
 2475SOL     hw 9899   7.156   5.047   7.253 -0.0605  1.0487 -0.7917
 2475SOL     vw 9900   7.162   4.982   7.195  0.4003  0.0443  0.3443
 2476SOL     ow 9901   2.735   4.931   4.591  0.7250  0.3850  0.1635
 2476SOL     hw 9902   2.734   4.839   4.616  4.2214  0.6382  1.7517
 2476SOL     hw 9903   2.642   4.956   4.588 -0.3900 -3.2864 -1.0740
 2476SOL     vw 9904   2.722   4.922   4.594  1.0390 -0.0658  0.2098
 2477SOL     ow 9905   6.053   3.876   5.810  0.0688  0.3048  0.0730
 2477SOL     hw 9906   5.980   3.866   5.749  2.0788  0.8609 -2.6537
 2477SOL     hw 9907   6.052   3.796   5.862 -1.2623 -0.6273 -1.2976
 2477SOL     vw 9908   6.044   3.864   5.808  0.1585  0.2552 -0.4678
 2478SOL     ow 9909   4.677   4.202   5.245 -0.0990 -0.5920 -0.2786
 2478SOL     hw 9910   4.740   4.194   5.173  0.2886  1.3006 -0.1912
 2478SOL     hw 9911   4.606   4.255   5.209 -0.4498 -0.5932  0.3966
 2478SOL     vw 9912   4.676   4.208   5.231 -0.0942 -0.3426 -0.1779
 2479SOL     ow 9913   7.068   4.804   0.456 -0.5703 -0.2409 -0.0024
 2479SOL     hw 9914   7.108   4.842   0.535  1.3732  1.9848 -1.9118
 2479SOL     hw 9915   7.131   4.739   0.426 -0.7865 -0.2978 -0.3320
 2479SOL     vw 9916   7.081   4.801   0.463 -0.3426  0.0453 -0.2978
 2480SOL     ow 9917   3.665   0.585   0.100  0.1012 -0.6154  0.0300
 2480SOL     hw 9918   3.673   0.632   0.184  0.8149 -2.1069  0.8333
 2480SOL     hw 9919   3.571   0.585   0.082 -0.0153  0.1493  0.5639
 2480SOL     vw 9920   3.653   0.591   0.109  0.1800 -0.7113  0.2065
 2481SOL     ow 9921   2.354   1.208   7.186  0.5668 -0.1875  0.1884
 2481SOL     hw 9922   2.353   1.176   7.276  0.2521  0.5305  0.4483
 2481SOL     hw 9923   2.318   1.136   7.134 -0.5140 -0.1158  0.8110
 2481SOL     vw 9924   2.349   1.194   7.191  0.3827 -0.0833  0.3049
 2482SOL     ow 9925   7.341   3.131   4.447 -0.8509  0.3660 -0.2654
 2482SOL     hw 9926   7.431   3.154   4.422 -1.0350  0.7357 -0.5851
 2482SOL     hw 9927   7.293   3.128   4.365 -0.5213 -2.6512 -0.4442
 2482SOL     vw 9928   7.347   3.134   4.433 -0.8317  0.0168 -0.3312
 2483SOL     ow 9929   5.830   4.200   1.736 -0.4206  0.5083  0.4881
 2483SOL     hw 9930   5.744   4.167   1.707 -1.0085  1.8393  0.6734
 2483SOL     hw 9931   5.814   4.290   1.763  0.8544  0.4782  1.4611
 2483SOL     vw 9932   5.816   4.207   1.736 -0.3297  0.6800  0.6410
 2484SOL     ow 9933   4.480   5.266   1.121 -0.2598 -0.6956  0.1693
 2484SOL     hw 9934   4.491   5.299   1.032 -1.1075  0.8254  0.5837
 2484SOL     hw 9935   4.460   5.173   1.111 -0.4162 -0.5237 -1.2149
 2484SOL     vw 9936   4.479   5.258   1.108 -0.3924 -0.4723  0.0414
 2485SOL     ow 9937   2.901   3.575   6.165 -0.2400  0.5879 -0.1726
 2485SOL     hw 9938   2.968   3.511   6.140 -1.3717 -1.1777  1.0581
 2485SOL     hw 9939   2.833   3.523   6.209 -0.8202  2.7554  1.7120
 2485SOL     vw 9940   2.901   3.560   6.167 -0.4660  0.6410  0.2384
 2486SOL     ow 9941   5.729   5.251   3.571 -0.8352 -0.1258 -0.3284
 2486SOL     hw 9942   5.769   5.185   3.628 -0.3718 -0.3982 -0.9450
 2486SOL     hw 9943   5.685   5.199   3.503 -1.2079  0.1931 -0.3310
 2486SOL     vw 9944   5.729   5.235   3.569 -0.8233 -0.1197 -0.4101
 2487SOL     ow 9945   5.202   5.538   6.059  0.0363 -0.2671  0.0246
 2487SOL     hw 9946   5.141   5.600   6.018  0.2602  0.7507  1.1510
 2487SOL     hw 9947   5.153   5.456   6.066 -1.6843  0.8265  1.9356
 2487SOL     vw 9948   5.188   5.535   6.055 -0.1612  0.0117  0.4253
 2488SOL     ow 9949   6.889   2.883   6.749  0.1191  0.1046  0.0689
 2488SOL     hw 9950   6.933   2.885   6.663  1.4509 -2.2251  0.5973
 2488SOL     hw 9951   6.949   2.929   6.807 -0.6852  1.5005 -0.1786
 2488SOL     vw 9952   6.903   2.889   6.745  0.1888 -0.0185  0.1059
 2489SOL     ow 9953   6.565   5.593   2.641 -0.0453 -0.6978  0.1826
 2489SOL     hw 9954   6.569   5.583   2.736 -1.5970  0.7240  0.4475
 2489SOL     hw 9955   6.581   5.686   2.625 -2.7066 -0.2866 -0.6383
 2489SOL     vw 9956   6.567   5.604   2.651 -0.6015 -0.4556  0.1092
 2490SOL     ow 9957   3.400   5.295   2.659  0.6097 -0.6582 -0.1054
 2490SOL     hw 9958   3.475   5.267   2.710  0.6758  1.1109  0.8555
 2490SOL     hw 9959   3.425   5.381   2.624 -0.4776 -0.6015 -0.8214
 2490SOL     vw 9960   3.413   5.303   2.661  0.4749 -0.4172 -0.0732
 2491SOL     ow 9961   3.391   5.865   5.374  0.6496 -0.3938 -0.2248
 2491SOL     hw 9962   3.389   5.836   5.283  2.2367  1.8097 -1.0616
 2491SOL     hw 9963   3.374   5.959   5.370 -1.1102 -0.5394  1.9842
 2491SOL     vw 9964   3.389   5.874   5.362  0.6268 -0.1223 -0.0434
 2492SOL     ow 9965   4.609   6.901   1.819 -0.0240 -0.5218 -0.0287
 2492SOL     hw 9966   4.534   6.925   1.764  0.9719 -2.0955 -2.2581
 2492SOL     hw 9967   4.596   6.808   1.839  1.9229 -1.2419 -1.6892
 2492SOL     vw 9968   4.597   6.892   1.814  0.3643 -0.8245 -0.5419
 2493SOL     ow 9969   4.502   4.452   4.478  0.5100  0.4446 -0.1656
 2493SOL     hw 9970   4.501   4.357   4.481  0.8631  0.4642  0.8589
 2493SOL     hw 9971   4.589   4.477   4.507  0.0604  1.1054  0.6786
 2493SOL     vw 9972   4.513   4.443   4.482  0.4973  0.5341  0.0811
 2494SOL     ow 9973   6.808   2.328   3.176  0.0660  0.3979  0.7301
 2494SOL     hw 9974   6.793   2.239   3.206  1.3865 -0.0092  0.2729
 2494SOL     hw 9975   6.876   2.362   3.234  0.1515  0.8189  0.3906
 2494SOL     vw 9976   6.815   2.321   3.187  0.2513  0.3997  0.6249
 2495SOL     ow 9977   2.845   1.736   3.555 -0.5993 -0.1690  0.1339
 2495SOL     hw 9978   2.914   1.759   3.616 -0.3606  0.4767 -0.3612
 2495SOL     hw 9979   2.808   1.654   3.588  0.0339 -0.2235  0.7037
 2495SOL     vw 9980   2.849   1.728   3.567 -0.4843 -0.0910  0.1436
 2496SOL     ow 9981   0.549   5.915   0.438 -0.0779 -0.1331  0.0759
 2496SOL     hw 9982   0.563   6.010   0.440 -1.8523  0.1826 -0.2068
 2496SOL     hw 9983   0.523   5.893   0.527 -0.9875 -0.0908 -0.1639
 2496SOL     vw 9984   0.547   5.925   0.450 -0.4320 -0.0856  0.0070
 2497SOL     ow 9985   5.597   5.558   0.043 -0.4540 -0.5626  0.3579
 2497SOL     hw 9986   5.663   5.620   0.071 -0.3799 -0.0679 -0.8454
 2497SOL     hw 9987   5.515   5.607   0.046 -0.7239 -1.0631  1.4867
 2497SOL     vw 9988   5.595   5.572   0.047 -0.4797 -0.5634  0.3481
 2498SOL     ow 9989   4.573   6.029   0.341  0.0939 -0.4923  0.1163
 2498SOL     hw 9990   4.537   6.104   0.388  1.4016  1.1625 -1.3628
 2498SOL     hw 9991   4.664   6.053   0.325  0.1444 -1.7367 -1.7156
 2498SOL     vw 9992   4.580   6.042   0.345  0.2732 -0.4380 -0.3206
 2499SOL     ow 9993   2.712   2.016   5.535 -0.0837 -0.1652 -0.0674
 2499SOL     hw 9994   2.717   2.076   5.461  1.2889  0.3215  0.3796
 2499SOL     hw 9995   2.637   1.960   5.516 -2.2637  2.5077  0.1213
 2499SOL     vw 9996   2.703   2.017   5.523 -0.1903  0.2517  0.0167
 2500SOL     ow 9997   4.413   5.186   3.653  0.0276 -0.1271  1.0838
 2500SOL     hw 9998   4.409   5.246   3.727 -1.4572 -0.7522  1.5422
 2500SOL     hw 9999   4.507   5.170   3.640  0.3339 -1.7147  4.2667
 2500SOL     vw10000   4.425   5.192   3.661 -0.1278 -0.4189  1.5643
 2501SOL     ow10001   2.170   5.873   4.382  0.8961 -0.2758 -0.3610
 2501SOL     hw10002   2.186   5.788   4.340  0.8093 -0.2453 -0.4544
 2501SOL     hw10003   2.242   5.882   4.444  0.3116 -0.9312  0.4524
 2501SOL     vw10004   2.181   5.863   4.384  0.8074 -0.3581 -0.2658
 2502SOL     ow10005   0.607   0.554   5.313  1.0702  0.5344 -0.3907
 2502SOL     hw10006   0.552   0.514   5.381  0.5076  0.4871 -0.8632
 2502SOL     hw10007   0.681   0.494   5.304  0.7525  0.1319 -0.3607
 2502SOL     vw10008   0.610   0.541   5.321  0.9541  0.4750 -0.4492
 2503SOL     ow10009   0.786   2.618   5.384 -1.0211 -0.4993 -0.4052
 2503SOL     hw10010   0.862   2.676   5.391 -1.3832 -0.2012  2.3482
 2503SOL     hw10011   0.824   2.531   5.369 -0.2678 -0.0602 -1.1150
 2503SOL     vw10012   0.801   2.614   5.383 -0.9695 -0.4020 -0.1354
 2504SOL     ow10013   6.626   2.931   6.602  0.3981 -0.0514 -1.2196
 2504SOL     hw10014   6.655   2.854   6.553  0.5528  0.9284 -2.7505
 2504SOL     hw10015   6.569   2.977   6.541 -0.6020  0.4848  0.0790
 2504SOL     vw10016   6.622   2.927   6.587  0.2866  0.1488 -1.2505
 2505SOL     ow10017   7.039   7.231   2.544  0.3757 -1.1698  0.1992
 2505SOL     hw10018   7.100   7.302   2.564 -1.5537  0.3331  1.0132
 2505SOL     hw10019   7.036   7.179   2.624 -2.5724  1.2697  1.9080
 2505SOL     vw10020   7.047   7.234   2.557 -0.2675 -0.6497  0.5322
 2506SOL     ow10021   0.088   4.180   3.469 -0.1887  0.2867  0.0976
 2506SOL     hw10022   0.100   4.201   3.562  3.7145  0.1671 -0.2139
 2506SOL     hw10023   0.013   4.119   3.468 -0.9253  0.9845  3.0013
 2506SOL     vw10024   0.080   4.174   3.481  0.2291  0.3631  0.4396
 2507SOL     ow10025   4.726   6.460   5.094 -0.0429 -0.5803  0.0322
 2507SOL     hw10026   4.692   6.420   5.015 -2.3472  0.3551  0.4771
 2507SOL     hw10027   4.751   6.549   5.067 -0.8247 -0.2622  0.3260
 2507SOL     vw10028   4.725   6.467   5.080 -0.4501 -0.4146  0.1297
 2508SOL     ow10029   6.538   3.222   1.382 -0.1216 -0.0880 -0.3211
 2508SOL     hw10030   6.568   3.278   1.453 -0.0844  0.3077 -0.6424
 2508SOL     hw10031   6.502   3.283   1.317 -0.6256 -0.4779 -0.4160
 2508SOL     vw10032   6.538   3.237   1.382 -0.1831 -0.0873 -0.3760
 2509SOL     ow10033   1.420   5.658   6.275 -0.0262 -0.1647 -0.1781
 2509SOL     hw10034   1.385   5.671   6.363  0.2045 -3.2975  0.4773
 2509SOL     hw10035   1.369   5.585   6.239  2.7117 -1.8168 -0.9569
 2509SOL     vw10036   1.408   5.650   6.282  0.3654 -0.7961 -0.1943
 2510SOL     ow10037   6.094   2.128   0.370  0.4603 -0.6850 -0.2869
 2510SOL     hw10038   6.094   2.065   0.443  2.2532 -0.1863  0.2077
 2510SOL     hw10039   6.094   2.073   0.292 -0.8909 -1.2415  0.0764
 2510SOL     vw10040   6.094   2.112   0.370  0.5183 -0.6926 -0.1737
 2511SOL     ow10041   2.233   1.552   4.847  1.2547 -0.5344  0.6822
 2511SOL     hw10042   2.188   1.477   4.886  0.0187  0.1124  0.5301
 2511SOL     hw10043   2.288   1.513   4.779 -0.2407 -1.2331 -0.1868
 2511SOL     vw10044   2.235   1.537   4.843  0.8943 -0.5413  0.5474
 2512SOL     ow10045   6.177   5.611   5.306  1.0791  0.1105 -0.2058
 2512SOL     hw10046   6.111   5.663   5.259  3.0865  0.2100 -3.1454
 2512SOL     hw10047   6.158   5.520   5.281 -1.1363 -0.6114  3.2921
 2512SOL     vw10048   6.165   5.606   5.297  1.0517  0.0284 -0.1321
 2513SOL     ow10049   1.887   4.999   2.944  0.1807 -0.6999 -0.0724
 2513SOL     hw10050   1.979   5.021   2.956  0.5012 -2.3797  0.7554
 2513SOL     hw10051   1.847   5.016   3.029 -0.2929  0.0125 -0.4242
 2513SOL     vw10052   1.894   5.004   2.957  0.1605 -0.8273 -0.0095
 2514SOL     ow10053   2.054   2.291   0.188 -1.0918 -0.0844  0.0179
 2514SOL     hw10054   1.977   2.270   0.242 -2.1216 -2.9548 -2.2831
 2514SOL     hw10055   2.116   2.221   0.207 -0.2786  0.5181 -0.3836
 2514SOL     vw10056   2.052   2.279   0.197 -1.1203 -0.3836 -0.3386
 2515SOL     ow10057   2.723   1.374   0.076 -0.4966  0.3195 -0.0857
 2515SOL     hw10058   2.761   1.333   0.154  2.4606  2.8212  0.0265
 2515SOL     hw10059   2.691   1.459   0.107 -0.6646  0.7228 -1.3075
 2515SOL     vw10060   2.724   1.380   0.090 -0.1286  0.7028 -0.2321
 2516SOL     ow10061   2.224   6.391   3.923 -0.4588  0.6372  0.0354
 2516SOL     hw10062   2.299   6.335   3.938 -1.4313 -1.6184 -2.5854
 2516SOL     hw10063   2.156   6.358   3.982 -1.1301 -1.3593 -1.7184
 2516SOL     vw10064   2.225   6.379   3.933 -0.6758  0.0763 -0.5417
 2517SOL     ow10065   3.820   0.404   2.019  0.3866 -0.0148 -0.1155
 2517SOL     hw10066   3.789   0.476   1.965 -2.0434 -1.0247 -0.1634
 2517SOL     hw10067   3.914   0.421   2.029  0.7983  0.7534 -3.8144
 2517SOL     vw10068   3.829   0.416   2.013  0.1203 -0.0467 -0.6098
 2518SOL     ow10069   1.983   6.337   3.438  0.0940 -0.2567 -0.3573
 2518SOL     hw10070   1.921   6.319   3.368  0.2289 -0.8203 -0.3352
 2518SOL     hw10071   1.978   6.260   3.495  1.0158 -0.4464 -0.5116
 2518SOL     vw10072   1.974   6.325   3.436  0.2334 -0.3562 -0.3748
 2519SOL     ow10073   6.802   4.452   5.326  0.4443 -0.1879  0.7376
 2519SOL     hw10074   6.725   4.465   5.272  0.0590 -0.6697  1.1695
 2519SOL     hw10075   6.769   4.416   5.408  1.0562  0.2038  1.1698
 2519SOL     vw10076   6.788   4.449   5.330  0.4740 -0.1998  0.8516
 2520SOL     ow10077   4.049   3.785   6.615 -0.5001  0.1542  0.4126
 2520SOL     hw10078   3.955   3.791   6.603 -0.8439 -1.5711  1.8708
 2520SOL     hw10079   4.083   3.865   6.574 -2.4854  0.4392 -0.8403
 2520SOL     vw10080   4.041   3.797   6.608 -0.8073 -0.0358  0.4396
 2521SOL     ow10081   6.566   4.927   4.362  0.4640  0.6821  0.6586
 2521SOL     hw10082   6.596   4.948   4.451  1.2215 -1.1850  0.8962
 2521SOL     hw10083   6.510   5.000   4.338  1.2985  1.8866  2.1587
 2521SOL     vw10084   6.562   4.939   4.371  0.6740  0.5949  0.8879
 2522SOL     ow10085   3.672   6.089   3.452 -0.2503 -0.4336  0.5471
 2522SOL     hw10086   3.704   6.000   3.467  1.0457  0.2279  2.0478
 2522SOL     hw10087   3.750   6.137   3.426 -1.0405  0.1679 -0.7726
 2522SOL     vw10088   3.687   6.084   3.451 -0.1836 -0.2670  0.5711
 2523SOL     ow10089   5.467   5.868   3.553  0.2558  0.0890 -0.3310
 2523SOL     hw10090   5.445   5.897   3.642 -0.3165  1.7686 -0.9919
 2523SOL     hw10091   5.417   5.787   3.542 -1.9552  1.3321 -0.0901
 2523SOL     vw10092   5.457   5.861   3.563 -0.1111  0.4747 -0.3865
 2524SOL     ow10093   6.741   5.939   7.270  0.2827  0.2070 -0.4414
 2524SOL     hw10094   6.737   5.997   7.347  2.0789  1.5987 -1.3189
 2524SOL     hw10095   6.822   5.965   7.225 -1.1924  0.1429 -3.3543
 2524SOL     vw10096   6.752   5.950   7.274  0.3252  0.3822 -0.9418
 2525SOL     ow10097   2.506   0.358   3.176 -0.3317  0.2315 -0.3413
 2525SOL     hw10098   2.512   0.318   3.263 -1.7429 -2.1146 -1.2177
 2525SOL     hw10099   2.415   0.387   3.170  0.5066  3.2334  0.0325
 2525SOL     vw10100   2.494   0.357   3.187 -0.4072  0.3180 -0.4076
 2526SOL     ow10101   3.642   1.012   6.788  0.0103 -0.4016  0.1090
 2526SOL     hw10102   3.557   1.055   6.795 -0.3522 -1.2866  1.5255
 2526SOL     hw10103   3.639   0.965   6.704 -0.1200  1.1440 -0.7814
 2526SOL     vw10104   3.631   1.011   6.778 -0.0548 -0.3145  0.1783
 2527SOL     ow10105   1.124   5.454   0.078  0.7058 -0.6402 -0.5080
 2527SOL     hw10106   1.132   5.370   0.123  0.4792 -1.8327 -2.5466
 2527SOL     hw10107   1.113   5.430  -0.015 -0.5956  1.6098 -1.0004
 2527SOL     vw10108   1.124   5.440   0.071  0.5041 -0.5007 -0.8419
 2528SOL     ow10109   1.506   4.189   2.480  0.3996 -0.0849 -0.0328
 2528SOL     hw10110   1.541   4.166   2.394  0.9641 -0.4025  0.2809
 2528SOL     hw10111   1.421   4.144   2.483  1.6263 -2.5219  0.7031
 2528SOL     vw10112   1.499   4.180   2.469  0.6359 -0.4485  0.1057
 2529SOL     ow10113   3.824   3.427   3.970  0.4164  0.0315 -0.0905
 2529SOL     hw10114   3.784   3.343   3.993  1.4169 -0.4606 -0.1108
 2529SOL     hw10115   3.838   3.422   3.876  2.6221 -0.7784  0.2062
 2529SOL     vw10116   3.821   3.415   3.961  0.8396 -0.1403 -0.0540
 2530SOL     ow10117   0.762   4.975   2.597  0.0965 -0.0890  0.3225
 2530SOL     hw10118   0.687   4.928   2.633 -0.8670  2.1055  1.4117
 2530SOL     hw10119   0.834   4.913   2.602 -1.0919 -1.4470  1.6677
 2530SOL     vw10120   0.762   4.961   2.603 -0.1874  0.0212  0.6436
 2531SOL     ow10121   5.084   3.952   6.520  0.2800  0.5380  0.1304
 2531SOL     hw10122   5.035   3.875   6.548  0.6571 -0.0585 -0.8194
 2531SOL     hw10123   5.175   3.923   6.515  0.5815  1.3272  0.7337
 2531SOL     vw10124   5.089   3.938   6.523  0.3695  0.5635  0.0846
 2532SOL     ow10125   5.093   5.801   6.685  0.1631  0.4315 -0.2169
 2532SOL     hw10126   5.157   5.829   6.620  0.0025  0.4192 -0.3806
 2532SOL     hw10127   5.107   5.706   6.693  1.0886  0.6314  0.7491
 2532SOL     vw10128   5.104   5.792   6.678  0.2639  0.4563 -0.1111
 2533SOL     ow10129   4.031   2.044   6.501 -0.4735  0.1473  0.0456
 2533SOL     hw10130   3.984   1.967   6.468 -2.4107 -0.0148  2.8128
 2533SOL     hw10131   4.116   2.009   6.529 -0.4455 -0.5174 -0.8243
 2533SOL     vw10132   4.036   2.029   6.500 -0.7255  0.0380  0.2959
 2534SOL     ow10133   0.907   0.980   3.967 -0.1366  0.4084 -0.6467
 2534SOL     hw10134   0.979   1.031   4.003 -0.1012  0.1050 -0.2969
 2534SOL     hw10135   0.831   1.006   4.019  0.1209 -0.8638  0.4113
 2534SOL     vw10136   0.906   0.990   3.978 -0.0980  0.2005 -0.4611
 2535SOL     ow10137   6.125   0.874   4.809  0.0850  0.2546 -0.0230
 2535SOL     hw10138   6.134   0.885   4.904 -0.0032 -0.1523  0.0345
 2535SOL     hw10139   6.214   0.859   4.778 -0.1415 -2.5676  0.3901
 2535SOL     vw10140   6.138   0.873   4.817  0.0434 -0.1715  0.0391
 2536SOL     ow10141   2.318   1.585   1.780 -0.1950  0.4767  0.0540
 2536SOL     hw10142   2.353   1.550   1.698 -1.2329 -1.2850  0.3242
 2536SOL     hw10143   2.246   1.642   1.753 -0.4345  0.0250 -0.2773
 2536SOL     vw10144   2.313   1.588   1.766 -0.3635  0.1847  0.0460
 2537SOL     ow10145   3.864   1.023   6.965  0.6215  0.0941  0.1632
 2537SOL     hw10146   3.784   1.026   6.912  0.8540 -0.8647 -0.2792
 2537SOL     hw10147   3.888   0.930   6.966  0.4925  0.0335  2.1626
 2537SOL     vw10148   3.857   1.011   6.958  0.6351 -0.0404  0.3686
 2538SOL     ow10149   6.033   4.285   1.962  0.6736 -0.0684 -0.1004
 2538SOL     hw10150   6.125   4.289   1.937  0.1231  0.3085 -2.2393
 2538SOL     hw10151   6.010   4.376   1.981  0.2796  0.1487 -1.5064
 2538SOL     vw10152   6.042   4.298   1.962  0.5491  0.0100 -0.5681
 2539SOL     ow10153   2.362   2.653   4.072 -0.1222 -0.5880  0.7769
 2539SOL     hw10154   2.371   2.604   3.990  4.7024  1.0747 -0.0143
 2539SOL     hw10155   2.272   2.685   4.071 -0.3964 -0.8570 -3.8127
 2539SOL     vw10156   2.352   2.651   4.061  0.4781 -0.4041  0.0670
 2540SOL     ow10157   2.007   5.934   0.773 -0.3054  0.6439  0.1675
 2540SOL     hw10158   1.981   5.904   0.686 -0.6310  1.2831  0.0322
 2540SOL     hw10159   1.965   6.020   0.782  0.0141  0.7415  0.8151
 2540SOL     vw10160   1.998   5.942   0.763 -0.3061  0.7410  0.2351
 2541SOL     ow10161   5.517   7.123   5.508  0.0126 -0.6244  0.0197
 2541SOL     hw10162   5.454   7.073   5.561 -1.6839 -0.3479 -1.6325
 2541SOL     hw10163   5.567   7.057   5.460  0.1733 -0.8170  0.4493
 2541SOL     vw10164   5.515   7.108   5.509 -0.1898 -0.6132 -0.1416
 2542SOL     ow10165   1.825   2.528   6.385  1.1729 -0.3974 -0.3358
 2542SOL     hw10166   1.802   2.578   6.463  0.8888 -0.7919 -0.1637
 2542SOL     hw10167   1.888   2.463   6.416 -0.4343 -1.8855  0.0092
 2542SOL     vw10168   1.830   2.526   6.399  0.9233 -0.6458 -0.2677
 2543SOL     ow10169   6.455   5.840   1.099 -0.0334 -0.8386 -0.6980
 2543SOL     hw10170   6.525   5.786   1.136 -0.3227 -0.5649  0.2819
 2543SOL     hw10171   6.486   5.863   1.012  2.8463  2.2876  0.9005
 2543SOL     vw10172   6.468   5.836   1.092  0.3085 -0.3901 -0.3578
 2544SOL     ow10173   5.914   6.553   4.022 -0.2446 -0.5674  0.1264
 2544SOL     hw10174   5.973   6.507   3.962 -0.3265 -0.7413  0.1812
 2544SOL     hw10175   5.837   6.574   3.969 -1.5738 -3.2299  0.8738
 2544SOL     vw10176   5.912   6.550   4.007 -0.4308 -0.9418  0.2320
 2545SOL     ow10177   5.598   0.733   6.005  0.5562  0.5966  0.4142
 2545SOL     hw10178   5.623   0.771   6.090  1.1655  1.3063 -0.0646
 2545SOL     hw10179   5.665   0.766   5.945  0.0390  0.2189 -0.3684
 2545SOL     vw10180   5.610   0.742   6.008  0.5684  0.6404  0.2480
 2546SOL     ow10181   0.404   3.708   6.667 -0.0691  0.0962 -0.2520
 2546SOL     hw10182   0.499   3.722   6.667 -0.0159  0.0102  1.5091
 2546SOL     hw10183   0.384   3.682   6.757 -1.5815 -1.2462 -0.9240
 2546SOL     vw10184   0.414   3.706   6.679 -0.2616 -0.0923 -0.1085
 2547SOL     ow10185   4.935   0.255   3.556 -0.0926  0.4590  0.2930
 2547SOL     hw10186   4.937   0.171   3.602  0.6957  1.2151  1.6976
 2547SOL     hw10187   4.966   0.233   3.467  0.0763 -0.7391  0.6217
 2547SOL     vw10188   4.940   0.241   3.550  0.0336  0.4007  0.5218
 2548SOL     ow10189   4.118   5.117   4.630 -0.4395  0.3262 -0.1822
 2548SOL     hw10190   4.125   5.182   4.560 -1.0385 -1.9264 -2.4858
 2548SOL     hw10191   4.035   5.137   4.673 -1.3538  0.2173 -1.8407
 2548SOL     vw10192   4.108   5.128   4.627 -0.6392  0.0148 -0.7050
 2549SOL     ow10193   3.518   4.818   1.809  0.0830 -0.3529  0.0698
 2549SOL     hw10194   3.562   4.865   1.880  0.3114 -1.2317  0.5297
 2549SOL     hw10195   3.494   4.886   1.746 -1.3318  0.6554  1.5985
 2549SOL     vw10196   3.520   4.833   1.810 -0.0737 -0.3355  0.3322
 2550SOL     ow10197   6.719   3.342   1.576 -0.1666 -0.1497  0.9160
 2550SOL     hw10198   6.703   3.422   1.626 -0.6713  0.6880 -0.5302
 2550SOL     hw10199   6.804   3.357   1.535  0.6830 -1.2206  2.1856
 2550SOL     vw10200   6.728   3.355   1.578 -0.1209 -0.1805  0.8927
 2551SOL     ow10201   0.594   5.709   0.264  0.7107 -0.3128 -0.4789
 2551SOL     hw10202   0.585   5.797   0.301 -2.3399 -0.7731  0.1806
 2551SOL     hw10203   0.549   5.652   0.326  1.6867 -2.2230 -1.4207
 2551SOL     vw10204   0.587   5.713   0.277  0.4370 -0.6258 -0.5161
 2552SOL     ow10205   4.016   1.697   6.636  0.3591  0.2059 -0.3065
 2552SOL     hw10206   4.065   1.625   6.597  0.2129  0.2074 -0.4958
 2552SOL     hw10207   3.941   1.656   6.677  0.9578  0.1119  0.7219
 2552SOL     vw10208   4.013   1.682   6.636  0.4189  0.1937 -0.1957
 2553SOL     ow10209   6.030   4.788   4.644 -0.1094 -0.8918 -0.2441
 2553SOL     hw10210   6.081   4.762   4.721  0.3468 -0.5487 -0.4274
 2553SOL     hw10211   5.969   4.715   4.630 -2.2573  0.2649  2.1882
 2553SOL     vw10212   6.028   4.775   4.653 -0.3328 -0.6938  0.0527
 2554SOL     ow10213   1.928   0.476   4.112 -0.9297  0.1846 -0.0641
 2554SOL     hw10214   2.011   0.450   4.151 -2.1402 -0.6144  2.2197
 2554SOL     hw10215   1.951   0.540   4.045  1.6168 -1.2163 -0.6742
 2554SOL     vw10216   1.942   0.481   4.108 -0.7534 -0.1056  0.1569
 2555SOL     ow10217   7.291   4.880   6.728 -0.5944  1.0195  0.1025
 2555SOL     hw10218   7.263   4.829   6.652 -0.2602 -0.0483  0.6718
 2555SOL     hw10219   7.280   4.820   6.802  0.8217  1.3968  0.6512
 2555SOL     vw10220   7.286   4.865   6.728 -0.3636  0.9284  0.2501
 2556SOL     ow10221   0.305   3.659   0.755  0.0335  0.5481 -0.3376
 2556SOL     hw10222   0.311   3.633   0.847  1.2110  1.9433  0.0306
 2556SOL     hw10223   0.228   3.715   0.750  1.7653  3.1979  0.6055
 2556SOL     vw10224   0.296   3.663   0.766  0.4173  1.0817 -0.1646
 2557SOL     ow10225   1.597   7.013   2.995 -0.3129  0.2068  0.1555
 2557SOL     hw10226   1.637   6.973   2.918  1.4433 -1.0405  1.6384
 2557SOL     hw10227   1.509   6.977   2.998  0.8856 -2.9682  0.8893
 2557SOL     vw10228   1.591   7.003   2.986  0.0769 -0.3767  0.4479
 2558SOL     ow10229   0.747   0.726   3.881  0.0336 -0.3445  0.7129
 2558SOL     hw10230   0.663   0.730   3.927 -1.1459  1.6148 -1.3664
 2558SOL     hw10231   0.771   0.633   3.884 -1.1099 -0.6486  3.1408
 2558SOL     vw10232   0.739   0.714   3.887 -0.2729 -0.1261  0.7589
 2559SOL     ow10233   4.106   1.491   6.478 -0.2127  0.0680  0.6943
 2559SOL     hw10234   4.144   1.409   6.511  1.0934  1.9643  4.5171
 2559SOL     hw10235   4.011   1.478   6.487 -0.0676 -1.3157  0.3947
 2559SOL     vw10236   4.098   1.478   6.484 -0.0215  0.1356  1.1592
 2560SOL     ow10237   1.825   1.728   5.578  0.0427 -0.4193  0.0325
 2560SOL     hw10238   1.815   1.819   5.606 -2.5238 -1.3410  2.6191
 2560SOL     hw10239   1.919   1.715   5.573  0.5298  2.8339 -2.3330
 2560SOL     vw10240   1.836   1.738   5.581 -0.2317 -0.1118  0.0615
 2561SOL     ow10241   6.962   4.945   3.600 -0.3192 -0.7064  0.4651
 2561SOL     hw10242   6.978   4.861   3.556  1.7488  0.2630 -0.7873
 2561SOL     hw10243   7.040   4.997   3.581 -1.3297  1.3443  1.6288
 2561SOL     vw10244   6.975   4.941   3.591 -0.1798 -0.3078  0.4535
 2562SOL     ow10245   3.822   7.265   2.294 -0.5022  0.6039 -1.3717
 2562SOL     hw10246   3.736   7.253   2.334  0.9334 -2.0220  1.3181
 2562SOL     hw10247   3.823   7.204   2.220  0.7350 -3.9381  1.9547
 2562SOL     vw10248   3.811   7.255   2.290 -0.1495 -0.3417 -0.5778
 2563SOL     ow10249   2.214   0.566   2.096 -0.3949  0.0869 -0.0251
 2563SOL     hw10250   2.183   0.599   2.180  0.6572 -0.8650  0.7530
 2563SOL     hw10251   2.252   0.480   2.115 -0.0026 -0.0904 -1.4411
 2563SOL     vw10252   2.215   0.559   2.109 -0.2044 -0.0621 -0.1093
 2564SOL     ow10253   5.798   3.772   1.467 -0.4265 -0.2386 -0.3488
 2564SOL     hw10254   5.847   3.692   1.447 -0.9233 -0.3553 -1.1660
 2564SOL     hw10255   5.728   3.743   1.526 -1.4401 -0.6934 -1.7251
 2564SOL     vw10256   5.795   3.757   1.472 -0.6258 -0.3141 -0.6382
 2565SOL     ow10257   7.016   4.334   6.548 -0.0223  0.0415  0.3772
 2565SOL     hw10258   7.088   4.291   6.504  1.4331 -1.4679  3.8702
 2565SOL     hw10259   6.956   4.263   6.573 -1.5046  0.9916 -0.2980
 2565SOL     vw10260   7.017   4.319   6.546 -0.0262 -0.0322  0.7489
 2566SOL     ow10261   3.460   5.156   6.843  0.2160 -0.2421  0.1984
 2566SOL     hw10262   3.365   5.162   6.834 -0.5576 -0.2748  5.3004
 2566SOL     hw10263   3.479   5.063   6.832 -0.4902 -0.3771  0.0645
 2566SOL     vw10264   3.450   5.144   6.840  0.0206 -0.2639  0.8538
 2567SOL     ow10265   3.357   2.419   0.205  0.3974  0.3383 -0.4624
 2567SOL     hw10266   3.278   2.371   0.183  0.1133  0.2300  0.7188
 2567SOL     hw10267   3.379   2.468   0.125 -1.2462  0.9042 -0.6115
 2567SOL     vw10268   3.350   2.419   0.192  0.1431  0.3988 -0.3262
 2568SOL     ow10269   0.140   6.543   6.782 -0.0256  0.3055  0.3259
 2568SOL     hw10270   0.232   6.531   6.806 -0.9154 -0.0631  4.0463
 2568SOL     hw10271   0.123   6.474   6.718  1.4707 -1.7819  2.0712
 2568SOL     vw10272   0.150   6.533   6.777  0.0544 -0.0186  1.0471
 2569SOL     ow10273   6.589   6.822   0.645  0.6968 -0.0741 -0.6376
 2569SOL     hw10274   6.554   6.832   0.556  0.4478 -1.7693 -0.7720
 2569SOL     hw10275   6.585   6.727   0.661  2.8733 -0.0720  0.2976
 2569SOL     vw10276   6.584   6.811   0.635  0.9511 -0.2973 -0.5319
 2570SOL     ow10277   2.516   4.936   0.427 -0.1836  0.5078  0.4255
 2570SOL     hw10278   2.458   4.940   0.503  0.5207 -0.0502  1.0074
 2570SOL     hw10279   2.463   4.895   0.358 -0.9860  1.4623  0.4488
 2570SOL     vw10280   2.501   4.931   0.428 -0.1965  0.5603  0.5054
 2571SOL     ow10281   5.743   1.060   5.293 -0.1243  0.0451  0.1517
 2571SOL     hw10282   5.780   1.138   5.252 -0.0524  0.0086  0.1464
 2571SOL     hw10283   5.769   1.067   5.385 -2.4406  1.4307  0.7656
 2571SOL     vw10284   5.752   1.071   5.299 -0.4206  0.2231  0.2320
 2572SOL     ow10285   1.691   5.456   6.297  0.3541  0.1578 -0.5527
 2572SOL     hw10286   1.646   5.389   6.348  0.7257 -0.2299 -0.7319
 2572SOL     hw10287   1.774   5.469   6.343  1.6349 -1.7143 -2.1920
 2572SOL     vw10288   1.696   5.449   6.310  0.5722 -0.1404 -0.7925
 2573SOL     ow10289   4.574   5.169   5.802  0.3479 -0.2872  0.3393
 2573SOL     hw10290   4.634   5.161   5.876  0.5297  0.1034  0.2421
 2573SOL     hw10291   4.488   5.177   5.841  0.5332  0.8604  0.5571
 2573SOL     vw10292   4.571   5.169   5.817  0.3965 -0.0842  0.3552
 2574SOL     ow10293   0.162   2.172   0.647  0.9025  0.0015  0.8438
 2574SOL     hw10294   0.072   2.158   0.617  0.9898  1.8176 -0.3975
 2574SOL     hw10295   0.152   2.194   0.740  0.2824 -1.7737  1.2474
 2574SOL     vw10296   0.149   2.173   0.656  0.8322  0.0068  0.7333
 2575SOL     ow10297   4.671   5.004   3.841 -0.2432  0.0487  0.2160
 2575SOL     hw10298   4.738   5.070   3.860  1.2808 -0.5773 -2.4600
 2575SOL     hw10299   4.668   4.999   3.746 -1.2533 -2.7850  0.2916
 2575SOL     vw10300   4.680   5.012   3.831 -0.1755 -0.4077 -0.1268
 2576SOL     ow10301   1.539   7.322   4.854 -0.0615 -0.0320 -0.0599
 2576SOL     hw10302   1.585   7.320   4.938 -0.5656  1.2312  0.2753
 2576SOL     hw10303   1.463   7.266   4.866  0.3372 -0.5546  0.0324
 2576SOL     vw10304   1.535   7.315   4.866 -0.0754  0.0656 -0.0033
 2577SOL     ow10305   3.619   2.081   1.243  0.1748  0.4082 -0.2356
 2577SOL     hw10306   3.627   1.990   1.217 -0.8915 -0.5386  2.3640
 2577SOL     hw10307   3.525   2.095   1.253  0.2584  2.0820 -1.3951
 2577SOL     vw10308   3.608   2.071   1.241  0.0449  0.5040 -0.0456
 2578SOL     ow10309   4.259   2.081   6.732 -0.1596  0.4630  0.2293
 2578SOL     hw10310   4.304   2.165   6.727  0.5070  0.0643 -0.6732
 2578SOL     hw10311   4.313   2.022   6.679 -1.0940 -0.3192  0.1325
 2578SOL     vw10312   4.272   2.084   6.724 -0.1948  0.3071  0.0975
 2579SOL     ow10313   4.084   6.108   6.087  0.2593 -0.3415  0.0661
 2579SOL     hw10314   4.043   6.041   6.143 -0.1419  0.4982  0.8026
 2579SOL     hw10315   4.149   6.060   6.035 -1.8178 -1.7980 -1.3582
 2579SOL     vw10316   4.087   6.093   6.087 -0.0675 -0.4230 -0.0246
 2580SOL     ow10317   4.674   7.338   2.957  0.1038  0.5219  0.6064
 2580SOL     hw10318   4.595   7.293   2.926  0.3079  1.0008 -0.6527
 2580SOL     hw10319   4.684   7.308   3.047 -0.2495 -1.2775  0.0875
 2580SOL     vw10320   4.665   7.329   2.965  0.0839  0.3476  0.3719
 2581SOL     ow10321   0.699   4.020   1.359 -0.1483  0.3166  0.4093
 2581SOL     hw10322   0.662   4.080   1.295 -1.7155  0.8065  1.6995
 2581SOL     hw10323   0.763   4.072   1.407  0.6887  0.0784 -0.4276
 2581SOL     vw10324   0.702   4.035   1.357 -0.2446  0.3500  0.4691
 2582SOL     ow10325   5.113   3.716   6.680  1.0021 -0.1254  0.0746
 2582SOL     hw10326   5.170   3.752   6.748 -0.0706  0.7632  0.5481
 2582SOL     hw10327   5.064   3.646   6.724  0.0421  0.6934  0.3581
 2582SOL     vw10328   5.114   3.712   6.695  0.7339  0.0999  0.1743
 2583SOL     ow10329   4.949   6.229   4.697 -0.2552 -0.3394 -0.5835
 2583SOL     hw10330   4.864   6.242   4.739 -0.4397 -3.2042  0.1306
 2583SOL     hw10331   5.011   6.278   4.751 -0.8730 -1.7326  1.5002
 2583SOL     vw10332   4.946   6.237   4.709 -0.3612 -0.9012 -0.2141
 2584SOL     ow10333   6.848   4.773   1.120  0.2960  0.1708  0.6184
 2584SOL     hw10334   6.768   4.824   1.133  1.7231  2.8081 -0.0268
 2584SOL     hw10335   6.911   4.813   1.180  2.1443  0.8682 -1.6243
 2584SOL     vw10336   6.846   4.785   1.130  0.7281  0.6106  0.2374
 2585SOL     ow10337   5.772   3.277   7.074 -0.6041 -0.0894  0.4276
 2585SOL     hw10338   5.752   3.359   7.119 -1.5182 -0.0998  0.0629
 2585SOL     hw10339   5.861   3.288   7.040 -0.6631  0.6823  0.5242
 2585SOL     vw10340   5.781   3.289   7.076 -0.7327  0.0110  0.3927
 2586SOL     ow10341   0.830   1.806   2.218  0.4858  0.1818 -0.7538
 2586SOL     hw10342   0.875   1.724   2.200 -1.1461 -0.5171 -1.8288
 2586SOL     hw10343   0.740   1.781   2.238  0.3468  1.5872  0.6577
 2586SOL     vw10344   0.825   1.792   2.218  0.2522  0.2750 -0.7094
 2587SOL     ow10345   4.460   0.303   5.987 -0.0114  0.1646  0.4268
 2587SOL     hw10346   4.364   0.301   5.981 -0.1432  1.1972  1.7487
 2587SOL     hw10347   4.484   0.211   6.000 -0.9152  0.0157  1.1612
 2587SOL     vw10348   4.451   0.290   5.988 -0.1478  0.2812  0.6981
 2588SOL     ow10349   4.664   5.096   2.131  0.4255  0.0636 -0.1423
 2588SOL     hw10350   4.581   5.092   2.084  0.2983 -0.2309  0.1037
 2588SOL     hw10351   4.722   5.146   2.073  0.2505 -0.2236 -0.5700
 2588SOL     vw10352   4.661   5.102   2.117  0.3855 -0.0134 -0.1663
 2589SOL     ow10353   6.414   6.820   4.164 -0.1301 -0.8685 -0.1847
 2589SOL     hw10354   6.415   6.914   4.182 -0.1862 -1.5428  4.7448
 2589SOL     hw10355   6.329   6.790   4.196 -0.0619 -2.6763 -1.5298
 2589SOL     vw10356   6.403   6.828   4.170 -0.1285 -1.1961  0.2882
 2590SOL     ow10357   1.437   3.165   0.725  0.2115 -0.3216 -0.0704
 2590SOL     hw10358   1.492   3.235   0.689 -0.3144 -0.5189 -1.3019
 2590SOL     hw10359   1.500   3.099   0.755  0.7813  1.2434  2.4550
 2590SOL     vw10360   1.452   3.166   0.724  0.2173 -0.1413  0.1003
 2591SOL     ow10361   2.620   4.110   0.580 -0.4784  0.3726 -0.3532
 2591SOL     hw10362   2.534   4.129   0.541 -0.4911  3.0578  0.8121
 2591SOL     hw10363   2.612   4.019   0.609 -2.7380  0.3587 -0.7783
 2591SOL     vw10364   2.607   4.100   0.578 -0.7781  0.7250 -0.2555
 2592SOL     ow10365   5.955   1.015   7.338  0.1177  0.3109  0.2672
 2592SOL     hw10366   5.941   0.955   7.265  2.0545  2.5233 -2.1587
 2592SOL     hw10367   5.927   1.100   7.304 -0.3247  1.1914  2.6924
 2592SOL     vw10368   5.950   1.018   7.324  0.3147  0.7190  0.2670
 2593SOL     ow10369   4.409   4.252   4.031 -0.3285 -0.7075  0.3060
 2593SOL     hw10370   4.331   4.224   3.984 -0.1369 -0.3229 -0.2596
 2593SOL     hw10371   4.420   4.188   4.101 -0.2502 -1.6648 -0.5694
 2593SOL     vw10372   4.400   4.240   4.034 -0.2928 -0.7830  0.1156
 2594SOL     ow10373   3.150   6.560   2.363 -0.5811 -0.1627  0.0042
 2594SOL     hw10374   3.134   6.619   2.289  1.2564  0.5928  0.1659
 2594SOL     hw10375   3.199   6.487   2.326  0.6801  0.4024  0.4962
 2594SOL     vw10376   3.154   6.558   2.348 -0.1723  0.0117  0.0905
 2595SOL     ow10377   0.898   5.158   2.372 -0.7440 -0.3863 -0.0524
 2595SOL     hw10378   0.957   5.194   2.438 -1.4103 -0.6563  0.6985
 2595SOL     hw10379   0.903   5.221   2.299  2.3319 -1.6083 -1.0669
 2595SOL     vw10380   0.907   5.171   2.371 -0.4261 -0.5832 -0.0871
 2596SOL     ow10381   1.066   2.879   3.676  0.2007 -0.0115  0.0013
 2596SOL     hw10382   1.048   2.786   3.689  1.4712 -0.5570 -1.7771
 2596SOL     hw10383   1.125   2.903   3.747  0.6957 -0.8375 -0.1276
 2596SOL     vw10384   1.071   2.870   3.687  0.4336 -0.1924 -0.2502
 2597SOL     ow10385   2.394   5.165   2.663  0.1053 -0.2730 -0.4334
 2597SOL     hw10386   2.423   5.074   2.667 -1.0882 -0.6275  0.5581
 2597SOL     hw10387   2.417   5.193   2.574 -0.7368 -1.9728 -1.2346
 2597SOL     vw10388   2.401   5.156   2.651 -0.1633 -0.5441 -0.4084
 2598SOL     ow10389   2.642   5.690   4.945  0.2245  0.3547 -0.0891
 2598SOL     hw10390   2.735   5.714   4.936 -0.0776  1.0483 -1.7360
 2598SOL     hw10391   2.598   5.740   4.877 -0.7102 -3.5244 -2.6855
 2598SOL     vw10392   2.649   5.700   4.935  0.0614 -0.0656 -0.6487
 2599SOL     ow10393   7.307   2.063   5.907  0.3444 -0.2699 -1.1783
 2599SOL     hw10394   7.344   2.084   5.993 -0.4162 -2.4416 -0.2552
 2599SOL     hw10395   7.225   2.016   5.927 -1.0022  1.1086 -3.1250
 2599SOL     vw10396   7.301   2.059   5.921  0.0663 -0.3746 -1.3134
 2600SOL     ow10397   0.538   5.872   0.020 -0.5750  0.4456  0.0081
 2600SOL     hw10398   0.535   5.795   0.077  0.3404  0.1447 -0.3151
 2600SOL     hw10399   0.599   5.932   0.064 -0.3001  0.4462 -0.3688
 2600SOL     vw10400   0.546   5.870   0.033 -0.4180  0.4060 -0.0842
 2601SOL     ow10401   1.760   1.591   6.508 -0.1440 -0.7936 -0.0552
 2601SOL     hw10402   1.690   1.654   6.525 -0.5294 -1.0539 -0.6213
 2601SOL     hw10403   1.770   1.592   6.413  1.0979 -0.2686  0.0636
 2601SOL     vw10404   1.752   1.599   6.498 -0.0310 -0.7586 -0.1142
 2602SOL     ow10405   6.948   1.925   3.323  0.2182  0.1844  0.8329
 2602SOL     hw10406   7.005   1.850   3.305  1.7707  1.4656  0.1674
 2602SOL     hw10407   6.882   1.923   3.254 -1.4097 -2.0557  2.3335
 2602SOL     vw10408   6.947   1.915   3.312  0.2079  0.0578  0.9431
 2603SOL     ow10409   3.653   6.840   5.171  0.2458 -0.1153  0.4801
 2603SOL     hw10410   3.587   6.774   5.192 -1.5098  1.4611  0.1802
 2603SOL     hw10411   3.720   6.828   5.238  0.4462 -2.7233 -0.0526
 2603SOL     vw10412   3.653   6.829   5.183  0.0407 -0.2515  0.3703
 2604SOL     ow10413   5.622   7.309   5.127  0.0305 -0.0414  0.3575
 2604SOL     hw10414   5.668   7.227   5.107  0.1451  0.3090 -0.8714
 2604SOL     hw10415   5.556   7.284   5.191 -1.6374 -1.6363 -1.8364
 2604SOL     vw10416   5.619   7.294   5.133 -0.1745 -0.2058 -0.0942
 2605SOL     ow10417   0.439   0.086   1.526 -0.5467  0.4200 -0.7701
 2605SOL     hw10418   0.407   0.127   1.607  0.5748  1.8355 -0.9943
 2605SOL     hw10419   0.532   0.071   1.542 -0.4868 -0.0316 -1.5009
 2605SOL     vw10420   0.447   0.090   1.539 -0.3908  0.5472 -0.8962
 2606SOL     ow10421   4.473   7.290   1.925 -0.4912 -0.3554 -0.6604
 2606SOL     hw10422   4.520   7.319   1.847  2.0734 -1.7275  0.2663
 2606SOL     hw10423   4.472   7.367   1.983 -1.4080  0.3237 -1.5312
 2606SOL     vw10424   4.479   7.304   1.922 -0.2737 -0.4468 -0.6530
 2607SOL     ow10425   4.725   5.990   2.901 -0.1878 -0.1360  0.1444
 2607SOL     hw10426   4.674   6.012   2.823 -0.5957 -0.2150  0.3890
 2607SOL     hw10427   4.802   6.047   2.896  0.0861 -0.5605 -0.6297
 2607SOL     vw10428   4.728   6.000   2.890 -0.2053 -0.2027  0.0744
 2608SOL     ow10429   3.483   2.069   4.755 -0.1319  0.6362  0.1217
 2608SOL     hw10430   3.517   2.147   4.713  0.6023 -0.4237 -1.3320
 2608SOL     hw10431   3.558   2.033   4.803 -0.0111 -0.0578 -0.5754
 2608SOL     vw10432   3.497   2.074   4.756 -0.0191  0.4048 -0.1619
 2609SOL     ow10433   1.579   1.750   5.759 -0.4510 -0.3080  0.3737
 2609SOL     hw10434   1.603   1.787   5.844 -1.5953 -1.1214  1.0839
 2609SOL     hw10435   1.576   1.825   5.700 -1.9484  0.6612  1.5926
 2609SOL     vw10436   1.582   1.765   5.763 -0.7997 -0.2875  0.6282
 2610SOL     ow10437   5.753   6.261   3.193  0.0957  0.2817 -0.0447
 2610SOL     hw10438   5.811   6.190   3.220  0.1224  0.6761  0.9875
 2610SOL     hw10439   5.709   6.228   3.115 -3.5076 -2.9305  2.9155
 2610SOL     vw10440   5.755   6.247   3.186 -0.3762 -0.0904  0.4821
 2611SOL     ow10441   0.217   0.047   1.740 -0.0727  0.5979  0.3828
 2611SOL     hw10442   0.199  -0.043   1.714  0.0495  0.6085  0.2608
 2611SOL     hw10443   0.130   0.086   1.753 -0.1336  0.5815  0.0320
 2611SOL     vw10444   0.203   0.040   1.739 -0.0646  0.5972  0.3204
 2612SOL     ow10445   2.652   6.457   0.029  0.2562 -0.0742  0.8904
 2612SOL     hw10446   2.747   6.463   0.015  0.6674 -0.9940  2.8743
 2612SOL     hw10447   2.622   6.548   0.023  0.5566 -0.0528 -3.4200
 2612SOL     vw10448   2.661   6.470   0.027  0.3500 -0.1929  0.5836
 2613SOL     ow10449   0.341   5.778   3.482  0.1819 -0.1608  0.2554
 2613SOL     hw10450   0.309   5.810   3.566  1.9213  0.3335  0.7597
 2613SOL     hw10451   0.359   5.685   3.497  0.4813 -0.0755  0.4365
 2613SOL     vw10452   0.339   5.770   3.495  0.4509 -0.0844  0.3458
 2614SOL     ow10453   3.280   4.655   2.179  0.3157 -0.0571  0.6091
 2614SOL     hw10454   3.218   4.725   2.157 -1.7116 -1.1416  2.4607
 2614SOL     hw10455   3.282   4.599   2.101 -0.7831  0.2154  0.3650
 2614SOL     vw10456   3.272   4.657   2.166 -0.0968 -0.1640  0.8211
 2615SOL     ow10457   6.053   0.512   1.123  0.5488 -0.8208  0.5114
 2615SOL     hw10458   5.990   0.518   1.195 -0.3880 -0.7721 -0.2897
 2615SOL     hw10459   6.059   0.601   1.089  0.4913 -0.9664  0.1143
 2615SOL     vw10460   6.046   0.525   1.128  0.4177 -0.8336  0.3533
 2616SOL     ow10461   3.072   3.542   3.552 -0.3826  0.3343  0.1302
 2616SOL     hw10462   3.000   3.601   3.572  0.2795  0.8248  1.1366
 2616SOL     hw10463   3.046   3.458   3.590  0.1046  0.8239  1.5909
 2616SOL     vw10464   3.059   3.539   3.559 -0.2310  0.4636  0.4557
 2617SOL     ow10465   1.243   2.323   3.214 -0.5696  0.2329 -0.0734
 2617SOL     hw10466   1.205   2.292   3.296 -1.3179 -0.8236 -0.7772
 2617SOL     hw10467   1.313   2.261   3.195 -1.6802 -0.7356 -1.1910
 2617SOL     vw10468   1.247   2.311   3.222 -0.8148 -0.0342 -0.3138
 2618SOL     ow10469   2.556   2.148   5.713  0.0681 -0.0923 -0.0011
 2618SOL     hw10470   2.484   2.211   5.720  1.8028  2.0969 -0.6003
 2618SOL     hw10471   2.518   2.073   5.667 -1.3163  1.9588 -2.4839
 2618SOL     vw10472   2.542   2.147   5.708  0.1143  0.4673 -0.4077
 2619SOL     ow10473   4.499   4.736   3.790 -0.1469 -0.9707  0.1165
 2619SOL     hw10474   4.533   4.762   3.704  1.3492 -0.3099  0.8627
 2619SOL     hw10475   4.497   4.818   3.841 -1.6649 -1.2316  0.5184
 2619SOL     vw10476   4.503   4.751   3.786 -0.1500 -0.9179  0.2680
 2620SOL     ow10477   0.888   6.041   3.581  0.0595 -0.3772 -0.7354
 2620SOL     hw10478   0.843   5.959   3.601 -0.1068 -0.2626 -0.6340
 2620SOL     hw10479   0.900   6.038   3.486  3.7841 -2.4208 -0.3614
 2620SOL     vw10480   0.883   6.030   3.571  0.5290 -0.6316 -0.6727
 2621SOL     ow10481   0.381   5.841   2.223 -0.1492 -0.5287 -0.3299
 2621SOL     hw10482   0.398   5.822   2.315  2.6459 -0.6264 -0.7803
 2621SOL     hw10483   0.466   5.832   2.181 -1.7147 -2.8846 -3.3925
 2621SOL     vw10484   0.394   5.838   2.230  0.0130 -0.8526 -0.7935
 2622SOL     ow10485   0.195   1.891   7.328 -0.3542 -0.2059  0.3642
 2622SOL     hw10486   0.242   1.886   7.245  1.2237 -0.4062  1.2303
 2622SOL     hw10487   0.152   1.806   7.336  0.2567 -0.5431  0.1802
 2622SOL     vw10488   0.195   1.879   7.318 -0.0654 -0.2768  0.4542
 2623SOL     ow10489   0.307   3.243   6.041 -0.1353 -0.2626 -0.8155
 2623SOL     hw10490   0.401   3.224   6.029  0.0838 -0.0217  0.3938
 2623SOL     hw10491   0.274   3.169   6.091  0.1426  1.1222  1.5884
 2623SOL     vw10492   0.315   3.231   6.046 -0.0697 -0.0480 -0.3386
 2624SOL     ow10493   5.001   2.181   6.099  0.2358  0.6489  0.4596
 2624SOL     hw10494   5.032   2.091   6.114  0.0197  0.6352  0.8254
 2624SOL     hw10495   5.006   2.223   6.184 -1.3478  0.4598  0.6684
 2624SOL     vw10496   5.006   2.174   6.112 -0.0014  0.6222  0.5350
 2625SOL     ow10497   1.677   6.849   0.571  0.0137 -0.4576  0.0970
 2625SOL     hw10498   1.698   6.942   0.568  0.8729 -0.6668 -1.1409
 2625SOL     hw10499   1.616   6.836   0.499  0.9636 -1.0878 -0.6102
 2625SOL     vw10500   1.671   6.860   0.561  0.2524 -0.5682 -0.1596
 2626SOL     ow10501   4.904   0.238   1.388  0.2096 -0.3486  0.4616
 2626SOL     hw10502   4.982   0.185   1.404 -0.0800 -0.8453  0.2398
 2626SOL     hw10503   4.831   0.182   1.413 -0.1961 -0.7091 -1.3823
 2626SOL     vw10504   4.905   0.224   1.393  0.1178 -0.4617  0.1890
 2627SOL     ow10505   1.295   4.639   4.788 -0.1845  0.0246  0.1075
 2627SOL     hw10506   1.199   4.641   4.791 -0.3248  3.2398 -1.6198
 2627SOL     hw10507   1.319   4.723   4.749  3.3959 -0.4740  0.9133
 2627SOL     vw10508   1.286   4.651   4.783  0.2694  0.3831 -0.0141
 2628SOL     ow10509   0.053   7.048   2.674  0.3203 -0.3643  0.1949
 2628SOL     hw10510  -0.014   7.062   2.741 -0.2492  2.3772 -0.8166
 2628SOL     hw10511   0.131   7.091   2.708  1.8489 -3.8217  1.5166
 2628SOL     vw10512   0.054   7.056   2.687  0.4468 -0.4587  0.2358
 2629SOL     ow10513   0.901   1.880   1.390 -0.2966 -0.2266  0.2734
 2629SOL     hw10514   0.848   1.850   1.317  2.8832  1.5422 -3.1230
 2629SOL     hw10515   0.876   1.972   1.401  3.1214  1.3914 -2.9817
 2629SOL     vw10516   0.891   1.888   1.382  0.5739  0.2202 -0.6042
 2630SOL     ow10517   5.042   2.047   3.071  0.1318 -0.0090  0.8730
 2630SOL     hw10518   5.017   2.129   3.027  0.1475 -0.1619  0.5714
 2630SOL     hw10519   4.978   2.037   3.141  0.0857  0.2246  0.8664
 2630SOL     vw10520   5.030   2.057   3.074  0.1278  0.0015  0.8323
 2631SOL     ow10521   6.505   1.606   1.641 -0.1589  0.5038  0.8710
 2631SOL     hw10522   6.505   1.675   1.575 -0.6734 -1.0614 -0.8632
 2631SOL     hw10523   6.592   1.566   1.633 -0.5224 -0.2308  0.5426
 2631SOL     vw10524   6.517   1.609   1.631 -0.2749  0.2004  0.5988
 2632SOL     ow10525   0.355   3.963   1.343  0.5498 -0.1634  0.3023
 2632SOL     hw10526   0.310   3.932   1.422 -1.6996 -0.0223 -0.8132
 2632SOL     hw10527   0.401   4.042   1.370 -0.6299  0.1848  1.3971
 2632SOL     vw10528   0.355   3.969   1.357  0.0974 -0.0988  0.2995
 2633SOL     ow10529   3.868   2.366   0.229 -0.4537  0.6015 -0.5885
 2633SOL     hw10530   3.872   2.352   0.324  1.1886  0.7372 -0.5955
 2633SOL     hw10531   3.957   2.347   0.199 -1.4223 -1.5225 -2.4270
 2633SOL     vw10532   3.880   2.362   0.238 -0.3648  0.3392 -0.8320
 2634SOL     ow10533   5.239   4.923   2.790 -0.7015  0.2858  0.5917
 2634SOL     hw10534   5.181   4.999   2.789  0.5510  1.4278  3.5406
 2634SOL     hw10535   5.320   4.954   2.830  0.3925 -2.2763  0.6039
 2634SOL     vw10536   5.242   4.937   2.795 -0.3920  0.0985  0.9824
 2635SOL     ow10537   3.714   5.773   1.951 -0.3756 -0.0882 -0.9239
 2635SOL     hw10538   3.653   5.740   1.886 -0.2317 -1.6357 -0.3259
 2635SOL     hw10539   3.797   5.780   1.905 -0.9231  1.9500 -1.7190
 2635SOL     vw10540   3.717   5.770   1.937 -0.4289 -0.0234 -0.9499
 2636SOL     ow10541   0.168   6.725   2.895 -0.5836 -0.1697  1.0995
 2636SOL     hw10542   0.101   6.701   2.959 -0.1113 -1.5696  1.0936
 2636SOL     hw10543   0.180   6.647   2.842  0.9214  0.1160  0.9802
 2636SOL     vw10544   0.160   6.712   2.897 -0.3227 -0.3164  1.0830
 2637SOL     ow10545   2.114   3.120   3.617 -0.1402  0.1694  0.4063
 2637SOL     hw10546   2.143   3.028   3.616  0.7614  0.4414  0.6778
 2637SOL     hw10547   2.073   3.132   3.531 -1.3688 -0.8166  0.8224
 2637SOL     vw10548   2.112   3.109   3.605 -0.1833  0.0752  0.4970
 2638SOL     ow10549   6.928   0.813   2.484 -0.1146 -0.0333  0.0573
 2638SOL     hw10550   6.879   0.852   2.413 -0.6299 -1.0378 -0.1514
 2638SOL     hw10551   6.938   0.720   2.460 -1.0703 -0.6048  1.6763
 2638SOL     vw10552   6.923   0.806   2.472 -0.3090 -0.2412  0.2433
 2639SOL     ow10553   6.391   6.284   1.737 -0.5712  0.3113  0.2568
 2639SOL     hw10554   6.413   6.377   1.738  3.1882 -0.4117 -0.6306
 2639SOL     hw10555   6.402   6.256   1.828 -4.1892  1.0639  1.0726
 2639SOL     vw10556   6.395   6.292   1.749 -0.5527  0.3152  0.2473
 2640SOL     ow10557   4.372   3.221   2.865  0.3128  0.7221  0.5394
 2640SOL     hw10558   4.360   3.127   2.865  1.6241  0.5025  2.6413
 2640SOL     hw10559   4.309   3.255   2.928 -1.2071  1.4774 -1.2903
 2640SOL     vw10560   4.362   3.213   2.873  0.2851  0.7927  0.5753
 2641SOL     ow10561   1.886   4.126   7.223  0.3799  0.0497 -0.7810
 2641SOL     hw10562   1.825   4.063   7.262 -0.9357  2.1453  0.7923
 2641SOL     hw10563   1.846   4.149   7.139  0.8561 -1.1429 -1.3536
 2641SOL     vw10564   1.872   4.121   7.217  0.2691  0.1688 -0.6490
 2642SOL     ow10565   2.229   4.593   4.938  0.8397 -0.0003 -0.0697
 2642SOL     hw10566   2.250   4.510   4.897 -0.0966 -1.0511  1.4745
 2642SOL     hw10567   2.310   4.644   4.933  1.8646 -1.5438  0.2070
 2642SOL     vw10568   2.242   4.589   4.932  0.8513 -0.3426  0.1707
 2643SOL     ow10569   3.489   4.569   4.946  0.2627 -0.0869 -0.1883
 2643SOL     hw10570   3.536   4.643   4.908 -0.0224 -0.5538 -1.5114
 2643SOL     hw10571   3.443   4.606   5.022  4.9240 -0.1539  3.0283
 2643SOL     vw10572   3.489   4.583   4.951  0.8401 -0.1571  0.0615
 2644SOL     ow10573   1.610   4.640   5.728 -0.8988 -0.2236  0.7471
 2644SOL     hw10574   1.684   4.662   5.671 -1.3628 -0.6365 -0.0380
 2644SOL     hw10575   1.612   4.544   5.735 -1.2100 -0.2211  0.9238
 2644SOL     vw10576   1.620   4.630   5.721 -1.0011 -0.2778  0.6671
 2645SOL     ow10577   7.078   6.525   6.596  0.0268  0.2759 -0.1951
 2645SOL     hw10578   7.005   6.571   6.554  0.4209  1.4339  0.3284
 2645SOL     hw10579   7.137   6.595   6.623  1.5516 -0.6633 -0.9845
 2645SOL     vw10580   7.076   6.540   6.594  0.2801  0.3049 -0.2303
 2646SOL     ow10581   5.343   2.728   1.037  0.0611 -0.3099  0.1945
 2646SOL     hw10582   5.433   2.761   1.047  0.9796 -1.9318 -1.8478
 2646SOL     hw10583   5.353   2.634   1.029 -1.9911 -0.6572  1.1326
 2646SOL     vw10584   5.356   2.720   1.037 -0.0887 -0.5697  0.0488
 2647SOL     ow10585   6.464   2.465   1.045 -0.1892  0.8495 -0.0169
 2647SOL     hw10586   6.392   2.503   0.996 -0.0094  2.4531  0.9067
 2647SOL     hw10587   6.449   2.491   1.135  1.8457  1.7614  0.1195
 2647SOL     vw10588   6.453   2.473   1.050  0.1032  1.1815  0.1230
 2648SOL     ow10589   1.286   1.765   6.070 -0.8459 -0.0299  1.0097
 2648SOL     hw10590   1.344   1.768   6.147  0.0592  1.3959  0.3143
 2648SOL     hw10591   1.346   1.752   5.996 -1.4261  1.2904  0.2927
 2648SOL     vw10592   1.302   1.764   6.070 -0.8031  0.3325  0.8233
 2649SOL     ow10593   5.980   1.085   3.465  0.4299 -0.2978 -0.2082
 2649SOL     hw10594   5.886   1.094   3.480  0.2766  3.2382 -1.9870
 2649SOL     hw10595   5.988   1.079   3.369  1.9992 -1.4204 -0.0397
 2649SOL     vw10596   5.968   1.086   3.454  0.6168  0.0206 -0.4206
 2650SOL     ow10597   2.550   5.374   2.746 -0.4407 -0.3826  0.0338
 2650SOL     hw10598   2.486   5.312   2.714 -1.4037  0.5649  0.0795
 2650SOL     hw10599   2.572   5.428   2.670  2.2211 -2.2338 -0.6493
 2650SOL     vw10600   2.545   5.373   2.732 -0.2166 -0.5016 -0.0502
 2651SOL     ow10601   4.689   4.162   1.922  0.2852 -0.3169  0.3256
 2651SOL     hw10602   4.666   4.241   1.872 -0.0607 -1.0873 -0.7672
 2651SOL     hw10603   4.697   4.193   2.012  1.2685  1.1913 -0.2281
 2651SOL     vw10604   4.687   4.177   1.927  0.3695 -0.2193  0.1084
 2652SOL     ow10605   1.172   5.633   1.122 -0.9321 -0.2119 -0.3027
 2652SOL     hw10606   1.086   5.670   1.141 -1.0250 -0.0160 -1.0799
 2652SOL     hw10607   1.202   5.599   1.206 -0.4904  2.3281  0.6480
 2652SOL     vw10608   1.164   5.634   1.136 -0.8860  0.1490 -0.2797
 2653SOL     ow10609   6.874   1.693   5.203 -0.6487 -0.6082  0.0789
 2653SOL     hw10610   6.911   1.605   5.190  1.4582  0.3947 -1.3396
 2653SOL     hw10611   6.915   1.723   5.285 -0.2456 -0.4449 -0.1767
 2653SOL     vw10612   6.885   1.685   5.212 -0.3176 -0.4544 -0.1421
 2654SOL     ow10613   3.330   4.564   3.421 -0.2505  0.0057  0.4356
 2654SOL     hw10614   3.372   4.585   3.505  2.0949  0.6954 -0.7988
 2654SOL     hw10615   3.356   4.636   3.363 -2.2694 -0.1674 -0.7750
 2654SOL     vw10616   3.339   4.577   3.424 -0.2073  0.0739  0.1130
 2655SOL     ow10617   6.305   1.770   1.822  0.6480  0.5807  0.6744
 2655SOL     hw10618   6.232   1.771   1.760  0.7130  4.3998  0.4652
 2655SOL     hw10619   6.264   1.776   1.908  0.6698  0.4941  0.6912
 2655SOL     vw10620   6.290   1.771   1.825  0.6595  1.0732  0.6490
 2656SOL     ow10621   1.919   7.066   2.652  0.2176 -0.0972 -0.0242
 2656SOL     hw10622   1.936   7.143   2.706  1.2479 -1.1653  1.2227
 2656SOL     hw10623   2.005   7.039   2.620 -0.1950 -0.4138 -0.9285
 2656SOL     vw10624   1.932   7.072   2.655  0.2991 -0.2799  0.0210
 2657SOL     ow10625   0.773   1.485   0.006  0.1399  0.5068  0.6795
 2657SOL     hw10626   0.794   1.439   0.087  0.7670  1.2518  0.9645
 2657SOL     hw10627   0.804   1.427  -0.063 -0.7063 -0.2826  0.9607
 2657SOL     vw10628   0.780   1.471   0.008  0.1110  0.5009  0.7541
 2658SOL     ow10629   2.605   0.381   7.217  0.7312  0.0327 -0.4242
 2658SOL     hw10630   2.510   0.398   7.216  0.8019  0.5345 -2.2937
 2658SOL     hw10631   2.613   0.293   7.254 -0.5198 -0.3069 -0.8882
 2658SOL     vw10632   2.593   0.372   7.222  0.5754  0.0541 -0.7322
 2659SOL     ow10633   0.171   6.390   6.375 -0.0911 -0.2636  0.8981
 2659SOL     hw10634   0.190   6.336   6.299  0.5207  0.6039  0.4137
 2659SOL     hw10635   0.167   6.480   6.341 -0.1828  0.0994  1.8205
 2659SOL     vw10636   0.173   6.395   6.361 -0.0225 -0.1011  0.9561
 2660SOL     ow10637   1.935   5.088   7.110  0.5629 -0.2870  0.3762
 2660SOL     hw10638   1.858   5.119   7.061  0.7477  0.7178  0.6825
 2660SOL     hw10639   1.977   5.025   7.052  0.3419  0.2921 -0.4390
 2660SOL     vw10640   1.930   5.084   7.096  0.5582 -0.0777  0.3090
 2661SOL     ow10641   1.785   6.913   1.008  0.1970  0.3939  0.3025
 2661SOL     hw10642   1.691   6.906   1.020  0.0219  3.7139  2.1343
 2661SOL     hw10643   1.823   6.860   1.078 -0.2288 -1.2722 -0.6815
 2661SOL     vw10644   1.778   6.905   1.018  0.1178  0.6120  0.4143
 2662SOL     ow10645   5.135   5.439   0.501  0.4834  0.0311  0.5730
 2662SOL     hw10646   5.127   5.521   0.454 -2.2205 -0.1846  0.5151
 2662SOL     hw10647   5.121   5.462   0.593 -3.0542 -0.6067  0.3028
 2662SOL     vw10648   5.132   5.453   0.507 -0.3400 -0.0815  0.5297
 2663SOL     ow10649   5.867   6.991   4.911 -0.0784 -0.4390  0.3987
 2663SOL     hw10650   5.963   6.998   4.903 -0.2165  0.1927 -0.8972
 2663SOL     hw10651   5.848   6.900   4.892  0.3072 -0.7177  1.2844
 2663SOL     vw10652   5.878   6.980   4.907 -0.0455 -0.3922  0.3448
 2664SOL     ow10653   5.311   4.573   5.077 -0.0168  0.3811 -0.3232
 2664SOL     hw10654   5.332   4.606   4.989  1.4358 -0.3651 -0.2906
 2664SOL     hw10655   5.375   4.618   5.134 -0.2682  0.0757  0.1997
 2664SOL     vw10656   5.322   4.584   5.073  0.1419  0.2425 -0.2499
 2665SOL     ow10657   4.261   4.772   5.323  0.0811  0.2638  0.1395
 2665SOL     hw10658   4.242   4.832   5.250  1.7111  3.4310  2.0731
 2665SOL     hw10659   4.324   4.710   5.287 -1.3051 -0.0855 -1.8591
 2665SOL     vw10660   4.267   4.772   5.308  0.1130  0.6354  0.1307
 2666SOL     ow10661   6.082   2.095   2.171  0.1631 -0.1691  0.0147
 2666SOL     hw10662   6.048   2.126   2.255  0.5250 -0.1955  0.1707
 2666SOL     hw10663   6.122   2.010   2.190  1.6972  0.5525  0.1432
 2666SOL     vw10664   6.083   2.088   2.184  0.4132 -0.0775  0.0522
 2667SOL     ow10665   5.851   0.119   5.189  0.7408  0.1561  0.3400
 2667SOL     hw10666   5.926   0.059   5.196  0.5944 -0.1034 -0.2795
 2667SOL     hw10667   5.866   0.183   5.258  2.1528  0.7897 -0.4998
 2667SOL     vw10668   5.863   0.120   5.199  0.9081  0.2054  0.1473
 2668SOL     ow10669   3.302   2.867   4.965 -0.0246 -0.1960  0.4610
 2668SOL     hw10670   3.281   2.960   4.968 -0.4172 -0.2311 -0.6503
 2668SOL     hw10671   3.271   2.833   5.049 -0.2847  0.5887  0.6950
 2668SOL     vw10672   3.295   2.875   4.976 -0.1107 -0.0972  0.3452
 2669SOL     ow10673   0.204   1.770   1.212 -0.3643 -0.4317 -0.2958
 2669SOL     hw10674   0.275   1.779   1.149 -0.8605  0.3382 -0.7691
 2669SOL     hw10675   0.134   1.826   1.177 -0.6164  0.0821  0.9839
 2669SOL     vw10676   0.204   1.779   1.199 -0.4631 -0.2623 -0.1894
 2670SOL     ow10677   3.758   2.259   3.845 -0.2405 -0.0150  0.5436
 2670SOL     hw10678   3.820   2.195   3.880  0.3501 -1.0818 -2.1985
 2670SOL     hw10679   3.810   2.339   3.834  0.4270 -0.5978 -0.7509
 2670SOL     vw10680   3.773   2.261   3.848 -0.0746 -0.2327  0.0110
 2671SOL     ow10681   4.601   0.529   5.812  0.1732 -0.4575  0.0877
 2671SOL     hw10682   4.696   0.534   5.808  0.1150 -0.1520 -1.3620
 2671SOL     hw10683   4.571   0.565   5.729 -1.1632 -2.0367 -0.1798
 2671SOL     vw10684   4.610   0.534   5.801 -0.0110 -0.6255 -0.1392
 2672SOL     ow10685   3.324   2.528   3.614  0.3091 -0.6327  0.5283
 2672SOL     hw10686   3.320   2.462   3.544  0.1496 -0.6993  0.5987
 2672SOL     hw10687   3.389   2.493   3.675 -0.1197 -0.9636  0.8040
 2672SOL     vw10688   3.332   2.514   3.613  0.2316 -0.6851  0.5740
 2673SOL     ow10689   1.159   6.442   3.591  0.2198  1.2195  0.1976
 2673SOL     hw10690   1.068   6.458   3.564 -0.4010 -0.2884  1.2632
 2673SOL     hw10691   1.169   6.490   3.673 -0.2677 -0.1525  1.0998
 2673SOL     vw10692   1.148   6.450   3.598  0.0736  0.8395  0.4572
 2674SOL     ow10693   6.144   4.355   4.315 -0.0926  0.3005 -0.6355
 2674SOL     hw10694   6.079   4.410   4.359  0.8384  1.5408 -0.7552
 2674SOL     hw10695   6.228   4.383   4.353  0.5447  0.0750 -1.8391
 2674SOL     vw10696   6.146   4.366   4.326  0.1144  0.4344 -0.8099
 2675SOL     ow10697   4.744   7.210   2.277  0.1994 -0.8749 -0.0077
 2675SOL     hw10698   4.748   7.302   2.250 -1.1109 -0.5712  0.6804
 2675SOL     hw10699   4.705   7.165   2.203  1.5629 -1.0391 -0.6513
 2675SOL     vw10700   4.739   7.216   2.264  0.2062 -0.8564 -0.0019
 2676SOL     ow10701   4.373   7.296   3.998 -0.5894  0.4354 -0.6099
 2676SOL     hw10702   4.385   7.224   3.935  3.8499 -0.6413  1.1055
 2676SOL     hw10703   4.334   7.254   4.075 -1.2695  0.6446 -0.8381
 2676SOL     vw10704   4.370   7.281   4.000 -0.0930  0.3207 -0.4138
 2677SOL     ow10705   4.139   0.881   0.630 -0.4866  0.2747 -0.8362
 2677SOL     hw10706   4.139   0.881   0.726 -1.4149  1.4840 -0.8051
 2677SOL     hw10707   4.167   0.970   0.607  2.3356 -0.7317 -1.7656
 2677SOL     vw10708   4.143   0.893   0.640 -0.2370  0.3014 -0.9547
 2678SOL     ow10709   6.149   0.236   1.061  0.4203  0.3745 -0.4169
 2678SOL     hw10710   6.225   0.223   1.004  0.7157  0.4950 -0.0575
 2678SOL     hw10711   6.184   0.224   1.150 -0.1985 -0.6438 -0.2895
 2678SOL     vw10712   6.164   0.232   1.066  0.3774  0.2561 -0.3527
 2679SOL     ow10713   5.144   3.506   0.568  0.2852  0.6870  0.0051
 2679SOL     hw10714   5.229   3.535   0.601  0.1401 -0.6600  1.7400
 2679SOL     hw10715   5.165   3.445   0.497  0.7000  1.4177 -0.5130
 2679SOL     vw10716   5.158   3.501   0.563  0.3209  0.6057  0.1656
 2680SOL     ow10717   2.813   4.201   2.130  0.4277  0.3184  0.6242
 2680SOL     hw10718   2.902   4.185   2.099  0.7674  0.7612  1.3579
 2680SOL     hw10719   2.780   4.270   2.072 -0.3388 -1.5093 -1.2458
 2680SOL     vw10720   2.820   4.208   2.118  0.3713  0.1357  0.4743
 2681SOL     ow10721   7.180   6.382   2.544 -0.1340 -0.9344  0.3105
 2681SOL     hw10722   7.121   6.457   2.554  1.1387  0.4455 -1.7154
 2681SOL     hw10723   7.257   6.404   2.596  0.4586 -0.5352 -0.6976
 2681SOL     vw10724   7.182   6.395   2.552  0.1121 -0.6998 -0.0898
 2682SOL     ow10725   1.817   0.367   2.734 -0.1636  0.2950  0.5391
 2682SOL     hw10726   1.759   0.348   2.660 -0.4415  0.2169  0.7757
 2682SOL     hw10727   1.903   0.376   2.694 -0.0930 -0.9670  0.3341
 2682SOL     vw10728   1.821   0.365   2.719 -0.1909  0.1182  0.5432
 2683SOL     ow10729   0.818   3.424   1.244 -0.3401 -0.3059 -0.0782
 2683SOL     hw10730   0.728   3.394   1.255 -0.3912 -0.2279 -0.2831
 2683SOL     hw10731   0.823   3.454   1.153 -0.1236 -0.2571 -0.0515
 2683SOL     vw10732   0.807   3.424   1.233 -0.3183 -0.2892 -0.1017
 2684SOL     ow10733   3.552   2.301   1.853  0.1231  0.0182 -0.7963
 2684SOL     hw10734   3.543   2.395   1.861 -2.1894 -0.1512 -0.7798
 2684SOL     hw10735   3.494   2.277   1.781 -0.3680 -1.5355  0.0565
 2684SOL     vw10736   3.543   2.310   1.844 -0.2468 -0.2092 -0.6816
 2685SOL     ow10737   6.853   4.798   6.362  0.4011  0.1830 -0.2435
 2685SOL     hw10738   6.902   4.825   6.440  1.7756  0.4092 -1.1535
 2685SOL     hw10739   6.890   4.851   6.291 -1.8866  1.1191 -0.8243
 2685SOL     vw10740   6.865   4.808   6.363  0.2804  0.3362 -0.4404
 2686SOL     ow10741   7.343   1.596   3.536 -0.1392  0.1433  0.0420
 2686SOL     hw10742   7.407   1.617   3.605  0.1255 -0.6050  0.0403
 2686SOL     hw10743   7.338   1.675   3.482 -0.1793  0.6593  0.7891
 2686SOL     vw10744   7.351   1.609   3.538 -0.1094  0.1127  0.1403
 2687SOL     ow10745   6.617   5.644   1.145  0.4420 -0.0949 -0.0178
 2687SOL     hw10746   6.553   5.585   1.185  1.6573 -1.3852  0.1252
 2687SOL     hw10747   6.675   5.668   1.217  0.7692  0.1488 -0.3579
 2687SOL     vw10748   6.616   5.639   1.160  0.6454 -0.2329 -0.0437
 2688SOL     ow10749   3.969   2.943   0.907 -0.3669 -0.1874 -0.4485
 2688SOL     hw10750   3.893   2.885   0.907 -0.3138 -0.2628 -0.1005
 2688SOL     hw10751   4.021   2.916   0.832 -2.6815  2.5590 -3.3351
 2688SOL     vw10752   3.966   2.932   0.897 -0.6653  0.1650 -0.7834
 2689SOL     ow10753   1.943   1.825   6.456 -0.2274  0.2525 -0.3928
 2689SOL     hw10754   1.884   1.793   6.524  0.3720 -0.7425 -0.3246
 2689SOL     hw10755   1.995   1.749   6.431 -1.5839  0.1017 -3.1829
 2689SOL     vw10756   1.942   1.811   6.461 -0.3273  0.1013 -0.7520
 2690SOL     ow10757   1.199   4.662   5.419  0.7227  0.0506 -0.0635
 2690SOL     hw10758   1.293   4.663   5.436  0.7423 -2.8070  0.4829
 2690SOL     hw10759   1.164   4.594   5.477 -2.2674  3.1529  2.1619
 2690SOL     vw10760   1.206   4.653   5.429  0.3307  0.0832  0.3021
 2691SOL     ow10761   5.151   1.794   1.798  0.1157 -0.5723 -0.9666
 2691SOL     hw10762   5.168   1.815   1.890  0.5297  0.2547 -1.2192
 2691SOL     hw10763   5.058   1.774   1.795 -0.3250  1.1919 -0.6490
 2691SOL     vw10764   5.141   1.794   1.810  0.1121 -0.2304 -0.9581
 2692SOL     ow10765   4.873   0.786   3.684 -0.6196 -0.1714  0.0768
 2692SOL     hw10766   4.787   0.815   3.715 -1.2137  2.1842 -3.2336
 2692SOL     hw10767   4.928   0.864   3.691  0.6704 -1.0735  0.2377
 2692SOL     vw10768   4.869   0.800   3.689 -0.5281  0.0204 -0.3387
 2693SOL     ow10769   2.400   6.285   6.214 -0.0236 -0.3141 -0.1183
 2693SOL     hw10770   2.470   6.274   6.278 -0.1800 -0.0847  0.0981
 2693SOL     hw10771   2.329   6.327   6.263 -0.2562 -0.4050 -0.3708
 2693SOL     vw10772   2.400   6.289   6.229 -0.0747 -0.2956 -0.1228
 2694SOL     ow10773   1.541   6.813   6.343 -0.3523 -0.4381  0.3056
 2694SOL     hw10774   1.578   6.725   6.330  1.6889  0.1554  1.5622
 2694SOL     hw10775   1.489   6.828   6.264 -0.3512 -2.5731 -0.1789
 2694SOL     vw10776   1.539   6.803   6.331 -0.0827 -0.6416  0.4072
 2695SOL     ow10777   6.809   4.550   6.479 -0.4362 -0.3586  0.4017
 2695SOL     hw10778   6.720   4.521   6.464 -0.8482  1.1077 -0.2016
 2695SOL     hw10779   6.818   4.629   6.425  1.1101 -0.2858  0.7100
 2695SOL     vw10780   6.799   4.557   6.470 -0.2863 -0.1554  0.3626
 2696SOL     ow10781   4.151   1.635   5.184 -1.1496 -0.3141 -0.1040
 2696SOL     hw10782   4.073   1.661   5.135 -1.2944 -2.6533 -1.2286
 2696SOL     hw10783   4.138   1.543   5.205 -0.2921  0.1561  2.9376
 2696SOL     vw10784   4.139   1.626   5.180 -1.0557 -0.5607  0.1488
 2697SOL     ow10785   6.236   2.253   3.203 -0.0801  0.2545 -0.5210
 2697SOL     hw10786   6.192   2.197   3.267 -0.7836 -0.8540 -1.8950
 2697SOL     hw10787   6.254   2.334   3.249  0.5754 -0.9371  1.4414
 2697SOL     vw10788   6.232   2.256   3.218 -0.0868 -0.0490 -0.4432
 2698SOL     ow10789   5.507   2.415   2.534  0.0817 -0.0377 -0.1200
 2698SOL     hw10790   5.528   2.492   2.482 -0.3074  0.3468  0.2896
 2698SOL     hw10791   5.429   2.377   2.492  0.6323 -0.5591 -0.6856
 2698SOL     vw10792   5.499   2.420   2.522  0.1030 -0.0558 -0.1407
 2699SOL     ow10793   5.064   1.405   6.967 -0.7515 -0.6605 -0.0524
 2699SOL     hw10794   5.138   1.381   7.023 -0.5951  0.2339  0.1414
 2699SOL     hw10795   4.998   1.337   6.985 -0.7972 -0.2709  1.4096
 2699SOL     vw10796   5.065   1.393   6.977 -0.7367 -0.4912  0.1659
 2700SOL     ow10797   4.197   6.603   4.039  1.1287  0.0095 -0.1636
 2700SOL     hw10798   4.263   6.560   3.986  0.9651 -0.8576  0.3098
 2700SOL     hw10799   4.246   6.644   4.110  1.0660 -2.2884  1.3143
 2700SOL     vw10800   4.212   6.603   4.041  1.0989 -0.4079  0.0937
 2701poe    c3110801   6.457   5.839   3.995 -0.6096  0.0875  0.0260
 2701poe     o210802   6.556   5.927   4.043 -0.5990  0.4420 -0.6259
 2701poe    c2310803   6.501   6.031   4.121 -0.4628  0.3602 -0.4167
 2701poe    c2310804   6.621   6.114   4.168  0.0254 -0.5017 -0.1153
 2701poe     o210805   6.735   6.037   4.197  0.1845 -0.2422 -0.0381
 2701poe    c2310806   6.842   6.113   4.247 -0.2854  0.2569  0.2212
 2701poe    c2310807   6.970   6.034   4.281 -0.0854  0.6183  0.3133
 2701poe     o210808   7.050   5.991   4.173 -0.4047 -0.3665  0.4601
 2701poe    c2310809   7.142   5.895   4.221  0.1317  0.0362  0.2470
 2701poe    c2310810   7.186   5.797   4.111  0.3380  0.5662 -0.1446
 2701poe     o210811   7.070   5.730   4.067  0.4141  0.2958  0.0697
 2701poe    c3110812   7.099   5.626   3.975  1.1605  0.2975  0.2930
 2702poe    c3110813   4.817   4.147   0.063 -0.1337  0.4447  1.1332
 2702poe     o210814   4.716   4.061   0.017  0.4635  0.1173  0.4159
 2702poe    c2310815   4.739   4.017  -0.115 -0.3078  0.5915  0.1164
 2702poe    c2310816   4.657   4.087  -0.226 -0.6492 -0.7840 -0.5230
 2702poe     o210817   4.524   4.046  -0.205 -0.5548 -0.4164  0.9715
 2702poe    c2310818   4.436   4.095  -0.304  0.2437  0.5588  0.7210
 2702poe    c2310819   4.324   3.988  -0.303  0.2552  0.5417  0.2950
 2702poe     o210820   4.290   3.951  -0.171  0.4979  0.5127  0.3499
 2702poe    c2310821   4.154   3.964  -0.137  0.3361 -0.2704  0.0338
 2702poe    c2310822   4.119   3.872  -0.019  0.3332 -0.4589 -0.1145
 2702poe     o210823   4.191   3.900   0.099  0.0930  0.5119 -0.1921
 2702poe    c3110824   4.146   3.836   0.216  0.3179  0.5828 -0.0659
 2703poe    c3110825   3.597   3.184   0.952 -0.0173 -0.0660 -0.2089
 2703poe     o210826   3.509   3.105   1.029  0.0099 -0.1286 -0.2420
 2703poe    c2310827   3.570   3.071   1.151 -0.5233 -0.4131 -0.0558
 2703poe    c2310828   3.457   2.992   1.220 -0.5258 -0.5442 -0.2101
 2703poe     o210829   3.407   2.880   1.150 -0.0582 -0.2534 -1.0150
 2703poe    c2310830   3.297   2.842   1.229  0.1933  0.6337 -0.2200
 2703poe    c2310831   3.221   2.725   1.165  0.5080  0.0204  0.5172
 2703poe     o210832   3.286   2.600   1.161  0.2872 -0.0851  0.1279
 2703poe    c2310833   3.228   2.517   1.062 -0.1769  0.4941 -0.0885
 2703poe    c2310834   3.332   2.412   1.021 -0.6045 -0.0507  0.2104
 2703poe     o210835   3.433   2.487   0.957 -0.0747 -0.5877  0.4046
 2703poe    c3110836   3.526   2.396   0.904  0.8898  0.5240  0.1363
 2704poe    c3110837   6.153   1.891   0.102  0.2493  0.7061 -0.4700
 2704poe     o210838   6.078   1.991   0.168 -0.0137 -0.0659  0.4183
 2704poe    c2310839   5.967   2.031   0.091  0.1845 -0.3524 -0.0183
 2704poe    c2310840   5.845   1.988   0.173 -0.6486  0.4959 -0.7941
 2704poe     o210841   5.826   2.059   0.293 -0.0677 -0.9129  0.1498
 2704poe    c2310842   5.691   2.060   0.335  0.0114  0.2850  0.4159
 2704poe    c2310843   5.696   2.116   0.478  0.1701 -0.0177  0.5300
 2704poe     o210844   5.758   2.242   0.466  0.6164 -0.2425  0.4734
 2704poe    c2310845   5.749   2.321   0.583 -0.0982  0.4887 -0.0726
 2704poe    c2310846   5.861   2.425   0.566  0.1747  0.1428 -0.3925
 2704poe     o210847   5.973   2.366   0.503 -0.0748 -0.4603 -0.2745
 2704poe    c3110848   6.085   2.445   0.535 -0.1579 -0.4853  0.0877
 2705poe    c3110849   4.496   5.471   3.398 -0.4780  0.3938  0.0541
 2705poe     o210850   4.403   5.545   3.473 -0.3623 -0.1047  0.6949
 2705poe    c2310851   4.461   5.661   3.530  0.1736 -0.0762  0.0908
 2705poe    c2310852   4.389   5.709   3.657 -0.0479  0.3834 -0.2068
 2705poe     o210853   4.269   5.778   3.633 -0.3875 -0.1073  0.0841
 2705poe    c2310854   4.235   5.827   3.761 -0.0854 -0.5520  0.3348
 2705poe    c2310855   4.101   5.902   3.770  0.2417  0.0771  0.0063
 2705poe     o210856   4.004   5.815   3.717  0.5276 -0.1558 -0.1363
 2705poe    c2310857   3.880   5.864   3.762  0.6973 -0.1429  0.3212
 2705poe    c2310858   3.759   5.816   3.680  0.5354  0.1090  0.4102
 2705poe     o210859   3.739   5.851   3.545 -0.3288 -0.3587  0.4067
 2705poe    c3110860   3.671   5.747   3.479  0.1776 -0.0837 -0.5790
 2706poe    c3110861   5.046   4.353   0.552  0.3633  0.2803  0.9651
 2706poe     o210862   5.044   4.494   0.550 -0.0708  0.2748  0.9330
 2706poe    c2310863   4.914   4.546   0.539 -0.0530  0.1396 -0.0440
 2706poe    c2310864   4.906   4.699   0.552 -0.0687  0.1572 -0.2686
 2706poe     o210865   4.954   4.753   0.431 -0.0476 -0.4867 -0.5516
 2706poe    c2310866   5.004   4.879   0.469 -0.8437 -0.3243 -0.0150
 2706poe    c2310867   5.070   4.945   0.346 -0.3793 -0.3259  0.2292
 2706poe     o210868   4.998   5.045   0.277 -0.0297 -0.0821  0.2177
 2706poe    c2310869   5.005   5.041   0.136  0.5334  0.3609  0.2300
 2706poe    c2310870   4.917   5.160   0.094 -0.1819 -0.5008 -0.7679
 2706poe     o210871   4.806   5.155   0.182  0.3131  0.0449 -0.0972
 2706poe    c3110872   4.731   5.269   0.146 -0.2265 -0.2321  0.1379
 2707poe    c3110873   0.035   4.903   6.071  0.2842 -0.1314 -0.2846
 2707poe     o210874   0.025   4.791   6.156 -0.4417  0.2994  0.2043
 2707poe    c2310875   0.134   4.766   6.243 -0.3068 -0.0290 -0.0577
 2707poe    c2310876   0.164   4.616   6.257 -0.0605  0.0111 -0.1527
 2707poe     o210877   0.047   4.567   6.318  0.3234  0.0348  0.6055
 2707poe    c2310878   0.046   4.429   6.348  0.3598 -0.1345 -0.1626
 2707poe    c2310879   0.046   4.337   6.224 -0.6041 -0.3929  0.0248
 2707poe     o210880  -0.080   4.344   6.160 -0.2741  0.9185 -0.5142
 2707poe    c2310881  -0.081   4.261   6.047 -0.0811  0.1060  0.0717
 2707poe    c2310882  -0.156   4.128   6.063  0.1296 -0.0393 -0.1385
 2707poe     o210883  -0.113   4.047   6.171 -0.2256 -0.1753 -0.0982
 2707poe    c3110884  -0.140   3.911   6.149  0.2963 -0.2799 -0.0861
 2708poe    c3110885   3.279   0.242   5.396  0.2911  0.4196  0.1481
 2708poe     o210886   3.411   0.251   5.443  0.3545 -0.5414  0.1626
 2708poe    c2310887   3.508   0.258   5.341  0.2023  0.0790  0.0592
 2708poe    c2310888   3.638   0.305   5.409 -0.0702  0.9193  0.0102
 2708poe     o210889   3.638   0.241   5.534  0.3309  0.0658 -0.4214
 2708poe    c2310890   3.745   0.282   5.616  0.0014  0.8302 -0.3733
 2708poe    c2310891   3.742   0.236   5.763  0.2247  0.1961 -0.5645
 2708poe     o210892   3.610   0.251   5.811  0.4120 -0.2867  0.1175
 2708poe    c2310893   3.605   0.228   5.950 -0.1074 -1.0532 -0.0212
 2708poe    c2310894   3.460   0.247   5.997 -0.0453 -0.0249 -0.2195
 2708poe     o210895   3.371   0.144   5.963 -0.0642  0.0137 -0.2876
 2708poe    c3110896   3.245   0.190   6.007  0.3641  0.3376  0.6157
 2709poe    c3110897   0.374   6.888   6.964 -0.0071  0.3026  0.1454
 2709poe     o210898   0.264   6.963   6.916 -0.4708 -0.4348  0.0424
 2709poe    c2310899   0.302   7.096   6.889 -0.2937 -0.4232  0.3379
 2709poe    c2310900   0.185   7.171   6.822  0.1509 -0.0886 -0.0731
 2709poe     o210901   0.069   7.130   6.892  0.0776  0.2630  0.0175
 2709poe    c2310902  -0.044   7.200   6.847 -0.2938 -0.3026  0.0667
 2709poe    c2310903  -0.167   7.149   6.924 -0.5367  0.0198 -0.1058
 2709poe     o210904  -0.156   7.009   6.933 -0.0976  0.0719  0.1814
 2709poe    c2310905  -0.283   6.949   6.948 -0.3060  0.5240  0.2386
 2709poe    c2310906  -0.258   6.798   6.971  0.1921  0.5974  0.2106
 2709poe     o210907  -0.186   6.768   7.089  0.0006  0.8725  0.4007
 2709poe    c3110908  -0.260   6.782   7.208 -0.3768 -0.1308  0.2916
 2710poe    c3110909   0.335   4.595   5.420 -0.1596  0.6744 -0.3970
 2710poe     o210910   0.230   4.588   5.515  0.0864  0.1295 -0.1595
 2710poe    c2310911   0.225   4.699   5.603  0.3345  0.0046  0.0135
 2710poe    c2310912   0.127   4.657   5.714  0.6266 -0.8994 -0.0625
 2710poe     o210913   0.013   4.603   5.651 -0.0486  0.0922  0.2897
 2710poe    c2310914  -0.079   4.582   5.756 -0.2030  0.2705  0.1895
 2710poe    c2310915  -0.206   4.501   5.721  0.0172  0.1990 -0.4589
 2710poe     o210916  -0.167   4.383   5.654 -0.1813  0.0583 -0.3289
 2710poe    c2310917  -0.268   4.285   5.647 -0.1223  0.0067 -0.4526
 2710poe    c2310918  -0.218   4.168   5.560  0.4902  0.5067 -0.7856
 2710poe     o210919  -0.093   4.122   5.606  0.2739  0.5111 -0.1789
 2710poe    c3110920  -0.057   4.001   5.544  0.9913  0.2140  0.7943
 2711poe    c3110921   6.004   3.817   4.492 -0.1290  0.2782 -0.0254
 2711poe     o210922   6.088   3.758   4.395 -0.1426  0.1469  0.0419
 2711poe    c2310923   6.139   3.639   4.450 -0.1223  0.1440  0.0170
 2711poe    c2310924   6.246   3.574   4.359 -0.1479 -0.6710  0.5559
 2711poe     o210925   6.373   3.634   4.371 -0.3726 -0.0268 -0.2099
 2711poe    c2310926   6.453   3.607   4.258 -0.5255 -0.4358 -0.2225
 2711poe    c2310927   6.519   3.471   4.229  0.4081  0.0788 -0.5571
 2711poe     o210928   6.614   3.429   4.324  0.2262  0.1425 -0.3458
 2711poe    c2310929   6.656   3.297   4.299 -0.2882 -0.1066  0.0921
 2711poe    c2310930   6.642   3.200   4.418 -0.5425 -0.2598 -0.0637
 2711poe     o210931   6.743   3.228   4.512 -0.7791  0.1541  0.0681
 2711poe    c3110932   6.825   3.117   4.541  0.1692  0.6869 -0.5338
 2712poe    c3110933   5.613   1.693   0.226  0.3773  0.5359 -0.0267
 2712poe     o210934   5.489   1.680   0.160 -0.1317  0.4146  0.9480
 2712poe    c2310935   5.469   1.545   0.127 -0.2139  0.6182  0.1571
 2712poe    c2310936   5.329   1.511   0.071  0.0256 -0.2434  0.0615
 2712poe     o210937   5.276   1.617  -0.005  0.4347 -0.7777 -0.9892
 2712poe    c2310938   5.146   1.595  -0.054 -0.1039 -0.2392  0.1565
 2712poe    c2310939   5.074   1.712  -0.124  0.6390  0.1482  0.0372
 2712poe     o210940   5.066   1.821  -0.035 -0.3951 -0.1068  0.2632
 2712poe    c2310941   5.027   1.942  -0.096  0.0944  0.0330  0.2258
 2712poe    c2310942   5.034   2.067  -0.006 -0.2358  0.1063  0.1529
 2712poe     o210943   5.170   2.100   0.016 -0.3183  0.5957 -0.0462
 2712poe    c3110944   5.189   2.208   0.104  0.3127  0.4586 -0.0105
 2713poe    c3110945   0.141   3.184   5.516  0.0774 -0.3261 -0.8313
 2713poe     o210946   0.255   3.235   5.582 -0.3481 -0.1708 -0.2094
 2713poe    c2310947   0.373   3.211   5.509  0.0680  0.6176  0.1856
 2713poe    c2310948   0.489   3.285   5.577  0.5759 -0.0694  0.0742
 2713poe     o210949   0.577   3.364   5.501  0.1528  0.4609  0.1260
 2713poe    c2310950   0.650   3.455   5.580 -0.2041  0.1501  0.8131
 2713poe    c2310951   0.582   3.592   5.592  0.2182  0.4492 -0.1519
 2713poe     o210952   0.558   3.655   5.468 -0.3202  0.1061 -0.2250
 2713poe    c2310953   0.488   3.777   5.472 -0.2329  0.1471  0.0418
 2713poe    c2310954   0.574   3.901   5.504  0.3127 -0.2471  0.1147
 2713poe     o210955   0.635   3.932   5.381  0.2035 -0.1469  0.0849
 2713poe    c3110956   0.679   4.066   5.375 -0.6009  0.1572  0.8730
 2714poe    c3110957   3.545   5.248   5.979 -0.8282 -0.4848  0.3399
 2714poe     o210958   3.497   5.117   5.958 -0.7732 -0.4909  0.2548
 2714poe    c2310959   3.412   5.122   5.845 -0.7283  0.5950  0.2568
 2714poe    c2310960   3.348   4.983   5.832 -0.6600  0.5860  0.0025
 2714poe     o210961   3.254   4.968   5.937 -0.5419  0.4199  0.0843
 2714poe    c2310962   3.151   4.878   5.904 -0.2933 -0.0088  0.4512
 2714poe    c2310963   3.036   4.907   6.002 -0.1840  0.1101  0.5452
 2714poe     o210964   3.091   4.892   6.131  0.1089  0.0694  0.4165
 2714poe    c2310965   2.981   4.886   6.220 -0.4517  0.5221 -0.2327
 2714poe    c2310966   3.023   4.943   6.357  0.5167 -0.2363 -0.2022
 2714poe     o210967   3.162   4.925   6.370  0.6052  0.0464 -0.7426
 2714poe    c3110968   3.212   4.991   6.484 -0.0682 -0.2939 -0.2445
 2715poe    c3110969   0.660   4.030   4.235 -0.3331 -0.1529  0.4907
 2715poe     o210970   0.541   4.093   4.193 -0.0963  0.4022  0.6477
 2715poe    c2310971   0.558   4.226   4.237 -0.0847  0.4312  0.5549
 2715poe    c2310972   0.440   4.316   4.196 -0.1314  0.0514 -0.1663
 2715poe     o210973   0.361   4.353   4.307 -0.1643 -0.1927 -0.1087
 2715poe    c2310974   0.253   4.438   4.275 -0.0033  0.1891  0.3514
 2715poe    c2310975   0.146   4.391   4.175  0.1620  0.8833 -0.1598
 2715poe     o210976   0.022   4.458   4.170  0.1448  0.8247 -0.5722
 2715poe    c2310977  -0.096   4.381   4.179  0.8023 -0.1268  0.1318
 2715poe    c2310978  -0.134   4.278   4.287 -0.4015  0.4307  0.2665
 2715poe     o210979  -0.065   4.157   4.262 -0.0991  0.5792  0.3789
 2715poe    c3110980  -0.077   4.055   4.359  0.1329 -0.3669 -0.5779
 2716poe    c3110981   3.904   1.629   2.065 -0.0528  0.4843 -0.3833
 2716poe     o210982   4.023   1.636   1.989 -0.1515 -0.5469 -0.6487
 2716poe    c2310983   4.103   1.523   2.018  0.1058 -0.2157 -0.0541
 2716poe    c2310984   4.238   1.517   1.946  0.2037 -0.2447  0.1326
 2716poe     o210985   4.309   1.637   1.968 -0.2112  0.0324 -0.0360
 2716poe    c2310986   4.423   1.644   1.886 -0.4507 -0.4214 -0.4099
 2716poe    c2310987   4.460   1.789   1.853 -0.7294 -0.1650  0.3850
 2716poe     o210988   4.368   1.835   1.756  0.0574 -1.0312 -0.8075
 2716poe    c2310989   4.432   1.936   1.682 -0.0764 -0.0093  0.4240
 2716poe    c2310990   4.325   2.011   1.602 -0.0330 -0.6646 -0.2671
 2716poe     o210991   4.228   2.027   1.703 -0.3239 -0.0824 -0.6314
 2716poe    c3110992   4.145   2.141   1.694  0.0575  0.2069 -0.5163
 2717poe    c3110993   4.730   4.021   5.583 -0.3872 -0.3720  0.2986
 2717poe     o210994   4.621   4.053   5.499 -0.0805  0.2046  0.1165
 2717poe    c2310995   4.503   3.993   5.545 -0.1789  0.4396  0.1731
 2717poe    c2310996   4.391   4.014   5.442  0.0157 -1.0091 -0.3644
 2717poe     o210997   4.447   3.991   5.315  0.5767  0.0481 -0.3219
 2717poe    c2310998   4.350   4.005   5.213  0.0513  0.6408  0.2567
 2717poe    c2310999   4.392   4.012   5.066 -0.4546 -0.0115  0.0766
 2717poe     o211000   4.485   3.912   5.031 -0.1577  0.3974 -0.3207
 2717poe    c2311001   4.538   3.935   4.902  0.6782  0.0848 -0.0431
 2717poe    c2311002   4.654   3.839   4.869  0.2198 -0.2399 -0.7402
 2717poe     o211003   4.754   3.841   4.968 -0.0543 -0.1846 -0.4603
 2717poe    c3111004   4.851   3.742   4.939  0.7642  0.4738 -0.0390
 2718poe    c3111005   1.986   4.744   4.706  0.0019  0.4379 -0.0134
 2718poe     o211006   1.959   4.644   4.802  0.8544  0.0386 -0.1870
 2718poe    c2311007   1.885   4.551   4.725 -0.0033  0.6056 -0.0623
 2718poe    c2311008   1.883   4.417   4.800  0.5582  0.6936  0.1185
 2718poe     o211009   1.820   4.406   4.926  0.1201 -0.3563 -0.1862
 2718poe    c2311010   1.776   4.272   4.935  0.4691 -0.4516  0.0781
 2718poe    c2311011   1.727   4.219   5.071  0.7662 -0.1294  0.3136
 2718poe     o211012   1.612   4.281   5.122  0.1526 -0.4793 -0.6251
 2718poe    c2311013   1.562   4.186   5.214  0.2323 -0.3883 -0.4876
 2718poe    c2311014   1.447   4.258   5.288  0.5914  0.0583 -0.3622
 2718poe     o211015   1.344   4.299   5.202  0.0980  0.3372  0.3495
 2718poe    c3111016   1.213   4.291   5.254  0.1046  0.6716  0.4190
 2719poe    c3111017   4.128   6.932   2.377  0.8398  0.1865 -0.6511
 2719poe     o211018   4.142   7.064   2.331  0.4921  0.5270  0.2048
 2719poe    c2311019   4.150   7.086   2.191  0.3142 -0.0946  0.0946
 2719poe    c2311020   4.190   7.227   2.143 -0.7784  0.1773 -0.0276
 2719poe     o211021   4.083   7.319   2.152 -0.5214  0.4421  0.3430
 2719poe    c2311022   4.129   7.452   2.157  0.2835  0.2012 -0.3957
 2719poe    c2311023   4.006   7.528   2.211 -0.1828 -0.3751 -0.6400
 2719poe     o211024   3.969   7.512   2.346 -0.6193 -0.3292 -0.7523
 2719poe    c2311025   3.846   7.580   2.355 -0.3358  0.1462 -0.4875
 2719poe    c2311026   3.797   7.558   2.500 -0.6048  0.2257 -0.5676
 2719poe     o211027   3.808   7.422   2.534  0.3412  0.4739  0.1405
 2719poe    c3111028   3.768   7.397   2.667 -0.2991  0.5389 -0.0378
 2720poe    c3111029   5.185   6.709   4.087  0.2825  0.0985  0.4288
 2720poe     o211030   5.084   6.774   4.013  0.5432 -0.1304 -0.1333
 2720poe    c2311031   5.109   6.797   3.876 -0.4442 -0.2259 -0.3367
 2720poe    c2311032   5.006   6.899   3.823 -0.0920  0.3571  0.0775
 2720poe     o211033   5.019   7.029   3.876  0.3691  0.0763  0.6629
 2720poe    c2311034   5.133   7.103   3.837  0.3347 -0.2294 -0.0330
 2720poe    c2311035   5.110   7.250   3.875 -0.2270 -0.3721  0.1885
 2720poe     o211036   5.085   7.246   4.014 -0.6448 -0.4807  0.1130
 2720poe    c2311037   5.069   7.372   4.075  0.5651 -0.2201 -0.0853
 2720poe    c2311038   5.040   7.333   4.221  0.2975 -0.7530 -0.2775
 2720poe     o211039   4.937   7.237   4.230 -0.1925 -0.1618  0.4837
 2720poe    c3111040   4.875   7.257   4.355 -0.4584  0.3348  0.2809
 2721poe    c3111041   5.009   0.990   6.685  0.3435  0.0328 -0.5068
 2721poe     o211042   5.142   0.942   6.682  0.3976  0.1436  0.0905
 2721poe    c2311043   5.147   0.822   6.756  0.6327  0.1932  0.1564
 2721poe    c2311044   5.251   0.731   6.688  0.0410 -0.4334  0.0700
 2721poe     o211045   5.378   0.790   6.709 -0.0993 -0.1157  0.0253
 2721poe    c2311046   5.486   0.756   6.625 -0.0671  1.4436 -0.5975
 2721poe    c2311047   5.605   0.835   6.681  0.5774 -0.0021  0.1184
 2721poe     o211048   5.582   0.972   6.655 -0.3129 -0.1262  0.2190
 2721poe    c2311049   5.682   1.055   6.711 -0.1602 -0.2178  0.0853
 2721poe    c2311050   5.650   1.206   6.710 -0.3679 -0.2640 -0.5914
 2721poe     o211051   5.537   1.248   6.783  0.0556  0.3784 -0.3024
 2721poe    c3111052   5.529   1.384   6.819  0.3739  0.1113  0.8084
 2722poe    c3111053   1.914   5.575   4.665 -0.3813  0.1470 -0.5889
 2722poe     o211054   1.875   5.561   4.799 -0.0154  0.2460 -0.4708
 2722poe    c2311055   1.857   5.426   4.833 -1.0123  0.4280 -0.2270
 2722poe    c2311056   1.734   5.406   4.923 -0.4667 -0.1506  0.4084
 2722poe     o211057   1.734   5.500   5.029 -0.0647  0.1744  0.1226
 2722poe    c2311058   1.757   5.432   5.150  0.4524  0.5744  0.2540
 2722poe    c2311059   1.674   5.473   5.273 -0.0255 -0.5072  0.3081
 2722poe     o211060   1.700   5.607   5.309  0.2386 -0.4515 -0.0722
 2722poe    c2311061   1.635   5.642   5.430 -0.1207 -0.1942 -0.3397
 2722poe    c2311062   1.638   5.787   5.482  0.5173 -0.3745  0.1249
 2722poe     o211063   1.596   5.874   5.380  0.3948 -0.2958  0.2419
 2722poe    c3111064   1.577   6.008   5.417 -0.2716 -0.1911 -0.4411
 2723poe    c3111065   5.117   5.254   4.177  0.5499  0.3369 -0.6273
 2723poe     o211066   5.153   5.361   4.261 -0.0912 -0.1480  0.2814
 2723poe    c2311067   5.190   5.322   4.391  0.4355 -0.3277  0.0824
 2723poe    c2311068   5.163   5.421   4.506 -0.0682 -0.2184 -0.1270
 2723poe     o211069   5.260   5.523   4.516 -0.0686 -0.2119 -0.1880
 2723poe    c2311070   5.197   5.632   4.580  0.3361  0.1144 -0.3423
 2723poe    c2311071   5.241   5.756   4.500 -0.1089  0.5013  0.0098
 2723poe     o211072   5.167   5.784   4.383 -0.2664 -0.0913 -0.0367
 2723poe    c2311073   5.229   5.719   4.274  0.1306  0.3856 -0.0966
 2723poe    c2311074   5.114   5.681   4.180  0.4369 -0.5393 -0.1120
 2723poe     o211075   5.083   5.800   4.110 -0.2224 -0.4396  0.3373
 2723poe    c3111076   5.057   5.764   3.976  0.8047  0.0717 -0.0130
 2724poe    c3111077   7.153   5.141   1.419 -0.0597 -0.0573 -0.5757
 2724poe     o211078   7.019   5.168   1.381 -0.1984  0.1376  0.0348
 2724poe    c2311079   6.948   5.233   1.484 -0.3130 -0.1452  0.1355
 2724poe    c2311080   6.873   5.141   1.582 -0.2864 -0.6117 -0.2753
 2724poe     o211081   6.785   5.055   1.515 -0.2475 -0.6936 -0.2215
 2724poe    c2311082   6.729   4.970   1.613  0.3936 -0.3940  0.4136
 2724poe    c2311083   6.629   4.866   1.559  0.3507 -0.1847  0.0819
 2724poe     o211084   6.696   4.775   1.475 -0.1877 -0.3957 -0.1276
 2724poe    c2311085   6.623   4.685   1.395 -0.0299 -0.5526 -0.0965
 2724poe    c2311086   6.524   4.762   1.306  0.2129 -0.4551 -0.2824
 2724poe     o211087   6.584   4.820   1.193  0.3106  0.0608  0.0284
 2724poe    c3111088   6.522   4.767   1.078 -0.8001 -0.0970  0.6869
 2725poe    c3111089   3.211   6.598   6.051  0.7518  0.1621 -0.6917
 2725poe     o211090   3.074   6.621   6.031  0.5812 -0.1561  0.0986
 2725poe    c2311091   3.051   6.639   5.893 -0.0342 -0.3594  0.1689
 2725poe    c2311092   2.909   6.607   5.845  0.0067 -0.4153  0.0850
 2725poe     o211093   2.807   6.662   5.925  0.3066 -0.1362  0.2755
 2725poe    c2311094   2.681   6.639   5.866  0.0761 -0.1325  0.7577
 2725poe    c2311095   2.576   6.682   5.970 -0.3270  0.6980  0.0295
 2725poe     o211096   2.617   6.632   6.096  0.1701  1.5899  0.2333
 2725poe    c2311097   2.513   6.662   6.186 -0.3727  0.5608 -0.0356
 2725poe    c2311098   2.551   6.653   6.335 -0.4517 -0.2396 -0.0571
 2725poe     o211099   2.652   6.744   6.373 -0.2565 -0.5307  0.1231
 2725poe    c3111100   2.710   6.725   6.500 -0.6955  0.2071  0.4340
 2726poe    c3111101   3.033   3.621   4.370 -0.3499 -0.4297  0.4168
 2726poe     o211102   3.173   3.615   4.385 -0.3180 -0.1681  0.2475
 2726poe    c2311103   3.210   3.544   4.269  0.1498  0.6937 -0.1384
 2726poe    c2311104   3.358   3.522   4.234  0.0231  0.0787 -0.3085
 2726poe     o211105   3.423   3.465   4.345 -0.3759 -0.2620 -0.2488
 2726poe    c2311106   3.559   3.452   4.309 -0.5214 -0.1478 -0.8385
 2726poe    c2311107   3.635   3.390   4.427 -0.9038 -0.3763 -0.7068
 2726poe     o211108   3.621   3.477   4.537  0.6573 -0.2598 -0.5760
 2726poe    c2311109   3.697   3.452   4.654  0.6328 -0.0369 -0.5112
 2726poe    c2311110   3.651   3.551   4.762 -0.3798 -0.2765 -0.7085
 2726poe     o211111   3.510   3.546   4.767 -0.3623 -0.3027 -0.1522
 2726poe    c3111112   3.451   3.628   4.865  0.2026 -0.5154  0.3715
 2727poe    c3111113   3.494   5.566   6.552 -0.0864 -0.0225 -0.0745
 2727poe     o211114   3.527   5.457   6.634  0.2174  0.3036  0.2391
 2727poe    c2311115   3.509   5.336   6.564  0.3619  0.4337 -0.0238
 2727poe    c2311116   3.637   5.251   6.566  0.3590  0.4152 -0.5630
 2727poe     o211117   3.679   5.252   6.701 -0.8147 -0.3917 -0.1719
 2727poe    c2311118   3.807   5.194   6.712 -0.5358  0.3231  0.3912
 2727poe    c2311119   3.860   5.246   6.847  0.3304 -0.2697  0.2872
 2727poe     o211120   3.773   5.212   6.953 -0.1191 -0.0614 -0.0130
 2727poe    c2311121   3.799   5.282   7.073  0.3972 -0.4266  0.0949
 2727poe    c2311122   3.687   5.242   7.171  0.0431 -0.0839 -0.1631
 2727poe     o211123   3.563   5.260   7.106 -0.1469  0.7507  0.4155
 2727poe    c3111124   3.459   5.228   7.195 -0.2602  0.6301  0.2403
 2728poe    c3111125   0.717   0.167   5.854  0.0564 -0.0603 -1.4475
 2728poe     o211126   0.609   0.257   5.864  0.3652  0.1772 -0.0310
 2728poe    c2311127   0.574   0.295   5.733 -0.6485 -1.1053 -0.1557
 2728poe    c2311128   0.466   0.403   5.758  0.5132 -0.0267  0.3005
 2728poe     o211129   0.521   0.528   5.792  0.6535 -0.0070  0.0055
 2728poe    c2311130   0.412   0.615   5.813  0.7206  0.0309  0.2047
 2728poe    c2311131   0.448   0.716   5.923  0.2750 -0.5864  0.9268
 2728poe     o211132   0.586   0.744   5.924  0.1360  0.2550 -0.3022
 2728poe    c2311133   0.618   0.812   6.044  0.0946 -0.4029  0.0885
 2728poe    c2311134   0.765   0.857   6.039  0.1017 -0.4758 -0.4836
 2728poe     o211135   0.846   0.761   5.975  0.3252 -0.3444 -0.4022
 2728poe    c3111136   0.982   0.770   6.010  0.2114  0.1125 -0.0769
 2729poe    c3111137   5.622   2.999   5.012 -0.5480 -0.1622  0.4045
 2729poe     o211138   5.491   2.947   5.016 -0.5004 -0.2980  0.2419
 2729poe    c2311139   5.449   2.872   4.905 -0.3314  0.0736 -0.0753
 2729poe    c2311140   5.317   2.793   4.922 -0.0490 -0.3313  0.2462
 2729poe     o211141   5.200   2.868   4.897  0.5118  0.4809  0.0050
 2729poe    c2311142   5.166   2.960   4.998  0.1497  0.0363  0.2938
 2729poe    c2311143   5.027   3.014   4.958  0.2353 -0.0538 -0.1299
 2729poe     o211144   4.934   2.908   4.964  0.1876  0.0005  0.0800
 2729poe    c2311145   4.803   2.960   4.955  0.1198 -0.0760  0.5700
 2729poe    c2311146   4.708   2.839   4.956 -0.2920  0.2342 -0.0846
 2729poe     o211147   4.760   2.718   4.905  0.4838  0.4011  0.3012
 2729poe    c3111148   4.718   2.612   4.988 -0.8151  0.5741 -0.1149
 2730poe    c3111149   2.298   3.276   5.315  0.5010 -0.1972  0.1771
 2730poe     o211150   2.290   3.400   5.247  0.0056 -0.5388 -0.3986
 2730poe    c2311151   2.341   3.518   5.305 -0.1742 -0.6006 -0.1121
 2730poe    c2311152   2.493   3.529   5.285 -0.2446  0.3003 -0.1921
 2730poe     o211153   2.535   3.593   5.167  0.0828 -0.0658 -0.2773
 2730poe    c2311154   2.676   3.602   5.163  0.0857 -0.0393 -0.1279
 2730poe    c2311155   2.754   3.705   5.079  0.1632  0.0782  0.0886
 2730poe     o211156   2.776   3.828   5.145 -0.3833  0.0279  0.3746
 2730poe    c2311157   2.856   3.922   5.077 -0.1684 -0.2740  0.2081
 2730poe    c2311158   2.765   4.017   4.997  0.1002  0.2045  0.4648
 2730poe     o211159   2.719   3.951   4.882 -0.1676  0.3095  0.5126
 2730poe    c3111160   2.594   4.011   4.854 -0.1209 -0.0683 -0.5516
 2731poe    c3111161   0.732   0.916   1.264  0.1854  0.2032 -0.5692
 2731poe     o211162   0.735   0.777   1.242 -0.4192  0.0581  0.2017
 2731poe    c2311163   0.858   0.726   1.285 -0.0095  0.4382 -0.4893
 2731poe    c2311164   0.883   0.577   1.251  0.1175  0.4251 -0.3408
 2731poe     o211165   0.904   0.552   1.114 -0.7552  0.0311 -0.4093
 2731poe    c2311166   0.933   0.419   1.078 -0.0731  0.0279  0.1245
 2731poe    c2311167   0.963   0.407   0.928  0.3083  0.0376  0.1989
 2731poe     o211168   0.907   0.523   0.871 -0.2226 -0.1281  0.3816
 2731poe    c2311169   0.914   0.518   0.730 -0.2581 -0.6402  0.3954
 2731poe    c2311170   0.798   0.446   0.659 -0.5948  0.0419  0.2353
 2731poe     o211171   0.674   0.488   0.710 -0.4875  0.1462  0.4106
 2731poe    c3111172   0.578   0.449   0.615 -0.2399  0.3662  0.0676
 2732poe    c3111173   3.560   2.036   2.704  0.2521  0.3276  0.4127
 2732poe     o211174   3.548   2.143   2.794  0.0064  0.5200  0.1528
 2732poe    c2311175   3.418   2.193   2.777 -0.3571 -0.3392  0.3588
 2732poe    c2311176   3.377   2.268   2.905 -0.4695 -0.1713  0.2256
 2732poe     o211177   3.464   2.376   2.929 -0.7236 -0.0618  0.6672
 2732poe    c2311178   3.424   2.454   3.039 -0.7565  0.5149  0.2510
 2732poe    c2311179   3.503   2.581   3.074  0.0862 -0.0763  0.5094
 2732poe     o211180   3.485   2.674   2.970  0.7078  0.2937  0.7267
 2732poe    c2311181   3.582   2.776   2.954  0.1696  0.8521  0.9726
 2732poe    c2311182   3.725   2.736   2.913 -0.2010  0.2148  0.2727
 2732poe     o211183   3.748   2.712   2.776 -1.0112  0.3408  0.1065
 2732poe    c3111184   3.789   2.821   2.695  0.4242 -0.1922  0.0905
 2733poe    c3111185   3.129   5.368   3.916 -0.1060 -0.0774 -0.6806
 2733poe     o211186   3.053   5.484   3.891 -0.2617 -0.0881 -0.2512
 2733poe    c2311187   2.992   5.517   3.769 -0.0968  0.0990 -0.2836
 2733poe    c2311188   2.926   5.656   3.782 -0.2645 -0.0284  0.2311
 2733poe     o211189   3.029   5.749   3.810 -0.1817 -0.1108  0.2029
 2733poe    c2311190   2.980   5.881   3.812 -0.0365 -0.0580  0.2526
 2733poe    c2311191   3.099   5.973   3.844  0.4208 -0.4897 -0.1790
 2733poe     o211192   3.158   5.941   3.968  0.1999 -0.2642 -0.0151
 2733poe    c2311193   3.214   6.046   4.043 -0.2133 -0.2164  0.2351
 2733poe    c2311194   3.286   5.981   4.162  0.5445 -0.0305 -0.1125
 2733poe     o211195   3.342   5.863   4.108  0.2297 -0.4608  0.4892
 2733poe    c3111196   3.441   5.806   4.190  0.3615 -0.5545  0.2656
 2734poe    c3111197   1.456   4.691   3.081  0.4827  0.2439  0.3554
 2734poe     o211198   1.590   4.650   3.099  0.3861 -0.3703 -0.2745
 2734poe    c2311199   1.662   4.755   3.159 -0.1602  0.2718 -0.7441
 2734poe    c2311200   1.809   4.713   3.168  0.1099  1.2851 -0.2689
 2734poe     o211201   1.863   4.671   3.045  0.0857  0.0813  0.1195
 2734poe    c2311202   2.001   4.640   3.049 -0.0251 -0.3938  0.3052
 2734poe    c2311203   2.107   4.734   3.108 -0.4297  0.1058  0.2428
 2734poe     o211204   2.121   4.853   3.033  0.3062 -0.4819 -0.5763
 2734poe    c2311205   2.210   4.950   3.084  0.3361 -0.4238 -0.7398
 2734poe    c2311206   2.229   5.059   2.976 -0.3055 -0.2870 -0.7216
 2734poe     o211207   2.109   5.120   2.936 -0.2456  0.4882  0.2229
 2734poe    c3111208   2.139   5.237   2.864  0.4729  0.4203  0.4065
 2735poe    c3111209   3.090   2.820   4.022 -0.1056  0.2426 -0.3295
 2735poe     o211210   2.967   2.766   3.979 -0.2798  0.2486  0.1504
 2735poe    c2311211   2.953   2.805   3.844  0.4189  0.0679  0.0188
 2735poe    c2311212   2.853   2.728   3.756 -0.1572  0.0943  0.6437
 2735poe     o211213   2.877   2.591   3.735 -0.1754  0.2281 -0.3186
 2735poe    c2311214   2.899   2.552   3.602 -0.5353 -0.2666 -0.2369
 2735poe    c2311215   3.003   2.439   3.607  0.1931  0.4015 -0.2235
 2735poe     o211216   2.956   2.347   3.703  0.9533  0.3459  0.1034
 2735poe    c2311217   2.981   2.210   3.681  0.5225  0.3021 -0.1097
 2735poe    c2311218   2.967   2.158   3.825 -1.3919  0.4072 -0.2259
 2735poe     o211219   2.879   2.240   3.899 -0.6165  0.8108  0.2607
 2735poe    c3111220   2.775   2.171   3.965 -0.2765  0.5098  0.4860
 2736poe    c3111221   6.118   4.466   1.541 -0.1995 -0.5427  0.3373
 2736poe     o211222   6.050   4.384   1.449  0.1314  0.2112 -0.6001
 2736poe    c2311223   5.940   4.447   1.388 -0.2667 -0.2589 -0.3787
 2736poe    c2311224   5.894   4.375   1.260 -0.1997  0.4205 -0.7890
 2736poe     o211225   5.848   4.243   1.277  0.3492  0.3333  0.0927
 2736poe    c2311226   5.781   4.208   1.157  0.6209  0.1617 -0.0085
 2736poe    c2311227   5.817   4.063   1.119 -0.0091  0.0768 -0.2810
 2736poe     o211228   5.954   4.031   1.129 -0.1177 -0.3854 -0.2320
 2736poe    c2311229   6.017   4.054   1.005 -0.6328 -0.2566 -0.4757
 2736poe    c2311230   6.080   4.192   0.979  0.3424 -0.6896 -0.4706
 2736poe     o211231   6.174   4.240   1.073 -0.7463  0.2215  0.1792
 2736poe    c3111232   6.206   4.373   1.039 -0.5731  0.0490 -0.3428
 2737poe    c3111233   2.287   4.700   6.118  0.1844  0.0336  0.1007
 2737poe     o211234   2.210   4.816   6.097  0.1045 -0.0001  0.2127
 2737poe    c2311235   2.284   4.908   6.019 -0.0484  0.0017  0.0691
 2737poe    c2311236   2.207   5.041   6.020 -0.6175 -0.3210  0.5797
 2737poe     o211237   2.080   5.038   5.960 -0.2578  0.1304 -0.2297
 2737poe    c2311238   2.023   5.167   5.966 -0.1573  0.1391  0.6831
 2737poe    c2311239   1.877   5.154   5.918  0.2879 -0.6239 -0.5218
 2737poe     o211240   1.822   5.059   6.006  0.0639  0.4922  0.5811
 2737poe    c2311241   1.684   5.036   5.988  0.1252  0.5900 -0.0346
 2737poe    c2311242   1.644   5.019   6.136  0.0567 -0.0076 -0.1218
 2737poe     o211243   1.709   4.918   6.210 -0.3333 -0.0135  0.2116
 2737poe    c3111244   1.676   4.933   6.347 -0.6376 -0.0549  0.1433
 2738poe    c3111245   1.118   3.722   1.874 -0.0114  0.3735 -0.2727
 2738poe     o211246   1.167   3.591   1.851  0.2092  0.3445  0.3338
 2738poe    c2311247   1.302   3.605   1.809  0.0514  0.8127 -0.0395
 2738poe    c2311248   1.376   3.470   1.820 -0.3668  0.5963  0.1791
 2738poe     o211249   1.357   3.380   1.713 -0.2114  0.4339  0.2866
 2738poe    c2311250   1.470   3.296   1.719 -0.1714  0.4795  0.1874
 2738poe    c2311251   1.481   3.228   1.581 -0.8313 -0.0978  0.4097
 2738poe     o211252   1.619   3.212   1.558 -0.8861 -0.2942  0.2169
 2738poe    c2311253   1.665   3.080   1.544 -0.0057  0.0979 -0.7449
 2738poe    c2311254   1.809   3.070   1.491  0.4774 -0.1172  0.5672
 2738poe     o211255   1.817   3.130   1.363  0.1310 -0.8232  0.2104
 2738poe    c3111256   1.777   3.049   1.255  0.3882 -0.0630 -0.4558
 2739poe    c3111257   2.476   2.219   6.110 -0.3398  0.1496 -0.1532
 2739poe     o211258   2.336   2.233   6.109 -0.4050 -0.3678  0.5438
 2739poe    c2311259   2.276   2.146   6.015 -0.8037 -0.1485  0.5923
 2739poe    c2311260   2.244   2.002   6.058 -0.3516 -0.2851  0.4790
 2739poe     o211261   2.349   1.930   6.119  0.1794 -0.0160 -0.1058
 2739poe    c2311262   2.306   1.860   6.234  0.2640 -0.0212 -0.0777
 2739poe    c2311263   2.421   1.772   6.287  0.2419 -0.1551 -0.2510
 2739poe     o211264   2.515   1.837   6.370 -0.1001 -0.3734  0.3138
 2739poe    c2311265   2.641   1.774   6.366 -0.0109 -0.1778  0.0597
 2739poe    c2311266   2.725   1.792   6.494  0.4953 -0.0016 -0.2946
 2739poe     o211267   2.752   1.925   6.533  0.2428  0.0533 -0.3095
 2739poe    c3111268   2.822   2.008   6.443 -0.2405 -0.1159 -0.8460
 2740poe    c3111269   2.124   5.861   0.505  0.5751 -0.9898 -0.0341
 2740poe     o211270   1.988   5.858   0.543  0.3148  0.1505 -0.8220
 2740poe    c2311271   1.900   5.874   0.435 -0.0753  0.3263 -0.4792
 2740poe    c2311272   1.809   5.998   0.432  0.0015  0.3996  0.1967
 2740poe     o211273   1.731   6.010   0.549  0.1414 -0.3929  0.3744
 2740poe    c2311274   1.617   5.928   0.560 -0.4371  0.3298 -0.1503
 2740poe    c2311275   1.556   5.980   0.692 -0.2057  0.8253 -0.2376
 2740poe     o211276   1.641   5.947   0.799 -0.7477 -0.2278 -0.1189
 2740poe    c2311277   1.604   5.992   0.928 -0.0098 -0.0009  0.0172
 2740poe    c2311278   1.709   6.023   1.037 -0.1066 -0.0548  0.1254
 2740poe     o211279   1.793   6.131   1.006  0.3404 -0.5041 -0.2314
 2740poe    c3111280   1.861   6.163   1.125  0.4293  0.1673 -0.4602
 2741poe    c3111281   0.991   1.102   4.698  0.3082 -0.1706 -0.0210
 2741poe     o211282   1.094   1.019   4.747  0.3216 -0.0207  0.2086
 2741poe    c2311283   1.212   1.095   4.747 -0.0662  0.5872  0.2526
 2741poe    c2311284   1.326   1.008   4.802 -0.3370  0.0796  0.0201
 2741poe     o211285   1.284   0.960   4.927  0.3066  0.4861  0.3989
 2741poe    c2311286   1.388   0.883   4.983  0.2751  0.6409  0.6739
 2741poe    c2311287   1.329   0.816   5.109 -0.2336  0.2970  0.2566
 2741poe     o211288   1.194   0.774   5.103 -0.1071 -0.2021  0.8214
 2741poe    c2311289   1.187   0.649   5.168  0.2767 -0.7580 -0.1685
 2741poe    c2311290   1.037   0.619   5.187  0.1864 -0.2278 -0.0245
 2741poe     o211291   0.982   0.662   5.064  0.1615  0.2767  0.1590
 2741poe    c3111292   0.844   0.634   5.071  0.1323  0.5060  0.4998
 2742poe    c3111293   4.663   4.858   5.326 -0.8924 -0.0654 -0.3521
 2742poe     o211294   4.674   4.813   5.193  0.1779 -0.2651 -0.2087
 2742poe    c2311295   4.813   4.803   5.171  0.2661 -0.4569  0.4338
 2742poe    c2311296   4.856   4.741   5.037  0.5702  0.0180  0.3099
 2742poe     o211297   4.829   4.603   5.032  0.4587  0.0686 -0.6678
 2742poe    c2311298   4.754   4.565   4.918 -0.9807  0.1512  0.2254
 2742poe    c2311299   4.712   4.419   4.895  0.6239 -0.1832 -0.7020
 2742poe     o211300   4.827   4.342   4.868  0.3535 -0.8993  0.1400
 2742poe    c2311301   4.885   4.358   4.740 -0.7663 -0.1854 -0.2883
 2742poe    c2311302   4.813   4.266   4.640 -0.1991 -0.1747 -0.7053
 2742poe     o211303   4.865   4.136   4.662  0.3204  0.2017  0.3539
 2742poe    c3111304   4.839   4.048   4.555 -0.1337  0.6613  0.0829
 2743poe    c3111305   2.446   2.753   3.034  0.4088  0.7207 -0.0324
 2743poe     o211306   2.398   2.878   2.991 -0.4702  0.4155  0.0445
 2743poe    c2311307   2.260   2.909   2.998 -0.5981 -0.2867  0.7025
 2743poe    c2311308   2.225   3.059   2.996 -0.1846 -0.1970 -0.2265
 2743poe     o211309   2.279   3.133   3.103 -0.4878 -0.1187 -0.1261
 2743poe    c2311310   2.211   3.256   3.115  0.0946  0.1819  0.1274
 2743poe    c2311311   2.271   3.321   3.241 -0.1756  0.1884  0.2527
 2743poe     o211312   2.411   3.316   3.234 -0.1978 -0.1172 -0.0228
 2743poe    c2311313   2.475   3.411   3.317 -0.0401 -0.0826 -0.1830
 2743poe    c2311314   2.594   3.453   3.229  0.0213  0.3539  0.1084
 2743poe     o211315   2.660   3.330   3.210 -0.2153  0.2143  0.1889
 2743poe    c3111316   2.784   3.304   3.272  0.0960 -0.1985 -0.5955
 2744poe    c3111317   1.405   1.402   6.809 -0.3721 -0.7062  0.1336
 2744poe     o211318   1.415   1.535   6.855  0.5607 -0.7389  0.0589
 2744poe    c2311319   1.284   1.586   6.869  0.7656 -0.2170  0.0954
 2744poe    c2311320   1.292   1.642   7.012 -0.1420 -0.3136  0.1926
 2744poe     o211321   1.387   1.745   7.029 -0.3932 -0.0482 -0.0297
 2744poe    c2311322   1.331   1.840   7.117  0.7441 -0.3335  1.0303
 2744poe    c2311323   1.403   1.974   7.099 -0.1404 -0.0355 -0.5209
 2744poe     o211324   1.538   1.935   7.084  0.1185  0.6800 -0.1408
 2744poe    c2311325   1.622   2.042   7.048  0.3271  0.5618 -0.0071
 2744poe    c2311326   1.766   1.990   7.038  0.2365  0.4025 -0.5075
 2744poe     o211327   1.767   1.858   6.990  0.2464 -0.1547  0.9892
 2744poe    c3111328   1.901   1.818   6.974  0.3415  0.5953 -0.2314
 2745poe    c3111329   4.332   6.400   6.217  0.0365  0.6134  0.3925
 2745poe     o211330   4.213   6.467   6.252 -0.3331  0.2879 -0.2000
 2745poe    c2311331   4.238   6.591   6.315  0.3492 -0.2171  0.5540
 2745poe    c2311332   4.107   6.666   6.349  0.3493  0.0947 -0.1142
 2745poe     o211333   4.039   6.684   6.227  0.1169 -0.2713 -0.0415
 2745poe    c2311334   3.898   6.691   6.232  0.1215  0.1754 -0.3793
 2745poe    c2311335   3.858   6.710   6.085 -0.0908 -0.0727 -0.3559
 2745poe     o211336   3.891   6.598   6.006 -0.0531 -0.0716 -0.3423
 2745poe    c2311337   3.906   6.625   5.868  0.0368  0.4901 -0.2246
 2745poe    c2311338   4.049   6.573   5.847 -0.1369 -0.0561 -0.0833
 2745poe     o211339   4.041   6.434   5.873 -0.4802 -0.0139  0.0415
 2745poe    c3111340   4.165   6.369   5.855 -0.4270  0.1840 -0.3367
 2746poe    c3111341   6.372   3.383   0.725  0.1755 -0.7163  0.6268
 2746poe     o211342   6.286   3.410   0.833 -0.1782  0.0378  0.1696
 2746poe    c2311343   6.340   3.356   0.952  0.4619 -0.6429 -0.4198
 2746poe    c2311344   6.437   3.452   1.023 -0.0808 -0.2381 -0.2148
 2746poe     o211345   6.542   3.382   1.087  0.0286 -0.1524 -0.3002
 2746poe    c2311346   6.620   3.476   1.157  0.4201 -0.0497 -0.8684
 2746poe    c2311347   6.768   3.434   1.156  0.4007 -0.1733  0.2816
 2746poe     o211348   6.801   3.430   1.019 -0.3898  0.3166  0.0696
 2746poe    c2311349   6.937   3.417   0.984 -0.4035 -0.3261  0.2267
 2746poe    c2311350   6.966   3.414   0.832 -0.5473 -0.3861  0.2007
 2746poe     o211351   6.937   3.282   0.792  0.2012 -0.3453 -0.4909
 2746poe    c3111352   6.881   3.283   0.663 -0.4666  0.2460 -0.1982
 2747poe    c3111353   5.122   5.713   3.173 -0.2066  0.5830  0.2323
 2747poe     o211354   4.997   5.743   3.114 -0.1295  0.2197 -0.1204
 2747poe    c2311355   4.969   5.642   3.020 -0.3160  0.2781 -0.1276
 2747poe    c2311356   4.858   5.680   2.920 -0.5812 -0.5051 -0.1386
 2747poe     o211357   4.733   5.708   2.978 -0.3542  0.0204  0.1011
 2747poe    c2311358   4.645   5.599   2.987 -0.3963  0.0201 -0.3058
 2747poe    c2311359   4.502   5.656   2.974 -0.3552  0.2555  0.2578
 2747poe     o211360   4.492   5.766   3.062  0.1859  0.3015  0.2655
 2747poe    c2311361   4.371   5.837   3.078  0.1758  0.3603 -0.0477
 2747poe    c2311362   4.408   5.951   3.175  0.2038  0.2607  0.0582
 2747poe     o211363   4.525   6.007   3.120  0.2053  0.0300 -0.1779
 2747poe    c3111364   4.570   6.116   3.198  0.1368  0.0876 -0.2183
 2748poe    c3111365   0.439   6.305   3.022 -0.2227 -0.4029  0.6336
 2748poe     o211366   0.547   6.216   3.008  0.2504  0.1654  0.6385
 2748poe    c2311367   0.662   6.274   3.064  0.2740  0.7216  0.0283
 2748poe    c2311368   0.776   6.174   3.091 -0.1216  0.2456 -0.0538
 2748poe     o211369   0.738   6.081   3.190  0.2802  0.1513  0.0139
 2748poe    c2311370   0.845   5.990   3.200 -0.3418 -0.6138 -0.1910
 2748poe    c2311371   0.795   5.849   3.236 -0.4583 -0.3797  0.5820
 2748poe     o211372   0.739   5.787   3.123  0.5488 -0.4569  0.1122
 2748poe    c2311373   0.706   5.655   3.160 -0.8205 -0.1294  0.1136
 2748poe    c2311374   0.648   5.581   3.038 -0.4538 -0.3693  0.0840
 2748poe     o211375   0.529   5.654   3.019 -0.5825 -0.4519  0.5754
 2748poe    c3111376   0.451   5.602   2.914 -0.4713  0.3609  0.0783
 2749poe    c3111377   5.227   3.982   5.265  0.5695  0.4946 -0.0971
 2749poe     o211378   5.277   3.916   5.151 -0.1514 -0.0631 -0.1004
 2749poe    c2311379   5.175   3.836   5.094 -0.1409  0.0937 -0.3417
 2749poe    c2311380   5.218   3.773   4.961 -0.0365 -0.1280 -0.2041
 2749poe     o211381   5.201   3.864   4.855 -0.4600  0.6745  0.5434
 2749poe    c2311382   5.312   3.859   4.768 -0.7470  0.4751  0.1849
 2749poe    c2311383   5.298   3.937   4.636  0.2766  0.1780 -0.1096
 2749poe     o211384   5.201   3.873   4.557  0.0363  0.2712  0.1091
 2749poe    c2311385   5.219   3.908   4.422  0.5338 -0.9592 -0.1566
 2749poe    c2311386   5.121   3.829   4.334  0.4149 -0.3681 -0.5596
 2749poe     o211387   5.110   3.691   4.363  0.1170 -0.1649  0.3076
 2749poe    c3111388   5.010   3.646   4.275  0.5110 -0.1124 -0.1691
 2750poe    c3111389   0.844   5.746   1.096  0.1406  0.1806  0.7582
 2750poe     o211390   0.950   5.832   1.127  0.2062  0.4392 -0.1665
 2750poe    c2311391   0.925   5.946   1.207  0.5071  0.4461 -0.0814
 2750poe    c2311392   0.932   5.914   1.358  0.2655  0.1126 -0.1408
 2750poe     o211393   0.928   6.025   1.444  0.6148  0.0269 -0.0103
 2750poe    c2311394   0.912   5.973   1.574  0.3296  0.2087  0.0290
 2750poe    c2311395   0.920   6.078   1.686  0.0182  0.7803 -0.4771
 2750poe     o211396   0.824   6.167   1.633 -0.1182  0.8541 -0.1076
 2750poe    c2311397   0.798   6.255   1.740 -0.3787  0.6847 -0.0335
 2750poe    c2311398   0.685   6.349   1.693 -0.9182 -0.3532 -0.8730
 2750poe     o211399   0.741   6.388   1.570  0.5309 -0.1150 -0.1670
 2750poe    c3111400   0.684   6.509   1.526  0.5064 -0.0590  0.0180
 2751poe    c3111401   6.711   1.552   0.936 -0.1572  0.0784  0.9292
 2751poe     o211402   6.597   1.485   0.986 -0.2482 -0.7691 -0.3668
 2751poe    c2311403   6.618   1.458   1.123  1.0085 -0.6501 -0.5208
 2751poe    c2311404   6.510   1.369   1.187  0.3447  0.3484 -0.2221
 2751poe     o211405   6.530   1.232   1.164 -0.0653  0.2945 -0.2604
 2751poe    c2311406   6.411   1.157   1.174 -0.2376  0.6241  0.1416
 2751poe    c2311407   6.435   1.028   1.255  0.8978  0.7247 -0.0248
 2751poe     o211408   6.551   0.963   1.209  0.2690 -0.2293 -0.2985
 2751poe    c2311409   6.585   0.869   1.308 -0.1269  0.4034  0.4535
 2751poe    c2311410   6.664   0.741   1.274 -0.3880  0.4800 -0.4682
 2751poe     o211411   6.802   0.771   1.281 -0.2667 -0.2380  0.2736
 2751poe    c3111412   6.873   0.653   1.251  0.3161  0.0193  0.6220
 2752poe    c3111413   6.652   1.888   1.730  0.6549 -0.2354 -0.0754
 2752poe     o211414   6.581   1.804   1.818 -0.4650  0.1888 -0.5523
 2752poe    c2311415   6.661   1.751   1.921  0.0189  0.0662 -0.9859
 2752poe    c2311416   6.578   1.673   2.024  0.2504  0.1508 -0.7325
 2752poe     o211417   6.492   1.590   1.950 -0.0889 -0.1210 -0.0455
 2752poe    c2311418   6.403   1.536   2.045 -0.3870  0.0622 -0.2185
 2752poe    c2311419   6.310   1.438   1.972 -0.1756 -0.0918 -0.2789
 2752poe     o211420   6.298   1.484   1.839 -0.2282 -0.0986 -0.2767
 2752poe    c2311421   6.193   1.424   1.767 -0.3981  0.0119 -0.1211
 2752poe    c2311422   6.204   1.453   1.616  0.4212  0.2589 -0.0218
 2752poe     o211423   6.212   1.590   1.584  0.4043  0.2988  0.1427
 2752poe    c3111424   6.232   1.602   1.445  0.8958 -0.7099  0.1145
 2753poe    c3111425   6.428   6.079   6.040 -0.4410 -0.2096  0.2510
 2753poe     o211426   6.541   6.036   6.113 -0.0542  0.2822 -0.0529
 2753poe    c2311427   6.653   6.064   6.032  0.0911  0.1686  0.1089
 2753poe    c2311428   6.725   6.197   6.063 -0.0108  0.0644  0.8153
 2753poe     o211429   6.751   6.206   6.201  0.3340  0.4636  0.7244
 2753poe    c2311430   6.832   6.318   6.230  0.6713  0.3741  0.1512
 2753poe    c2311431   6.865   6.305   6.380 -0.0728 -0.4889  0.2473
 2753poe     o211432   6.759   6.325   6.471 -0.0791 -0.1408  0.1635
 2753poe    c2311433   6.804   6.298   6.602 -0.0715  0.0986  0.2123
 2753poe    c2311434   6.693   6.333   6.703  0.5097  0.4406  0.7411
 2753poe     o211435   6.654   6.467   6.725 -0.5133  0.2340  0.2548
 2753poe    c3111436   6.568   6.491   6.834 -0.4634  0.5329  0.2279
 2754poe    c3111437   2.930   1.382   1.241  0.8119 -0.4560  0.7126
 2754poe     o211438   2.821   1.292   1.242  0.4023  0.0220 -0.1148
 2754poe    c2311439   2.770   1.274   1.372  0.3513 -1.0186 -0.2703
 2754poe    c2311440   2.637   1.200   1.354 -0.3604  0.2480 -0.3832
 2754poe     o211441   2.664   1.089   1.272  0.1068  0.3723 -0.3969
 2754poe    c2311442   2.552   1.005   1.289  0.5560 -0.0887  0.3676
 2754poe    c2311443   2.567   0.873   1.211  0.2525 -0.0112  0.1762
 2754poe     o211444   2.587   0.907   1.075 -0.5012 -0.0332  0.0530
 2754poe    c2311445   2.559   0.806   0.981 -0.2267 -0.0324 -0.0318
 2754poe    c2311446   2.640   0.822   0.851  0.2097 -0.4769  0.1834
 2754poe     o211447   2.596   0.938   0.785  0.3540 -0.4699  0.0997
 2754poe    c3111448   2.649   0.936   0.654 -0.3274 -0.0714 -0.1932
 2755poe    c3111449   5.279   5.860   6.368 -1.1838 -0.3455 -0.8306
 2755poe     o211450   5.213   5.930   6.472 -0.4772 -0.5969 -0.2055
 2755poe    c2311451   5.228   6.070   6.465 -1.1344 -0.5138 -0.0285
 2755poe    c2311452   5.149   6.152   6.568 -0.4304 -0.2718  0.3225
 2755poe     o211453   5.171   6.101   6.698 -0.2904 -0.1000  0.3665
 2755poe    c2311454   5.161   6.201   6.797  0.9235  0.4518 -0.0438
 2755poe    c2311455   5.159   6.127   6.932 -0.6406  0.3686 -0.0915
 2755poe     o211456   5.066   6.021   6.943 -0.4020  0.1785  0.1069
 2755poe    c2311457   5.092   5.946   7.059 -0.0585  0.6206  0.3219
 2755poe    c2311458   4.968   5.854   7.053  0.2208  0.2810 -0.4774
 2755poe     o211459   4.977   5.792   6.927  0.1356  0.3939 -0.5399
 2755poe    c3111460   4.911   5.668   6.934  0.2242  0.4049  0.7645
 2756poe    c3111461   3.452   4.693   2.921 -0.1291  0.2140 -0.5736
 2756poe     o211462   3.538   4.584   2.893 -0.5129  0.0026 -0.9414
 2756poe    c2311463   3.530   4.490   2.997  0.6819  0.3668 -0.5011
 2756poe    c2311464   3.569   4.344   2.965 -0.3526  0.2201 -1.1177
 2756poe     o211465   3.702   4.312   2.998 -0.4307  0.4982 -0.5204
 2756poe    c2311466   3.753   4.200   2.929 -0.3075  0.4006 -0.2721
 2756poe    c2311467   3.905   4.209   2.908 -0.2481  0.3731  0.1373
 2756poe     o211468   3.933   4.320   2.825  0.2464  0.2084  0.0762
 2756poe    c2311469   4.072   4.318   2.802  0.2105 -0.1048 -0.1293
 2756poe    c2311470   4.092   4.341   2.652 -0.4263 -0.0350 -0.2057
 2756poe     o211471   4.042   4.470   2.624  0.1408  0.0723 -0.7731
 2756poe    c3111472   4.014   4.513   2.493 -0.2973  0.9649 -0.3939
 2757poe    c3111473   0.810   6.571   0.111 -0.0462  0.3189  0.0317
 2757poe     o211474   0.884   6.687   0.083  0.7853 -0.1132  0.4209
 2757poe    c2311475   0.989   6.650  -0.004 -0.1040 -0.2334 -0.6092
 2757poe    c2311476   1.034   6.787  -0.058  0.0027 -0.0831 -0.1361
 2757poe     o211477   1.029   6.881   0.048 -0.2528 -0.5522  0.2723
 2757poe    c2311478   1.069   7.012   0.016 -0.4105 -0.3302  0.9695
 2757poe    c2311479   1.086   7.103   0.139 -0.0771  0.6988  0.1779
 2757poe     o211480   0.977   7.116   0.227 -0.3182  0.6076 -0.1073
 2757poe    c2311481   1.001   7.207   0.332  0.5943 -0.6226  0.7770
 2757poe    c2311482   0.874   7.248   0.409  0.8232  0.3333  0.6612
 2757poe     o211483   0.822   7.141   0.485 -0.3929  0.2787 -0.2095
 2757poe    c3111484   0.702   7.180   0.548 -0.6834 -0.0197 -0.5707
 2758poe    c3111485   1.196   1.241   5.102 -0.2020 -0.4665 -0.4854
 2758poe     o211486   1.095   1.215   5.197 -0.0484 -0.1317 -0.2275
 2758poe    c2311487   1.122   1.129   5.306 -0.2040 -0.5713 -0.5317
 2758poe    c2311488   0.987   1.094   5.370 -0.1043  0.2220  0.1391
 2758poe     o211489   0.902   1.005   5.301 -0.0444  0.0483  0.2872
 2758poe    c2311490   0.768   1.027   5.338 -0.0247  0.5635  0.0627
 2758poe    c2311491   0.668   0.964   5.239 -0.0413  0.2619  0.2681
 2758poe     o211492   0.668   1.040   5.120  0.1211  0.3606  0.3309
 2758poe    c2311493   0.571   0.988   5.031 -0.0010 -0.0045  0.6751
 2758poe    c2311494   0.552   1.086   4.913 -0.2974 -0.8570  0.0073
 2758poe     o211495   0.445   1.064   4.825 -0.3162 -0.4792 -0.0656
 2758poe    c3111496   0.423   1.171   4.736  0.7538  0.3549  0.6471
 2759poe    c3111497   2.025   5.317   2.421 -0.2317  0.2433  0.1128
 2759poe     o211498   2.132   5.400   2.381  0.1280 -0.0897  0.3864
 2759poe    c2311499   2.164   5.495   2.481 -0.6758  0.1992  0.3803
 2759poe    c2311500   2.249   5.610   2.424 -0.6834  0.5211  1.0097
 2759poe     o211501   2.161   5.667   2.330 -0.1431 -0.1198  0.0910
 2759poe    c2311502   2.185   5.797   2.281  0.1771 -0.1829  0.0779
 2759poe    c2311503   2.099   5.835   2.158  0.0910 -0.4103  0.0659
 2759poe     o211504   2.124   5.748   2.051 -0.3107 -0.5101  0.0524
 2759poe    c2311505   2.013   5.729   1.967 -0.2216 -1.1542  0.0744
 2759poe    c2311506   2.029   5.662   1.829 -0.3507 -0.5693 -0.2290
 2759poe     o211507   2.028   5.521   1.841  0.1112 -0.5241  0.3986
 2759poe    c3111508   2.056   5.486   1.707  0.3264  0.2692  0.2308
 2760poe    c3111509   6.053   4.646   6.941  0.4853  0.4289  0.8007
 2760poe     o211510   6.070   4.696   6.810  0.2769 -0.7481  0.3145
 2760poe    c2311511   5.954   4.667   6.735  0.2170  0.8444 -0.2409
 2760poe    c2311512   5.931   4.770   6.623 -0.2179 -0.0860 -1.0111
 2760poe     o211513   6.057   4.773   6.560  0.4243 -0.2770  0.2365
 2760poe    c2311514   6.067   4.853   6.444  0.8298 -0.2379  0.2985
 2760poe    c2311515   6.180   4.807   6.349  0.3584 -0.0487 -0.3580
 2760poe     o211516   6.305   4.799   6.414  0.1776  0.4325  0.0596
 2760poe    c2311517   6.416   4.860   6.352 -0.1305  0.1896 -0.7443
 2760poe    c2311518   6.533   4.838   6.450 -0.7721  0.1603  0.0242
 2760poe     o211519   6.510   4.872   6.585 -0.5236 -0.1600  0.1473
 2760poe    c3111520   6.634   4.897   6.646 -0.0828 -0.4546 -0.6143
 2761poe    c3111521   2.215   6.311   0.615 -0.0874  0.4689  0.4046
 2761poe     o211522   2.195   6.312   0.476 -0.2332  0.5408  0.4259
 2761poe    c2311523   2.055   6.301   0.464 -0.2268  0.5979  0.2873
 2761poe    c2311524   1.996   6.342   0.328 -0.9382  0.0132  0.4094
 2761poe     o211525   2.010   6.464   0.258 -0.1799 -0.1604  0.2412
 2761poe    c2311526   1.990   6.580   0.336 -0.0337  0.1257 -0.1461
 2761poe    c2311527   1.840   6.608   0.354  0.0131  0.3574 -0.1193
 2761poe     o211528   1.771   6.539   0.456  0.2918  0.0633 -0.1290
 2761poe    c2311529   1.640   6.512   0.412  0.2435  0.5182 -0.2749
 2761poe    c2311530   1.571   6.386   0.470 -0.4764  0.8119 -0.4818
 2761poe     o211531   1.564   6.424   0.606 -0.2873  0.5366 -0.3953
 2761poe    c3111532   1.479   6.337   0.679  0.9334  0.2213  0.6819
 2762poe    c3111533   6.733   4.125   4.173  0.6712  0.1432  0.3839
 2762poe     o211534   6.698   4.174   4.300  0.0179  0.0326  0.2475
 2762poe    c2311535   6.751   4.300   4.331 -0.1088  0.2258 -0.3058
 2762poe    c2311536   6.718   4.317   4.481  0.0067  0.1566 -0.2713
 2762poe     o211537   6.581   4.336   4.510  0.0682 -0.4647  0.4393
 2762poe    c2311538   6.577   4.348   4.650 -0.4703 -0.1838  0.3992
 2762poe    c2311539   6.445   4.413   4.698 -0.1441  0.4183  0.4894
 2762poe     o211540   6.331   4.332   4.685  0.2589 -0.0612 -0.0967
 2762poe    c2311541   6.217   4.402   4.729  0.3123 -0.3813  0.5461
 2762poe    c2311542   6.083   4.325   4.723 -0.0126  0.2522 -0.5200
 2762poe     o211543   6.032   4.303   4.594  0.0565 -0.1799 -0.4779
 2762poe    c3111544   5.938   4.200   4.571  0.0383 -0.3015  0.1307
 2763poe    c3111545   6.998   7.154   3.467  0.7416 -0.4482  0.5367
 2763poe     o211546   6.997   7.265   3.554 -0.1162  0.2660 -0.3606
 2763poe    c2311547   7.067   7.375   3.500  0.3671  0.1181 -0.0444
 2763poe    c2311548   7.031   7.494   3.590  0.2408  0.0573 -0.0145
 2763poe     o211549   6.894   7.491   3.624  0.1803  0.4750 -0.2135
 2763poe    c2311550   6.854   7.583   3.723 -0.1823  0.2255 -0.1257
 2763poe    c2311551   6.805   7.510   3.850  0.1972 -0.5450 -0.4153
 2763poe     o211552   6.895   7.414   3.900  0.6625  0.3573  0.5382
 2763poe    c2311553   6.860   7.386   4.034  0.1645  0.3873  0.4171
 2763poe    c2311554   6.974   7.299   4.090  0.1505  0.0754 -0.0317
 2763poe     o211555   7.007   7.178   4.025  0.0481  0.0762 -0.0854
 2763poe    c3111556   7.064   7.087   4.117  0.8697  0.3883 -0.2809
 2764poe    c3111557   0.983   4.545   4.270  0.1334  0.3176 -0.0231
 2764poe     o211558   1.041   4.500   4.150  0.1741  0.0816  0.0839
 2764poe    c2311559   0.958   4.412   4.078 -0.1754  0.0149  0.5677
 2764poe    c2311560   0.933   4.272   4.136 -0.2537  0.1095  0.7635
 2764poe     o211561   1.050   4.192   4.129 -0.6566 -0.4190 -0.0331
 2764poe    c2311562   1.031   4.054   4.151 -0.2163 -0.4244  0.3236
 2764poe    c2311563   0.975   3.974   4.032  0.1526 -0.0858 -0.0771
 2764poe     o211564   1.065   3.942   3.928  0.2102 -0.4750  0.0895
 2764poe    c2311565   1.033   3.965   3.792 -0.4454 -0.4360  0.2472
 2764poe    c2311566   1.043   4.111   3.743 -0.2667 -0.5715 -0.1271
 2764poe     o211567   1.173   4.164   3.740 -0.4894 -0.0274 -0.2955
 2764poe    c3111568   1.178   4.299   3.701 -0.4732 -0.0220 -0.2744
 2765poe    c3111569   5.491   6.041   7.149 -0.3203 -0.0947 -0.2933
 2765poe     o211570   5.556   5.921   7.184 -0.1667  0.1625  0.3125
 2765poe    c2311571   5.634   5.874   7.077 -0.0543  0.1978  0.3786
 2765poe    c2311572   5.690   5.732   7.091 -0.4298  0.0566  0.4537
 2765poe     o211573   5.794   5.719   7.185  0.1800 -0.1130 -0.2327
 2765poe    c2311574   5.846   5.590   7.160 -0.5437 -0.4755  0.1232
 2765poe    c2311575   5.987   5.575   7.220 -0.4791 -0.5440 -0.0489
 2765poe     o211576   5.996   5.557   7.359 -0.4664 -0.4639 -0.0391
 2765poe    c2311577   6.128   5.530   7.400 -0.2166  0.4926 -0.2085
 2765poe    c2311578   6.165   5.601   7.532 -0.4408 -0.2012  0.2303
 2765poe     o211579   6.162   5.741   7.517  0.6277 -0.2218 -0.3065
 2765poe    c3111580   6.152   5.807   7.640  0.2972  0.2663 -0.5928
 2766poe    c3111581   6.324   0.850   2.995 -0.1657  0.1105  0.4056
 2766poe     o211582   6.208   0.913   3.045 -0.3961 -0.2394  0.3151
 2766poe    c2311583   6.242   1.018   3.132 -0.0796 -0.0087 -0.0800
 2766poe    c2311584   6.144   1.133   3.161  0.0319  0.1795 -0.4447
 2766poe     o211585   6.011   1.108   3.201  0.0945  0.6896  0.1010
 2766poe    c2311586   5.915   1.118   3.099 -0.0122  0.1018  0.1388
 2766poe    c2311587   5.784   1.041   3.119 -0.2085  0.3935 -0.0034
 2766poe     o211588   5.808   0.904   3.141 -0.1056  0.3559 -0.3485
 2766poe    c2311589   5.744   0.863   3.260 -0.1285  0.4336 -0.3339
 2766poe    c2311590   5.651   0.744   3.231 -0.3824  0.3117  0.9244
 2766poe     o211591   5.525   0.785   3.182  0.0008  0.0882 -0.2881
 2766poe    c3111592   5.442   0.671   3.180  0.4567 -0.2866  0.9489
 2767poe    c3111593   3.855   5.154   4.212 -0.6691  0.0652  0.3053
 2767poe     o211594   3.980   5.165   4.276 -0.5122 -0.0717  0.0233
 2767poe    c2311595   4.039   5.293   4.270 -0.1368 -0.2092  0.7771
 2767poe    c2311596   4.018   5.378   4.397  0.0402 -0.0026  0.6683
 2767poe     o211597   4.109   5.358   4.502  0.0302 -0.4110  0.6021
 2767poe    c2311598   4.219   5.445   4.492 -0.0868 -0.3010  0.2790
 2767poe    c2311599   4.341   5.364   4.540 -0.4125 -0.7825  0.2912
 2767poe     o211600   4.334   5.227   4.505 -0.2013 -0.5772 -0.5733
 2767poe    c2311601   4.443   5.161   4.564 -0.4696 -0.0244  0.5813
 2767poe    c2311602   4.452   5.029   4.484  0.6025  0.2592  0.2140
 2767poe     o211603   4.369   4.929   4.539  0.6270 -0.0313 -0.2759
 2767poe    c3111604   4.438   4.808   4.561  0.1208 -0.4094 -0.7541
 2768poe    c3111605   2.737   4.686   5.987  0.0746  0.0215  0.1581
 2768poe     o211606   2.861   4.674   5.921  0.0435  0.4037  0.0228
 2768poe    c2311607   2.868   4.538   5.884 -0.2503  0.4840 -0.3317
 2768poe    c2311608   3.017   4.521   5.849 -0.3195 -0.6177 -0.1474
 2768poe     o211609   3.041   4.564   5.717  0.3997  0.4935  0.3286
 2768poe    c2311610   3.156   4.506   5.660 -0.0643  0.1094 -0.2351
 2768poe    c2311611   3.197   4.576   5.530  0.2910  0.5130  0.0921
 2768poe     o211612   3.083   4.596   5.450  0.0739 -0.1959  0.2168
 2768poe    c2311613   3.104   4.690   5.346  0.5058 -0.0924  0.3948
 2768poe    c2311614   2.974   4.728   5.272  0.6421  0.1445  0.2786
 2768poe     o211615   2.878   4.756   5.371  0.0129 -0.7706 -0.0602
 2768poe    c3111616   2.779   4.847   5.329  0.0671 -0.8274 -0.3186
 2769poe    c3111617   0.097   3.930   0.970 -0.2969  0.5639  0.2324
 2769poe     o211618   0.132   3.794   0.964  0.2227  0.7019  0.1324
 2769poe    c2311619   0.112   3.713   1.078 -0.0490  0.0809 -0.3490
 2769poe    c2311620   0.128   3.565   1.038 -0.4020 -0.1883  0.4972
 2769poe     o211621   0.264   3.558   1.002 -0.4758  0.2246  0.1300
 2769poe    c2311622   0.305   3.424   1.015  0.2312  0.4465  0.2146
 2769poe    c2311623   0.447   3.409   0.959  0.0078 -0.4147 -0.1343
 2769poe     o211624   0.437   3.405   0.818 -0.4007 -0.1870 -0.1130
 2769poe    c2311625   0.550   3.465   0.759 -0.0505 -0.4461  0.2875
 2769poe    c2311626   0.555   3.449   0.606  0.2229  0.0170  0.2442
 2769poe     o211627   0.466   3.535   0.539  0.0302 -0.1335  0.3065
 2769poe    c3111628   0.544   3.581   0.431 -0.2196 -0.8305 -0.1821
 2770poe    c3111629   1.966   0.707   1.828 -0.1072 -0.5862  0.1811
 2770poe     o211630   2.020   0.735   1.955 -0.0397  0.4236 -0.0656
 2770poe    c2311631   1.918   0.730   2.052 -0.2672  0.2329 -0.3127
 2770poe    c2311632   1.965   0.814   2.173 -0.7309 -0.0453  0.0672
 2770poe     o211633   2.065   0.747   2.246 -0.2884  0.3762 -0.1448
 2770poe    c2311634   2.125   0.837   2.336 -0.5456  0.3678  0.0369
 2770poe    c2311635   2.239   0.788   2.428 -0.7294  0.6277  0.4022
 2770poe     o211636   2.196   0.700   2.530  0.7899 -0.7890 -0.1480
 2770poe    c2311637   2.244   0.756   2.650 -0.5740 -0.0724  0.0820
 2770poe    c2311638   2.143   0.735   2.764 -0.3530  0.3443  0.3578
 2770poe     o211639   2.027   0.808   2.735 -0.2580  0.3639  0.0260
 2770poe    c3111640   1.923   0.756   2.815  0.1660 -0.4265  0.0655
 2771poe    c3111641   1.123   1.545   5.540 -0.2651 -0.4405 -0.5435
 2771poe     o211642   1.178   1.514   5.666  0.1376 -0.1650 -0.6467
 2771poe    c2311643   1.193   1.374   5.677 -0.5439 -0.1998 -0.0788
 2771poe    c2311644   1.160   1.313   5.814  0.6293 -0.2826  0.1730
 2771poe     o211645   1.239   1.368   5.917  0.4991  0.4201 -0.0959
 2771poe    c2311646   1.202   1.320   6.045 -0.6479  0.0788 -0.5446
 2771poe    c2311647   1.263   1.423   6.142  0.1923 -0.2586 -0.7061
 2771poe     o211648   1.172   1.530   6.152  0.4063 -0.0990 -0.4719
 2771poe    c2311649   1.142   1.568   6.284 -0.4439 -0.4237 -0.5646
 2771poe    c2311650   1.010   1.647   6.279 -0.1584  0.1160  0.1909
 2771poe     o211651   1.029   1.749   6.183 -0.1770 -0.0004  0.0636
 2771poe    c3111652   0.967   1.872   6.216 -0.7181 -0.2992  0.1807
 2772poe    c3111653   6.345   1.135   5.782  0.2459  0.5323  0.3525
 2772poe     o211654   6.417   1.091   5.669 -0.2393 -0.2491  0.3341
 2772poe    c2311655   6.354   1.111   5.545  0.1856  0.7259  0.2631
 2772poe    c2311656   6.402   1.220   5.447  0.0559  0.2399 -0.3502
 2772poe     o211657   6.506   1.186   5.358 -0.1570 -0.3678 -0.3733
 2772poe    c2311658   6.545   1.306   5.295  0.0499 -0.2671 -0.0575
 2772poe    c2311659   6.626   1.416   5.367 -0.2356  0.0231 -0.1754
 2772poe     o211660   6.754   1.377   5.411 -0.0844 -0.0893 -0.7067
 2772poe    c2311661   6.797   1.490   5.484 -0.2410 -0.2712 -0.3323
 2772poe    c2311662   6.940   1.494   5.541 -0.2243  0.2838 -0.4142
 2772poe     o211663   7.004   1.378   5.587  0.1443  0.2738 -0.9446
 2772poe    c3111664   7.141   1.405   5.611 -0.1379  0.4011  0.6193
 2773poe    c3111665   0.696   1.621   4.975 -0.1818  0.5284  0.0401
 2773poe     o211666   0.623   1.738   5.008 -0.4780  0.2446  0.4148
 2773poe    c2311667   0.613   1.746   5.148 -0.2285  0.0499  0.4458
 2773poe    c2311668   0.488   1.831   5.178 -0.3329 -0.0872  0.3973
 2773poe     o211669   0.489   1.958   5.117  0.7108 -0.1747  0.2125
 2773poe    c2311670   0.360   2.012   5.099  0.7481 -0.3192 -0.5597
 2773poe    c2311671   0.376   2.146   5.025  0.5933  0.0969  0.1426
 2773poe     o211672   0.410   2.125   4.890  0.1433  0.0865  0.0274
 2773poe    c2311673   0.415   2.244   4.815 -0.1948  0.0563 -0.0445
 2773poe    c2311674   0.467   2.202   4.677 -0.3847 -1.0182  0.2057
 2773poe     o211675   0.574   2.113   4.653  0.9181  0.4622  0.3705
 2773poe    c3111676   0.609   2.084   4.520 -0.4792  0.6272 -0.0520
 2774poe    c3111677   3.684   2.442   1.281 -0.3224  0.4162 -0.0615
 2774poe     o211678   3.760   2.323   1.289 -0.9550 -0.0101 -0.2516
 2774poe    c2311679   3.886   2.373   1.328 -0.7123 -0.8513  0.0592
 2774poe    c2311680   3.987   2.262   1.297  0.3566  0.2253 -0.3805
 2774poe     o211681   3.927   2.145   1.347  0.0240  0.4849 -0.1696
 2774poe    c2311682   4.027   2.046   1.334 -0.7562 -0.2858 -0.3946
 2774poe    c2311683   3.989   1.900   1.363 -0.0599 -0.3043  0.4737
 2774poe     o211684   3.864   1.876   1.301  0.2489 -0.2450 -0.1694
 2774poe    c2311685   3.821   1.747   1.335  0.5058 -0.2861  0.0001
 2774poe    c2311686   3.699   1.704   1.252 -0.2399  0.7528  0.5383
 2774poe     o211687   3.600   1.804   1.257 -0.4518  0.5736  0.0089
 2774poe    c3111688   3.470   1.755   1.231 -0.2022 -0.6415  0.9308
 2775poe    c3111689   4.555   1.750   4.356 -0.1366 -0.2212  0.9655
 2775poe     o211690   4.654   1.673   4.422 -0.0045 -0.7561  0.1620
 2775poe    c2311691   4.673   1.705   4.557 -0.1968  0.0275  0.0065
 2775poe    c2311692   4.773   1.608   4.622 -0.1513  0.5896  0.7961
 2775poe     o211693   4.907   1.602   4.581 -0.4473 -0.2140 -0.1093
 2775poe    c2311694   4.985   1.519   4.664 -0.2532 -0.1577 -0.2352
 2775poe    c2311695   5.115   1.483   4.587 -0.2977 -0.3847 -0.2068
 2775poe     o211696   5.154   1.597   4.514 -0.2763 -0.2442  0.0205
 2775poe    c2311697   5.254   1.561   4.421 -0.3149  0.2734 -0.2251
 2775poe    c2311698   5.284   1.698   4.358  0.0051 -0.0120 -0.6957
 2775poe     o211699   5.163   1.768   4.337  0.1241  0.1381 -0.8973
 2775poe    c3111700   5.181   1.877   4.250 -0.1101  0.2739 -0.7775
 2776poe    c3111701   2.220   0.133   5.449  0.5461 -0.2768  0.1325
 2776poe     o211702   2.285   0.226   5.366 -0.6124  0.2734 -0.1828
 2776poe    c2311703   2.192   0.255   5.264 -0.6526  0.4427 -0.0996
 2776poe    c2311704   2.235   0.355   5.155  0.7417 -0.2430 -0.1987
 2776poe     o211705   2.246   0.489   5.198  0.0285 -0.0728 -0.5433
 2776poe    c2311706   2.131   0.562   5.163  0.1150  0.0043 -0.6666
 2776poe    c2311707   2.166   0.710   5.187 -0.2422 -0.1054  0.6213
 2776poe     o211708   2.273   0.766   5.114 -0.5750 -0.0267  0.1879
 2776poe    c2311709   2.304   0.892   5.171 -0.3941 -0.2393  0.5601
 2776poe    c2311710   2.448   0.939   5.144 -0.4007 -0.6265 -0.1689
 2776poe     o211711   2.533   0.847   5.209 -0.3478 -0.5072 -0.0695
 2776poe    c3111712   2.667   0.893   5.204 -0.7112  0.6241  0.4378
 2777poe    c3111713   6.329   3.579   4.884 -0.3083  0.1127 -0.2139
 2777poe     o211714   6.440   3.590   4.797  0.1196 -0.3745  0.2636
 2777poe    c2311715   6.518   3.473   4.805  0.9174  0.1333  0.0630
 2777poe    c2311716   6.640   3.462   4.711  0.6584 -0.5788 -0.1965
 2777poe     o211717   6.752   3.526   4.768  0.4819 -0.0886 -0.3935
 2777poe    c2311718   6.820   3.457   4.871 -0.0789 -0.0688 -0.0083
 2777poe    c2311719   6.951   3.536   4.888 -0.4043  0.5250 -0.2033
 2777poe     o211720   7.031   3.543   4.772  0.3804 -0.0096  0.2942
 2777poe    c2311721   7.162   3.577   4.809  0.5475 -0.2437 -0.0829
 2777poe    c2311722   7.219   3.594   4.667 -0.0305  0.4309 -0.2436
 2777poe     o211723   7.130   3.639   4.568  0.0846  0.2589 -0.4286
 2777poe    c3111724   7.192   3.669   4.445  0.7216 -0.6744 -0.3423
 2778poe    c3111725   2.335   5.641   4.192  0.3438 -0.3347 -0.1393
 2778poe     o211726   2.204   5.665   4.239  0.4836 -0.0978  0.1328
 2778poe    c2311727   2.103   5.597   4.167  0.1698  0.4929  0.0057
 2778poe    c2311728   1.969   5.665   4.197 -0.0678 -0.0424  0.1668
 2778poe     o211729   1.965   5.804   4.172 -0.3741 -0.0339  0.2550
 2778poe    c2311730   1.834   5.851   4.195 -0.3130  0.0480  0.4351
 2778poe    c2311731   1.823   6.005   4.196 -0.1202  0.0726 -0.4025
 2778poe     o211732   1.927   6.038   4.285 -0.0480 -0.0878 -0.4272
 2778poe    c2311733   1.927   6.176   4.316 -0.0006  0.1137 -1.3105
 2778poe    c2311734   2.064   6.212   4.375 -0.5338  0.2154 -0.1202
 2778poe     o211735   2.177   6.168   4.303 -0.3174 -0.1349  0.4177
 2778poe    c3111736   2.304   6.202   4.354 -0.3134  0.5544 -0.0408
 2779poe    c3111737   3.574   4.761   6.415 -0.0341  0.5475  0.3894
 2779poe     o211738   3.604   4.866   6.326 -0.0937 -0.4467 -0.8293
 2779poe    c2311739   3.739   4.851   6.287  0.1549 -0.2451 -0.0563
 2779poe    c2311740   3.784   4.939   6.169 -0.6459  0.1945 -0.0461
 2779poe     o211741   3.769   4.851   6.060 -0.3709 -0.0221  0.0890
 2779poe    c2311742   3.829   4.916   5.950 -0.2356 -0.2564  0.0217
 2779poe    c2311743   3.970   4.860   5.926 -0.1210 -0.1084  0.3378
 2779poe     o211744   4.062   4.913   6.018 -0.2267  0.2556  0.2362
 2779poe    c2311745   4.185   4.843   6.023 -0.5123 -0.2216  0.5755
 2779poe    c2311746   4.247   4.874   6.161  0.1942 -0.4523  0.3142
 2779poe     o211747   4.290   5.008   6.167  0.1016 -0.3971 -0.1899
 2779poe    c3111748   4.374   5.041   6.275 -0.2324 -0.1637  0.0023
 2780poe    c3111749   2.088   5.264   6.921 -0.3419 -0.1231 -0.3839
 2780poe     o211750   2.086   5.307   7.055 -0.4250  0.6893 -0.6351
 2780poe    c2311751   2.145   5.434   7.070  0.5889  0.1510  0.1738
 2780poe    c2311752   2.054   5.519   7.160  0.3891  0.0267  0.0898
 2780poe     o211753   2.046   5.471   7.293 -0.0529  0.1039  0.0954
 2780poe    c2311754   1.994   5.574   7.374 -0.0828  0.1475  0.0218
 2780poe    c2311755   1.914   5.504   7.485  0.3309 -0.4506 -0.0474
 2780poe     o211756   1.985   5.423   7.575  0.5505  0.0937  0.2752
 2780poe    c2311757   1.901   5.387   7.683  0.1440 -0.4037 -0.1964
 2780poe    c2311758   1.970   5.268   7.753 -0.2050 -0.3956  0.1601
 2780poe     o211759   1.985   5.172   7.652 -0.0072 -0.0213 -0.1681
 2780poe    c3111760   1.967   5.049   7.718  0.3785  0.3435  0.6186
 2781poe    c3111761   4.858   5.897   2.445  0.6695 -0.6728 -0.4890
 2781poe     o211762   4.790   5.893   2.321  0.3121 -0.2675 -0.3086
 2781poe    c2311763   4.808   6.021   2.266 -0.0695  0.1268  0.4709
 2781poe    c2311764   4.736   6.045   2.132  0.0727 -0.4623  0.2868
 2781poe     o211765   4.760   5.938   2.043  0.7798  0.1529 -0.2857
 2781poe    c2311766   4.683   5.953   1.926  0.4011  0.0495 -0.0528
 2781poe    c2311767   4.728   5.860   1.813 -0.2220  0.3763 -0.5742
 2781poe     o211768   4.865   5.873   1.785 -0.0089 -0.1035  0.2351
 2781poe    c2311769   4.900   5.797   1.672 -0.1910 -0.2430  0.2727
 2781poe    c2311770   5.054   5.804   1.672 -0.1797 -0.4625  0.1498
 2781poe     o211771   5.099   5.810   1.805  0.2768 -0.4020 -0.0065
 2781poe    c3111772   5.206   5.720   1.826  0.6760 -0.1442 -0.8819
 2782poe    c3111773   1.899   5.609   0.694 -0.2493  0.1535  0.1182
 2782poe     o211774   1.922   5.669   0.820  0.0864  0.3674 -0.0444
 2782poe    c2311775   1.813   5.639   0.904  0.4105 -0.2928  0.1489
 2782poe    c2311776   1.869   5.617   1.045  0.1225 -0.1082  0.2933
 2782poe     o211777   1.957   5.727   1.061 -0.1973  0.0670  0.8795
 2782poe    c2311778   2.033   5.733   1.180 -0.1536 -0.0992  0.8606
 2782poe    c2311779   2.098   5.873   1.177 -0.6368  0.1118 -0.3097
 2782poe     o211780   2.116   5.914   1.043  0.5664  0.0503 -0.1717
 2782poe    c2311781   2.204   6.023   1.030  0.2092  0.5139  1.1245
 2782poe    c2311782   2.356   5.996   1.023  0.1649  0.3842  0.6094
 2782poe     o211783   2.393   5.901   0.927  0.4103  0.4281  0.6601
 2782poe    c3111784   2.529   5.865   0.943  0.5403  0.5499 -0.1314
 2783poe    c3111785   0.926   5.241   0.896  0.3790 -0.3742 -0.7589
 2783poe     o211786   0.912   5.315   0.776 -0.5313 -0.6728 -0.8400
 2783poe    c2311787   0.777   5.354   0.763 -0.5788 -0.3490  0.4679
 2783poe    c2311788   0.762   5.462   0.655  0.1440 -0.1743  0.5400
 2783poe     o211789   0.761   5.583   0.729 -0.6358  0.2998 -0.2284
 2783poe    c2311790   0.749   5.698   0.648  0.5329  0.7220  0.1804
 2783poe    c2311791   0.734   5.823   0.736  0.0930  0.8845 -0.1219
 2783poe     o211792   0.627   5.816   0.828 -0.0571 -0.0401 -0.3592
 2783poe    c2311793   0.611   5.944   0.884  0.1685 -0.2952  0.3052
 2783poe    c2311794   0.512   5.975   0.998 -0.3640 -0.5543 -0.0782
 2783poe     o211795   0.558   5.914   1.117 -0.1098  0.1918  0.2142
 2783poe    c3111796   0.436   5.856   1.156 -0.2478  0.2353 -0.1457
 2784poe    c3111797   3.917   1.085   2.814  0.0638 -0.0188 -0.4101
 2784poe     o211798   3.799   1.148   2.859  0.1061 -0.0770 -0.2138
 2784poe    c2311799   3.690   1.108   2.779  0.2778 -0.2938 -0.3414
 2784poe    c2311800   3.554   1.160   2.829  0.3166 -0.5861  0.0729
 2784poe     o211801   3.517   1.094   2.948 -0.1172 -0.3584  0.0684
 2784poe    c2311802   3.424   1.175   3.016  0.1066  0.3441 -0.4525
 2784poe    c2311803   3.314   1.090   3.082  0.3674  0.3655  0.0120
 2784poe     o211804   3.351   1.027   3.203 -0.0645  0.2528  0.0875
 2784poe    c2311805   3.232   0.964   3.243  0.2531 -0.3831  0.0494
 2784poe    c2311806   3.237   0.906   3.386 -0.3985 -0.3606  0.0853
 2784poe     o211807   3.267   0.990   3.495  0.0130 -0.6366  0.1860
 2784poe    c3111808   3.344   0.919   3.589  0.2220 -0.4512  0.1553
 2785poe    c3111809   0.619   4.744   7.072  0.4863 -0.1420 -0.1086
 2785poe     o211810   0.676   4.845   6.991 -0.7289  0.2133 -0.5407
 2785poe    c2311811   0.652   4.973   7.044 -0.0164  0.2122 -0.2050
 2785poe    c2311812   0.686   5.074   6.933  0.0740 -0.0113 -0.3810
 2785poe     o211813   0.808   5.039   6.870 -0.3066 -0.5759 -0.8140
 2785poe    c2311814   0.858   5.102   6.755  0.5600  0.3757  0.0617
 2785poe    c2311815   1.009   5.074   6.746  0.4905 -0.0905  0.3312
 2785poe     o211816   1.041   4.937   6.750  0.3337 -0.1464 -0.2228
 2785poe    c2311817   1.177   4.914   6.722  0.3844 -0.1784  0.0438
 2785poe    c2311818   1.183   4.760   6.711 -0.1004 -0.1658 -0.4619
 2785poe     o211819   1.184   4.691   6.834 -0.1133  0.3353 -0.1745
 2785poe    c3111820   1.302   4.712   6.908 -0.1323 -0.5293  0.1136
 2786poe    c3111821   1.824   4.549   2.337 -0.7257 -0.6970 -0.2172
 2786poe     o211822   1.878   4.433   2.397 -0.3063 -0.4574 -0.1346
 2786poe    c2311823   1.842   4.314   2.330  0.2159 -0.3134 -0.6898
 2786poe    c2311824   1.899   4.191   2.403 -0.1829  0.0400  0.2379
 2786poe     o211825   1.808   4.142   2.498 -0.3130  0.1094  0.1495
 2786poe    c2311826   1.787   4.007   2.462 -0.2538  0.0468  0.3452
 2786poe    c2311827   1.737   3.932   2.587 -0.2257 -0.2391  0.1851
 2786poe     o211828   1.623   3.989   2.646 -0.1267 -0.0521  0.1980
 2786poe    c2311829   1.542   3.892   2.709 -0.6382  0.2107 -0.0463
 2786poe    c2311830   1.576   3.848   2.853  0.1534  0.1898 -0.2369
 2786poe     o211831   1.694   3.775   2.877  0.0515 -0.0265 -0.3832
 2786poe    c3111832   1.714   3.768   3.017 -0.2547  0.8056 -0.2933
 2787poe    c3111833   0.089   0.934   1.688  0.3990  0.0193 -0.0328
 2787poe     o211834  -0.009   0.929   1.789 -0.5195 -0.0483 -0.9100
 2787poe    c2311835   0.000   0.807   1.859  0.6560  0.7196  0.3111
 2787poe    c2311836  -0.104   0.771   1.966  0.1054 -0.2945 -0.5481
 2787poe     o211837  -0.129   0.858   2.075 -0.0731 -0.2556 -0.6198
 2787poe    c2311838  -0.113   0.803   2.204  0.0154  0.1447 -0.4584
 2787poe    c2311839  -0.148   0.920   2.299  0.0808 -0.0899 -0.1471
 2787poe     o211840  -0.057   1.023   2.266  0.0784  0.0595  0.3060
 2787poe    c2311841  -0.102   1.139   2.332  0.2564  0.2462  0.1002
 2787poe    c2311842  -0.010   1.254   2.286  0.4349  0.0800  0.0405
 2787poe     o211843   0.012   1.215   2.152  0.1287  0.2517 -0.0582
 2787poe    c3111844   0.113   1.300   2.102  0.3605 -0.0869 -0.1641
 2788poe    c3111845   4.397   4.484   7.010 -0.0063  0.5613  0.1420
 2788poe     o211846   4.274   4.526   7.064 -0.2277 -0.0459  0.1245
 2788poe    c2311847   4.163   4.448   7.025  0.0541 -0.3507 -0.0730
 2788poe    c2311848   4.037   4.520   7.075  0.1724  0.3575 -0.7731
 2788poe     o211849   4.015   4.473   7.207 -0.1754  0.4757 -0.7862
 2788poe    c2311850   3.940   4.574   7.271  0.3186  0.3670 -0.0212
 2788poe    c2311851   3.956   4.577   7.424  0.7413 -0.3640 -0.0450
 2788poe     o211852   3.947   4.461   7.504  0.5799 -0.2317  0.1293
 2788poe    c2311853   4.068   4.389   7.511  0.4832 -0.4260 -0.2087
 2788poe    c2311854   4.046   4.268   7.602  0.5690 -0.0140  0.3632
 2788poe     o211855   4.017   4.308   7.734 -0.4303  0.5537 -0.0187
 2788poe    c3111856   3.924   4.213   7.782  0.1833 -0.1251 -0.1659
 2789poe    c3111857   5.984   2.514   4.947  0.5235 -0.0088 -0.3787
 2789poe     o211858   6.056   2.571   5.054 -0.7092  0.6982  0.0890
 2789poe    c2311859   5.999   2.589   5.182 -0.0578  0.0429  0.4828
 2789poe    c2311860   6.098   2.630   5.292 -0.0428 -0.2344  0.5723
 2789poe     o211861   6.023   2.652   5.410 -0.2665 -0.0614  0.3976
 2789poe    c2311862   6.088   2.720   5.515  0.4680 -0.2184  0.0523
 2789poe    c2311863   5.980   2.762   5.617 -0.0985 -0.2973 -0.5129
 2789poe     o211864   5.923   2.649   5.678 -0.1090 -0.0620 -0.0842
 2789poe    c2311865   5.861   2.679   5.801  0.2746  0.2118  0.0423
 2789poe    c2311866   5.824   2.550   5.876 -0.2763  0.4402  0.1681
 2789poe     o211867   5.780   2.466   5.771  0.2684  0.0384  0.2552
 2789poe    c3111868   5.716   2.363   5.843 -0.4480  0.0971 -0.2950
 2790poe    c3111869   3.783   5.534   1.632 -0.5265  0.2697 -0.1558
 2790poe     o211870   3.869   5.441   1.571 -0.0752 -0.2613  1.2477
 2790poe    c2311871   3.803   5.317   1.579 -0.4447 -0.1964 -0.4787
 2790poe    c2311872   3.906   5.212   1.530 -0.3420  0.1432 -0.9974
 2790poe     o211873   3.981   5.268   1.425  0.4592  0.4923 -0.2466
 2790poe    c2311874   4.084   5.176   1.396 -0.0247  0.0174 -0.4521
 2790poe    c2311875   4.130   5.233   1.261  0.5134  0.1700 -0.2072
 2790poe     o211876   4.097   5.370   1.255 -0.2478 -0.0162 -0.3840
 2790poe    c2311877   4.189   5.430   1.167  0.2048  0.0165  0.1050
 2790poe    c2311878   4.195   5.584   1.170 -0.7430  0.0595  0.1674
 2790poe     o211879   4.245   5.622   1.297 -0.8376 -0.0449  0.2363
 2790poe    c3111880   4.260   5.762   1.310 -0.1201  0.0145 -1.0856
 2791poe    c3111881   4.910   0.505   7.165  0.1905 -0.2971  0.3514
 2791poe     o211882   4.932   0.513   7.304 -0.0916 -0.1909  0.3901
 2791poe    c2311883   5.068   0.512   7.339 -0.0299 -0.4285  0.1357
 2791poe    c2311884   5.103   0.473   7.484  0.4214  0.2157  0.2040
 2791poe     o211885   5.081   0.580   7.573 -0.5845  0.1770  0.0125
 2791poe    c2311886   5.125   0.544   7.702 -0.4553  0.0049 -0.0793
 2791poe    c2311887   5.164   0.646   7.811  0.2117 -0.1439 -0.1749
 2791poe     o211888   5.057   0.737   7.816  0.2791 -0.0506 -0.4122
 2791poe    c2311889   5.070   0.791   7.945  0.6846  0.1225 -0.5255
 2791poe    c2311890   4.997   0.925   7.965  0.1878 -0.1806 -0.2773
 2791poe     o211891   5.026   1.010   7.856  0.6839  0.0724  0.0482
 2791poe    c3111892   5.120   1.115   7.871  0.2517  0.4974 -0.1697
 2792poe    c3111893   5.204   3.986   3.158 -0.2082  0.6425 -0.4788
 2792poe     o211894   5.063   3.980   3.150 -0.2275 -0.0895  0.3275
 2792poe    c2311895   4.992   3.904   3.245  0.1314 -0.2932  0.4347
 2792poe    c2311896   4.840   3.904   3.219  0.3030 -0.0309 -0.6015
 2792poe     o211897   4.794   4.035   3.197  0.4592  0.1355  0.0267
 2792poe    c2311898   4.654   4.035   3.209  0.4407  0.5176 -0.1552
 2792poe    c2311899   4.601   4.142   3.112 -0.3387 -0.1162 -0.4459
 2792poe     o211900   4.611   4.095   2.979 -0.0360  0.0877 -0.4965
 2792poe    c2311901   4.531   4.182   2.903 -1.1995 -0.8486 -0.3791
 2792poe    c2311902   4.564   4.157   2.755  0.3667 -0.0958 -0.1872
 2792poe     o211903   4.705   4.161   2.752  0.3654 -0.1038 -0.2859
 2792poe    c3111904   4.756   4.129   2.625  0.0249 -0.4532 -0.3366
 2793poe    c3111905   6.676   7.149   2.640 -0.0799 -0.3780 -0.2669
 2793poe     o211906   6.748   7.165   2.520 -0.4444  1.2279 -0.2998
 2793poe    c2311907   6.706   7.054   2.444 -0.1246  0.6759  0.3143
 2793poe    c2311908   6.758   7.066   2.299 -0.3768 -0.0784  0.1563
 2793poe     o211909   6.881   7.134   2.313 -0.2205 -0.3928  0.3110
 2793poe    c2311910   6.935   7.169   2.188  0.1663 -0.6800  0.3942
 2793poe    c2311911   7.083   7.213   2.192 -0.1407  0.4103  0.0697
 2793poe     o211912   7.100   7.315   2.288 -0.0242  0.3376  0.1274
 2793poe    c2311913   7.236   7.351   2.300  0.1490 -0.3076  0.1058
 2793poe    c2311914   7.229   7.463   2.405  0.1856 -0.0032 -0.2166
 2793poe     o211915   7.196   7.423   2.536 -0.5442  0.1167 -0.3599
 2793poe    c3111916   7.181   7.538   2.616 -0.5233 -0.3217  0.2806
 2794poe    c3111917   1.995   2.481   2.365  0.4313 -0.1344  0.0258
 2794poe     o211918   1.944   2.476   2.234  0.3816  0.1839  0.0327
 2794poe    c2311919   1.978   2.359   2.163 -0.7456  0.2858 -0.7024
 2794poe    c2311920   1.924   2.348   2.019  0.2881  0.2586 -1.0990
 2794poe     o211921   1.784   2.350   2.029  0.3462 -0.1696 -0.0132
 2794poe    c2311922   1.721   2.227   2.003  0.0354 -0.0059 -0.0414
 2794poe    c2311923   1.575   2.276   2.009 -0.0349 -0.3169  1.0307
 2794poe     o211924   1.556   2.373   2.109  0.0424  0.6758  0.1113
 2794poe    c2311925   1.415   2.381   2.118  0.0028  0.3664 -0.2307
 2794poe    c2311926   1.363   2.454   2.243 -0.1857 -0.3729  0.1288
 2794poe     o211927   1.392   2.592   2.235 -0.0664 -0.4160 -0.2028
 2794poe    c3111928   1.340   2.652   2.351 -0.0231  0.3691 -0.5853
 2795poe    c3111929   5.729   4.179   2.188 -0.0641  0.4577  0.1622
 2795poe     o211930   5.791   4.067   2.247 -0.0668  0.7519  0.7301
 2795poe    c2311931   5.705   3.999   2.336  0.0264 -0.4020 -0.0403
 2795poe    c2311932   5.771   3.904   2.438 -0.3240 -0.4106  0.1784
 2795poe     o211933   5.814   3.777   2.398  0.3426 -0.1720  0.1343
 2795poe    c2311934   5.948   3.789   2.354  0.2357  0.4358 -0.0330
 2795poe    c2311935   6.015   3.672   2.280  0.3998  0.5614 -0.0833
 2795poe     o211936   5.950   3.640   2.159  0.3091  0.1110  0.0819
 2795poe    c2311937   5.999   3.522   2.099 -0.2746 -0.0476 -0.0931
 2795poe    c2311938   5.917   3.476   1.977 -0.0289  0.2097 -0.3591
 2795poe     o211939   5.904   3.577   1.879  0.5199 -0.0143 -0.6619
 2795poe    c3111940   5.880   3.525   1.750 -1.0012 -0.4834 -0.2031
 2796poe    c3111941   6.416   0.177   3.984  0.3727 -0.2507  0.2338
 2796poe     o211942   6.310   0.161   3.893 -0.0428  0.1531  0.6461
 2796poe    c2311943   6.267   0.027   3.903  0.6475 -0.1408 -0.2486
 2796poe    c2311944   6.344  -0.074   3.815  0.0708 -0.5990 -0.2302
 2796poe     o211945   6.351  -0.042   3.677  0.2708 -0.1159 -0.1119
 2796poe    c2311946   6.471  -0.094   3.624  0.1846 -0.5310  0.0954
 2796poe    c2311947   6.485  -0.086   3.471  0.1707 -0.0046  0.1215
 2796poe     o211948   6.447   0.038   3.415  0.4193  0.0127 -0.0112
 2796poe    c2311949   6.529   0.152   3.412  0.1521  0.2292  0.7922
 2796poe    c2311950   6.450   0.280   3.379 -0.3623 -0.1935  0.3708
 2796poe     o211951   6.361   0.317   3.481 -0.6621 -0.0231  0.0499
 2796poe    c3111952   6.425   0.380   3.590 -0.5539 -0.4150  0.2135
 2797poe    c3111953   2.899   6.544   3.695 -0.4800 -0.5596 -0.7847
 2797poe     o211954   2.863   6.599   3.570 -0.0135 -0.4030 -0.8533
 2797poe    c2311955   2.901   6.733   3.547  0.2405 -0.2814  0.1943
 2797poe    c2311956   3.024   6.782   3.469 -0.0887  0.0638 -0.1113
 2797poe     o211957   3.015   6.732   3.338  0.1168 -0.0886 -0.0676
 2797poe    c2311958   3.146   6.721   3.286  0.3283 -0.4046  0.5249
 2797poe    c2311959   3.158   6.586   3.213  0.4417  0.0016 -0.2184
 2797poe     o211960   3.035   6.552   3.155  0.2892 -0.1518  0.1920
 2797poe    c2311961   3.075   6.449   3.067  0.2617 -0.0923  0.1091
 2797poe    c2311962   2.949   6.437   2.980  0.6040  0.0229 -0.4050
 2797poe     o211963   2.827   6.485   3.031  0.4797 -0.3837 -0.3115
 2797poe    c3111964   2.718   6.418   2.972 -0.4069  0.7445  0.0053
 2798poe    c3111965   0.245   6.794   6.151 -0.1882  0.4646  0.0237
 2798poe     o211966   0.198   6.665   6.182  0.1966  0.3459  0.1207
 2798poe    c2311967   0.307   6.577   6.166 -0.2801 -0.1906 -0.2223
 2798poe    c2311968   0.343   6.515   6.030 -0.1427 -0.2741 -0.1474
 2798poe     o211969   0.264   6.409   5.982 -0.0466 -0.5678  0.3343
 2798poe    c2311970   0.286   6.375   5.847 -0.1201 -0.2622  0.2448
 2798poe    c2311971   0.163   6.431   5.773 -0.0569  0.2017  0.4896
 2798poe     o211972   0.039   6.379   5.815  0.3059 -0.5803  0.6021
 2798poe    c2311973  -0.022   6.292   5.723  0.7088 -0.0301 -0.1909
 2798poe    c2311974  -0.164   6.294   5.782  0.6396  1.1762 -0.3824
 2798poe     o211975  -0.140   6.261   5.916  0.7866 -0.0589 -0.7064
 2798poe    c3111976  -0.221   6.151   5.954  0.2474  0.5057 -0.2080
 2799poe    c3111977   0.151   3.892   2.432  0.4471 -0.0256  0.0701
 2799poe     o211978   0.015   3.854   2.425  0.3596  0.2135  0.4940
 2799poe    c2311979  -0.066   3.909   2.527 -0.1602  0.5329 -0.0804
 2799poe    c2311980  -0.210   3.855   2.532  0.0929 -0.1547 -0.1368
 2799poe     o211981  -0.285   3.906   2.424  0.1039  0.2692  0.0545
 2799poe    c2311982  -0.425   3.904   2.444  0.1381 -0.1589  0.2575
 2799poe    c2311983  -0.492   4.000   2.345  0.0405 -0.0893  0.3913
 2799poe     o211984  -0.484   3.964   2.209 -0.0717 -0.3361  0.4499
 2799poe    c2311985  -0.560   4.053   2.131  0.2752 -0.0285  0.4546
 2799poe    c2311986  -0.529   4.045   1.980  0.2009 -0.5429  0.4617
 2799poe     o211987  -0.416   4.120   1.941  0.0489 -0.2362  0.6040
 2799poe    c3111988  -0.410   4.099   1.801  0.1152  0.4044  0.5045
 2800poe    c3111989   1.128   1.905   3.426  0.5594 -0.2818 -0.6955
 2800poe     o211990   1.249   1.959   3.377  0.8335 -0.1672  0.0952
 2800poe    c2311991   1.278   1.915   3.246  0.2321 -0.0941 -0.0625
 2800poe    c2311992   1.412   1.966   3.191  0.1568  0.0141 -0.1455
 2800poe     o211993   1.427   2.105   3.172 -0.3066  0.0599 -0.1977
 2800poe    c2311994   1.544   2.144   3.104  0.3575 -0.4074  0.6551
 2800poe    c2311995   1.599   2.282   3.146  0.3974 -0.1540 -0.2150
 2800poe     o211996   1.509   2.384   3.111  0.5289  0.0259 -0.0276
 2800poe    c2311997   1.587   2.491   3.062  0.6931 -0.1475 -0.1407
 2800poe    c2311998   1.559   2.516   2.913 -0.3900  0.4157  0.1478
 2800poe     o211999   1.436   2.574   2.876 -0.3852  0.2625 -0.1123
 2800poe    c3112000   1.458   2.630   2.749 -0.7457  0.7953  0.0572
 2801poe    c3112001   0.869   0.575   6.852 -0.6171 -0.4549  0.3586
 2801poe     o212002   0.979   0.641   6.910 -0.5693 -0.0712 -0.1609
 2801poe    c2312003   1.051   0.716   6.815 -0.3055  0.7241  0.6636
 2801poe    c2312004   1.192   0.751   6.868  0.2098 -0.1575 -0.0967
 2801poe     o212005   1.183   0.771   7.008  0.3459  0.3585 -0.1611
 2801poe    c2312006   1.309   0.769   7.071  0.2474 -0.2861  0.0202
 2801poe    c2312007   1.300   0.730   7.220  0.0586 -0.3636 -0.0108
 2801poe     o212008   1.230   0.608   7.227 -0.2015 -0.1912  0.3514
 2801poe    c2312009   1.283   0.554   7.346 -0.4414 -0.3998  0.3660
 2801poe    c2312010   1.182   0.469   7.424 -0.4843  0.0239  0.7766
 2801poe     o212011   1.184   0.338   7.372 -0.6357  0.4310 -0.2590
 2801poe    c3112012   1.131   0.245   7.463 -0.0553 -0.3779 -0.7292
 2802poe    c3112013   2.816   2.396   3.068  0.4640 -0.2053 -0.4647
 2802poe     o212014   2.951   2.433   3.073  0.3183  0.3441 -0.5706
 2802poe    c2312015   2.994   2.442   3.207 -0.1033 -0.1762 -0.3992
 2802poe    c2312016   3.115   2.536   3.227 -0.0952 -0.4021  0.7214
 2802poe     o212017   3.085   2.673   3.236  0.2765 -0.2435 -0.2686
 2802poe    c2312018   3.151   2.757   3.144  0.4318  0.0757  0.1283
 2802poe    c2312019   3.111   2.903   3.172  0.0809 -0.0491  0.2921
 2802poe     o212020   3.148   2.941   3.303  0.7984 -0.0259  0.0897
 2802poe    c2312021   3.138   3.079   3.329 -0.1841 -0.0994  0.1261
 2802poe    c2312022   3.206   3.108   3.464 -0.2423  0.3157  0.0678
 2802poe     o212023   3.145   3.030   3.564  0.0222 -0.4452 -0.3530
 2802poe    c3112024   3.210   3.057   3.686  0.1543 -0.1431 -0.4897
 2803poe    c3112025   6.730   6.336   3.057  0.3411  0.0678 -0.1514
 2803poe     o212026   6.671   6.438   3.134  0.1066  0.0210 -0.2651
 2803poe    c2312027   6.695   6.566   3.079  0.3776  0.0186 -0.1564
 2803poe    c2312028   6.640   6.681   3.166 -0.2910  0.2667 -0.8962
 2803poe     o212029   6.503   6.707   3.142 -0.6025 -0.5501 -0.0653
 2803poe    c2312030   6.460   6.791   3.246 -0.5117 -0.4913 -0.0754
 2803poe    c2312031   6.306   6.783   3.247 -0.5412  0.0454  0.2825
 2803poe     o212032   6.267   6.649   3.266  0.2665 -0.2620 -0.1493
 2803poe    c2312033   6.137   6.628   3.214  0.0447 -0.0193  0.3019
 2803poe    c2312034   6.089   6.495   3.274 -0.0953 -0.1345 -0.0615
 2803poe     o212035   6.164   6.389   3.219  0.8170  0.2383  0.4405
 2803poe    c3112036   6.095   6.275   3.264  0.1246  0.6335  0.3848
 2804poe    c3112037   7.314   5.197   0.101 -0.0915  0.0309  0.3426
 2804poe     o212038   7.205   5.182   0.013  0.0227  0.3614  0.1406
 2804poe    c2312039   7.093   5.194   0.098 -0.0815  0.7636 -0.0538
 2804poe    c2312040   6.953   5.204   0.035 -0.4051 -0.7550  0.3985
 2804poe     o212041   6.920   5.082  -0.028 -0.4101 -0.4851 -0.1283
 2804poe    c2312042   6.796   5.084  -0.094 -0.4092  0.2680 -0.1167
 2804poe    c2312043   6.780   4.954  -0.176  0.0592  0.0835  0.0818
 2804poe     o212044   6.806   4.849  -0.085  0.2003 -0.0508 -0.1139
 2804poe    c2312045   6.815   4.733  -0.165 -0.4049  0.0129 -0.2793
 2804poe    c2312046   6.921   4.629  -0.124 -0.0089  0.4051 -0.2937
 2804poe     o212047   7.048   4.687  -0.105  0.0887 -0.0595  0.5223
 2804poe    c3112048   7.152   4.600  -0.068 -0.0654 -0.5698 -0.2231
 2805poe    c3112049   0.206   6.182   2.250  0.4854  0.4208  1.3668
 2805poe     o212050   0.066   6.173   2.262  0.3972  0.7245  0.6239
 2805poe    c2312051   0.002   6.298   2.257  0.1019  0.5687  0.4605
 2805poe    c2312052  -0.148   6.276   2.229  0.2285  0.4808 -0.1512
 2805poe     o212053  -0.228   6.223   2.332  0.0605  0.1883 -0.4286
 2805poe    c2312054  -0.348   6.203   2.261 -0.2288  0.0521  0.0931
 2805poe    c2312055  -0.454   6.172   2.368  0.0921  0.2982  0.4881
 2805poe     o212056  -0.382   6.110   2.473  0.1901  0.1503  0.3340
 2805poe    c2312057  -0.468   6.060   2.574  0.0028 -0.1846  0.0124
 2805poe    c2312058  -0.383   6.029   2.698 -0.4788  0.2917  0.4638
 2805poe     o212059  -0.280   6.126   2.701 -0.1156 -0.1024  0.9450
 2805poe    c3112060  -0.207   6.117   2.821  0.6784 -0.3323  0.4488
 2806poe    c3112061   6.582   1.389   4.038  0.2016 -0.0909 -0.2332
 2806poe     o212062   6.642   1.477   4.131 -0.4069 -0.0001  0.0824
 2806poe    c2312063   6.783   1.464   4.132 -0.3997  0.0251 -0.3002
 2806poe    c2312064   6.832   1.324   4.171 -0.8082 -0.0299  0.0263
 2806poe     o212065   6.792   1.283   4.301 -0.1026 -0.0821  0.2310
 2806poe    c2312066   6.822   1.147   4.319  0.8511  0.1483  0.4632
 2806poe    c2312067   6.766   1.098   4.454  0.5347  0.0505  0.2979
 2806poe     o212068   6.788   1.191   4.558  0.4664  0.5809 -0.1609
 2806poe    c2312069   6.762   1.147   4.689  0.0353  0.6558 -0.2176
 2806poe    c2312070   6.853   1.222   4.789  0.0229  0.0026  0.2876
 2806poe     o212071   6.993   1.208   4.777  0.0106  0.0176  0.1121
 2806poe    c3112072   7.064   1.256   4.889 -0.3833  0.3716  0.2140
 2807poe    c3112073   4.313   3.050   5.343 -0.4294  0.0352 -0.1613
 2807poe     o212074   4.279   3.066   5.479 -0.6725  0.2303 -0.2437
 2807poe    c2312075   4.312   2.947   5.548 -1.0645  0.3963  0.2343
 2807poe    c2312076   4.247   2.905   5.681 -0.7600 -0.1381  0.2177
 2807poe     o212077   4.295   2.988   5.785  0.1267  0.0627 -0.3458
 2807poe    c2312078   4.240   2.951   5.909 -0.0507  0.5669 -0.2740
 2807poe    c2312079   4.297   3.012   6.038  0.0929 -0.2982  0.0764
 2807poe     o212080   4.275   3.151   6.031  0.3335 -0.2511  0.2343
 2807poe    c2312081   4.348   3.210   6.136  0.2386 -0.0061  0.1628
 2807poe    c2312082   4.301   3.350   6.181 -0.3962 -0.0295 -0.4071
 2807poe     o212083   4.324   3.441   6.076  0.6790  0.1045 -0.0754
 2807poe    c3112084   4.342   3.570   6.130  0.4534  0.0158  0.2158
 2808poe    c3112085   2.918   4.958   0.299 -0.0136 -0.1768  0.2089
 2808poe     o212086   2.851   5.043   0.209 -0.2625 -0.3170  0.2593
 2808poe    c2312087   2.830   4.958   0.099  0.2507  0.3117 -0.3389
 2808poe    c2312088   2.721   5.020   0.010  0.1061  0.5713  0.0168
 2808poe     o212089   2.630   5.090   0.092  0.3067  0.0425  0.6985
 2808poe    c2312090   2.533   5.171   0.030  0.2782 -0.2421  0.3742
 2808poe    c2312091   2.583   5.283  -0.062 -0.1520 -0.5146 -0.2004
 2808poe     o212092   2.672   5.379  -0.009 -0.2918 -0.7460  0.4563
 2808poe    c2312093   2.727   5.436  -0.125 -0.5989 -0.2851  0.5369
 2808poe    c2312094   2.833   5.537  -0.077  0.0816 -0.7321 -0.0017
 2808poe     o212095   2.794   5.667  -0.039  0.3546 -0.6855  0.1216
 2808poe    c3112096   2.799   5.767  -0.139  0.5844 -0.2847  0.5302
 2809poe    c3112097   2.450   3.898   4.357 -0.0137 -0.3697  0.3734
 2809poe     o212098   2.546   3.794   4.360  0.4085  0.0012 -0.1312
 2809poe    c2312099   2.514   3.696   4.265 -0.1143  0.0181  0.0222
 2809poe    c2312100   2.631   3.596   4.265 -0.0193  0.1298  0.1425
 2809poe     o212101   2.755   3.643   4.219 -0.1760 -0.2405 -0.6776
 2809poe    c2312102   2.760   3.707   4.093 -0.7957  0.0971 -0.5351
 2809poe    c2312103   2.899   3.770   4.073 -0.5208 -0.3463 -0.0700
 2809poe     o212104   2.921   3.887   4.149 -0.1042 -0.5168  0.0752
 2809poe    c2312105   3.012   3.970   4.081 -0.5581 -0.2455 -0.2041
 2809poe    c2312106   3.014   4.107   4.152 -0.3061 -0.3905  0.0701
 2809poe     o212107   3.089   4.099   4.271 -0.3598  0.5019  0.1663
 2809poe    c3112108   3.192   4.195   4.275 -0.3367  0.4889 -0.0852
 2810poe    c3112109   7.312   1.494   6.707  0.2873 -0.3965 -0.5072
 2810poe     o212110   7.418   1.567   6.650 -0.0609  0.3503 -0.2166
 2810poe    c2312111   7.498   1.623   6.752 -0.0356 -0.0211 -0.0299
 2810poe    c2312112   7.605   1.727   6.715  0.2950 -0.0631  0.7980
 2810poe     o212113   7.719   1.686   6.645  0.3912  0.3908  0.6838
 2810poe    c2312114   7.827   1.773   6.620 -0.0491  0.7426 -0.0137
 2810poe    c2312115   7.937   1.706   6.536 -0.0620  0.1868  0.4048
 2810poe     o212116   7.908   1.706   6.398  0.3005 -0.1675  0.3267
 2810poe    c2312117   7.945   1.826   6.333  0.1092 -0.0490  0.4360
 2810poe    c2312118   7.927   1.793   6.184 -0.2229  0.1668  0.4268
 2810poe     o212119   7.792   1.785   6.144 -0.0088 -0.1018 -0.2627
 2810poe    c3112120   7.799   1.819   6.008 -0.2274  0.5758 -0.1061
 2811poe    c3112121   5.314   1.517   6.532  0.5745  0.1882 -0.0091
 2811poe     o212122   5.196   1.445   6.559  0.3202  0.3562 -0.6319
 2811poe    c2312123   5.096   1.465   6.462  0.0355  0.3902 -0.3339
 2811poe    c2312124   4.986   1.358   6.462  0.1264  0.2920  0.2055
 2811poe     o212125   4.896   1.369   6.569  0.4943 -0.6880  0.6307
 2811poe    c2312126   4.797   1.271   6.548  0.0438 -0.1711  0.2962
 2811poe    c2312127   4.673   1.310   6.630 -0.4528 -0.6072 -0.2367
 2811poe     o212128   4.662   1.272   6.766  0.4406 -0.6776 -0.1818
 2811poe    c2312129   4.758   1.314   6.860 -0.1419 -0.2940  0.2457
 2811poe    c2312130   4.776   1.208   6.970 -0.9633 -0.3716  0.3100
 2811poe     o212131   4.911   1.174   6.988 -0.7940 -0.0845 -0.3806
 2811poe    c3112132   4.928   1.116   7.116 -0.0801  0.6644 -0.1277
 2812poe    c3112133   5.259   6.542   4.407  0.3447  0.1269  0.1702
 2812poe     o212134   5.206   6.417   4.445  0.2540  0.1617  0.1584
 2812poe    c2312135   5.297   6.311   4.425  0.7781  0.6115  0.1651
 2812poe    c2312136   5.356   6.262   4.558  0.4012 -0.3678 -0.0245
 2812poe     o212137   5.256   6.216   4.646  0.3031  0.1505  0.1370
 2812poe    c2312138   5.299   6.089   4.690 -0.3236 -0.1283 -0.0464
 2812poe    c2312139   5.193   6.006   4.765 -0.7937  0.5063  0.0076
 2812poe     o212140   5.071   5.973   4.703 -0.3747 -0.8952 -0.1214
 2812poe    c2312141   5.002   5.878   4.780 -0.5563 -0.7123 -0.0558
 2812poe    c2312142   4.883   5.812   4.707 -0.3804 -0.1007 -0.9077
 2812poe     o212143   4.805   5.922   4.666 -0.2351  0.2080 -0.3660
 2812poe    c3112144   4.692   5.851   4.620 -0.3365  0.4405 -0.4751
 2813poe    c3112145   2.742   3.498   1.426 -0.3700 -0.3766 -0.5127
 2813poe     o212146   2.865   3.461   1.485 -0.4863  0.2887  0.1721
 2813poe    c2312147   2.865   3.503   1.619  0.2187 -0.1113  0.3025
 2813poe    c2312148   2.992   3.438   1.677  0.4322  0.0276 -0.0094
 2813poe     o212149   3.085   3.517   1.606 -0.0968  0.6192 -0.0580
 2813poe    c2312150   3.213   3.532   1.663  0.1104  0.0417 -0.3564
 2813poe    c2312151   3.313   3.590   1.562 -0.3276  0.2469 -0.6774
 2813poe     o212152   3.306   3.519   1.441 -0.1943 -0.1851 -0.4346
 2813poe    c2312153   3.415   3.557   1.361  0.1546 -0.3273 -0.0291
 2813poe    c2312154   3.390   3.547   1.209  0.5845  0.0943 -0.1299
 2813poe     o212155   3.292   3.643   1.177 -0.1221 -0.6086 -0.1001
 2813poe    c3112156   3.263   3.655   1.040  0.4733  0.1605 -0.1659
 2814poe    c3112157   2.111   0.813   4.069  0.8023  0.0614 -0.5951
 2814poe     o212158   2.014   0.720   4.027 -0.1271  0.7344  0.0267
 2814poe    c2312159   1.988   0.729   3.889 -0.0379  0.2931 -0.0208
 2814poe    c2312160   1.843   0.686   3.860  0.1293 -0.0552 -0.3449
 2814poe     o212161   1.825   0.546   3.872 -0.1744  0.0379  0.3201
 2814poe    c2312162   1.697   0.505   3.829 -0.0120 -0.3366  0.1869
 2814poe    c2312163   1.613   0.420   3.926  0.4840  0.3707  1.2687
 2814poe     o212164   1.687   0.305   3.958  0.6423  0.3478  0.8310
 2814poe    c2312165   1.614   0.230   4.053 -0.5151 -0.1248 -0.4115
 2814poe    c2312166   1.702   0.130   4.129  0.0130  0.5134 -0.1719
 2814poe     o212167   1.830   0.186   4.143  0.2836 -0.1059 -0.1412
 2814poe    c3112168   1.915   0.116   4.231 -0.6792 -0.2275  0.7029
 2815poe    c3112169   7.292   6.140   4.757 -0.1102  0.1713  0.1460
 2815poe     o212170   7.221   6.020   4.735 -0.4546  0.5032 -0.6008
 2815poe    c2312171   7.100   6.021   4.807 -0.2378 -0.6858 -0.1984
 2815poe    c2312172   6.991   5.961   4.716 -0.4346 -0.2449 -0.2530
 2815poe     o212173   7.031   5.830   4.684  0.2637 -0.1214  0.0987
 2815poe    c2312174   6.971   5.781   4.566  0.0141  0.3015  0.0485
 2815poe    c2312175   7.044   5.658   4.509  0.1597  0.2916  0.2557
 2815poe     o212176   7.062   5.571   4.619  0.5914  0.2589  0.1595
 2815poe    c2312177   7.093   5.442   4.572 -0.3750  0.0209  0.1513
 2815poe    c2312178   7.144   5.365   4.695  0.2528  0.0737 -0.0752
 2815poe     o212179   7.226   5.453   4.769 -0.0480 -0.1790  0.5585
 2815poe    c3112180   7.328   5.376   4.829 -0.4043 -0.0945  1.2926
 2816poe    c3112181   5.759   3.987   0.593 -0.2506  0.5430 -0.1468
 2816poe     o212182   5.719   3.982   0.458  0.3950  0.4370 -0.3400
 2816poe    c2312183   5.620   4.078   0.428 -0.3710 -0.2229  0.0461
 2816poe    c2312184   5.572   4.057   0.283 -0.4130  0.2696 -0.0097
 2816poe     o212185   5.673   4.047   0.185 -0.1059 -0.3384  0.3648
 2816poe    c2312186   5.621   4.079   0.058  0.1860  0.0986  0.3520
 2816poe    c2312187   5.720   4.022  -0.046  0.0468  0.6266 -0.0728
 2816poe     o212188   5.842   4.059   0.014  0.2224  0.3180 -0.2408
 2816poe    c2312189   5.935   3.974  -0.050 -0.2086 -0.7947  0.5571
 2816poe    c2312190   6.060   3.988   0.038  0.1290  0.4268 -0.0894
 2816poe     o212191   6.036   3.992   0.177 -0.1937 -0.1969 -0.1266
 2816poe    c3112192   6.160   3.989   0.244 -0.3057 -0.5053  0.0715
 2817poe    c3112193   7.306   4.355   6.773  1.0134 -0.7068  0.4710
 2817poe     o212194   7.220   4.247   6.803  0.1086 -0.0512  0.2870
 2817poe    c2312195   7.275   4.160   6.900  0.8589  0.0054 -0.0851
 2817poe    c2312196   7.288   4.013   6.856  0.6794 -0.0802  0.1492
 2817poe     o212197   7.400   3.996   6.772  0.3576 -0.4148 -0.2231
 2817poe    c2312198   7.360   3.968   6.640 -0.2631  0.2566 -0.1826
 2817poe    c2312199   7.468   3.894   6.560  0.0699  0.1684  0.3426
 2817poe     o212200   7.588   3.962   6.591  0.1567  0.0516  0.2647
 2817poe    c2312201   7.677   3.965   6.482 -0.2677  0.4632 -0.0783
 2817poe    c2312202   7.781   4.076   6.506 -0.2606  0.3212  0.5506
 2817poe     o212203   7.705   4.195   6.510 -0.3428  0.2993 -0.2390
 2817poe    c3112204   7.770   4.308   6.458  0.1602 -0.3756 -1.1075
 2818poe    c3112205   7.330   5.924   5.082  0.3609  0.3787 -0.4279
 2818poe     o212206   7.410   5.811   5.058  0.4954  0.3896 -0.0286
 2818poe    c2312207   7.386   5.725   5.168  0.0918  0.6126  0.0587
 2818poe    c2312208   7.521   5.680   5.228 -0.3454 -0.4020  0.2978
 2818poe     o212209   7.595   5.611   5.130  0.1601 -0.4142  0.6848
 2818poe    c2312210   7.711   5.555   5.187  0.0302 -0.4943  0.8747
 2818poe    c2312211   7.770   5.467   5.074 -0.1912  0.7228 -0.2158
 2818poe     o212212   7.733   5.492   4.940  0.3319 -0.1607 -0.5342
 2818poe    c2312213   7.757   5.380   4.859  0.4806 -0.6076  0.1181
 2818poe    c2312214   7.787   5.413   4.712  0.2560  0.1680  0.2427
 2818poe     o212215   7.915   5.471   4.706  0.7789 -0.9351  0.4078
 2818poe    c3112216   7.931   5.524   4.576  0.2138 -0.7989  0.3876
 2819poe    c3112217   2.650   4.271   5.394  0.2995 -0.0532  0.0973
 2819poe     o212218   2.591   4.386   5.337 -0.4448 -0.4154  0.1220
 2819poe    c2312219   2.488   4.341   5.252  0.0743 -0.6024 -0.4119
 2819poe    c2312220   2.492   4.411   5.115 -0.1655 -0.0576 -0.1466
 2819poe     o212221   2.617   4.392   5.051 -0.2887 -0.1280 -0.3691
 2819poe    c2312222   2.710   4.491   5.088  0.0145 -0.5208 -0.0714
 2819poe    c2312223   2.849   4.472   5.023  0.3227  0.0320  0.4206
 2819poe     o212224   2.850   4.545   4.903 -0.1847 -0.2800  0.2262
 2819poe    c2312225   2.968   4.512   4.833 -0.7294 -0.4628 -0.6261
 2819poe    c2312226   2.969   4.551   4.684 -0.0731 -0.2568 -0.5692
 2819poe     o212227   2.943   4.439   4.602 -0.4008 -0.5093 -0.1226
 2819poe    c3112228   2.941   4.484   4.469 -0.0436 -0.8152 -0.2325
 2820poe    c3112229   6.273   5.574   0.731  0.1872 -0.1721  0.0254
 2820poe     o212230   6.246   5.529   0.862  0.1850  0.2767  0.1787
 2820poe    c2312231   6.259   5.389   0.853 -0.5466  0.2404 -0.4178
 2820poe    c2312232   6.174   5.324   0.964  0.2401  0.1182  0.1268
 2820poe     o212233   6.058   5.398   0.995 -0.7177 -1.1709 -0.3029
 2820poe    c2312234   6.021   5.365   1.127 -0.7100 -0.1542 -0.0431
 2820poe    c2312235   5.906   5.461   1.164 -0.1215  0.2931  0.6402
 2820poe     o212236   5.942   5.594   1.133  0.4012  0.1796  0.7441
 2820poe    c2312237   5.848   5.685   1.186 -0.7311 -0.8348  0.5238
 2820poe    c2312238   5.729   5.715   1.092 -0.0459  0.6319  0.0856
 2820poe     o212239   5.779   5.772   0.973 -0.4708  0.1538 -0.3266
 2820poe    c3112240   5.679   5.818   0.886 -0.5137  0.5705 -0.0594
 2821poe    c3112241   4.589   1.667   2.959  0.6934 -0.7642  0.5530
 2821poe     o212242   4.561   1.677   2.821  0.2942  0.1139  0.6882
 2821poe    c2312243   4.660   1.755   2.757 -0.0235  0.0106  0.0608
 2821poe    c2312244   4.783   1.685   2.696  0.1118  0.4563 -0.1774
 2821poe     o212245   4.856   1.611   2.791 -0.1467  0.0131 -0.3238
 2821poe    c2312246   4.986   1.574   2.751 -0.0236 -0.0339  0.1173
 2821poe    c2312247   5.044   1.451   2.822 -0.1433 -0.2175 -0.1008
 2821poe     o212248   5.003   1.319   2.796  0.4233 -0.4525  0.1681
 2821poe    c2312249   4.871   1.284   2.834  0.2780 -0.3141 -0.2039
 2821poe    c2312250   4.874   1.135   2.872 -0.0879 -0.0176  1.0602
 2821poe     o212251   4.925   1.052   2.770  0.0266  0.4467  0.7384
 2821poe    c3112252   4.866   0.926   2.786 -0.0255  0.2606 -0.7181
 2822poe    c3112253   3.814   5.502   6.187 -0.0080  1.0682 -0.6061
 2822poe     o212254   3.932   5.428   6.165 -0.1706  0.5449  0.2284
 2822poe    c2312255   3.944   5.422   6.024  0.4036 -0.5214  0.3131
 2822poe    c2312256   4.066   5.334   5.992  0.3494 -0.4451 -0.1001
 2822poe     o212257   4.199   5.381   5.984  0.1776  0.0733  0.0763
 2822poe    c2312258   4.260   5.390   6.110  0.7025  0.3389 -0.1929
 2822poe    c2312259   4.414   5.396   6.104  0.7572  0.2066  0.8748
 2822poe     o212260   4.494   5.284   6.074 -0.0642 -0.0897 -0.2676
 2822poe    c2312261   4.623   5.316   6.120 -0.0652  0.1948 -0.4587
 2822poe    c2312262   4.712   5.190   6.124  0.5421  0.6245 -0.3267
 2822poe     o212263   4.723   5.121   6.002  0.3968 -0.3664  0.2107
 2822poe    c3112264   4.812   5.012   6.019  0.6132 -0.3007 -0.4965
 2823poe    c3112265   3.477   2.960   0.387  0.0436  0.2598  0.1008
 2823poe     o212266   3.427   3.086   0.347 -0.0104  0.2241  0.0554
 2823poe    c2312267   3.368   3.150   0.458 -0.0165 -0.1320  0.2591
 2823poe    c2312268   3.320   3.291   0.417  0.2516 -0.1479 -0.1145
 2823poe     o212269   3.199   3.269   0.348  0.2903  0.7932 -0.4977
 2823poe    c2312270   3.073   3.253   0.409  0.5457 -0.2017 -0.2083
 2823poe    c2312271   2.971   3.202   0.305 -0.0187 -0.1552  0.3186
 2823poe     o212272   3.009   3.083   0.239  0.6762  0.4049 -0.3016
 2823poe    c2312273   2.915   3.038   0.144 -0.1332 -0.0528  0.6934
 2823poe    c2312274   2.936   2.891   0.103  0.6559  0.2071  0.1352
 2823poe     o212275   2.883   2.795   0.192  0.2498  0.4295  0.1336
 2823poe    c3112276   2.823   2.685   0.127  0.4801  0.0671  0.5265
 2824poe    c3112277   3.991   4.206   2.066  0.3487  0.0262 -0.5605
 2824poe     o212278   3.851   4.197   2.079  0.4182 -0.3818 -0.0756
 2824poe    c2312279   3.800   4.082   2.015 -0.2796 -0.0772 -0.0794
 2824poe    c2312280   3.659   4.055   2.072 -0.2954 -0.6322 -0.3797
 2824poe     o212281   3.585   4.172   2.050  0.1660 -0.2759 -0.0477
 2824poe    c2312282   3.451   4.174   2.096  0.3056 -0.4671  0.3701
 2824poe    c2312283   3.427   4.194   2.247  0.3522 -0.6099  0.3968
 2824poe     o212284   3.481   4.085   2.317  0.0609 -0.6738  0.5239
 2824poe    c2312285   3.476   4.124   2.453  0.1121  0.4284  0.2132
 2824poe    c2312286   3.590   4.079   2.547 -0.2390 -0.0121  0.4288
 2824poe     o212287   3.597   3.941   2.572  0.4043 -0.0392  0.1042
 2824poe    c3112288   3.722   3.892   2.615  0.4139  0.2991  0.4618
 2825poe    c3112289   1.398   3.208   1.143  0.1295 -0.3672  0.0200
 2825poe     o212290   1.376   3.105   1.237  0.3206 -0.3891  0.0406
 2825poe    c2312291   1.253   3.129   1.302  0.2173  0.1807 -0.3590
 2825poe    c2312292   1.129   3.072   1.231 -0.1597  0.4142  0.1093
 2825poe     o212293   1.012   3.051   1.306 -0.2221  0.3615 -0.0026
 2825poe    c2312294   0.894   3.071   1.230 -0.1939  0.2137 -0.0861
 2825poe    c2312295   0.773   3.038   1.319  0.7358 -0.1979  1.0594
 2825poe     o212296   0.727   3.157   1.379  0.1012 -0.1497  0.4878
 2825poe    c2312297   0.588   3.173   1.362  0.0893 -0.2012  0.5361
 2825poe    c2312298   0.523   3.295   1.432 -0.7201 -0.2333 -0.1400
 2825poe     o212299   0.556   3.410   1.357 -0.3505 -0.0358  0.3218
 2825poe    c3112300   0.462   3.509   1.391 -0.1596 -0.0482  0.9061
 2826poe    c3112301   5.197   4.224   5.775  0.2128  0.0041 -0.1183
 2826poe     o212302   5.278   4.308   5.854  0.2001  0.1988 -0.3121
 2826poe    c2312303   5.318   4.237   5.969  0.5188 -0.3660 -0.7669
 2826poe    c2312304   5.317   4.328   6.093 -0.2663 -0.9411 -0.3399
 2826poe     o212305   5.186   4.354   6.138 -0.0846  0.4803 -0.5658
 2826poe    c2312306   5.132   4.471   6.083 -0.2120  0.7489  0.1217
 2826poe    c2312307   4.978   4.469   6.094 -0.1533  0.2265  0.9003
 2826poe     o212308   4.941   4.421   6.221 -0.1679  0.1176  0.8550
 2826poe    c2312309   4.805   4.383   6.230 -0.1669 -0.1797 -0.2162
 2826poe    c2312310   4.686   4.480   6.221 -0.3400 -0.3641  0.0824
 2826poe     o212311   4.686   4.586   6.314 -0.5863 -0.8756  0.6717
 2826poe    c3112312   4.574   4.665   6.278  0.1497 -0.1186 -0.0011
 2827poe    c3112313   5.900   0.443   4.764 -0.1466 -0.0280 -0.1519
 2827poe     o212314   5.793   0.352   4.751 -0.1120 -0.0661 -0.1733
 2827poe    c2312315   5.748   0.335   4.619 -0.4283  0.2604 -0.1093
 2827poe    c2312316   5.838   0.246   4.531 -0.2140  0.1402  0.2318
 2827poe     o212317   5.930   0.295   4.436 -0.4636  0.0450 -0.0585
 2827poe    c2312318   6.014   0.189   4.395 -0.9110 -0.1591 -0.4560
 2827poe    c2312319   6.106   0.252   4.288  0.0052  0.4403  0.6697
 2827poe     o212320   6.041   0.327   4.188  0.8379 -0.0625 -0.2623
 2827poe    c2312321   6.146   0.403   4.132  0.6465  0.2127 -0.2493
 2827poe    c2312322   6.089   0.519   4.048  0.6610  0.2298 -0.2356
 2827poe     o212323   6.042   0.624   4.129 -0.1409 -0.0603 -0.3134
 2827poe    c3112324   5.977   0.725   4.054 -0.3166  0.8107  0.9791
 2828poe    c3112325   1.527   4.498   3.631 -0.2947  0.2792  0.2880
 2828poe     o212326   1.479   4.541   3.756 -0.1381 -0.5424  0.6357
 2828poe    c2312327   1.567   4.523   3.865  0.2503 -0.3458  0.3540
 2828poe    c2312328   1.544   4.614   3.987  0.1933  0.3071 -0.1341
 2828poe     o212329   1.425   4.581   4.054  0.1774  0.4876 -0.0721
 2828poe    c2312330   1.363   4.687   4.122  0.7693  0.5554  0.3592
 2828poe    c2312331   1.372   4.666   4.274  0.2829  0.1438  0.3327
 2828poe     o212332   1.315   4.544   4.318  0.5417 -0.1090 -0.0233
 2828poe    c2312333   1.274   4.551   4.453  0.2621  0.0064 -0.1150
 2828poe    c2312334   1.217   4.415   4.499 -0.8627  0.5404  0.1096
 2828poe     o212335   1.305   4.310   4.465 -0.9023  0.4129  0.3979
 2828poe    c3112336   1.257   4.185   4.509 -0.4818  0.0985 -0.0409
 2829poe    c3112337   2.499   3.715   6.743 -0.3466  0.0106 -0.3676
 2829poe     o212338   2.527   3.792   6.857  0.1307 -0.1050 -0.4060
 2829poe    c2312339   2.450   3.761   6.971  0.0765  0.4129 -0.2995
 2829poe    c2312340   2.485   3.868   7.076 -0.0743 -0.2004  0.3873
 2829poe     o212341   2.486   3.997   7.019 -0.9545 -0.3672 -0.0138
 2829poe    c2312342   2.506   4.098   7.115 -0.3777  0.1900 -0.7043
 2829poe    c2312343   2.480   4.240   7.061 -0.2667  0.5466  0.1635
 2829poe     o212344   2.587   4.277   6.977 -0.0038 -0.4013  0.0731
 2829poe    c2312345   2.569   4.385   6.888  0.2677 -0.2402  0.2114
 2829poe    c2312346   2.705   4.404   6.818  0.2848 -0.1607  0.2663
 2829poe     o212347   2.728   4.302   6.723  0.1124 -0.0827  0.1413
 2829poe    c3112348   2.862   4.297   6.682 -0.0228  0.5638 -0.3863
 2830poe    c3112349   4.359   6.540   5.504 -0.0930  0.3482 -0.0945
 2830poe     o212350   4.284   6.488   5.396  0.1603 -0.3549  0.0637
 2830poe    c2312351   4.163   6.428   5.437 -0.0491 -0.2259 -0.3666
 2830poe    c2312352   4.100   6.331   5.336  0.0662 -0.2927 -0.3746
 2830poe     o212353   4.054   6.406   5.226 -0.1623  0.0170 -0.0693
 2830poe    c2312354   4.024   6.313   5.124  0.2520 -0.3360  0.1301
 2830poe    c2312355   3.919   6.384   5.037  0.3208  0.2405  0.5073
 2830poe     o212356   3.962   6.499   4.969 -0.4404  0.4781  0.4172
 2830poe    c2312357   3.905   6.534   4.844 -0.2948 -0.1231  0.1787
 2830poe    c2312358   3.951   6.678   4.817 -0.3502 -0.1118  0.1477
 2830poe     o212359   4.090   6.701   4.821 -0.3896  0.1558  0.0189
 2830poe    c3112360   4.125   6.801   4.728 -0.2401  0.0827 -0.0052
 2831poe    c3112361   0.130   2.689   0.155  0.0592 -0.2038  0.4802
 2831poe     o212362   0.115   2.563   0.216  0.0068 -0.3841  0.1013
 2831poe    c2312363   0.140   2.579   0.354  0.0511 -0.1110  0.0621
 2831poe    c2312364   0.115   2.451   0.436  0.3171 -0.2238 -0.0306
 2831poe     o212365  -0.011   2.392   0.412  0.2610  0.0346 -0.3741
 2831poe    c2312366  -0.086   2.349   0.524  0.9186 -0.6436 -0.1813
 2831poe    c2312367  -0.158   2.215   0.501  0.1310 -0.1879 -0.4252
 2831poe     o212368  -0.072   2.109   0.536  0.2319 -0.0720 -0.3209
 2831poe    c2312369  -0.135   1.986   0.509 -0.2070  0.1038 -0.1045
 2831poe    c2312370  -0.050   1.866   0.555  0.0833  0.2642 -0.2213
 2831poe     o212371   0.074   1.858   0.488 -0.1549 -0.7840 -0.5627
 2831poe    c3112372   0.165   1.782   0.565 -0.0389  0.3365  0.4389
 2832poe    c3112373   3.681   0.913   5.850 -0.0130  0.3307 -0.1043
 2832poe     o212374   3.602   1.025   5.884 -0.1083  0.1691  0.2074
 2832poe    c2312375   3.510   0.986   5.983 -0.3653 -0.2372 -0.1881
 2832poe    c2312376   3.436   1.106   6.046  0.3156  0.0378  0.0902
 2832poe     o212377   3.524   1.177   6.131  0.5287  0.0326 -0.1250
 2832poe    c2312378   3.456   1.276   6.205 -0.3352  0.0062 -0.8581
 2832poe    c2312379   3.374   1.239   6.331  0.4970  0.6573 -0.1121
 2832poe     o212380   3.440   1.165   6.431 -0.1781  0.8392  0.4722
 2832poe    c2312381   3.339   1.125   6.521  0.0404 -0.6887  0.0526
 2832poe    c2312382   3.316   1.209   6.648 -0.3354 -0.1373 -0.3762
 2832poe     o212383   3.416   1.185   6.745 -0.6180 -0.4158 -0.1514
 2832poe    c3112384   3.373   1.265   6.852 -0.5245  0.1874 -0.5563
 2833poe    c3112385   6.020   0.898   5.112 -0.4356  0.2148 -0.7440
 2833poe     o212386   6.128   0.951   5.038 -0.0088  0.1662 -0.1593
 2833poe    c2312387   6.157   1.084   5.073  0.8263 -0.2869  0.9207
 2833poe    c2312388   6.273   1.153   4.999 -0.5074  0.3155 -0.6522
 2833poe     o212389   6.244   1.204   4.870 -0.4168  0.6398 -0.5460
 2833poe    c2312390   6.362   1.183   4.795  0.0648  0.2627  0.2948
 2833poe    c2312391   6.341   1.159   4.644 -0.3851  0.4376  0.3251
 2833poe     o212392   6.268   1.253   4.568  0.1016  0.3565 -0.2516
 2833poe    c2312393   6.253   1.196   4.440 -0.8343 -0.4424  0.1955
 2833poe    c2312394   6.195   1.294   4.336 -0.2970 -0.8839 -0.5336
 2833poe     o212395   6.062   1.331   4.366  0.0498  0.2323 -0.3287
 2833poe    c3112396   6.012   1.453   4.316 -0.1851 -0.0280 -0.7307
 2834poe    c3112397   2.911   0.305   7.098 -0.2218  0.5608 -0.0545
 2834poe     o212398   2.846   0.423   7.056 -0.3311  0.3989 -0.3449
 2834poe    c2312399   2.933   0.509   6.986 -0.0398  0.5406  0.1904
 2834poe    c2312400   2.842   0.627   6.946 -0.3155  0.3002  0.1117
 2834poe     o212401   2.780   0.668   7.066  0.6637  0.3644  0.5998
 2834poe    c2312402   2.742   0.803   7.054  0.1976  0.2011  0.2038
 2834poe    c2312403   2.646   0.836   7.169  0.0736 -0.1122  0.1902
 2834poe     o212404   2.578   0.716   7.196 -0.1398 -0.0980 -0.2687
 2834poe    c2312405   2.485   0.727   7.301  0.5467  0.1721  0.3144
 2834poe    c2312406   2.348   0.664   7.268  0.5753  0.0981  0.3365
 2834poe     o212407   2.350   0.523   7.261  0.1155  0.0764  0.6314
 2834poe    c3112408   2.228   0.460   7.229  0.0219  0.1992  0.7440
 2835poe    c3112409   1.791   3.059   7.304  0.3027  0.5938  0.3894
 2835poe     o212410   1.925   3.016   7.298  0.0675 -0.1029  0.0365
 2835poe    c2312411   1.980   3.071   7.180 -0.0048 -0.3803 -0.1273
 2835poe    c2312412   2.118   3.011   7.146 -0.0588 -0.5529 -0.0429
 2835poe     o212413   2.221   3.009   7.243 -0.1211  0.1218  0.0463
 2835poe    c2312414   2.306   2.897   7.239  0.0620  0.2370  0.6541
 2835poe    c2312415   2.412   2.906   7.350  0.7946  0.6067 -0.0689
 2835poe     o212416   2.380   2.896   7.487 -0.3911  0.0374 -0.3799
 2835poe    c2312417   2.412   2.768   7.535  0.2555  0.2637 -0.2034
 2835poe    c2312418   2.419   2.774   7.688 -0.5006  0.3231 -0.1689
 2835poe     o212419   2.291   2.785   7.746 -0.3793 -0.8328  0.3526
 2835poe    c3112420   2.295   2.804   7.885  0.6001  0.0470  0.2185
 2836poe    c3112421   5.209   5.011   3.870 -0.0052  0.1404 -0.2578
 2836poe     o212422   5.279   4.950   3.764 -0.0749  0.0287 -0.2397
 2836poe    c2312423   5.414   4.990   3.762 -0.0878  0.1001  0.2795
 2836poe    c2312424   5.491   4.924   3.647  0.0260  0.3041  0.2374
 2836poe     o212425   5.476   4.784   3.651 -0.4425  0.3483  0.0714
 2836poe    c2312426   5.560   4.713   3.562  0.1752  0.3030  0.6792
 2836poe    c2312427   5.552   4.560   3.578  0.2589  0.2559  0.2651
 2836poe     o212428   5.446   4.494   3.511  0.7799 -0.0478 -0.2689
 2836poe    c2312429   5.429   4.363   3.560 -0.0581 -0.0165 -0.4575
 2836poe    c2312430   5.301   4.306   3.497 -0.1701 -0.3990  0.1010
 2836poe     o212431   5.176   4.371   3.509  0.0429 -0.0139  0.2562
 2836poe    c3112432   5.089   4.287   3.436  0.0712  0.2249 -0.0584
 2837poe    c3112433   4.587   6.366   0.850 -0.1493  0.1638  0.2829
 2837poe     o212434   4.633   6.373   0.717 -0.8420  0.0747  0.0314
 2837poe    c2312435   4.720   6.481   0.690 -0.4915 -0.3138 -0.4282
 2837poe    c2312436   4.732   6.526   0.543  0.1276 -0.0144 -0.2924
 2837poe     o212437   4.608   6.572   0.494 -0.2312 -0.5586  0.0845
 2837poe    c2312438   4.615   6.595   0.355 -0.5707  0.3343  0.2056
 2837poe    c2312439   4.480   6.622   0.288 -0.2744 -0.3323 -0.6801
 2837poe     o212440   4.408   6.741   0.311  0.7492  0.2903 -0.6748
 2837poe    c2312441   4.291   6.746   0.233  0.3564  0.3321 -0.0891
 2837poe    c2312442   4.281   6.811   0.094  0.3538  0.2591 -0.1229
 2837poe     o212443   4.352   6.739  -0.005  0.2343 -0.0691  0.0288
 2837poe    c3112444   4.323   6.774  -0.138 -0.1339  0.1747  0.1700
 2838poe    c3112445   1.159   6.202   3.332 -0.3725 -0.2930 -0.0402
 2838poe     o212446   1.107   6.086   3.393 -0.4374  0.0494  0.5656
 2838poe    c2312447   1.193   5.974   3.389 -0.7353 -0.1730  0.2721
 2838poe    c2312448   1.156   5.867   3.492 -0.6186 -0.2333  0.2523
 2838poe     o212449   1.152   5.920   3.623  0.0886  0.2763  0.0664
 2838poe    c2312450   1.138   5.814   3.714 -0.7885  0.2525 -0.0933
 2838poe    c2312451   1.117   5.880   3.852 -0.3731  0.2319 -0.0208
 2838poe     o212452   1.025   5.984   3.828 -0.8651 -0.0875  0.4687
 2838poe    c2312453   0.961   6.029   3.945 -0.4553  0.5160  0.4690
 2838poe    c2312454   0.851   6.133   3.916 -0.6158  0.0112 -0.7682
 2838poe     o212455   0.910   6.255   3.877  0.0789 -0.2906 -0.6690
 2838poe    c3112456   0.817   6.346   3.822 -0.2331  0.3177  0.8325
 2839poe    c3112457   2.348   3.789   2.299  0.0733  0.2947  0.0632
 2839poe     o212458   2.355   3.928   2.279 -0.3622  0.3817  0.4908
 2839poe    c2312459   2.290   3.988   2.389 -0.0507  0.2834  0.7321
 2839poe    c2312460   2.323   4.139   2.386  0.1548  0.2335  0.3683
 2839poe     o212461   2.268   4.204   2.274  0.1257 -0.0827  0.1961
 2839poe    c2312462   2.261   4.343   2.299 -0.0932 -0.1229  0.3610
 2839poe    c2312463   2.226   4.424   2.173  0.3297 -0.3880  0.0694
 2839poe     o212464   2.315   4.383   2.071  0.4572  0.1144 -0.0246
 2839poe    c2312465   2.263   4.434   1.950  0.0425  0.1468  0.1627
 2839poe    c2312466   2.343   4.388   1.827 -0.0545  0.0936  0.1198
 2839poe     o212467   2.384   4.260   1.868  0.0254  0.1707  0.2767
 2839poe    c3112468   2.509   4.222   1.815 -0.8487 -1.0639 -0.9639
 2840poe    c3112469   6.921   6.426   6.996 -0.2458  0.0212 -0.4689
 2840poe     o212470   7.055   6.387   7.018 -0.2127  0.3193 -0.1290
 2840poe    c2312471   7.064   6.275   7.104  0.1973  0.0407 -0.5312
 2840poe    c2312472   7.201   6.257   7.172  0.0177  0.2414 -0.1148
 2840poe     o212473   7.288   6.236   7.063 -0.0456 -0.0761 -0.1052
 2840poe    c2312474   7.420   6.213   7.106  0.0518  0.2206 -0.2434
 2840poe    c2312475   7.504   6.147   6.995  0.6340 -0.0351  0.3449
 2840poe     o212476   7.539   6.238   6.893  0.0882  0.1877  0.3543
 2840poe    c2312477   7.668   6.216   6.841 -0.2995  0.2706 -0.6635
 2840poe    c2312478   7.764   6.331   6.875  0.0464 -0.1943 -0.0289
 2840poe     o212479   7.744   6.444   6.793  0.5631 -0.2064 -0.1787
 2840poe    c3112480   7.815   6.433   6.672  0.2824  0.1106 -0.3765
 2841poe    c3112481   5.353   4.840   3.172  0.0798  0.2237 -0.4987
 2841poe     o212482   5.259   4.735   3.167 -0.5658  0.7752 -0.1182
 2841poe    c2312483   5.279   4.650   3.056  0.2296  0.4759  0.2404
 2841poe    c2312484   5.220   4.511   3.083 -0.2957  0.5322 -0.5585
 2841poe     o212485   5.087   4.533   3.125 -0.3440  0.0043 -0.4208
 2841poe    c2312486   4.990   4.503   3.028 -0.4409  0.3187 -0.4200
 2841poe    c2312487   4.853   4.538   3.091 -0.6118 -0.0552 -0.5791
 2841poe     o212488   4.854   4.675   3.123  0.1742 -0.1986  0.0544
 2841poe    c2312489   4.721   4.708   3.157  0.1209 -0.2948 -0.0644
 2841poe    c2312490   4.686   4.858   3.151  0.0526 -0.3068  0.0488
 2841poe     o212491   4.756   4.920   3.256  0.1264  0.4484 -0.4436
 2841poe    c3112492   4.720   5.056   3.262  0.4346  0.5163 -0.0067
 2842poe    c3112493   5.984   3.151   6.321 -0.6702  1.0143 -0.4734
 2842poe     o212494   6.044   3.252   6.400  0.1798  0.3262 -0.2248
 2842poe    c2312495   5.956   3.299   6.499 -0.3538 -0.7047 -0.1892
 2842poe    c2312496   6.030   3.388   6.601 -0.7565 -0.2432 -0.2945
 2842poe     o212497   6.096   3.493   6.532 -0.0472 -0.2993  0.2936
 2842poe    c2312498   6.117   3.591   6.632 -0.2068 -0.5269  0.5529
 2842poe    c2312499   6.227   3.694   6.604 -0.2527 -0.5265  0.3638
 2842poe     o212500   6.342   3.626   6.557  0.2331  0.3327  0.2852
 2842poe    c2312501   6.448   3.712   6.522  0.0000  0.3450 -0.4042
 2842poe    c2312502   6.557   3.611   6.480 -0.3351 -0.4666  0.6304
 2842poe     o212503   6.495   3.536   6.378  0.2533  0.0906 -0.1529
 2842poe    c3112504   6.601   3.511   6.288  0.2843 -0.3084 -0.0101
 2843poe    c3112505   5.634   6.668   2.408  0.0449 -0.1766  0.4868
 2843poe     o212506   5.664   6.594   2.524 -0.1618  0.1426  0.7430
 2843poe    c2312507   5.578   6.617   2.634 -1.1415 -0.4611  0.1129
 2843poe    c2312508   5.608   6.501   2.731  0.0085  0.1215  0.4714
 2843poe     o212509   5.746   6.474   2.734  0.0540  0.2702 -0.1586
 2843poe    c2312510   5.767   6.350   2.798 -0.1419  0.0884 -0.4427
 2843poe    c2312511   5.886   6.366   2.894 -0.5669 -0.5361  0.1938
 2843poe     o212512   5.984   6.426   2.813 -0.1264 -0.5955  0.6745
 2843poe    c2312513   6.112   6.427   2.872  0.1057  1.1314  0.1789
 2843poe    c2312514   6.201   6.519   2.786  0.2992 -0.0029 -0.8638
 2843poe     o212515   6.131   6.639   2.764 -0.1807  0.0308  0.6965
 2843poe    c3112516   6.211   6.755   2.749 -0.3951  0.1437  0.4191
 2844poe    c3112517   5.500   1.870   1.769 -0.6080  0.6250  0.3928
 2844poe     o212518   5.398   1.874   1.672 -0.4671 -0.1192  0.2026
 2844poe    c2312519   5.425   1.779   1.572 -0.3966  0.6378 -0.5075
 2844poe    c2312520   5.339   1.829   1.454  0.3307  1.0513 -0.8719
 2844poe     o212521   5.208   1.855   1.501  0.3667  0.0267 -0.1684
 2844poe    c2312522   5.114   1.854   1.396  0.6053 -0.1980 -0.3819
 2844poe    c2312523   5.117   1.985   1.315 -0.2954  0.3568  0.4577
 2844poe     o212524   5.072   2.107   1.369 -0.7235  0.3293  0.1655
 2844poe    c2312525   5.062   2.216   1.281  0.0031 -0.2173 -0.6022
 2844poe    c2312526   4.995   2.344   1.335  0.2161 -0.0582 -0.7148
 2844poe     o212527   4.855   2.341   1.324  0.0998 -0.2331  0.6972
 2844poe    c3112528   4.800   2.455   1.387  0.2818 -0.2981  0.9758
 2845poe    c3112529   2.428   0.638   6.490 -0.1547  0.0189  0.2289
 2845poe     o212530   2.407   0.755   6.415 -0.3276 -0.4556 -0.4722
 2845poe    c2312531   2.380   0.736   6.278 -1.2345  0.5585 -0.4482
 2845poe    c2312532   2.507   0.742   6.191 -0.3497  0.0335  0.7668
 2845poe     o212533   2.570   0.868   6.183  0.1140 -0.2299  0.2805
 2845poe    c2312534   2.684   0.852   6.100 -0.5159  0.6143 -0.7778
 2845poe    c2312535   2.790   0.962   6.123  0.1717 -0.2103  0.0494
 2845poe     o212536   2.814   1.004   6.256  0.6303  0.0677 -0.1205
 2845poe    c2312537   2.884   1.127   6.261  0.5051  0.1456 -0.2719
 2845poe    c2312538   2.863   1.201   6.394  0.3720 -0.2523 -0.0703
 2845poe     o212539   2.724   1.211   6.409  0.3830  0.2872 -0.3265
 2845poe    c3112540   2.690   1.325   6.485 -1.1283 -0.5115  0.2361
 2846poe    c3112541   4.147   1.087   4.787 -0.2760 -0.7463  0.0366
 2846poe     o212542   4.082   1.173   4.697  0.1983 -0.1707  0.2360
 2846poe    c2312543   4.155   1.284   4.649 -0.0320 -0.1590 -0.0951
 2846poe    c2312544   4.086   1.370   4.541  0.3304 -0.0496 -0.2401
 2846poe     o212545   4.071   1.319   4.411  0.0802  0.7117 -0.5083
 2846poe    c2312546   4.007   1.417   4.332 -0.5635  0.3205 -0.4751
 2846poe    c2312547   3.981   1.379   4.185  0.0050 -0.4229 -0.3876
 2846poe     o212548   3.870   1.292   4.174 -0.2608 -0.0658 -0.5458
 2846poe    c2312549   3.754   1.371   4.160 -0.0125  0.4543  0.2791
 2846poe    c2312550   3.620   1.295   4.154  0.1204  0.1738  0.7784
 2846poe     o212551   3.551   1.289   4.276  0.2193 -0.1163  0.8228
 2846poe    c3112552   3.446   1.199   4.247 -0.1873  0.3469  0.8434
 2847poe    c3112553   5.805   6.407   5.770  0.2387  0.1343  0.0236
 2847poe     o212554   5.901   6.357   5.681  0.4297  0.2581  0.1599
 2847poe    c2312555   5.855   6.242   5.613  0.2520  0.1098  0.5293
 2847poe    c2312556   5.970   6.169   5.542 -0.2941 -0.5838  0.3465
 2847poe     o212557   6.019   6.231   5.425 -0.2574 -0.7946  0.2493
 2847poe    c2312558   6.145   6.181   5.386 -0.0224  0.1676 -0.2503
 2847poe    c2312559   6.228   6.271   5.292  0.1321 -0.1157 -0.3857
 2847poe     o212560   6.287   6.385   5.351  0.1148 -0.4305  0.2550
 2847poe    c2312561   6.427   6.371   5.365  0.2348  0.6984  0.2555
 2847poe    c2312562   6.503   6.503   5.341  0.9466  0.1987 -0.2708
 2847poe     o212563   6.557   6.553   5.221  0.5153  0.0779 -0.5213
 2847poe    c3112564   6.685   6.495   5.211  0.3194 -0.5775  0.5804
 2848poe    c3112565   5.318   0.137   0.411 -0.0090  0.2676 -0.0314
 2848poe     o212566   5.284   0.037   0.317 -0.0414  0.2428  0.0068
 2848poe    c2312567   5.150   0.049   0.274 -0.1749  0.0217  0.3501
 2848poe    c2312568   5.114  -0.070   0.183  0.0474  0.1390  0.1033
 2848poe     o212569   5.164  -0.055   0.052  0.0624 -0.3836  0.0471
 2848poe    c2312570   5.111  -0.165  -0.018 -0.3090 -0.1665 -0.0161
 2848poe    c2312571   5.154  -0.199  -0.162 -0.1764  0.0077 -0.0184
 2848poe     o212572   5.087  -0.136  -0.269 -0.2093  0.5040  0.2881
 2848poe    c2312573   5.157  -0.022  -0.311 -0.0529  0.1725 -0.3663
 2848poe    c2312574   5.068   0.069  -0.399 -0.3947  0.0542 -0.1458
 2848poe     o212575   5.011   0.012  -0.514  0.3604 -0.3232 -0.3410
 2848poe    c3112576   5.099  -0.001  -0.624  1.0481  0.1027  0.1517
 2849poe    c3112577   1.927   4.104   2.991  0.0299 -0.9987  0.9029
 2849poe     o212578   1.852   4.199   3.065 -0.4111 -0.1894 -0.5486
 2849poe    c2312579   1.930   4.245   3.173 -0.4774 -0.0503 -0.5600
 2849poe    c2312580   1.849   4.318   3.281  0.1006 -0.0370 -0.1310
 2849poe     o212581   1.752   4.253   3.361  0.0832  0.3063  0.1332
 2849poe    c2312582   1.622   4.263   3.307  0.1151  0.9884  0.1744
 2849poe    c2312583   1.580   4.136   3.231 -0.0497  0.8035  0.5719
 2849poe     o212584   1.566   4.031   3.324 -0.3605  0.0624 -0.2978
 2849poe    c2312585   1.481   3.925   3.282 -0.1989 -0.0458 -0.3526
 2849poe    c2312586   1.502   3.793   3.359  0.5853  0.0758 -0.3435
 2849poe     o212587   1.614   3.726   3.306  0.9833  0.3436  0.1477
 2849poe    c3112588   1.624   3.596   3.360  0.2857  0.4034  0.4408
 2850poe    c3112589   1.041   4.962   4.309  0.2610  0.3303 -0.8556
 2850poe     o212590   1.044   5.020   4.181  0.9155  0.1318 -0.9313
 2850poe    c2312591   0.925   4.999   4.109  0.2664  0.1166  0.1281
 2850poe    c2312592   0.940   4.868   4.028 -0.1477  0.6555 -0.8429
 2850poe     o212593   1.043   4.861   3.933  0.2550  0.3170 -0.3878
 2850poe    c2312594   1.049   4.742   3.857  0.7239  0.2577 -0.2632
 2850poe    c2312595   1.168   4.748   3.759  0.1581 -0.3946 -1.0090
 2850poe     o212596   1.149   4.853   3.667 -0.4049 -0.1658 -0.6327
 2850poe    c2312597   1.198   4.824   3.539  0.3407 -0.2582 -0.3304
 2850poe    c2312598   1.215   4.955   3.460  0.0665  0.2344  0.4216
 2850poe     o212599   1.327   5.033   3.496  0.3702  0.1611 -0.3402
 2850poe    c3112600   1.356   5.120   3.389 -0.0339  0.0734 -0.5196
 2851poe    c3112601   3.328   5.508   4.334  0.3307  0.1175  0.3951
 2851poe     o212602   3.205   5.551   4.388  0.2354  0.5457 -0.1583
 2851poe    c2312603   3.200   5.688   4.420  0.2782  0.6379 -0.5428
 2851poe    c2312604   3.056   5.734   4.448  0.1155  0.0332 -0.3661
 2851poe     o212605   2.957   5.711   4.352  0.0043  0.0639 -0.2592
 2851poe    c2312606   2.834   5.773   4.383  0.0561  0.0191  0.0355
 2851poe    c2312607   2.736   5.733   4.271  0.2489 -0.1225 -0.0831
 2851poe     o212608   2.716   5.594   4.254 -0.6486  0.0429 -0.4247
 2851poe    c2312609   2.706   5.566   4.116 -0.3034 -0.0453 -0.4336
 2851poe    c2312610   2.655   5.423   4.090  0.6133 -0.3885 -0.3942
 2851poe     o212611   2.537   5.385   4.158  0.2513  0.3637 -0.5770
 2851poe    c3112612   2.477   5.277   4.090  0.2485  0.0358 -0.0613
 2852poe    c3112613   1.136   2.666   0.546  0.7174 -0.2363 -0.1250
 2852poe     o212614   1.205   2.751   0.635  0.5503  0.2670 -0.4695
 2852poe    c2312615   1.194   2.685   0.758  0.3953  0.3371 -0.4462
 2852poe    c2312616   1.284   2.733   0.873  0.1086 -0.0940 -0.0347
 2852poe     o212617   1.236   2.703   1.002  0.1836 -0.0709 -0.0008
 2852poe    c2312618   1.326   2.756   1.096  0.0826 -0.1183  0.1235
 2852poe    c2312619   1.305   2.691   1.234  0.4914 -0.8111 -0.1355
 2852poe     o212620   1.171   2.703   1.276  0.5750 -0.0728 -0.0597
 2852poe    c2312621   1.165   2.743   1.411 -0.2921  0.5182 -0.2669
 2852poe    c2312622   1.094   2.643   1.504  0.0738  0.0911 -0.4448
 2852poe     o212623   0.954   2.638   1.498  0.0287  0.1579  0.4067
 2852poe    c3112624   0.906   2.549   1.597  0.7434 -0.2040  0.4294
 2853poe    c3112625   0.329   3.291   4.767  0.5890 -0.2971  0.1108
 2853poe     o212626   0.331   3.399   4.858  0.6146 -0.5055  0.3579
 2853poe    c2312627   0.241   3.373   4.964  0.0731  0.0364  0.0397
 2853poe    c2312628   0.217   3.504   5.040  0.4653 -0.0517  0.3207
 2853poe     o212629   0.330   3.587   5.027  0.2649  0.1532 -0.1518
 2853poe    c2312630   0.351   3.681   5.130 -0.1888  0.0104  0.0720
 2853poe    c2312631   0.453   3.781   5.075 -0.6273  0.2434 -0.3233
 2853poe     o212632   0.427   3.818   4.941 -0.5705 -0.3331 -0.4963
 2853poe    c2312633   0.534   3.888   4.880 -0.2569 -0.1314  0.2729
 2853poe    c2312634   0.499   3.950   4.744 -0.2935 -0.9615 -0.1033
 2853poe     o212635   0.446   3.864   4.646 -0.0718 -0.8397 -0.3338
 2853poe    c3112636   0.370   3.946   4.560  0.0321  0.1157  0.4772
 2854poe    c3112637   0.124   6.661   3.236 -0.7922 -0.1368  0.4747
 2854poe     o212638   0.058   6.653   3.112 -0.2711  0.0772  0.1782
 2854poe    c2312639  -0.080   6.623   3.115 -0.1695 -0.4601 -0.3436
 2854poe    c2312640  -0.192   6.711   3.174  0.2145  0.0895 -0.4268
 2854poe     o212641  -0.195   6.695   3.314 -0.0413 -0.4048 -0.4900
 2854poe    c2312642  -0.309   6.737   3.385  0.1753 -0.8248  0.1121
 2854poe    c2312643  -0.260   6.795   3.519 -0.4700 -0.0241  0.0104
 2854poe     o212644  -0.191   6.918   3.523 -0.2495 -0.1610  0.4500
 2854poe    c2312645  -0.053   6.904   3.497 -0.3036  0.1991 -0.0417
 2854poe    c2312646   0.009   7.043   3.474  0.0786  0.0406  0.0253
 2854poe     o212647  -0.001   7.132   3.583  0.3479  0.2424 -0.1140
 2854poe    c3112648   0.100   7.230   3.575  0.4850  0.1146  0.0591
 2855poe    c3112649   3.044   0.788   4.333 -0.1985  0.0653 -0.4182
 2855poe     o212650   3.054   0.781   4.193  0.4613 -0.5514 -0.3473
 2855poe    c2312651   3.166   0.845   4.137  0.2835  0.3127  0.2741
 2855poe    c2312652   3.134   0.929   4.012  0.7539 -0.1516 -0.1614
 2855poe     o212653   3.085   0.856   3.902 -0.0567  0.1419 -0.0026
 2855poe    c2312654   3.007   0.939   3.819  0.4050  0.4740 -0.1102
 2855poe    c2312655   2.971   0.859   3.692  0.1089 -0.2885  0.4442
 2855poe     o212656   2.873   0.760   3.714 -0.0042 -0.1485  0.5798
 2855poe    c2312657   2.833   0.695   3.595 -0.0662  0.9538 -0.0132
 2855poe    c2312658   2.720   0.606   3.651  0.4640  0.4718  0.3051
 2855poe     o212659   2.768   0.558   3.774 -0.7230 -0.0064  0.5938
 2855poe    c3112660   2.671   0.461   3.806 -0.2855 -0.4434  0.6052
 2856poe    c3112661   0.889   5.113   3.598  0.2472  0.5497  0.5114
 2856poe     o212662   0.755   5.150   3.617 -0.1454 -0.6497  0.2000
 2856poe    c2312663   0.686   5.088   3.724 -0.3260  0.3104  0.6502
 2856poe    c2312664   0.592   4.972   3.688  0.0648  0.1155  0.2571
 2856poe     o212665   0.468   5.002   3.629  0.2840 -0.0735 -0.3075
 2856poe    c2312666   0.415   4.882   3.578 -0.1930 -0.0257  0.0710
 2856poe    c2312667   0.267   4.878   3.534 -0.1197  0.0545 -0.1840
 2856poe     o212668   0.172   4.868   3.637  0.2539  0.6483  0.2204
 2856poe    c2312669   0.159   4.743   3.700  0.5860  0.4126 -0.1809
 2856poe    c2312670   0.010   4.734   3.738  0.6033  0.3651 -0.1220
 2856poe     o212671  -0.032   4.763   3.869  0.3754 -0.3060 -0.0408
 2856poe    c3112672  -0.171   4.785   3.881  0.3893 -0.5668  0.6538
 2857poe    c3112673   0.949   5.108   3.046 -0.5038 -0.1191  0.4028
 2857poe     o212674   0.857   5.010   3.004 -0.7302  0.3442 -0.1946
 2857poe    c2312675   0.734   5.072   2.977 -0.6065  0.6182 -0.1312
 2857poe    c2312676   0.638   5.095   3.095 -0.5167 -0.4302  0.1515
 2857poe     o212677   0.531   5.187   3.090  0.2032  0.4088  0.0531
 2857poe    c2312678   0.438   5.154   2.990  0.0582  0.4534  0.1735
 2857poe    c2312679   0.333   5.263   2.961 -0.3200  0.1523  0.4013
 2857poe     o212680   0.227   5.236   3.051 -0.4050 -0.9238 -0.0036
 2857poe    c2312681   0.117   5.323   3.034 -0.1548 -0.5009  0.5180
 2857poe    c2312682   0.062   5.384   3.164 -0.4911  0.3011  0.0030
 2857poe     o212683   0.165   5.432   3.248 -0.3549  0.5029 -0.2789
 2857poe    c3112684   0.101   5.525   3.333 -0.0812  0.5731 -0.1496
 2858poe    c3112685   0.703   4.928   2.224 -0.1820 -0.0398 -0.1661
 2858poe     o212686   0.647   4.997   2.334  0.0576  0.3780 -0.3017
 2858poe    c2312687   0.535   5.066   2.284 -0.3095  0.0886  0.1163
 2858poe    c2312688   0.480   5.172   2.381 -0.6444  0.2915 -0.2907
 2858poe     o212689   0.591   5.218   2.454 -0.9998 -0.3547  0.6810
 2858poe    c2312690   0.547   5.330   2.527 -0.4023  0.0592  0.4154
 2858poe    c2312691   0.651   5.335   2.641  0.5699  0.0545 -0.4567
 2858poe     o212692   0.784   5.336   2.596  0.5279  0.6060 -0.5841
 2858poe    c2312693   0.881   5.343   2.698  0.3327 -0.5946 -0.2923
 2858poe    c2312694   1.027   5.328   2.650  0.5142 -0.4378  0.2092
 2858poe     o212695   1.055   5.216   2.570  0.2275 -0.3876  0.0365
 2858poe    c3112696   1.186   5.174   2.602  0.2163 -0.3372  0.1493
 2859poe    c3112697   3.665   3.805   4.078  0.3898 -0.8726 -0.0407
 2859poe     o212698   3.756   3.846   4.177  0.1841 -0.0812 -0.1778
 2859poe    c2312699   3.682   3.920   4.272  0.1423 -0.2324 -0.0918
 2859poe    c2312700   3.781   3.966   4.380 -0.0150  0.6801 -0.3193
 2859poe     o212701   3.874   3.859   4.381 -0.2540  0.4733  0.1216
 2859poe    c2312702   3.941   3.826   4.500 -0.1142  0.0607 -0.0721
 2859poe    c2312703   4.086   3.773   4.507  0.0640  0.5070 -0.3639
 2859poe     o212704   4.096   3.651   4.438  0.0620  0.0812  0.3757
 2859poe    c2312705   4.224   3.591   4.443 -0.0974 -0.2912  0.0192
 2859poe    c2312706   4.232   3.475   4.342 -0.0977  0.2475 -0.6052
 2859poe     o212707   4.142   3.370   4.368 -0.3575  0.7165  0.4410
 2859poe    c3112708   4.148   3.283   4.257  1.0546  1.8193 -0.3853
 2860poe    c3112709   2.666   7.095   1.433 -0.2801  0.6965 -0.5437
 2860poe     o212710   2.753   7.121   1.325  0.5914  0.0210 -0.0226
 2860poe    c2312711   2.838   7.011   1.299  0.3320 -0.2142  0.1118
 2860poe    c2312712   2.895   7.020   1.156  0.2401  0.1265  0.0957
 2860poe     o212713   2.874   7.147   1.099 -0.0142 -0.0006 -0.0936
 2860poe    c2312714   2.908   7.157   0.963  0.8346 -0.1156  0.1076
 2860poe    c2312715   2.919   7.304   0.919 -0.3774  0.1461  0.6375
 2860poe     o212716   2.806   7.373   0.967 -0.3606  0.3657  0.3695
 2860poe    c2312717   2.821   7.512   0.949 -0.4375  0.3742  0.3721
 2860poe    c2312718   2.706   7.605   0.992 -0.3119  0.5250  0.3807
 2860poe     o212719   2.612   7.619   0.888  0.1893  0.0782 -0.1422
 2860poe    c3112720   2.484   7.643   0.943  0.2157  0.1783 -0.1256
 2861poe    c3112721   1.379   6.239   3.999 -0.0921  0.2803  0.3059
 2861poe     o212722   1.302   6.305   3.902  0.2319  0.3047  0.0659
 2861poe    c2312723   1.364   6.428   3.870  0.3181  0.2982  0.2084
 2861poe    c2312724   1.287   6.557   3.903 -0.1744 -0.0643  0.4870
 2861poe     o212725   1.177   6.574   3.816  0.0848 -0.0753  0.1567
 2861poe    c2312726   1.151   6.713   3.811  0.0153 -0.0618  0.8519
 2861poe    c2312727   1.013   6.732   3.746  0.1327 -0.3340  0.5177
 2861poe     o212728   1.017   6.679   3.616  0.0564 -0.4423  0.5598
 2861poe    c2312729   0.915   6.720   3.528  0.2563 -0.3743  0.3597
 2861poe    c2312730   0.787   6.635   3.539 -0.1150  0.0990 -0.2368
 2861poe     o212731   0.817   6.497   3.528 -0.4525  0.0459 -0.5081
 2861poe    c3112732   0.717   6.429   3.454 -0.5323 -0.1606 -0.2106
 2862poe    c3112733   1.021   7.285   6.747 -0.1816  0.1410 -1.0127
 2862poe     o212734   0.926   7.184   6.720  0.0849 -0.4011  0.0306
 2862poe    c2312735   0.813   7.171   6.803 -0.0804 -0.4409 -0.1980
 2862poe    c2312736   0.711   7.068   6.753 -0.5274 -0.1405  0.0889
 2862poe     o212737   0.645   7.105   6.634 -0.2667 -0.2927 -0.1017
 2862poe    c2312738   0.518   7.046   6.621 -0.3627 -0.0747 -0.1524
 2862poe    c2312739   0.458   7.079   6.483  0.1255  0.4095 -0.2546
 2862poe     o212740   0.425   7.215   6.466 -0.0682  0.3858 -0.0875
 2862poe    c2312741   0.371   7.219   6.335 -0.5396 -0.4161  0.0786
 2862poe    c2312742   0.342   7.364   6.295  0.1093 -0.6457 -1.2666
 2862poe     o212743   0.440   7.459   6.259  0.0542 -0.1734 -0.2019
 2862poe    c3112744   0.387   7.559   6.176  0.0146  0.5311  0.6623
 2863poe    c3112745   1.441   5.217   2.299 -0.2137 -0.2859  0.0303
 2863poe     o212746   1.329   5.233   2.214 -0.0212  0.0470 -0.1617
 2863poe    c2312747   1.306   5.103   2.165  0.3642 -0.1046  0.0479
 2863poe    c2312748   1.173   5.108   2.087  0.1410 -0.1204  0.4274
 2863poe     o212749   1.195   5.216   2.000 -0.1371 -0.6599 -0.3286
 2863poe    c2312750   1.107   5.203   1.891 -0.0226 -0.6119 -0.4281
 2863poe    c2312751   1.150   5.294   1.775  0.3250 -0.4129 -0.1474
 2863poe     o212752   1.140   5.428   1.817  0.1595 -0.3601 -0.3486
 2863poe    c2312753   1.127   5.513   1.705  0.0391  0.3849  0.2187
 2863poe    c2312754   1.136   5.661   1.748 -0.2543  0.2464  0.7572
 2863poe     o212755   1.260   5.703   1.799  0.0138  0.3372  0.0449
 2863poe    c3112756   1.264   5.818   1.880 -0.3916  0.1173  0.3866
 2864poe    c3112757   5.245   4.557   5.568 -0.0115 -0.5781 -0.7793
 2864poe     o212758   5.254   4.574   5.429  0.1772 -0.0781 -0.7069
 2864poe    c2312759   5.236   4.705   5.381 -0.4736  0.0238 -0.1960
 2864poe    c2312760   5.369   4.781   5.362 -0.5195  0.0713 -0.3308
 2864poe     o212761   5.454   4.738   5.258  0.2347  0.3257  0.1766
 2864poe    c2312762   5.556   4.831   5.232 -0.0468  0.4940 -0.3304
 2864poe    c2312763   5.658   4.773   5.133  0.1923 -0.0119  0.2120
 2864poe     o212764   5.612   4.787   5.001  0.8614  0.1578 -0.0079
 2864poe    c2312765   5.678   4.686   4.927  0.4291 -0.0284 -0.1419
 2864poe    c2312766   5.610   4.547   4.923  0.4085 -0.0194 -0.1361
 2864poe     o212767   5.514   4.544   4.820 -0.2827 -0.4679  0.5154
 2864poe    c3112768   5.452   4.418   4.826 -0.7642 -0.2377  0.4821
 2865poe    c3112769   4.351   4.983   1.012  0.7259  0.2187  0.0160
 2865poe     o212770   4.447   5.028   1.106  0.7561  0.1996 -0.0058
 2865poe    c2312771   4.519   4.924   1.168  0.0638 -0.3741 -0.1432
 2865poe    c2312772   4.590   4.963   1.299  0.4233 -0.1157 -0.4110
 2865poe     o212773   4.677   5.071   1.273  0.1929  0.1432 -0.1149
 2865poe    c2312774   4.749   5.101   1.391 -0.2692  0.1969  0.1574
 2865poe    c2312775   4.863   5.199   1.357 -0.0900 -0.1219 -0.1702
 2865poe     o212776   4.814   5.314   1.293 -0.2922  0.0009  0.2014
 2865poe    c2312777   4.795   5.426   1.377  0.2746  0.2789 -0.0287
 2865poe    c2312778   4.761   5.547   1.289 -0.1091  0.2302  0.0487
 2865poe     o212779   4.686   5.492   1.183 -0.1859 -0.2091  0.3308
 2865poe    c3112780   4.609   5.586   1.111 -0.4293 -0.9052 -0.3322
 2866poe    c3112781   6.267   2.082   7.119 -0.2848 -0.3969  0.1235
 2866poe     o212782   6.302   2.131   6.992 -0.0629 -0.2609  0.2340
 2866poe    c2312783   6.370   2.049   6.899  0.0490 -0.0977  0.1713
 2866poe    c2312784   6.423   2.128   6.779  0.1948 -0.0917  0.2387
 2866poe     o212785   6.536   2.062   6.727  0.2521 -0.0874  0.3584
 2866poe    c2312786   6.619   2.143   6.646 -0.2532 -0.1259 -0.2073
 2866poe    c2312787   6.698   2.056   6.547 -0.3310 -0.2785 -0.1368
 2866poe     o212788   6.625   2.060   6.426  0.3481  0.0681 -0.5422
 2866poe    c2312789   6.720   2.068   6.322  0.7580  0.1724 -0.1646
 2866poe    c2312790   6.651   2.091   6.186 -0.3968 -0.3534  0.3153
 2866poe     o212791   6.565   1.988   6.144 -0.0359 -0.6846  0.3871
 2866poe    c3112792   6.514   1.997   6.013 -0.0356 -0.6666  0.3882
 2867poe    c3112793   3.230   6.946   0.033  0.1781 -0.0637 -0.2152
 2867poe     o212794   3.309   6.954  -0.083  0.1618  0.5069 -0.1898
 2867poe    c2312795   3.237   6.883  -0.181  0.7692 -0.6985  0.2249
 2867poe    c2312796   3.326   6.860  -0.305  0.0232  0.2088 -0.4946
 2867poe     o212797   3.382   6.981  -0.347 -0.0593  0.3690 -0.1491
 2867poe    c2312798   3.471   6.956  -0.453  0.1498 -0.3779  0.1996
 2867poe    c2312799   3.470   7.072  -0.554 -0.7291 -0.0092  0.6301
 2867poe     o212800   3.524   7.181  -0.482 -0.2827  0.2494 -0.0881
 2867poe    c2312801   3.588   7.281  -0.558  0.2446 -0.3096 -0.3942
 2867poe    c2312802   3.495   7.384  -0.625  0.1422  0.1538  0.4411
 2867poe     o212803   3.409   7.446  -0.532 -0.3062 -0.0926  0.1986
 2867poe    c3112804   3.363   7.565  -0.591 -0.2054 -0.5331 -0.7720
 2868poe    c3112805   2.391   2.242   6.736  0.1199 -0.5080 -0.7509
 2868poe     o212806   2.456   2.143   6.813 -0.2685 -0.2162 -0.0385
 2868poe    c2312807   2.438   2.167   6.951 -0.2600 -0.3278 -0.0179
 2868poe    c2312808   2.491   2.047   7.032  0.1156 -0.2627 -0.1668
 2868poe     o212809   2.603   1.988   6.970  0.1344 -0.1925 -0.2005
 2868poe    c2312810   2.612   1.850   7.000 -0.6225 -0.2798 -0.3701
 2868poe    c2312811   2.723   1.783   6.918 -0.0034  0.3208 -0.0297
 2868poe     o212812   2.839   1.863   6.931  0.0932  0.1487  0.1818
 2868poe    c2312813   2.942   1.812   6.849 -0.1877  0.1057 -0.1451
 2868poe    c2312814   3.045   1.926   6.850  0.0199 -0.0817 -0.0250
 2868poe     o212815   2.984   2.050   6.820 -0.1764 -0.2627 -0.3785
 2868poe    c3112816   3.075   2.110   6.730 -0.3895  0.4394 -0.1340
 2869poe    c3112817   2.731   6.221   6.247  0.4213 -0.1703 -0.1845
 2869poe     o212818   2.625   6.205   6.338  0.4446  0.0147 -0.1255
 2869poe    c2312819   2.662   6.097   6.421 -0.1122  0.1650  0.3288
 2869poe    c2312820   2.536   6.060   6.501 -0.3547  0.6359  0.1665
 2869poe     o212821   2.438   6.022   6.407  0.0893 -0.4729  0.1405
 2869poe    c2312822   2.308   6.033   6.462  0.1136  0.3952  0.0412
 2869poe    c2312823   2.194   5.999   6.363  0.0354 -0.2560  0.3507
 2869poe     o212824   2.205   6.070   6.242 -0.1643 -0.0629  0.4442
 2869poe    c2312825   2.101   6.037   6.154  0.4046 -0.1546 -0.2048
 2869poe    c2312826   2.103   6.158   6.059  0.2082  0.0524  0.0555
 2869poe     o212827   2.235   6.172   6.013  0.1166  0.1476 -0.1814
 2869poe    c3112828   2.245   6.289   5.935  0.0840  0.7736  0.7438
 2870poe    c3112829   4.185   2.222   3.670 -0.2426 -0.0597  0.0115
 2870poe     o212830   4.295   2.146   3.626  0.3520  0.8163 -0.0164
 2870poe    c2312831   4.380   2.157   3.738 -0.4307 -0.1645  0.6835
 2870poe    c2312832   4.470   2.032   3.749  0.3146  0.2980  0.0103
 2870poe     o212833   4.388   1.917   3.755 -0.0902  0.6002  0.3631
 2870poe    c2312834   4.465   1.810   3.804 -0.8324  0.0049  0.2591
 2870poe    c2312835   4.376   1.694   3.850 -0.2475 -0.5780 -0.0580
 2870poe     o212836   4.285   1.677   3.743  0.0126 -0.1053 -0.3554
 2870poe    c2312837   4.210   1.558   3.739 -0.3395  0.0226  1.4232
 2870poe    c2312838   4.104   1.587   3.631  0.0172  0.2094  1.1206
 2870poe     o212839   4.066   1.723   3.626  0.2053  0.2255 -0.2161
 2870poe    c3112840   3.955   1.744   3.540  0.1002  0.5005 -0.0139
 2871poe    c3112841   4.426   6.005   6.232  0.5270 -0.0054 -0.4145
 2871poe     o212842   4.368   5.885   6.187  0.0849  0.1000 -0.1358
 2871poe    c2312843   4.420   5.847   6.061  0.8177 -0.0604  0.2094
 2871poe    c2312844   4.313   5.760   5.991  0.3319  0.1022  0.7394
 2871poe     o212845   4.196   5.830   5.958  0.1193 -0.3734  0.4695
 2871poe    c2312846   4.102   5.737   5.910 -0.0012  0.2064 -0.4470
 2871poe    c2312847   3.958   5.794   5.902 -0.2248 -0.2661  0.1556
 2871poe     o212848   3.925   5.876   6.012  0.9061  0.6882 -0.1925
 2871poe    c2312849   3.788   5.908   6.027  0.9718  0.9062 -0.0620
 2871poe    c2312850   3.758   5.977   6.161  0.7050  0.0843  0.3043
 2871poe     o212851   3.785   6.113   6.185  0.0081  0.2991 -0.1010
 2871poe    c3112852   3.665   6.185   6.197 -0.6387 -0.6900 -0.5135
 2872poe    c3112853   2.252   6.307   3.057 -0.7771 -0.1621  0.2268
 2872poe     o212854   2.289   6.200   3.140 -0.2768 -0.0320  0.1723
 2872poe    c2312855   2.372   6.233   3.250 -0.3838  0.7102  0.0338
 2872poe    c2312856   2.402   6.105   3.330 -0.0088  0.5058 -0.4282
 2872poe     o212857   2.295   6.023   3.372  0.3002  0.0053 -0.6114
 2872poe    c2312858   2.340   5.898   3.418  0.5746  0.7244  1.1221
 2872poe    c2312859   2.215   5.818   3.459  0.5506  0.1443 -0.0654
 2872poe     o212860   2.106   5.793   3.372  0.1189 -0.5602  0.6620
 2872poe    c2312861   1.990   5.743   3.434 -0.4260  0.5469  0.5617
 2872poe    c2312862   1.867   5.724   3.343  0.0046 -0.3230  0.1510
 2872poe     o212863   1.886   5.612   3.259  0.2734 -0.1343 -0.0416
 2872poe    c3112864   1.765   5.585   3.192  0.5487 -0.3726 -0.4470
 2873poe    c3112865   1.147   1.954   1.766  0.3199 -0.0912 -0.2324
 2873poe     o212866   1.274   1.965   1.705  0.2430  0.0689 -0.3672
 2873poe    c2312867   1.374   1.932   1.800  0.3345  0.4715 -0.3227
 2873poe    c2312868   1.505   1.908   1.723  0.1750  0.0115 -0.4512
 2873poe     o212869   1.477   1.810   1.625 -0.2424  0.1155 -0.4357
 2873poe    c2312870   1.590   1.807   1.541  0.2462  0.0374  0.2180
 2873poe    c2312871   1.543   1.730   1.416 -0.1499 -0.1415  0.4770
 2873poe     o212872   1.411   1.751   1.371 -0.0599 -0.1570  0.2039
 2873poe    c2312873   1.390   1.663   1.263  0.0283 -0.2043  0.2257
 2873poe    c2312874   1.246   1.635   1.214 -0.2289  0.6216  0.5036
 2873poe     o212875   1.162   1.575   1.310  0.1285 -0.2259  0.2923
 2873poe    c3112876   1.035   1.557   1.251  0.1422  0.3206  0.0917
 2874poe    c3112877   4.859   4.453   2.221  0.6959  0.4062  0.2906
 2874poe     o212878   4.890   4.565   2.142 -0.0926  0.5363  0.1551
 2874poe    c2312879   4.965   4.532   2.027 -0.3104  0.1365  0.1268
 2874poe    c2312880   4.984   4.654   1.935 -0.0374 -0.1442 -0.1858
 2874poe     o212881   4.854   4.702   1.914  0.1150  0.2195 -0.3128
 2874poe    c2312882   4.870   4.820   1.839 -0.0348  0.0966 -0.5397
 2874poe    c2312883   4.727   4.850   1.790 -0.5785 -0.2583  0.7953
 2874poe     o212884   4.644   4.902   1.892 -0.1442  0.5981  0.7271
 2874poe    c2312885   4.518   4.929   1.833  0.2240  0.0703 -0.3300
 2874poe    c2312886   4.400   4.933   1.931  0.0125  0.5224 -0.6014
 2874poe     o212887   4.418   5.040   2.022  0.4222 -0.1109  0.0730
 2874poe    c3112888   4.307   5.059   2.106  0.2071  0.1978 -0.2773
 2875poe    c3112889   3.044   2.379   2.017  0.4140 -0.1899 -0.5556
 2875poe     o212890   2.916   2.342   1.972 -0.0156  0.0013  0.4807
 2875poe    c2312891   2.872   2.447   1.889  0.6597  0.2188  0.3960
 2875poe    c2312892   2.723   2.434   1.853  0.6646 -0.3939  0.5775
 2875poe     o212893   2.695   2.334   1.757 -0.1692 -0.2853  0.7017
 2875poe    c2312894   2.578   2.372   1.688  0.5470  0.1617 -0.3023
 2875poe    c2312895   2.540   2.284   1.568 -0.3859 -0.2118  0.2551
 2875poe     o212896   2.661   2.276   1.497 -0.4369 -0.4844  0.1996
 2875poe    c2312897   2.669   2.164   1.411 -0.3890  0.3255 -0.8607
 2875poe    c2312898   2.708   2.224   1.274 -0.0740 -0.0289 -0.9248
 2875poe     o212899   2.822   2.302   1.302 -0.6289  0.3093  0.4872
 2875poe    c3112900   2.924   2.260   1.214 -0.9781  0.4046  0.0299
 2876poe    c3112901   1.026   6.485   4.819  0.3604 -0.0981 -0.5780
 2876poe     o212902   0.952   6.453   4.704 -0.0814  0.3075 -0.4083
 2876poe    c2312903   1.044   6.453   4.597  0.2200  0.0686 -0.1482
 2876poe    c2312904   0.981   6.419   4.461  0.4016 -0.0673 -0.1997
 2876poe     o212905   0.992   6.280   4.446 -0.5295 -0.1458 -0.2104
 2876poe    c2312906   0.951   6.235   4.319 -0.2789 -0.0735 -0.3163
 2876poe    c2312907   0.798   6.225   4.316 -0.2946  0.1504 -0.2475
 2876poe     o212908   0.742   6.130   4.404  0.0703  0.4604  0.3267
 2876poe    c2312909   0.602   6.123   4.394  0.1022  0.3905 -0.1075
 2876poe    c2312910   0.547   6.012   4.487  0.5060 -0.1322 -0.4875
 2876poe     o212911   0.607   6.044   4.610 -0.6514 -0.1332  0.0811
 2876poe    c3112912   0.570   5.941   4.700  0.1191 -0.3634  0.1347
 2877poe    c3112913   7.189   2.666   7.286 -0.4552  0.2915  0.0409
 2877poe     o212914   7.202   2.741   7.167  0.2803  0.0249 -0.0463
 2877poe    c2312915   7.309   2.832   7.185  0.0266  0.2556  0.2993
 2877poe    c2312916   7.283   2.961   7.106  0.9209  0.2199 -0.0633
 2877poe     o212917   7.172   3.031   7.158  0.5643 -0.2215 -0.2288
 2877poe    c2312918   7.122   3.136   7.078  0.0514 -0.3968 -0.1442
 2877poe    c2312919   7.031   3.095   6.960 -0.3000 -0.4610  0.1467
 2877poe     o212920   7.082   3.013   6.858  0.0485 -0.3798  0.2540
 2877poe    c2312921   7.175   3.092   6.787 -0.1529 -0.3116  0.0665
 2877poe    c2312922   7.225   3.046   6.649 -0.0112 -0.3972  0.1456
 2877poe     o212923   7.128   3.065   6.548  0.2192 -0.3885 -0.0734
 2877poe    c3112924   7.158   2.988   6.433 -0.0407  0.0126 -0.4119
 2878poe    c3112925   3.348   6.969   5.099  0.7432 -0.5485  0.2942
 2878poe     o212926   3.444   7.049   5.164  0.3017  0.2899 -0.0815
 2878poe    c2312927   3.379   7.081   5.284  0.1722 -0.1373 -0.0386
 2878poe    c2312928   3.475   7.131   5.394  0.2822 -0.0228 -0.1871
 2878poe     o212929   3.604   7.098   5.347  0.1056 -0.5686 -0.2981
 2878poe    c2312930   3.715   7.145   5.420 -0.1340  0.2473 -0.4499
 2878poe    c2312931   3.823   7.154   5.311  0.4166 -0.4902  0.0244
 2878poe     o212932   3.825   7.036   5.233 -0.6431  0.0770 -0.8993
 2878poe    c2312933   3.946   6.964   5.243 -0.8829 -0.2191 -0.0072
 2878poe    c2312934   3.960   6.872   5.366  0.2629 -0.3951 -0.2570
 2878poe     o212935   3.836   6.804   5.373 -0.0321  0.1546 -0.0823
 2878poe    c3112936   3.829   6.698   5.466  0.0607  0.4520  0.2663
 2879poe    c3112937   5.304   2.283   5.078 -1.1388 -0.5767 -0.1208
 2879poe     o212938   5.382   2.203   5.164  0.1093  0.0257 -0.6556
 2879poe    c2312939   5.516   2.210   5.122  0.3995  1.0539  0.3708
 2879poe    c2312940   5.606   2.143   5.227  0.3829  0.0516 -0.2404
 2879poe     o212941   5.533   2.038   5.286  0.3526  0.2769  0.1287
 2879poe    c2312942   5.612   1.923   5.308  0.1148  0.0203 -0.3322
 2879poe    c2312943   5.542   1.834   5.413 -0.0234 -0.0393 -0.4741
 2879poe     o212944   5.406   1.827   5.377 -0.1230  0.4000 -0.1938
 2879poe    c2312945   5.345   1.701   5.394  0.3139  0.1401 -0.5501
 2879poe    c2312946   5.193   1.709   5.371  0.2612  0.1710 -0.1854
 2879poe     o212947   5.133   1.802   5.458  0.2577  0.1053 -0.1169
 2879poe    c3112948   4.995   1.776   5.465  0.2302  0.0716 -0.7543
 2880poe    c3112949   4.348   1.916   6.424  0.0164  0.1166  0.2996
 2880poe     o212950   4.353   1.885   6.561  0.0254 -0.0160  0.2694
 2880poe    c2312951   4.459   1.800   6.599  0.4176  0.4699  0.2582
 2880poe    c2312952   4.429   1.741   6.738  0.1855 -0.0043  0.0099
 2880poe     o212953   4.456   1.837   6.839 -0.1498  0.2136 -0.1052
 2880poe    c2312954   4.452   1.774   6.965 -0.2630 -0.0697 -0.2495
 2880poe    c2312955   4.422   1.875   7.076 -0.3368 -0.4451  0.0736
 2880poe     o212956   4.298   1.936   7.046 -0.2932 -0.6037 -0.4265
 2880poe    c2312957   4.277   2.036   7.142  0.1588 -0.6124 -0.3185
 2880poe    c2312958   4.134   2.090   7.128  0.3283  0.0154  0.3032
 2880poe     o212959   4.118   2.123   6.992  0.3741  0.3178  0.3701
 2880poe    c3112960   3.996   2.190   6.970  0.0859 -0.3897 -0.2150
 2881poe    c3112961   6.075   0.806   0.526 -0.4866 -0.1609 -0.2676
 2881poe     o212962   6.071   0.937   0.475 -0.6100  0.0818  0.3480
 2881poe    c2312963   6.119   1.038   0.560 -1.2533  0.4664  0.2635
 2881poe    c2312964   6.178   1.153   0.474  0.0203  0.2279  0.7962
 2881poe     o212965   6.079   1.206   0.390  0.3122  0.0783  0.3578
 2881poe    c2312966   6.131   1.307   0.306  0.2357 -0.1217  0.0673
 2881poe    c2312967   6.024   1.396   0.240 -0.1078 -0.4568  0.1741
 2881poe     o212968   5.953   1.343   0.130 -0.6399  0.8948 -0.1486
 2881poe    c2312969   6.026   1.330   0.011 -1.1005  0.0103 -0.3445
 2881poe    c2312970   5.950   1.342  -0.122 -0.8510  0.3564 -0.4585
 2881poe     o212971   5.852   1.240  -0.129 -0.3112 -0.1802 -0.2209
 2881poe    c3112972   5.778   1.238  -0.249 -0.6759 -0.4123  0.0057
 2882poe    c3112973   3.677   3.228   2.739 -0.0452  0.7037  0.3941
 2882poe     o212974   3.786   3.245   2.651 -0.2667  0.0078 -0.0201
 2882poe    c2312975   3.910   3.223   2.714  0.0468  0.5755 -0.4312
 2882poe    c2312976   4.019   3.222   2.606  0.1961 -0.2494 -0.2738
 2882poe     o212977   3.995   3.344   2.540 -0.5038 -0.4979 -0.4823
 2882poe    c2312978   4.034   3.329   2.405  0.6207  0.1941 -0.2477
 2882poe    c2312979   3.969   3.440   2.320 -0.0187  0.3257  0.4017
 2882poe     o212980   3.833   3.425   2.357  0.0713  0.1787  0.6762
 2882poe    c2312981   3.760   3.535   2.307 -0.2901 -0.3733 -0.0367
 2882poe    c2312982   3.615   3.522   2.357 -0.3690  0.4635 -0.0380
 2882poe     o212983   3.628   3.476   2.489  0.0092  0.1244 -0.1923
 2882poe    c3112984   3.507   3.486   2.561 -0.0315 -0.0728 -0.2314
 2883poe    c3112985   3.047   0.330   2.922 -0.1347  0.2967  0.4343
 2883poe     o212986   2.932   0.273   2.864  0.6376 -0.5119 -0.3434
 2883poe    c2312987   2.927   0.279   2.723  0.2334 -0.3684 -0.3229
 2883poe    c2312988   2.796   0.231   2.658 -0.1613 -0.1588  0.2978
 2883poe     o212989   2.686   0.317   2.673 -0.0328 -0.0037  0.3464
 2883poe    c2312990   2.568   0.287   2.601 -0.0505 -0.2793  0.4889
 2883poe    c2312991   2.491   0.164   2.652 -0.3466 -0.3609 -0.1531
 2883poe     o212992   2.427   0.193   2.774  0.2652 -0.5019  0.2081
 2883poe    c2312993   2.373   0.074   2.827  0.7985 -0.1229  1.6410
 2883poe    c2312994   2.241   0.092   2.904 -0.1094  0.3466  0.0279
 2883poe     o212995   2.140   0.136   2.816  0.0575  0.3343 -0.1707
 2883poe    c3112996   2.021   0.143   2.893  0.2599 -0.0729  0.1837
 2884poe    c3112997   1.189   3.072   6.005 -0.5934  0.5230  0.2615
 2884poe     o212998   1.139   2.940   6.003  0.2465  0.1986  0.2447
 2884poe    c2312999   1.245   2.848   6.010  0.0144 -0.0967 -0.0482
 2884poe    c2313000   1.194   2.706   6.042  0.1255 -0.1090  0.0799
 2884poe     o213001   1.095   2.672   5.947  0.2376 -0.2112 -0.0011
 2884poe    c2313002   1.026   2.551   5.971 -0.0489 -0.0301  0.0874
 2884poe    c2313003   0.924   2.511   5.862  0.1179 -0.0816 -0.0509
 2884poe     o213004   0.857   2.632   5.834 -0.1170 -0.3226 -0.5273
 2884poe    c2313005   0.739   2.597   5.765 -0.0353 -0.5749 -0.5404
 2884poe    c2313006   0.659   2.722   5.724  0.3068 -0.1743  0.0089
 2884poe     o213007   0.649   2.818   5.827 -0.2563 -0.0470 -0.1614
 2884poe    c3113008   0.565   2.924   5.787 -0.2297  0.2692  0.6165
 2885poe    c3113009   2.921   7.047   4.601 -1.0714  0.1075  0.3256
 2885poe     o213010   2.852   6.924   4.602  0.1011 -0.5592  0.6963
 2885poe    c2313011   2.714   6.935   4.575  0.2784 -0.2524 -0.1079
 2885poe    c2313012   2.634   6.806   4.601  0.3396 -0.2770 -0.0347
 2885poe     o213013   2.651   6.709   4.501  0.2651 -0.0337 -0.2854
 2885poe    c2313014   2.561   6.603   4.523 -0.2075  0.6118  0.9492
 2885poe    c2313015   2.599   6.478   4.441 -0.3131  0.7691  0.6596
 2885poe     o213016   2.724   6.426   4.480 -0.6115 -0.3302  0.1940
 2885poe    c2313017   2.776   6.318   4.407  0.4140  0.2673  0.0157
 2885poe    c2313018   2.913   6.288   4.470  0.3206 -0.1525  0.0264
 2885poe     o213019   3.011   6.386   4.447 -0.0031  0.2869  0.4811
 2885poe    c3113020   3.122   6.310   4.491  0.0832 -0.1458 -0.4535
 2886poe    c3113021   0.702   5.996   5.207  0.2913  0.4337 -0.6612
 2886poe     o213022   0.761   5.934   5.095  0.2990  0.0488 -0.4461
 2886poe    c2313023   0.725   5.800   5.071 -0.4037  0.1559 -0.0391
 2886poe    c2313024   0.829   5.725   4.985 -0.4563 -0.2839  0.2720
 2886poe     o213025   0.799   5.748   4.849 -1.1364  0.0432  0.4706
 2886poe    c2313026   0.861   5.649   4.769  0.5241  0.9054  0.6381
 2886poe    c2313027   0.973   5.682   4.669 -0.0530 -0.1458 -0.3910
 2886poe     o213028   1.094   5.705   4.739 -0.2908  0.1168 -0.0602
 2886poe    c2313029   1.205   5.643   4.678 -0.4456  0.3712 -0.6073
 2886poe    c2313030   1.329   5.678   4.761 -0.6328 -0.2751 -0.0443
 2886poe     o213031   1.333   5.606   4.883 -0.0299  0.1573  0.1948
 2886poe    c3113032   1.451   5.624   4.958 -0.1694 -0.5802  0.5996
 2887poe    c3113033   6.087   7.246   1.416  0.5289  0.6182 -0.3643
 2887poe     o213034   6.125   7.164   1.307 -0.4934  0.0108 -0.2724
 2887poe    c2313035   6.194   7.242   1.213  0.3461 -0.5000 -0.0889
 2887poe    c2313036   6.245   7.167   1.088 -0.1374 -0.1999 -0.4709
 2887poe     o213037   6.128   7.095   1.056 -0.4904  0.3745 -0.4972
 2887poe    c2313038   6.144   7.023   0.935  0.3112 -0.3609  0.0286
 2887poe    c2313039   6.020   6.933   0.921  0.4977 -0.4908 -0.8046
 2887poe     o213040   6.017   6.848   1.033 -0.2773  0.3739 -0.1470
 2887poe    c2313041   5.940   6.731   1.016 -0.3483  0.3970  0.0152
 2887poe    c2313042   5.971   6.616   1.113 -0.1690  0.2784 -0.1820
 2887poe     o213043   6.096   6.554   1.096 -0.2365  0.0506  0.1502
 2887poe    c3113044   6.081   6.428   1.158  0.0263 -0.0197  0.0717
 2888poe    c3113045   4.358   1.799   5.770  0.1105  0.5120  0.4083
 2888poe     o213046   4.457   1.731   5.697  0.1589  0.4997  0.4860
 2888poe    c2313047   4.466   1.590   5.697 -0.1427  0.4805 -0.1488
 2888poe    c2313048   4.345   1.508   5.648  0.1822 -0.1523  0.0966
 2888poe     o213049   4.351   1.458   5.516  0.2838  0.1535 -0.0135
 2888poe    c2313050   4.269   1.353   5.473  0.0418  0.2450  0.2222
 2888poe    c2313051   4.299   1.284   5.338  0.0325  0.2945  0.1949
 2888poe     o213052   4.329   1.375   5.235 -0.4731  0.1945 -0.0462
 2888poe    c2313053   4.357   1.326   5.106  0.8548  0.1962  0.2191
 2888poe    c2313054   4.456   1.429   5.048  0.6498 -0.1773 -0.8260
 2888poe     o213055   4.401   1.558   5.035  0.1992 -0.2984 -0.2083
 2888poe    c3113056   4.332   1.553   4.911  0.5266  0.4858 -0.4256
 2889poe    c3113057   7.079   1.548   0.627  0.4748 -0.2199 -0.8053
 2889poe     o213058   7.199   1.519   0.695 -0.1003  0.0686  0.3694
 2889poe    c2313059   7.172   1.547   0.830  0.1229  0.2490  0.3772
 2889poe    c2313060   7.289   1.497   0.916  0.0604  0.5348  0.6311
 2889poe     o213061   7.307   1.357   0.922  0.4938  0.4979 -0.9573
 2889poe    c2313062   7.416   1.315   1.001  0.0412  0.5860 -0.2741
 2889poe    c2313063   7.555   1.335   0.939  0.6794 -0.7006  0.6892
 2889poe     o213064   7.571   1.274   0.813 -0.4592 -0.3990  0.3869
 2889poe    c2313065   7.692   1.203   0.797 -0.3905 -0.2927  0.4347
 2889poe    c2313066   7.735   1.185   0.650 -0.7280  0.0818  0.2887
 2889poe     o213067   7.779   1.308   0.598 -0.1786 -0.1257  0.2575
 2889poe    c3113068   7.856   1.288   0.482  0.3866  0.8059  0.4567
 2890poe    c3113069   1.237   5.335   7.115  0.4378 -0.2490  0.7109
 2890poe     o213070   1.164   5.444   7.169  0.2971  0.1210 -0.2116
 2890poe    c2313071   1.200   5.574   7.127 -0.8074  0.4546 -0.1430
 2890poe    c2313072   1.102   5.681   7.179 -0.6702  0.4851  0.0546
 2890poe     o213073   1.122   5.713   7.315  0.2563  0.2427 -0.0211
 2890poe    c2313074   1.142   5.852   7.319  0.7834  0.1657  0.2014
 2890poe    c2313075   1.172   5.878   7.468  0.2913 -0.3712  0.3992
 2890poe     o213076   1.093   5.794   7.550 -0.0467 -0.4515 -0.0056
 2890poe    c2313077   1.149   5.798   7.679 -0.2805  0.1434  0.0815
 2890poe    c2313078   1.081   5.688   7.762  0.3722 -0.4143 -0.1137
 2890poe     o213079   1.058   5.584   7.670 -0.4431 -0.2172 -0.1392
 2890poe    c3113080   0.997   5.467   7.720 -0.1095 -0.5713 -0.5526
 2891poe    c3113081   0.533   7.151   7.236 -0.8195  0.3470 -0.1944
 2891poe     o213082   0.574   7.050   7.146  0.4315  0.6989 -0.0353
 2891poe    c2313083   0.656   6.960   7.217 -0.5241 -0.5287 -0.4644
 2891poe    c2313084   0.740   6.887   7.111  0.1103 -0.5031  0.0143
 2891poe     o213085   0.658   6.806   7.029 -0.2197 -0.2183  0.0618
 2891poe    c2313086   0.712   6.685   6.980 -0.2845 -0.5296  0.7456
 2891poe    c2313087   0.787   6.708   6.847 -0.9932 -0.6452  0.3240
 2891poe     o213088   0.923   6.737   6.869 -1.1546  0.0141  0.4523
 2891poe    c2313089   0.982   6.774   6.747 -0.6523 -0.4499  0.5533
 2891poe    c2313090   1.134   6.803   6.751 -0.6631 -0.2736 -0.1643
 2891poe     o213091   1.211   6.686   6.737 -0.3408 -0.1138  0.2686
 2891poe    c3113092   1.220   6.616   6.859  0.3726 -0.2628  0.1358
 2892poe    c3113093   2.370   5.070   1.823  0.3592 -0.9899 -0.1005
 2892poe     o213094   2.232   5.049   1.836  0.1532  0.3089 -0.1023
 2892poe    c2313095   2.203   4.932   1.762  0.1707  0.2739 -0.0532
 2892poe    c2313096   2.115   4.948   1.637  0.4551  0.6318 -0.2096
 2892poe     o213097   2.183   5.017   1.535  0.3947  0.4642 -0.3615
 2892poe    c2313098   2.090   5.060   1.438 -0.2924 -0.2036 -0.0149
 2892poe    c2313099   2.043   4.955   1.336 -0.5168 -0.0794 -0.0395
 2892poe     o213100   2.123   4.929   1.223 -0.0762  0.6913  0.0883
 2892poe    c2313101   2.231   4.842   1.246 -0.3191  0.1603 -0.7233
 2892poe    c2313102   2.364   4.863   1.172  0.0861 -0.1734 -0.1006
 2892poe     o213103   2.477   4.793   1.219 -0.0039 -0.4387 -0.2804
 2892poe    c3113104   2.488   4.658   1.178 -0.1085 -0.5561  0.0712
 2893poe    c3113105   3.109   1.609   2.349  1.0846  0.2907  0.0338
 2893poe     o213106   3.139   1.670   2.225  0.2510  0.0322 -0.3014
 2893poe    c2313107   3.023   1.705   2.153  0.0432 -0.5560 -0.2598
 2893poe    c2313108   3.061   1.774   2.020 -0.6166  0.0952 -0.1205
 2893poe     o213109   3.142   1.887   2.046 -0.5051 -0.1408  0.5732
 2893poe    c2313110   3.239   1.909   1.947 -0.9159  0.0585  0.2118
 2893poe    c2313111   3.298   2.047   1.983  0.4293 -0.3415 -0.3963
 2893poe     o213112   3.324   2.062   2.120  0.1945  0.6483 -0.4535
 2893poe    c2313113   3.403   2.174   2.154  0.1053  0.4255  0.5123
 2893poe    c2313114   3.553   2.146   2.138 -0.0975  0.0150 -0.7172
 2893poe     o213115   3.580   2.034   2.220 -0.6151 -0.0069 -0.5765
 2893poe    c3113116   3.718   2.015   2.236 -0.6796  0.3678  0.5007
 2894poe    c3113117   1.736   5.877   4.816 -0.3556 -0.3667  0.7798
 2894poe     o213118   1.815   5.922   4.924  0.4661 -0.0101  0.0489
 2894poe    c2313119   1.825   6.062   4.915 -0.6920  0.0810  0.0298
 2894poe    c2313120   1.946   6.094   5.005  0.0312  0.1305 -0.9462
 2894poe     o213121   1.965   5.995   5.103  0.4797  0.5691 -0.5887
 2894poe    c2313122   2.078   6.016   5.186  0.5297  0.1459 -0.5443
 2894poe    c2313123   2.056   5.931   5.312 -0.4032 -0.1419 -0.8879
 2894poe     o213124   2.046   5.800   5.261  0.2307 -0.5408 -0.0269
 2894poe    c2313125   2.073   5.709   5.365 -0.3244 -0.5056  0.1521
 2894poe    c2313126   2.125   5.566   5.342  0.1101 -0.3181 -0.0593
 2894poe     o213127   2.257   5.557   5.296  0.3069  0.2650  0.3834
 2894poe    c3113128   2.317   5.434   5.330 -0.1712  0.0269  0.3699
 2895poe    c3113129   0.907   6.876   4.696  0.2928 -0.2715 -0.6702
 2895poe     o213130   0.860   7.003   4.655 -0.7248 -0.3894  0.0828
 2895poe    c2313131   0.810   7.068   4.769 -0.0985 -0.2633  0.2882
 2895poe    c2313132   0.834   7.220   4.763  0.1455 -0.3070  0.1418
 2895poe     o213133   0.831   7.292   4.884 -0.0583 -0.2414  0.0968
 2895poe    c2313134   0.877   7.425   4.874 -0.5489 -0.0785 -0.0156
 2895poe    c2313135   0.791   7.517   4.962  0.0496  0.2439  0.2274
 2895poe     o213136   0.659   7.514   4.913  0.0741  0.1045  0.1709
 2895poe    c2313137   0.591   7.600   5.002  0.1136  0.2684  0.0434
 2895poe    c2313138   0.437   7.600   4.993  0.1386 -0.0842 -0.4572
 2895poe     o213139   0.381   7.476   5.032  0.4615 -0.1871 -0.3154
 2895poe    c3113140   0.334   7.478   5.165 -0.1978  0.3389 -0.5534
 2896poe    c3113141   1.809   0.319   3.134  0.6449  0.2285  0.3254
 2896poe     o213142   1.677   0.369   3.126  0.5924  0.0674  0.1765
 2896poe    c2313143   1.583   0.302   3.208  0.0692  0.3986 -0.1538
 2896poe    c2313144   1.450   0.373   3.237 -0.1901 -0.4624  0.8202
 2896poe     o213145   1.355   0.399   3.135  0.2861 -0.3037  0.4163
 2896poe    c2313146   1.237   0.432   3.203  0.1858 -0.0465  0.1189
 2896poe    c2313147   1.116   0.438   3.107 -0.1183  0.5832  0.5337
 2896poe     o213148   1.089   0.556   3.034  0.0205  0.1356 -0.2484
 2896poe    c2313149   1.036   0.675   3.089  0.2823  0.1939 -0.1191
 2896poe    c2313150   0.896   0.718   3.044 -0.0150 -0.1910  0.4339
 2896poe     o213151   0.800   0.627   3.094 -0.0201 -0.4609 -0.0696
 2896poe    c3113152   0.666   0.638   3.052  0.0096  0.7084  0.1146
 2897poe    c3113153   1.948   6.080   6.718 -0.1761  0.0688  0.0303
 2897poe     o213154   1.876   6.001   6.810  0.2467 -0.6490 -0.2456
 2897poe    c2313155   1.971   5.918   6.874  0.4916 -0.1365  0.0685
 2897poe    c2313156   1.882   5.832   6.965  0.0249  0.3894  0.1153
 2897poe     o213157   1.786   5.917   7.024 -0.6370 -0.1970 -0.0933
 2897poe    c2313158   1.739   5.863   7.145 -0.3403 -0.1654  0.0371
 2897poe    c2313159   1.613   5.938   7.192 -0.0758  0.1762  0.2053
 2897poe     o213160   1.550   5.991   7.078  0.0120 -0.1145  0.0200
 2897poe    c2313161   1.418   6.040   7.092 -0.1526 -0.5301 -0.0493
 2897poe    c2313162   1.344   6.080   6.964 -0.7209 -0.3460  0.3339
 2897poe     o213163   1.374   6.209   6.915 -0.3329 -0.3806  0.4848
 2897poe    c3113164   1.298   6.245   6.802  0.3837 -0.1171  0.0754
 2898poe    c3113165   3.285   6.060   6.908  0.9186 -0.2392  0.3478
 2898poe     o213166   3.239   5.941   6.849 -0.1209  0.0582  0.5345
 2898poe    c2313167   3.336   5.840   6.827 -0.6480 -0.2031 -0.6769
 2898poe    c2313168   3.272   5.730   6.740 -0.5155 -0.2925 -0.6625
 2898poe     o213169   3.149   5.704   6.803 -0.1313 -0.3023  0.0957
 2898poe    c2313170   3.070   5.625   6.717  0.0335 -0.1336 -0.2112
 2898poe    c2313171   2.950   5.550   6.777 -0.0098  0.1477  0.0541
 2898poe     o213172   2.854   5.653   6.779 -0.4558 -0.2594 -0.2203
 2898poe    c2313173   2.726   5.620   6.830 -0.3703 -0.0166  0.1560
 2898poe    c2313174   2.621   5.730   6.809  0.0806  0.3507 -0.1896
 2898poe     o213175   2.655   5.840   6.892  0.3454  0.4473 -0.4255
 2898poe    c3113176   2.555   5.939   6.890  0.0257  0.1285 -0.3209
 2899poe    c3113177   4.344   2.304   1.096 -0.0127  0.1043  0.0759
 2899poe     o213178   4.447   2.385   1.044  0.2041 -0.2413 -0.0308
 2899poe    c2313179   4.429   2.522   1.072 -0.0063 -0.3609  0.4430
 2899poe    c2313180   4.541   2.598   0.997 -0.1268 -0.4545  0.1632
 2899poe     o213181   4.664   2.530   1.016 -0.1550 -0.5647 -0.0540
 2899poe    c2313182   4.761   2.582   0.927 -0.0163 -0.6075  0.0731
 2899poe    c2313183   4.896   2.515   0.957 -0.0438 -0.2993  0.9336
 2899poe     o213184   4.885   2.374   0.956  0.1701 -0.3143  0.3416
 2899poe    c2313185   4.963   2.310   0.857 -0.3190 -0.7295  0.2209
 2899poe    c2313186   4.942   2.157   0.855 -0.5533 -0.6877 -0.3193
 2899poe     o213187   4.828   2.105   0.789 -0.9380 -0.3092  0.0368
 2899poe    c3113188   4.831   1.965   0.798  0.7524 -0.3071 -0.1683
 2900poe    c3113189   4.938   3.303   0.819  0.8498  0.5044  0.1029
 2900poe     o213190   4.926   3.434   0.769 -0.0526  0.3449 -0.1204
 2900poe    c2313191   4.891   3.532   0.865  0.7559  0.5067  0.0178
 2900poe    c2313192   4.926   3.665   0.796  1.0363  0.1626 -0.5061
 2900poe     o213193   4.877   3.661   0.664  0.2947 -0.1386 -0.2240
 2900poe    c2313194   4.898   3.778   0.587 -0.4163  0.2216  0.1175
 2900poe    c2313195   4.862   3.754   0.439  0.0309 -0.2545  0.0829
 2900poe     o213196   4.923   3.642   0.379  0.1612  0.0594 -0.3779
 2900poe    c2313197   4.899   3.638   0.241  0.1510  0.2083 -0.3797
 2900poe    c2313198   4.973   3.514   0.188 -0.4620 -0.2978 -0.0633
 2900poe     o213199   4.892   3.409   0.235 -0.2490 -0.2540  0.4115
 2900poe    c3113200   4.802   3.359   0.138 -0.0541 -0.3696  0.2915
 2901poe    c3113201   0.989   2.533   3.328 -0.5774  0.2469 -0.0392
 2901poe     o213202   1.041   2.652   3.383  0.9864 -0.2918 -0.2879
 2901poe    c2313203   1.069   2.732   3.270 -0.0011 -0.0364 -0.3643
 2901poe    c2313204   1.145   2.849   3.335  0.5156 -0.5096 -0.1064
 2901poe     o213205   1.058   2.949   3.383  0.5111 -0.2128 -0.7269
 2901poe    c2313206   1.136   3.060   3.422 -0.3238  0.0381  0.2533
 2901poe    c2313207   1.044   3.172   3.475 -0.4047 -0.0718  0.3484
 2901poe     o213208   0.931   3.110   3.532 -0.1586 -0.8035  0.0583
 2901poe    c2313209   0.839   3.204   3.584 -0.3194 -0.8194 -0.1962
 2901poe    c2313210   0.806   3.186   3.733 -0.0466  0.2945  0.0049
 2901poe     o213211   0.778   3.052   3.767  0.2977  0.3031  0.3253
 2901poe    c3113212   0.799   3.025   3.904  0.2074 -0.1175  0.2591
 2902poe    c3113213   1.115   0.659   3.967 -0.1754  0.2563 -0.1455
 2902poe     o213214   1.034   0.602   3.867  0.0631  0.1684 -0.2908
 2902poe    c2313215   1.112   0.513   3.790  0.1618  0.0345 -0.0357
 2902poe    c2313216   1.013   0.440   3.698 -0.2199  0.2976  0.1606
 2902poe     o213217   0.938   0.524   3.613  0.0195  0.0915 -0.2610
 2902poe    c2313218   0.835   0.459   3.542 -0.6742 -0.0538  0.8554
 2902poe    c2313219   0.743   0.568   3.484 -0.0610  0.0048 -0.0236
 2902poe     o213220   0.623   0.566   3.559  0.0811 -0.4316  0.1943
 2902poe    c2313221   0.512   0.622   3.494  0.1771 -0.1422  0.2787
 2902poe    c2313222   0.380   0.611   3.573  0.0533  0.4040  0.1512
 2902poe     o213223   0.355   0.678   3.694  0.4241 -0.4456  0.7036
 2902poe    c3113224   0.252   0.604   3.754  0.3122 -0.5123  0.4262
 2903poe    c3113225   5.742   4.776   0.420 -0.2598  0.0725  0.6444
 2903poe     o213226   5.630   4.757   0.503 -0.4425 -0.1193  0.3573
 2903poe    c2313227   5.666   4.786   0.636  0.4759  0.1808  0.0495
 2903poe    c2313228   5.694   4.670   0.733  0.0669  0.6685  0.7662
 2903poe     o213229   5.572   4.600   0.739  0.5411 -0.2976 -0.3367
 2903poe    c2313230   5.591   4.471   0.794  0.0365 -0.3486 -0.2725
 2903poe    c2313231   5.471   4.375   0.789 -0.0272 -0.2941  0.1710
 2903poe     o213232   5.493   4.238   0.812  0.7807 -0.1138  0.5252
 2903poe    c2313233   5.503   4.189   0.943 -0.0635 -0.8163  0.3413
 2903poe    c2313234   5.384   4.181   1.041 -0.0127 -0.6337  0.4185
 2903poe     o213235   5.351   4.305   1.098  0.2117 -0.3447 -0.0726
 2903poe    c3113236   5.237   4.283   1.178 -0.2472  0.4700 -0.4894
 2904poe    c3113237   1.953   3.479   7.331  0.2371 -0.2030  0.1955
 2904poe     o213238   2.093   3.468   7.336  0.2141 -0.4636  0.2897
 2904poe    c2313239   2.157   3.594   7.341 -0.1839 -0.2451 -0.0365
 2904poe    c2313240   2.309   3.568   7.352 -0.0844  0.2267 -0.2823
 2904poe     o213241   2.335   3.536   7.486 -0.1212 -0.3577 -0.4116
 2904poe    c2313242   2.459   3.467   7.490 -0.0360 -0.1879 -0.1065
 2904poe    c2313243   2.482   3.419   7.635 -0.5001  0.2562  0.1196
 2904poe     o213244   2.404   3.304   7.656 -0.2674  0.0867  0.0624
 2904poe    c2313245   2.398   3.259   7.790  0.4051  0.2215  0.1394
 2904poe    c2313246   2.307   3.135   7.801 -0.1961  0.6378 -0.0734
 2904poe     o213247   2.187   3.167   7.734 -0.3092 -0.1216 -0.2433
 2904poe    c3113248   2.078   3.079   7.745 -0.5714  0.2506  0.2129
 2905poe    c3113249   5.406   2.471   1.436 -0.2354  0.2155 -0.3396
 2905poe     o213250   5.356   2.393   1.543  0.0511 -0.0376 -0.3887
 2905poe    c2313251   5.384   2.256   1.521 -0.1722 -0.1438 -0.0138
 2905poe    c2313252   5.391   2.171   1.649  0.0532 -0.5926 -0.3232
 2905poe     o213253   5.270   2.117   1.698  0.3538 -0.1407  0.9579
 2905poe    c2313254   5.168   2.199   1.749 -0.0767 -0.0389 -0.0426
 2905poe    c2313255   5.035   2.163   1.679 -0.4925  0.6551  0.3765
 2905poe     o213256   5.014   2.024   1.687  0.6605  0.4929  0.7869
 2905poe    c2313257   4.876   1.997   1.696  0.6763  0.2109  0.2171
 2905poe    c2313258   4.838   1.848   1.687  0.0170  0.3695  0.2828
 2905poe     o213259   4.909   1.769   1.780  0.0905 -0.3423 -0.3736
 2905poe    c3113260   4.836   1.741   1.897  0.4921 -0.8487 -0.2408
 2906poe    c3113261   0.621   6.882   1.019  0.1423  0.1047 -0.1719
 2906poe     o213262   0.753   6.916   0.981  0.2994 -0.3228 -0.0213
 2906poe    c2313263   0.756   7.056   0.968  0.1913 -0.2722  0.4915
 2906poe    c2313264   0.894   7.124   0.967  0.0209  0.0799 -0.3407
 2906poe     o213265   0.988   7.089   0.868 -0.1123  0.4266 -0.5924
 2906poe    c2313266   1.094   7.182   0.878  0.9647 -0.8577  0.2615
 2906poe    c2313267   1.187   7.156   0.758  0.5299  0.0616 -0.2783
 2906poe     o213268   1.217   7.019   0.754  0.0472 -0.0666  0.3712
 2906poe    c2313269   1.302   6.991   0.645 -0.7220 -0.3107 -0.1790
 2906poe    c2313270   1.311   6.838   0.631  0.4883 -0.3362  0.7072
 2906poe     o213271   1.194   6.777   0.681 -0.0825 -0.0592 -0.2763
 2906poe    c3113272   1.201   6.639   0.651 -0.9706 -0.1218 -0.2157
 2907poe    c3113273   2.268   2.550   2.543 -0.2737 -0.3175  0.3200
 2907poe     o213274   2.370   2.453   2.551  0.3841  0.3058 -0.3865
 2907poe    c2313275   2.470   2.484   2.645 -0.3242 -0.6085  0.6896
 2907poe    c2313276   2.580   2.377   2.657  0.0267 -0.3668 -0.3052
 2907poe     o213277   2.530   2.248   2.682 -0.3842 -0.2484 -0.5055
 2907poe    c2313278   2.517   2.215   2.819 -0.1584  0.4471 -0.3092
 2907poe    c2313279   2.462   2.074   2.847 -0.1075  0.5132  0.1260
 2907poe     o213280   2.540   1.967   2.796 -0.3217  0.4936 -0.1595
 2907poe    c2313281   2.474   1.845   2.821  0.2803  0.1096 -0.4426
 2907poe    c2313282   2.550   1.727   2.756  0.3377 -0.0297 -0.1252
 2907poe     o213283   2.550   1.699   2.618  0.4485 -0.6381 -0.0053
 2907poe    c3113284   2.599   1.572   2.583  1.0465 -0.4268  0.0512
 2908poe    c3113285   3.404   4.840   1.317  0.4849  0.3786  0.5976
 2908poe     o213286   3.310   4.885   1.412 -0.2048  0.1738  0.0200
 2908poe    c2313287   3.183   4.835   1.375 -0.2112 -0.1104  0.4199
 2908poe    c2313288   3.089   4.819   1.496  0.0588  0.3530  0.6947
 2908poe     o213289   3.043   4.939   1.555  0.0114  0.4287  0.5044
 2908poe    c2313290   2.984   4.903   1.678  0.5686 -0.4071  0.5370
 2908poe    c2313291   3.011   5.007   1.789  0.0343  0.2191  0.0901
 2908poe     o213292   2.946   5.132   1.780 -0.0351  0.1551 -0.3103
 2908poe    c2313293   2.983   5.219   1.884 -0.5791  0.2437 -0.1902
 2908poe    c2313294   2.892   5.341   1.907 -0.4794  0.3290 -0.2405
 2908poe     o213295   2.950   5.398   2.022 -0.0788 -0.4730 -0.0361
 2908poe    c3113296   2.850   5.445   2.111 -0.2091  0.3668 -0.6122
 2909poe    c3113297   1.305   3.096   3.893  0.4266 -0.1450 -0.0941
 2909poe     o213298   1.292   2.955   3.892  0.1946 -0.1260 -0.0046
 2909poe    c2313299   1.415   2.909   3.840  0.3446 -0.2256  0.4360
 2909poe    c2313300   1.427   2.757   3.817 -0.2100 -0.2282  0.1413
 2909poe     o213301   1.325   2.711   3.731  0.0653 -0.0268 -0.2910
 2909poe    c2313302   1.292   2.574   3.737 -0.3840  0.1138  0.6800
 2909poe    c2313303   1.155   2.542   3.674 -0.1691 -0.4689  0.5066
 2909poe     o213304   1.048   2.613   3.732 -0.0222 -0.0357  0.2547
 2909poe    c2313305   0.938   2.525   3.736 -0.2284  0.1889 -0.4177
 2909poe    c2313306   0.815   2.610   3.769  0.1416  0.3947  0.4389
 2909poe     o213307   0.794   2.629   3.908 -0.0659  0.1267  0.4465
 2909poe    c3113308   0.655   2.647   3.914 -0.0853  0.3524 -0.4251
 2910poe    c3113309   3.220   2.789   4.545  0.0750  0.4172  0.0840
 2910poe     o213310   3.109   2.705   4.568  0.3511 -0.0249 -0.1768
 2910poe    c2313311   3.059   2.673   4.440  0.3005 -0.5803 -0.0187
 2910poe    c2313312   2.942   2.576   4.466 -0.3624  0.0653 -0.5608
 2910poe     o213313   3.000   2.501   4.570 -0.6080  0.2987 -0.2545
 2910poe    c2313314   2.938   2.383   4.615 -0.2377  0.0711 -0.3365
 2910poe    c2313315   2.986   2.337   4.754 -0.4903  0.1643 -0.2183
 2910poe     o213316   2.977   2.451   4.836 -0.5889  0.2262 -0.3139
 2910poe    c2313317   2.873   2.443   4.931 -0.3351  0.6067 -0.0020
 2910poe    c2313318   2.882   2.551   5.041  0.2864  0.1944  0.3516
 2910poe     o213319   2.865   2.686   5.006  0.3394  0.0729 -0.1480
 2910poe    c3113320   2.907   2.775   5.106  0.3115 -0.1945  0.1006
 2911poe    c3113321   2.392   6.920   3.724  0.0015  0.4469  0.1050
 2911poe     o213322   2.252   6.929   3.710 -0.1122 -0.8825  0.2576
 2911poe    c2313323   2.177   6.986   3.814 -0.1469 -0.0188 -0.2290
 2911poe    c2313324   2.170   7.138   3.836  0.0326 -0.0014 -0.2952
 2911poe     o213325   2.105   7.207   3.731 -0.1096  0.0930 -0.1461
 2911poe    c2313326   2.140   7.343   3.724  0.5089 -0.0549 -0.0475
 2911poe    c2313327   2.080   7.415   3.602  0.3883 -0.5800 -0.2975
 2911poe     o213328   1.939   7.416   3.592  0.3683 -0.4443 -0.0013
 2911poe    c2313329   1.898   7.532   3.524  0.5984 -0.1177  0.4128
 2911poe    c2313330   1.768   7.600   3.572  0.2492 -0.1236 -0.4956
 2911poe     o213331   1.665   7.514   3.533  0.1068 -0.0743 -0.2311
 2911poe    c3113332   1.546   7.574   3.580  0.0827 -0.5656  0.3546
 2912poe    c3113333   7.037   0.932   0.043  0.1136  0.1394  0.3332
 2912poe     o213334   7.061   1.069   0.065  0.0496  0.2452 -0.2429
 2912poe    c2313335   6.956   1.147   0.120 -0.0841 -0.0432 -0.0869
 2912poe    c2313336   6.988   1.297   0.125  0.2715 -0.1398  0.6646
 2912poe     o213337   7.115   1.323   0.181  0.1850  0.2144  0.6973
 2912poe    c2313338   7.155   1.458   0.174 -0.5163  0.3914 -0.0436
 2912poe    c2313339   7.264   1.450   0.283 -0.0545  0.4233 -0.4978
 2912poe     o213340   7.337   1.329   0.287 -0.5672  0.1404  0.6657
 2912poe    c2313341   7.474   1.354   0.310 -0.4517  0.2751 -0.1301
 2912poe    c2313342   7.540   1.214   0.310 -0.1508  0.4170 -0.0282
 2912poe     o213343   7.559   1.163   0.180  0.2472  0.6048 -0.0458
 2912poe    c3113344   7.695   1.134   0.157  0.2323  0.5473 -0.0622
 2913poe    c3113345   4.404   1.566   0.487 -0.2590  0.0518 -0.7566
 2913poe     o213346   4.375   1.542   0.623 -0.1018  0.2989 -0.6794
 2913poe    c2313347   4.262   1.463   0.651  0.2972  0.0358  0.2432
 2913poe    c2313348   4.222   1.433   0.797 -0.4924  0.3203  0.0928
 2913poe     o213349   4.316   1.343   0.851 -0.2845  0.6848  0.3470
 2913poe    c2313350   4.280   1.315   0.984 -0.2314 -0.4236  0.1436
 2913poe    c2313351   4.412   1.283   1.057  0.0419 -0.4838 -0.3754
 2913poe     o213352   4.507   1.386   1.061 -0.2334 -0.2260 -0.4412
 2913poe    c2313353   4.613   1.319   1.126  0.0552  0.6290 -0.0066
 2913poe    c2313354   4.744   1.400   1.125  0.3694  0.1201 -0.5111
 2913poe     o213355   4.761   1.493   1.020 -0.4981  0.5668 -0.2620
 2913poe    c3113356   4.898   1.520   1.002 -0.4885  0.6043 -0.1395
 2914poe    c3113357   5.620   3.902   6.237 -0.0469  0.0481  0.5371
 2914poe     o213358   5.742   3.830   6.232 -0.0330  0.1192 -0.2978
 2914poe    c2313359   5.848   3.914   6.271 -0.0528 -0.0022  0.0170
 2914poe    c2313360   5.970   3.915   6.178 -0.0064 -0.2492  0.0745
 2914poe     o213361   6.053   3.800   6.173 -0.0646 -0.3245  0.7214
 2914poe    c2313362   6.175   3.819   6.105 -0.5359  0.7916  0.1489
 2914poe    c2313363   6.272   3.704   6.139 -0.6576  0.7431  0.3304
 2914poe     o213364   6.217   3.585   6.088  0.1670  0.6999 -0.4655
 2914poe    c2313365   6.250   3.545   5.957  0.1268 -0.0163 -0.2617
 2914poe    c2313366   6.230   3.394   5.929  0.4614 -0.1896  0.4027
 2914poe     o213367   6.285   3.322   6.036  0.0628 -0.3952  0.4675
 2914poe    c3113368   6.289   3.182   6.016  0.5676 -0.3500  0.2420
 2915poe    c3113369   0.936   0.453   2.614  0.1084 -0.0539  0.6180
 2915poe     o213370   1.048   0.436   2.530 -0.0780  0.0063  0.3540
 2915poe    c2313371   1.080   0.562   2.477  0.5652 -0.1776  0.2965
 2915poe    c2313372   1.181   0.551   2.362  0.2104  0.1388 -0.0487
 2915poe     o213373   1.151   0.453   2.265 -0.9631  0.1774  0.2637
 2915poe    c2313374   1.222   0.470   2.144  0.2818  0.0687  0.9642
 2915poe    c2313375   1.300   0.343   2.108  0.0014  0.1926 -0.1154
 2915poe     o213376   1.224   0.225   2.120 -0.0885  0.3009  0.4106
 2915poe    c2313377   1.279   0.115   2.050 -0.2214  0.1845  0.4880
 2915poe    c2313378   1.183   0.002   2.091 -0.2129  0.1060  0.2910
 2915poe     o213379   1.141   0.032   2.222 -0.2577  0.1669  0.2629
 2915poe    c3113380   1.081  -0.079   2.286  0.1601 -0.1167  0.1687
 2916poe    c3113381   4.834   0.279   6.513  0.2718 -0.1390  0.5038
 2916poe     o213382   4.806   0.142   6.502  0.2257 -0.0975  0.0467
 2916poe    c2313383   4.754   0.120   6.373  0.1693  0.4085 -0.0185
 2916poe    c2313384   4.609   0.157   6.339  0.1926 -0.3188 -0.9707
 2916poe     o213385   4.505   0.069   6.377 -0.2294  0.5140 -0.1525
 2916poe    c2313386   4.375   0.114   6.344 -0.3153  0.7499  0.4971
 2916poe    c2313387   4.290   0.019   6.257  0.7404  0.0851  0.1760
 2916poe     o213388   4.368  -0.032   6.151  0.6324  0.4396 -0.0726
 2916poe    c2313389   4.311  -0.003   6.025  0.1860  0.2077  0.0732
 2916poe    c2313390   4.424  -0.045   5.929 -0.1220  0.7017 -0.5142
 2916poe     o213391   4.526   0.051   5.945 -0.0291  0.5168  0.0420
 2916poe    c3113392   4.617   0.069   5.839  0.1014  0.4739  0.1475
 2917poe    c3113393   4.261   7.196   4.663 -0.9498  0.5906 -0.3021
 2917poe     o213394   4.298   7.329   4.637 -0.5018  0.5388  0.0444
 2917poe    c2313395   4.347   7.333   4.504  0.7219  0.0242  0.4706
 2917poe    c2313396   4.341   7.464   4.424 -0.2818 -0.2432  0.1014
 2917poe     o213397   4.209   7.505   4.394 -0.2662 -0.3908 -0.1797
 2917poe    c2313398   4.191   7.613   4.305  0.1750  0.1207  0.3412
 2917poe    c2313399   4.041   7.649   4.304  0.0959 -0.2081  0.2048
 2917poe     o213400   4.002   7.686   4.434  0.0052 -0.1382  0.1573
 2917poe    c2313401   3.864   7.713   4.449  0.0408  0.0288  0.1928
 2917poe    c2313402   3.859   7.800   4.576 -0.5815  0.2018  0.0518
 2917poe     o213403   3.952   7.738   4.662  0.1731  0.7024 -0.3986
 2917poe    c3113404   3.943   7.786   4.794  0.1506 -0.2449 -0.0453
 2918poe    c3113405   4.178   0.157   0.478 -0.1560 -0.5706 -0.2752
 2918poe     o213406   4.199   0.246   0.585 -0.2758 -0.3708 -0.4161
 2918poe    c2313407   4.319   0.213   0.651 -0.2634  0.2995 -0.0887
 2918poe    c2313408   4.371   0.329   0.738  0.5700 -0.2188  0.1121
 2918poe     o213409   4.296   0.312   0.856  0.0401  0.3195 -0.1437
 2918poe    c2313410   4.325   0.406   0.958 -0.4170  0.0444  0.2423
 2918poe    c2313411   4.196   0.446   1.031 -0.1412  0.5810  0.4387
 2918poe     o213412   4.137   0.327   1.079 -0.1548  0.4808  0.1754
 2918poe    c2313413   4.020   0.341   1.157  0.6379  0.2031  1.4411
 2918poe    c2313414   3.958   0.200   1.162  0.6410  0.1445  0.1174
 2918poe     o213415   3.975   0.145   1.033 -0.3052  0.5233 -0.1827
 2918poe    c3113416   3.897   0.027   1.028 -0.4793  0.6785 -1.3189
 2919poe    c3113417   1.294   2.192   1.068  0.4588 -0.1921 -0.6491
 2919poe     o213418   1.234   2.299   0.999  0.0582 -0.1428 -0.2262
 2919poe    c2313419   1.178   2.238   0.885 -0.3818 -0.2957  0.0690
 2919poe    c2313420   1.083   2.313   0.790 -0.0529 -0.4795 -0.4106
 2919poe     o213421   0.955   2.321   0.850  0.0022 -0.5576 -0.2818
 2919poe    c2313422   0.868   2.404   0.777  0.4532  0.4221  0.2768
 2919poe    c2313423   0.729   2.436   0.835  0.2514 -0.1276  0.1064
 2919poe     o213424   0.742   2.511   0.954  0.0381 -0.7837  0.5492
 2919poe    c2313425   0.618   2.505   1.021 -0.3204 -1.2553 -0.1483
 2919poe    c2313426   0.594   2.508   1.173  0.2868  0.0056 -0.0613
 2919poe     o213427   0.666   2.599   1.252  0.6576 -0.4352  0.1090
 2919poe    c3113428   0.623   2.583   1.385  0.0089 -0.5857 -0.1186
 2920poe    c3113429   5.367   4.216   1.997 -0.4871  0.9731  0.5953
 2920poe     o213430   5.327   4.254   1.868 -0.4294 -0.0522  0.2659
 2920poe    c2313431   5.330   4.392   1.841 -0.1083 -0.1465 -0.1963
 2920poe    c2313432   5.273   4.415   1.699 -0.6157  0.4906  0.1030
 2920poe     o213433   5.164   4.326   1.695 -0.2870  0.0621  0.5032
 2920poe    c2313434   5.113   4.335   1.563 -0.2643 -0.1570  0.4786
 2920poe    c2313435   5.000   4.235   1.535 -0.5424  0.1560  0.4813
 2920poe     o213436   5.036   4.107   1.583 -0.3465  0.2347  0.5417
 2920poe    c2313437   4.937   4.023   1.528  0.0464  0.0247  0.1432
 2920poe    c2313438   4.977   3.885   1.583 -0.3385 -0.1324  0.0305
 2920poe     o213439   4.984   3.892   1.723  0.0288  0.2841 -0.0049
 2920poe    c3113440   5.041   3.785   1.796 -0.4798 -0.1696 -0.2667
 2921poe    c3113441   5.542   5.261   2.005 -0.0723 -0.3409  0.3178
 2921poe     o213442   5.633   5.213   1.909  0.1592 -0.0743  0.4055
 2921poe    c2313443   5.694   5.324   1.847 -0.0173 -0.1447  0.1019
 2921poe    c2313444   5.639   5.377   1.713  0.3084  0.2572  0.1244
 2921poe     o213445   5.627   5.286   1.606  1.0247  0.5837 -0.2405
 2921poe    c2313446   5.530   5.345   1.522  0.5140 -0.1440 -0.1685
 2921poe    c2313447   5.484   5.254   1.406 -0.8347  0.2183  0.0656
 2921poe     o213448   5.556   5.254   1.285 -0.9104 -0.3931  0.0175
 2921poe    c2313449   5.477   5.253   1.168 -0.2950 -0.5815 -0.4059
 2921poe    c2313450   5.570   5.277   1.049  0.0532 -0.4024 -0.0993
 2921poe     o213451   5.668   5.178   1.027  0.0940 -0.4584  0.3285
 2921poe    c3113452   5.648   5.124   0.898  0.3803 -0.1560  0.1557
 2922poe    c3113453   3.158   6.401   4.837 -0.4753  0.1979 -0.2212
 2922poe     o213454   3.038   6.469   4.866 -0.7502 -0.3031 -0.1702
 2922poe    c2313455   3.046   6.593   4.800 -0.7872 -0.1752  0.0648
 2922poe    c2313456   2.928   6.684   4.839 -0.4007  0.2735  0.2093
 2922poe     o213457   2.938   6.723   4.974 -0.2627  0.1733  0.2293
 2922poe    c2313458   2.817   6.783   5.015 -0.3476  0.1367  0.0334
 2922poe    c2313459   2.823   6.811   5.167  0.6604 -0.0304  0.0262
 2922poe     o213460   2.897   6.709   5.230 -0.8761 -0.8205  0.5999
 2922poe    c2313461   2.899   6.738   5.369  0.0966 -0.1090  0.4503
 2922poe    c2313462   3.016   6.664   5.436 -0.2196 -0.7082  0.3501
 2922poe     o213463   3.134   6.714   5.376 -0.3127 -0.6103  0.2497
 2922poe    c3113464   3.222   6.748   5.480 -0.4046  0.1054  0.1018
 2923poe    c3113465   1.320   7.330   5.173  0.1237  0.1909 -0.4069
 2923poe     o213466   1.333   7.296   5.037 -0.2605 -0.6470 -0.2424
 2923poe    c2313467   1.219   7.233   4.981 -1.2956  0.2899  0.7469
 2923poe    c2313468   1.204   7.255   4.829 -0.0039 -0.3468  0.5113
 2923poe     o213469   1.319   7.202   4.767  0.2702  0.5776  0.2224
 2923poe    c2313470   1.272   7.148   4.646 -0.0484  0.7765  0.2560
 2923poe    c2313471   1.385   7.077   4.569 -0.2616  0.1522  0.5156
 2923poe     o213472   1.507   7.147   4.577 -0.2236  0.2298 -0.5883
 2923poe    c2313473   1.627   7.077   4.553 -0.1166  0.1015  0.2847
 2923poe    c2313474   1.728   7.193   4.544  0.1469 -0.1257  0.2884
 2923poe     o213475   1.709   7.294   4.641 -0.5755  0.0428 -0.0219
 2923poe    c3113476   1.810   7.392   4.641 -0.5138 -0.0207 -0.1029
 2924poe    c3113477   1.472   3.332   6.028 -0.1221  0.4378  0.2719
 2924poe     o213478   1.594   3.399   6.048 -0.0571  0.3011  0.3413
 2924poe    c2313479   1.579   3.532   6.002 -0.2262  0.1274 -0.1180
 2924poe    c2313480   1.693   3.632   6.030  0.4096 -0.7017  0.2991
 2924poe     o213481   1.742   3.669   6.157  0.3742 -0.5123  0.2577
 2924poe    c2313482   1.845   3.765   6.156  0.0012 -0.1081  0.4093
 2924poe    c2313483   1.832   3.862   6.275 -0.4724  0.3536 -0.0119
 2924poe     o213484   1.857   3.803   6.401  0.2447 -0.1472 -0.3809
 2924poe    c2313485   1.849   3.889   6.513 -0.7877 -0.6556 -0.0590
 2924poe    c2313486   1.713   3.956   6.540 -0.0733  0.5392  0.6331
 2924poe     o213487   1.731   4.050   6.644  0.0359  0.0657  1.0478
 2924poe    c3113488   1.605   4.109   6.666 -0.0852  0.3235 -0.2454
 2925poe    c3113489   5.720   3.187   1.082 -0.3912 -0.4895  0.2018
 2925poe     o213490   5.803   3.289   1.030 -0.2453 -0.4513  0.5127
 2925poe    c2313491   5.742   3.412   1.061  0.0866 -0.0752 -0.3164
 2925poe    c2313492   5.829   3.536   1.032 -0.0424  0.1781  0.3607
 2925poe     o213493   5.851   3.544   0.893 -0.5160  0.0138  0.2767
 2925poe    c2313494   5.942   3.651   0.879 -0.0652 -0.4237 -0.1640
 2925poe    c2313495   5.961   3.682   0.729 -0.2079  0.3798 -0.0200
 2925poe     o213496   5.959   3.556   0.665  0.0806  0.4018 -0.0713
 2925poe    c2313497   6.021   3.561   0.539  0.2442  0.5678  0.0143
 2925poe    c2313498   6.041   3.414   0.497  0.2603  0.5935 -0.0669
 2925poe     o213499   5.921   3.340   0.501  0.6005  0.0470  0.1310
 2925poe    c3113500   5.938   3.204   0.471 -0.7733 -0.3513  1.0364
 2926poe    c3113501   2.250   2.847   3.405 -0.3417  0.5707 -0.4285
 2926poe     o213502   2.230   2.899   3.535  0.0042  0.0639 -0.1697
 2926poe    c2313503   2.272   2.808   3.633  0.4416 -0.3936 -0.7725
 2926poe    c2313504   2.284   2.869   3.774 -0.0535  0.0405 -0.9190
 2926poe     o213505   2.165   2.881   3.850  0.5180 -0.3970  0.0597
 2926poe    c2313506   2.194   2.939   3.975  0.6608  0.1908 -0.2409
 2926poe    c2313507   2.091   2.909   4.086  0.6170  0.2201 -0.2742
 2926poe     o213508   2.119   2.782   4.139 -0.3100  0.1232 -0.0102
 2926poe    c2313509   2.042   2.748   4.252 -0.1533  0.4489  0.1974
 2926poe    c2313510   2.071   2.601   4.289  0.0673  0.3030 -0.5407
 2926poe     o213511   2.201   2.563   4.327 -0.1518 -0.5081 -0.5884
 2926poe    c3113512   2.217   2.428   4.366 -0.0613 -0.3022  0.1106
 2927poe    c3113513   1.703   1.377   5.714  0.4895 -0.0359  0.8601
 2927poe     o213514   1.684   1.475   5.614  1.1440 -0.4284  0.3432
 2927poe    c2313515   1.625   1.435   5.492  0.6612  0.7762  0.1640
 2927poe    c2313516   1.518   1.530   5.438  0.5931  0.4484 -0.2821
 2927poe     o213517   1.550   1.659   5.485  0.9037  0.2764 -0.0203
 2927poe    c2313518   1.450   1.753   5.453  0.0700 -0.1855  1.1486
 2927poe    c2313519   1.481   1.904   5.457 -0.6915  0.0111  0.1672
 2927poe     o213520   1.530   1.957   5.579 -0.3192 -0.3191  0.1618
 2927poe    c2313521   1.552   2.096   5.588 -0.3865 -0.2797 -0.2204
 2927poe    c2313522   1.648   2.127   5.705 -0.6479 -0.3944  0.0249
 2927poe     o213523   1.775   2.083   5.663 -0.3143  0.3126  0.2819
 2927poe    c3113524   1.875   2.120   5.755  0.2219 -0.4175 -0.0014
 2928poe    c3113525   5.998   5.791   1.701  0.3702 -0.4011  0.6509
 2928poe     o213526   6.030   5.879   1.807  0.2079 -0.2116  0.5427
 2928poe    c2313527   5.915   5.915   1.881  0.0994 -0.9813  0.7597
 2928poe    c2313528   5.969   5.976   2.011  0.6069 -0.4758  0.3175
 2928poe     o213529   6.033   6.102   1.998 -0.4588  0.0225 -0.2113
 2928poe    c2313530   6.079   6.139   2.126 -0.2328 -0.2336 -0.2179
 2928poe    c2313531   6.144   6.278   2.130  0.1015 -0.3887 -0.1786
 2928poe     o213532   6.264   6.281   2.056  0.1561 -0.1564 -0.0827
 2928poe    c2313533   6.377   6.255   2.136  0.5207  0.0438 -0.5329
 2928poe    c2313534   6.498   6.222   2.046  0.7126  0.5487 -0.4573
 2928poe     o213535   6.471   6.135   1.939  0.4216 -0.1070  0.1430
 2928poe    c3113536   6.595   6.096   1.885  0.2169  0.0458 -0.4423
 2929poe    c3113537   3.766   2.411   6.683  0.6554 -0.0546 -0.2012
 2929poe     o213538   3.694   2.313   6.612  0.1186  0.1189  0.1010
 2929poe    c2313539   3.713   2.183   6.664 -0.4774 -0.0189 -0.0123
 2929poe    c2313540   3.640   2.094   6.562  0.3300 -0.5057 -0.1725
 2929poe     o213541   3.513   2.144   6.528  0.5128 -0.2495 -0.4912
 2929poe    c2313542   3.461   2.065   6.424  0.0452 -0.4489 -0.1106
 2929poe    c2313543   3.325   2.126   6.387  0.1475  0.1376  0.4709
 2929poe     o213544   3.347   2.265   6.381  0.4245  0.0608 -0.3314
 2929poe    c2313545   3.238   2.325   6.314  0.3990 -0.0009 -0.3456
 2929poe    c2313546   3.253   2.476   6.292  0.0431  0.0950  0.0469
 2929poe     o213547   3.275   2.546   6.412 -0.7704  0.2680  0.0993
 2929poe    c3113548   3.272   2.684   6.380  0.6008  0.3559  0.2729
 2930poe    c3113549   1.998   6.881   0.549  0.0589  0.2494  0.3806
 2930poe     o213550   2.007   7.020   0.572  0.2585  0.3290 -0.1502
 2930poe    c2313551   2.086   7.056   0.683 -0.0932 -0.1202  0.2481
 2930poe    c2313552   2.110   7.208   0.691  0.0253 -0.1376  0.2131
 2930poe     o213553   1.985   7.271   0.701  0.1932  0.3332 -0.5750
 2930poe    c2313554   1.997   7.411   0.712 -0.3210  0.3120  0.3043
 2930poe    c2313555   1.854   7.468   0.722 -0.5992 -0.1990 -0.6469
 2930poe     o213556   1.787   7.404   0.829  0.3197  0.3550  0.2828
 2930poe    c2313557   1.679   7.475   0.884  0.0940 -0.1823  0.5424
 2930poe    c2313558   1.721   7.537   1.019  0.5402  0.0633  0.2934
 2930poe     o213559   1.735   7.428   1.108  0.5488 -0.3229 -0.1726
 2930poe    c3113560   1.756   7.462   1.244 -0.2492 -0.1423 -0.0913
 2931poe    c3113561   1.044   6.715   1.508  0.2089 -0.5275  0.1360
 2931poe     o213562   0.994   6.800   1.408  0.2891  0.1010  0.6258
 2931poe    c2313563   0.864   6.845   1.442  0.0857  0.0336 -0.0518
 2931poe    c2313564   0.781   6.859   1.313  0.0923 -0.2750 -0.0901
 2931poe     o213565   0.758   6.725   1.277 -0.4126 -0.0814 -0.4900
 2931poe    c2313566   0.846   6.670   1.181  0.2964  0.4402 -0.1461
 2931poe    c2313567   0.781   6.540   1.129  0.0130  0.5199  0.0078
 2931poe     o213568   0.752   6.457   1.239 -0.1340  0.0725 -0.3691
 2931poe    c2313569   0.706   6.332   1.192  0.6495 -0.3686  0.0092
 2931poe    c2313570   0.609   6.245   1.273  0.4259 -0.1512 -0.0236
 2931poe     o213571   0.668   6.173   1.380 -0.2451 -0.7634 -0.0548
 2931poe    c3113572   0.586   6.083   1.450 -1.0823 -0.5270 -0.7078
 2932poe    c3113573   5.790   5.704   6.723 -0.2675 -0.0201 -1.2304
 2932poe     o213574   5.867   5.589   6.699  0.6499  0.2800  0.1499
 2932poe    c2313575   5.784   5.484   6.745  0.2669  0.3930 -0.2774
 2932poe    c2313576   5.857   5.353   6.709 -0.9955 -0.1607 -0.8578
 2932poe     o213577   5.887   5.315   6.576 -0.2804  0.0089 -0.7448
 2932poe    c2313578   5.777   5.258   6.510 -0.5084  0.5965 -0.8835
 2932poe    c2313579   5.834   5.191   6.383 -0.1243 -0.5020 -0.1460
 2932poe     o213580   5.930   5.280   6.333  0.0503 -0.5832  0.0419
 2932poe    c2313581   5.993   5.243   6.212 -0.0016 -0.6676  0.0418
 2932poe    c2313582   6.114   5.335   6.189 -0.3165 -0.1460  0.4308
 2932poe     o213583   6.170   5.336   6.318  0.1846  1.2366  0.2193
 2932poe    c3113584   6.294   5.402   6.329  0.5675  0.5467  0.1219
 2933poe    c3113585   4.485   6.518   1.486  0.1236  0.0406 -0.0575
 2933poe     o213586   4.560   6.632   1.447 -0.0263  0.2041  0.1300
 2933poe    c2313587   4.644   6.579   1.347  0.0520 -0.5102  0.5658
 2933poe    c2313588   4.739   6.690   1.297 -0.3403 -0.4297 -0.0190
 2933poe     o213589   4.839   6.729   1.389 -0.4140  0.0079 -0.1272
 2933poe    c2313590   4.801   6.820   1.490 -0.5994 -0.6230  0.3727
 2933poe    c2313591   4.897   6.800   1.609  0.2186 -0.7889 -0.3032
 2933poe     o213592   5.020   6.778   1.545  0.1657  0.1799 -0.7532
 2933poe    c2313593   5.107   6.714   1.635  0.2220  0.2816 -0.7352
 2933poe    c2313594   5.231   6.686   1.548  0.3772 -0.7822 -0.1983
 2933poe     o213595   5.189   6.610   1.437 -0.2352 -0.2831 -0.3140
 2933poe    c3113596   5.289   6.511   1.432 -0.3793 -0.4912  0.7962
 2934poe    c3113597   0.805   5.639   5.970  0.2635 -0.2598 -0.5120
 2934poe     o213598   0.866   5.707   6.077 -0.0177 -0.1240 -0.4389
 2934poe    c2313599   1.006   5.718   6.061  0.1161 -0.3082  0.4980
 2934poe    c2313600   1.062   5.837   6.140  0.1925  0.1208 -0.1931
 2934poe     o213601   1.037   5.821   6.278  0.0973  0.2685 -0.1925
 2934poe    c2313602   0.986   5.944   6.325 -0.4049  0.1484 -0.4179
 2934poe    c2313603   0.957   5.950   6.476 -0.2063 -0.5423 -0.3508
 2934poe     o213604   0.854   5.854   6.479 -0.2148 -0.5173  0.3143
 2934poe    c2313605   0.827   5.831   6.616 -0.0902 -0.2212  0.3882
 2934poe    c2313606   0.773   5.690   6.642 -0.9002 -0.0308 -0.2170
 2934poe     o213607   0.860   5.584   6.606  0.1297  0.6083  0.3578
 2934poe    c3113608   0.805   5.463   6.654  0.6970  0.3316  0.3089
 2935poe    c3113609   6.465   2.070   0.332  0.1509  0.5277  0.2485
 2935poe     o213610   6.457   2.160   0.224  0.0400  0.2019 -0.0163
 2935poe    c2313611   6.393   2.283   0.250  0.1346  0.1965  0.2443
 2935poe    c2313612   6.333   2.322   0.114  0.0270  0.2121  0.2957
 2935poe     o213613   6.434   2.367   0.026  0.1917  0.3279  0.5415
 2935poe    c2313614   6.378   2.448  -0.076 -0.0510 -0.2672  0.1962
 2935poe    c2313615   6.491   2.493  -0.170 -0.4367 -0.2150 -0.2429
 2935poe     o213616   6.563   2.383  -0.220  0.5684  0.2840  0.0722
 2935poe    c2313617   6.673   2.426  -0.298  0.4973  0.4138  0.0448
 2935poe    c2313618   6.730   2.297  -0.360  0.1999  0.1562  0.3041
 2935poe     o213619   6.771   2.202  -0.264  0.1384 -0.6157 -0.4271
 2935poe    c3113620   6.775   2.085  -0.343  0.0699 -0.7158 -0.2835
 2936poe    c3113621   1.639   1.388   4.714  1.0220 -0.5553 -0.1230
 2936poe     o213622   1.727   1.469   4.638  0.1515  0.1688 -0.3772
 2936poe    c2313623   1.861   1.456   4.678  0.0956  0.1589 -0.1915
 2936poe    c2313624   1.950   1.576   4.642  0.5632 -0.0550  0.2368
 2936poe     o213625   1.948   1.610   4.506  0.2302 -0.1277  0.2215
 2936poe    c2313626   1.956   1.751   4.499  0.2915 -0.1443 -0.0872
 2936poe    c2313627   1.982   1.801   4.356 -0.0449  1.0640  0.2653
 2936poe     o213628   1.877   1.753   4.275 -0.2100  0.8318  0.6130
 2936poe    c2313629   1.913   1.775   4.140 -0.6074  0.4452  0.4417
 2936poe    c2313630   1.820   1.686   4.056 -0.2220 -0.1646  0.6510
 2936poe     o213631   1.684   1.681   4.095 -0.4496 -0.0621 -0.1105
 2936poe    c3113632   1.598   1.583   4.041  0.3095 -0.6687 -0.2492
 2937poe    c3113633   4.809   4.553   3.795  0.6710 -0.6693 -1.5182
 2937poe     o213634   4.935   4.612   3.819 -0.0453  0.1462  0.5736
 2937poe    c2313635   5.024   4.502   3.811 -0.1462  0.1358 -0.6024
 2937poe    c2313636   5.170   4.548   3.825 -0.1216 -0.1407  0.0777
 2937poe     o213637   5.218   4.589   3.951  0.4032  0.4415 -0.3100
 2937poe    c2313638   5.349   4.640   3.937  0.5515  0.2135  0.2405
 2937poe    c2313639   5.403   4.688   4.073  0.2888  1.2374 -0.0052
 2937poe     o213640   5.311   4.776   4.134 -0.0029  0.7052  0.3424
 2937poe    c2313641   5.347   4.813   4.265 -1.0583  0.1265  0.8073
 2937poe    c2313642   5.367   4.965   4.281  0.1268  0.1338 -0.6001
 2937poe     o213643   5.497   5.003   4.321 -0.2642  0.2973  0.5479
 2937poe    c3113644   5.528   5.135   4.282  0.0733  0.0531 -0.0350
 2938poe    c3113645   4.900   2.956   0.425  0.6632  0.4561 -0.8803
 2938poe     o213646   4.769   2.993   0.391  0.2208 -0.0683  0.2137
 2938poe    c2313647   4.702   2.894   0.315  0.6304 -0.3215  0.1775
 2938poe    c2313648   4.672   2.930   0.169 -0.1183  0.1288  0.4320
 2938poe     o213649   4.557   3.005   0.136  0.1614  0.4585  0.1979
 2938poe    c2313650   4.541   3.050   0.003 -0.1003  0.8374  0.3575
 2938poe    c2313651   4.413   3.135  -0.002 -0.5190  0.2156  0.5503
 2938poe     o213652   4.303   3.050   0.025 -0.0009 -0.5593  0.2514
 2938poe    c2313653   4.186   3.106  -0.029  0.2071  0.4638  0.8391
 2938poe    c2313654   4.063   3.030   0.024  0.1896 -0.2556 -0.1928
 2938poe     o213655   4.080   3.027   0.164 -0.1500  0.1114 -0.1425
 2938poe    c3113656   3.972   3.077   0.241 -0.5030 -0.0282 -0.5434
 2939poe    c3113657   5.906   5.256   3.085 -0.6482  0.6864 -0.1258
 2939poe     o213658   5.916   5.164   3.192 -0.1200  0.8543 -0.0266
 2939poe    c2313659   6.039   5.095   3.194 -0.4694  0.2298  0.1247
 2939poe    c2313660   6.093   5.019   3.316 -0.6965 -0.0411  0.0585
 2939poe     o213661   6.231   4.988   3.309 -0.6596 -0.0642  0.8294
 2939poe    c2313662   6.280   4.874   3.377 -0.3977 -0.4605 -0.0120
 2939poe    c2313663   6.432   4.865   3.357 -0.3777 -0.3829  0.1080
 2939poe     o213664   6.453   4.827   3.223 -0.0650 -0.0676  0.0666
 2939poe    c2313665   6.582   4.848   3.169 -0.1558 -0.0640 -0.1495
 2939poe    c2313666   6.595   4.762   3.042 -0.2554 -0.0541 -0.1664
 2939poe     o213667   6.473   4.779   2.974 -0.3510 -0.2184 -0.0376
 2939poe    c3113668   6.487   4.758   2.835 -0.6964  0.1859 -0.1372
 2940poe    c3113669   1.749   6.357   0.024  0.8602  0.2115 -0.1906
 2940poe     o213670   1.695   6.350  -0.106 -0.3948 -0.2218  0.3339
 2940poe    c2313671   1.560   6.392  -0.113 -0.3559 -0.1717 -0.1427
 2940poe    c2313672   1.504   6.425  -0.253 -0.7121 -0.0756  0.0233
 2940poe     o213673   1.558   6.541  -0.312 -0.0295 -0.6195 -0.4448
 2940poe    c2313674   1.576   6.518  -0.449  0.0113 -0.1451 -0.5222
 2940poe    c2313675   1.691   6.613  -0.490  0.1421  0.2305  0.6694
 2940poe     o213676   1.667   6.751  -0.502 -0.0342  0.1565  0.1107
 2940poe    c2313677   1.685   6.828  -0.385  0.4870  0.2873 -0.0519
 2940poe    c2313678   1.693   6.976  -0.426  0.1592  0.4077  0.3090
 2940poe     o213679   1.567   7.035  -0.449 -0.1988 -0.4372  0.0785
 2940poe    c3113680   1.578   7.174  -0.470 -0.5470 -0.3706  0.3090
 2941poe    c3113681   7.128   1.820   5.294  0.0967 -0.1937 -0.6648
 2941poe     o213682   7.024   1.842   5.387  0.7336  0.0394 -0.0024
 2941poe    c2313683   7.051   1.951   5.473  0.3861 -0.0326  0.1999
 2941poe    c2313684   6.966   1.954   5.601  0.3710  0.1714  0.1860
 2941poe     o213685   7.017   2.045   5.696  0.0298  0.6094 -0.0455
 2941poe    c2313686   6.954   2.039   5.822 -0.1743  0.4554 -0.1545
 2941poe    c2313687   6.971   1.909   5.903  0.3299  0.7704  0.2525
 2941poe     o213688   7.097   1.891   5.963  0.5655 -0.2020 -0.5135
 2941poe    c2313689   7.094   1.769   6.034  0.4421  0.4016  0.5520
 2941poe    c2313690   7.192   1.730   6.146 -0.2863 -0.5970  0.8595
 2941poe     o213691   7.319   1.722   6.085 -0.5299 -0.5012  0.3371
 2941poe    c3113692   7.411   1.645   6.158  0.5783  0.4035 -0.0747
 2942poe    c3113693   5.807   1.544   4.668 -0.3009 -0.2156 -0.1049
 2942poe     o213694   5.795   1.420   4.734 -0.2352 -0.1499  0.0334
 2942poe    c2313695   5.658   1.395   4.758 -0.2225 -0.6989 -0.4321
 2942poe    c2313696   5.627   1.276   4.850  0.1256 -0.3725  0.1109
 2942poe     o213697   5.605   1.150   4.792 -0.3780 -0.1825 -0.1141
 2942poe    c2313698   5.589   1.050   4.891 -0.1081 -0.0902  0.0216
 2942poe    c2313699   5.587   0.911   4.826 -0.3360 -0.1033  0.0558
 2942poe     o213700   5.707   0.871   4.763 -0.3207 -0.6483  0.4212
 2942poe    c2313701   5.704   0.738   4.717  0.0670 -0.3331 -0.5345
 2942poe    c2313702   5.608   0.694   4.605 -0.5019 -0.3432 -0.0511
 2942poe     o213703   5.634   0.762   4.484 -0.0224 -0.3883  0.0241
 2942poe    c3113704   5.536   0.716   4.394 -0.3304  0.3599 -0.0320
 2943poe    c3113705   6.980   0.592   4.865  0.0132  0.6571  0.7762
 2943poe     o213706   7.007   0.655   4.742 -0.0273  0.4956  0.6841
 2943poe    c2313707   7.002   0.795   4.753 -0.2039  0.5742 -0.2783
 2943poe    c2313708   7.047   0.872   4.627  0.0427  0.9956  0.0635
 2943poe     o213709   6.989   0.831   4.505  0.1817 -0.0824  0.3501
 2943poe    c2313710   7.075   0.858   4.397 -0.0955  0.4712  0.2667
 2943poe    c2313711   7.009   0.810   4.266 -0.0400  0.2908  0.3049
 2943poe     o213712   6.999   0.669   4.275  0.4738  0.1937 -0.5747
 2943poe    c2313713   6.993   0.606   4.149 -0.0330 -0.3687 -0.2733
 2943poe    c2313714   6.939   0.466   4.183  0.6254 -0.4287  0.5799
 2943poe     o213715   6.829   0.484   4.270  0.5141  0.6006  0.2429
 2943poe    c3113716   6.770   0.359   4.296  0.9164  0.2565 -0.4513
 2944poe    c3113717   5.806   1.790   6.405 -0.4633  0.3191 -0.2825
 2944poe     o213718   5.903   1.888   6.434 -0.0767  0.0319 -0.6063
 2944poe    c2313719   6.026   1.850   6.375 -0.1476 -0.6407 -0.3281
 2944poe    c2313720   6.053   1.890   6.229 -0.5204  0.0159 -0.2230
 2944poe     o213721   6.070   2.030   6.219  0.2263 -0.0709 -0.2370
 2944poe    c2313722   6.109   2.066   6.088 -0.0696 -0.0422 -0.3167
 2944poe    c2313723   6.093   2.212   6.042  0.3749  0.0546 -0.1662
 2944poe     o213724   6.162   2.315   6.109 -0.8074  0.4569  0.4671
 2944poe    c2313725   6.206   2.416   6.020  0.5803 -0.6870 -0.1725
 2944poe    c2313726   6.345   2.460   6.069  0.6368 -0.4588 -0.5343
 2944poe     o213727   6.348   2.430   6.207  0.0420  0.5753 -0.2845
 2944poe    c3113728   6.479   2.448   6.256  0.2500 -0.1326 -0.5697
 2945poe    c3113729   4.911   0.411   4.254  0.9776 -0.1121 -0.2083
 2945poe     o213730   4.847   0.453   4.136  0.4909  0.3170  0.1989
 2945poe    c2313731   4.879   0.579   4.082 -0.7497  0.4642 -0.2404
 2945poe    c2313732   5.015   0.609   4.016 -0.5821  0.0179 -0.1030
 2945poe     o213733   5.132   0.590   4.092 -0.1956  0.3150 -0.6223
 2945poe    c2313734   5.254   0.617   4.026  0.3325 -0.1406  0.1544
 2945poe    c2313735   5.297   0.759   3.985 -0.5265 -0.0612 -0.4944
 2945poe     o213736   5.219   0.811   3.880 -0.3004  0.3411 -0.4629
 2945poe    c2313737   5.223   0.952   3.882 -0.0300  0.3236  0.5337
 2945poe    c2313738   5.158   1.005   3.753  0.0844  0.1601  0.4101
 2945poe     o213739   5.021   0.986   3.728 -0.0205  0.4056  0.8099
 2945poe    c3113740   4.961   1.114   3.719 -0.1290  0.2845 -0.2652
 2946poe    c3113741   7.161   0.507   2.834  0.1984 -0.4181 -0.5530
 2946poe     o213742   7.097   0.455   2.720 -0.8681 -0.3196 -0.0106
 2946poe    c2313743   7.135   0.521   2.601  0.1725 -0.4054  0.2665
 2946poe    c2313744   7.049   0.506   2.475  0.2342  0.1892  0.1520
 2946poe     o213745   6.922   0.567   2.470  0.1193 -0.0406  0.2164
 2946poe    c2313746   6.813   0.506   2.536 -0.3902  0.1588 -0.4259
 2946poe    c2313747   6.685   0.592   2.541 -0.2345  0.4564 -1.3590
 2946poe     o213748   6.701   0.714   2.609 -0.2231 -0.4506  0.3191
 2946poe    c2313749   6.585   0.766   2.670 -0.2826 -0.0222 -0.1487
 2946poe    c2313750   6.599   0.918   2.654  0.0898 -0.0063  0.3022
 2946poe     o213751   6.726   0.959   2.702  0.0416  0.5113  0.0004
 2946poe    c3113752   6.703   1.068   2.787 -0.4174 -0.0697  0.6384
 2947poe    c3113753   1.863   2.271   0.502  0.2396 -0.1192  0.5724
 2947poe     o213754   1.855   2.347   0.383 -0.3475 -0.1927  0.5646
 2947poe    c2313755   1.830   2.485   0.401  0.3727  0.0127  0.0192
 2947poe    c2313756   1.822   2.566   0.270  0.0341  0.3735  0.2626
 2947poe     o213757   1.943   2.578   0.199  0.0268  0.4666  0.2656
 2947poe    c2313758   1.962   2.689   0.115 -1.0531  0.4451 -0.0164
 2947poe    c2313759   1.981   2.653  -0.034 -0.0322 -0.3415  0.2980
 2947poe     o213760   2.071   2.544  -0.022  0.4175  0.0024  0.0760
 2947poe    c2313761   2.151   2.542  -0.138 -0.0332 -0.3465 -0.2351
 2947poe    c2313762   2.235   2.418  -0.103  0.0322 -0.1959  0.1541
 2947poe     o213763   2.272   2.420   0.033  0.5119 -0.0342  0.0230
 2947poe    c3113764   2.361   2.313   0.055  0.2485 -0.2161  0.2165
 2948poe    c3113765   5.114   3.195   1.859  0.2697  0.1455  0.3136
 2948poe     o213766   5.005   3.191   1.949 -0.2790 -1.0928 -0.3772
 2948poe    c2313767   4.926   3.301   1.909  0.6628 -0.4307 -0.4622
 2948poe    c2313768   4.776   3.287   1.944  0.6789 -0.2180 -0.3042
 2948poe     o213769   4.686   3.201   1.878  0.0907  0.1588  0.0049
 2948poe    c2313770   4.648   3.217   1.743  0.3434  0.2437 -0.0561
 2948poe    c2313771   4.736   3.170   1.626  0.7036  0.2438  0.2129
 2948poe     o213772   4.759   3.032   1.606  0.3158  0.3533 -1.0568
 2948poe    c2313773   4.651   2.968   1.543 -0.5686  0.6499  0.1258
 2948poe    c2313774   4.663   2.967   1.389 -0.3547 -0.0069  0.1447
 2948poe     o213775   4.762   2.871   1.359 -0.2854  0.0858  0.0741
 2948poe    c3113776   4.701   2.796   1.257 -0.2012  0.6954 -0.4313
 2949poe    c3113777   3.867   4.636   3.214  0.4654  0.5331 -0.4321
 2949poe     o213778   3.907   4.555   3.322 -0.2497  0.1694 -0.4373
 2949poe    c2313779   3.846   4.428   3.309 -0.1810  0.0783  0.0917
 2949poe    c2313780   3.914   4.317   3.390 -0.1435  0.1438  0.1502
 2949poe     o213781   3.880   4.343   3.524  0.5629  0.2200  0.3215
 2949poe    c2313782   3.922   4.237   3.607 -1.0991 -0.6980  0.0383
 2949poe    c2313783   3.832   4.224   3.731 -0.4735 -1.1810  0.4523
 2949poe     o213784   3.895   4.225   3.857  0.2903 -0.2295  0.0707
 2949poe    c2313785   3.809   4.256   3.964  0.2160 -0.4011  0.0597
 2949poe    c2313786   3.850   4.201   4.102 -0.3270 -0.3773  0.2342
 2949poe     o213787   3.969   4.254   4.156 -0.4788 -0.2668  0.4632
 2949poe    c3113788   3.949   4.299   4.288 -0.2080 -0.1564  0.4665
 2950poe    c3113789   4.757   2.066   6.293 -0.0640  0.1623 -0.1569
 2950poe     o213790   4.710   2.132   6.178 -0.0541 -0.5049 -0.5503
 2950poe    c2313791   4.636   2.247   6.212  0.1697 -0.4067 -0.3928
 2950poe    c2313792   4.632   2.351   6.099  0.3657 -0.2395 -0.2462
 2950poe     o213793   4.764   2.399   6.082  0.1963  0.4354  0.2491
 2950poe    c2313794   4.771   2.490   5.974  0.0035 -0.2193 -0.3286
 2950poe    c2313795   4.909   2.557   5.974  0.0089 -0.2084  0.6890
 2950poe     o213796   5.006   2.477   5.909  0.3391  0.3224  0.5222
 2950poe    c2313797   5.139   2.520   5.918  0.3143  0.4224  0.4194
 2950poe    c2313798   5.216   2.413   5.839  0.1412  0.3188  0.3928
 2950poe     o213799   5.202   2.289   5.905 -0.4741 -0.1920 -0.6587
 2950poe    c3113800   5.318   2.215   5.875 -0.4356 -0.5137  0.2352
 2951poe    c3113801   5.233   7.338   5.732  0.0748 -0.6042 -0.6169
 2951poe     o213802   5.291   7.240   5.815 -0.0938 -0.0232  0.2004
 2951poe    c2313803   5.414   7.275   5.874  0.0872  0.3227 -0.3819
 2951poe    c2313804   5.462   7.172   5.978  0.0030 -0.2935 -0.9492
 2951poe     o213805   5.517   7.052   5.928  0.4711 -0.1533 -0.7732
 2951poe    c2313806   5.550   6.962   6.032  0.2538  0.1457 -0.4413
 2951poe    c2313807   5.613   6.828   5.988 -0.4748 -0.1074 -0.7301
 2951poe     o213808   5.514   6.729   5.972 -0.4077 -0.3218  0.0907
 2951poe    c2313809   5.563   6.602   6.009  0.1255 -0.1549 -0.0283
 2951poe    c2313810   5.565   6.566   6.158 -0.0519 -0.4725 -0.1020
 2951poe     o213811   5.437   6.549   6.214  0.1715  0.0018  0.5629
 2951poe    c3113812   5.448   6.476   6.335 -0.4840  0.1747  0.7314
 2952poe    c3113813   0.656   3.618   4.159 -0.1231 -0.0812  0.3683
 2952poe     o213814   0.680   3.709   4.055 -0.4842 -0.3134  0.0801
 2952poe    c2313815   0.735   3.641   3.944  0.1435  0.5142 -0.1278
 2952poe    c2313816   0.724   3.711   3.807 -0.1298  0.0141 -0.3621
 2952poe     o213817   0.591   3.720   3.761 -0.2225 -0.8588 -0.2830
 2952poe    c2313818   0.589   3.790   3.639  0.2924 -0.2838  0.0300
 2952poe    c2313819   0.442   3.796   3.593  0.5411  0.7600 -0.6659
 2952poe     o213820   0.370   3.845   3.704  0.1852  0.0769 -0.5847
 2952poe    c2313821   0.232   3.848   3.675 -0.0009 -0.9373  0.1502
 2952poe    c2313822   0.168   3.922   3.794 -0.0152 -0.0191 -0.4217
 2952poe     o213823   0.212   3.864   3.915 -0.5057  0.2617 -0.1068
 2952poe    c3113824   0.150   3.913   4.032 -1.0005  0.2610 -0.3645
 2953poe    c3113825   0.921   1.556   0.458  0.0312  0.3240 -0.0159
 2953poe     o213826   1.040   1.503   0.513 -0.0676  0.2630  0.1381
 2953poe    c2313827   1.162   1.552   0.463  0.1735 -0.1818  0.2884
 2953poe    c2313828   1.257   1.432   0.477 -0.1637 -0.5537 -0.5075
 2953poe     o213829   1.249   1.380   0.608 -0.0379  0.0770 -0.2445
 2953poe    c2313830   1.329   1.269   0.643 -0.4205 -0.2020 -0.2464
 2953poe    c2313831   1.313   1.233   0.792 -0.5125 -0.4037 -0.3036
 2953poe     o213832   1.183   1.275   0.828 -0.1815  0.1463  0.2845
 2953poe    c2313833   1.132   1.194   0.931  0.1216 -0.2003  0.1677
 2953poe    c2313834   1.014   1.271   0.994  0.1057 -0.1970  0.1339
 2953poe     o213835   0.915   1.296   0.896  0.1980  0.3863  0.1824
 2953poe    c3113836   0.787   1.306   0.954  0.2811 -0.5708  0.5586
 2954poe    c3113837   6.449   0.241   1.698  0.1247  0.1042 -0.1370
 2954poe     o213838   6.426   0.103   1.685 -0.0774  0.1167  0.0740
 2954poe    c2313839   6.526   0.030   1.617 -0.0658  0.1941  0.0082
 2954poe    c2313840   6.468  -0.097   1.553  0.5106 -0.2640  0.3779
 2954poe     o213841   6.409  -0.177   1.653 -0.6690 -0.3420 -0.3535
 2954poe    c2313842   6.378  -0.308   1.611 -0.5844 -0.5938  0.3481
 2954poe    c2313843   6.487  -0.414   1.592  0.0880  0.1384  0.0752
 2954poe     o213844   6.589  -0.381   1.500  0.0331 -0.0047 -0.0377
 2954poe    c2313845   6.613  -0.492   1.416  0.1148  0.2690 -0.3746
 2954poe    c2313846   6.704  -0.448   1.299  0.0086 -0.3250 -0.6817
 2954poe     o213847   6.637  -0.376   1.198 -0.1063  0.1269 -0.2873
 2954poe    c3113848   6.626  -0.238   1.225  0.7925  0.1306  0.0977
 2955poe    c3113849   1.548   5.542   4.181  0.0561  0.5379 -0.0243
 2955poe     o213850   1.596   5.519   4.051  0.5961  0.9002  0.1088
 2955poe    c2313851   1.503   5.592   3.974 -0.8590 -0.4290  0.5729
 2955poe    c2313852   1.505   5.559   3.824  0.1641 -0.2515  0.5462
 2955poe     o213853   1.452   5.435   3.784  0.1023  0.1287 -0.5982
 2955poe    c2313854   1.328   5.449   3.717  0.0227  0.1731 -0.4437
 2955poe    c2313855   1.269   5.307   3.703  0.0931  0.0608  0.3558
 2955poe     o213856   1.260   5.243   3.828 -0.1604  0.4037  0.5185
 2955poe    c2313857   1.146   5.287   3.898 -0.6681  0.3281 -0.2569
 2955poe    c2313858   1.168   5.313   4.048 -0.5284 -0.2191 -0.1816
 2955poe     o213859   1.246   5.211   4.106 -0.6338 -0.1450  0.0899
 2955poe    c3113860   1.275   5.253   4.237  0.7227 -0.6012 -0.0528
 2956poe    c3113861   0.504   2.512   3.449 -0.2298 -0.3132 -0.1973
 2956poe     o213862   0.469   2.376   3.459  0.3887 -0.4321  0.4485
 2956poe    c2313863   0.415   2.320   3.341  0.3305 -0.2207  0.3747
 2956poe    c2313864   0.398   2.167   3.345 -0.3834 -0.1327  0.9544
 2956poe     o213865   0.519   2.116   3.397  0.5562 -0.0632 -1.0827
 2956poe    c2313866   0.501   1.976   3.402  0.2226  0.0037 -0.2745
 2956poe    c2313867   0.610   1.920   3.496  0.3718  0.2773 -0.2841
 2956poe     o213868   0.633   1.999   3.611 -0.0062 -0.0405  0.0118
 2956poe    c2313869   0.721   1.929   3.696  0.0558 -0.0400 -0.0514
 2956poe    c2313870   0.730   2.000   3.832  0.2582  0.0083 -0.0901
 2956poe     o213871   0.746   2.139   3.819  0.0017  0.0825  0.3335
 2956poe    c3113872   0.740   2.213   3.939  0.4979 -0.0805  0.4622
 2957poe    c3113873   5.780   6.321   4.433 -0.0755  0.2825  0.2949
 2957poe     o213874   5.902   6.300   4.365 -0.2646 -0.1395  0.0760
 2957poe    c2313875   5.903   6.184   4.286  0.2561  0.2777 -0.5394
 2957poe    c2313876   6.025   6.171   4.192  0.5542  0.1955 -0.1417
 2957poe     o213877   6.011   6.245   4.073 -0.1478 -0.3728 -0.4156
 2957poe    c2313878   6.104   6.241   3.968  0.4547  0.1500  0.0959
 2957poe    c2313879   6.068   6.302   3.831 -0.1437  0.1839  0.2696
 2957poe     o213880   6.055   6.442   3.846  0.3173  0.2350  0.1978
 2957poe    c2313881   6.128   6.516   3.750 -0.4628  0.5694 -0.1526
 2957poe    c2313882   6.136   6.668   3.769 -0.1664  0.5898 -0.4398
 2957poe     o213883   6.197   6.723   3.884  1.0895 -0.4937 -0.5620
 2957poe    c3113884   6.233   6.856   3.855 -0.5613 -0.0623 -0.7432
 2958poe    c3113885   0.513   5.257   5.993  0.3328  0.5993 -0.1087
 2958poe     o213886   0.510   5.355   6.095  0.3022 -0.1447  0.6197
 2958poe    c2313887   0.585   5.325   6.210  0.7655 -0.6189  0.2018
 2958poe    c2313888   0.506   5.256   6.323 -0.0245 -0.2048 -0.0882
 2958poe     o213889   0.413   5.333   6.395 -0.2401 -0.7090  0.1797
 2958poe    c2313890   0.309   5.258   6.452 -0.1037 -0.7431  0.3857
 2958poe    c2313891   0.275   5.273   6.602  0.3755 -0.3185  0.4516
 2958poe     o213892   0.293   5.411   6.629  0.2981 -0.2234  0.0297
 2958poe    c2313893   0.379   5.419   6.740  0.1995 -0.1146  0.0977
 2958poe    c2313894   0.386   5.566   6.785 -0.1404  0.0282 -0.3080
 2958poe     o213895   0.445   5.658   6.695  0.3075  0.1723  0.1233
 2958poe    c3113896   0.401   5.787   6.733 -0.2513 -0.2143  0.8285
 2959poe    c3113897   3.885   5.919   2.278  0.5941 -0.2162 -0.1520
 2959poe     o213898   3.873   5.931   2.138 -0.1904  0.0838 -0.0669
 2959poe    c2313899   3.995   5.892   2.081  0.1186  0.6718  0.1752
 2959poe    c2313900   4.021   5.946   1.939  0.8393  0.3854  0.1903
 2959poe     o213901   3.910   5.908   1.861  0.9847  0.0076  0.1667
 2959poe    c2313902   3.912   5.966   1.733 -0.1178 -0.4741 -0.0833
 2959poe    c2313903   3.778   5.996   1.664  0.3121  0.5886 -0.4777
 2959poe     o213904   3.698   6.094   1.725 -0.5638 -0.3536 -0.0820
 2959poe    c2313905   3.565   6.083   1.678 -0.9046  0.5769  0.6221
 2959poe    c2313906   3.540   6.183   1.563 -0.4074 -0.3453 -0.3038
 2959poe     o213907   3.591   6.140   1.439  0.1803 -0.1514 -0.1293
 2959poe    c3113908   3.556   6.244   1.350  0.2844  0.1318  0.1575
 2960poe    c3113909   0.798   2.926   1.684  0.4584 -0.6127  0.4755
 2960poe     o213910   0.877   3.032   1.733 -0.5895  0.6471 -0.4607
 2960poe    c2313911   0.914   2.990   1.862 -0.1246  0.9299 -0.4983
 2960poe    c2313912   0.994   3.096   1.939  0.4938 -0.1320  0.3524
 2960poe     o213913   0.911   3.210   1.944  0.0910 -0.4197  0.2378
 2960poe    c2313914   0.913   3.268   2.072 -0.0749  0.1550 -0.0164
 2960poe    c2313915   0.826   3.202   2.181  0.0788  0.4121  0.2668
 2960poe     o213916   0.868   3.227   2.313  0.0642  0.6062  0.2356
 2960poe    c2313917   0.815   3.142   2.412  0.3526  0.1520  0.0042
 2960poe    c2313918   0.666   3.114   2.441  0.3586 -0.0710 -0.1826
 2960poe     o213919   0.598   3.226   2.492 -0.1232 -0.4992  0.1164
 2960poe    c3113920   0.524   3.180   2.603  0.6341  0.6632  1.1200
 2961poe    c3113921   4.017   3.771   2.116  0.5690 -0.2721  0.0615
 2961poe     o213922   3.993   3.667   2.025  0.0917 -0.2856  0.1971
 2961poe    c2313923   3.867   3.666   1.962  0.3746  0.3777 -0.3893
 2961poe    c2313924   3.852   3.541   1.873  0.0761  0.4773 -0.4810
 2961poe     o213925   3.794   3.429   1.935  0.8083  0.3703  0.0170
 2961poe    c2313926   3.790   3.310   1.859 -0.0713  0.1544  0.3932
 2961poe    c2313927   3.719   3.209   1.952  0.1707 -0.0995  0.3028
 2961poe     o213928   3.795   3.111   2.018  0.4368  0.3003  0.5951
 2961poe    c2313929   3.776   3.123   2.157 -0.3264  0.5737  0.4733
 2961poe    c2313930   3.852   3.018   2.241  0.0677  0.4241 -0.0626
 2961poe     o213931   3.821   2.888   2.198  0.3479  0.2512  0.2480
 2961poe    c3113932   3.878   2.782   2.271 -0.3918 -0.1316  0.2847
 2962poe    c3113933   5.129   2.186   4.043  0.0552  0.7730  0.6309
 2962poe     o213934   5.211   2.197   3.928  0.2715  0.6925  0.7775
 2962poe    c2313935   5.301   2.306   3.933  0.6160  0.4083  0.7640
 2962poe    c2313936   5.407   2.295   3.823  0.2282 -0.0843  0.4338
 2962poe     o213937   5.471   2.169   3.818  0.0789 -0.1286 -0.6459
 2962poe    c2313938   5.601   2.177   3.763  0.4627  0.4667  0.3182
 2962poe    c2313939   5.680   2.045   3.775  0.0158  0.1835  0.1656
 2962poe     o213940   5.669   1.993   3.906  0.0465 -0.4275 -0.0708
 2962poe    c2313941   5.733   1.868   3.917  0.2779 -0.2817  0.2458
 2962poe    c2313942   5.725   1.807   4.058 -0.3270  0.1678  0.4133
 2962poe     o213943   5.606   1.736   4.084 -0.4464 -0.0776 -0.7651
 2962poe    c3113944   5.600   1.726   4.224  0.2119  0.4597 -0.6943
 2963poe    c3113945   7.040   6.613   5.031  0.0290  0.6174 -0.4528
 2963poe     o213946   7.153   6.695   5.017  0.4852  0.0782  0.0550
 2963poe    c2313947   7.211   6.634   4.904 -0.3735  0.9902 -0.8883
 2963poe    c2313948   7.363   6.657   4.897 -0.0700 -0.5301  0.2634
 2963poe     o213949   7.381   6.795   4.873 -0.6172 -0.5640 -0.3560
 2963poe    c2313950   7.500   6.802   4.798  0.0202 -0.0031  0.6813
 2963poe    c2313951   7.568   6.939   4.813  0.5293 -0.0379 -1.0710
 2963poe     o213952   7.641   6.960   4.932 -0.6647  0.2198 -0.3649
 2963poe    c2313953   7.774   6.924   4.903 -0.5656 -0.0463  0.4073
 2963poe    c2313954   7.864   6.902   5.027 -0.3438 -0.7278  0.1323
 2963poe     o213955   7.795   6.818   5.116 -0.5279 -0.7585 -0.0371
 2963poe    c3113956   7.872   6.788   5.230 -0.0219 -0.3410 -0.2668
 2964poe    c3113957   7.305   0.742   1.280  0.5662  0.1544  0.3145
 2964poe     o213958   7.289   0.623   1.353 -0.1860 -0.2478 -0.4855
 2964poe    c2313959   7.256   0.658   1.486  0.3026  0.2018 -0.4768
 2964poe    c2313960   7.324   0.558   1.582  0.5255  0.4014 -0.4277
 2964poe     o213961   7.447   0.596   1.638  0.3046  0.1234  0.2587
 2964poe    c2313962   7.502   0.482   1.700 -0.4922 -0.2036  0.3621
 2964poe    c2313963   7.654   0.502   1.704 -0.4736 -0.2690 -0.0100
 2964poe     o213964   7.702   0.475   1.574 -0.1648 -0.1733  0.0815
 2964poe    c2313965   7.840   0.466   1.599 -0.0404  0.1315 -0.4759
 2964poe    c2313966   7.923   0.479   1.470 -0.1785  0.6820 -0.5072
 2964poe     o213967   7.867   0.389   1.377  0.1343  0.3176 -0.3450
 2964poe    c3113968   7.976   0.367   1.291  0.1665  0.3915 -0.3232
 2965poe    c3113969   0.321   4.811   4.389 -0.3503  0.2935  0.1099
 2965poe     o213970   0.275   4.840   4.259  0.1594 -0.5638 -0.2709
 2965poe    c2313971   0.314   4.964   4.204  0.1313 -0.5449 -0.2482
 2965poe    c2313972   0.206   5.023   4.112  0.1460 -0.1363 -0.0083
 2965poe     o213973   0.083   5.006   4.178 -0.0246  0.2780 -0.2164
 2965poe    c2313974  -0.025   5.081   4.126  0.0555  0.1574 -0.5532
 2965poe    c2313975  -0.152   5.064   4.210  0.2817  0.1934 -0.2009
 2965poe     o213976  -0.190   4.928   4.218  0.2096  0.2341  0.1684
 2965poe    c2313977  -0.306   4.898   4.292  0.1881  0.3486  0.1828
 2965poe    c2313978  -0.354   4.751   4.293  0.5243  0.2376  0.1730
 2965poe     o213979  -0.291   4.667   4.387  0.5315 -0.1719 -0.1997
 2965poe    c3113980  -0.341   4.681   4.518 -0.0137 -0.5136 -0.3693
 2966poe    c3113981   3.484   1.055   5.145 -0.2332  0.2646 -0.4475
 2966poe     o213982   3.357   1.115   5.165 -0.0140  0.4640  0.4001
 2966poe    c2313983   3.273   1.002   5.155 -0.0144  0.4826  0.1658
 2966poe    c2313984   3.125   1.029   5.186 -0.2190 -0.7275  0.2872
 2966poe     o213985   3.084   1.079   5.311  0.3870  0.5836 -0.0242
 2966poe    c2313986   2.944   1.092   5.328  0.2831  0.0977 -0.5065
 2966poe    c2313987   2.881   1.209   5.250 -0.1675  0.3096  0.1770
 2966poe     o213988   2.939   1.331   5.289  0.2046  0.3060 -0.3708
 2966poe    c2313989   2.891   1.441   5.214  0.2015  0.3164 -0.3530
 2966poe    c2313990   2.930   1.570   5.290 -0.5645  0.3966 -0.0923
 2966poe     o213991   2.879   1.580   5.421  0.5005  0.8894  0.2955
 2966poe    c3113992   2.895   1.712   5.468  0.3518  0.9537  0.1683
 2967poe    c3113993   5.901   6.217   2.437 -0.3930  0.2861  0.2708
 2967poe     o213994   5.825   6.146   2.342  0.0883  0.0279  0.0778
 2967poe    c2313995   5.762   6.233   2.251  0.1281  0.0080  0.0311
 2967poe    c2313996   5.614   6.191   2.244  0.1485 -0.2448  0.9568
 2967poe     o213997   5.612   6.060   2.192 -0.3444  0.1112  0.0535
 2967poe    c2313998   5.492   6.015   2.134  0.0010 -0.2661 -0.3718
 2967poe    c2313999   5.480   5.861   2.125  0.4178 -0.3274  0.1305
 2967poe     o214000   5.487   5.805   2.254 -0.1198  0.1817  0.3879
 2967poe    c2314001   5.437   5.673   2.245 -0.1453  0.2201 -0.0262
 2967poe    c2314002   5.483   5.586   2.362 -0.2697  0.3641  0.1300
 2967poe     o214003   5.457   5.663   2.478 -0.1323  0.2747  0.2218
 2967poe    c3114004   5.438   5.570   2.583 -0.4354  0.5807  0.4390
 2968poe    c3114005   3.694   3.162   5.925 -0.6312  0.2722  0.2354
 2968poe     o214006   3.813   3.161   5.848 -0.6822  0.5705  0.1546
 2968poe    c2314007   3.900   3.245   5.921 -0.0738 -0.0141  0.1069
 2968poe    c2314008   4.007   3.314   5.835 -0.0450  0.2154  0.3277
 2968poe     o214009   3.957   3.419   5.756 -0.2573 -0.1734 -0.0561
 2968poe    c2314010   4.053   3.513   5.712 -0.0461 -0.2163  0.3116
 2968poe    c2314011   3.999   3.595   5.593 -0.2870 -0.6699  0.1060
 2968poe     o214012   3.973   3.509   5.485 -0.0645  0.1819 -0.6380
 2968poe    c2314013   3.915   3.573   5.374 -0.8616  0.2083 -0.2160
 2968poe    c2314014   3.953   3.525   5.232 -0.0067 -0.1883  0.1400
 2968poe     o214015   3.920   3.389   5.212  0.5344 -0.2855 -0.1168
 2968poe    c3114016   3.913   3.344   5.079 -0.0980 -0.1210 -0.1413
 2969poe    c3114017   2.077   0.605   1.336  0.3230 -0.1183 -0.2592
 2969poe     o214018   2.192   0.623   1.416  0.1228 -0.3040  0.0736
 2969poe    c2314019   2.292   0.546   1.351  0.1187 -0.5834  0.3957
 2969poe    c2314020   2.411   0.521   1.446  0.6926 -0.3904 -0.2714
 2969poe     o214021   2.472   0.627   1.516  0.5753 -0.2358 -0.4022
 2969poe    c2314022   2.577   0.567   1.588  0.5723  0.2006 -0.0306
 2969poe    c2314023   2.655   0.659   1.684  0.2762 -0.2514  0.6592
 2969poe     o214024   2.568   0.705   1.785  0.4596  0.5491  0.4615
 2969poe    c2314025   2.647   0.790   1.867  0.3400  1.1222 -0.0119
 2969poe    c2314026   2.613   0.773   2.016 -0.0130  0.7748 -0.1267
 2969poe     o214027   2.506   0.853   2.062 -0.3650  0.0843  0.2679
 2969poe    c3114028   2.547   0.929   2.173 -0.0642  0.0541  0.1807
 2970poe    c3114029   3.885   2.705   4.463 -0.2862  0.5763 -0.2763
 2970poe     o214030   3.987   2.630   4.401 -0.7980 -0.6103  0.2860
 2970poe    c2314031   3.931   2.575   4.283 -0.7404 -0.8666  0.3788
 2970poe    c2314032   4.021   2.465   4.225  0.4826  0.1873  0.2402
 2970poe     o214033   4.026   2.367   4.327 -0.0851  0.0556  0.1428
 2970poe    c2314034   3.938   2.261   4.296  0.1218 -0.1414  0.2353
 2970poe    c2314035   3.879   2.195   4.422 -0.5400 -0.3384 -0.1724
 2970poe     o214036   3.784   2.270   4.495 -0.3922  0.1710 -0.4977
 2970poe    c2314037   3.658   2.280   4.433 -0.4401  0.0368 -0.4227
 2970poe    c2314038   3.575   2.384   4.511 -0.0286 -0.3809  0.5892
 2970poe     o214039   3.524   2.330   4.630 -0.2703 -0.3427  0.5027
 2970poe    c3114040   3.449   2.435   4.687 -0.3123  0.2320 -0.6040
 2971poe    c3114041   4.546   0.792   4.071  0.2073  0.1667  0.1918
 2971poe     o214042   4.460   0.885   4.133  0.0254  0.0726  0.0824
 2971poe    c2314043   4.355   0.917   4.045  0.2888 -0.1816 -0.3271
 2971poe    c2314044   4.295   1.040   4.114  0.6100 -0.2446  0.0668
 2971poe     o214045   4.395   1.136   4.139 -0.1038  0.7095 -0.6431
 2971poe    c2314046   4.343   1.233   4.226 -0.1471 -0.4208  0.6202
 2971poe    c2314047   4.449   1.344   4.236 -0.2306 -0.2281 -0.4893
 2971poe     o214048   4.566   1.288   4.292  0.0247  0.2739 -0.5092
 2971poe    c2314049   4.676   1.375   4.279 -0.1213  0.5223 -0.0928
 2971poe    c2314050   4.811   1.319   4.329 -0.0977  0.2413 -0.4661
 2971poe     o214051   4.853   1.206   4.257 -0.0432 -0.0164 -0.0344
 2971poe    c3114052   4.973   1.149   4.303 -0.3276 -0.8457 -0.2809
 2972poe    c3114053   4.450   0.343   7.169  0.0098 -0.4874 -0.3215
 2972poe     o214054   4.407   0.301   7.296 -0.0644 -0.1179 -0.2249
 2972poe    c2314055   4.514   0.297   7.388 -0.1993  0.2047 -0.0504
 2972poe    c2314056   4.477   0.312   7.537 -0.4792 -0.1938 -0.0773
 2972poe     o214057   4.473   0.443   7.587  0.0212 -0.3247  0.3165
 2972poe    c2314058   4.457   0.442   7.727  0.2511 -0.1747  0.3462
 2972poe    c2314059   4.515   0.564   7.801 -0.6677  0.2295  0.4247
 2972poe     o214060   4.430   0.676   7.807 -0.7962  0.1811 -0.3012
 2972poe    c2314061   4.439   0.742   7.932  0.2907 -1.1122  0.3347
 2972poe    c2314062   4.562   0.831   7.956 -0.0862 -0.4343 -0.2241
 2972poe     o214063   4.556   0.961   7.901 -0.0812 -0.1969  0.3276
 2972poe    c3114064   4.497   1.054   7.988  0.2952  0.2072  0.1550
 2973poe    c3114065   1.365   2.918   2.926 -0.3241 -0.4417  0.1820
 2973poe     o214066   1.309   2.985   2.816 -0.3317 -0.5601  0.1135
 2973poe    c2314067   1.401   3.083   2.770 -0.7545  0.0219  0.4946
 2973poe    c2314068   1.333   3.156   2.653 -0.1189 -0.0448  0.0792
 2973poe     o214069   1.239   3.257   2.682  0.4930  0.6495 -0.3217
 2973poe    c2314070   1.158   3.276   2.568 -0.1992  0.2533  0.0933
 2973poe    c2314071   1.066   3.398   2.585 -0.2201  0.2543 -0.0282
 2973poe     o214072   0.983   3.363   2.693 -0.7298 -0.4896 -0.6462
 2973poe    c2314073   0.889   3.468   2.694 -0.2544 -0.0586 -0.0995
 2973poe    c2314074   0.846   3.494   2.840  0.2720 -0.3651  0.1105
 2973poe     o214075   0.947   3.532   2.931  0.1739 -0.1756  0.1385
 2973poe    c3114076   0.896   3.599   3.044  0.0138  0.4354 -0.2871
 2974poe    c3114077   3.575   4.943   3.427 -0.4260 -0.1323  0.4896
 2974poe     o214078   3.470   4.850   3.424 -0.4158 -0.1426  0.4557
 2974poe    c2314079   3.344   4.913   3.432 -0.2472  0.2737 -0.1968
 2974poe    c2314080   3.238   4.895   3.322  0.1078 -0.5057 -0.4171
 2974poe     o214081   3.189   4.765   3.300 -0.1636 -0.4531 -0.1255
 2974poe    c2314082   3.050   4.758   3.276 -0.3087  0.0031  0.5400
 2974poe    c2314083   3.030   4.626   3.199  0.5661  0.3197 -0.2504
 2974poe     o214084   3.061   4.517   3.282  0.2075  0.2449 -0.2135
 2974poe    c2314085   3.059   4.408   3.192 -0.3100  0.2508 -0.2136
 2974poe    c2314086   3.099   4.290   3.282 -0.3677  0.4719  0.1048
 2974poe     o214087   3.186   4.341   3.381  0.0609 -0.0563  0.0056
 2974poe    c3114088   3.232   4.240   3.467 -0.2562  0.1224  0.3878
 2975poe    c3114089   5.857   0.729   7.102  0.4129 -0.1262 -0.0718
 2975poe     o214090   5.915   0.767   7.225  0.0257  0.1111  0.0391
 2975poe    c2314091   5.884   0.674   7.326  0.3308 -0.0751 -0.0369
 2975poe    c2314092   5.935   0.712   7.466 -0.0912  0.5031 -0.0373
 2975poe     o214093   5.853   0.797   7.543 -0.0285  0.4905  0.0424
 2975poe    c2314094   5.783   0.724   7.641  0.3717  1.0789  0.7784
 2975poe    c2314095   5.659   0.803   7.688 -0.4481 -0.0136  0.4640
 2975poe     o214096   5.702   0.913   7.764 -0.1612  0.2396 -0.0566
 2975poe    c2314097   5.586   0.949   7.836  0.0238  0.0873  0.3175
 2975poe    c2314098   5.594   1.099   7.873 -0.4461  0.1862  0.0256
 2975poe     o214099   5.717   1.123   7.937 -0.4467 -0.5310  0.3040
 2975poe    c3114100   5.724   1.262   7.917  0.1565 -0.6299 -0.1961
 2976poe    c3114101   2.032   3.413   4.856  0.0876 -0.4220  0.8861
 2976poe     o214102   2.149   3.487   4.827 -0.4468 -0.0920 -0.4954
 2976poe    c2314103   2.126   3.584   4.727  0.0493  0.1340 -0.3922
 2976poe    c2314104   2.229   3.698   4.737 -0.0089  0.1492  0.0587
 2976poe     o214105   2.347   3.624   4.717 -0.1499 -0.0176 -0.1605
 2976poe    c2314106   2.441   3.705   4.650 -0.3100  0.2292 -0.0873
 2976poe    c2314107   2.575   3.644   4.604 -0.2974 -0.0183  0.2691
 2976poe     o214108   2.629   3.576   4.715  0.3226 -0.0984 -0.0801
 2976poe    c2314109   2.724   3.481   4.674  0.1084 -0.5077  0.3711
 2976poe    c2314110   2.863   3.522   4.727  0.0502 -0.6441  0.6292
 2976poe     o214111   2.906   3.649   4.685 -0.3831 -0.6391  0.1934
 2976poe    c3114112   3.040   3.653   4.728 -0.5294  0.5059  0.5895
 2977poe    c3114113   3.670   5.954   6.572 -0.2362 -0.6153  0.0424
 2977poe     o214114   3.674   5.892   6.698 -0.1513  0.3404  0.5207
 2977poe    c2314115   3.785   5.814   6.736 -0.5703 -0.5408 -0.0238
 2977poe    c2314116   3.789   5.791   6.889 -0.7332  0.0403  0.0716
 2977poe     o214117   3.686   5.704   6.931 -0.5616 -0.2269 -0.0545
 2977poe    c2314118   3.691   5.714   7.072 -0.6712  1.0200 -0.1256
 2977poe    c2314119   3.572   5.643   7.140 -0.1377  0.3647  0.1397
 2977poe     o214120   3.447   5.695   7.101 -0.3913 -0.2237  0.1643
 2977poe    c2314121   3.348   5.615   7.162 -0.1524 -0.4039  0.3168
 2977poe    c2314122   3.206   5.672   7.178  0.0388 -0.1291  1.0870
 2977poe     o214123   3.191   5.770   7.279  0.6295  0.4307  0.6417
 2977poe    c3114124   3.164   5.895   7.220  0.5039 -0.0539 -0.3528
 2978poe    c3114125   7.102   3.360   2.034 -0.7233  0.5695 -0.0434
 2978poe     o214126   7.007   3.382   2.136 -0.1128 -0.3941  0.7578
 2978poe    c2314127   7.056   3.447   2.251  0.8182  0.2367  0.0235
 2978poe    c2314128   7.067   3.600   2.238 -0.5289  0.3417 -0.0142
 2978poe     o214129   7.179   3.629   2.158 -0.3589 -0.3107 -0.0182
 2978poe    c2314130   7.193   3.764   2.121 -0.1199 -0.2321  0.3430
 2978poe    c2314131   7.315   3.786   2.029 -0.1516  0.1332  0.3864
 2978poe     o214132   7.320   3.916   1.975  0.0269 -0.2052 -0.4262
 2978poe    c2314133   7.258   3.933   1.850  0.3400  0.0360 -0.5502
 2978poe    c2314134   7.358   3.963   1.736  0.6136  0.0901 -0.2956
 2978poe     o214135   7.411   4.093   1.731  0.0480  0.3311 -0.0444
 2978poe    c3114136   7.481   4.109   1.610 -0.0488 -0.3464 -0.1927
 2979poe    c3114137   5.879   3.477   4.807  0.4627  0.4084  0.1107
 2979poe     o214138   5.862   3.552   4.925 -0.0840  0.0369  0.2709
 2979poe    c2314139   5.768   3.657   4.910  0.0017  0.0614 -0.0954
 2979poe    c2314140   5.735   3.748   5.029  0.1135 -0.1625  0.1094
 2979poe     o214141   5.629   3.687   5.099  0.4419 -0.4633  0.3417
 2979poe    c2314142   5.585   3.755   5.215 -0.0294 -0.3156  0.0779
 2979poe    c2314143   5.507   3.651   5.298 -0.1324 -0.2880  0.0165
 2979poe     o214144   5.596   3.549   5.337  0.4815  0.3216  0.2333
 2979poe    c2314145   5.577   3.494   5.466 -0.4904 -0.0268 -0.0489
 2979poe    c2314146   5.569   3.341   5.451  0.4645 -0.1469  0.5604
 2979poe     o214147   5.685   3.279   5.399  0.0629  0.0576 -0.6188
 2979poe    c3114148   5.681   3.139   5.411 -0.4445  0.1716  0.6804
 2980poe    c3114149   3.081   0.953   0.350  0.1983 -0.1459 -0.6656
 2980poe     o214150   3.118   1.004   0.476 -0.6490 -0.0079 -0.4615
 2980poe    c2314151   3.007   1.008   0.562 -0.3694 -0.2992 -0.0820
 2980poe    c2314152   3.052   0.959   0.701  0.1108 -0.0475 -0.1472
 2980poe     o214153   3.137   1.060   0.750 -0.9152  0.6692  0.1962
 2980poe    c2314154   3.182   1.033   0.881 -0.4525 -0.1470 -0.1223
 2980poe    c2314155   3.263   1.156   0.928 -0.2062 -0.4567  0.2729
 2980poe     o214156   3.354   1.189   0.825 -0.0257 -0.1039  0.5417
 2980poe    c2314157   3.399   1.321   0.846  0.4683 -0.2863  0.6490
 2980poe    c2314158   3.515   1.374   0.761  0.1708 -0.5149  0.0964
 2980poe     o214159   3.484   1.357   0.624 -0.4973 -0.3286  0.2196
 2980poe    c3114160   3.596   1.388   0.544 -0.7274 -0.2288 -0.0677
 2981poe    c3114161   3.700   4.862   7.354 -0.2526  0.8355 -0.0665
 2981poe     o214162   3.824   4.925   7.378  0.3668 -0.2375 -0.3724
 2981poe    c2314163   3.871   4.909   7.510  0.1241  0.4802 -0.1952
 2981poe    c2314164   4.007   4.966   7.552  0.2189  0.6006 -0.6623
 2981poe     o214165   4.113   4.893   7.494  0.1043  0.0034 -0.1294
 2981poe    c2314166   4.238   4.953   7.520 -0.0484  0.1413  0.2989
 2981poe    c2314167   4.324   5.004   7.403 -0.3820  0.3500  0.1428
 2981poe     o214168   4.265   5.087   7.304  0.0910  0.2368 -0.2392
 2981poe    c2314169   4.215   5.213   7.343  0.7376  0.3308  0.3274
 2981poe    c2314170   4.222   5.285   7.207  0.2459 -0.0339  0.1036
 2981poe     o214171   4.195   5.202   7.096 -0.0515  0.2473 -0.0367
 2981poe    c3114172   4.240   5.270   6.981 -0.5342 -0.5510 -0.7087
 2982poe    c3114173   6.796   2.572   6.580  0.3113 -0.2428 -0.2546
 2982poe     o214174   6.896   2.474   6.597  0.7522  0.3051  0.3777
 2982poe    c2314175   6.988   2.456   6.491  0.5075 -0.1061  0.2314
 2982poe    c2314176   7.105   2.555   6.473  0.6937 -0.4273 -0.3227
 2982poe     o214177   7.201   2.556   6.576  0.4743 -0.3739 -0.1185
 2982poe    c2314178   7.296   2.452   6.573  0.6270 -0.2384  0.0687
 2982poe    c2314179   7.415   2.460   6.475  0.5316 -0.1075 -0.0362
 2982poe     o214180   7.365   2.477   6.344  0.3162 -0.7455 -0.0390
 2982poe    c2314181   7.475   2.528   6.271 -0.0708 -0.0295 -0.1344
 2982poe    c2314182   7.410   2.593   6.148  0.0456 -0.1270 -0.2478
 2982poe     o214183   7.361   2.721   6.182 -0.4184 -0.2739 -0.3570
 2982poe    c3114184   7.264   2.769   6.092 -0.4314  0.4900  0.0577
 2983poe    c3114185   4.236   3.489   0.387  0.1992  0.2142  0.2616
 2983poe     o214186   4.353   3.461   0.461  0.1941 -0.4685  0.0119
 2983poe    c2314187   4.339   3.425   0.597 -0.2109  0.3470  0.1928
 2983poe    c2314188   4.254   3.307   0.646  1.0330 -0.2766  0.9191
 2983poe     o214189   4.290   3.194   0.570  0.1588  0.3192 -0.4341
 2983poe    c2314190   4.211   3.083   0.606  0.1399  0.4459 -0.0798
 2983poe    c2314191   4.266   2.940   0.591 -0.0081  0.3229  0.5443
 2983poe     o214192   4.259   2.899   0.456  0.1518 -0.6778  0.8273
 2983poe    c2314193   4.358   2.808   0.415 -0.2215 -0.6087 -0.2525
 2983poe    c2314194   4.305   2.743   0.286 -0.5089 -0.2876 -0.2957
 2983poe     o214195   4.301   2.822   0.169  0.4411  0.3274  0.0769
 2983poe    c3114196   4.302   2.735   0.058  1.3829  0.7425 -0.2446
 2984poe    c3114197   4.328   6.577   4.452 -0.5972 -0.5718  0.3313
 2984poe     o214198   4.401   6.683   4.395 -0.3367 -0.6535  0.5097
 2984poe    c2314199   4.532   6.708   4.441 -0.3345  1.3870 -0.4875
 2984poe    c2314200   4.629   6.733   4.323  0.0317 -0.3175 -0.5755
 2984poe     o214201   4.674   6.628   4.240  0.2670 -0.4168 -0.3232
 2984poe    c2314202   4.743   6.679   4.128  0.0092  0.6866  0.0117
 2984poe    c2314203   4.657   6.711   4.004  0.2293  0.3094 -0.2363
 2984poe     o214204   4.608   6.591   3.949  0.1214  0.3292 -0.1839
 2984poe    c2314205   4.514   6.624   3.849  0.0481  0.3375 -0.1118
 2984poe    c2314206   4.431   6.501   3.808  0.3519 -0.0196  0.3316
 2984poe     o214207   4.338   6.447   3.899 -0.2585 -0.3645 -0.4889
 2984poe    c3114208   4.297   6.318   3.857  0.0450 -0.5309 -0.2808
 2985poe    c3114209   6.815   5.425   2.486 -0.0154  0.4958  0.3116
 2985poe     o214210   6.691   5.382   2.538  0.0587  0.0643  0.1371
 2985poe    c2314211   6.707   5.266   2.616 -0.3149 -0.0745  0.0077
 2985poe    c2314212   6.640   5.143   2.551 -0.3993  0.0751 -0.1880
 2985poe     o214213   6.718   5.097   2.444 -0.2748  0.1832 -0.1443
 2985poe    c2314214   6.646   5.058   2.330 -0.6131  0.1240  0.0898
 2985poe    c2314215   6.634   5.175   2.230  0.0840  0.1954  0.0909
 2985poe     o214216   6.578   5.296   2.277  0.3762  0.3117  0.1439
 2985poe    c2314217   6.603   5.401   2.186  0.1262 -0.1273 -0.4388
 2985poe    c2314218   6.505   5.517   2.215  0.7204  0.2179  0.2164
 2985poe     o214219   6.533   5.575   2.340  0.3355  0.3441  0.2432
 2985poe    c3114220   6.476   5.704   2.335  0.6521  0.4464 -0.7637
 2986poe    c3114221   4.915   2.757   5.291  0.1420 -0.1976 -0.1266
 2986poe     o214222   4.879   2.763   5.427 -0.0747  0.6940 -0.2206
 2986poe    c2314223   5.003   2.788   5.489  0.0084  0.0065 -0.1119
 2986poe    c2314224   5.020   2.782   5.642  0.3350  0.2758 -0.1369
 2986poe     o214225   4.955   2.894   5.699 -0.2918 -0.2589  0.2068
 2986poe    c2314226   5.045   2.954   5.790 -0.0011  1.0416 -0.9125
 2986poe    c2314227   4.983   3.078   5.857 -0.0602  0.0812  0.8766
 2986poe     o214228   4.844   3.060   5.866 -0.1566 -0.2165 -0.8590
 2986poe    c2314229   4.786   3.137   5.969  0.3770 -0.8173 -0.1010
 2986poe    c2314230   4.774   3.068   6.107 -0.0030  0.5068  0.5381
 2986poe     o214231   4.721   2.942   6.074  0.2263  0.5199  0.1132
 2986poe    c3114232   4.730   2.886   6.203  0.1103  0.5521  0.1350
 2987poe    c3114233   2.123   6.786   6.864  0.1956 -0.5202  0.1746
 2987poe     o214234   2.220   6.813   6.963  0.5466  0.0229 -0.3073
 2987poe    c2314235   2.232   6.700   7.047 -0.2238  0.6152  0.6199
 2987poe    c2314236   2.138   6.703   7.169 -0.4867 -0.3333  0.4495
 2987poe     o214237   2.157   6.803   7.267 -0.0573 -0.0208  0.0504
 2987poe    c2314238   2.108   6.778   7.396  0.5032 -0.1546  0.2400
 2987poe    c2314239   2.154   6.883   7.499 -0.2493 -0.2027  0.6390
 2987poe     o214240   2.095   7.005   7.459  0.2713 -0.0917  0.1832
 2987poe    c2314241   2.179   7.108   7.505 -0.2781  0.2851  0.3507
 2987poe    c2314242   2.127   7.253   7.495 -0.1789  0.3118  0.2221
 2987poe     o214243   2.030   7.307   7.581 -0.0796  0.0372  0.5075
 2987poe    c3114244   2.072   7.388   7.689  0.2833  0.2491  0.2082
 2988poe    c3114245   2.343   6.540   2.520  0.1713 -0.5167 -0.0695
 2988poe     o214246   2.267   6.437   2.579 -0.3777 -0.4100 -0.5814
 2988poe    c2314247   2.365   6.341   2.608 -0.2041 -0.2025 -0.4796
 2988poe    c2314248   2.301   6.227   2.690 -0.0849 -0.2080 -0.3943
 2988poe     o214249   2.209   6.133   2.639  0.4567 -0.7186 -0.4397
 2988poe    c2314250   2.091   6.190   2.588  0.3031 -0.2716  0.3875
 2988poe    c2314251   2.027   6.085   2.495  0.2189 -0.0233  0.1629
 2988poe     o214252   1.977   5.984   2.580 -0.0427 -0.0497 -0.0197
 2988poe    c2314253   1.920   5.869   2.523  0.5100 -0.2239 -0.2326
 2988poe    c2314254   1.884   5.767   2.633 -0.5192  0.3529 -0.0146
 2988poe     o214255   1.981   5.774   2.735 -0.0912  0.2965 -0.4147
 2988poe    c3114256   1.936   5.711   2.853  0.7750  0.7101  0.1506
 2989poe    c3114257   6.853   2.596   1.268  0.5018  0.1796  0.0202
 2989poe     o214258   6.739   2.586   1.351  0.6673  1.2218  0.3863
 2989poe    c2314259   6.768   2.515   1.470  0.3624  0.4664  0.0218
 2989poe    c2314260   6.639   2.464   1.536  0.1641  0.2436 -0.5374
 2989poe     o214261   6.561   2.572   1.581 -0.3753 -0.3056 -0.1341
 2989poe    c2314262   6.430   2.531   1.612 -0.4734 -0.1955 -0.4022
 2989poe    c2314263   6.338   2.654   1.606 -0.5201 -0.1998  0.2273
 2989poe     o214264   6.324   2.703   1.475  0.4640 -0.1479  0.1325
 2989poe    c2314265   6.223   2.799   1.493  0.5429 -0.0673  0.1448
 2989poe    c2314266   6.201   2.879   1.363 -0.0141 -0.3991  0.0319
 2989poe     o214267   6.323   2.918   1.303 -0.0524 -0.7721 -0.2968
 2989poe    c3114268   6.300   3.012   1.201  0.2221 -0.3004  0.0717
 2990poe    c3114269   2.486   5.687   2.107  0.8604  0.2711  0.2743
 2990poe     o214270   2.529   5.709   1.974 -0.0381  0.2095 -0.0372
 2990poe    c2314271   2.509   5.593   1.897 -0.0257  0.4965 -0.4758
 2990poe    c2314272   2.637   5.574   1.813  0.4906 -0.0007  0.4031
 2990poe     o214273   2.683   5.698   1.764 -0.0775  0.2383  0.4710
 2990poe    c2314274   2.808   5.681   1.702 -0.1926 -0.1977  0.3561
 2990poe    c2314275   2.841   5.816   1.636 -0.1874 -0.1910  0.3726
 2990poe     o214276   2.837   5.913   1.738 -0.1043  0.3701 -0.1525
 2990poe    c2314277   2.906   6.033   1.709 -0.0488  0.3877  0.0505
 2990poe    c2314278   2.995   6.062   1.831  0.0028 -0.3634  0.1975
 2990poe     o214279   2.919   6.092   1.946 -0.6857  0.4264 -0.4511
 2990poe    c3114280   3.000   6.127   2.057 -0.7050 -0.4037 -0.1725
 2991poe    c3114281   3.319   2.237   5.589  0.0111  0.0663  1.4630
 2991poe     o214282   3.282   2.102   5.606  0.1699 -0.2636 -0.5344
 2991poe    c2314283   3.245   2.045   5.482 -0.8043  0.1663 -0.4549
 2991poe    c2314284   3.204   1.897   5.471  0.1236 -0.1196 -0.1899
 2991poe     o214285   3.295   1.809   5.533 -0.2011 -0.0777  0.3621
 2991poe    c2314286   3.265   1.679   5.489  0.0352  0.1517 -0.5031
 2991poe    c2314287   3.347   1.580   5.573 -0.4217  0.2112  0.0159
 2991poe     o214288   3.309   1.444   5.587 -0.5224  0.2260 -0.1184
 2991poe    c2314289   3.383   1.378   5.687 -0.6861  0.3073  0.0571
 2991poe    c2314290   3.363   1.227   5.666 -0.2739  0.2466  0.0896
 2991poe     o214291   3.224   1.214   5.644 -0.2443  0.1849 -0.0658
 2991poe    c3114292   3.179   1.081   5.653  0.3884 -0.0774 -0.6706
 2992poe    c3114293   0.580   1.032   6.433 -0.0518  0.3718 -0.0137
 2992poe     o214294   0.661   1.029   6.548  0.3573  0.8834 -0.2859
 2992poe    c2314295   0.795   1.056   6.512  0.6196  0.2958  0.2280
 2992poe    c2314296   0.879   1.015   6.635  0.1364 -0.1958  0.4035
 2992poe     o214297   0.831   1.084   6.748 -0.3342 -0.3877  0.3227
 2992poe    c2314298   0.914   1.072   6.862  0.1767 -0.2257 -0.0260
 2992poe    c2314299   0.823   1.142   6.965  0.1611 -0.0740 -0.1412
 2992poe     o214300   0.694   1.084   6.961  0.1929 -0.1268 -0.4357
 2992poe    c2314301   0.589   1.164   7.012  0.8228  0.2378  0.3115
 2992poe    c2314302   0.551   1.274   6.912  0.4287  0.0580  0.2620
 2992poe     o214303   0.535   1.226   6.780  0.4175 -0.2792  0.3833
 2992poe    c3114304   0.489   1.338   6.707 -0.2807 -0.5042  0.4752
 2993poe    c3114305   3.384   1.755   4.944  0.4356 -0.2325  0.3116
 2993poe     o214306   3.430   1.640   4.876  0.8207  0.0167  0.1397
 2993poe    c2314307   3.418   1.513   4.938 -0.2074 -0.0656 -0.1925
 2993poe    c2314308   3.274   1.459   4.931 -0.3416  0.2836 -0.1587
 2993poe     o214309   3.216   1.466   4.803 -0.7897 -0.1191  0.0245
 2993poe    c2314310   3.213   1.346   4.729  0.4269 -0.2613  0.1943
 2993poe    c2314311   3.101   1.337   4.624  0.9562 -0.1074 -0.3875
 2993poe     o214312   3.113   1.436   4.524 -0.2526  0.2057 -0.2432
 2993poe    c2314313   3.031   1.398   4.416  0.5754  0.0282 -0.8218
 2993poe    c2314314   3.027   1.485   4.289 -0.1443  0.0236 -0.8072
 2993poe     o214315   2.978   1.616   4.307  0.6129  0.2281 -0.1893
 2993poe    c3114316   2.934   1.675   4.187 -0.6897  0.2447  0.2764
 2994poe    c3114317   5.241   3.346   1.348  0.3680 -0.2882  0.5918
 2994poe     o214318   5.284   3.293   1.225 -0.3468  0.0731  0.1815
 2994poe    c2314319   5.201   3.342   1.121  0.0034 -0.5074 -0.3782
 2994poe    c2314320   5.293   3.375   1.003  0.4667  0.1989  0.1715
 2994poe     o214321   5.293   3.255   0.929  0.1665 -0.1517  0.7336
 2994poe    c2314322   5.387   3.264   0.824  0.4140 -0.1339  0.9552
 2994poe    c2314323   5.434   3.129   0.767  0.6327  0.4606 -0.3167
 2994poe     o214324   5.468   3.054   0.881  0.3103  0.2316 -0.3694
 2994poe    c2314325   5.523   2.931   0.838 -0.7554 -0.8322  1.1863
 2994poe    c2314326   5.614   2.849   0.932 -0.0282 -1.7093 -0.2419
 2994poe     o214327   5.562   2.834   1.063  0.2069  0.1329  0.0928
 2994poe    c3114328   5.654   2.773   1.149  0.7502  0.1751 -0.4535
 2995poe    c3114329   6.184   3.668   2.898 -0.6360  0.0526  0.1432
 2995poe     o214330   6.146   3.769   2.806 -0.8671  0.1326  0.3263
 2995poe    c2314331   6.179   3.732   2.674 -0.3589  0.5019  0.3475
 2995poe    c2314332   6.313   3.779   2.613 -0.2239  0.0592  0.2979
 2995poe     o214333   6.334   3.918   2.609 -0.3612  0.0900  0.5824
 2995poe    c2314334   6.468   3.942   2.571 -0.5488  0.1544 -0.0467
 2995poe    c2314335   6.509   4.085   2.535  0.0254 -0.1711 -0.7018
 2995poe     o214336   6.497   4.169   2.648  0.2643 -0.1979 -0.6552
 2995poe    c2314337   6.617   4.212   2.709  0.0296  0.1772 -0.4555
 2995poe    c2314338   6.680   4.110   2.805 -0.5650  0.2961  0.0653
 2995poe     o214339   6.621   4.114   2.933  0.1498  0.0033  0.4075
 2995poe    c3114340   6.677   4.013   3.015  0.3742 -0.0837  0.1492
 2996poe    c3114341   0.478   7.109   5.556  0.0516 -0.3075 -0.4650
 2996poe     o214342   0.378   7.135   5.651 -0.2071 -0.1229 -0.7835
 2996poe    c2314343   0.365   7.271   5.688 -0.4707 -0.3295 -0.0961
 2996poe    c2314344   0.276   7.278   5.813 -0.1444  0.4711  0.0960
 2996poe     o214345   0.149   7.232   5.775  0.4829 -0.6171 -0.7305
 2996poe    c2314346   0.072   7.195   5.887  0.3569 -0.4246 -0.7535
 2996poe    c2314347  -0.067   7.141   5.846  0.0877  0.2966 -0.8072
 2996poe     o214348  -0.057   7.018   5.777 -0.3735  0.2017 -0.7075
 2996poe    c2314349  -0.170   6.966   5.712 -0.9102  0.0429  0.3256
 2996poe    c2314350  -0.159   6.821   5.662 -0.2926  0.1794  0.0655
 2996poe     o214351  -0.261   6.802   5.567  0.2675  0.1789 -0.5468
 2996poe    c3114352  -0.313   6.670   5.565 -0.0395  0.2946 -0.2600
 2997poe    c3114353   4.456   2.293   4.292 -0.1157  0.0454  0.2028
 2997poe     o214354   4.439   2.340   4.424  0.0399  0.0247  0.2307
 2997poe    c2314355   4.565   2.342   4.488 -0.1076  0.3276  0.5106
 2997poe    c2314356   4.582   2.446   4.600  0.1758  0.6572  0.1624
 2997poe     o214357   4.578   2.574   4.540  0.6122  0.3796 -0.4756
 2997poe    c2314358   4.552   2.677   4.633 -0.0241  0.0742 -0.3071
 2997poe    c2314359   4.548   2.808   4.551  0.6753 -0.0367 -0.5241
 2997poe     o214360   4.438   2.824   4.464 -0.1377 -0.1710  0.4574
 2997poe    c2314361   4.432   2.952   4.405  0.1979 -0.4012 -0.0819
 2997poe    c2314362   4.323   2.964   4.297  0.2273 -0.0642 -0.0754
 2997poe     o214363   4.276   2.835   4.265  0.1632  0.0044 -0.2630
 2997poe    c3114364   4.227   2.822   4.134  0.3055 -0.0923 -0.3065
 2998poe    c3114365   3.672   6.018   5.092 -0.0268  0.0881  0.0053
 2998poe     o214366   3.767   5.915   5.103  0.0137  0.1939  0.6924
 2998poe    c2314367   3.879   5.957   5.179  0.6062  0.1246 -0.1271
 2998poe    c2314368   3.994   5.857   5.162  0.5052 -0.0917  0.4259
 2998poe     o214369   4.045   5.844   5.031 -0.0742 -0.7183  0.2587
 2998poe    c2314370   4.146   5.746   5.019  0.0654 -0.5829  0.3393
 2998poe    c2314371   4.180   5.699   4.877  0.2098 -0.2764  0.2701
 2998poe     o214372   4.073   5.676   4.787  0.5037 -0.1310 -0.1215
 2998poe    c2314373   3.983   5.573   4.821  0.2659 -0.1381 -0.7704
 2998poe    c2314374   3.868   5.574   4.719  0.1246 -0.2653 -0.6131
 2998poe     o214375   3.812   5.704   4.709 -0.1177 -0.3446 -0.3049
 2998poe    c3114376   3.689   5.682   4.644  0.1847  0.0950 -1.0420
 2999poe    c3114377   2.433   2.159   0.917  0.1957 -0.2079 -0.9037
 2999poe     o214378   2.315   2.097   0.869 -0.1269 -0.4352  0.1494
 2999poe    c2314379   2.346   2.011   0.761  0.1967  0.0237 -0.1289
 2999poe    c2314380   2.211   1.946   0.727  0.2509 -0.1682  0.0243
 2999poe     o214381   2.165   1.851   0.820  0.2639 -0.5045 -0.3062
 2999poe    c2314382   2.051   1.785   0.769 -0.6251  0.6552  0.1261
 2999poe    c2314383   2.001   1.682   0.872  0.1736 -0.3111 -0.4383
 2999poe     o214384   1.994   1.747   0.997  0.3634 -0.2776 -0.4444
 2999poe    c2314385   1.916   1.680   1.093 -0.5282  0.7065 -0.4600
 2999poe    c2314386   1.934   1.730   1.237  0.3353 -0.5063 -0.1324
 2999poe     o214387   1.893   1.865   1.240  0.6513 -0.4093 -0.1038
 2999poe    c3114388   1.871   1.910   1.372  0.1817  0.3361 -0.4288
 3000poe    c3114389   7.335   3.671   3.015 -0.1477  0.2147  0.2897
 3000poe     o214390   7.347   3.530   3.005 -0.4457  0.1942  0.2094
 3000poe    c2314391   7.324   3.488   2.873  0.2115  0.3789  0.0322
 3000poe    c2314392   7.327   3.335   2.859  0.5087  0.3821  0.0611
 3000poe     o214393   7.433   3.288   2.939  0.2429 -0.2670  0.0390
 3000poe    c2314394   7.425   3.149   2.964  0.3393 -0.3018 -0.1223
 3000poe    c2314395   7.557   3.120   3.036 -0.0328 -0.4509  0.5083
 3000poe     o214396   7.574   3.202   3.149  0.3913  0.2126 -0.0293
 3000poe    c2314397   7.595   3.140   3.274  0.2196 -0.3425 -0.2718
 3000poe    c2314398   7.653   3.235   3.380 -0.0715 -0.4760  0.0072
 3000poe     o214399   7.565   3.343   3.400  0.0022 -0.5412  0.7338
 3000poe    c3114400   7.640   3.439   3.470  0.0780 -0.1005  0.0571
 3001poe    c3114401   4.339   6.942   2.720  0.3191  0.5671  0.2829
 3001poe     o214402   4.292   6.886   2.841  0.4555  0.0156  0.0821
 3001poe    c2314403   4.168   6.940   2.881  0.2426 -0.6435  0.3126
 3001poe    c2314404   4.133   6.875   3.017 -0.8890 -0.5293  0.0816
 3001poe     o214405   4.251   6.894   3.092 -0.4446 -0.2637 -0.6699
 3001poe    c2314406   4.219   6.839   3.218  0.2370  0.2761 -0.2537
 3001poe    c2314407   4.336   6.830   3.317 -0.0806 -0.3373  0.0711
 3001poe     o214408   4.439   6.758   3.254  0.2839  0.3125 -0.0894
 3001poe    c2314409   4.487   6.641   3.316 -0.2924  0.2280  0.1977
 3001poe    c2314410   4.599   6.577   3.232 -0.0715  0.3993  0.3648
 3001poe     o214411   4.562   6.535   3.103  0.2186  0.5525  0.2297
 3001poe    c3114412   4.661   6.462   3.034 -0.4009 -0.1282  0.0522
 3002poe    c3114413   1.876   2.477   5.957  0.2299 -0.9029 -0.3579
 3002poe     o214414   1.786   2.476   6.065  0.3081 -0.3909 -0.2854
 3002poe    c2314415   1.662   2.421   6.024 -0.2714  0.8176 -0.1930
 3002poe    c2314416   1.590   2.347   6.139  0.3425  0.0091 -0.3209
 3002poe     o214417   1.534   2.449   6.217 -0.2924 -0.3635 -0.2889
 3002poe    c2314418   1.478   2.398   6.336 -0.4235 -0.2011 -0.2797
 3002poe    c2314419   1.367   2.490   6.390 -0.2335  0.1279 -0.4504
 3002poe     o214420   1.389   2.625   6.425 -0.0212  0.0641 -0.3376
 3002poe    c2314421   1.281   2.695   6.481 -0.3880 -0.8360  0.1080
 3002poe    c2314422   1.335   2.835   6.519 -1.0740 -0.5076 -0.1003
 3002poe     o214423   1.380   2.923   6.419 -0.6622 -0.6011 -0.0011
 3002poe    c3114424   1.348   3.055   6.458  0.6285 -0.1621 -0.3762
 3003poe    c3114425   5.563   2.457   3.489  0.2244 -0.0778 -0.1188
 3003poe     o214426   5.430   2.457   3.535  0.1507  0.1653 -0.3358
 3003poe    c2314427   5.360   2.350   3.475 -0.3983  0.3413 -0.0145
 3003poe    c2314428   5.210   2.339   3.510 -0.3890 -0.7742 -0.2914
 3003poe     o214429   5.165   2.219   3.451 -0.0281 -1.0643  0.0173
 3003poe    c2314430   5.087   2.155   3.550 -0.2962  0.3360  0.7460
 3003poe    c2314431   5.114   2.003   3.546  0.1325  0.4302 -0.4607
 3003poe     o214432   5.043   1.948   3.437 -0.3274  0.1520 -0.0252
 3003poe    c2314433   5.106   1.823   3.419 -0.4668  0.0699  0.0588
 3003poe    c2314434   5.093   1.749   3.285 -0.3232  0.2373 -0.0482
 3003poe     o214435   4.961   1.708   3.262 -0.2578 -0.3116  0.5116
 3003poe    c3114436   4.915   1.729   3.130  0.0971  0.2102  0.4700
 3004poe    c3114437   4.026   1.672   6.085 -0.0774 -0.3114 -0.2748
 3004poe     o214438   3.924   1.667   6.181 -0.2131 -0.1602 -0.4116
 3004poe    c2314439   3.892   1.531   6.199  0.9239 -0.2995  0.6799
 3004poe    c2314440   3.784   1.508   6.307 -0.4393  0.1414 -0.5518
 3004poe     o214441   3.830   1.517   6.440 -0.4865  0.3960 -0.5538
 3004poe    c2314442   3.743   1.465   6.538  0.3284  0.0566  0.0032
 3004poe    c2314443   3.790   1.329   6.592  0.0309  0.1337  0.4680
 3004poe     o214444   3.926   1.332   6.628  0.0179  0.2106  0.5108
 3004poe    c2314445   3.986   1.221   6.692  0.2251  0.0134 -0.0186
 3004poe    c2314446   4.124   1.259   6.748  0.3371 -0.2203 -0.1376
 3004poe     o214447   4.223   1.266   6.648  0.5697 -0.0196  0.1062
 3004poe    c3114448   4.341   1.312   6.711  0.0868  1.0458  0.2505
 3005poe    c3114449   5.071   2.645   2.559  0.3794  0.3267 -0.5794
 3005poe     o214450   5.156   2.691   2.456  1.0824 -0.2319 -0.2527
 3005poe    c2314451   5.156   2.832   2.458 -0.3145 -0.2224  0.3443
 3005poe    c2314452   5.288   2.885   2.399 -0.4256 -0.2619  0.0572
 3005poe     o214453   5.284   2.852   2.261 -0.1583 -0.4490  0.0918
 3005poe    c2314454   5.399   2.901   2.197 -0.1145 -0.8021 -0.0984
 3005poe    c2314455   5.408   2.819   2.067  0.2144 -0.2608 -0.4211
 3005poe     o214456   5.393   2.681   2.090  0.7723 -0.3031 -0.2998
 3005poe    c2314457   5.382   2.594   1.979  0.1381  0.0152 -0.4896
 3005poe    c2314458   5.444   2.454   1.996 -0.0335  0.0329  0.3683
 3005poe     o214459   5.363   2.374   2.079  0.0605  0.2828  0.7038
 3005poe    c3114460   5.406   2.240   2.080  0.1534  0.3106  0.4936
 3006poe    c3114461   2.130   4.872   2.637 -0.2034  0.2351 -0.2163
 3006poe     o214462   2.001   4.837   2.680 -0.1517 -0.4084 -0.5801
 3006poe    c2314463   1.981   4.697   2.684  0.0362 -0.4202 -0.0432
 3006poe    c2314464   1.829   4.689   2.705  0.0742  0.1972  0.4968
 3006poe     o214465   1.769   4.802   2.765  0.2165  0.1805  0.6707
 3006poe    c2314466   1.643   4.826   2.707  0.5288 -0.2248 -0.1865
 3006poe    c2314467   1.579   4.934   2.796  0.5941 -0.4614  0.1506
 3006poe     o214468   1.662   5.047   2.813 -0.4236  0.3524 -0.1768
 3006poe    c2314469   1.584   5.164   2.820 -0.6921  0.1526  0.2026
 3006poe    c2314470   1.669   5.292   2.825 -0.0779 -0.2277 -0.3704
 3006poe     o214471   1.756   5.290   2.714 -0.2584 -0.8255 -0.5077
 3006poe    c3114472   1.705   5.357   2.601  0.4452 -0.0147 -0.3616
 3007poe    c3114473   2.757   3.662   2.367 -0.9207 -0.1516 -0.5276
 3007poe     o214474   2.751   3.669   2.508 -0.3954 -0.5150 -0.4829
 3007poe    c2314475   2.624   3.715   2.550 -0.0609 -0.2500  0.2569
 3007poe    c2314476   2.653   3.826   2.652  0.1568  0.0436 -0.1218
 3007poe     o214477   2.718   3.944   2.609  0.3200 -0.1031 -0.2799
 3007poe    c2314478   2.692   4.021   2.725  0.1341 -0.2856 -0.1988
 3007poe    c2314479   2.763   4.157   2.709 -0.2223 -0.0657  0.0721
 3007poe     o214480   2.717   4.213   2.588  0.5361 -0.3871 -0.3705
 3007poe    c2314481   2.728   4.352   2.602  0.0790 -0.4236  0.4148
 3007poe    c2314482   2.661   4.413   2.477 -0.1614 -0.6621  0.4288
 3007poe     o214483   2.723   4.368   2.359  0.0294 -0.0126  0.2788
 3007poe    c3114484   2.706   4.466   2.260  0.1537 -0.1523  0.1175
 3008poe    c3114485   5.473   0.219   1.872 -0.5237 -0.7733  0.5498
 3008poe     o214486   5.524   0.335   1.933 -0.4689 -0.2871 -0.4038
 3008poe    c2314487   5.460   0.344   2.059  0.4546  0.1074  0.0515
 3008poe    c2314488   5.501   0.454   2.159 -0.9256  0.2446  0.4865
 3008poe     o214489   5.494   0.580   2.096 -0.0767  0.0584  0.0008
 3008poe    c2314490   5.511   0.683   2.191 -0.2497 -0.3073  0.4296
 3008poe    c2314491   5.656   0.734   2.187 -0.5216  0.4226 -0.3635
 3008poe     o214492   5.676   0.772   2.053 -0.3547 -0.2254 -0.5278
 3008poe    c2314493   5.787   0.855   2.026 -0.3993  0.2074  0.5470
 3008poe    c2314494   5.779   0.881   1.874 -0.2246  0.0522  0.5113
 3008poe     o214495   5.760   0.751   1.822  0.5449  0.1037  0.0784
 3008poe    c3114496   5.719   0.776   1.690  0.0417  0.4589  0.2974
 3009poe    c3114497   5.145   0.493   1.348  0.0592  0.1956 -0.0264
 3009poe     o214498   5.120   0.386   1.259 -0.1289  0.2552 -0.0448
 3009poe    c2314499   5.234   0.369   1.177 -0.0688 -0.2298  0.1386
 3009poe    c2314500   5.246   0.447   1.045  0.2620 -0.2747  0.1432
 3009poe     o214501   5.138   0.415   0.960  0.7026 -0.6527 -0.2898
 3009poe    c2314502   5.147   0.459   0.826  0.2899  0.2172 -0.0406
 3009poe    c2314503   5.143   0.366   0.704 -0.3052  0.1553  0.0231
 3009poe     o214504   5.037   0.274   0.693 -0.0327 -0.0750 -0.7817
 3009poe    c2314505   5.087   0.147   0.729  0.1216  0.1808 -0.0738
 3009poe    c2314506   4.989   0.032   0.756 -0.0293  0.2039 -0.5177
 3009poe     o214507   4.911   0.063   0.869  0.3597  0.3810 -0.2967
 3009poe    c3114508   4.822  -0.042   0.897  1.2539 -0.2229  0.3206
 3010poe    c3114509   0.323   0.712   0.279 -0.1075 -0.1930  0.4357
 3010poe     o214510   0.261   0.787   0.177  0.3300 -0.1186  0.2214
 3010poe    c2314511   0.139   0.844   0.218  0.3785 -0.0086  0.2114
 3010poe    c2314512   0.044   0.809   0.102  0.0715  0.6821  0.2491
 3010poe     o214513   0.102   0.834  -0.025  0.0667  0.4503  0.2006
 3010poe    c2314514   0.016   0.784  -0.125  0.1889  0.2608  0.1918
 3010poe    c2314515   0.068   0.799  -0.269 -0.8216 -0.1749 -0.2283
 3010poe     o214516   0.184   0.720  -0.285 -0.4625  0.2952  0.0185
 3010poe    c2314517   0.245   0.728  -0.412 -0.7652 -0.2654 -0.1679
 3010poe    c2314518   0.381   0.667  -0.371 -0.3954  0.5791 -0.1057
 3010poe     o214519   0.456   0.766  -0.306 -0.0114  0.6440 -0.6420
 3010poe    c3114520   0.585   0.714  -0.281 -0.2874 -0.1085 -0.7604
 3011poe    c3114521   1.970   2.094   3.767  0.0202  0.1789 -0.4511
 3011poe     o214522   1.942   2.230   3.744  0.6602  0.2570 -0.7920
 3011poe    c2314523   1.991   2.297   3.858 -0.1750 -0.5267  0.0439
 3011poe    c2314524   1.950   2.446   3.859  0.7338 -0.2746  0.2208
 3011poe     o214525   1.997   2.538   3.763  0.3364  0.1376  0.4155
 3011poe    c2314526   1.925   2.658   3.748 -0.2704 -0.3050 -0.3211
 3011poe    c2314527   1.933   2.734   3.615  0.1500  0.6433  0.2383
 3011poe     o214528   1.902   2.641   3.514  0.1525  0.7067  0.1784
 3011poe    c2314529   1.898   2.694   3.383  0.0719  0.0978 -0.0695
 3011poe    c2314530   1.887   2.596   3.265 -0.1974 -0.2075  0.2064
 3011poe     o214531   1.988   2.499   3.273 -0.2516 -0.3014 -0.2381
 3011poe    c3114532   2.003   2.413   3.161  0.8650  0.2580 -0.5376
 3012poe    c3114533   1.127   0.857   4.369  0.0978  0.4499  0.2237
 3012poe     o214534   1.051   0.972   4.344 -0.8165 -0.1801  0.0654
 3012poe    c2314535   0.912   0.947   4.353 -0.8680  0.2881  0.6588
 3012poe    c2314536   0.827   1.071   4.320 -0.1318  0.5840 -0.1633
 3012poe     o214537   0.825   1.111   4.185  0.3884 -0.1450 -0.3936
 3012poe    c2314538   0.772   1.241   4.170  0.7078  0.0407  0.0785
 3012poe    c2314539   0.854   1.306   4.056 -0.0481  0.3688 -0.2824
 3012poe     o214540   0.994   1.308   4.073 -0.1025  0.1681  0.2152
 3012poe    c2314541   1.029   1.444   4.092  0.3624  0.0073  0.5162
 3012poe    c2314542   1.181   1.470   4.088  0.3464 -0.0209 -0.7569
 3012poe     o214543   1.244   1.456   3.963  0.2879 -1.1110 -0.6763
 3012poe    c3114544   1.217   1.551   3.862 -0.2084 -0.5133  0.0059
 3013poe    c3114545   2.033   1.274   0.908  0.4486  0.5500 -0.0413
 3013poe     o214546   1.947   1.308   0.802 -0.2095  0.4390  0.4503
 3013poe    c2314547   1.821   1.248   0.824  0.0330 -0.5320 -0.6819
 3013poe    c2314548   1.763   1.147   0.724 -0.1782 -1.0224 -0.0726
 3013poe     o214549   1.732   1.216   0.605 -0.0940 -0.4211  0.2495
 3013poe    c2314550   1.701   1.128   0.499  0.2938 -0.6167  0.2938
 3013poe    c2314551   1.675   1.216   0.375 -0.0637 -0.1654  0.6830
 3013poe     o214552   1.769   1.319   0.352 -0.7423  0.5008  0.8372
 3013poe    c2314553   1.726   1.403   0.248 -0.7886 -0.7976 -0.2090
 3013poe    c2314554   1.774   1.368   0.105 -0.0050 -0.2234 -0.0893
 3013poe     o214555   1.913   1.387   0.103  0.0196 -0.4509 -0.6437
 3013poe    c3114556   1.962   1.382  -0.029  0.7895 -0.2197 -0.3731
 3014poe    c3114557   4.405   5.059   5.413  0.0666 -0.3795 -0.4926
 3014poe     o214558   4.267   5.049   5.387  0.0905 -0.1698 -0.7070
 3014poe    c2314559   4.225   5.120   5.273  0.0189  0.6980 -0.1500
 3014poe    c2314560   4.275   5.074   5.134 -0.0086  0.4697 -0.0843
 3014poe     o214561   4.241   4.937   5.124  0.7461  0.2767 -0.0773
 3014poe    c2314562   4.237   4.901   4.988 -0.0277 -0.1442  0.0522
 3014poe    c2314563   4.257   4.752   4.954  0.5050  0.1238 -0.8219
 3014poe     o214564   4.166   4.697   4.861  0.0516 -0.6245  0.0566
 3014poe    c2314565   4.155   4.560   4.894  0.2555 -0.5683  0.3672
 3014poe    c2314566   4.047   4.499   4.802  0.5648 -0.4811 -0.0585
 3014poe     o214567   3.965   4.398   4.857  0.4029 -0.2141  0.1899
 3014poe    c3114568   4.033   4.278   4.884  0.5027 -0.2382 -0.1624
 3015poe    c3114569   6.614   3.541   5.386  0.5444 -0.1758 -0.0075
 3015poe     o214570   6.639   3.448   5.489  0.0987 -0.2263  0.0574
 3015poe    c2314571   6.591   3.492   5.614  0.2294  0.1561 -0.0254
 3015poe    c2314572   6.644   3.381   5.707  0.4282  0.2296 -0.0524
 3015poe     o214573   6.767   3.337   5.654  0.5326  0.0226  0.3577
 3015poe    c2314574   6.850   3.279   5.752  0.1330 -0.0934  0.6299
 3015poe    c2314575   6.978   3.232   5.679 -0.0537  0.7009 -0.2364
 3015poe     o214576   6.921   3.152   5.579  0.1522 -0.0759  0.2550
 3015poe    c2314577   7.004   3.043   5.546  0.2684  0.1243 -0.1283
 3015poe    c2314578   6.926   2.917   5.502  0.3780  0.1300 -0.3386
 3015poe     o214579   6.836   2.941   5.396 -0.3613 -0.4031  0.1618
 3015poe    c3114580   6.841   2.836   5.301  0.5195 -0.1934 -0.0351
 3016poe    c3114581   3.507   2.060   0.365  0.2378 -0.2823 -0.6429
 3016poe     o214582   3.626   1.984   0.364  0.5971  0.2682 -0.4520
 3016poe    c2314583   3.600   1.872   0.282  0.0626 -0.0508  0.1443
 3016poe    c2314584   3.729   1.788   0.282 -0.0021 -0.1501 -0.0440
 3016poe     o214585   3.756   1.760   0.417  0.3647  0.3742 -0.0033
 3016poe    c2314586   3.857   1.664   0.438 -0.8541 -0.8794  0.3441
 3016poe    c2314587   3.880   1.641   0.589  0.3828 -0.1541  0.2817
 3016poe     o214588   3.927   1.763   0.641 -0.0689  0.0500  0.2209
 3016poe    c2314589   3.968   1.748   0.776  0.1866 -0.2213  0.1146
 3016poe    c2314590   3.980   1.878   0.857 -0.2807 -0.1636  0.0969
 3016poe     o214591   3.860   1.950   0.872 -0.1123  0.2344 -0.4055
 3016poe    c3114592   3.835   2.020   0.992 -0.4795 -0.5416 -0.0182
 3017poe    c3114593   2.257   0.239   4.776  0.3211 -0.1329  0.0717
 3017poe     o214594   2.232   0.362   4.712 -0.2743 -0.0524  0.4449
 3017poe    c2314595   2.098   0.405   4.709 -0.2361  0.0280 -0.2830
 3017poe    c2314596   2.068   0.513   4.604  0.2250 -0.2606 -0.7153
 3017poe     o214597   2.136   0.635   4.621 -0.2773 -0.1260  0.3977
 3017poe    c2314598   2.119   0.729   4.518 -0.1307  0.3098  0.7655
 3017poe    c2314599   2.215   0.849   4.524  0.5330 -0.1868  0.2647
 3017poe     o214600   2.346   0.810   4.560  0.6621 -0.5270 -0.5645
 3017poe    c2314601   2.421   0.927   4.585 -0.2935 -0.1503  0.6725
 3017poe    c2314602   2.570   0.890   4.583 -0.2603  0.0106 -0.1132
 3017poe     o214603   2.590   0.782   4.672 -0.4323  0.3027  0.2782
 3017poe    c3114604   2.729   0.767   4.652 -0.4224  1.1436 -0.3588
 3018poe    c3114605   3.445   2.317   5.090  0.5152 -0.7595 -0.1649
 3018poe     o214606   3.518   2.431   5.130 -0.3640 -0.2592  0.0315
 3018poe    c2314607   3.482   2.550   5.064 -0.9442 -0.4456  0.0035
 3018poe    c2314608   3.547   2.682   5.111 -0.9250 -0.5329  0.2232
 3018poe     o214609   3.685   2.663   5.090 -0.6139  1.0901  0.6611
 3018poe    c2314610   3.757   2.743   5.181 -0.2856  0.7156  0.7367
 3018poe    c2314611   3.844   2.837   5.095 -0.2827  0.3075  0.2910
 3018poe     o214612   3.922   2.774   4.996  0.0536  0.3291  0.5388
 3018poe    c2314613   4.018   2.873   4.968  0.1593  0.1066  0.1025
 3018poe    c2314614   4.114   2.848   4.850  0.1700  0.6079  0.0009
 3018poe     o214615   4.193   2.731   4.858 -0.5245  0.1234 -0.1497
 3018poe    c3114616   4.315   2.742   4.928 -0.2549  0.4755 -0.6725
 3019poe    c3114617   0.314   5.286   3.794  0.5206  0.2687 -0.1505
 3019poe     o214618   0.233   5.370   3.714 -0.3850 -0.6056 -0.1696
 3019poe    c2314619   0.127   5.429   3.785  0.0201  0.1683 -0.2028
 3019poe    c2314620   0.049   5.533   3.703 -0.1064 -0.2261 -0.5841
 3019poe     o214621   0.123   5.650   3.675 -0.1359 -0.0935 -0.1155
 3019poe    c2314622   0.116   5.752   3.772  0.8395 -0.0245 -0.1075
 3019poe    c2314623   0.138   5.900   3.735  0.6215  0.2381  0.7843
 3019poe     o214624   0.267   5.946   3.700  0.3585  0.1476 -0.3410
 3019poe    c2314625   0.298   6.083   3.711  0.4824  0.0649  0.4413
 3019poe    c2314626   0.417   6.117   3.620 -0.2907  0.2945 -0.5005
 3019poe     o214627   0.393   6.123   3.481 -0.5624  0.0026 -0.4657
 3019poe    c3114628   0.321   6.239   3.444 -0.2174  0.2935 -0.2250
 3020poe    c3114629   6.723   0.444   5.723  0.7886 -0.3763 -0.0818
 3020poe     o214630   6.670   0.490   5.601  0.4686  0.4984  0.3815
 3020poe    c2314631   6.668   0.631   5.592 -0.0270  0.4588 -0.2151
 3020poe    c2314632   6.575   0.659   5.473 -0.0970 -0.0019 -0.2682
 3020poe     o214633   6.618   0.615   5.346 -0.4906  0.4407 -0.5574
 3020poe    c2314634   6.526   0.614   5.239 -0.9599  0.1690 -0.1539
 3020poe    c2314635   6.443   0.485   5.228  0.0479 -0.4867 -0.2212
 3020poe     o214636   6.528   0.385   5.176  0.0432 -0.6613  0.1027
 3020poe    c2314637   6.523   0.367   5.036  0.4235  0.8275 -0.1158
 3020poe    c2314638   6.623   0.266   4.978 -0.2016  0.0577  0.1353
 3020poe     o214639   6.748   0.330   4.964 -0.3506  0.2402 -0.3889
 3020poe    c3114640   6.784   0.310   4.829 -0.4125 -0.0476 -0.3632
 3021poe    c3114641   5.374   3.784   2.399 -0.1603  0.7403  0.0986
 3021poe     o214642   5.374   3.735   2.267 -0.7150  0.1377  0.3159
 3021poe    c2314643   5.246   3.682   2.242 -0.6912  0.2297 -0.0054
 3021poe    c2314644   5.237   3.614   2.105 -0.4794 -0.0561  0.1220
 3021poe     o214645   5.365   3.564   2.076 -0.2440  0.9744 -0.6542
 3021poe    c2314646   5.369   3.491   1.956 -0.2962  0.9968 -0.6696
 3021poe    c2314647   5.502   3.414   1.946 -0.1796  1.0690  0.2820
 3021poe     o214648   5.522   3.352   2.071  0.1135 -0.3359 -0.4410
 3021poe    c2314649   5.648   3.292   2.089  0.1023 -0.3337 -0.3551
 3021poe    c2314650   5.675   3.259   2.237 -0.0212  0.1966 -0.2134
 3021poe     o214651   5.693   3.377   2.313 -0.1487  0.2106 -0.2054
 3021poe    c3114652   5.720   3.343   2.447  0.2314  0.3490 -0.2459
 3022poe    c3114653   5.181   2.231   4.462  0.1310 -0.2536 -0.2665
 3022poe     o214654   5.077   2.293   4.534  0.0699  0.1040 -0.6580
 3022poe    c2314655   4.950   2.256   4.484  0.1213 -0.6441 -0.2473
 3022poe    c2314656   4.903   2.301   4.345  0.5121  0.4468 -0.0368
 3022poe     o214657   4.868   2.438   4.345  0.4791  0.4379  0.0517
 3022poe    c2314658   4.862   2.468   4.207 -0.6829  0.0322  0.0011
 3022poe    c2314659   4.937   2.601   4.185 -0.3462 -0.1050  0.2986
 3022poe     o214660   4.871   2.695   4.268 -0.4032  0.1422 -0.0271
 3022poe    c2314661   4.936   2.819   4.253  0.4031 -0.2473  0.1703
 3022poe    c2314662   4.889   2.918   4.361 -0.7609 -0.2010 -0.3677
 3022poe     o214663   4.933   2.883   4.490 -0.3037  0.8993 -0.2234
 3022poe    c3114664   4.894   2.991   4.572 -0.4614  0.3659  0.4107
 3023poe    c3114665   6.045   4.476   6.125  0.1598  0.3241  0.2748
 3023poe     o214666   6.020   4.443   5.991  0.0329  0.4072  0.2781
 3023poe    c2314667   5.886   4.443   5.948  0.1667  0.5677 -0.1527
 3023poe    c2314668   5.833   4.578   5.897  0.3715  0.6905 -0.0390
 3023poe     o214669   5.874   4.615   5.767  0.0248 -0.4073 -0.4678
 3023poe    c2314670   5.770   4.701   5.725  0.3061  0.2847  0.2421
 3023poe    c2314671   5.785   4.721   5.573  0.0205  0.5890  0.2531
 3023poe     o214672   5.923   4.735   5.551  0.0865 -0.1277  0.1861
 3023poe    c2314673   5.967   4.677   5.430 -0.0074  0.8046 -0.3059
 3023poe    c2314674   6.114   4.721   5.417  0.0115  0.7120 -0.3992
 3023poe     o214675   6.178   4.697   5.540 -0.0087  0.0161 -0.5215
 3023poe    c3114676   6.312   4.735   5.519 -0.1429  0.7663 -0.0477
 3024poe    c3114677   4.771   2.837   2.752 -0.3515 -0.1448  0.5690
 3024poe     o214678   4.727   2.892   2.630 -0.1609  0.2746  0.6863
 3024poe    c2314679   4.738   2.801   2.522  0.3300  0.4149  0.6149
 3024poe    c2314680   4.744   2.879   2.389  0.1390 -0.1854  0.2532
 3024poe     o214681   4.696   2.806   2.279  0.4164  0.2335 -0.1481
 3024poe    c2314682   4.701   2.879   2.158  0.2483  0.3602 -0.0784
 3024poe    c2314683   4.838   2.899   2.091  0.1179  0.1396 -0.4154
 3024poe     o214684   4.894   2.797   2.012  0.0778 -0.3193  0.1429
 3024poe    c2314685   4.869   2.828   1.877 -0.2613 -0.9084  0.0663
 3024poe    c2314686   4.909   2.716   1.778  0.1180 -0.1462 -0.6584
 3024poe     o214687   5.047   2.689   1.779  0.1341 -0.1175  0.7467
 3024poe    c3114688   5.065   2.561   1.721  0.2723  0.3692 -0.3065
 3025poe    c3114689   3.338   1.663   0.476  0.4896 -1.0129 -0.7839
 3025poe     o214690   3.262   1.636   0.360 -0.3114 -0.2084 -0.4618
 3025poe    c2314691   3.130   1.684   0.357 -0.3939 -0.3714  0.2921
 3025poe    c2314692   3.100   1.835   0.366  0.0317 -0.2804  0.1986
 3025poe     o214693   3.164   1.903   0.260 -0.0329 -0.3856  0.0914
 3025poe    c2314694   3.128   2.039   0.273  0.0465 -0.3240 -0.3420
 3025poe    c2314695   3.165   2.125   0.151  0.6677  0.1203  0.1514
 3025poe     o214696   3.167   2.265   0.172  0.1860  0.2463 -0.5753
 3025poe    c2314697   3.046   2.335   0.192 -0.0223  0.0547 -1.1560
 3025poe    c2314698   2.946   2.344   0.075 -0.2031 -0.0906 -1.0126
 3025poe     o214699   2.874   2.225   0.051  0.1393 -0.5607  0.2265
 3025poe    c3114700   2.743   2.253   0.010  0.5667 -0.9288 -1.4777
 3026poe    c3114701   1.668   2.403   4.210  0.1907  0.6029 -0.1495
 3026poe     o214702   1.544   2.443   4.264  0.2699  0.2582  0.3050
 3026poe    c2314703   1.517   2.367   4.379 -0.6484  0.4058  0.1927
 3026poe    c2314704   1.466   2.228   4.336  0.7768  0.0283 -0.3264
 3026poe     o214705   1.360   2.225   4.243  0.4462 -0.2930  0.0539
 3026poe    c2314706   1.291   2.105   4.215  0.3313 -0.1188 -0.4266
 3026poe    c2314707   1.199   2.064   4.332  0.0154  0.0328 -0.6202
 3026poe     o214708   1.123   2.175   4.374  0.3042 -0.1155  0.3246
 3026poe    c2314709   1.045   2.142   4.486 -0.1699  0.2502  0.1087
 3026poe    c2314710   0.935   2.248   4.497 -0.6409 -0.2316  0.1051
 3026poe     o214711   0.961   2.372   4.559 -0.3956 -0.3589  0.2582
 3026poe    c3114712   0.845   2.453   4.551  0.1212  0.3648  0.0411
 3027poe    c3114713   4.892   0.719   2.391 -0.5628 -0.0418  0.7085
 3027poe     o214714   4.798   0.814   2.347 -0.2347  0.1626  0.4476
 3027poe    c2314715   4.676   0.788   2.412 -0.4512  0.5939  0.2170
 3027poe    c2314716   4.554   0.843   2.335 -0.4249  0.0914 -0.1961
 3027poe     o214717   4.568   0.978   2.296 -0.5153  0.2585  0.3409
 3027poe    c2314718   4.471   1.016   2.201 -0.3098 -0.0547  0.0038
 3027poe    c2314719   4.485   1.166   2.167 -0.0583  0.0169  0.4052
 3027poe     o214720   4.618   1.212   2.157 -0.0442 -0.1524 -0.2687
 3027poe    c2314721   4.618   1.350   2.131  0.5797 -0.1437 -0.2332
 3027poe    c2314722   4.760   1.410   2.137  0.4923  0.0041  0.4165
 3027poe     o214723   4.821   1.385   2.262  0.4843  0.1531  0.4503
 3027poe    c3114724   4.901   1.496   2.292  0.4831  0.0806  0.7221
 3028poe    c3114725   2.160   3.074   2.505 -0.4231  0.1606 -0.1136
 3028poe     o214726   2.281   3.082   2.434  0.0581  0.1326  0.6842
 3028poe    c2314727   2.272   3.196   2.351 -0.4141 -0.0852  0.4326
 3028poe    c2314728   2.370   3.179   2.234 -0.6253 -0.1159  0.2589
 3028poe     o214729   2.491   3.144   2.297 -0.3641 -0.0956 -0.2307
 3028poe    c2314730   2.602   3.147   2.210 -0.0917  0.0985  0.1192
 3028poe    c2314731   2.733   3.143   2.290 -0.1455  0.5050  0.2261
 3028poe     o214732   2.725   3.020   2.359  0.8047  0.1672 -0.2416
 3028poe    c2314733   2.852   2.975   2.398  0.6120 -0.2897 -0.1394
 3028poe    c2314734   2.878   2.823   2.387  0.4326 -0.3275 -0.0438
 3028poe     o214735   2.763   2.773   2.452  0.0038  0.0951 -0.4706
 3028poe    c3114736   2.758   2.633   2.435  0.0621  0.0023  0.2387
 3029poe    c3114737   5.678   5.677   5.468 -0.4877 -0.2356 -0.0042
 3029poe     o214738   5.547   5.723   5.495 -0.4516 -0.1154 -0.0303
 3029poe    c2314739   5.553   5.772   5.627  0.1977  0.0540 -0.1181
 3029poe    c2314740   5.435   5.871   5.629  0.4476  0.3570 -0.2289
 3029poe     o214741   5.327   5.805   5.566  0.4771  0.1350 -0.0503
 3029poe    c2314742   5.225   5.900   5.539  0.3056 -0.1626 -0.4561
 3029poe    c2314743   5.109   5.821   5.476 -0.1224  0.2397 -0.1783
 3029poe     o214744   5.181   5.748   5.378  0.1715  0.3924 -0.0780
 3029poe    c2314745   5.088   5.734   5.273  0.8010  0.0962 -0.5974
 3029poe    c2314746   5.127   5.634   5.163 -0.2757 -0.2604 -0.6708
 3029poe     o214747   5.221   5.685   5.071  0.9225 -0.0614  0.6291
 3029poe    c3114748   5.243   5.591   4.968 -0.5001  0.3490 -0.0721
 3030poe    c3114749   2.809   1.198   2.296  0.1058 -0.7227 -0.3027
 3030poe     o214750   2.775   1.144   2.421  0.2685 -0.4846 -0.1547
 3030poe    c2314751   2.788   1.242   2.522  0.5224  0.0503 -0.7079
 3030poe    c2314752   2.822   1.194   2.664  0.1296  0.4025 -0.4934
 3030poe     o214753   2.951   1.136   2.673 -0.1187 -0.0311  0.3142
 3030poe    c2314754   2.956   1.074   2.800 -0.0387 -0.3720  0.1459
 3030poe    c2314755   3.050   0.952   2.799 -0.5258 -0.7632  0.8462
 3030poe     o214756   3.000   0.856   2.709 -0.4857  0.2318 -0.2665
 3030poe    c2314757   2.939   0.744   2.769  0.5394 -0.2762 -0.1480
 3030poe    c2314758   2.847   0.655   2.683 -0.6350  0.3576  0.4162
 3030poe     o214759   2.728   0.720   2.646 -0.3978  0.5014 -0.0985
 3030poe    c3114760   2.651   0.624   2.578  0.7309 -0.2590 -0.3361
 3031poe    c3114761   5.955   6.618   5.110 -1.0298 -0.6987 -0.4712
 3031poe     o214762   5.978   6.707   5.003  0.8238 -0.0371  0.4230
 3031poe    c2314763   6.043   6.657   4.889 -0.5750 -0.4638 -0.2068
 3031poe    c2314764   6.166   6.740   4.848 -0.3979 -0.4735  0.3031
 3031poe     o214765   6.142   6.877   4.828  0.3913 -0.3074  0.4380
 3031poe    c2314766   6.236   6.972   4.871 -0.2180  0.5563 -0.0797
 3031poe    c2314767   6.367   6.995   4.793 -0.1998 -0.1715 -0.2677
 3031poe     o214768   6.479   6.916   4.827 -0.1035 -0.0452 -0.2960
 3031poe    c2314769   6.582   6.951   4.737 -0.4501  0.6683 -0.4269
 3031poe    c2314770   6.700   6.994   4.825 -1.1480  0.2735  0.7198
 3031poe     o214771   6.738   6.895   4.917 -0.0839 -0.1933 -0.2024
 3031poe    c3114772   6.854   6.946   4.978 -0.6262  0.1741  0.5320
 3032poe    c3114773   5.123   1.022   5.849 -0.9317  0.0645  0.4684
 3032poe     o214774   5.132   1.089   5.725  0.0003  0.3215  0.6676
 3032poe    c2314775   5.024   1.066   5.637 -0.0543 -0.0530  0.8273
 3032poe    c2314776   5.028   0.931   5.563  0.2012  0.1559  0.4505
 3032poe     o214777   5.147   0.926   5.488 -0.1916  0.0704 -0.1710
 3032poe    c2314778   5.139   0.830   5.385  0.2139 -0.2185  0.0642
 3032poe    c2314779   5.241   0.875   5.278 -0.0258  0.5878  0.1709
 3032poe     o214780   5.367   0.875   5.341  0.2270 -0.0274 -0.3269
 3032poe    c2314781   5.478   0.845   5.259  0.2184 -0.0015 -0.3480
 3032poe    c2314782   5.524   0.699   5.246 -0.3225 -0.1065 -1.1041
 3032poe     o214783   5.420   0.619   5.194 -0.7609 -0.3286  0.0945
 3032poe    c3114784   5.339   0.556   5.291  0.1480 -0.8245  0.5456
 3033poe    c3114785   3.941   1.184   5.795  0.2068 -0.1207 -0.0470
 3033poe     o214786   4.023   1.244   5.893  0.3157 -0.3819  0.0222
 3033poe    c2314787   4.162   1.243   5.868  0.3282 -0.1435  0.0887
 3033poe    c2314788   4.235   1.310   5.986 -0.0773  0.0167  0.2499
 3033poe     o214789   4.185   1.231   6.092  0.7507 -0.7634  0.0686
 3033poe    c2314790   4.241   1.269   6.216  0.4833 -0.1496  0.0014
 3033poe    c2314791   4.203   1.148   6.303 -0.0790  0.4508  0.6061
 3033poe     o214792   4.077   1.097   6.265  0.1336 -0.0786  0.6062
 3033poe    c2314793   4.064   0.979   6.341 -0.0406 -0.1653  0.4452
 3033poe    c2314794   3.918   0.937   6.364 -0.1198 -0.0707  0.1122
 3033poe     o214795   3.839   1.054   6.356 -0.3928 -0.2843 -0.3682
 3033poe    c3114796   3.717   1.010   6.411 -0.0454 -0.8793 -0.0604
 3034poe    c3114797   6.870   4.336   1.374  0.4852 -0.4452 -0.0428
 3034poe     o214798   6.904   4.365   1.240 -0.0959 -0.5043 -0.2069
 3034poe    c2314799   7.040   4.331   1.223  0.0865  0.1754 -0.1468
 3034poe    c2314800   7.095   4.357   1.082 -0.3429 -0.3453 -0.4154
 3034poe     o214801   7.028   4.275   0.989 -0.6808  0.0897 -0.5632
 3034poe    c2314802   7.104   4.299   0.873 -0.1567  0.3210 -0.1739
 3034poe    c2314803   7.011   4.255   0.759 -0.5446  0.2515  0.1697
 3034poe     o214804   6.893   4.332   0.770 -0.3793  0.5056  0.1512
 3034poe    c2314805   6.799   4.303   0.670  0.5089  0.3791 -0.6628
 3034poe    c2314806   6.663   4.357   0.719  0.5160 -0.0103 -0.2145
 3034poe     o214807   6.639   4.328   0.855 -0.3807 -0.0651 -0.3808
 3034poe    c3114808   6.506   4.349   0.895 -0.3283 -0.3517 -0.0472
 3035poe    c3114809   5.105   5.053   6.463 -0.0700  0.0076  0.2468
 3035poe     o214810   4.996   4.965   6.443 -0.1139  0.2802 -0.7623
 3035poe    c2314811   5.051   4.861   6.365  0.3140 -0.3948  0.4196
 3035poe    c2314812   4.940   4.755   6.370 -0.1272  0.0573  0.2351
 3035poe     o214813   4.890   4.696   6.488  0.2196  0.4785  0.6015
 3035poe    c2314814   4.973   4.614   6.567  0.5913  0.5549  0.2950
 3035poe    c2314815   4.891   4.545   6.678  0.1971  0.6443  0.0615
 3035poe     o214816   4.822   4.643   6.752 -0.0663  0.5715 -0.0865
 3035poe    c2314817   4.761   4.585   6.865  0.4437  0.5340  0.1702
 3035poe    c2314818   4.673   4.692   6.932  0.1509  0.3399  0.0985
 3035poe     o214819   4.605   4.768   6.834 -0.3802 -0.2481  0.0075
 3035poe    c3114820   4.552   4.886   6.888  0.4483  0.0708  0.1414
 3036poe    c3114821   7.349   3.085   5.860 -0.0504  0.3182 -0.1286
 3036poe     o214822   7.326   3.167   5.972 -0.0280  0.1832 -0.0253
 3036poe    c2314823   7.193   3.151   6.016 -0.0046  0.5342  0.1793
 3036poe    c2314824   7.165   3.249   6.131 -0.6114  0.4945  0.0672
 3036poe     o214825   7.179   3.383   6.090  0.7557  0.4485  0.3451
 3036poe    c2314826   7.070   3.428   6.013  0.6749 -0.0393  0.1730
 3036poe    c2314827   7.105   3.567   5.957  0.9811 -0.2240 -0.0968
 3036poe     o214828   7.212   3.555   5.866  0.8081  0.1096 -0.3463
 3036poe    c2314829   7.239   3.684   5.816  0.6531  0.1704 -0.2747
 3036poe    c2314830   7.347   3.656   5.710  0.7002  0.0959 -0.2081
 3036poe     o214831   7.294   3.610   5.587  0.0421  0.6179 -0.1285
 3036poe    c3114832   7.396   3.581   5.494  0.0411  0.3988 -0.0626
 3037poe    c3114833   5.040   0.532   2.029 -0.1808  0.5725 -0.1316
 3037poe     o214834   4.913   0.584   1.997 -0.2637  0.2686 -0.3003
 3037poe    c2314835   4.800   0.515   2.047  0.2321 -0.1534  0.2602
 3037poe    c2314836   4.751   0.390   1.972  0.5462 -0.0154 -0.1806
 3037poe     o214837   4.744   0.421   1.835 -0.1133 -0.2010 -0.1910
 3037poe    c2314838   4.661   0.327   1.770  0.1733 -0.4807 -0.1554
 3037poe    c2314839   4.677   0.342   1.618  0.0223 -0.4562 -0.1690
 3037poe     o214840   4.651   0.472   1.569  0.0589 -0.2460  0.3716
 3037poe    c2314841   4.691   0.499   1.437 -0.1585  0.2570  0.4073
 3037poe    c2314842   4.733   0.647   1.428  0.5976  0.0081 -0.2462
 3037poe     o214843   4.622   0.727   1.463  0.1170 -0.3660 -0.8893
 3037poe    c3114844   4.636   0.843   1.384 -0.1623  0.3869  0.1556
 3038poe    c3114845   5.675   2.757   3.133  0.0681  0.8367 -0.1215
 3038poe     o214846   5.706   2.708   3.005 -0.0441 -0.1439  0.2140
 3038poe    c2314847   5.593   2.703   2.920 -0.0239 -0.4895  0.2082
 3038poe    c2314848   5.628   2.671   2.773  0.3217 -0.4803  0.2871
 3038poe     o214849   5.742   2.735   2.720  0.0194 -0.0100  0.1956
 3038poe    c2314850   5.719   2.870   2.686 -0.3955  0.1069  0.9159
 3038poe    c2314851   5.623   2.901   2.571  0.0769  0.3164  0.5758
 3038poe     o214852   5.673   2.879   2.441  0.5626 -0.4211  0.8843
 3038poe    c2314853   5.800   2.930   2.408 -0.0672  0.3534 -0.4356
 3038poe    c2314854   5.863   2.877   2.278 -0.4821 -0.1072 -0.4533
 3038poe     o214855   5.891   2.740   2.267  0.0559  0.0005 -0.4458
 3038poe    c3114856   5.995   2.697   2.353 -0.3216  0.2434  0.1401
 3039poe    c3114857   2.423   3.198   6.053 -0.2314 -0.1244 -0.1560
 3039poe     o214858   2.540   3.120   6.065 -0.0699  0.1598  0.1615
 3039poe    c2314859   2.528   3.024   5.963  0.3511 -0.2342  0.4799
 3039poe    c2314860   2.641   2.921   5.943  0.3201 -0.0699 -0.5958
 3039poe     o214861   2.759   2.996   5.921  0.4020 -0.0492 -0.0840
 3039poe    c2314862   2.846   2.906   5.857  0.0444 -0.4109 -0.0661
 3039poe    c2314863   2.973   2.977   5.807 -0.3913  0.5491  0.1696
 3039poe     o214864   3.066   3.019   5.904 -0.2056  0.6070 -0.0308
 3039poe    c2314865   3.192   3.064   5.861  0.0348 -0.2756 -0.2535
 3039poe    c2314866   3.293   3.044   5.976 -0.9569 -0.5671  0.5768
 3039poe     o214867   3.261   3.151   6.063 -0.0172  0.4194 -0.2722
 3039poe    c3114868   3.351   3.143   6.171  0.2340  0.4423 -0.4789
 3040poe    c3114869   6.056   5.844   4.053  0.2823 -0.1149  0.3050
 3040poe     o214870   6.073   5.718   3.992 -0.2890  0.1898 -0.5067
 3040poe    c2314871   6.126   5.620   4.078 -0.1570  0.5287 -0.2026
 3040poe    c2314872   6.203   5.503   4.015  0.5185  0.6171  0.4369
 3040poe     o214873   6.327   5.538   3.958  0.7024  0.2383  0.5997
 3040poe    c2314874   6.397   5.435   3.891 -0.4002 -0.2262  0.1326
 3040poe    c2314875   6.541   5.470   3.851 -0.4866 -0.8329 -0.7292
 3040poe     o214876   6.560   5.570   3.753  0.4563 -0.5616 -0.2916
 3040poe    c2314877   6.684   5.635   3.764  0.0780  0.1844 -0.4100
 3040poe    c2314878   6.709   5.732   3.646 -0.2261  0.1724 -0.4853
 3040poe     o214879   6.738   5.659   3.529  0.2236 -0.0597 -0.2323
 3040poe    c3114880   6.739   5.754   3.425  0.2208  0.1765 -0.0181
 3041poe    c3114881   2.530   7.057   4.150  0.4861  0.4724  0.3345
 3041poe     o214882   2.659   7.005   4.171  0.2436 -0.1778  0.2268
 3041poe    c2314883   2.682   6.873   4.126 -0.2313 -0.2306  0.1342
 3041poe    c2314884   2.818   6.821   4.177  0.0728  0.3746 -0.0502
 3041poe     o214885   2.917   6.884   4.099 -0.0411  0.1951 -0.3418
 3041poe    c2314886   3.051   6.871   4.141 -0.1679 -0.1547 -0.0394
 3041poe    c2314887   3.114   7.010   4.160  0.3090 -0.3623 -0.0988
 3041poe     o214888   3.082   7.070   4.283  0.2506 -0.0476 -0.2686
 3041poe    c2314889   3.195   7.136   4.336  0.1884 -0.1596  0.0021
 3041poe    c2314890   3.282   7.059   4.437 -0.0885 -0.2815  0.1500
 3041poe     o214891   3.240   7.062   4.572 -0.8279  0.6053 -0.0954
 3041poe    c3114892   3.281   6.948   4.642  0.0895  0.6926 -0.4704
 3042poe    c3114893   4.260   5.434   6.650 -0.0874 -0.4196  0.2653
 3042poe     o214894   4.169   5.332   6.617  0.0954 -0.5440  0.1391
 3042poe    c2314895   4.119   5.349   6.486  0.4585 -0.4370  0.0154
 3042poe    c2314896   4.013   5.460   6.474  0.8225 -0.1315 -0.4263
 3042poe     o214897   4.062   5.585   6.516  0.2650  0.0105 -0.1840
 3042poe    c2314898   4.095   5.669   6.407 -0.3172  0.1571 -0.2505
 3042poe    c2314899   4.154   5.806   6.445 -0.2040  0.1091 -0.2502
 3042poe     o214900   4.047   5.897   6.461 -0.1795  0.0064  0.5580
 3042poe    c2314901   4.095   6.003   6.541  0.1251  0.1187  0.2279
 3042poe    c2314902   3.992   6.115   6.565 -0.0855  0.1853 -0.9093
 3042poe     o214903   3.959   6.168   6.438  0.1395 -0.0441 -1.0657
 3042poe    c3114904   3.900   6.293   6.468 -0.0910 -0.4510  0.2764
 3043poe    c3114905   2.826   3.772   5.495 -0.7614 -0.1545  0.2536
 3043poe     o214906   2.911   3.669   5.540 -0.6226 -0.1214  0.0664
 3043poe    c2314907   2.989   3.620   5.433  0.0746  0.0951  0.4682
 3043poe    c2314908   3.022   3.470   5.450  0.3280  0.0494 -0.3517
 3043poe     o214909   2.906   3.395   5.421  0.1001  0.1745  0.2070
 3043poe    c2314910   2.901   3.264   5.472 -0.6660  0.0939 -0.0568
 3043poe    c2314911   2.774   3.186   5.433 -0.1226 -0.9217  0.1751
 3043poe     o214912   2.782   3.150   5.297 -0.3547  0.5659 -0.2450
 3043poe    c2314913   2.655   3.107   5.253  0.2149 -1.6383  0.1588
 3043poe    c2314914   2.662   3.088   5.100  0.1179  0.4833 -0.1482
 3043poe     o214915   2.696   3.206   5.031  0.8130  0.1856 -0.3251
 3043poe    c3114916   2.702   3.182   4.892  0.0359 -0.5888 -0.2327
 3044poe    c3114917   7.294   4.258   7.248  0.2431 -0.0907  0.1427
 3044poe     o214918   7.172   4.200   7.209 -0.0402  0.0931  0.7452
 3044poe    c2314919   7.070   4.228   7.302 -0.1827  0.9477  0.3351
 3044poe    c2314920   6.928   4.184   7.262 -0.0921  0.5584  0.4425
 3044poe     o214921   6.871   4.260   7.158 -0.0748 -0.2257 -0.1534
 3044poe    c2314922   6.755   4.182   7.137 -0.1400 -0.1002 -0.2655
 3044poe    c2314923   6.699   4.215   6.998  0.3874  0.0937 -0.4362
 3044poe     o214924   6.657   4.349   6.992 -0.7673 -0.2735 -0.9135
 3044poe    c2314925   6.525   4.362   7.042 -0.1645 -0.5047  0.8133
 3044poe    c2314926   6.469   4.500   7.080 -0.5691 -0.4382  0.0097
 3044poe     o214927   6.491   4.585   6.970  0.1125  0.1132  0.5577
 3044poe    c3114928   6.427   4.708   6.991 -0.3567  0.0360 -0.3913
 3045poe    c3114929   1.983   2.020   5.223 -0.3422 -0.2336  0.0175
 3045poe     o214930   1.996   2.145   5.159 -0.3075 -0.0981  0.2836
 3045poe    c2314931   1.916   2.240   5.223  0.4887  0.4549  0.4725
 3045poe    c2314932   1.953   2.380   5.171 -0.2616  0.4260 -0.1504
 3045poe     o214933   2.090   2.413   5.170 -0.1971  0.1512 -0.4277
 3045poe    c2314934   2.126   2.546   5.144 -0.1138  0.3908  0.8497
 3045poe    c2314935   2.277   2.566   5.118 -0.2056  0.0678  0.0319
 3045poe     o214936   2.307   2.576   4.981 -0.0882  0.1441  0.0631
 3045poe    c2314937   2.441   2.607   4.949 -0.0449  0.2060  0.3011
 3045poe    c2314938   2.497   2.597   4.806 -0.1534  0.0161  0.2721
 3045poe     o214939   2.517   2.478   4.732 -0.4643  0.1642 -0.0500
 3045poe    c3114940   2.558   2.509   4.600  0.1859 -0.1115  0.0865
 3046poe    c3114941   1.993   6.898   6.368  0.0938  0.3187  0.1251
 3046poe     o214942   2.127   6.928   6.401  0.0496  0.3079  0.3099
 3046poe    c2314943   2.135   6.950   6.540  0.3376 -1.1830  0.5442
 3046poe    c2314944   2.280   6.943   6.591  0.3479 -0.3660  0.6318
 3046poe     o214945   2.363   7.044   6.537 -0.2506 -0.1302  0.1308
 3046poe    c2314946   2.487   7.047   6.604 -0.0503  0.2356 -0.2562
 3046poe    c2314947   2.576   7.157   6.544  0.1154  0.2537  0.0188
 3046poe     o214948   2.582   7.108   6.412 -0.2647  0.2413  0.0047
 3046poe    c2314949   2.682   7.163   6.328 -0.6917  0.0849 -0.6147
 3046poe    c2314950   2.636   7.115   6.189 -0.6428 -0.4193 -0.4592
 3046poe     o214951   2.498   7.142   6.182 -0.5698  0.1051  0.0202
 3046poe    c3114952   2.459   7.209   6.064 -1.1568 -0.2095  0.0316
 3047poe    c3114953   0.291   7.075   0.377  0.3035  0.6087 -0.1028
 3047poe     o214954   0.194   7.115   0.283 -0.2408 -0.1772  0.1101
 3047poe    c2314955   0.209   7.040   0.164  0.3826  0.8725 -0.4933
 3047poe    c2314956   0.104   7.093   0.064 -0.7551  0.3112  0.3801
 3047poe     o214957   0.129   7.225   0.023 -0.1399  0.0558 -0.0931
 3047poe    c2314958   0.014   7.285  -0.033  0.1306 -0.0556 -0.7733
 3047poe    c2314959   0.035   7.413  -0.116 -0.3264  0.1833 -0.5236
 3047poe     o214960   0.053   7.530  -0.040  0.5985 -0.0971 -0.3073
 3047poe    c2314961   0.071   7.654  -0.105 -0.2867  0.3554  0.2937
 3047poe    c2314962   0.075   7.762   0.004 -0.5040  0.8158 -0.1517
 3047poe     o214963   0.192   7.798   0.074 -0.3248 -0.2258  0.1022
 3047poe    c3114964   0.252   7.698   0.154 -0.3165 -0.8392 -0.6614
 3048poe    c3114965   0.164   7.308   3.120  0.1390 -0.2798  0.2846
 3048poe     o214966   0.230   7.351   3.003 -0.3851  0.5020  0.2709
 3048poe    c2314967   0.133   7.379   2.905 -0.2213  0.7191  0.1703
 3048poe    c2314968   0.194   7.355   2.766 -0.2034 -0.3758  0.3654
 3048poe     o214969   0.251   7.236   2.714  0.3468  0.1383 -0.2329
 3048poe    c2314970   0.322   7.276   2.599  0.1081  0.6032 -0.2232
 3048poe    c2314971   0.388   7.163   2.518  0.1770  0.4409  0.0572
 3048poe     o214972   0.500   7.115   2.589 -0.0702 -0.0565  0.1170
 3048poe    c2314973   0.577   7.011   2.531  0.1185 -0.0015  0.2667
 3048poe    c2314974   0.719   7.004   2.589 -0.0314  0.2260  0.6685
 3048poe     o214975   0.727   6.990   2.729  0.0652  0.6025  0.7004
 3048poe    c3114976   0.845   6.929   2.778 -0.0484 -0.4389 -0.2980
 3049poe    c3114977   1.965   3.636   1.289  0.2008 -0.3151 -0.4928
 3049poe     o214978   1.996   3.747   1.207  0.2219 -0.1073 -0.2077
 3049poe    c2314979   1.903   3.852   1.203  0.2813 -0.0519 -0.1362
 3049poe    c2314980   1.905   3.916   1.063 -0.2794 -0.4152 -0.3174
 3049poe     o214981   2.040   3.955   1.049 -0.1450 -0.7652 -0.0102
 3049poe    c2314982   2.061   3.990   0.914  0.2839 -0.1031  0.2209
 3049poe    c2314983   2.190   4.070   0.889  0.2397 -0.0307  0.2209
 3049poe     o214984   2.182   4.196   0.952  1.0578 -0.0774  0.4296
 3049poe    c2314985   2.289   4.279   0.912  0.5043  0.2601 -0.3812
 3049poe    c2314986   2.400   4.295   1.018 -0.1142 -0.0107  0.3192
 3049poe     o214987   2.468   4.173   1.037  0.1466  0.0690 -0.0861
 3049poe    c3114988   2.587   4.178   1.112 -0.1115  0.9341  0.2764
 3050poe    c3114989   0.385   3.588   5.985 -0.6009  0.6217 -0.2703
 3050poe     o214990   0.310   3.546   6.097 -0.1443 -0.4026 -0.3400
 3050poe    c2314991   0.273   3.656   6.177 -0.4311 -0.5046 -0.3299
 3050poe    c2314992   0.234   3.592   6.311  0.3801  0.1362  0.2197
 3050poe     o214993   0.157   3.478   6.284  0.7242 -0.1262  0.3328
 3050poe    c2314994   0.136   3.393   6.395  0.8558 -0.1558  0.3349
 3050poe    c2314995   0.066   3.259   6.365  0.4416  0.3339 -0.9999
 3050poe     o214996   0.156   3.180   6.291 -0.0225 -0.4832 -0.7011
 3050poe    c2314997   0.124   3.044   6.312  0.0569 -0.3525  0.2857
 3050poe    c2314998   0.211   2.942   6.237 -0.4295  0.0345 -0.8156
 3050poe     o214999   0.230   2.983   6.103  0.0621  0.3377 -0.6533
 3050poe    c3115000   0.305   2.898   6.020 -0.3191 -0.2140 -0.4345
 3051poe    c3115001   2.981   5.359   3.257 -0.4539 -0.2091  0.1625
 3051poe     o215002   3.092   5.415   3.191 -0.1530 -0.4217  0.4849
 3051poe    c2315003   3.184   5.466   3.284  0.2034 -0.1860  0.0095
 3051poe    c2315004   3.312   5.509   3.209  0.1632 -0.7725 -0.3968
 3051poe     o215005   3.284   5.625   3.134  0.1108 -0.4977  0.0421
 3051poe    c2315006   3.385   5.685   3.057 -0.0509 -0.5019 -0.1727
 3051poe    c2315007   3.343   5.775   2.939 -0.4754 -0.0532  0.3175
 3051poe     o215008   3.249   5.716   2.853 -0.4118  0.1739  0.0909
 3051poe    c2315009   3.202   5.813   2.763 -0.1809 -0.3294 -0.5860
 3051poe    c2315010   3.135   5.733   2.649  0.6347 -0.6510 -0.8424
 3051poe     o215011   3.050   5.633   2.702  0.4248 -0.0998 -0.1258
 3051poe    c3115012   2.981   5.590   2.587  0.1101 -0.6512  0.2671
 3052poe    c3115013   4.053   0.176   1.766  0.4897  0.2691  0.0909
 3052poe     o215014   3.961   0.070   1.763 -0.1985  0.8576  0.2413
 3052poe    c2315015   3.834   0.107   1.813 -0.3722  0.6327 -0.0308
 3052poe    c2315016   3.718   0.013   1.777  0.0492  0.0013  0.2464
 3052poe     o215017   3.701  -0.107   1.849  0.4397 -0.1172  0.1414
 3052poe    c2315018   3.626  -0.205   1.780  0.3353  0.2504 -0.2726
 3052poe    c2315019   3.576  -0.319   1.871  0.0565  0.2047 -0.4819
 3052poe     o215020   3.503  -0.258   1.975  0.1645 -0.5092  0.0141
 3052poe    c2315021   3.426  -0.360   2.036 -0.1251 -0.4912 -0.3164
 3052poe    c2315022   3.300  -0.318   2.113  0.1716 -0.2974  0.0674
 3052poe     o215023   3.346  -0.225   2.209  0.2407  0.4063 -0.6415
 3052poe    c3115024   3.237  -0.141   2.241 -0.3656 -0.6141  0.0203
 3053poe    c3115025   4.061   2.802   3.288 -0.4019 -0.5254 -0.1582
 3053poe     o215026   4.128   2.925   3.270 -0.7961 -0.3880 -0.6965
 3053poe    c2315027   4.234   2.906   3.180  0.0201 -0.3577  0.2433
 3053poe    c2315028   4.349   3.002   3.218  0.2755 -0.6122  0.1190
 3053poe     o215029   4.392   2.982   3.351  0.2602 -1.0129  0.0653
 3053poe    c2315030   4.518   3.043   3.365 -0.1277 -0.1779 -0.0446
 3053poe    c2315031   4.561   3.022   3.512  0.3817 -0.5971 -0.2530
 3053poe     o215032   4.455   3.075   3.587  0.2292 -0.1260 -0.7940
 3053poe    c2315033   4.493   3.087   3.722 -0.0068  0.1253 -0.7499
 3053poe    c2315034   4.358   3.109   3.795  0.0850  0.2496 -0.6158
 3053poe     o215035   4.265   3.014   3.750 -0.3313  0.3420  0.0454
 3053poe    c3115036   4.147   3.035   3.824  0.0006 -0.3608  0.7996
 3054poe    c3115037   0.223   3.102   1.455 -0.4891 -0.5474 -0.8707
 3054poe     o215038   0.129   3.043   1.542 -0.0325  0.0576  0.0608
 3054poe    c2315039   0.046   2.940   1.492 -0.1362 -0.0611  0.4762
 3054poe    c2315040   0.122   2.807   1.500  0.4277  0.2229 -0.1318
 3054poe     o215041   0.143   2.769   1.634  0.0352  0.0227 -0.1261
 3054poe    c2315042   0.175   2.634   1.661 -1.0248 -0.1698  0.2268
 3054poe    c2315043   0.234   2.631   1.804  0.2034  0.1416 -0.2544
 3054poe     o215044   0.162   2.714   1.892  0.7672  0.8393 -0.4487
 3054poe    c2315045   0.231   2.737   2.012 -0.2405  0.4692  0.2093
 3054poe    c2315046   0.146   2.813   2.115  0.1128  0.1753  0.7253
 3054poe     o215047   0.075   2.909   2.041  0.6041  0.1158  0.1719
 3054poe    c3115048  -0.007   2.993   2.119  0.4584  0.1140  0.0224
 3055poe    c3115049   1.911   4.348   0.284  0.4256  0.1727  0.3393
 3055poe     o215050   1.968   4.332   0.412  0.0289  0.2113  0.5215
 3055poe    c2315051   2.098   4.278   0.402 -0.0251  0.1389  0.2076
 3055poe    c2315052   2.181   4.287   0.531  0.1277 -0.1054  0.1271
 3055poe     o215053   2.210   4.418   0.574  0.2278  0.1321 -0.6486
 3055poe    c2315054   2.311   4.496   0.514  0.6082  0.5124  0.4650
 3055poe    c2315055   2.445   4.452   0.575  0.3342  0.0133  0.7109
 3055poe     o215056   2.554   4.466   0.486 -0.0157  0.0939  0.2943
 3055poe    c2315057   2.593   4.601   0.475  0.1185  0.0158 -0.2337
 3055poe    c2315058   2.733   4.634   0.420  0.5846 -0.5296  0.5974
 3055poe     o215059   2.834   4.592   0.509  0.4779  0.3518  1.1455
 3055poe    c3115060   2.961   4.611   0.453 -0.1368  0.1231 -0.3695
 3056poe    c3115061   0.024   0.844   3.457  0.2821  0.7442 -0.1276
 3056poe     o215062   0.023   0.979   3.416  0.3056  0.7254 -0.1891
 3056poe    c2315063  -0.034   1.002   3.288 -0.4098  0.1039  0.0120
 3056poe    c2315064   0.062   0.959   3.176  0.1032  0.6808  0.2260
 3056poe     o215065   0.180   1.036   3.164  0.0774  0.6657 -0.1480
 3056poe    c2315066   0.237   1.009   3.038 -0.0756  0.1320 -0.1044
 3056poe    c2315067   0.211   1.124   2.940 -0.3051  0.6596  0.5714
 3056poe     o215068   0.272   1.239   2.995 -0.4094  0.9398  0.1113
 3056poe    c2315069   0.362   1.308   2.911  0.5937  0.0716  0.4528
 3056poe    c2315070   0.412   1.431   2.988  0.0973  0.1948  0.5838
 3056poe     o215071   0.300   1.497   3.043 -0.5816 -0.2126 -0.2881
 3056poe    c3115072   0.325   1.635   3.055  0.0980 -0.3230 -0.3786
 3057poe    c3115073   4.742   2.974   6.646 -0.1192 -0.4642 -0.2260
 3057poe     o215074   4.784   2.990   6.780 -0.0172  0.2191 -0.3361
 3057poe    c2315075   4.831   3.120   6.805 -0.4321  0.3020  0.0224
 3057poe    c2315076   4.823   3.144   6.957  0.2721  0.1004  0.0955
 3057poe     o215077   4.900   3.041   7.015  0.1337 -0.3678 -0.5414
 3057poe    c2315078   4.905   3.053   7.156 -0.1721 -0.9990 -0.4727
 3057poe    c2315079   4.973   2.920   7.193  0.9065 -0.4340 -0.3773
 3057poe     o215080   4.891   2.822   7.133  0.1942 -0.2806  0.3344
 3057poe    c2315081   4.848   2.703   7.195 -0.6101  0.0290  0.3925
 3057poe    c2315082   4.955   2.617   7.265 -0.0907  0.4538  0.1353
 3057poe     o215083   5.036   2.557   7.166  0.2181  0.4657  0.3802
 3057poe    c3115084   5.148   2.483   7.209  0.6218  0.8917  0.0779
 3058poe    c3115085   6.611   0.977   6.082  0.0233  0.1016  0.0409
 3058poe     o215086   6.554   0.898   6.184  0.4170  0.1143  0.2707
 3058poe    c2315087   6.642   0.791   6.209  0.1873 -0.2940 -0.6238
 3058poe    c2315088   6.610   0.697   6.327 -0.6104  0.9791  0.1961
 3058poe     o215089   6.515   0.603   6.283  0.8109 -0.1994 -0.4585
 3058poe    c2315090   6.486   0.517   6.390  0.4230  0.6253  0.1067
 3058poe    c2315091   6.588   0.410   6.431 -0.0105  0.0782 -0.2291
 3058poe     o215092   6.582   0.283   6.368  0.1086 -0.2899  0.4904
 3058poe    c2315093   6.699   0.204   6.364  0.3123  0.0154  0.2880
 3058poe    c2315094   6.690   0.085   6.462  0.3790 -0.1594  0.0827
 3058poe     o215095   6.683   0.113   6.600  0.1255  0.1940  0.0008
 3058poe    c3115096   6.763   0.041   6.692  0.0832  0.0913 -0.0426
 3059poe    c3115097   1.221   2.243   5.268  0.0983 -0.2213 -0.5476
 3059poe     o215098   1.172   2.354   5.196 -0.1287  0.0440  0.0022
 3059poe    c2315099   1.270   2.396   5.103 -0.5853 -0.6855 -0.8311
 3059poe    c2315100   1.238   2.522   5.020 -0.1999  0.0051  0.0473
 3059poe     o215101   1.343   2.603   4.972 -0.2193  0.0664  0.1075
 3059poe    c2315102   1.408   2.685   5.066  0.4448  0.0158 -0.3042
 3059poe    c2315103   1.466   2.806   4.991 -0.2222  0.5330  0.0114
 3059poe     o215104   1.570   2.879   5.052  0.5784 -0.2312 -0.4322
 3059poe    c2315105   1.545   3.013   5.016  0.6872 -0.0302  0.2269
 3059poe    c2315106   1.681   3.084   5.014  0.6986 -0.0544  0.1275
 3059poe     o215107   1.681   3.219   4.973 -0.2788 -0.3267 -0.7930
 3059poe    c3115108   1.697   3.296   5.090 -0.5926 -0.1318 -0.8761
 3060poe    c3115109   6.195   2.589   1.993 -0.0861  0.5671 -0.0650
 3060poe     o215110   6.246   2.473   2.054 -0.2864  0.1202 -0.7385
 3060poe    c2315111   6.377   2.489   2.105 -0.3786 -0.3047 -0.3585
 3060poe    c2315112   6.465   2.364   2.089  0.1660 -0.0025  0.2322
 3060poe     o215113   6.464   2.331   1.952 -0.2044  0.3754  0.1430
 3060poe    c2315114   6.441   2.200   1.905 -0.8372  0.4748  0.1730
 3060poe    c2315115   6.407   2.191   1.755  0.0044  0.3241 -0.0149
 3060poe     o215116   6.287   2.253   1.716 -0.0516  0.2748  0.0770
 3060poe    c2315117   6.262   2.213   1.583 -0.4307  0.3478  0.1242
 3060poe    c2315118   6.114   2.236   1.546 -0.3281 -0.3559 -0.7770
 3060poe     o215119   6.028   2.174   1.638  0.2480  0.0175  0.0327
 3060poe    c3115120   5.900   2.151   1.584  0.1993 -0.2758  0.2710
 3061poe    c3115121   0.013   6.839   0.631 -0.2345 -0.1787 -0.6918
 3061poe     o215122  -0.065   6.945   0.682  0.2809 -0.2221  0.2186
 3061poe    c2315123  -0.186   6.940   0.609  0.3490  0.2143  0.0737
 3061poe    c2315124  -0.286   7.057   0.617  0.2002  0.0852  0.1020
 3061poe     o215125  -0.220   7.157   0.541 -0.2303 -0.0685 -0.4835
 3061poe    c2315126  -0.300   7.271   0.520  0.0504  0.1505 -0.3786
 3061poe    c2315127  -0.245   7.400   0.457  0.5441  0.2894  0.3371
 3061poe     o215128  -0.132   7.458   0.519  0.5913  0.0031  0.5250
 3061poe    c2315129  -0.142   7.599   0.508 -0.0556 -0.0663  0.1914
 3061poe    c2315130  -0.020   7.661   0.579  0.4090 -0.2538 -0.4441
 3061poe     o215131   0.094   7.586   0.544  0.3874 -0.2734 -0.4742
 3061poe    c3115132   0.209   7.658   0.583  0.2401 -0.1084 -0.3432
 3062poe    c3115133   3.858   6.688   0.721 -0.1221 -0.2526  0.3061
 3062poe     o215134   3.916   6.785   0.637 -0.2849 -0.0114  0.4745
 3062poe    c2315135   3.865   6.916   0.653  0.2227  0.2619 -0.0891
 3062poe    c2315136   3.918   7.023   0.557 -0.4341  0.7670  0.1077
 3062poe     o215137   4.045   7.071   0.593 -0.0468  0.2643 -0.5558
 3062poe    c2315138   4.150   6.998   0.536  0.0406  0.4045 -0.5761
 3062poe    c2315139   4.294   7.027   0.583 -0.3004  0.5444  0.3903
 3062poe     o215140   4.309   7.021   0.723 -0.3009 -0.2171  0.3641
 3062poe    c2315141   4.447   7.020   0.750 -0.1899  0.7086 -0.1456
 3062poe    c2315142   4.479   6.942   0.879 -0.1207  0.1020 -0.5294
 3062poe     o215143   4.440   6.807   0.869  0.1596 -0.0555  0.3905
 3062poe    c3115144   4.481   6.732   0.981  0.1290  0.0748  0.4882
 3063poe    c3115145   0.477   5.228   5.406 -0.9101 -0.3992 -0.1605
 3063poe     o215146   0.550   5.107   5.404 -0.1957  0.0351 -0.2499
 3063poe    c2315147   0.475   5.009   5.337 -0.3760  0.0279 -0.0378
 3063poe    c2315148   0.574   4.891   5.350  0.2515  0.5184 -0.2999
 3063poe     o215149   0.686   4.903   5.266  0.7464 -0.0681  0.2695
 3063poe    c2315150   0.655   4.847   5.140 -0.0574  0.4093  0.2487
 3063poe    c2315151   0.765   4.871   5.036 -0.2427  0.6369  0.1043
 3063poe     o215152   0.791   5.007   5.008  0.0573  0.5987  0.1859
 3063poe    c2315153   0.725   5.076   4.904 -0.1822  0.4523  0.2418
 3063poe    c2315154   0.796   5.205   4.863  0.1109  0.2596  0.1416
 3063poe     o215155   0.916   5.148   4.816  0.1130  0.0722  0.3755
 3063poe    c3115156   0.992   5.248   4.751  0.2385 -0.6978 -0.6746
 3064poe    c3115157   6.916   1.850   4.289 -0.2142  0.0288  0.3769
 3064poe     o215158   7.032   1.887   4.360 -0.2313  0.2984  0.2666
 3064poe    c2315159   7.060   2.024   4.343  0.0108  0.2762  0.4749
 3064poe    c2315160   7.207   2.050   4.307  0.0399 -0.9782 -0.4034
 3064poe     o215161   7.288   1.989   4.405  0.1787  0.1625  0.2197
 3064poe    c2315162   7.426   1.986   4.377  0.2007 -0.2291  0.3541
 3064poe    c2315163   7.500   1.972   4.511  0.0425  0.4468  0.5181
 3064poe     o215164   7.469   1.844   4.562  0.5088  0.2653  0.3595
 3064poe    c2315165   7.529   1.813   4.686  0.7101 -0.0924  0.1720
 3064poe    c2315166   7.481   1.680   4.747 -0.2487  0.2703  0.2124
 3064poe     o215167   7.340   1.686   4.757 -0.3396 -0.2444 -0.6420
 3064poe    c3115168   7.297   1.559   4.800 -0.1709  0.1099  0.6157
 3065poe    c3115169   4.674   2.823   3.080 -0.3506 -0.0724 -0.3217
 3065poe     o215170   4.653   2.708   3.158  0.1481  0.0772  0.0375
 3065poe    c2315171   4.666   2.591   3.080  0.6041 -0.0101  0.2398
 3065poe    c2315172   4.687   2.465   3.167 -0.2087 -0.3344 -0.0247
 3065poe     o215173   4.573   2.392   3.205 -0.6344  0.4646  0.2445
 3065poe    c2315174   4.624   2.278   3.269 -0.1550  0.4713 -0.1253
 3065poe    c2315175   4.537   2.152   3.257  0.1591  0.3039 -0.6986
 3065poe     o215176   4.602   2.038   3.306  0.3480  0.6014 -0.2570
 3065poe    c2315177   4.555   1.929   3.229  0.6654  0.0641  0.2921
 3065poe    c2315178   4.554   1.796   3.305 -0.2827 -0.0032  0.1711
 3065poe     o215179   4.444   1.780   3.391 -0.2202  0.0569  0.2620
 3065poe    c3115180   4.429   1.655   3.454 -0.4812 -0.0862 -0.0844
 3066poe    c3115181   0.725   3.805   6.029 -0.3906 -0.0622  0.0415
 3066poe     o215182   0.759   3.934   6.075 -0.1560 -0.2009  0.2628
 3066poe    c2315183   0.636   4.004   6.071 -0.1663 -0.2342 -0.0265
 3066poe    c2315184   0.660   4.150   6.113 -0.6813 -0.1626  0.0140
 3066poe     o215185   0.704   4.169   6.245  0.0985  0.0601 -0.2730
 3066poe    c2315186   0.730   4.306   6.264 -0.6510  0.1502  0.1457
 3066poe    c2315187   0.794   4.348   6.398 -0.3026  0.3797 -0.0903
 3066poe     o215188   0.919   4.288   6.422 -0.3037  0.4438  0.0764
 3066poe    c2315189   0.980   4.327   6.543 -0.3815  0.1659  0.2048
 3066poe    c2315190   1.130   4.298   6.563 -0.2123  0.9324  0.0661
 3066poe     o215191   1.204   4.359   6.460  0.5689 -0.8832 -0.4976
 3066poe    c3115192   1.340   4.335   6.485  0.6502 -0.3032 -0.3542
 3067poe    c3115193   1.226   7.130   5.526  0.1559  0.2284  0.4363
 3067poe     o215194   1.353   7.146   5.584  0.5775  0.4391 -0.5311
 3067poe    c2315195   1.454   7.083   5.507  0.1705 -0.6215 -0.2088
 3067poe    c2315196   1.577   7.031   5.584  0.3412 -0.6192 -0.4834
 3067poe     o215197   1.546   6.960   5.701  0.0026 -0.0789 -0.2432
 3067poe    c2315198   1.657   6.912   5.774 -0.0878 -0.2454 -0.2133
 3067poe    c2315199   1.620   6.791   5.862 -0.2419 -0.3833 -0.4657
 3067poe     o215200   1.492   6.820   5.914  0.1793  0.1249  0.3168
 3067poe    c2315201   1.451   6.701   5.976  0.5041  0.1866  0.6552
 3067poe    c2315202   1.327   6.726   6.063 -0.2405 -0.5649 -0.1614
 3067poe     o215203   1.355   6.830   6.155 -0.2743 -0.1026 -0.6677
 3067poe    c3115204   1.225   6.879   6.177 -0.1076  0.3098 -0.6019
 3068poe    c3115205   5.875   0.232   6.211 -0.0173 -0.2295 -0.2507
 3068poe     o215206   5.983   0.261   6.126 -0.4843 -0.0689 -0.7956
 3068poe    c2315207   6.036   0.389   6.153 -0.0759 -0.3122 -0.4266
 3068poe    c2315208   6.163   0.420   6.071  0.4498 -0.3718  0.3624
 3068poe     o215209   6.279   0.346   6.103  0.6932 -0.3776 -0.5292
 3068poe    c2315210   6.388   0.388   6.023  0.6138  0.1583 -0.3614
 3068poe    c2315211   6.519   0.307   6.033  0.2843 -0.2736  0.7022
 3068poe     o215212   6.492   0.185   5.969  0.1141  0.0104  0.2237
 3068poe    c2315213   6.607   0.103   5.973 -0.1745 -0.4372 -0.4104
 3068poe    c2315214   6.573  -0.024   6.053 -0.2105 -0.2632 -0.1487
 3068poe     o215215   6.482  -0.112   5.989 -0.3111 -0.1106 -0.2168
 3068poe    c3115216   6.462  -0.207   6.091 -0.1139  0.6912  0.5894
 3069poe    c3115217   3.220   7.234   4.849 -0.0684  0.0938  0.2936
 3069poe     o215218   3.201   7.370   4.815 -0.2802 -0.1571 -0.6357
 3069poe    c2315219   3.297   7.416   4.723  0.4582 -0.3806  0.0057
 3069poe    c2315220   3.264   7.564   4.697 -0.1593 -0.4117  0.5970
 3069poe     o215221   3.133   7.564   4.645 -0.0450  0.2985  0.2997
 3069poe    c2315222   3.096   7.683   4.579 -0.0954 -0.1914 -0.5712
 3069poe    c2315223   2.950   7.726   4.605  0.0458 -0.1871  0.2135
 3069poe     o215224   2.863   7.625   4.561 -0.3430  0.1528  0.2031
 3069poe    c2315225   2.724   7.651   4.571 -0.3998  0.1048 -0.4642
 3069poe    c2315226   2.657   7.538   4.490  0.1492 -0.0622 -0.6947
 3069poe     o215227   2.708   7.413   4.532 -0.2028 -0.0869 -0.3359
 3069poe    c3115228   2.633   7.300   4.494 -0.5438 -0.0641  0.2464
 3070poe    c3115229   1.174   1.000   1.946  0.0275 -0.0817  0.1647
 3070poe     o215230   1.055   1.056   1.894 -0.0097  0.1922  0.5432
 3070poe    c2315231   1.078   1.130   1.776 -0.0827 -0.2630  0.2412
 3070poe    c2315232   0.982   1.051   1.686  0.2106 -0.2667 -0.0700
 3070poe     o215233   0.850   1.061   1.736  0.2084 -0.3492 -0.0589
 3070poe    c2315234   0.754   0.970   1.688  0.3472 -0.7661  0.4396
 3070poe    c2315235   0.647   0.969   1.799  0.1470 -0.6110  0.2490
 3070poe     o215236   0.724   0.978   1.917  0.7733 -0.5723 -0.1573
 3070poe    c2315237   0.643   0.985   2.032  0.1303 -0.6571 -0.5991
 3070poe    c2315238   0.745   0.973   2.146 -0.6078  0.1366  0.1598
 3070poe     o215239   0.849   1.065   2.122 -0.4859  0.1478  0.7075
 3070poe    c3115240   0.947   1.054   2.223  0.0284 -0.1303  0.1810
 3071poe    c3115241   3.296   5.821   1.244 -0.0845  0.1907  0.1252
 3071poe     o215242   3.411   5.766   1.183 -0.0694 -0.1958  0.4911
 3071poe    c2315243   3.459   5.658   1.260  0.2406 -0.5279 -0.1612
 3071poe    c2315244   3.583   5.713   1.334  0.1197 -0.2219 -0.1821
 3071poe     o215245   3.685   5.719   1.237 -0.2182 -0.1686 -0.5373
 3071poe    c2315246   3.725   5.852   1.212  0.4725 -0.0224  1.1869
 3071poe    c2315247   3.852   5.852   1.124 -0.0756  0.5795  0.3695
 3071poe     o215248   3.840   5.771   1.010 -0.3989  0.2830  0.6108
 3071poe    c2315249   3.963   5.767   0.940 -0.7912  0.0576 -0.0720
 3071poe    c2315250   3.974   5.677   0.815 -0.4275  0.2575 -0.1852
 3071poe     o215251   3.898   5.734   0.711 -0.0875 -0.3494 -0.7691
 3071poe    c3115252   3.963   5.734   0.586  1.0036 -0.2068 -0.2156
 3072poe    c3115253   0.414   5.929   1.810 -0.2516 -0.0212  0.8279
 3072poe     o215254   0.276   5.904   1.822 -0.2627 -0.2523  0.2553
 3072poe    c2315255   0.223   6.033   1.805  0.5829  0.0866  0.1469
 3072poe    c2315256   0.079   6.035   1.751  0.3868  0.2172  0.6608
 3072poe     o215257  -0.001   5.966   1.844 -0.0403 -0.5445 -0.2490
 3072poe    c2315258  -0.134   6.013   1.832  0.1466  0.1436  0.2649
 3072poe    c2315259  -0.227   5.896   1.869  0.0522  0.0881 -0.1384
 3072poe     o215260  -0.192   5.820   1.983 -0.0926  0.1581 -0.0464
 3072poe    c2315261  -0.254   5.694   1.987 -0.1151  0.1807  0.3410
 3072poe    c2315262  -0.192   5.623   2.109  0.3268 -0.9506 -0.5246
 3072poe     o215263  -0.052   5.642   2.113  0.1903 -0.1102  0.5687
 3072poe    c3115264   0.013   5.524   2.153 -0.4113 -0.4819  0.4745
 3073poe    c3115265   1.111   3.576   0.679  0.0744 -0.1138  0.0157
 3073poe     o215266   1.126   3.599   0.541  0.0843  0.3911  0.0993
 3073poe    c2315267   1.008   3.559   0.475  0.2778  0.2802 -0.1826
 3073poe    c2315268   1.044   3.526   0.329  0.5415  0.6405 -0.1997
 3073poe     o215269   1.109   3.404   0.300 -0.1229  0.1752  0.2299
 3073poe    c2315270   1.118   3.390   0.160 -0.1113  0.5291  0.1929
 3073poe    c2315271   1.225   3.292   0.107 -0.8325 -0.0452 -0.2240
 3073poe     o215272   1.194   3.155   0.110 -0.0579 -0.2249 -0.1756
 3073poe    c2315273   1.320   3.093   0.097  0.1664  0.2448 -0.2442
 3073poe    c2315274   1.274   2.956   0.149  0.0695  0.2409 -0.3398
 3073poe     o215275   1.182   2.891   0.065  0.1953  0.0180 -0.3038
 3073poe    c3115276   1.200   2.751   0.057 -0.5445 -0.0421 -1.1515
 3074poe    c3115277   5.161   6.708   6.475  0.0277  0.2898 -0.3897
 3074poe     o215278   5.163   6.765   6.345 -0.0260 -0.1264 -0.5745
 3074poe    c2315279   5.213   6.896   6.336 -0.0850 -0.0957 -0.4650
 3074poe    c2315280   5.169   7.003   6.437 -0.0777  0.0051 -0.5681
 3074poe     o215281   5.032   7.032   6.417 -0.1835 -0.3176 -0.3106
 3074poe    c2315282   4.963   7.094   6.523  0.1859  0.3155 -0.4349
 3074poe    c2315283   4.851   7.162   6.443  0.0912  0.1404 -0.4539
 3074poe     o215284   4.782   7.080   6.352 -0.0858  0.2086 -0.3824
 3074poe    c2315285   4.644   7.102   6.338 -0.0992 -0.0060 -0.5926
 3074poe    c2315286   4.582   7.068   6.201 -0.2249  0.7149 -0.7204
 3074poe     o215287   4.572   6.928   6.182  0.4631  0.6124 -0.3293
 3074poe    c3115288   4.478   6.888   6.086  0.5032  0.1361 -0.1730
 3075poe    c3115289   2.283   1.846   4.681 -0.3176 -0.2918 -0.0601
 3075poe     o215290   2.326   1.819   4.813  0.9503 -0.6080 -0.5299
 3075poe    c2315291   2.465   1.845   4.811  0.9607 -0.5550  0.4408
 3075poe    c2315292   2.521   1.811   4.950  0.4712  0.0060  0.7827
 3075poe     o215293   2.435   1.720   5.015  0.2299  0.2413  0.7950
 3075poe    c2315294   2.463   1.693   5.151  0.6692 -0.3224  0.5954
 3075poe    c2315295   2.383   1.568   5.192 -0.0287  0.2457  0.9867
 3075poe     o215296   2.247   1.603   5.200 -0.1736 -0.2599  0.7533
 3075poe    c2315297   2.175   1.501   5.265 -0.6461 -0.8606 -0.6754
 3075poe    c2315298   2.027   1.540   5.283 -0.5321 -0.7042 -0.0329
 3075poe     o215299   1.968   1.588   5.164  0.4927  0.1779 -0.1941
 3075poe    c3115300   1.851   1.514   5.141  0.2640  0.4892 -0.0339
 3076poe    c3115301   1.319   4.662   5.972 -0.1730  0.2006  0.1606
 3076poe     o215302   1.214   4.662   5.878  0.0983 -0.3732 -0.1488
 3076poe    c2315303   1.247   4.710   5.749 -0.0074  0.5542  0.1609
 3076poe    c2315304   1.261   4.861   5.723  0.4068  0.6720  1.0185
 3076poe     o215305   1.128   4.907   5.725  0.3166  0.4826  0.0569
 3076poe    c2315306   1.096   5.044   5.716 -0.6403  0.2399 -0.3641
 3076poe    c2315307   0.974   5.093   5.797 -0.1373  0.3087  0.3566
 3076poe     o215308   0.882   4.988   5.780  0.2225  0.0195  0.1632
 3076poe    c2315309   0.760   5.008   5.849  0.2334 -0.7202  0.4104
 3076poe    c2315310   0.657   4.903   5.805 -0.1388 -0.0063 -0.4398
 3076poe     o215311   0.718   4.779   5.777  0.1632 -0.0723  0.4726
 3076poe    c3115312   0.625   4.683   5.730 -0.5324  0.7619  0.1035
 3077poe    c3115313   0.366   2.819   3.720  0.1336 -0.0731 -0.5338
 3077poe     o215314   0.277   2.821   3.829  0.7648  0.0771 -0.0164
 3077poe    c2315315   0.314   2.914   3.928  0.3562  0.5609 -0.3108
 3077poe    c2315316   0.235   2.872   4.053 -0.2425  0.2072 -0.8059
 3077poe     o215317   0.102   2.842   4.015 -0.1125 -0.9105 -0.4096
 3077poe    c2315318   0.032   2.795   4.127  0.0816 -0.5984 -0.1545
 3077poe    c2315319  -0.111   2.794   4.070  0.0167 -0.2729  0.0060
 3077poe     o215320  -0.122   2.713   3.955 -0.3053  0.0635 -0.2041
 3077poe    c2315321  -0.233   2.626   3.954 -0.0599 -0.2462 -0.9453
 3077poe    c2315322  -0.364   2.701   3.925 -0.2105 -0.0313  0.2455
 3077poe     o215323  -0.401   2.728   3.792 -0.2432 -0.1389  0.2325
 3077poe    c3115324  -0.463   2.616   3.732 -0.5193  0.6169 -0.9396
 3078poe    c3115325   3.305   3.437   3.866 -0.1718  0.4725 -0.3529
 3078poe     o215326   3.437   3.481   3.841  0.0882 -0.1488 -0.0963
 3078poe    c2315327   3.510   3.365   3.809 -0.0229 -0.3506  0.3701
 3078poe    c2315328   3.635   3.397   3.725 -0.0995  0.4110  0.5394
 3078poe     o215329   3.591   3.424   3.594  0.1197 -0.1280  0.3520
 3078poe    c2315330   3.677   3.499   3.511  0.1849 -0.0345  0.5044
 3078poe    c2315331   3.622   3.561   3.382 -0.1913 -0.4074  0.4824
 3078poe     o215332   3.512   3.646   3.405  0.0341  0.0030  0.0660
 3078poe    c2315333   3.480   3.700   3.278  0.4225  0.7963  0.2978
 3078poe    c2315334   3.336   3.754   3.276  0.2722  0.4149  0.6575
 3078poe     o215335   3.257   3.659   3.345  0.4665  0.1587  0.5273
 3078poe    c3115336   3.134   3.662   3.276  0.8958 -0.1717 -0.2722
 3079poe    c3115337   4.894   0.796   4.655  0.5834  0.1524 -0.6234
 3079poe     o215338   4.977   0.690   4.695  0.5204  0.1439 -0.5145
 3079poe    c2315339   5.035   0.736   4.816  0.1957  0.0693 -0.3294
 3079poe    c2315340   5.166   0.661   4.846 -0.2726 -0.4777  0.3672
 3079poe     o215341   5.131   0.530   4.885 -0.9403 -0.3912  0.0758
 3079poe    c2315342   5.240   0.459   4.941 -0.1500  0.2929 -0.5717
 3079poe    c2315343   5.189   0.336   5.019  0.2621  0.1943 -0.4590
 3079poe     o215344   5.077   0.293   4.945  0.1020 -0.2165  0.0156
 3079poe    c2315345   5.028   0.170   4.994  0.0808 -0.0222  0.4824
 3079poe    c2315346   4.902   0.126   4.918  0.3528  0.4812 -0.2790
 3079poe     o215347   4.819   0.239   4.904  0.1339  0.4137  0.4008
 3079poe    c3115348   4.692   0.207   4.851  0.6687 -0.2152 -0.5368
 3080poe    c3115349   6.598   1.273   6.444 -0.1821  1.3908 -0.6575
 3080poe     o215350   6.521   1.297   6.560  0.1806 -0.1950 -0.0684
 3080poe    c2315351   6.431   1.189   6.570 -0.3641  0.2782  0.1711
 3080poe    c2315352   6.355   1.200   6.704 -0.1644 -0.1335  0.3247
 3080poe     o215353   6.448   1.200   6.809  0.0885  0.0423  0.1043
 3080poe    c2315354   6.400   1.285   6.910 -0.1927  0.2092 -0.1693
 3080poe    c2315355   6.465   1.265   7.048 -0.7754  0.4337  0.1452
 3080poe     o215356   6.603   1.285   7.028 -0.6446  0.0943  0.6807
 3080poe    c2315357   6.674   1.312   7.147 -0.2516  0.6368  0.3313
 3080poe    c2315358   6.827   1.296   7.152 -0.2682  0.3820  0.0717
 3080poe     o215359   6.872   1.173   7.100  0.0602  0.5173  0.0350
 3080poe    c3115360   7.012   1.181   7.088  0.0129  0.6848 -0.4458
 3081poe    c3115361   5.811   3.625   4.229 -0.3408 -0.2205 -0.0119
 3081poe     o215362   5.794   3.579   4.097 -0.0785  0.1351 -0.1701
 3081poe    c2315363   5.773   3.682   4.004 -0.0474  0.3806  0.0933
 3081poe    c2315364   5.757   3.616   3.866  0.1984  0.6459 -0.0638
 3081poe     o215365   5.867   3.529   3.850  0.0040  0.3307  0.2921
 3081poe    c2315366   5.842   3.431   3.752 -0.6490  0.4701  0.3189
 3081poe    c2315367   5.972   3.353   3.728 -0.9453  0.0034  0.2156
 3081poe     o215368   6.015   3.295   3.850 -0.2431 -0.1108 -0.0808
 3081poe    c2315369   6.139   3.235   3.822  0.0552  0.4171  0.0994
 3081poe    c2315370   6.172   3.158   3.952 -0.5053  0.3294  0.1937
 3081poe     o215371   6.208   3.235   4.065  0.8724 -0.3296  0.2253
 3081poe    c3115372   6.249   3.146   4.167 -0.3652  0.0798  1.1009
 3082poe    c3115373   1.891   4.672   1.478 -0.6382 -0.6956 -0.5286
 3082poe     o215374   1.759   4.715   1.458 -0.5499 -0.0573  0.2062
 3082poe    c2315375   1.657   4.636   1.514 -0.5692 -0.1187  0.0861
 3082poe    c2315376   1.513   4.690   1.520 -0.4431  0.2648 -0.3349
 3082poe     o215377   1.454   4.718   1.395 -0.3887  0.1909 -0.3776
 3082poe    c2315378   1.323   4.771   1.401 -0.4866 -0.0325 -0.5239
 3082poe    c2315379   1.320   4.924   1.416  0.1165 -0.0380 -0.2860
 3082poe     o215380   1.340   4.979   1.544 -0.4431 -0.3683 -0.0505
 3082poe    c2315381   1.357   5.119   1.536 -0.2012 -0.4091 -0.2501
 3082poe    c2315382   1.501   5.153   1.580 -0.1582 -0.3479 -0.4377
 3082poe     o215383   1.607   5.100   1.503  0.0281 -0.1682 -0.3042
 3082poe    c3115384   1.728   5.154   1.551  0.0713  0.1218 -0.7342
 3083poe    c3115385   1.534   0.619   5.957  0.2145  0.0355 -0.5404
 3083poe     o215386   1.573   0.493   6.007 -0.1653  0.2706  0.3737
 3083poe    c2315387   1.616   0.501   6.141  0.0177 -0.4242  0.3597
 3083poe    c2315388   1.707   0.383   6.180  0.2494 -0.1662  0.6040
 3083poe     o215389   1.659   0.277   6.100  0.4739  0.1986 -0.0288
 3083poe    c2315390   1.767   0.189   6.080  0.3688  0.0272  0.1480
 3083poe    c2315391   1.697   0.076   6.002  0.0953 -0.1292  0.6182
 3083poe     o215392   1.611   0.127   5.903  0.5682 -0.3552  0.0865
 3083poe    c2315393   1.579   0.021   5.816  0.3899 -0.0374 -0.2402
 3083poe    c2315394   1.434   0.035   5.766  0.0109  0.2151  0.9108
 3083poe     o215395   1.416   0.151   5.688  0.3927 -0.4650 -0.2033
 3083poe    c3115396   1.293   0.176   5.624  0.3610  0.3744  0.1603
 3084poe    c3115397   6.143   2.351   2.400  0.3123  0.2798 -0.0753
 3084poe     o215398   6.066   2.425   2.491  0.1373  0.3985 -0.3192
 3084poe    c2315399   5.957   2.356   2.548  0.0007  1.0128  0.1881
 3084poe    c2315400   5.836   2.328   2.456  0.4100 -0.0441 -0.0459
 3084poe     o215401   5.870   2.240   2.352  0.2188  0.0204 -0.1647
 3084poe    c2315402   5.762   2.162   2.307 -0.3430  0.2237  0.7936
 3084poe    c2315403   5.717   2.047   2.399  0.1292 -0.2291  0.4716
 3084poe     o215404   5.793   1.929   2.409 -0.0848 -0.3701  0.4360
 3084poe    c2315405   5.796   1.847   2.294  0.5583 -0.2863  0.3922
 3084poe    c2315406   5.860   1.715   2.340  0.8711 -0.1548  0.3378
 3084poe     o215407   5.799   1.654   2.452  0.1652 -0.1353 -0.0335
 3084poe    c3115408   5.797   1.516   2.424  0.5200 -0.1531  0.0303
 3085poe    c3115409   1.074   3.627   4.113 -0.7105 -0.0375  0.4142
 3085poe     o215410   1.192   3.580   4.175 -0.3168  0.4182  0.0229
 3085poe    c2315411   1.236   3.454   4.129  0.0649  0.4347  0.3425
 3085poe    c2315412   1.389   3.440   4.141  0.0025 -1.1224 -0.4228
 3085poe     o215413   1.430   3.457   4.275 -0.4030 -0.4032 -0.3826
 3085poe    c2315414   1.545   3.379   4.302 -0.4045 -0.3266 -0.1500
 3085poe    c2315415   1.597   3.429   4.438 -0.0994  1.1318 -0.7871
 3085poe     o215416   1.492   3.448   4.530  0.2279  0.4074 -0.2576
 3085poe    c2315417   1.552   3.458   4.657 -0.0755  0.3602 -0.1109
 3085poe    c2315418   1.446   3.506   4.758  0.0968  0.1057  0.1940
 3085poe     o215419   1.414   3.643   4.742  0.3815  0.2035  0.4478
 3085poe    c3115420   1.347   3.678   4.861  0.3729  0.4367  0.3736
 3086poe    c3115421   3.288   0.772   1.634 -0.5192 -0.3021  0.3127
 3086poe     o215422   3.255   0.768   1.771 -0.2021 -0.3076  0.3894
 3086poe    c2315423   3.152   0.859   1.801  0.2599  0.4669 -0.3272
 3086poe    c2315424   3.210   0.997   1.837 -0.0943  0.6524 -0.4583
 3086poe     o215425   3.253   1.021   1.969 -0.1155  0.1126 -0.3495
 3086poe    c2315426   3.338   1.134   1.966 -0.6085  0.5241  0.5458
 3086poe    c2315427   3.448   1.128   2.072 -0.5707 -0.5030  0.4592
 3086poe     o215428   3.528   1.012   2.063  0.0031 -0.1171  0.4868
 3086poe    c2315429   3.644   1.037   2.139 -0.3824  0.0773  1.0168
 3086poe    c2315430   3.732   0.912   2.125 -0.4008  0.2036 -0.3815
 3086poe     o215431   3.681   0.794   2.182 -0.1534  0.3410  0.1319
 3086poe    c3115432   3.763   0.681   2.158  0.3101  0.6242  0.3625
 3087poe    c3115433   6.519   2.273   2.587  0.7954  0.4570 -0.4149
 3087poe     o215434   6.482   2.338   2.706  0.1970 -0.3188 -0.1745
 3087poe    c2315435   6.575   2.331   2.812  0.2238  0.4171 -0.1439
 3087poe    c2315436   6.545   2.401   2.946 -0.1451  0.0137 -0.0140
 3087poe     o215437   6.540   2.541   2.929 -0.3614 -0.0742 -0.7063
 3087poe    c2315438   6.499   2.609   3.045 -0.2583 -0.5035 -0.4135
 3087poe    c2315439   6.515   2.762   3.029 -0.5512 -0.4256  0.0146
 3087poe     o215440   6.428   2.825   2.938 -0.5915 -0.3279  0.1214
 3087poe    c2315441   6.449   2.964   2.937  0.1396 -0.4294  0.5644
 3087poe    c2315442   6.390   3.050   3.050 -0.2116  0.1235 -0.0362
 3087poe     o215443   6.251   3.073   3.061 -0.2347  0.2118 -0.4885
 3087poe    c3115444   6.204   3.165   2.964  1.0494  0.8953 -0.4822
 3088poe    c3115445   4.415   4.114   1.015  0.7406  0.3687  0.0096
 3088poe     o215446   4.349   4.114   0.891  0.2773 -0.0686  0.2526
 3088poe    c2315447   4.366   3.983   0.843  0.2767 -0.1457  0.4665
 3088poe    c2315448   4.236   3.927   0.782 -0.1319  0.0061  1.1747
 3088poe     o215449   4.124   3.929   0.866 -0.7119  0.0748  0.4142
 3088poe    c2315450   4.025   3.842   0.817 -0.5306  0.4161 -0.5698
 3088poe    c2315451   3.889   3.841   0.891 -0.1549  0.1998  0.1239
 3088poe     o215452   3.889   3.782   1.019  0.5032 -0.3613 -0.1223
 3088poe    c2315453   3.893   3.641   1.018  0.2353 -0.3808  0.7163
 3088poe    c2315454   4.011   3.589   1.102  0.7554  0.2834  0.4096
 3088poe     o215455   4.043   3.452   1.094  0.3482  0.1936  0.2943
 3088poe    c3115456   4.125   3.424   1.205  0.2991 -0.8357  0.0779
 3089poe    c3115457   0.577   2.560   2.087 -0.2209 -0.7925 -0.0807
 3089poe     o215458   0.566   2.595   2.223 -0.0625  0.0289 -0.2745
 3089poe    c2315459   0.543   2.733   2.244 -0.4353 -0.1124  0.2533
 3089poe    c2315460   0.512   2.760   2.393  0.1166 -0.2644  0.3999
 3089poe     o215461   0.595   2.675   2.468  0.7821  0.0068 -0.0189
 3089poe    c2315462   0.553   2.687   2.602  0.5631 -0.1280 -0.0746
 3089poe    c2315463   0.581   2.556   2.677  0.4857 -0.1095 -0.0131
 3089poe     o215464   0.511   2.453   2.611  0.0858  0.3038 -0.2434
 3089poe    c2315465   0.554   2.321   2.639  0.3531  0.4002 -0.1878
 3089poe    c2315466   0.554   2.262   2.497  0.0398 -0.1729  0.0470
 3089poe     o215467   0.625   2.338   2.402  0.1624  0.0297  0.3001
 3089poe    c3115468   0.612   2.252   2.291 -0.4425  0.3946  0.0809
 3090poe    c3115469   1.205   1.042   3.085  0.5823  0.2554 -1.6623
 3090poe     o215470   1.272   1.135   3.166 -0.8221  0.2280 -0.4276
 3090poe    c2315471   1.227   1.117   3.298  0.3042 -0.9167 -0.1806
 3090poe    c2315472   1.321   1.195   3.392 -0.7928  0.2217  0.0032
 3090poe     o215473   1.343   1.326   3.347 -0.1410  0.0838 -0.0856
 3090poe    c2315474   1.429   1.399   3.431  0.0615 -0.4840  0.2034
 3090poe    c2315475   1.467   1.541   3.385  0.0930 -0.5583 -0.0003
 3090poe     o215476   1.530   1.521   3.260  0.4226 -0.0446  0.0809
 3090poe    c2315477   1.582   1.635   3.197 -0.3319 -0.0290 -0.5236
 3090poe    c2315478   1.643   1.613   3.057  0.7380  0.4213 -0.1465
 3090poe     o215479   1.549   1.557   2.968 -0.2134  0.6661  0.6898
 3090poe    c3115480   1.614   1.582   2.846 -1.0216  0.5649  0.2260
 3091poe    c3115481   4.102   5.993   5.539 -0.1779  0.2108  0.0581
 3091poe     o215482   4.238   5.958   5.551 -0.2725 -0.1349  0.1396
 3091poe    c2315483   4.299   5.943   5.425 -0.5152  0.4922 -0.0556
 3091poe    c2315484   4.450   5.947   5.457 -0.5899 -0.2552  0.4257
 3091poe     o215485   4.500   5.834   5.525  0.3394 -0.3236 -0.3499
 3091poe    c2315486   4.628   5.877   5.564  0.2761 -0.2692 -0.2009
 3091poe    c2315487   4.710   5.784   5.654  0.4844  0.0824 -0.0231
 3091poe     o215488   4.740   5.666   5.583  0.3873  0.2258 -0.3023
 3091poe    c2315489   4.843   5.591   5.643 -0.1122 -0.0292  0.2516
 3091poe    c2315490   4.885   5.458   5.577  0.0420  0.1068  0.0760
 3091poe     o215491   4.926   5.367   5.677  0.0148 -0.3088 -0.2880
 3091poe    c3115492   4.914   5.240   5.616 -0.3418 -0.4690  0.1150
 3092poe    c3115493   1.612   6.229   2.669 -0.2721  0.3451 -0.3290
 3092poe     o215494   1.635   6.216   2.531 -0.4600  0.1124 -0.3389
 3092poe    c2315495   1.628   6.092   2.464  0.0125 -0.1663  0.1142
 3092poe    c2315496   1.651   6.103   2.312 -0.7758 -0.5512 -0.0370
 3092poe     o215497   1.544   6.184   2.268 -0.4236  0.0894  0.2861
 3092poe    c2315498   1.482   6.130   2.154  0.1767  0.1564 -0.0790
 3092poe    c2315499   1.391   6.229   2.079  0.4049  0.3538 -0.0954
 3092poe     o215500   1.354   6.315   2.184  0.5587  0.3340 -0.0234
 3092poe    c2315501   1.235   6.389   2.165 -0.1627 -0.9796 -0.7576
 3092poe    c2315502   1.108   6.325   2.224 -0.2227  0.1292  0.3550
 3092poe     o215503   1.109   6.299   2.362 -0.6628 -0.3206  0.2753
 3092poe    c3115504   0.977   6.318   2.407 -0.3669  0.7366  0.7162
 3093poe    c3115505   0.882   4.336   2.510  0.4594  0.5323 -0.3698
 3093poe     o215506   0.853   4.386   2.639  0.4279  0.7134 -0.4469
 3093poe    c2315507   0.760   4.492   2.629  0.0701  0.5008  0.5153
 3093poe    c2315508   0.661   4.506   2.746 -0.3195  0.1403  0.2342
 3093poe     o215509   0.718   4.509   2.876  0.0671 -0.2519  0.0761
 3093poe    c2315510   0.623   4.507   2.980  0.0444 -0.5199  0.0499
 3093poe    c2315511   0.693   4.496   3.116 -0.2159  0.0793  0.2324
 3093poe     o215512   0.782   4.604   3.136 -0.1480  0.1192 -0.2777
 3093poe    c2315513   0.920   4.579   3.154 -0.2588 -0.3416 -0.0468
 3093poe    c2315514   1.001   4.702   3.201 -0.0051 -0.4942 -0.0827
 3093poe     o215515   0.988   4.763   3.328 -0.3438 -0.4578 -0.1351
 3093poe    c3115516   0.875   4.849   3.323 -0.0253 -0.0234  0.0614
 3094poe    c3115517   3.302   4.031   7.348  0.8317 -0.1370  0.3713
 3094poe     o215518   3.327   4.141   7.263 -1.0685  0.0976  0.0699
 3094poe    c2315519   3.216   4.176   7.184 -1.0076  0.1003 -0.0148
 3094poe    c2315520   3.254   4.300   7.101  0.1071 -0.0776  0.2261
 3094poe     o215521   3.333   4.257   6.992 -0.3098  0.2537 -0.2112
 3094poe    c2315522   3.352   4.356   6.894  0.9431  0.2589  0.0157
 3094poe    c2315523   3.475   4.318   6.809  0.2909  0.1805 -0.9185
 3094poe     o215524   3.598   4.336   6.876 -0.0599  0.0769 -0.2349
 3094poe    c2315525   3.685   4.283   6.779 -0.1860 -0.3371 -0.1228
 3094poe    c2315526   3.834   4.285   6.817 -0.1193 -0.4788 -0.3706
 3094poe     o215527   3.868   4.193   6.919  0.9172  0.2479 -0.0421
 3094poe    c3115528   3.902   4.066   6.866  0.1926 -0.0630  0.2340
 3095poe    c3115529   6.598   1.505   2.691  0.3103  0.1048 -0.2395
 3095poe     o215530   6.665   1.490   2.568 -0.0027 -0.2540 -0.3716
 3095poe    c2315531   6.698   1.611   2.504  0.2423  0.1392  0.4851
 3095poe    c2315532   6.811   1.592   2.400 -0.3552 -0.2711 -0.0952
 3095poe     o215533   6.772   1.475   2.332 -0.4761 -0.1179 -0.2911
 3095poe    c2315534   6.860   1.461   2.222  0.0888  0.0688  0.1323
 3095poe    c2315535   6.811   1.344   2.135 -0.3837  0.3908 -0.0388
 3095poe     o215536   6.802   1.229   2.216 -0.5367  0.2767 -0.2165
 3095poe    c2315537   6.827   1.112   2.141 -0.0402  0.4324 -0.2985
 3095poe    c2315538   6.867   0.986   2.219 -0.3391  0.5473  0.0456
 3095poe     o215539   6.769   0.928   2.302 -0.4492  0.7489  0.0564
 3095poe    c3115540   6.657   0.873   2.236  0.3982  0.3868 -1.1238
 3096poe    c3115541   0.139   3.260   6.800  0.1396 -0.2844 -0.5980
 3096poe     o215542   0.226   3.364   6.764 -0.1737  0.1304 -0.1684
 3096poe    c2315543   0.151   3.483   6.776  0.1720  0.3503 -0.1535
 3096poe    c2315544   0.189   3.571   6.895 -0.0603  0.4252 -0.1336
 3096poe     o215545   0.320   3.625   6.884  0.0175  0.2871  0.0959
 3096poe    c2315546   0.376   3.660   7.008  0.0640  0.3824  0.0477
 3096poe    c2315547   0.522   3.707   7.009  0.2257 -0.1195  0.3451
 3096poe     o215548   0.546   3.821   6.930  0.0701 -0.5984 -0.3981
 3096poe    c2315549   0.679   3.824   6.883  0.3552 -0.3586  0.4075
 3096poe    c2315550   0.712   3.722   6.772 -0.4812 -0.0181 -0.1703
 3096poe     o215551   0.657   3.748   6.645  0.4781 -0.0386 -0.5983
 3096poe    c3115552   0.713   3.862   6.582 -0.1427  0.5666 -0.0750
 3097poe    c3115553   1.536   4.202   6.212 -0.5888  0.8260 -0.2673
 3097poe     o215554   1.411   4.160   6.164 -0.3996 -0.2897  0.1986
 3097poe    c2315555   1.398   4.021   6.186 -0.3975 -0.2644  0.3571
 3097poe    c2315556   1.309   3.948   6.084 -0.1105  0.1159 -0.1657
 3097poe     o215557   1.195   4.030   6.075  0.6211  1.2047  0.2105
 3097poe    c2315558   1.097   3.990   5.981  0.6249  1.0684  0.2651
 3097poe    c2315559   1.010   4.115   5.958 -0.0830  0.5651  0.1721
 3097poe     o215560   1.100   4.221   5.935  0.3155  0.1741 -0.0879
 3097poe    c2315561   1.048   4.317   5.846  0.0807  0.1053 -0.0258
 3097poe    c2315562   1.135   4.318   5.719  0.0692  0.1074 -0.0338
 3097poe     o215563   1.268   4.362   5.734  0.2204 -0.2276 -0.3612
 3097poe    c3115564   1.365   4.295   5.657  0.3995  0.0393 -0.3686
 3098poe    c3115565   2.266   6.988   5.241  0.0510 -0.1604  0.3001
 3098poe     o215566   2.177   6.879   5.231  0.0289 -0.1311  0.1800
 3098poe    c2315567   2.103   6.900   5.113  0.2332  0.2295  0.1146
 3098poe    c2315568   2.005   6.787   5.078  0.4643  0.0767 -0.0355
 3098poe     o215569   1.917   6.773   5.187  0.1959 -0.0642 -0.2702
 3098poe    c2315570   1.822   6.672   5.158  0.0532  0.1581 -0.5825
 3098poe    c2315571   1.870   6.536   5.212  0.0618  0.4455  0.1373
 3098poe     o215572   1.911   6.560   5.345 -0.1210 -0.1531  0.3018
 3098poe    c2315573   1.934   6.436   5.409  0.2378 -0.1293  0.2193
 3098poe    c2315574   1.968   6.466   5.557 -0.1095  0.2355  0.2258
 3098poe     o215575   1.856   6.516   5.627 -0.5043 -0.7289  0.2887
 3098poe    c3115576   1.872   6.509   5.767  0.2930 -1.0402  0.1868
 3099poe    c3115577   7.194   6.366   0.367 -0.8683 -0.8889 -0.2415
 3099poe     o215578   7.270   6.252   0.400  0.2027 -0.1232  0.0046
 3099poe    c2315579   7.401   6.291   0.436  0.0747  0.6700 -0.3858
 3099poe    c2315580   7.507   6.181   0.431 -0.6029 -0.0218  0.2170
 3099poe     o215581   7.505   6.087   0.537  0.5523  0.1197  0.3803
 3099poe    c2315582   7.590   5.975   0.518  0.0169 -0.1503 -0.4820
 3099poe    c2315583   7.576   5.873   0.632 -0.2185  0.2215 -0.1761
 3099poe     o215584   7.453   5.805   0.626 -0.0561 -0.0644 -0.2417
 3099poe    c2315585   7.434   5.714   0.520 -0.1294 -0.2626 -0.0597
 3099poe    c2315586   7.288   5.663   0.521 -0.2030 -0.0494  0.3003
 3099poe     o215587   7.209   5.769   0.472 -0.1167  0.2402  0.7822
 3099poe    c3115588   7.068   5.754   0.477 -0.1537 -0.0001 -0.6255
 3100poe    c3115589   6.963   5.098   1.989  0.9209  0.2203  0.1943
 3100poe     o215590   6.941   5.011   2.097  0.3395 -0.0422 -0.1272
 3100poe    c2315591   6.874   4.892   2.064  0.1322 -0.0105  0.1720
 3100poe    c2315592   6.857   4.813   2.195 -0.0666  0.3745  0.3804
 3100poe     o215593   6.973   4.810   2.276  0.0800  0.0065  0.1641
 3100poe    c2315594   7.064   4.710   2.240  0.0237  0.1462 -0.3740
 3100poe    c2315595   7.133   4.684   2.375  0.5660 -0.0123 -0.6766
 3100poe     o215596   7.170   4.804   2.440 -0.5377  0.0504 -0.1374
 3100poe    c2315597   7.210   4.779   2.573 -0.1178 -0.4097 -0.3437
 3100poe    c2315598   7.255   4.912   2.636 -0.1695 -0.3153 -0.5055
 3100poe     o215599   7.201   5.022   2.566 -0.3212 -0.1644 -0.1510
 3100poe    c3115600   7.241   5.140   2.633  0.8007 -0.3218 -0.5316
 3101poe    c3115601   4.483   0.999   6.453 -0.0247  0.0872 -0.3898
 3101poe     o215602   4.519   0.926   6.337 -0.6433  0.1579 -0.6284
 3101poe    c2315603   4.652   0.884   6.317 -0.3634  0.6956  0.0564
 3101poe    c2315604   4.648   0.839   6.170 -0.0719  0.3135  0.1649
 3101poe     o215605   4.614   0.937   6.075 -0.4889 -0.2573 -0.2842
 3101poe    c2315606   4.704   0.944   5.966 -0.1110 -0.3908  0.0195
 3101poe    c2315607   4.650   1.022   5.845 -0.0366  0.4845  0.5375
 3101poe     o215608   4.551   0.942   5.783  0.4852  0.1071  0.1804
 3101poe    c2315609   4.586   0.889   5.657  0.2230 -0.3167  0.2863
 3101poe    c2315610   4.470   0.822   5.581 -0.0082  0.1710  0.2057
 3101poe     o215611   4.454   0.695   5.641  0.0242  0.1074  0.0808
 3101poe    c3115612   4.372   0.616   5.558  0.5223  0.0354 -0.3491
 3102poe    c3115613   6.454   1.460   0.539  0.3834 -0.5944  0.1632
 3102poe     o215614   6.520   1.356   0.608  0.4935 -0.4886  0.2170
 3102poe    c2315615   6.601   1.284   0.518  0.3283 -0.1614 -0.1955
 3102poe    c2315616   6.674   1.180   0.605 -0.3185  0.1859  0.7844
 3102poe     o215617   6.595   1.075   0.654 -0.1521 -0.2154  0.2062
 3102poe    c2315618   6.573   0.972   0.560  0.1225  0.1325 -0.2370
 3102poe    c2315619   6.538   0.844   0.636 -0.7061  0.3035 -0.3288
 3102poe     o215620   6.416   0.845   0.708 -0.4974  0.1451  0.0323
 3102poe    c2315621   6.356   0.718   0.721 -0.2298  0.0405  0.2386
 3102poe    c2315622   6.423   0.621   0.820  0.6284 -0.1143 -0.4785
 3102poe     o215623   6.418   0.670   0.953  0.0940 -0.2110 -0.4589
 3102poe    c3115624   6.430   0.562   1.042 -0.3712  0.2232  0.1327
 3103poe    c3115625   5.618   0.104   0.774 -0.1711 -0.0266  0.0432
 3103poe     o215626   5.646   0.109   0.913 -0.3849 -0.7733  0.1156
 3103poe    c2315627   5.686  -0.017   0.962 -0.2802 -0.6333  0.3907
 3103poe    c2315628   5.712  -0.004   1.113 -0.8282  0.6246  0.3886
 3103poe     o215629   5.807   0.095   1.143  0.4511 -0.5759  0.3810
 3103poe    c2315630   5.797   0.113   1.283  0.8974  0.3413  0.2967
 3103poe    c2315631   5.866   0.233   1.352 -0.1518  1.4016 -0.4513
 3103poe     o215632   6.004   0.209   1.369 -0.3168  0.1952 -0.6687
 3103poe    c2315633   6.085   0.311   1.424 -0.2678 -0.1653 -0.0596
 3103poe    c2315634   6.233   0.270   1.418 -0.2699 -0.1352 -0.3410
 3103poe     o215635   6.274   0.229   1.289  0.1663 -1.1644  0.1119
 3103poe    c3115636   6.414   0.222   1.305  0.2265 -0.2716  0.0515
 3104poe    c3115637   5.164   4.154   0.255  0.7076 -0.4550  0.2231
 3104poe     o215638   5.120   4.121   0.125 -0.0246  0.6898  0.1651
 3104poe    c2315639   5.207   4.017   0.086 -0.6953  0.2938 -0.2975
 3104poe    c2315640   5.164   3.925  -0.030  0.3852 -0.7434  0.1076
 3104poe     o215641   5.186   3.998  -0.149  0.5005 -0.2806  0.4081
 3104poe    c2315642   5.132   3.938  -0.264  0.2246  0.3993  0.1821
 3104poe    c2315643   5.173   3.962  -0.411 -0.8133  0.3133 -0.1335
 3104poe     o215644   5.214   4.096  -0.425 -0.1864  0.1267 -0.1110
 3104poe    c2315645   5.273   4.120  -0.551 -0.1020  0.4005 -0.0197
 3104poe    c2315646   5.323   4.265  -0.573  0.6280  0.2569  0.6240
 3104poe     o215647   5.218   4.355  -0.545  0.2041  0.0817 -0.3592
 3104poe    c3115648   5.262   4.468  -0.616  0.5414 -0.1504 -0.5221
 3105poe    c3115649   5.736   2.474   4.000  0.7236 -0.2840 -0.2444
 3105poe     o215650   5.801   2.457   4.125 -0.0929 -0.7106  0.1245
 3105poe    c2315651   5.816   2.320   4.154 -0.3356 -0.8391 -0.3396
 3105poe    c2315652   5.814   2.301   4.307 -0.3533  0.5470 -0.1592
 3105poe     o215653   5.924   2.336   4.388 -0.4561  0.1766  0.1445
 3105poe    c2315654   5.896   2.293   4.519 -0.3275 -0.0464  0.0984
 3105poe    c2315655   6.038   2.311   4.577 -0.5133 -0.2821  0.6358
 3105poe     o215656   6.063   2.445   4.540  0.1135 -0.5531  0.0535
 3105poe    c2315657   6.186   2.497   4.587 -0.2120  0.1410  0.1436
 3105poe    c2315658   6.193   2.638   4.526  0.3722  0.0448 -0.0064
 3105poe     o215659   6.164   2.634   4.388 -0.0199 -0.2864  0.0842
 3105poe    c3115660   6.201   2.754   4.322  0.0674 -0.0017  0.6480
 3106poe    c3115661   7.288   1.841   1.522 -0.1813 -0.2424 -0.8837
 3106poe     o215662   7.363   1.753   1.442  0.2121  0.0943 -0.8889
 3106poe    c2315663   7.284   1.640   1.412  0.0335  0.0862 -0.3875
 3106poe    c2315664   7.167   1.661   1.314 -0.3600 -0.0581  0.0435
 3106poe     o215665   7.215   1.707   1.189  0.3168 -0.1904  0.2470
 3106poe    c2315666   7.163   1.837   1.176  0.4617 -0.1545  0.0258
 3106poe    c2315667   7.234   1.917   1.066  0.0244 -0.1927 -0.2870
 3106poe     o215668   7.364   1.955   1.106 -0.1407 -0.0827  0.1431
 3106poe    c2315669   7.413   2.030   0.997  0.2867  0.1654  0.5019
 3106poe    c2315670   7.547   2.105   0.998  0.4842 -0.1574 -0.4476
 3106poe     o215671   7.560   2.211   0.906 -0.2158  0.0064 -0.3610
 3106poe    c3115672   7.697   2.236   0.928 -0.1797 -0.0238 -0.5488
 3107poe    c3115673   2.028   4.512   3.630 -0.4276  0.5450  0.5780
 3107poe     o215674   2.163   4.498   3.595 -0.5472 -0.1760  0.3774
 3107poe    c2315675   2.259   4.487   3.698 -0.1009 -0.6931 -0.0834
 3107poe    c2315676   2.391   4.507   3.622 -0.2979  0.1639 -0.2150
 3107poe     o215677   2.429   4.414   3.523  0.0632 -0.0913  0.1579
 3107poe    c2315678   2.551   4.453   3.464 -0.0670  0.2113  0.0840
 3107poe    c2315679   2.616   4.324   3.409 -0.2031  0.6015 -1.0142
 3107poe     o215680   2.521   4.244   3.342 -0.2401 -0.1367 -0.0930
 3107poe    c2315681   2.562   4.114   3.308 -0.3268 -0.0763 -0.4267
 3107poe    c2315682   2.476   4.062   3.191 -0.2098  0.5587 -0.7971
 3107poe     o215683   2.342   4.100   3.212 -0.1038  0.6811 -0.3313
 3107poe    c3115684   2.267   4.008   3.136  0.8989 -0.2687 -0.2030
 3108poe    c3115685   3.608   6.773   1.385 -0.3388  0.4976  0.4967
 3108poe     o215686   3.597   6.704   1.263 -0.1253  0.6014  0.4173
 3108poe    c2315687   3.715   6.651   1.209 -0.1004  0.5540  0.5200
 3108poe    c2315688   3.771   6.749   1.104 -0.0957  0.0378  0.0358
 3108poe     o215689   3.893   6.808   1.142  0.1888 -0.2399 -0.4303
 3108poe    c2315690   3.955   6.863   1.028  0.2143 -0.0544 -0.3278
 3108poe    c2315691   4.085   6.935   1.068  0.1175  0.0531 -0.2061
 3108poe     o215692   4.063   7.058   1.133  0.0984 -0.0404 -0.0330
 3108poe    c2315693   4.184   7.126   1.158  0.1446 -0.0519 -0.2209
 3108poe    c2315694   4.184   7.228   1.273  0.0431 -0.4128  0.1012
 3108poe     o215695   4.112   7.180   1.384 -0.3493  0.0473  0.0502
 3108poe    c3115696   4.135   7.253   1.502 -0.3903 -0.2132  0.2208
 3109poe    c3115697   4.193   6.715   1.864 -0.2299  0.1473 -0.5878
 3109poe     o215698   4.060   6.692   1.906 -0.0038  0.2045  0.1769
 3109poe    c2315699   4.036   6.553   1.895  0.1358  0.1699  0.2932
 3109poe    c2315700   3.884   6.532   1.877  0.0924  0.7591 -0.0543
 3109poe     o215701   3.843   6.545   1.743  0.0740  0.5327 -0.0712
 3109poe    c2315702   3.842   6.415   1.688  0.4009  0.2941  0.4878
 3109poe    c2315703   3.938   6.384   1.572 -0.1393 -0.2719  0.1890
 3109poe     o215704   4.031   6.292   1.624 -0.2365 -0.6050 -0.2175
 3109poe    c2315705   4.153   6.295   1.553 -0.1905  0.1276 -0.1116
 3109poe    c2315706   4.275   6.254   1.637 -0.1435 -0.2357 -0.3568
 3109poe     o215707   4.283   6.120   1.679  0.1187 -0.0757  0.1149
 3109poe    c3115708   4.356   6.036   1.593  0.3510  0.1266  0.1166
 3110poe    c3115709   1.663   4.861   0.543 -0.2343 -0.1779 -0.2145
 3110poe     o215710   1.579   4.875   0.656 -0.0266 -0.3880 -0.0325
 3110poe    c2315711   1.568   5.012   0.688 -0.5762 -0.4680  0.1258
 3110poe    c2315712   1.425   5.032   0.742 -0.6075 -0.4070  0.0204
 3110poe     o215713   1.407   4.928   0.835 -0.2812 -0.6560 -0.1909
 3110poe    c2315714   1.281   4.939   0.898  0.1639  0.2427  0.5635
 3110poe    c2315715   1.229   4.813   0.969 -0.3044  0.2472  0.2307
 3110poe     o215716   1.234   4.734   0.852  0.4210 -0.0738  0.4721
 3110poe    c2315717   1.148   4.622   0.861 -0.1947  0.3088 -0.4521
 3110poe    c2315718   1.135   4.545   0.729 -0.2251 -0.1461 -0.1842
 3110poe     o215719   1.253   4.471   0.703  0.2406  0.6183 -0.2781
 3110poe    c3115720   1.235   4.375   0.601  0.4084  0.8411 -0.5179
 3111poe    c3115721   2.961   3.845   5.901 -0.6357  0.0131  0.1267
 3111poe     o215722   3.042   3.770   5.989  0.1992  0.3765 -0.3122
 3111poe    c2315723   3.182   3.778   5.978  0.2207  0.4047 -0.0209
 3111poe    c2315724   3.222   3.689   6.097  1.0401  0.6312 -0.1229
 3111poe     o215725   3.161   3.738   6.213  0.1780 -0.7476  0.0337
 3111poe    c2315726   3.218   3.684   6.330  0.8060 -0.6480 -0.2225
 3111poe    c2315727   3.149   3.720   6.463 -0.1819 -0.0802 -0.8730
 3111poe     o215728   3.018   3.668   6.465 -0.0981 -0.2710  0.4718
 3111poe    c2315729   2.943   3.701   6.580 -0.3816 -0.4381  0.3339
 3111poe    c2315730   2.820   3.611   6.598 -0.7444  0.0109  0.1354
 3111poe     o215731   2.847   3.474   6.619 -0.6451  0.1157  0.7209
 3111poe    c3115732   2.730   3.410   6.664 -0.9206 -0.0290 -0.1722
 3112poe    c3115733   3.118   3.380   2.145  0.1554  0.1427  0.0044
 3112poe     o215734   3.238   3.381   2.219  0.4710 -0.0924 -0.5018
 3112poe    c2315735   3.294   3.254   2.239 -0.6069 -0.4903  0.0463
 3112poe    c2315736   3.263   3.174   2.368  0.6093 -0.3372  0.4468
 3112poe     o215737   3.297   3.240   2.488  0.1908  0.1179  0.3201
 3112poe    c2315738   3.245   3.169   2.598  0.0548  0.1806  0.2955
 3112poe    c2315739   3.341   3.075   2.672  0.3062  0.0551 -0.1849
 3112poe     o215740   3.391   2.968   2.595  0.5247 -0.0454  0.0945
 3112poe    c2315741   3.332   2.844   2.627  0.2524  0.1847  0.4875
 3112poe    c2315742   3.390   2.734   2.537  0.1711  0.4409  0.1169
 3112poe     o215743   3.363   2.762   2.402 -0.3826 -0.0516  0.1218
 3112poe    c3115744   3.315   2.658   2.320  0.0599 -0.4773  0.4010
 3113poe    c3115745   5.323   4.781   7.006 -0.2165  0.3855 -0.3890
 3113poe     o215746   5.211   4.695   7.005 -0.2181  0.3830  0.0908
 3113poe    c2315747   5.102   4.763   6.947  0.0178  0.5712 -0.1327
 3113poe    c2315748   5.029   4.859   7.043  0.2171  0.6440 -0.0530
 3113poe     o215749   4.930   4.948   6.997 -0.2828  0.4215  0.5836
 3113poe    c2315750   4.975   5.082   6.996  0.6703  0.1015  0.0886
 3113poe    c2315751   4.867   5.180   6.949  0.2985 -0.4145 -0.1501
 3113poe     o215752   4.779   5.152   6.843  0.5120  0.4525 -0.5653
 3113poe    c2315753   4.696   5.261   6.809  0.4715  0.5054 -0.2959
 3113poe    c2315754   4.605   5.245   6.686  0.3163 -0.2625 -0.0857
 3113poe     o215755   4.506   5.152   6.724 -0.5346  0.6160 -0.0854
 3113poe    c3115756   4.422   5.107   6.620 -0.3171  0.4277 -0.1819
 3114poe    c3115757   7.182   5.297   5.164  0.9599  0.1222 -0.3936
 3114poe     o215758   7.210   5.163   5.127  0.2665 -0.2679  0.4607
 3114poe    c2315759   7.116   5.122   5.031  0.1389  0.3098  0.3336
 3114poe    c2315760   7.063   4.983   5.071 -0.8226  0.4205 -0.4972
 3114poe     o215761   7.000   4.962   5.195 -0.0067 -0.4047 -0.2085
 3114poe    c2315762   7.019   4.830   5.241 -0.4135 -0.4695 -0.2222
 3114poe    c2315763   6.994   4.824   5.393 -0.2891  0.0720 -0.1793
 3114poe     o215764   6.861   4.868   5.387 -0.1629  0.4925  0.0486
 3114poe    c2315765   6.800   4.815   5.502 -0.1106 -0.1966 -0.2367
 3114poe    c2315766   6.655   4.866   5.498  0.2030  0.7902  0.6013
 3114poe     o215767   6.638   4.996   5.445 -0.1017  0.2080 -0.7672
 3114poe    c3115768   6.515   5.059   5.473  0.0911  0.2068  0.1083
 3115poe    c3115769   2.947   6.863   2.432 -0.0951 -0.0274 -0.1457
 3115poe     o215770   2.932   6.733   2.486 -0.1137 -0.0513 -0.2080
 3115poe    c2315771   2.800   6.684   2.473 -0.0662 -0.3465  0.4056
 3115poe    c2315772   2.802   6.544   2.537 -0.8097 -0.8539 -0.6632
 3115poe     o215773   2.898   6.456   2.482 -0.1944 -0.1960 -0.6530
 3115poe    c2315774   2.845   6.333   2.440 -0.5633 -0.1749 -0.2623
 3115poe    c2315775   2.955   6.241   2.383 -0.5875 -0.1475 -0.3533
 3115poe     o215776   3.058   6.203   2.471  0.0112  0.3367 -0.8272
 3115poe    c2315777   3.131   6.087   2.439 -0.0279 -0.0102  0.2762
 3115poe    c2315778   3.248   6.077   2.538  0.1424  0.2305  0.1016
 3115poe     o215779   3.350   6.174   2.533  0.2677  0.1120  0.3358
 3115poe    c3115780   3.441   6.163   2.427 -0.3126 -0.1150 -0.1442
 3116poe    c3115781   6.298   2.179   4.842  0.3832 -0.4163  0.5626
 3116poe     o215782   6.287   2.257   4.959 -0.3187 -0.2932  0.4223
 3116poe    c2315783   6.368   2.207   5.063 -0.3935 -0.9816  0.1584
 3116poe    c2315784   6.276   2.214   5.187 -1.0328 -0.3642 -0.3450
 3116poe     o215785   6.182   2.111   5.203 -0.5495 -0.8035 -0.3000
 3116poe    c2315786   6.118   2.108   5.329  0.4534 -0.5545  0.2218
 3116poe    c2315787   6.022   1.988   5.339 -0.4509  0.0757 -0.6979
 3116poe     o215788   5.944   1.984   5.456 -0.1679 -0.7661 -0.5368
 3116poe    c2315789   5.990   1.898   5.559  0.1248  0.2167  0.1626
 3116poe    c2315790   5.877   1.891   5.663  0.3452 -0.8274  0.3397
 3116poe     o215791   5.885   1.995   5.758  0.2271 -1.0064  0.5451
 3116poe    c3115792   5.779   1.985   5.851 -0.4268 -0.6427 -0.1515
 3117poe    c3115793   6.656   1.955   5.365 -0.1702  0.8489  0.0583
 3117poe     o215794   6.547   1.895   5.299  0.4759 -0.3034  0.0042
 3117poe    c2315795   6.521   1.763   5.341  0.3938 -0.2051  0.2676
 3117poe    c2315796   6.390   1.715   5.275  0.4417  0.5190 -0.3697
 3117poe     o215797   6.408   1.717   5.135  0.3358 -0.3403 -0.3982
 3117poe    c2315798   6.288   1.684   5.069  0.0125 -0.4329  0.2289
 3117poe    c2315799   6.273   1.739   4.926  0.1334 -0.1972  0.3068
 3117poe     o215800   6.373   1.694   4.838  0.2425  0.1525  0.2503
 3117poe    c2315801   6.305   1.637   4.728  0.1958  0.2819  0.2115
 3117poe    c2315802   6.408   1.562   4.642  0.0838  0.0431  0.2881
 3117poe     o215803   6.491   1.665   4.593  0.5594 -0.6223 -0.3310
 3117poe    c3115804   6.546   1.621   4.471 -0.3974 -0.2889 -0.8986
 3118poe    c3115805   2.790   7.073   6.875 -0.4595  0.0578 -0.3849
 3118poe     o215806   2.662   7.124   6.907 -0.3516  0.2653 -0.2865
 3118poe    c2315807   2.653   7.259   6.949 -0.1469  0.1850  0.0246
 3118poe    c2315808   2.514   7.281   7.011 -0.1843  0.4159 -0.1361
 3118poe     o215809   2.414   7.272   6.912  0.2236  0.0507 -0.5180
 3118poe    c2315810   2.383   7.404   6.876 -0.6392 -0.1319 -0.4729
 3118poe    c2315811   2.311   7.495   6.977  0.3107  0.1678 -0.0514
 3118poe     o215812   2.177   7.450   6.988  0.0510  0.8160 -0.5245
 3118poe    c2315813   2.148   7.419   7.122  0.7166  0.0071 -0.5577
 3118poe    c2315814   2.030   7.321   7.142  0.3574  0.3317 -1.0417
 3118poe     o215815   2.068   7.193   7.097 -0.0008 -0.3065  0.4245
 3118poe    c3115816   1.974   7.091   7.122 -1.0344  0.4309 -0.3839
 3119poe    c3115817   2.165   2.109   1.326 -0.1661  0.2458  0.1770
 3119poe     o215818   2.298   2.067   1.303 -0.1660  0.2206  0.2239
 3119poe    c2315819   2.366   2.006   1.410  0.0295 -0.5477 -0.3302
 3119poe    c2315820   2.327   1.859   1.435  0.1022 -0.4533  0.3755
 3119poe     o215821   2.384   1.775   1.337  0.0891  0.0373 -0.0559
 3119poe    c2315822   2.386   1.636   1.360 -0.0695  0.0032 -0.2403
 3119poe    c2315823   2.458   1.566   1.243  0.3594 -0.3491  0.2262
 3119poe     o215824   2.375   1.580   1.129  0.7962  0.5356  0.0152
 3119poe    c2315825   2.440   1.532   1.013 -0.0868  0.1784 -0.3350
 3119poe    c2315826   2.369   1.472   0.890 -0.1834 -0.3152 -0.0412
 3119poe     o215827   2.332   1.550   0.779 -0.2354 -0.2232  0.0404
 3119poe    c3115828   2.443   1.620   0.727 -0.0971 -0.1833  0.3829
 3120poe    c3115829   3.521   0.650   6.203 -0.0659  0.0522  0.2516
 3120poe     o215830   3.410   0.634   6.117  0.0167  0.1479  0.1272
 3120poe    c2315831   3.289   0.664   6.183 -0.0689  0.4165 -0.1507
 3120poe    c2315832   3.178   0.649   6.077 -0.1859  0.3261 -0.0160
 3120poe     o215833   3.187   0.742   5.972  0.0153 -0.3669 -0.6171
 3120poe    c2315834   3.071   0.771   5.897 -0.1181  0.0654 -0.2459
 3120poe    c2315835   3.088   0.719   5.753 -0.7112 -0.2262 -0.2162
 3120poe     o215836   3.185   0.779   5.669 -0.5402  0.1226  0.2236
 3120poe    c2315837   3.185   0.737   5.535  0.5544 -0.5807  0.4277
 3120poe    c2315838   3.312   0.766   5.454  0.1746 -0.3562 -0.0981
 3120poe     o215839   3.425   0.683   5.471  0.3429 -0.1922 -0.3866
 3120poe    c3115840   3.534   0.737   5.401 -0.3642  0.0730 -1.3026
 3121poe    c3115841   7.189   2.558   4.375  0.0546  0.8505 -0.0686
 3121poe     o215842   7.249   2.554   4.502 -0.0762 -0.1061 -0.0275
 3121poe    c2315843   7.145   2.544   4.597  0.1635  0.0055  0.2510
 3121poe    c2315844   7.212   2.493   4.726  0.2685 -0.4281  0.0265
 3121poe     o215845   7.314   2.581   4.766  0.3036 -0.6080  0.3329
 3121poe    c2315846   7.390   2.542   4.879  0.1500 -0.1214  0.6055
 3121poe    c2315847   7.451   2.677   4.922 -0.8036  0.3946  0.3686
 3121poe     o215848   7.517   2.734   4.811  0.4609  0.1884  1.0059
 3121poe    c2315849   7.565   2.866   4.827  0.4146  0.4125 -0.5358
 3121poe    c2315850   7.688   2.896   4.739  0.6243 -0.1423 -0.4370
 3121poe     o215851   7.670   2.918   4.601 -0.5203  0.0385 -0.2692
 3121poe    c3115852   7.788   2.989   4.570 -0.3361 -0.0292  0.2587
 3122poe    c3115853   0.586   6.816   1.825 -0.3336  0.7366  0.4571
 3122poe     o215854   0.583   6.783   1.962 -0.1261 -0.1975  0.2421
 3122poe    c2315855   0.617   6.903   2.028 -0.7738  0.1250  0.0065
 3122poe    c2315856   0.737   6.871   2.120 -0.3523  0.6459 -0.3513
 3122poe     o215857   0.706   6.763   2.206  0.5668  0.7164  0.0753
 3122poe    c2315858   0.818   6.712   2.274  0.2193 -0.0774  0.0629
 3122poe    c2315859   0.767   6.593   2.358  0.3720 -0.0732  0.1628
 3122poe     o215860   0.742   6.470   2.295  0.2383  0.1190 -0.1666
 3122poe    c2315861   0.608   6.461   2.252  0.4506  0.0109 -0.8099
 3122poe    c2315862   0.555   6.318   2.272  0.9526 -0.0513  0.1328
 3122poe     o215863   0.625   6.235   2.182  0.3093 -0.2266 -0.2083
 3122poe    c3115864   0.587   6.099   2.179 -0.1800 -0.0893 -0.4482
 3123poe    c3115865   5.678   0.436   2.559 -0.2389  0.0056 -0.0020
 3123poe     o215866   5.779   0.445   2.461 -0.0522 -0.4820  0.1424
 3123poe    c2315867   5.875   0.543   2.494 -0.5112  0.1827 -0.4846
 3123poe    c2315868   5.961   0.581   2.372  0.1634 -0.0217 -0.0762
 3123poe     o215869   6.025   0.465   2.323  0.2515  0.0538 -0.1403
 3123poe    c2315870   6.140   0.505   2.253 -0.0232  0.2290 -0.4941
 3123poe    c2315871   6.172   0.384   2.163  0.2836  0.2663 -0.4363
 3123poe     o215872   6.075   0.363   2.063  0.3451  0.3570 -0.5152
 3123poe    c2315873   6.099   0.235   2.008 -0.0496 -0.0134  0.1729
 3123poe    c2315874   6.032   0.230   1.870 -0.4898 -0.4327  0.3999
 3123poe     o215875   6.053   0.102   1.812 -0.5355 -0.2409 -0.0460
 3123poe    c3115876   5.945   0.076   1.725 -0.2664  0.0994 -0.4854
 3124poe    c3115877   6.864   1.713   7.015 -0.0813  0.5491 -0.0985
 3124poe     o215878   6.778   1.654   6.920  0.6550 -0.6655 -0.0219
 3124poe    c2315879   6.651   1.706   6.950  0.4878 -0.7570 -0.5590
 3124poe    c2315880   6.595   1.750   6.814  0.4661  0.3174 -0.2121
 3124poe     o215881   6.597   1.646   6.718  0.4723  0.0483  0.0794
 3124poe    c2315882   6.554   1.677   6.588 -0.1564  0.0451  0.2844
 3124poe    c2315883   6.667   1.700   6.486 -0.5734 -0.2496 -0.2525
 3124poe     o215884   6.742   1.581   6.490  0.4630  0.3992  0.0092
 3124poe    c2315885   6.814   1.570   6.370 -0.1548 -0.4542 -0.2965
 3124poe    c2315886   6.917   1.455   6.363  0.2351 -0.1328  0.0641
 3124poe     o215887   7.003   1.455   6.474 -0.2378 -0.4323  0.4328
 3124poe    c3115888   7.081   1.337   6.471 -0.0809 -0.3180 -0.0004
 3125poe    c3115889   3.473   7.170   4.053 -0.0497 -0.5176  0.0663
 3125poe     o215890   3.412   7.236   3.945  0.5352 -0.2053 -0.0808
 3125poe    c2315891   3.332   7.167   3.851  0.6164  0.6523 -0.7846
 3125poe    c2315892   3.390   7.061   3.755  0.5392 -0.3314  0.2386
 3125poe     o215893   3.458   7.127   3.651  0.5111 -0.1249  0.3485
 3125poe    c2315894   3.477   7.040   3.541  0.1349  0.1226  0.0867
 3125poe    c2315895   3.572   7.087   3.429 -0.1870  0.7135  0.0581
 3125poe     o215896   3.523   7.189   3.344 -0.0803  0.4565 -0.3121
 3125poe    c2315897   3.616   7.216   3.241 -0.0846 -0.4780 -0.5752
 3125poe    c2315898   3.570   7.344   3.170 -0.3617 -0.1857  0.1198
 3125poe     o215899   3.504   7.418   3.270  0.3476  0.0431  0.4260
 3125poe    c3115900   3.479   7.547   3.218  0.2955 -0.0617  0.1881
 3126poe    c3115901   5.385   3.468   5.009 -0.5110 -0.1247  0.2722
 3126poe     o215902   5.411   3.402   4.887 -0.0269 -0.1466  0.3833
 3126poe    c2315903   5.541   3.349   4.878  0.0293  0.1106 -0.4055
 3126poe    c2315904   5.585   3.297   4.740 -0.3549  0.0051 -0.4915
 3126poe     o215905   5.559   3.389   4.638  0.0409  0.1921 -0.4272
 3126poe    c2315906   5.594   3.333   4.513 -0.2526 -0.7191 -0.1076
 3126poe    c2315907   5.538   3.419   4.398 -0.3215 -0.5021  0.0872
 3126poe     o215908   5.398   3.437   4.396 -0.2981 -0.2914  0.3323
 3126poe    c2315909   5.328   3.346   4.316 -0.2959  0.1852 -0.2199
 3126poe    c2315910   5.308   3.201   4.365  0.1993  0.0760 -0.3414
 3126poe     o215911   5.274   3.179   4.500  0.0321 -0.6359 -0.4983
 3126poe    c3115912   5.288   3.039   4.509  0.1289 -0.5615  0.5638
 3127poe    c3115913   5.254   0.224   3.567 -0.2600 -0.0576  0.4747
 3127poe     o215914   5.309   0.096   3.589 -0.1841 -0.1090 -0.0022
 3127poe    c2315915   5.366   0.045   3.471  0.1302 -0.7325  0.4153
 3127poe    c2315916   5.410  -0.103   3.463  0.1341 -0.6584 -1.1731
 3127poe     o215917   5.298  -0.187   3.481  0.0246 -0.1596  0.6425
 3127poe    c2315918   5.334  -0.322   3.497 -0.0390 -0.2191  0.2809
 3127poe    c2315919   5.225  -0.422   3.454 -0.3223 -0.0736  0.6653
 3127poe     o215920   5.255  -0.559   3.452 -0.3175 -0.0677  0.2348
 3127poe    c2315921   5.198  -0.625   3.341 -0.9608  0.7257  0.0899
 3127poe    c2315922   5.190  -0.778   3.346 -0.5076  0.6932 -0.1336
 3127poe     o215923   5.306  -0.845   3.301 -0.7207  0.1453  0.1212
 3127poe    c3115924   5.292  -0.978   3.345  0.3344  0.2055  0.6680
 3128poe    c3115925   3.144   7.356   6.979  0.0434 -0.3670 -0.4254
 3128poe     o215926   3.212   7.361   7.102 -0.3370  0.9203 -0.2549
 3128poe    c2315927   3.135   7.384   7.219  0.3182 -0.0508  0.3839
 3128poe    c2315928   3.227   7.396   7.342  0.4195  0.2196  0.2822
 3128poe     o215929   3.298   7.277   7.362  0.0588 -0.1367 -0.5065
 3128poe    c2315930   3.396   7.309   7.459 -0.8909  0.2107  0.3579
 3128poe    c2315931   3.483   7.187   7.496 -0.3878  0.2651 -0.5962
 3128poe     o215932   3.516   7.094   7.396  0.4284 -0.1763  0.0728
 3128poe    c2315933   3.639   7.032   7.426  0.3004 -0.2365  0.4740
 3128poe    c2315934   3.719   6.997   7.300 -0.2072  0.5311 -0.0686
 3128poe     o215935   3.617   6.946   7.218  0.0392 -0.2776  0.1232
 3128poe    c3115936   3.675   6.830   7.161  0.8270  0.0305  0.2875
 3129poe    c3115937   4.666   1.950   0.131  0.2617 -0.3546  0.1867
 3129poe     o215938   4.714   2.007   0.250  0.2035  0.2020 -0.0548
 3129poe    c2315939   4.728   1.907   0.348  0.5499  0.2949 -0.0082
 3129poe    c2315940   4.602   1.873   0.431  0.3339  0.4286 -0.2800
 3129poe     o215941   4.587   1.979   0.522 -0.3187  0.7003 -0.6950
 3129poe    c2315942   4.496   1.955   0.627 -0.2913  0.7058 -0.6699
 3129poe    c2315943   4.396   2.071   0.635 -0.4612  0.5489 -0.4981
 3129poe     o215944   4.464   2.195   0.639 -0.0496  0.3073  0.2757
 3129poe    c2315945   4.390   2.312   0.613 -0.0432  0.3590  0.4905
 3129poe    c2315946   4.460   2.448   0.594  0.1251  0.2561  0.3729
 3129poe     o215947   4.539   2.456   0.477 -0.2537  0.3983  0.1261
 3129poe    c3115948   4.606   2.580   0.477  0.6683 -0.0972  0.0955
 3130poe    c3115949   4.112   6.349   4.290 -0.4953  0.5511  0.4713
 3130poe     o215950   4.059   6.470   4.241  0.0615  0.5668 -0.1081
 3130poe    c2315951   3.965   6.528   4.329 -0.5580 -0.1111 -0.3092
 3130poe    c2315952   3.933   6.671   4.281 -0.6069 -0.0770 -0.1734
 3130poe     o215953   3.901   6.656   4.145  0.4547 -0.1191 -0.4282
 3130poe    c2315954   3.842   6.771   4.088 -0.3701 -0.3247  0.0011
 3130poe    c2315955   3.832   6.752   3.936 -0.2633 -0.8964  0.0630
 3130poe     o215956   3.953   6.694   3.893  0.0161 -0.4930  0.3102
 3130poe    c2315957   3.981   6.715   3.757  0.2818 -0.2772  0.3959
 3130poe    c2315958   4.124   6.769   3.737  0.1917  0.0039  0.5001
 3130poe     o215959   4.130   6.907   3.761 -0.3903  0.1920 -0.3876
 3130poe    c3115960   4.204   6.962   3.868 -0.0223  0.0044 -0.5459
 3131poe    c3115961   2.768   4.488   0.074  0.3444  0.2256  0.0971
 3131poe     o215962   2.802   4.386   0.165 -0.0714  0.3437  0.3841
 3131poe    c2315963   2.938   4.354   0.180 -0.1223 -0.4313 -0.6644
 3131poe    c2315964   2.954   4.201   0.193  0.1947 -0.3602 -0.1509
 3131poe     o215965   2.894   4.164   0.315  0.3255  0.5912  0.2124
 3131poe    c2315966   2.904   4.024   0.331 -1.3941  0.5133  0.7570
 3131poe    c2315967   2.964   3.986   0.467 -0.3301 -0.1086  0.1275
 3131poe     o215968   2.893   4.044   0.574 -0.4753 -0.4937  0.2406
 3131poe    c2315969   2.952   4.005   0.696  0.5437 -0.0012 -0.0864
 3131poe    c2315970   2.936   4.093   0.822  0.3871 -0.9638  0.5740
 3131poe     o215971   3.010   4.211   0.798 -0.3441 -0.6462 -0.1608
 3131poe    c3115972   3.028   4.272   0.924 -0.1011 -0.1027 -0.4555
 3132poe    c3115973   3.329   6.925   6.122 -0.3282 -0.6505  0.0738
 3132poe     o215974   3.469   6.929   6.114 -0.3206 -0.7196  0.1799
 3132poe    c2315975   3.501   6.938   5.977  0.0112  0.1202  0.3005
 3132poe    c2315976   3.642   6.999   5.979 -0.1154  0.4529 -0.6352
 3132poe     o215977   3.634   7.129   6.034  0.1077  0.1197  0.1891
 3132poe    c2315978   3.760   7.194   6.029  0.1461  0.0144 -0.2655
 3132poe    c2315979   3.766   7.325   6.110 -0.1146 -0.0981 -0.0595
 3132poe     o215980   3.696   7.308   6.231  0.2063 -0.1677  0.1157
 3132poe    c2315981   3.713   7.406   6.331  0.2998  0.0410 -0.1044
 3132poe    c2315982   3.578   7.456   6.387  0.4076  0.2787 -0.0546
 3132poe     o215983   3.512   7.549   6.304 -0.2555  0.4190  0.6164
 3132poe    c3115984   3.383   7.569   6.357 -0.3812  0.8331  0.1569
 3133poe    c3115985   4.266   0.069   4.993 -0.2415  0.5949 -0.0286
 3133poe     o215986   4.264   0.121   5.124  0.4996  0.1890  0.1529
 3133poe    c2315987   4.160   0.213   5.153  0.0045 -0.4724  0.5052
 3133poe    c2315988   4.168   0.255   5.302  0.8624  0.5424  0.1901
 3133poe     o215989   4.305   0.253   5.336  1.0370 -0.6196 -0.5076
 3133poe    c2315990   4.325   0.277   5.474  0.2232  0.1278 -0.5086
 3133poe    c2315991   4.466   0.218   5.496  0.1668  0.0858 -0.2597
 3133poe     o215992   4.490   0.114   5.404  0.1960  0.1999 -0.3823
 3133poe    c2315993   4.583   0.030   5.469 -0.6795 -0.1255  0.4630
 3133poe    c2315994   4.636  -0.086   5.382 -0.0382  0.2246  0.3833
 3133poe     o215995   4.678  -0.027   5.261  0.1923 -0.6040  0.0568
 3133poe    c3115996   4.673  -0.125   5.160 -0.8129 -0.7771  0.2615
 3134poe    c3115997   1.319   6.092   5.851 -0.1922  0.3479 -0.3713
 3134poe     o215998   1.187   6.138   5.832 -0.5335 -0.1630  0.6731
 3134poe    c2315999   1.123   6.033   5.764  0.1536  0.1679 -0.5206
 3134poe    c2316000   0.971   6.050   5.778  0.1778 -0.0631  0.0627
 3134poe     o216001   0.920   6.039   5.910  0.1339 -0.1641  0.0378
 3134poe    c2316002   0.780   6.053   5.903  0.2375  0.6113 -0.7250
 3134poe    c2316003   0.729   6.050   6.048  0.7028 -0.4577 -0.5772
 3134poe     o216004   0.746   6.176   6.108  0.0967 -0.5138 -0.2860
 3134poe    c2316005   0.679   6.175   6.233  1.0143 -0.5467  0.2156
 3134poe    c2316006   0.734   6.272   6.339  0.2560  0.4152 -0.2467
 3134poe     o216007   0.861   6.221   6.375 -0.1761 -0.3552  0.2196
 3134poe    c3116008   0.948   6.323   6.418 -0.9662  0.2467  0.4021
 3135poe    c3116009   5.716   3.864   5.787  0.1936  0.7837 -0.1544
 3135poe     o216010   5.829   3.814   5.719 -0.1070 -0.0876 -0.0164
 3135poe    c2316011   5.819   3.709   5.625 -0.2197 -0.1586  0.0751
 3135poe    c2316012   5.903   3.587   5.668  0.4038  0.4458  0.5829
 3135poe     o216013   5.845   3.546   5.790  0.3833  0.3881  0.5544
 3135poe    c2316014   5.837   3.406   5.788 -0.1260  0.4243 -0.3466
 3135poe    c2316015   5.713   3.352   5.862  0.1564 -0.3259 -0.4107
 3135poe     o216016   5.595   3.403   5.804 -0.0494 -0.1907  0.1244
 3135poe    c2316017   5.480   3.340   5.855  0.1214 -0.3938  0.2653
 3135poe    c2316018   5.350   3.417   5.823  0.2944  0.0415  0.6051
 3135poe     o216019   5.350   3.533   5.904 -0.2673  0.0040  0.6667
 3135poe    c3116020   5.236   3.612   5.884 -0.2668 -0.2182 -0.2611
 3136poe    c3116021   0.495   4.674   0.682 -0.0818 -0.0413  0.1719
 3136poe     o216022   0.417   4.781   0.634  0.0969  0.0622  0.1128
 3136poe    c2316023   0.413   4.892   0.721 -0.9952  0.0832  0.0505
 3136poe    c2316024   0.435   5.017   0.634  1.1246 -0.5906 -0.4503
 3136poe     o216025   0.356   5.027   0.518  0.3748 -0.3505  0.0735
 3136poe    c2316026   0.404   5.127   0.430 -0.4986  0.0741  0.0631
 3136poe    c2316027   0.310   5.117   0.309 -0.2889  0.2350 -0.1138
 3136poe     o216028   0.321   4.984   0.262 -0.5490  0.0445  0.3596
 3136poe    c2316029   0.301   4.973   0.123 -0.1410 -0.1039  0.3129
 3136poe    c2316030   0.350   4.837   0.069  0.3039  0.2530 -0.1973
 3136poe     o216031   0.483   4.820   0.113  0.3299  0.1194 -0.3272
 3136poe    c3116032   0.561   4.741   0.026 -0.2865 -0.2397 -0.5671
 3137poe    c3116033   5.405   6.479   0.359 -0.0270  0.4426  0.7214
 3137poe     o216034   5.466   6.589   0.423  0.3862  0.6451 -0.0111
 3137poe    c2316035   5.593   6.560   0.477  0.2265  0.0777  0.0679
 3137poe    c2316036   5.675   6.679   0.531  0.4160 -0.0322  0.0229
 3137poe     o216037   5.619   6.762   0.630 -0.1800  0.0664 -0.3895
 3137poe    c2316038   5.708   6.849   0.697 -0.7699  0.1327  0.3229
 3137poe    c2316039   5.703   7.000   0.668  0.3307  0.1019 -0.0711
 3137poe     o216040   5.722   7.036   0.533  0.1278 -0.2688 -0.1993
 3137poe    c2316041   5.752   7.173   0.517 -0.0673 -0.1820  0.1624
 3137poe    c2316042   5.891   7.221   0.563 -0.2139  0.9808 -0.5508
 3137poe     o216043   5.891   7.262   0.698 -0.2882 -0.3526 -0.1255
 3137poe    c3116044   6.021   7.312   0.720 -0.4283 -0.1848  0.3336
 3138poe    c3116045   6.400   5.023   5.989 -0.0006 -0.5313  0.0532
 3138poe     o216046   6.284   5.076   5.929  0.3754  0.4760  0.2106
 3138poe    c2316047   6.295   5.214   5.903  0.0718  0.5064  0.2485
 3138poe    c2316048   6.320   5.264   5.759 -0.0168  0.2307  0.1381
 3138poe     o216049   6.452   5.245   5.712 -0.2345 -0.2549 -0.2956
 3138poe    c2316050   6.550   5.329   5.768 -0.5825  0.1011 -0.2077
 3138poe    c2316051   6.674   5.347   5.678 -0.3528  0.2983  0.1464
 3138poe     o216052   6.641   5.407   5.555 -0.3423 -0.3605 -0.1802
 3138poe    c2316053   6.738   5.418   5.454  0.5448 -0.1395  0.6818
 3138poe    c2316054   6.748   5.298   5.358 -0.0174 -0.2297  0.7319
 3138poe     o216055   6.816   5.177   5.386  0.2368 -0.1873  0.3161
 3138poe    c3116056   6.950   5.203   5.422  0.3506 -0.2064 -0.0887
 3139poe    c3116057   2.896   2.838   1.311  0.0210  0.0434  0.0760
 3139poe     o216058   2.803   2.813   1.414 -0.2585 -0.1563 -0.2231
 3139poe    c2316059   2.769   2.933   1.479  0.0328 -0.0429 -0.2792
 3139poe    c2316060   2.650   3.004   1.412 -0.2571 -0.1185  0.1493
 3139poe     o216061   2.523   2.949   1.433 -0.4818  0.4885  0.4204
 3139poe    c2316062   2.421   3.013   1.359 -0.1866 -0.2494 -0.6584
 3139poe    c2316063   2.281   3.005   1.422 -0.0315 -0.2118 -0.3082
 3139poe     o216064   2.215   2.885   1.390 -0.0249 -0.2809 -0.0620
 3139poe    c2316065   2.169   2.815   1.504  0.0304 -0.3578 -0.0863
 3139poe    c2316066   2.064   2.710   1.463 -0.6255  0.3055 -0.1235
 3139poe     o216067   2.120   2.584   1.433 -0.0872  0.4112  0.4106
 3139poe    c3116068   2.158   2.517   1.551 -0.6250 -0.9599 -0.1786
 3140poe    c3116069   6.176   0.854   6.290 -0.0147  0.2676 -0.5744
 3140poe     o216070   6.049   0.805   6.251 -0.4790  1.1034 -0.1390
 3140poe    c2316071   5.983   0.887   6.158 -0.2897  0.2103 -1.0809
 3140poe    c2316072   5.951   1.031   6.203 -0.3795 -0.2688  0.4501
 3140poe     o216073   5.890   1.050   6.329 -0.3909  0.1258  0.3859
 3140poe    c2316074   5.783   1.141   6.329 -0.2481  0.2991 -0.0304
 3140poe    c2316075   5.801   1.290   6.293  0.5392  0.0994 -0.4715
 3140poe     o216076   5.822   1.319   6.157  0.7914 -0.4305 -0.5483
 3140poe    c2316077   5.761   1.438   6.113  0.6661 -0.5912 -0.8138
 3140poe    c2316078   5.860   1.536   6.046  0.2252  0.1413 -0.4083
 3140poe     o216079   5.972   1.587   6.114  0.0784  0.1724 -0.1865
 3140poe    c3116080   6.086   1.504   6.103  0.1016  0.2583 -0.6379
 3141poe    c3116081   2.499   6.080   5.708  0.5517  0.4027 -0.7912
 3141poe     o216082   2.638   6.104   5.706  0.5310  0.6451  0.2508
 3141poe    c2316083   2.689   6.100   5.838 -0.4605 -0.0437  0.6270
 3141poe    c2316084   2.839   6.125   5.865 -0.2133 -0.2604 -0.4611
 3141poe     o216085   2.888   5.994   5.846 -0.0357 -0.2533 -0.0650
 3141poe    c2316086   2.981   5.959   5.946 -0.0437 -0.3148 -0.0794
 3141poe    c2316087   3.060   5.835   5.898  0.1621 -0.1182 -0.2502
 3141poe     o216088   2.976   5.725   5.869  0.1587 -0.0440 -0.5179
 3141poe    c2316089   3.043   5.611   5.821  0.3364 -0.3385  0.4036
 3141poe    c2316090   2.959   5.485   5.848 -0.0956 -0.1506 -0.0263
 3141poe     o216091   2.823   5.520   5.847 -0.0697 -0.0323  0.3182
 3141poe    c3116092   2.747   5.404   5.875 -0.4072  0.2107  0.4221
 3142poe    c3116093   5.519   0.640   2.776  0.7503  0.4024  0.4910
 3142poe     o216094   5.584   0.531   2.836  0.3159 -0.2239 -0.1500
 3142poe    c2316095   5.503   0.428   2.889  0.4133 -0.5991 -0.7186
 3142poe    c2316096   5.582   0.328   2.974 -0.1371 -0.2850  0.1752
 3142poe     o216097   5.682   0.266   2.896  0.2817  0.2977  0.2393
 3142poe    c2316098   5.791   0.219   2.973  0.3825 -0.1275 -0.1567
 3142poe    c2316099   5.914   0.179   2.889  0.5952  0.0197  0.0853
 3142poe     o216100   5.985   0.288   2.835  0.1953  0.4576  0.4279
 3142poe    c2316101   6.100   0.234   2.775  0.0608  0.1564  0.4394
 3142poe    c2316102   6.139   0.308   2.645  0.4591  0.0832  0.5136
 3142poe     o216103   6.221   0.420   2.668  0.4045  0.2002  0.1368
 3142poe    c3116104   6.356   0.401   2.632  0.2322 -0.0635 -0.3714
 3143poe    c3116105   4.830   4.598   1.420 -0.1524 -0.2623  0.3546
 3143poe     o216106   4.799   4.498   1.513 -0.0987 -0.2689  0.3655
 3143poe    c2316107   4.665   4.519   1.550 -0.0274 -0.0774  0.5227
 3143poe    c2316108   4.626   4.396   1.634  1.1101 -0.8070  0.0192
 3143poe     o216109   4.636   4.418   1.773 -0.3379 -0.0543  0.0321
 3143poe    c2316110   4.557   4.522   1.826 -0.2601 -0.0404  0.1205
 3143poe    c2316111   4.522   4.495   1.974  0.0515  0.2138  0.2425
 3143poe     o216112   4.463   4.367   1.980 -0.1478  0.2772 -0.2918
 3143poe    c2316113   4.454   4.342   2.119  1.2575 -0.8490 -0.3763
 3143poe    c2316114   4.381   4.211   2.155  0.3377 -0.2116  0.1226
 3143poe     o216115   4.437   4.096   2.095  0.1352 -0.1332 -0.2199
 3143poe    c3116116   4.366   3.985   2.144  0.1432 -0.4321 -0.8768
 3144poe    c3116117   4.140   0.574   3.404 -0.3771 -0.5562 -0.6276
 3144poe     o216118   4.210   0.454   3.426 -0.6138 -0.5161  0.3979
 3144poe    c2316119   4.338   0.480   3.477 -0.2863  0.0022 -0.6583
 3144poe    c2316120   4.432   0.360   3.455  0.4878  0.5421 -0.3644
 3144poe     o216121   4.480   0.357   3.323  0.0261  0.2159 -0.5286
 3144poe    c2316122   4.569   0.253   3.290 -0.1696  0.0621 -0.5738
 3144poe    c2316123   4.550   0.223   3.141  0.1874 -0.0692 -0.5947
 3144poe     o216124   4.538   0.343   3.067  0.3121  0.3987  0.1357
 3144poe    c2316125   4.502   0.328   2.931 -0.0384  0.5938  0.2074
 3144poe    c2316126   4.480   0.465   2.865  0.6921  0.7581  0.2957
 3144poe     o216127   4.374   0.535   2.926  0.3779  0.0458  0.5774
 3144poe    c3116128   4.323   0.629   2.834  0.2384 -0.2359  0.3662
 3145poe    c3116129   2.343   3.054   6.425 -0.2411 -0.1048  0.4331
 3145poe     o216130   2.444   3.153   6.440 -0.9011  0.7583 -0.6260
 3145poe    c2316131   2.406   3.259   6.525 -0.3141  0.4919 -0.0185
 3145poe    c2316132   2.386   3.396   6.457 -0.5242  0.2398 -0.4712
 3145poe     o216133   2.486   3.451   6.376 -0.1505  0.1846 -0.0518
 3145poe    c2316134   2.483   3.590   6.352  0.2992  0.1330 -0.4417
 3145poe    c2316135   2.574   3.624   6.233  0.1839  0.0364 -0.5571
 3145poe     o216136   2.519   3.566   6.117 -0.0601 -0.3956 -0.2262
 3145poe    c2316137   2.559   3.640   6.004  0.0849 -0.0300  0.0643
 3145poe    c2316138   2.542   3.558   5.875  0.4380  0.7554 -0.4905
 3145poe     o216139   2.631   3.450   5.859 -0.0322  0.2271  0.4041
 3145poe    c3116140   2.735   3.481   5.769  0.0263 -0.4988  0.2100
 3146poe    c3116141   7.123   0.563   3.799 -0.5596 -0.1992 -0.0571
 3146poe     o216142   7.107   0.659   3.696  0.2650 -0.5598 -0.5257
 3146poe    c2316143   6.999   0.748   3.706  0.4402 -0.4050  0.0408
 3146poe    c2316144   7.035   0.888   3.759 -0.6517 -0.3070  0.5550
 3146poe     o216145   7.078   0.971   3.653 -0.6189 -0.2263  0.6310
 3146poe    c2316146   7.080   1.107   3.690 -0.0546  0.0525 -0.3778
 3146poe    c2316147   6.937   1.160   3.665 -0.2633 -0.0730  0.5378
 3146poe     o216148   6.902   1.117   3.536  0.0895  0.0469  0.4010
 3146poe    c2316149   6.764   1.125   3.507  0.1585  0.5897  0.2176
 3146poe    c2316150   6.745   1.109   3.355  0.2421 -0.9186  0.3563
 3146poe     o216151   6.802   0.993   3.298  0.0535 -0.8611  0.0514
 3146poe    c3116152   6.754   0.972   3.167  0.2403  0.0931 -0.1767
 3147poe    c3116153   0.888   4.443   0.021  0.1616  0.4814 -0.1628
 3147poe     o216154   0.818   4.412   0.140  0.2462  0.0658 -0.2197
 3147poe    c2316155   0.839   4.515   0.234  0.6905 -0.1854 -0.0405
 3147poe    c2316156   0.802   4.473   0.378  0.6401 -0.6570 -0.1886
 3147poe     o216157   0.689   4.389   0.392  0.1605  0.0411  0.1707
 3147poe    c2316158   0.564   4.438   0.350  0.1550  0.0390  0.1851
 3147poe    c2316159   0.477   4.334   0.277 -0.0589  0.7243 -0.5461
 3147poe     o216160   0.573   4.266   0.200 -0.0134  0.0400  0.1040
 3147poe    c2316161   0.505   4.154   0.147  0.2120 -0.0788  0.0631
 3147poe    c2316162   0.603   4.093   0.045  0.2348  0.0035  0.0351
 3147poe     o216163   0.739   4.119   0.071  0.0663 -0.0932  1.0677
 3147poe    c3116164   0.826   4.033   0.001 -0.4760 -0.1187  0.4117
 3148poe    c3116165   1.760   5.788   6.453  0.1068 -0.5201 -0.0492
 3148poe     o216166   1.701   5.751   6.331  0.4105 -0.2755 -0.2746
 3148poe    c2316167   1.751   5.842   6.236  0.7328 -0.3562 -0.1841
 3148poe    c2316168   1.676   5.833   6.102  1.1273 -0.1578 -0.4191
 3148poe     o216169   1.653   5.695   6.079 -0.3358  0.1529 -0.9207
 3148poe    c2316170   1.744   5.620   6.002  0.3347 -0.0343  0.0390
 3148poe    c2316171   1.651   5.521   5.928  0.2723  0.2906 -0.3172
 3148poe     o216172   1.568   5.466   6.027  0.4607 -0.0850 -0.3649
 3148poe    c2316173   1.458   5.403   5.965  0.5875 -0.7540  0.0819
 3148poe    c2316174   1.354   5.345   6.063 -0.2630 -0.3611 -0.5770
 3148poe     o216175   1.292   5.456   6.124  0.2117 -0.4166  0.0088
 3148poe    c3116176   1.170   5.413   6.182  0.1120 -0.1099  0.0310
 3149poe    c3116177   3.923   2.460   1.812 -0.8182 -0.2279 -0.7702
 3149poe     o216178   3.980   2.350   1.878  0.4261  0.6235 -0.3845
 3149poe    c2316179   3.941   2.298   2.003 -0.0131  0.4945 -0.5724
 3149poe    c2316180   3.958   2.380   2.133 -0.0993 -0.9684  0.3847
 3149poe     o216181   4.092   2.413   2.165 -0.1560 -0.2243 -0.1164
 3149poe    c2316182   4.189   2.314   2.186  0.0169 -0.1729 -0.6612
 3149poe    c2316183   4.329   2.373   2.213 -0.0668  0.0079 -0.6279
 3149poe     o216184   4.357   2.449   2.328 -0.2448 -0.5051 -0.2448
 3149poe    c2316185   4.493   2.447   2.366 -0.1016 -0.1936 -0.7446
 3149poe    c2316186   4.549   2.315   2.420 -0.2667  0.1735  0.3598
 3149poe     o216187   4.482   2.269   2.535 -0.3399 -0.0116  0.2436
 3149poe    c3116188   4.534   2.141   2.566  0.1591  0.0350 -0.3788
 3150poe    c3116189   3.791   3.750   5.849  0.4574  0.2870  0.5396
 3150poe     o216190   3.820   3.886   5.823  0.1551  0.2677  0.0990
 3150poe    c2316191   3.926   3.938   5.900 -0.1452  0.3821  0.4331
 3150poe    c2316192   4.071   3.889   5.884 -0.3042  0.3098 -0.8560
 3150poe     o216193   4.134   3.928   5.764  0.1778 -0.6525 -0.9260
 3150poe    c2316194   4.169   4.063   5.744  0.7119 -0.5589  0.5222
 3150poe    c2316195   4.280   4.140   5.818  0.2564  0.4223  0.2090
 3150poe     o216196   4.232   4.172   5.946  0.1000 -0.3399  0.3419
 3150poe    c2316197   4.346   4.188   6.028  0.5479  0.5763 -0.4524
 3150poe    c2316198   4.333   4.263   6.162  0.4401 -0.3723  0.0713
 3150poe     o216199   4.303   4.400   6.152 -0.0702 -0.4339  0.6752
 3150poe    c3116200   4.285   4.452   6.282  0.3852 -0.3137  0.6927
 3151poe    c3116201   1.277   3.310   5.209 -0.1129 -0.2206  0.1306
 3151poe     o216202   1.409   3.359   5.223 -0.2423  0.1260  0.1442
 3151poe    c2316203   1.403   3.499   5.236 -0.6080  0.1293 -0.0379
 3151poe    c2316204   1.511   3.582   5.163 -0.6297  0.3748  0.2055
 3151poe     o216205   1.619   3.627   5.242 -0.3206 -0.3108  0.1886
 3151poe    c2316206   1.694   3.720   5.167 -0.0861 -0.0851  0.6946
 3151poe    c2316207   1.843   3.729   5.206  0.0141 -0.2506  0.3582
 3151poe     o216208   1.863   3.737   5.345  0.0033 -0.0207  0.3475
 3151poe    c2316209   1.985   3.797   5.380 -0.1094  0.5537 -0.2450
 3151poe    c2316210   1.990   3.814   5.533 -0.7664  0.3998 -0.2055
 3151poe     o216211   1.917   3.709   5.592  0.0004 -0.0319 -0.0139
 3151poe    c3116212   1.942   3.718   5.730  0.4569 -0.4155 -0.0699
 3152poe    c3116213   0.675   0.036   2.514  0.0322 -0.2004 -0.1673
 3152poe     o216214   0.738   0.083   2.631  0.0780  0.5155 -0.4766
 3152poe    c2316215   0.868   0.028   2.636  0.0586  0.4715 -0.4597
 3152poe    c2316216   0.940   0.069   2.766 -0.1759 -0.3670 -0.0655
 3152poe     o216217   0.854   0.029   2.871 -0.0585  0.0640  0.1991
 3152poe    c2316218   0.933  -0.005   2.982  0.2065  0.1066  0.0241
 3152poe    c2316219   0.863  -0.031   3.117 -0.3451  0.1393 -0.2523
 3152poe     o216220   0.805   0.089   3.162  0.2570  0.3905 -0.1404
 3152poe    c2316221   0.686   0.041   3.220  0.0064  0.4725 -0.5827
 3152poe    c2316222   0.603   0.153   3.284 -0.2572 -0.2887  0.4319
 3152poe     o216223   0.585   0.255   3.188 -0.1856 -0.8577 -0.1900
 3152poe    c3116224   0.466   0.325   3.214  0.1886  0.0076 -0.7873
 3153poe    c3116225   5.218   0.751   1.867  0.3337  0.4068 -0.8276
 3153poe     o216226   5.198   0.881   1.917  0.3872 -0.0958  0.5696
 3153poe    c2316227   5.275   0.893   2.034  0.6561  0.3955  0.3478
 3153poe    c2316228   5.216   1.010   2.115  0.6968  0.2786  0.5489
 3153poe     o216229   5.219   1.119   2.025  0.0133  0.0953  0.2995
 3153poe    c2316230   5.198   1.243   2.088  0.0141  0.3399 -0.1750
 3153poe    c2316231   5.209   1.368   1.999  0.0740  0.2879 -0.2408
 3153poe     o216232   5.126   1.351   1.886  0.1283 -0.2474 -0.2022
 3153poe    c2316233   5.178   1.431   1.782 -0.6301  0.4432 -0.0652
 3153poe    c2316234   5.114   1.396   1.646  0.2104 -0.0380 -0.3486
 3153poe     o216235   5.188   1.301   1.573 -0.1408 -0.2271 -0.4612
 3153poe    c3116236   5.096   1.247   1.481  0.0310 -0.4837 -0.4801
 3154poe    c3116237   4.184   1.397   2.809 -0.0799  0.1367  0.3868
 3154poe     o216238   4.127   1.526   2.800 -0.3622  0.0078  0.3059
 3154poe    c2316239   4.229   1.614   2.760 -0.2690 -0.1709  0.1539
 3154poe    c2316240   4.207   1.758   2.810  0.4689  0.1242 -0.3432
 3154poe     o216241   4.201   1.769   2.950  0.3167  0.4206 -0.3725
 3154poe    c2316242   4.222   1.905   2.980  0.2627  0.5885 -1.0832
 3154poe    c2316243   4.157   1.944   3.114  0.1881  0.6680 -1.1417
 3154poe     o216244   4.017   1.955   3.102  0.0042 -0.0194  0.1552
 3154poe    c2316245   3.941   1.914   3.214 -0.2789  0.3525  0.0998
 3154poe    c2316246   3.788   1.908   3.194 -0.2440  0.1236 -0.0947
 3154poe     o216247   3.758   1.815   3.092  0.3870 -0.0669 -0.1166
 3154poe    c3116248   3.637   1.862   3.036  0.4761  0.1023 -0.1668
 3155poe    c3116249   3.373   1.884   7.338  0.2967 -0.0494  0.0965
 3155poe     o216250   3.279   1.783   7.307  0.0915  0.0164  0.4960
 3155poe    c2316251   3.147   1.831   7.304  0.2464  0.4088 -0.1595
 3155poe    c2316252   3.065   1.706   7.267  0.2765  0.4362 -0.3199
 3155poe     o216253   3.127   1.590   7.316 -0.1252  0.3568  0.0083
 3155poe    c2316254   3.049   1.474   7.296  0.3523  0.0902 -0.3208
 3155poe    c2316255   3.111   1.365   7.385  0.0458  0.1769 -0.0017
 3155poe     o216256   3.250   1.387   7.377 -0.0362  0.7771  0.1933
 3155poe    c2316257   3.307   1.267   7.423 -0.1457  0.4315 -0.5621
 3155poe    c2316258   3.460   1.263   7.412 -0.1056  0.4351 -0.0244
 3155poe     o216259   3.519   1.351   7.505 -0.0355  0.1316  0.2188
 3155poe    c3116260   3.659   1.351   7.516 -0.0720  0.4707  0.7395
 3156poe    c3116261   1.257   6.547   1.117 -0.0414 -0.5818  0.3328
 3156poe     o216262   1.320   6.673   1.111 -0.4530 -0.4021 -0.2953
 3156poe    c2316263   1.423   6.685   1.016  0.3920  0.2007  0.6801
 3156poe    c2316264   1.451   6.828   0.966 -0.0641 -0.0008 -0.1680
 3156poe     o216265   1.537   6.893   1.056 -0.0003 -0.2332 -0.0619
 3156poe    c2316266   1.506   6.925   1.190  0.1351 -0.6802  0.0796
 3156poe    c2316267   1.404   7.035   1.227  0.7714 -0.1420  0.2554
 3156poe     o216268   1.429   7.152   1.154 -0.4338 -0.0421 -0.0161
 3156poe    c2316269   1.342   7.258   1.187 -1.3071 -0.5786 -0.5631
 3156poe    c2316270   1.392   7.400   1.157 -0.4676 -0.8006 -0.2496
 3156poe     o216271   1.390   7.423   1.017  0.6073  0.2805 -0.1078
 3156poe    c3116272   1.275   7.492   0.974  0.2809 -0.5581 -0.6004
 3157poe    c3116273   5.460   2.696   6.600  0.3038  0.0791  0.2270
 3157poe     o216274   5.477   2.689   6.739 -0.4150  0.6349  0.3493
 3157poe    c2316275   5.607   2.728   6.779 -0.4699  0.5499  0.6098
 3157poe    c2316276   5.658   2.669   6.912 -0.5457 -0.1877  0.3171
 3157poe     o216277   5.641   2.757   7.021 -0.1867  0.1498  0.1034
 3157poe    c2316278   5.565   2.689   7.119 -0.0300  0.3926  0.3959
 3157poe    c2316279   5.426   2.724   7.174 -0.2298 -0.3686  0.3899
 3157poe     o216280   5.432   2.841   7.253 -0.4727  0.2941 -0.5512
 3157poe    c2316281   5.376   2.824   7.382  0.2383  0.3399 -0.2298
 3157poe    c2316282   5.330   2.947   7.461 -0.1491 -0.2243  0.4307
 3157poe     o216283   5.216   3.005   7.402  0.0735 -0.4822 -0.2603
 3157poe    c3116284   5.169   3.115   7.477  0.2024 -0.0605 -0.7898
 3158poe    c3116285   3.521   0.164   4.413 -0.4788 -0.2883 -0.6859
 3158poe     o216286   3.435   0.130   4.306 -0.3657 -0.5668 -0.6886
 3158poe    c2316287   3.475   0.197   4.189 -0.0062  0.7466  0.1626
 3158poe    c2316288   3.392   0.160   4.065 -0.2603 -0.2755  0.6321
 3158poe     o216289   3.258   0.194   4.091 -0.2127  0.1890  0.2742
 3158poe    c2316290   3.169   0.105   4.028  0.2197  0.5168 -0.8203
 3158poe    c2316291   3.032   0.172   4.011 -0.3743 -0.2581  0.7014
 3158poe     o216292   2.947   0.198   4.120 -1.1269  0.0598  0.0565
 3158poe    c2316293   2.912   0.334   4.132 -0.6957  0.1100  0.8474
 3158poe    c2316294   3.016   0.417   4.210  0.6536 -1.0525  0.3324
 3158poe     o216295   3.112   0.472   4.123 -0.5260  0.6559  0.0583
 3158poe    c3116296   3.236   0.497   4.185 -0.4472 -0.9799  0.5942
 3159poe    c3116297   7.127   6.496   0.789 -0.0155  0.3088 -0.8317
 3159poe     o216298   7.094   6.360   0.768 -0.0770  0.2354 -0.2750
 3159poe    c2316299   7.164   6.280   0.859  0.1843  0.1416 -0.5566
 3159poe    c2316300   7.138   6.128   0.849  0.1190  0.0936  0.2719
 3159poe     o216301   7.005   6.095   0.883 -0.0195  0.2445 -0.1200
 3159poe    c2316302   6.994   5.954   0.890 -0.0834  0.2575  0.0387
 3159poe    c2316303   6.864   5.912   0.962  0.3014 -0.2352  0.4481
 3159poe     o216304   6.740   5.938   0.901  0.2306 -0.7824  0.3548
 3159poe    c2316305   6.697   5.830   0.821 -0.1934 -0.3553 -0.0046
 3159poe    c2316306   6.583   5.888   0.736  0.0186 -0.0814 -0.1042
 3159poe     o216307   6.468   5.904   0.817  0.1496  0.3104  0.0057
 3159poe    c3116308   6.365   5.974   0.751  0.1831  0.0440 -0.3358
 3160poe    c3116309   1.966   5.147   6.526 -0.0779 -0.0830 -0.0261
 3160poe     o216310   2.021   5.018   6.543 -0.7363 -0.4867 -0.8911
 3160poe    c2316311   2.097   4.992   6.427 -0.3853 -0.1318 -0.7456
 3160poe    c2316312   2.176   4.860   6.434  0.2053  0.2346 -0.4073
 3160poe     o216313   2.287   4.855   6.521 -0.6992 -0.3334  0.7516
 3160poe    c2316314   2.390   4.768   6.479 -0.7955 -0.2514  0.3352
 3160poe    c2316315   2.487   4.754   6.598 -0.5778 -0.3348  0.1479
 3160poe     o216316   2.494   4.884   6.651  0.0884 -0.1733 -0.3203
 3160poe    c2316317   2.606   4.908   6.733  0.7790  0.4255 -1.4211
 3160poe    c2316318   2.607   5.060   6.759  0.1142  0.1770  0.2150
 3160poe     o216319   2.474   5.103   6.740  0.1642  0.2831  0.0931
 3160poe    c3116320   2.440   5.228   6.795  0.3040  0.7045 -0.7774
 3161poe    c3116321   7.255   6.445   3.531 -0.0455 -0.6760  0.5038
 3161poe     o216322   7.249   6.447   3.672  0.1785  0.6510  0.5022
 3161poe    c2316323   7.118   6.429   3.719  0.0914 -0.2043 -0.0465
 3161poe    c2316324   7.098   6.462   3.868  0.6821 -0.1293  0.0198
 3161poe     o216325   7.187   6.381   3.940  0.8785 -0.1652 -0.2625
 3161poe    c2316326   7.131   6.270   4.007  0.2320  0.2535 -0.1058
 3161poe    c2316327   7.243   6.208   4.092  0.2128  0.0527 -0.2271
 3161poe     o216328   7.369   6.256   4.050  0.3562 -0.1525 -0.0372
 3161poe    c2316329   7.461   6.162   4.099  0.2701 -0.2292 -0.0228
 3161poe    c2316330   7.599   6.219   4.135  0.2541  0.0458 -0.3987
 3161poe     o216331   7.636   6.263   4.006  0.0086  0.0775 -0.4587
 3161poe    c3116332   7.753   6.343   4.015 -0.1653  0.2917 -0.0786
 3162poe    c3116333   2.193   4.003   3.934 -0.3150 -0.7701  0.1723
 3162poe     o216334   2.088   4.086   3.889 -0.4036 -0.8054  0.3114
 3162poe    c2316335   2.060   4.180   3.990  0.1802 -0.1899 -0.0828
 3162poe    c2316336   1.921   4.244   3.974  0.3811  0.2170 -0.2013
 3162poe     o216337   1.824   4.171   4.045  0.1031  1.1547  0.4025
 3162poe    c2316338   1.828   4.159   4.185  0.1246 -0.7493  0.2659
 3162poe    c2316339   1.725   4.051   4.222 -0.4928 -0.2244  0.1100
 3162poe     o216340   1.597   4.107   4.206 -0.1015  0.5116 -0.4815
 3162poe    c2316341   1.497   4.019   4.254  1.1169 -0.2800  0.6877
 3162poe    c2316342   1.462   3.900   4.163 -0.0237  0.4313  0.1639
 3162poe     o216343   1.414   3.949   4.040  0.1550 -0.3492 -0.2201
 3162poe    c3116344   1.371   3.843   3.957 -0.6297 -0.4599  0.3177
 3163poe    c3116345   3.680   1.261   7.156 -0.1154 -0.6070  0.7181
 3163poe     o216346   3.819   1.238   7.161 -0.0070 -0.0170  0.5063
 3163poe    c2316347   3.867   1.347   7.237 -0.1234  0.2978  0.1307
 3163poe    c2316348   3.981   1.424   7.169 -0.0172  0.0813  0.0636
 3163poe     o216349   4.080   1.330   7.135 -0.0022  0.1438 -0.0705
 3163poe    c2316350   4.200   1.391   7.093  0.1117  0.2216  0.3596
 3163poe    c2316351   4.304   1.278   7.092 -0.0871  0.0413 -0.2222
 3163poe     o216352   4.265   1.168   7.013  0.0457 -0.4934  0.4490
 3163poe    c2316353   4.357   1.063   7.035  0.1640 -0.4438  0.1967
 3163poe    c2316354   4.301   0.927   6.992 -0.2382 -0.1630 -0.1828
 3163poe     o216355   4.198   0.872   7.070  0.4745 -0.3138  0.6654
 3163poe    c3116356   4.164   0.741   7.029 -0.0689  0.0127  0.0552
 3164poe    c3116357   5.238   6.452   0.697 -0.1557  0.8232  0.2236
 3164poe     o216358   5.328   6.437   0.805 -0.0193  0.5685  0.0743
 3164poe    c2316359   5.401   6.558   0.808  0.3994  0.3191 -0.0297
 3164poe    c2316360   5.439   6.582   0.955  0.1808 -0.0776  0.0939
 3164poe     o216361   5.482   6.456   1.002 -0.1909 -0.1891  0.1382
 3164poe    c2316362   5.538   6.452   1.132  0.5647 -0.2274 -0.1817
 3164poe    c2316363   5.590   6.311   1.162  0.1872 -0.2561  0.3601
 3164poe     o216364   5.485   6.222   1.129  0.0552 -0.0549  0.2329
 3164poe    c2316365   5.512   6.088   1.162 -0.1038 -0.0661  0.3184
 3164poe    c2316366   5.384   6.009   1.129 -0.0809  0.0045  0.0574
 3164poe     o216367   5.375   5.992   0.989  0.5180  0.5330 -0.0508
 3164poe    c3116368   5.253   5.927   0.960  0.7628 -0.4002  0.9183
 3165poe    c3116369   6.158   6.316   0.163  0.0241  0.2008 -0.0085
 3165poe     o216370   6.187   6.289   0.028  0.1326  0.1202  0.0306
 3165poe    c2316371   6.327   6.277   0.018  0.0340 -0.7913 -0.3335
 3165poe    c2316372   6.395   6.391  -0.061 -0.5742 -0.3579 -0.2430
 3165poe     o216373   6.343   6.433  -0.185  0.2720  0.1612 -0.4280
 3165poe    c2316374   6.291   6.562  -0.162  0.2605  0.1660 -0.4789
 3165poe    c2316375   6.375   6.689  -0.145  0.4803 -0.0776  0.2985
 3165poe     o216376   6.445   6.707  -0.023 -0.4210  0.3531  0.7571
 3165poe    c2316377   6.541   6.808  -0.044 -0.4369  0.2997  0.4210
 3165poe    c2316378   6.616   6.847   0.085  0.3979 -0.1719  0.0883
 3165poe     o216379   6.543   6.919   0.181  0.2309 -0.3579  0.1019
 3165poe    c3116380   6.543   7.060   0.171  0.3494 -0.3482  0.2309
 3166poe    c3116381   7.180   3.614   7.316 -0.3118 -0.4118  0.2018
 3166poe     o216382   7.077   3.632   7.410 -0.2110  0.4050  0.1656
 3166poe    c2316383   7.030   3.512   7.467  0.1905  0.2189  0.1081
 3166poe    c2316384   6.981   3.538   7.611  0.5054  0.5478  0.1564
 3166poe     o216385   6.859   3.606   7.591  0.2843  0.0781 -0.0995
 3166poe    c2316386   6.812   3.662   7.712 -0.0233  0.1442 -0.2474
 3166poe    c2316387   6.726   3.786   7.681  0.5899  0.4842 -0.6037
 3166poe     o216388   6.624   3.744   7.594 -0.4012  0.1222  0.7116
 3166poe    c2316389   6.566   3.855   7.530 -0.4489 -0.0907  0.3814
 3166poe    c2316390   6.475   3.817   7.411 -0.1078  1.0250 -0.2562
 3166poe     o216391   6.547   3.731   7.326 -0.1847  0.3980  0.2988
 3166poe    c3116392   6.463   3.687   7.222  0.3033  0.3804 -0.0972
 3167poe    c3116393   5.487   5.978   6.764  0.3638 -0.4732 -0.7833
 3167poe     o216394   5.505   6.116   6.786 -0.4460 -0.5221  0.3031
 3167poe    c2316395   5.548   6.172   6.663 -0.9058 -0.1824  0.2956
 3167poe    c2316396   5.566   6.324   6.646  0.5058 -0.3814 -0.0726
 3167poe     o216397   5.677   6.381   6.712  0.2539 -0.0847  0.0949
 3167poe    c2316398   5.680   6.518   6.679  0.4422 -0.3544 -1.0375
 3167poe    c2316399   5.788   6.594   6.759 -0.5082  0.3697 -0.4189
 3167poe     o216400   5.775   6.588   6.899 -0.0816 -0.3773 -0.4076
 3167poe    c2316401   5.861   6.668   6.977 -0.1088 -0.2311 -0.5286
 3167poe    c2316402   5.838   6.670   7.129  0.8196 -0.3293 -0.3754
 3167poe     o216403   5.874   6.543   7.178  0.2736 -0.3561 -0.0364
 3167poe    c3116404   5.882   6.540   7.319 -0.1100  0.0588  0.0001
 3168poe    c3116405   3.704   4.385   6.366  1.0479  0.2874  0.3238
 3168poe     o216406   3.815   4.312   6.318  0.5630 -0.6615  0.6124
 3168poe    c2316407   3.906   4.416   6.290 -0.5911  0.3075  0.3360
 3168poe    c2316408   3.992   4.395   6.164 -0.2831 -0.2410  0.6291
 3168poe     o216409   3.903   4.394   6.054  0.0562 -0.1300  0.3517
 3168poe    c2316410   3.970   4.366   5.934 -0.1748  0.2027  0.1430
 3168poe    c2316411   3.862   4.382   5.825  0.7668 -0.2600 -0.8846
 3168poe     o216412   3.752   4.303   5.865  0.3552  0.6489 -0.1904
 3168poe    c2316413   3.688   4.246   5.753 -0.0509  0.3810  0.1762
 3168poe    c2316414   3.567   4.158   5.790  0.5464 -0.4922  0.0944
 3168poe     o216415   3.485   4.225   5.884  0.8346  0.2156 -0.1458
 3168poe    c3116416   3.374   4.145   5.920  1.2174 -0.0939  0.3639
 3169poe    c3116417   2.838   6.978   0.452 -0.2068 -0.2669  0.3097
 3169poe     o216418   2.797   7.108   0.486 -0.0155 -0.2166  0.3498
 3169poe    c2316419   2.657   7.120   0.491 -0.0233 -0.3730  0.5141
 3169poe    c2316420   2.611   7.243   0.572 -0.2713  0.2302 -0.5248
 3169poe     o216421   2.663   7.362   0.517  0.6630  0.2490  0.3686
 3169poe    c2316422   2.630   7.462   0.610 -0.0110  0.0276  0.3760
 3169poe    c2316423   2.651   7.602   0.548 -0.0015 -0.1231  0.0419
 3169poe     o216424   2.786   7.617   0.510 -0.0731  0.5315  0.0445
 3169poe    c2316425   2.811   7.751   0.472  0.1631  0.4307 -0.1517
 3169poe    c2316426   2.960   7.786   0.488  0.2279  0.3584 -0.5693
 3169poe     o216427   3.031   7.675   0.436 -0.5640 -0.2557 -0.3600
 3169poe    c3116428   3.156   7.733   0.405 -0.1675 -0.4201  0.8716
 3170poe    c3116429   4.324   5.180   2.646 -0.4577 -0.0061 -0.4321
 3170poe     o216430   4.291   5.265   2.754  0.0147  0.2357 -0.4758
 3170poe    c2316431   4.388   5.252   2.855 -0.5102 -0.1912 -0.0208
 3170poe    c2316432   4.324   5.253   2.995  0.0919 -0.0231  0.2599
 3170poe     o216433   4.264   5.381   3.003 -0.5482 -0.3182  0.2411
 3170poe    c2316434   4.245   5.435   3.131 -0.3785  0.1480  0.0695
 3170poe    c2316435   4.126   5.533   3.143 -0.2942  0.2235  0.2944
 3170poe     o216436   4.108   5.650   3.067 -0.2590 -0.2052 -0.3825
 3170poe    c2316437   3.984   5.704   3.107 -0.0012 -0.2835  0.5480
 3170poe    c2316438   4.011   5.849   3.149  0.1079 -0.3640  0.7570
 3170poe     o216439   4.078   5.861   3.273  0.3937 -0.3080  0.5996
 3170poe    c3116440   4.060   5.989   3.330 -0.3291 -0.3232  0.4188
 3171poe    c3116441   6.953   2.674   2.174  0.2574 -0.7823 -0.0294
 3171poe     o216442   6.955   2.799   2.110 -0.2799 -0.8247 -0.1347
 3171poe    c2316443   6.879   2.788   1.992 -0.1270  0.7153 -0.3959
 3171poe    c2316444   6.900   2.893   1.880 -0.2054  0.8779 -0.2588
 3171poe     o216445   7.028   2.928   1.833 -0.0148  0.5581  0.0153
 3171poe    c2316446   7.014   3.019   1.726 -0.2636  0.5064  0.0036
 3171poe    c2316447   7.140   3.106   1.717  0.0588  0.0462  0.0564
 3171poe     o216448   7.153   3.185   1.601  0.6103 -0.4664 -0.2368
 3171poe    c2316449   7.262   3.274   1.615  0.6293 -0.3475 -1.1036
 3171poe    c2316450   7.256   3.397   1.522 -0.0267  0.2079 -0.3389
 3171poe     o216451   7.248   3.335   1.396 -0.9771  0.0898 -0.2284
 3171poe    c3116452   7.217   3.428   1.295 -0.5356  0.5754  0.0761
 3172poe    c3116453   0.804   4.496   2.159  0.2888  0.0438 -0.4805
 3172poe     o216454   0.745   4.397   2.241 -0.0092  0.6237  0.0076
 3172poe    c2316455   0.622   4.357   2.185  0.0323  0.5101 -0.0006
 3172poe    c2316456   0.552   4.231   2.240 -0.0055  0.2898 -0.5532
 3172poe     o216457   0.476   4.237   2.358 -0.1893 -0.1740 -0.6420
 3172poe    c2316458   0.350   4.296   2.336 -0.1287  0.1997 -0.0214
 3172poe    c2316459   0.267   4.283   2.465  0.0063 -0.5728 -0.0130
 3172poe     o216460   0.129   4.313   2.459 -0.0717 -0.9276 -0.0321
 3172poe    c2316461   0.076   4.317   2.590 -0.4546 -0.9658 -0.1847
 3172poe    c2316462  -0.076   4.336   2.596 -0.2888  0.4972 -0.3663
 3172poe     o216463  -0.169   4.236   2.562  0.2944 -0.3505  0.4868
 3172poe    c3116464  -0.300   4.273   2.599  0.4999  0.3515  0.5093
 3173poe    c3116465   1.432   2.574   6.980 -0.1670 -0.5604  0.0896
 3173poe     o216466   1.293   2.576   6.957  0.0232  0.3867 -1.0651
 3173poe    c2316467   1.243   2.470   6.879 -0.2123 -0.3224  0.0271
 3173poe    c2316468   1.091   2.451   6.897 -0.2709 -0.0294 -0.1374
 3173poe     o216469   1.008   2.559   6.863 -0.3854 -0.0913 -0.0538
 3173poe    c2316470   0.873   2.535   6.896 -0.4688  0.5882  0.1262
 3173poe    c2316471   0.784   2.651   6.848 -0.6986  0.3172 -0.1068
 3173poe     o216472   0.820   2.774   6.907 -0.4089  0.2112 -0.0629
 3173poe    c2316473   0.724   2.862   6.854 -0.4404  0.2124 -0.0027
 3173poe    c2316474   0.775   3.007   6.841 -0.1701  0.0835 -0.3802
 3173poe     o216475   0.880   3.010   6.747 -0.1810 -0.6671 -0.4243
 3173poe    c3116476   0.950   3.131   6.769 -0.0519 -0.9024  0.5045
 3174poe    c3116477   2.170   2.360   0.717  0.1691  0.1590 -0.5977
 3174poe     o216478   2.167   2.429   0.840  0.0566 -0.1480 -0.4284
 3174poe    c2316479   2.130   2.339   0.942  0.8749  0.0667  0.0642
 3174poe    c2316480   2.110   2.419   1.072 -0.0593  0.6760 -0.4436
 3174poe     o216481   2.226   2.491   1.106  0.1183  0.2054 -0.0439
 3174poe    c2316482   2.321   2.426   1.188 -0.0957  0.4433  0.3943
 3174poe    c2316483   2.423   2.523   1.250  0.0868  0.1958  0.4842
 3174poe     o216484   2.435   2.608   1.138 -0.3635  0.0522  0.3249
 3174poe    c2316485   2.552   2.687   1.131  0.0797 -0.6426 -0.3245
 3174poe    c2316486   2.521   2.809   1.041  0.1571 -0.3392  0.0579
 3174poe     o216487   2.385   2.828   1.012  0.1122 -0.2188  0.3473
 3174poe    c3116488   2.364   2.914   0.902  0.0315  0.1279  0.6304
 3175poe    c3116489   6.963   4.603   3.399  0.2098  0.4879 -0.6890
 3175poe     o216490   7.030   4.725   3.377  0.1262  0.7302  0.3186
 3175poe    c2316491   7.041   4.756   3.240  0.5679 -0.2175  0.1329
 3175poe    c2316492   7.128   4.883   3.232 -0.2980  0.4438  0.9467
 3175poe     o216493   7.072   4.999   3.288 -0.3498  0.7875  0.2013
 3175poe    c2316494   7.151   5.112   3.319  0.4315  0.4779 -0.6470
 3175poe    c2316495   7.244   5.085   3.439  0.2802  0.8835 -0.4371
 3175poe     o216496   7.186   5.104   3.566 -0.3397 -0.0653 -0.5716
 3175poe    c2316497   7.277   5.164   3.655 -0.5664  0.3224 -0.5986
 3175poe    c2316498   7.192   5.216   3.772  0.0694 -0.0372  0.0262
 3175poe     o216499   7.155   5.351   3.758  0.3360  0.0105 -0.2152
 3175poe    c3116500   7.021   5.356   3.716  0.3557  0.1136 -0.2666
 3176poe    c3116501   1.207   4.960   4.724  0.2755 -0.2313  0.0215
 3176poe     o216502   1.287   4.866   4.656  0.2710 -0.3672  0.2038
 3176poe    c2316503   1.403   4.928   4.605  0.0297 -0.1430 -0.0717
 3176poe    c2316504   1.528   4.896   4.688 -0.1666 -1.0145 -0.0994
 3176poe     o216505   1.537   4.911   4.828  0.0554 -0.1690 -0.1944
 3176poe    c2316506   1.668   4.941   4.869 -0.0776 -0.2439  0.2976
 3176poe    c2316507   1.715   4.896   5.008 -0.3297  0.0048  0.4634
 3176poe     o216508   1.731   4.757   5.018  0.6021  0.0400 -0.4521
 3176poe    c2316509   1.783   4.734   5.147  0.8109  0.8705 -0.3873
 3176poe    c2316510   1.836   4.590   5.156 -0.8171  0.2178 -0.9484
 3176poe     o216511   1.951   4.580   5.077 -0.1992  0.2323 -0.0683
 3176poe    c3116512   2.034   4.493   5.150  0.2239  0.7686  0.0988
 3177poe    c3116513   4.840   1.937   6.868 -0.1537 -0.0479 -0.0663
 3177poe     o216514   4.854   1.979   6.734  0.0229 -0.0751 -0.0562
 3177poe    c2316515   4.978   1.939   6.681  0.1763  0.0847  0.1780
 3177poe    c2316516   5.028   1.998   6.548 -1.0468  0.6131 -0.0528
 3177poe     o216517   5.072   2.131   6.559  1.0631 -0.0751  0.2114
 3177poe    c2316518   5.158   2.148   6.449 -0.1989 -0.7251 -0.9028
 3177poe    c2316519   5.182   2.294   6.406  0.1052 -0.5197 -0.0414
 3177poe     o216520   5.084   2.342   6.317  0.2260 -0.5876 -0.2103
 3177poe    c2316521   5.037   2.466   6.364  0.7591 -0.6006  0.3585
 3177poe    c2316522   4.885   2.484   6.384  0.6025  0.0648 -1.2552
 3177poe     o216523   4.832   2.440   6.507  0.0925  0.8053 -1.2060
 3177poe    c3116524   4.705   2.491   6.539  0.1288  0.4783 -0.5075
 3178poe    c3116525   2.646   3.862   1.609 -0.0405 -0.2541 -0.0643
 3178poe     o216526   2.691   3.842   1.477 -0.3351  0.0988 -0.2210
 3178poe    c2316527   2.762   3.952   1.425 -0.3678  0.0300 -0.4146
 3178poe    c2316528   2.833   3.898   1.300 -0.1670  0.2337 -0.3902
 3178poe     o216529   2.736   3.858   1.206 -0.3987  0.2360 -0.1553
 3178poe    c2316530   2.783   3.805   1.084 -0.0262 -0.2615  0.2038
 3178poe    c2316531   2.781   3.651   1.077  0.2375 -0.2445 -0.3214
 3178poe     o216532   2.653   3.599   1.106  0.1544 -0.1447 -0.5079
 3178poe    c2316533   2.623   3.465   1.073  0.0153 -0.4105  0.6484
 3178poe    c2316534   2.484   3.441   1.135 -0.3603  0.1746  0.0463
 3178poe     o216535   2.485   3.466   1.274  0.1071 -0.3276  0.1401
 3178poe    c3116536   2.362   3.453   1.343 -0.0503 -0.3387 -0.1394
 3179poe    c3116537   5.039   6.328   5.493 -0.6222  0.6894  0.0458
 3179poe     o216538   5.040   6.393   5.368  0.0161  0.3999 -0.1074
 3179poe    c2316539   4.960   6.323   5.275  0.3993  0.0984 -0.2124
 3179poe    c2316540   5.021   6.216   5.183 -0.1143 -0.4344  0.0594
 3179poe     o216541   5.122   6.274   5.105 -0.1675 -0.2572  0.1209
 3179poe    c2316542   5.251   6.239   5.152 -0.0062  0.5724  0.3270
 3179poe    c2316543   5.374   6.285   5.072  0.0941 -0.1522  0.0484
 3179poe     o216544   5.405   6.421   5.094 -0.0920 -0.1212  0.1204
 3179poe    c2316545   5.505   6.474   5.010  0.1784 -0.0424  0.4935
 3179poe    c2316546   5.523   6.619   5.060  0.1964  0.1387 -0.0291
 3179poe     o216547   5.399   6.669   5.105  0.3215  0.4619 -0.0446
 3179poe    c3116548   5.422   6.774   5.196  0.4738  0.7918 -0.4620
 3180poe    c3116549   1.714   0.910   6.954 -0.1806 -0.3797  0.0588
 3180poe     o216550   1.834   0.887   6.883 -0.5541 -0.5358 -0.5261
 3180poe    c2316551   1.939   0.947   6.955 -0.5215 -0.2299 -0.8229
 3180poe    c2316552   2.083   0.927   6.903  0.1119  0.0647  0.7445
 3180poe     o216553   2.117   0.790   6.910 -0.1189 -0.0326  0.0701
 3180poe    c2316554   2.196   0.748   6.801  0.5425  0.2749  0.4199
 3180poe    c2316555   2.190   0.595   6.814  0.1976  0.2193 -0.3489
 3180poe     o216556   2.068   0.541   6.767  0.4010 -0.1617 -0.4443
 3180poe    c2316557   2.078   0.400   6.768 -0.3050 -0.2157  0.1273
 3180poe    c2316558   1.946   0.320   6.768 -0.4116 -0.0423  0.0771
 3180poe     o216559   1.878   0.310   6.646  0.1303  0.4599 -0.2684
 3180poe    c3116560   1.909   0.197   6.567  1.0097  0.3316  0.2554
 3181poe    c3116561   6.132   1.414   3.413  0.1268  0.3230  0.3842
 3181poe     o216562   6.054   1.349   3.511  0.5611 -0.5848  0.1372
 3181poe    c2316563   5.993   1.441   3.600  0.4051 -0.4939 -0.0634
 3181poe    c2316564   5.904   1.354   3.691  0.2950 -0.1039  0.2026
 3181poe     o216565   5.978   1.239   3.725 -0.5983 -0.7520 -0.0111
 3181poe    c2316566   5.912   1.183   3.836 -1.1047 -0.1293  0.0057
 3181poe    c2316567   5.994   1.057   3.869 -0.2633  0.3044 -0.4149
 3181poe     o216568   6.043   0.988   3.757 -0.5755 -0.3579 -0.1491
 3181poe    c2316569   6.103   0.862   3.780  0.0725  0.0072  0.1916
 3181poe    c2316570   6.128   0.791   3.646  0.3800 -0.3247  0.4234
 3181poe     o216571   6.244   0.837   3.579  0.0155  0.1064  0.0807
 3181poe    c3116572   6.254   0.774   3.454 -0.4003 -0.2612  0.2277
 3182poe    c3116573   5.874   6.180   1.404 -0.1078 -0.0770  0.6370
 3182poe     o216574   5.991   6.117   1.356 -0.1986  0.2341 -0.0069
 3182poe    c2316575   5.992   5.977   1.365 -0.3398  0.2018 -0.5061
 3182poe    c2316576   6.124   5.934   1.300 -0.3570 -0.2283 -0.2608
 3182poe     o216577   6.245   5.986   1.352 -0.4395 -0.3021  0.0061
 3182poe    c2316578   6.354   5.900   1.374  0.0738  0.2573 -0.3325
 3182poe    c2316579   6.485   5.974   1.408  0.6669 -0.6024 -0.7312
 3182poe     o216580   6.543   6.046   1.301  0.1457  0.3460 -0.3864
 3182poe    c2316581   6.674   6.095   1.322  0.2176  0.0560 -0.1408
 3182poe    c2316582   6.697   6.208   1.424  0.0558 -0.3618  0.3628
 3182poe     o216583   6.640   6.331   1.387  0.3482 -0.4234 -0.3173
 3182poe    c3116584   6.663   6.408   1.503 -0.8704  0.4344 -0.6286
 3183poe    c3116585   0.174   0.387   4.164  0.0390  0.4276 -0.5778
 3183poe     o216586   0.293   0.393   4.089  0.2054  0.1734 -0.3379
 3183poe    c2316587   0.349   0.519   4.117 -0.2366  0.2311  0.2960
 3183poe    c2316588   0.493   0.501   4.169 -0.1017 -0.5016 -0.3122
 3183poe     o216589   0.592   0.483   4.070 -0.0071 -0.3736 -0.2404
 3183poe    c2316590   0.704   0.437   4.143  0.2567  0.1258 -0.3266
 3183poe    c2316591   0.810   0.380   4.047 -0.0534 -0.3595 -0.3831
 3183poe     o216592   0.760   0.266   3.981  0.1226 -0.4828 -0.3042
 3183poe    c2316593   0.800   0.149   4.050 -0.2782 -0.4511 -0.0137
 3183poe    c2316594   0.778   0.032   3.952  0.1335 -0.9526  0.4892
 3183poe     o216595   0.652   0.048   3.891  0.3603 -0.1553  0.2213
 3183poe    c3116596   0.618  -0.061   3.808  0.8911 -0.5500  0.5171
 3184poe    c3116597   5.879   2.747   3.592  0.0673 -0.0103  0.1938
 3184poe     o216598   5.766   2.818   3.637 -0.0583  0.0087 -0.1434
 3184poe    c2316599   5.803   2.928   3.717  0.1042 -0.2942  0.2021
 3184poe    c2316600   5.684   3.017   3.755  1.0063  0.7554  0.6343
 3184poe     o216601   5.646   3.112   3.658 -0.0307  0.3126  0.5967
 3184poe    c2316602   5.537   3.185   3.711 -0.3852 -0.1435  0.5039
 3184poe    c2316603   5.422   3.212   3.611  0.2557  0.6388 -0.0386
 3184poe     o216604   5.375   3.090   3.558 -0.2609  0.6125  0.4742
 3184poe    c2316605   5.241   3.109   3.519 -0.2560 -0.3150 -0.0166
 3184poe    c2316606   5.211   2.976   3.446  0.4850 -0.3970 -0.1770
 3184poe     o216607   5.313   2.937   3.357  0.8284 -0.3678  0.1993
 3184poe    c3116608   5.258   2.824   3.293 -0.2488  0.5023 -0.4305
 3185poe    c3116609   0.115   2.008   5.375  0.0165  0.2004  0.3414
 3185poe     o216610   0.154   1.965   5.503 -0.0294 -0.0215  0.2810
 3185poe    c2316611   0.044   1.937   5.587 -0.1649  0.0143  0.1153
 3185poe    c2316612   0.068   1.844   5.707  0.2144 -0.1791 -0.1088
 3185poe     o216613   0.098   1.713   5.665  0.0964 -0.1989 -0.1313
 3185poe    c2316614   0.087   1.617   5.768  0.0264 -0.2361 -0.1729
 3185poe    c2316615   0.138   1.481   5.719 -0.2475 -0.4187  0.0455
 3185poe     o216616   0.262   1.483   5.652  0.0076 -0.1595  0.5237
 3185poe    c2316617   0.253   1.390   5.547  0.0699  0.6431 -0.2050
 3185poe    c2316618   0.382   1.348   5.474 -0.1742  0.6150 -0.6262
 3185poe     o216619   0.417   1.453   5.387  0.7790  0.1857 -0.7760
 3185poe    c3116620   0.539   1.419   5.324  1.2392 -0.0903  0.2534
 3186poe    c3116621   6.747   2.382   5.936  0.4823 -0.3976 -0.0845
 3186poe     o216622   6.838   2.341   6.035  0.3335  0.6507  0.4959
 3186poe    c2316623   6.966   2.399   6.018  0.4958 -0.0080 -0.6396
 3186poe    c2316624   7.068   2.355   6.124 -0.0208 -0.0972 -0.1721
 3186poe     o216625   7.088   2.218   6.097 -0.8910 -0.2189 -0.2182
 3186poe    c2316626   7.123   2.126   6.198  0.0872  0.1914 -0.1772
 3186poe    c2316627   7.271   2.140   6.242 -0.0211 -0.2178  0.3316
 3186poe     o216628   7.369   2.120   6.143  0.0791  0.0207  0.3819
 3186poe    c2316629   7.450   2.008   6.171 -0.1490 -0.1528  0.3489
 3186poe    c2316630   7.583   2.038   6.241 -0.2207 -0.5560  0.6619
 3186poe     o216631   7.575   2.077   6.376 -0.1845  0.8325  0.2749
 3186poe    c3116632   7.704   2.107   6.424  0.3752 -0.4277 -0.3997
 3187poe    c3116633   0.317   4.449   1.118  0.3376 -0.3390 -0.0666
 3187poe     o216634   0.310   4.509   1.245  0.1352 -0.4373 -0.0309
 3187poe    c2316635   0.426   4.504   1.324 -0.1617 -0.0245  0.4377
 3187poe    c2316636   0.417   4.489   1.477  0.3044 -0.2497  0.4472
 3187poe     o216637   0.315   4.572   1.530  0.3916  0.3505 -0.3111
 3187poe    c2316638   0.282   4.526   1.659  0.8640  0.6461 -0.0780
 3187poe    c2316639   0.142   4.461   1.667  0.7031  0.9622 -0.2927
 3187poe     o216640   0.032   4.548   1.653  0.3307  0.4060 -0.8729
 3187poe    c2316641  -0.089   4.485   1.690  0.5134  0.2599 -0.5181
 3187poe    c2316642  -0.201   4.576   1.745  0.0697 -0.2445 -0.5805
 3187poe     o216643  -0.246   4.668   1.648  0.8359  0.2918 -0.4388
 3187poe    c3116644  -0.323   4.766   1.715 -0.4863 -0.4146 -0.8806
 3188poe    c3116645   3.713   3.040   6.415 -0.3245 -0.2440  0.0777
 3188poe     o216646   3.735   2.965   6.533  0.7134 -0.2349 -0.0992
 3188poe    c2316647   3.692   2.831   6.533  0.0499 -0.0292  0.4746
 3188poe    c2316648   3.631   2.805   6.672 -0.8124 -0.3214  0.0495
 3188poe     o216649   3.510   2.875   6.692 -0.6810 -0.1366  0.2103
 3188poe    c2316650   3.468   2.862   6.826 -0.9177  0.3261  0.1817
 3188poe    c2316651   3.368   2.970   6.870 -0.2187  1.0311  0.0534
 3188poe     o216652   3.408   3.106   6.862  0.7857  0.7083 -0.5866
 3188poe    c2316653   3.390   3.158   6.732  0.0506  0.0160 -0.7731
 3188poe    c2316654   3.446   3.301   6.734  0.0939 -0.0077 -0.1608
 3188poe     o216655   3.363   3.399   6.791  0.3068  0.2223 -0.2437
 3188poe    c3116656   3.418   3.495   6.879 -0.3330  0.6958 -0.3534
 3189poe    c3116657   1.303   4.365   1.362  0.0154  0.6572  0.3944
 3189poe     o216658   1.282   4.376   1.501 -0.2844 -0.0457  0.4081
 3189poe    c2316659   1.144   4.407   1.509 -0.3132 -0.0179 -0.1547
 3189poe    c2316660   1.093   4.481   1.634 -0.7177 -0.4466 -0.0650
 3189poe     o216661   1.115   4.405   1.751 -0.1837  0.0052  0.1309
 3189poe    c2316662   1.052   4.453   1.868 -0.6125 -0.5807  0.1428
 3189poe    c2316663   1.111   4.380   1.990 -0.1905  0.4843  0.5872
 3189poe     o216664   1.246   4.417   2.001  0.2796 -0.8225 -0.5334
 3189poe    c2316665   1.312   4.355   2.109 -0.0685  0.2098  0.2906
 3189poe    c2316666   1.459   4.400   2.112 -0.0756  0.2549 -0.0903
 3189poe     o216667   1.512   4.386   1.982 -0.3234  0.4086 -0.2094
 3189poe    c3116668   1.651   4.407   1.990 -0.1821 -0.5395 -0.0929
 3190poe    c3116669   4.969   4.735   2.709 -0.4919  0.5164  0.8080
 3190poe     o216670   5.082   4.775   2.635 -0.7925 -0.1747 -0.0439
 3190poe    c2316671   5.063   4.749   2.498 -0.1461  0.2275 -0.2171
 3190poe    c2316672   5.133   4.859   2.416 -0.3718  0.2619 -0.3647
 3190poe     o216673   5.265   4.856   2.465 -0.5525  0.4285  0.1425
 3190poe    c2316674   5.360   4.950   2.420  0.3166 -0.2466  0.5233
 3190poe    c2316675   5.494   4.941   2.494  0.6172 -0.5584 -0.0558
 3190poe     o216676   5.476   4.906   2.630 -0.1912  0.0646  0.0023
 3190poe    c2316677   5.592   4.918   2.709 -0.0378 -0.5662 -0.1193
 3190poe    c2316678   5.586   5.052   2.785 -0.2167 -0.5179 -0.2179
 3190poe     o216679   5.467   5.048   2.860  0.1642 -0.3657  0.4053
 3190poe    c3116680   5.462   5.173   2.924 -0.8870 -0.2992  0.2168
 3191poe    c3116681   3.026   5.035   4.083 -0.2493 -0.2594  0.1296
 3191poe     o216682   2.886   5.036   4.104 -0.3780  0.5037 -0.7103
 3191poe    c2316683   2.850   4.903   4.076  0.3572  0.1617 -0.0780
 3191poe    c2316684   2.752   4.842   4.178  0.3142  0.6193  0.1577
 3191poe     o216685   2.624   4.898   4.165 -0.1119 -0.4852 -0.5425
 3191poe    c2316686   2.518   4.828   4.228 -0.1608 -0.2216 -0.3314
 3191poe    c2316687   2.391   4.915   4.214 -0.0932  0.0413  0.5817
 3191poe     o216688   2.357   4.917   4.077 -0.6094 -0.0318  0.7077
 3191poe    c2316689   2.231   4.976   4.056 -0.2592  0.4096 -0.2180
 3191poe    c2316690   2.194   4.931   3.913  0.1438 -0.1990 -0.1340
 3191poe     o216691   2.311   4.941   3.834  0.1810 -0.1113 -0.0671
 3191poe    c3116692   2.277   4.990   3.707 -0.0878 -0.2110 -0.0339
 3192poe    c3116693   3.429   6.175   0.896  0.4958 -0.4240 -0.1378
 3192poe     o216694   3.350   6.230   0.793  0.0755 -0.1894  0.3038
 3192poe    c2316695   3.388   6.364   0.768 -0.1298 -0.2423 -0.3070
 3192poe    c2316696   3.323   6.408   0.636 -0.0655  0.4715 -0.1068
 3192poe     o216697   3.365   6.313   0.540 -0.1926  0.5585 -0.2492
 3192poe    c2316698   3.338   6.358   0.409 -0.7693  0.0010 -0.3252
 3192poe    c2316699   3.399   6.267   0.301  0.0075  0.0888  0.0374
 3192poe     o216700   3.376   6.133   0.338 -0.1348 -0.0116 -0.4113
 3192poe    c2316701   3.411   6.036   0.242  0.2745  0.0513 -0.3291
 3192poe    c2316702   3.562   6.004   0.244  0.0960 -0.8018 -0.0812
 3192poe     o216703   3.596   5.953   0.371 -0.7617 -0.5771  0.2454
 3192poe    c3116704   3.616   5.815   0.354  0.3313 -0.4591  0.5308
 3193poe    c3116705   6.561   3.616   2.386  0.6399  0.3075  0.5234
 3193poe     o216706   6.547   3.706   2.278 -0.1102  0.0110  0.3671
 3193poe    c2316707   6.438   3.688   2.191  0.3477 -0.5000 -0.1061
 3193poe    c2316708   6.415   3.808   2.096 -0.3240 -0.2027  0.4291
 3193poe     o216709   6.364   3.922   2.161  0.0422  0.3044 -0.1680
 3193poe    c2316710   6.341   4.021   2.063 -0.1088  0.4014 -0.0357
 3193poe    c2316711   6.376   4.157   2.125  0.0566  0.2558  0.1901
 3193poe     o216712   6.277   4.194   2.219 -0.4334  0.4643 -0.4042
 3193poe    c2316713   6.307   4.305   2.301  0.2712  0.4086 -0.5759
 3193poe    c2316714   6.187   4.397   2.332 -0.2485 -0.3433 -0.3310
 3193poe     o216715   6.085   4.316   2.386 -0.0182 -0.0970  0.4795
 3193poe    c3116716   5.978   4.404   2.412 -0.3433 -0.3481 -0.0005
 3194poe    c3116717   6.511   5.822   4.876  0.3743  0.8817 -0.0385
 3194poe     o216718   6.373   5.825   4.905  0.1851 -0.1720 -0.7706
 3194poe    c2316719   6.299   5.718   4.852  0.4320 -0.4673 -0.5219
 3194poe    c2316720   6.323   5.575   4.903 -0.2737 -0.3165  0.2429
 3194poe     o216721   6.284   5.556   5.038 -0.5348  0.1114  0.2279
 3194poe    c2316722   6.352   5.446   5.094 -0.2206  0.4959  0.6034
 3194poe    c2316723   6.255   5.335   5.137  0.1080  0.0224  0.1244
 3194poe     o216724   6.157   5.368   5.232 -0.5608  0.4551 -0.7050
 3194poe    c2316725   6.050   5.277   5.223 -0.5406  0.3630 -0.0632
 3194poe    c2316726   5.942   5.306   5.329 -0.5717 -0.2445  0.0736
 3194poe     o216727   5.978   5.311   5.465 -0.8574  0.5858  0.1246
 3194poe    c3116728   5.982   5.183   5.524  0.4875  0.6556  0.2118
 3195poe    c3116729   0.074   3.411   2.254 -0.0720  0.7168 -0.0917
 3195poe     o216730   0.176   3.454   2.341  0.3131 -0.3517 -0.0079
 3195poe    c2316731   0.134   3.474   2.474 -0.1260 -0.3513 -0.1462
 3195poe    c2316732   0.250   3.463   2.574  0.0587 -0.4014 -0.3645
 3195poe     o216733   0.348   3.561   2.546  0.1295 -0.3813 -0.0481
 3195poe    c2316734   0.439   3.546   2.653  0.3469  0.0931 -0.1646
 3195poe    c2316735   0.534   3.666   2.634  0.0394  0.2493 -0.7315
 3195poe     o216736   0.575   3.666   2.499  0.1780 -0.2863 -0.6928
 3195poe    c2316737   0.649   3.781   2.465 -0.2147  0.1092 -0.2267
 3195poe    c2316738   0.715   3.757   2.328 -0.1995 -0.0335 -0.1941
 3195poe     o216739   0.609   3.706   2.252 -0.2906  0.3158 -0.3025
 3195poe    c3116740   0.652   3.667   2.123  0.1294 -0.0164 -0.0626
 3196poe    c3116741   3.799   6.932   2.290  0.6358 -0.0858 -0.4903
 3196poe     o216742   3.846   6.836   2.381  0.1173 -0.1884 -0.3260
 3196poe    c2316743   3.746   6.792   2.470  0.4721  0.7957  0.5786
 3196poe    c2316744   3.807   6.713   2.587  0.0494 -0.7533 -0.2268
 3196poe     o216745   3.885   6.599   2.557  0.5935 -0.3930 -0.1712
 3196poe    c2316746   3.931   6.519   2.664 -0.8554 -0.2949  0.5404
 3196poe    c2316747   3.948   6.369   2.637  0.0482 -0.1443  0.2478
 3196poe     o216748   4.024   6.368   2.518 -0.4967  0.5082 -0.1157
 3196poe    c2316749   4.050   6.234   2.482 -0.2545  0.3746  0.5413
 3196poe    c2316750   4.138   6.250   2.357  0.0664 -0.6763  0.6201
 3196poe     o216751   4.069   6.336   2.270  0.4896 -0.7574  0.1998
 3196poe    c3116752   4.157   6.352   2.161 -0.0320 -0.7845 -0.2310
 3197poe    c3116753   1.673   3.870   7.146  0.0672  0.1488 -0.1799
 3197poe     o216754   1.754   3.919   7.251 -0.0497 -0.3672  0.1573
 3197poe    c2316755   1.735   3.828   7.356 -0.1436 -0.6845 -0.1318
 3197poe    c2316756   1.811   3.875   7.482 -0.1415 -0.2006 -0.3133
 3197poe     o216757   1.951   3.885   7.468 -0.1659  0.6320 -0.0266
 3197poe    c2316758   2.017   3.859   7.590  0.0701 -0.1813 -0.3246
 3197poe    c2316759   2.171   3.868   7.583  0.0619  0.1004 -0.1291
 3197poe     o216760   2.226   3.997   7.568 -0.3512  0.3162  0.1772
 3197poe    c2316761   2.367   3.992   7.573 -0.3718  0.2403  0.9008
 3197poe    c2316762   2.417   4.138   7.579  0.4508 -0.0163  0.4422
 3197poe     o216763   2.366   4.206   7.467  0.3307 -0.0178  0.4956
 3197poe    c3116764   2.404   4.341   7.482 -0.3666  0.2077  0.2775
 3198poe    c3116765   5.718   3.679   2.717 -0.6618 -0.3782  0.4499
 3198poe     o216766   5.725   3.658   2.856 -0.3510 -0.0809  0.4790
 3198poe    c2316767   5.806   3.746   2.931  0.2890 -0.1124 -0.1680
 3198poe    c2316768   5.781   3.732   3.082  0.0495  0.1793 -0.1792
 3198poe     o216769   5.646   3.735   3.120  0.1298 -0.0298  0.1255
 3198poe    c2316770   5.661   3.718   3.259 -0.3341  0.4679  0.2431
 3198poe    c2316771   5.521   3.702   3.322 -0.4806  0.1085 -0.1668
 3198poe     o216772   5.439   3.617   3.246 -0.8113  0.2232  0.0593
 3198poe    c2316773   5.315   3.602   3.312 -1.0921  0.5686 -0.3794
 3198poe    c2316774   5.241   3.512   3.211 -0.2046 -0.0103 -0.5363
 3198poe     o216775   5.271   3.569   3.086  0.2017  0.3956 -0.2553
 3198poe    c3116776   5.162   3.528   3.007  0.1976 -0.2865  0.1017
 3199poe    c3116777   5.479   6.921   1.975 -0.5113  0.1351 -0.0697
 3199poe     o216778   5.448   7.044   2.036 -0.4293 -0.1244  0.5128
 3199poe    c2316779   5.475   7.151   1.947 -0.2461 -0.1321  0.5593
 3199poe    c2316780   5.614   7.217   1.962 -0.0524 -0.3875 -0.0928
 3199poe     o216781   5.638   7.258   2.095  0.2703  0.0376 -0.2819
 3199poe    c2316782   5.774   7.295   2.106  0.2618  0.0418 -0.1894
 3199poe    c2316783   5.805   7.350   2.246 -0.5496 -0.0799  0.0407
 3199poe     o216784   5.778   7.281   2.366  0.7642  0.0568  0.4235
 3199poe    c2316785   5.840   7.339   2.479  0.3363  0.4530  0.4568
 3199poe    c2316786   5.739   7.422   2.559  0.0742  1.1571 -0.5762
 3199poe     o216787   5.632   7.330   2.569  0.5323  0.6625 -0.1256
 3199poe    c3116788   5.614   7.301   2.706 -0.1772  0.6272 -0.2189
 3200poe    c3116789   2.353   5.593   0.279  0.9566  0.1871 -0.1349
 3200poe     o216790   2.377   5.470   0.342  0.1041  0.0613 -0.0414
 3200poe    c2316791   2.305   5.446   0.461  0.0265  0.2683 -0.0477
 3200poe    c2316792   2.373   5.335   0.542 -0.1924  0.6895  0.7259
 3200poe     o216793   2.513   5.341   0.548 -0.1396  0.2366  0.0481
 3200poe    c2316794   2.560   5.299   0.674  0.1990 -0.3250 -0.2558
 3200poe    c2316795   2.684   5.389   0.692  0.4223 -0.5820 -0.5158
 3200poe     o216796   2.768   5.386   0.579  0.8447 -0.4510 -0.2108
 3200poe    c2316797   2.884   5.458   0.613  0.2083  0.4132  0.1742
 3200poe    c2316798   3.000   5.394   0.535 -0.4271 -0.3772 -0.1343
 3200poe     o216799   2.990   5.389   0.395 -0.0021  1.0037 -0.2286
 3200poe    c3116800   3.093   5.318   0.328 -0.1846  0.3417  0.1793
 3201poe    c3116801   4.580   3.208   2.304  0.4952 -0.3683  0.2377
 3201poe     o216802   4.489   3.307   2.346  0.3863 -0.3394 -0.0667
 3201poe    c2316803   4.467   3.410   2.253 -0.7220 -0.0675  0.4826
 3201poe    c2316804   4.406   3.385   2.114 -0.4941  0.1649  0.3384
 3201poe     o216805   4.282   3.321   2.138 -0.2472 -0.2977  0.3902
 3201poe    c2316806   4.197   3.317   2.026  0.0629 -0.5405  0.1599
 3201poe    c2316807   4.221   3.214   1.915  0.6930 -0.2473  0.0231
 3201poe     o216808   4.201   3.082   1.960  0.0972 -0.1401  0.0807
 3201poe    c2316809   4.315   3.013   1.913  0.5572 -0.0085  0.9756
 3201poe    c2316810   4.314   2.863   1.949 -0.2160 -0.1626  0.3455
 3201poe     o216811   4.197   2.787   1.929  0.2030 -0.5408 -0.7371
 3201poe    c3116812   4.209   2.662   1.993 -0.0078 -0.0258  0.3342
 3202poe    c3116813   2.053   6.977   1.666  0.1364  0.4954  0.3099
 3202poe     o216814   1.938   7.054   1.638 -0.0173  0.0671 -0.2715
 3202poe    c2316815   1.959   7.188   1.601  0.5010  0.0371 -0.0990
 3202poe    c2316816   1.847   7.269   1.668  0.2122 -1.0486  0.7349
 3202poe     o216817   1.729   7.190   1.669 -0.1440 -0.5216  0.6679
 3202poe    c2316818   1.626   7.249   1.745  0.0056  0.7438 -0.0826
 3202poe    c2316819   1.496   7.172   1.715  0.1266  0.2929  0.5494
 3202poe     o216820   1.538   7.041   1.682  0.4463  0.4816  0.1918
 3202poe    c2316821   1.430   6.967   1.628  0.5365  0.0915  0.5380
 3202poe    c2316822   1.432   6.813   1.629 -0.1227  0.0690 -0.3304
 3202poe     o216823   1.525   6.756   1.540 -0.2490 -0.4201 -0.1518
 3202poe    c3116824   1.503   6.617   1.539 -0.3196 -0.4080 -0.2747
 3203poe    c3116825   3.793   0.448   3.325 -0.7441 -0.2909  0.3183
 3203poe     o216826   3.851   0.352   3.410  0.2169 -0.1105 -0.1258
 3203poe    c2316827   3.813   0.387   3.541  0.7992  0.0509  0.0029
 3203poe    c2316828   3.785   0.269   3.636  0.1705 -0.0405 -0.2910
 3203poe     o216829   3.868   0.155   3.626  0.2221 -0.0437  0.1474
 3203poe    c2316830   3.783   0.048   3.660  0.5505 -0.3212  0.0984
 3203poe    c2316831   3.855  -0.086   3.683 -0.1659 -0.6002  0.7727
 3203poe     o216832   3.934  -0.114   3.570 -0.5170 -0.2522  0.4403
 3203poe    c2316833   4.013  -0.229   3.590 -0.3025 -0.2083 -0.1186
 3203poe    c2316834   4.106  -0.252   3.470 -0.2648  0.3097 -0.1903
 3203poe     o216835   4.168  -0.125   3.468 -0.2926  0.3231 -0.2077
 3203poe    c3116836   4.244  -0.100   3.352 -0.2969  1.2308 -0.0208
 3204poe    c3116837   0.727   0.770   5.640  0.6863  0.1078  0.2081
 3204poe     o216838   0.771   0.646   5.692  0.7358 -0.1311 -0.3925
 3204poe    c2316839   0.895   0.616   5.632  0.9456  0.1145 -0.0851
 3204poe    c2316840   0.953   0.488   5.696  0.6870 -0.2059 -0.4869
 3204poe     o216841   1.031   0.518   5.809 -0.1807  0.0725  0.0465
 3204poe    c2316842   1.118   0.414   5.847 -0.1688  0.2935  0.6338
 3204poe    c2316843   1.072   0.302   5.943 -0.0592 -0.5435 -0.2804
 3204poe     o216844   1.146   0.186   5.973  0.1440 -0.2965  0.1840
 3204poe    c2316845   1.062   0.089   6.032 -0.3154  0.2117  0.3792
 3204poe    c2316846   1.128  -0.050   6.024  0.1490  0.4424  0.1441
 3204poe     o216847   1.156  -0.108   5.899  0.1400  0.0245  0.3337
 3204poe    c3116848   1.041  -0.173   5.848  0.5360  0.3727 -1.0503
 3205poe    c3116849   6.747   2.832   0.511 -0.1877 -0.2257 -0.3253
 3205poe     o216850   6.624   2.856   0.447 -0.0106  0.5562 -0.3803
 3205poe    c2316851   6.588   2.756   0.355  0.2771 -0.1194  0.2363
 3205poe    c2316852   6.445   2.786   0.308  0.3126  0.1334  0.2914
 3205poe     o216853   6.425   2.923   0.280 -0.1164  0.0665  0.2504
 3205poe    c2316854   6.299   2.943   0.221 -0.0143 -0.0545 -0.0096
 3205poe    c2316855   6.301   3.081   0.153  0.0126 -0.2929 -0.4989
 3205poe     o216856   6.332   3.185   0.243 -0.0675 -0.2940 -0.4699
 3205poe    c2316857   6.295   3.308   0.185  0.1877 -0.0073 -0.0262
 3205poe    c2316858   6.334   3.435   0.263 -0.6608 -0.3176  0.9202
 3205poe     o216859   6.470   3.437   0.298 -0.5034  0.1313  0.3009
 3205poe    c3116860   6.483   3.532   0.401  0.6879  0.2518  0.0552
 3206poe    c3116861   4.750   5.929   0.807  0.1375 -0.4291 -0.4595
 3206poe     o216862   4.611   5.906   0.797  0.0248 -0.3606  0.7516
 3206poe    c2316863   4.527   5.988   0.875  0.0256  0.7500 -0.3806
 3206poe    c2316864   4.384   5.965   0.823 -0.1490  0.0943  0.3620
 3206poe     o216865   4.373   6.040   0.704 -0.6947  0.3501  0.5706
 3206poe    c2316866   4.251   6.003   0.643 -0.3209  0.1273 -0.0531
 3206poe    c2316867   4.254   5.948   0.499 -0.0296  0.0430 -0.0157
 3206poe     o216868   4.327   5.829   0.478  0.3737  0.3536 -0.3904
 3206poe    c2316869   4.315   5.777   0.348 -0.1673 -0.2639 -0.0980
 3206poe    c2316870   4.409   5.660   0.313 -0.2434 -0.1079 -0.8366
 3206poe     o216871   4.546   5.693   0.298 -0.0477 -0.3610  0.3134
 3206poe    c3116872   4.612   5.570   0.280  0.2672 -0.3886  1.5696
 3207poe    c3116873   3.737   1.338   3.711 -0.4300  0.0976  0.0807
 3207poe     o216874   3.746   1.403   3.586  0.3260  0.0507  0.1033
 3207poe    c2316875   3.632   1.395   3.502  0.4558  0.3154 -0.0979
 3207poe    c2316876   3.672   1.412   3.354 -0.2006 -0.5673 -0.3854
 3207poe     o216877   3.756   1.314   3.298  0.0065 -0.5766 -0.0622
 3207poe    c2316878   3.884   1.373   3.295 -0.4643  0.5038  0.5736
 3207poe    c2316879   3.987   1.301   3.206 -1.1078  0.0586  0.1741
 3207poe     o216880   4.023   1.171   3.248  0.3156  0.4498  0.2467
 3207poe    c2316881   4.109   1.097   3.166 -0.6048  0.3950 -0.6981
 3207poe    c2316882   4.077   0.948   3.187  0.0843  0.3590  0.1656
 3207poe     o216883   3.948   0.916   3.141  0.4986 -0.7640 -0.2609
 3207poe    c3116884   3.911   0.783   3.168 -0.0809 -0.5982 -0.2328
 3208poe    c3116885   6.306   5.279   2.909  0.0514  0.1661  0.3760
 3208poe     o216886   6.230   5.167   2.869  0.3967  0.2287 -0.4916
 3208poe    c2316887   6.133   5.211   2.777 -0.2439  0.2362  0.1738
 3208poe    c2316888   6.020   5.106   2.778  0.3280 -0.3966 -0.2053
 3208poe     o216889   6.058   4.973   2.751  0.1696 -0.5271  0.2084
 3208poe    c2316890   5.948   4.895   2.707 -0.5485  0.7122 -0.2453
 3208poe    c2316891   6.010   4.774   2.636 -1.2738  0.1401  0.0888
 3208poe     o216892   6.068   4.797   2.509 -0.8921 -0.5877  0.1282
 3208poe    c2316893   5.983   4.847   2.409  0.1009  0.2604 -0.3114
 3208poe    c2316894   6.054   4.892   2.280  0.2052  0.2384 -0.2615
 3208poe     o216895   6.175   4.961   2.299  0.3922 -0.0996 -0.2142
 3208poe    c3116896   6.257   4.972   2.184  0.0596  0.3319 -0.4128
 3209poe    c3116897   5.277   1.894   2.709 -0.0735  0.1702  0.3877
 3209poe     o216898   5.373   1.798   2.749 -0.1170 -0.1140 -0.1778
 3209poe    c2316899   5.437   1.737   2.639 -0.0896  0.1416 -0.3044
 3209poe    c2316900   5.511   1.607   2.677 -0.0360  0.3383  0.2801
 3209poe     o216901   5.625   1.635   2.756  0.1386  0.3936  0.0120
 3209poe    c2316902   5.690   1.514   2.785  0.1557  0.4092  0.0393
 3209poe    c2316903   5.818   1.524   2.869  0.2919  0.6509 -0.1952
 3209poe     o216904   5.821   1.591   2.993 -0.1420  0.0607  0.1379
 3209poe    c2316905   5.870   1.501   3.090  0.5221  0.1380 -0.1251
 3209poe    c2316906   5.855   1.580   3.221 -0.2877  0.3791 -0.3547
 3209poe     o216907   5.925   1.703   3.228  0.0868  0.1702 -0.4227
 3209poe    c3116908   5.937   1.756   3.358  0.1986 -0.1978 -0.2807
 3210poe    c3116909   1.684   7.256   3.711 -0.1613  0.3722  0.0284
 3210poe     o216910   1.654   7.140   3.784  0.2480  0.5582  0.5020
 3210poe    c2316911   1.764   7.053   3.763 -0.3522 -0.0848 -0.0298
 3210poe    c2316912   1.788   6.956   3.881  0.0950  0.4894  0.3565
 3210poe     o216913   1.695   6.859   3.924  0.7253 -0.2136  0.1679
 3210poe    c2316914   1.750   6.808   4.044  0.1981 -0.1822  0.4256
 3210poe    c2316915   1.638   6.742   4.126  0.0305 -0.4337  0.0005
 3210poe     o216916   1.550   6.841   4.176  0.3616 -0.1783  0.0843
 3210poe    c2316917   1.437   6.784   4.238  0.6243 -0.4092  0.3539
 3210poe    c2316918   1.320   6.884   4.241  0.5922 -0.4342  0.0305
 3210poe     o216919   1.267   6.922   4.116  0.7448 -0.1482  0.0525
 3210poe    c3116920   1.210   7.049   4.138  0.7365 -0.0878 -0.3093
 3211poe    c3116921   3.987   0.596   0.529  0.7102  0.7095 -0.5694
 3211poe     o216922   3.859   0.646   0.563  0.5270  0.1756 -0.4668
 3211poe    c2316923   3.849   0.671   0.701  0.4960 -0.4713 -0.3479
 3211poe    c2316924   3.697   0.674   0.727  0.4276  0.0070 -0.7859
 3211poe     o216925   3.637   0.547   0.744 -0.1654  0.3396 -0.3342
 3211poe    c2316926   3.499   0.557   0.771 -0.0836  0.2490  0.1128
 3211poe    c2316927   3.478   0.424   0.846 -0.3847  0.4851  0.4493
 3211poe     o216928   3.559   0.424   0.961 -0.1117  0.3110  0.2574
 3211poe    c2316929   3.553   0.312   1.046  0.1797  0.6186  0.6895
 3211poe    c2316930   3.419   0.295   1.120  0.0865 -0.0556  0.3774
 3211poe     o216931   3.321   0.220   1.053  0.2568 -0.2706  0.3693
 3211poe    c3116932   3.241   0.155   1.150 -0.0304  0.6692  0.7683
 3212poe    c3116933   3.784   1.980   1.830 -0.4846 -0.3231  0.4038
 3212poe     o216934   3.716   1.966   1.708 -0.8097  0.0833  0.5322
 3212poe    c2316935   3.611   1.872   1.700 -0.5871 -0.1958  0.8590
 3212poe    c2316936   3.645   1.727   1.662 -0.2028  0.2097 -0.3544
 3212poe     o216937   3.739   1.672   1.751  0.0180 -0.0409 -0.7353
 3212poe    c2316938   3.711   1.535   1.770 -0.0998  0.1668  0.6941
 3212poe    c2316939   3.770   1.428   1.677  0.2685  0.6708  0.3396
 3212poe     o216940   3.911   1.432   1.674  0.3022 -0.3164  0.2347
 3212poe    c2316941   3.954   1.350   1.567 -0.2300 -0.2939  0.0017
 3212poe    c2316942   4.103   1.314   1.577 -0.1678 -0.0434 -0.0097
 3212poe     o216943   4.202   1.395   1.518 -0.4580 -0.0891 -0.5663
 3212poe    c3116944   4.256   1.337   1.401 -0.1941 -0.6057 -0.1904
 3213poe    c3116945   7.182   5.512   1.089 -0.2274  0.2286  0.0193
 3213poe     o216946   7.081   5.446   1.015  0.1188 -0.2673 -0.0230
 3213poe    c2316947   7.128   5.402   0.890  0.1687  0.9035 -0.4299
 3213poe    c2316948   7.002   5.371   0.806 -0.3080  0.1231  0.5512
 3213poe     o216949   6.944   5.260   0.871 -0.2588 -0.0100  0.3680
 3213poe    c2316950   6.859   5.189   0.784  0.1161  0.4227 -0.3678
 3213poe    c2316951   6.765   5.113   0.880 -0.1456  0.8483 -0.2856
 3213poe     o216952   6.732   5.185   0.997  0.3367  0.1354  0.2902
 3213poe    c2316953   6.636   5.113   1.071  0.4771  0.0901  0.4327
 3213poe    c2316954   6.523   5.200   1.129 -0.2136 -0.2813 -0.3311
 3213poe     o216955   6.564   5.292   1.227 -0.6442 -0.2060 -0.2218
 3213poe    c3116956   6.570   5.240   1.358  0.5123 -0.0495 -0.2042
 3214poe    c3116957   1.799   0.735   4.964  0.0342 -0.3417 -0.0732
 3214poe     o216958   1.761   0.599   4.965  0.6783 -0.5261 -0.0820
 3214poe    c2316959   1.677   0.566   5.074 -0.4819  0.1198 -0.7550
 3214poe    c2316960   1.619   0.423   5.076  0.5244 -0.2914 -0.0392
 3214poe     o216961   1.495   0.424   5.009  0.4333  0.0961  0.1313
 3214poe    c2316962   1.466   0.290   4.975  0.0831  0.2485 -0.1763
 3214poe    c2316963   1.375   0.269   4.853 -0.1374  0.6210 -0.0752
 3214poe     o216964   1.421   0.289   4.721 -0.8443 -0.3861 -0.4827
 3214poe    c2316965   1.421   0.427   4.695 -0.0054 -0.3369 -0.2497
 3214poe    c2316966   1.469   0.459   4.552  0.0288  0.0236 -0.1587
 3214poe     o216967   1.598   0.409   4.524  0.2060  0.1337  0.4372
 3214poe    c3116968   1.654   0.464   4.406 -0.3710  0.0983  0.1400
 3215poe    c3116969   3.809   3.080   4.570 -0.4189  0.9748 -0.2474
 3215poe     o216970   3.718   3.113   4.673 -0.5988 -0.1422 -0.0375
 3215poe    c2316971   3.680   3.015   4.767 -1.3120 -0.2186 -0.3993
 3215poe    c2316972   3.573   3.072   4.862 -0.2118 -0.9725  1.3296
 3215poe     o216973   3.616   3.185   4.934 -0.5335  0.2566 -0.3552
 3215poe    c2316974   3.502   3.235   5.001 -0.2243 -0.1639  0.5035
 3215poe    c2316975   3.518   3.364   5.085  0.6529 -0.0885  0.2358
 3215poe     o216976   3.566   3.357   5.217  0.1902 -0.2965  0.3977
 3215poe    c2316977   3.514   3.459   5.299 -0.3783 -0.1107 -0.1907
 3215poe    c2316978   3.567   3.464   5.443 -0.4796 -0.0880 -0.1537
 3215poe     o216979   3.533   3.356   5.526 -0.0797  0.3418  0.5857
 3215poe    c3116980   3.423   3.388   5.608 -0.5591 -0.5674  0.3154
 3216poe    c3116981   6.965   2.970   4.224 -0.6111 -0.7055  0.5695
 3216poe     o216982   6.891   2.952   4.105 -0.4068  0.0844  0.3145
 3216poe    c2316983   6.892   3.070   4.028  0.5183 -0.3414 -0.3448
 3216poe    c2316984   6.817   3.047   3.896 -0.3416  0.0615  0.0661
 3216poe     o216985   6.791   3.171   3.833  0.3509  0.1333 -0.0862
 3216poe    c2316986   6.706   3.142   3.725  0.1288 -0.7215  0.3127
 3216poe    c2316987   6.655   3.263   3.645  0.4820 -0.2076  0.8642
 3216poe     o216988   6.765   3.322   3.578  0.0983  0.3659  0.7320
 3216poe    c2316989   6.725   3.441   3.514  0.9684  0.1563 -0.2241
 3216poe    c2316990   6.817   3.500   3.406  0.7047  0.1942 -0.4305
 3216poe     o216991   6.941   3.464   3.463  0.3237 -0.2390  0.1315
 3216poe    c3116992   7.051   3.519   3.394  0.1774  0.0582  0.1311
 3217poe    c3116993   1.617   3.262   6.649  0.2707 -0.0283 -0.1699
 3217poe     o216994   1.607   3.296   6.786  0.4222  0.6490 -0.3230
 3217poe    c2316995   1.648   3.189   6.868 -0.0409  0.3849 -0.4293
 3217poe    c2316996   1.664   3.256   7.005 -0.2218 -0.3006 -0.0667
 3217poe     o216997   1.560   3.349   7.025 -0.1203 -0.1782 -0.1071
 3217poe    c2316998   1.577   3.385   7.160 -0.3366  0.0883 -0.1479
 3217poe    c2316999   1.455   3.468   7.202 -0.3480  0.0371 -0.0793
 3217poe     o217000   1.421   3.576   7.118  0.4331  0.7786  0.5318
 3217poe    c2317001   1.287   3.620   7.119 -0.0045 -0.4833  0.1450
 3217poe    c2317002   1.264   3.749   7.038  0.3393 -0.2272  0.4506
 3217poe     o217003   1.272   3.731   6.898 -0.4022 -0.2743  0.4067
 3217poe    c3117004   1.188   3.812   6.819  0.6786  0.2301 -0.2463
 3218poe    c3117005   5.533   1.297   5.696  0.3229  1.0443  0.0157
 3218poe     o217006   5.404   1.309   5.639  0.3214 -0.6881 -0.3980
 3218poe    c2317007   5.361   1.431   5.695 -0.3381 -0.8109 -0.6316
 3218poe    c2317008   5.212   1.429   5.732 -0.0661  0.6377  0.6520
 3218poe     o217009   5.115   1.458   5.634  0.2834 -0.1755  0.0546
 3218poe    c2317010   4.985   1.482   5.682  0.4369  0.8562 -0.0035
 3218poe    c2317011   4.878   1.459   5.573  0.5918 -0.0266  0.0166
 3218poe     o217012   4.861   1.323   5.543  0.2885  0.1053 -0.4166
 3218poe    c2317013   4.786   1.317   5.424 -0.3118 -0.3907 -0.0245
 3218poe    c2317014   4.801   1.197   5.329  0.3936 -0.2608 -0.0843
 3218poe     o217015   4.736   1.080   5.373 -0.4021  0.2204  0.0254
 3218poe    c3117016   4.759   0.976   5.281  0.1230  0.4617 -0.1171
 3219poe    c3117017   7.068   2.290   1.108 -0.0550 -0.4870  0.7743
 3219poe     o217018   7.151   2.376   1.183 -0.2574  0.2515  0.1615
 3219poe    c2317019   7.200   2.476   1.096 -1.0363  0.2959 -0.2339
 3219poe    c2317020   7.298   2.567   1.173 -0.5751 -0.1286 -0.3109
 3219poe     o217021   7.248   2.626   1.291  0.0030 -0.4128  0.0820
 3219poe    c2317022   7.246   2.535   1.398 -0.4835 -0.1155  0.3308
 3219poe    c2317023   7.164   2.593   1.515 -0.2640  0.1358  0.3623
 3219poe     o217024   7.185   2.516   1.631 -0.4579 -0.5140 -0.0283
 3219poe    c2317025   7.088   2.554   1.725 -0.4376 -0.0093 -0.2111
 3219poe    c2317026   7.130   2.501   1.863  0.3554 -0.0546 -0.4675
 3219poe     o217027   7.231   2.584   1.918  0.2768 -0.1765 -0.1350
 3219poe    c3117028   7.273   2.535   2.043  0.5700  0.5700  0.0649
 3220poe    c3117029   1.361   0.610   1.713 -0.0200  0.3562 -0.3073
 3220poe     o217030   1.406   0.721   1.640  0.2755  0.0703 -0.5612
 3220poe    c2317031   1.506   0.781   1.718 -0.0814 -0.1764  0.0900
 3220poe    c2317032   1.586   0.880   1.630 -0.2237 -0.5206 -0.4247
 3220poe     o217033   1.633   0.823   1.510  0.1764 -0.7504 -0.1599
 3220poe    c2317034   1.675   0.920   1.416  0.4742 -0.1747  0.5487
 3220poe    c2317035   1.706   0.863   1.276  0.1976 -0.1882  0.4930
 3220poe     o217036   1.590   0.790   1.241  0.1568  0.1676 -0.1321
 3220poe    c2317037   1.563   0.769   1.104 -0.3177  0.6448 -0.1182
 3220poe    c2317038   1.429   0.696   1.082  0.2574 -0.4480 -0.1006
 3220poe     o217039   1.319   0.779   1.114  0.5861  0.0431 -0.2195
 3220poe    c3117040   1.266   0.843   1.001  0.4902 -0.1978 -0.3124
 3221poe    c3117041   7.176   7.261   5.212 -0.5085  0.0584  0.2842
 3221poe     o217042   7.049   7.206   5.240 -0.6106  0.0676 -0.1559
 3221poe    c2317043   7.046   7.112   5.345  0.1627 -0.1919 -0.3549
 3221poe    c2317044   6.910   7.100   5.417  0.5278 -0.3973  0.3115
 3221poe     o217045   6.876   7.227   5.468 -0.4387 -0.4138 -0.2664
 3221poe    c2317046   6.783   7.210   5.573 -0.0218 -0.4611  0.0978
 3221poe    c2317047   6.763   7.342   5.650 -0.6740 -0.4879 -0.0243
 3221poe     o217048   6.870   7.400   5.721 -0.9167 -0.2192  0.1249
 3221poe    c2317049   6.933   7.332   5.827 -0.4697 -0.0845 -0.0510
 3221poe    c2317050   7.029   7.437   5.885  0.5866 -1.1713  0.2210
 3221poe     o217051   7.133   7.455   5.792  0.4837 -0.7522  0.1811
 3221poe    c3117052   7.227   7.551   5.832 -0.2284  0.1466 -0.2660
 3222poe    c3117053   3.460   6.159   7.224 -0.0613 -0.1562 -0.0309
 3222poe     o217054   3.541   6.065   7.291  0.1772  0.6927  0.8791
 3222poe    c2317055   3.679   6.063   7.261 -0.0355 -0.0870 -0.0762
 3222poe    c2317056   3.764   6.184   7.304 -0.2282 -0.2088  0.6598
 3222poe     o217057   3.757   6.283   7.204  0.7408 -0.5119  0.2793
 3222poe    c2317058   3.800   6.411   7.245 -0.6873  0.0919 -0.0407
 3222poe    c2317059   3.943   6.419   7.189 -0.6041  0.2145  0.1919
 3222poe     o217060   3.961   6.429   7.050 -0.8553  0.1299  0.1534
 3222poe    c2317061   3.937   6.317   6.968 -0.2097  0.0623  0.0488
 3222poe    c2317062   4.045   6.211   6.994 -0.5364 -0.4474 -0.6525
 3222poe     o217063   4.028   6.134   7.111  0.1943 -0.3123 -0.4508
 3222poe    c3117064   4.056   5.995   7.105 -0.0103 -0.3796  0.1040
 3223poe    c3117065   5.553   1.769   0.847 -0.9289 -0.2680 -0.3573
 3223poe     o217066   5.504   1.655   0.914 -0.7205 -0.2596 -0.1873
 3223poe    c2317067   5.577   1.545   0.865 -0.3050 -0.2129  0.3225
 3223poe    c2317068   5.556   1.406   0.929  0.1963 -0.2754  0.3548
 3223poe     o217069   5.419   1.384   0.905  0.1597  0.1642  0.1465
 3223poe    c2317070   5.354   1.269   0.954  0.4085 -0.1009 -0.1476
 3223poe    c2317071   5.319   1.293   1.101 -0.2068 -0.3340 -0.2525
 3223poe     o217072   5.425   1.287   1.194 -0.3706 -0.5819 -0.0804
 3223poe    c2317073   5.391   1.336   1.322 -0.7037 -0.0134 -0.3821
 3223poe    c2317074   5.511   1.368   1.413 -0.5326  0.4551 -0.7688
 3223poe     o217075   5.568   1.495   1.388  0.2442  0.2011 -0.3117
 3223poe    c3117076   5.682   1.502   1.471 -0.2305  0.0126  0.3694
 3224poe    c3117077   2.345   1.913   5.528 -0.6291  0.7024  0.4592
 3224poe     o217078   2.391   1.928   5.660  0.0714 -0.2904  0.3405
 3224poe    c2317079   2.417   1.803   5.720  0.1724 -0.4751 -0.0870
 3224poe    c2317080   2.484   1.820   5.857 -0.0698  1.0577 -0.1373
 3224poe     o217081   2.621   1.848   5.840  0.2078 -0.2857 -0.2285
 3224poe    c2317082   2.699   1.874   5.955  0.1946  0.1327 -0.3133
 3224poe    c2317083   2.836   1.921   5.903  0.2723  0.0727 -0.1645
 3224poe     o217084   2.827   2.050   5.846 -0.4150  0.1940  0.2030
 3224poe    c2317085   2.951   2.117   5.862 -0.2069 -0.1146 -0.1032
 3224poe    c2317086   2.944   2.251   5.787  0.2220 -0.1984 -0.2975
 3224poe     o217087   2.873   2.243   5.665  0.5567  0.0452 -0.5104
 3224poe    c3117088   2.839   2.373   5.622  0.0889  0.0859 -0.0459
 3225poe    c3117089   3.383   4.491   4.568 -0.1248 -0.2864 -0.2214
 3225poe     o217090   3.469   4.555   4.476  0.2017  0.0764  0.3285
 3225poe    c2317091   3.568   4.633   4.539  0.1495  0.2968  0.1433
 3225poe    c2317092   3.707   4.595   4.487 -0.0888 -0.3499 -0.0296
 3225poe     o217093   3.726   4.625   4.351  0.2126 -0.3043  0.0219
 3225poe    c2317094   3.771   4.758   4.338 -0.2798 -0.1423 -0.0368
 3225poe    c2317095   3.779   4.803   4.191  0.0436  0.3085  0.1163
 3225poe     o217096   3.653   4.809   4.127  0.2846 -0.4140 -0.4395
 3225poe    c2317097   3.692   4.810   3.991  0.3354 -0.0400 -0.4229
 3225poe    c2317098   3.566   4.842   3.910  0.1232 -0.4017 -0.2410
 3225poe     o217099   3.468   4.742   3.897 -0.1932 -0.1773  0.4010
 3225poe    c3117100   3.362   4.786   3.815  0.3031 -1.1692 -0.7929
 3226poe    c3117101   1.986   1.171   3.630 -0.3205  0.2748  0.1462
 3226poe     o217102   1.947   1.233   3.510  0.2380 -0.7067 -0.5613
 3226poe    c2317103   2.056   1.299   3.450  0.5290  0.0350  0.7440
 3226poe    c2317104   2.032   1.393   3.331  0.3907 -0.4625  0.3726
 3226poe     o217105   1.987   1.325   3.216  0.0506 -0.1233  0.3021
 3226poe    c2317106   1.997   1.414   3.107  0.1171 -0.5754 -0.0668
 3226poe    c2317107   1.984   1.324   2.983  0.3458 -0.0221 -0.4982
 3226poe     o217108   1.862   1.253   2.981  0.4750 -0.2873  0.6474
 3226poe    c2317109   1.866   1.162   2.874 -0.2846  0.4280  0.0013
 3226poe    c2317110   1.736   1.080   2.881  0.4944 -0.8327  0.0162
 3226poe     o217111   1.730   1.051   3.019 -0.3495  0.3082  0.2379
 3226poe    c3117112   1.635   0.948   3.035 -0.2907  0.2501  0.2104
 3227poe    c3117113   0.459   1.762   7.061  0.4104 -0.1833 -0.3865
 3227poe     o217114   0.468   1.838   7.179  0.0246  0.0556 -0.5117
 3227poe    c2317115   0.581   1.796   7.251 -0.6396 -0.4115  0.2717
 3227poe    c2317116   0.590   1.846   7.397  0.1466  0.0722  0.0645
 3227poe     o217117   0.600   1.987   7.397  0.6153  0.0414 -0.0974
 3227poe    c2317118   0.595   2.011   7.536 -0.8481 -0.3300 -0.0652
 3227poe    c2317119   0.522   2.145   7.559  0.2201  0.2987 -0.2597
 3227poe     o217120   0.386   2.174   7.536  0.0887 -0.5966 -0.6575
 3227poe    c2317121   0.357   2.179   7.398 -0.1163 -0.8138 -0.6237
 3227poe    c2317122   0.366   2.321   7.339 -0.6419 -0.4761  0.0869
 3227poe     o217123   0.334   2.329   7.202 -0.1022  0.2640 -0.0002
 3227poe    c3117124   0.197   2.307   7.181  0.0274 -0.2954 -0.2836
 3228poe    c3117125   0.865   7.024   3.919  0.3031  0.2366  0.6449
 3228poe     o217126   0.917   6.906   3.976 -0.1711 -0.5706 -0.5575
 3228poe    c2317127   0.907   6.892   4.116 -0.1004 -0.0227 -0.4966
 3228poe    c2317128   0.786   6.800   4.143 -0.1735  0.1020 -0.3998
 3228poe     o217129   0.662   6.868   4.141 -0.0368  0.3459 -0.7112
 3228poe    c2317130   0.569   6.788   4.071 -0.2405  0.4919 -0.6064
 3228poe    c2317131   0.430   6.806   4.136 -0.0052 -0.1662  0.0935
 3228poe     o217132   0.386   6.940   4.134 -0.1745 -0.2235 -0.0505
 3228poe    c2317133   0.280   6.980   4.217  0.5645  0.7841  0.4214
 3228poe    c2317134   0.315   6.967   4.367 -0.5237 -0.4170  0.5903
 3228poe     o217135   0.444   7.011   4.404 -0.2315 -0.3197 -0.5057
 3228poe    c3117136   0.440   7.129   4.480 -0.0403 -0.1947 -0.6882
 3229poe    c3117137   4.124   3.124   6.522 -0.4919  0.2356 -0.1815
 3229poe     o217138   4.195   3.233   6.574 -0.0654 -0.1168 -0.0216
 3229poe    c2317139   4.331   3.205   6.601  0.0390  0.3032 -0.0964
 3229poe    c2317140   4.415   3.315   6.669 -0.1212  0.2866  0.1327
 3229poe     o217141   4.440   3.425   6.584 -0.4217  0.4639  0.2770
 3229poe    c2317142   4.576   3.460   6.587 -0.4142  0.4412  0.1664
 3229poe    c2317143   4.606   3.591   6.511  0.1928  0.1638 -0.0749
 3229poe     o217144   4.505   3.681   6.548  0.0040  0.0242 -0.2462
 3229poe    c2317145   4.515   3.814   6.504 -0.4268  0.2725  0.3730
 3229poe    c2317146   4.462   3.828   6.360  0.2759 -0.2126  0.0549
 3229poe     o217147   4.322   3.819   6.346  0.2940  0.1819 -0.4467
 3229poe    c3117148   4.254   3.941   6.327 -0.3682 -0.1534 -0.2791
 3230poe    c3117149   2.756   1.668   3.871 -0.4163  0.2418 -0.0617
 3230poe     o217150   2.760   1.596   3.750 -0.4334  0.2389 -0.0605
 3230poe    c2317151   2.626   1.565   3.721 -0.3304  0.0689 -0.3580
 3230poe    c2317152   2.594   1.480   3.597  0.5810 -0.4169 -0.2645
 3230poe     o217153   2.612   1.572   3.492 -0.5170  0.3183  0.1782
 3230poe    c2317154   2.619   1.506   3.368 -0.7920  0.0954  0.2821
 3230poe    c2317155   2.649   1.603   3.252  0.4188 -0.5386  0.0432
 3230poe     o217156   2.752   1.694   3.279  0.0216  0.0656 -0.4613
 3230poe    c2317157   2.788   1.755   3.157  1.1083 -0.5062 -0.4393
 3230poe    c2317158   2.853   1.890   3.192  0.0548  0.0777 -0.6943
 3230poe     o217159   2.789   1.953   3.301  0.0776 -0.3746 -0.4187
 3230poe    c3117160   2.842   2.082   3.320 -0.1959 -0.2088 -0.7737
 3231poe    c3117161   1.338   4.989   7.177  0.2313 -0.0115 -0.4590
 3231poe     o217162   1.417   4.929   7.278  0.2373  0.2249 -0.3214
 3231poe    c2317163   1.336   4.892   7.387  0.6341 -0.0140 -0.1069
 3231poe    c2317164   1.430   4.862   7.505  0.0603 -0.6382  0.2008
 3231poe     o217165   1.547   4.808   7.446  0.1078 -0.0122 -0.2870
 3231poe    c2317166   1.644   4.794   7.547  0.1399 -0.0608 -0.3246
 3231poe    c2317167   1.729   4.689   7.473 -0.0360 -0.4452  0.0102
 3231poe     o217168   1.744   4.729   7.338 -0.2309 -0.3254  0.0233
 3231poe    c2317169   1.834   4.657   7.257 -0.4716 -0.5490 -0.0448
 3231poe    c2317170   1.815   4.504   7.257  0.0080 -0.6112  0.3843
 3231poe     o217171   1.677   4.476   7.243 -0.2656  0.5513  0.6224
 3231poe    c3117172   1.669   4.336   7.261 -0.2008  0.4259 -0.2703
 3232poe    c3117173   4.809   3.421   3.535  0.2714  0.4573  0.0556
 3232poe     o217174   4.722   3.518   3.589  0.0833  0.3430 -0.0416
 3232poe    c2317175   4.599   3.502   3.522 -0.1102  0.0350  0.3816
 3232poe    c2317176   4.498   3.582   3.606 -0.2355  0.3233 -0.0366
 3232poe     o217177   4.556   3.704   3.648 -0.3526  0.4542 -0.2517
 3232poe    c2317178   4.458   3.794   3.694 -0.6200  0.1112 -0.1502
 3232poe    c2317179   4.515   3.934   3.721 -0.3438 -0.1133  0.4584
 3232poe     o217180   4.636   3.945   3.793 -0.1174 -0.0266  0.0628
 3232poe    c2317181   4.633   3.927   3.932 -0.1430  0.4903  0.1300
 3232poe    c2317182   4.773   3.962   3.987 -0.0631  0.3533  0.0117
 3232poe     o217183   4.790   4.099   3.958  0.3395  0.4168  0.5272
 3232poe    c3117184   4.886   4.151   4.047  0.8520 -0.4118  0.4642
 3233poe    c3117185   6.413   0.079   7.117  0.2646 -0.1916 -0.5580
 3233poe     o217186   6.405   0.182   7.213  0.5430 -0.6991  0.0142
 3233poe    c2317187   6.307   0.145   7.308 -0.2269  0.1931 -0.4203
 3233poe    c2317188   6.269   0.258   7.406 -0.3088 -0.2787  0.0918
 3233poe     o217189   6.389   0.306   7.462 -0.1495  0.5384 -0.9179
 3233poe    c2317190   6.381   0.445   7.484 -0.1070  0.4241 -0.1422
 3233poe    c2317191   6.484   0.496   7.587  0.0212  0.4061 -0.2616
 3233poe     o217192   6.608   0.436   7.556  0.2805  0.7532  0.0943
 3233poe    c2317193   6.699   0.501   7.641  0.1291 -0.3141  1.0882
 3233poe    c2317194   6.837   0.465   7.581 -0.0410  0.3357  0.3032
 3233poe     o217195   6.854   0.327   7.603  0.1983  0.3897  0.4501
 3233poe    c3117196   6.980   0.284   7.554 -0.3141 -0.2079 -0.3643
 3234poe    c3117197   3.595   4.092   1.008  0.2803 -0.2231  0.1656
 3234poe     o217198   3.671   4.156   0.908  0.3078 -0.0012  0.3278
 3234poe    c2317199   3.607   4.267   0.849 -0.1402 -0.3636  0.1281
 3234poe    c2317200   3.690   4.378   0.783 -0.5650  0.0248  0.2437
 3234poe     o217201   3.740   4.454   0.891 -0.1960  0.1555 -0.0200
 3234poe    c2317202   3.877   4.443   0.925 -0.0243 -0.1759 -0.7950
 3234poe    c2317203   3.940   4.580   0.898  0.5584 -0.2053  0.3627
 3234poe     o217204   3.978   4.596   0.763 -0.1865 -0.1423  0.1557
 3234poe    c2317205   3.995   4.732   0.731 -0.4066 -0.2599 -0.4674
 3234poe    c2317206   4.000   4.753   0.578  0.5503  0.7376 -0.3138
 3234poe     o217207   4.124   4.699   0.536  0.4588  0.7279 -0.5741
 3234poe    c3117208   4.103   4.652   0.405  0.5253 -0.5464 -0.1393
 3235poe    c3117209   2.779   0.204   6.794 -0.5459 -0.0402  0.2464
 3235poe     o217210   2.811   0.335   6.753  0.0988 -0.3308 -0.2011
 3235poe    c2317211   2.879   0.319   6.630  0.1303 -0.4485 -0.1685
 3235poe    c2317212   2.980   0.432   6.603 -0.3381 -0.1553 -0.7100
 3235poe     o217213   2.943   0.564   6.569  0.6959  0.3014 -0.1311
 3235poe    c2317214   2.857   0.587   6.460  0.4116  0.3979  0.1128
 3235poe    c2317215   2.809   0.732   6.445  0.2421  0.3173 -0.1474
 3235poe     o217216   2.696   0.765   6.522 -0.0411 -0.1622 -0.3565
 3235poe    c2317217   2.724   0.885   6.591  0.9202 -0.4812 -0.1770
 3235poe    c2317218   2.611   0.931   6.685  0.2085 -0.6579 -0.9312
 3235poe     o217219   2.495   0.984   6.625 -0.4840 -0.4728  0.5057
 3235poe    c3117220   2.423   1.056   6.723 -0.1748  0.1725  0.2685
 3236poe    c3117221   1.722   4.188   1.151  0.1560 -0.0366 -0.4813
 3236poe     o217222   1.775   4.282   1.060 -0.0747  0.2902 -0.2790
 3236poe    c2317223   1.901   4.336   1.093 -0.0310  0.2568 -0.3924
 3236poe    c2317224   1.929   4.433   0.977  1.4106  0.3506  0.0111
 3236poe     o217225   1.845   4.545   0.956  0.4119 -0.4468 -0.3190
 3236poe    c2317226   1.843   4.588   0.821  0.0549 -0.0022 -0.1719
 3236poe    c2317227   1.798   4.504   0.701 -0.1134  0.2150 -0.2620
 3236poe     o217228   1.660   4.480   0.718 -0.1371  0.3159 -0.3120
 3236poe    c2317229   1.613   4.359   0.662  0.5304 -0.0196 -0.1602
 3236poe    c2317230   1.640   4.234   0.748 -0.3307 -0.0466  0.0815
 3236poe     o217231   1.662   4.115   0.676 -0.1420 -0.1190  0.2580
 3236poe    c3117232   1.785   4.099   0.608 -0.2335  0.2531  0.0018
 3237poe    c3117233   7.022   1.264   3.249 -0.3463  0.7878 -0.4506
 3237poe     o217234   7.061   1.399   3.242  0.5735  0.5585  0.0713
 3237poe    c2317235   6.947   1.479   3.219  0.5520  0.4225 -0.2982
 3237poe    c2317236   6.968   1.614   3.147  0.4436  0.3262 -0.5118
 3237poe     o217237   7.041   1.710   3.220  0.2996  0.2032 -0.2003
 3237poe    c2317238   7.179   1.705   3.191  0.2706  0.3333 -0.3620
 3237poe    c2317239   7.263   1.820   3.248  0.4773  0.0771 -0.1525
 3237poe     o217240   7.269   1.810   3.389 -0.1197 -0.1407 -0.1436
 3237poe    c2317241   7.272   1.939   3.445  0.4839 -0.2052 -0.0303
 3237poe    c2317242   7.311   1.944   3.594  0.0948 -0.0120  0.0662
 3237poe     o217243   7.310   2.075   3.647  0.0947 -0.0012  0.0393
 3237poe    c3117244   7.343   2.067   3.784 -0.2798  0.2899  0.1494
 3238poe    c3117245   4.642   7.307   7.262 -0.6617  0.2254  0.4774
 3238poe     o217246   4.649   7.167   7.246  0.0284  0.2231  0.7649
 3238poe    c2317247   4.677   7.117   7.375  0.0244 -0.2375  0.5892
 3238poe    c2317248   4.641   6.968   7.388 -0.2862 -0.2281 -0.0742
 3238poe     o217249   4.734   6.880   7.331 -0.0573  0.2174 -0.3858
 3238poe    c2317250   4.717   6.848   7.194 -0.0474  0.4792 -0.4481
 3238poe    c2317251   4.808   6.734   7.144 -0.0945  0.2832 -0.0893
 3238poe     o217252   4.740   6.613   7.167 -0.0685  0.2988  0.0736
 3238poe    c2317253   4.824   6.511   7.118 -0.4367  0.1429 -0.2450
 3238poe    c2317254   4.802   6.363   7.154 -0.2461  0.1445 -0.1144
 3238poe     o217255   4.693   6.312   7.079  0.0711 -0.0896 -0.4232
 3238poe    c3117256   4.745   6.260   6.959 -0.2929  0.2018 -0.7074
 3239poe    c3117257   0.927   1.399   3.077 -0.0184  0.2147  0.0993
 3239poe     o217258   0.952   1.430   2.942  0.7298  0.4715  0.2887
 3239poe    c2317259   1.021   1.325   2.879  0.0634 -0.0781  0.4562
 3239poe    c2317260   1.038   1.357   2.729 -0.1076  0.3423  0.5226
 3239poe     o217261   1.162   1.413   2.690 -0.2916  0.5884  0.2870
 3239poe    c2317262   1.148   1.463   2.559 -0.2917  0.0000  0.0593
 3239poe    c2317263   1.274   1.535   2.509 -0.1824 -0.5673 -0.4928
 3239poe     o217264   1.390   1.456   2.523  0.0072 -0.0962  0.6722
 3239poe    c2317265   1.513   1.497   2.467  0.1076 -0.9412  0.2599
 3239poe    c2317266   1.505   1.478   2.315  0.3998 -0.0863  0.1338
 3239poe     o217267   1.607   1.530   2.233  0.2139 -0.0308 -0.0653
 3239poe    c3117268   1.567   1.661   2.201 -0.0557 -0.3543 -1.1035
 3240poe    c3117269   0.540   5.999   2.585  0.3401  0.3542  0.0854
 3240poe     o217270   0.667   5.941   2.600  0.1592 -0.1131 -0.1620
 3240poe    c2317271   0.665   5.804   2.565  0.1361 -0.3265  0.6500
 3240poe    c2317272   0.816   5.774   2.550  0.1189 -0.2817  0.3909
 3240poe     o217273   0.880   5.842   2.655 -0.1003  0.4183  0.0738
 3240poe    c2317274   1.018   5.820   2.670 -0.2739 -0.2169  0.7702
 3240poe    c2317275   1.081   5.920   2.768  0.2493 -0.2437  0.4671
 3240poe     o217276   1.021   6.043   2.735  0.3991 -0.1332  0.6029
 3240poe    c2317277   1.111   6.151   2.749 -0.0153  0.2964  0.0348
 3240poe    c2317278   1.075   6.247   2.864 -0.0599  0.1453  0.1486
 3240poe     o217279   0.947   6.298   2.832 -0.0054  0.0164 -0.2799
 3240poe    c3117280   0.931   6.430   2.879 -0.2212 -0.2348  0.3490
 3241lim     li17281   6.782   1.094   5.553  0.6732  0.2961  0.8113
 3242lim     li17282   6.087   4.696   4.132 -0.1105 -0.3093  0.5241
 3243lim     li17283   2.582   6.502   1.624 -0.3345 -0.3501  0.6577
 3244lim     li17284   6.439   2.698   5.035 -0.2804 -0.6166  1.1239
 3245lim     li17285   0.218   4.015   6.766 -0.1352  0.5110  0.2879
 3246lim     li17286   2.465   1.360   7.179  0.7542 -0.0578  0.1594
 3247lim     li17287   3.660   4.571   2.754  0.0182 -0.0410  0.3204
 3248lim     li17288   4.544   4.023   1.941  1.0898 -0.1629  0.3445
 3249lim     li17289   5.926   2.234   0.371 -0.4375  0.2557 -0.1743
 3250lim     li17290   1.370   4.403   4.237 -0.8858  0.9846 -0.1566
 3251lim     li17291   1.444   6.292   2.358 -0.6344  0.0527 -1.4017
 3252lim     li17292   4.273   0.872   0.165 -0.9044 -0.1346  1.7195
 3253lim     li17293   0.803   6.024   2.710 -0.8889  0.2104 -0.7031
 3254lim     li17294   5.012   5.931   1.893  1.2688 -0.7621 -0.4198
 3255lim     li17295   4.633   0.614   1.663 -0.4438  0.5022  0.3467
 3256lim     li17296   6.317   4.788   3.116  0.2960 -1.5297  0.4475
 3257lim     li17297   0.227   4.225   3.352 -0.9878  0.2938 -0.2776
 3258lim     li17298   2.230   3.294   0.236  0.4515  0.6449 -0.7582
 3259lim     li17299   6.373   7.288   1.783 -0.5679  0.0932  0.3822
 3260lim     li17300   5.026   6.729   1.376  0.9066 -0.5637 -1.2330
 3261lim     li17301   1.188   2.381   3.041 -0.0438 -0.1901 -1.1094
 3262lim     li17302   2.483   3.044   2.443  0.3334  0.4638  0.8619
 3263lim     li17303   3.777   2.931   2.021  0.4881 -0.9965  0.3719
 3264lim     li17304   5.190   4.159   1.749  0.1952 -0.4466 -0.2602
 3265lim     li17305   3.240   5.784   5.492 -0.8150 -0.6016  0.2088
 3266lim     li17306   4.651   5.872   3.037  0.4341  0.1190  0.3573
 3267lim     li17307   0.009   1.315   4.372  0.2708 -0.4827 -0.6160
 3268lim     li17308   1.846   6.536   0.853 -0.1396 -0.2534  0.4666
 3269lim     li17309   1.326   6.168   4.967  0.7011 -0.3141  0.2612
 3270lim     li17310   1.571   1.773   6.984 -0.0775  0.4829  1.5082
 3271lim     li17311   5.503   3.663   2.149 -1.6263 -0.5066 -0.6395
 3272lim     li17312   1.299   1.109   4.017  1.4780 -1.0372  0.5679
 3273lim     li17313   2.735   2.109   5.692 -0.0542 -0.1814 -0.0465
 3274lim     li17314   6.779   5.023   5.306  0.2499  0.0493 -0.8807
 3275lim     li17315   2.422   7.074   6.330  0.6847 -0.0350  0.1485
 3276lim     li17316   1.635   4.026   3.718 -0.7467  0.9161 -0.1680
 3277lim     li17317   2.794   4.186   0.532  0.2427 -0.9314 -0.1353
 3278lim     li17318   1.384   4.432   1.869  0.5096  0.0997  1.2204
 3279lim     li17319   6.249   6.676   0.718 -0.5573 -0.5411  0.6237
 3280lim     li17320   5.447   3.650   3.063  0.2007 -0.0638  0.9378
 3281lim     li17321   4.961   3.495   0.601 -0.0365 -0.5512  0.0342
 3282lim     li17322   1.890   0.321   4.016 -0.5167  0.2694 -0.5139
 3283lim     li17323   5.850   3.441   0.746  0.4706 -0.4478 -1.1064
 3284lim     li17324   7.188   6.087   0.418 -0.5658  0.1100 -0.5022
 3285lim     li17325   3.739   4.289   6.047 -1.4444  0.5644  0.3947
 3286lim     li17326   5.210   6.836   5.792 -0.4488 -0.5746 -0.1446
 3287lim     li17327   5.078   6.782   0.213  0.6078  0.5626  0.8341
 3288lim     li17328   6.352   5.977   5.010  0.2024 -0.1865 -0.2484
 3289lim     li17329   2.068   4.100   7.183  0.0826 -0.6262  0.5189
 3290lim     li17330   3.846   0.345   7.184 -0.0230 -0.2565  0.1386
 3291lim     li17331   0.749   1.692   2.600  0.2927  0.1363 -0.8751
 3292lim     li17332   5.199   4.414   5.111 -0.6509 -0.8305 -0.6986
 3293lim     li17333   2.256   1.487   1.942  0.9211  0.1467 -0.0853
 3294lim     li17334   3.414   7.334   3.382  0.4192 -0.0753  1.0404
 3295lim     li17335   3.221   5.117   2.395 -0.7396  0.5974  0.5351
 3296lim     li17336   4.305   2.984   3.530 -0.7341  0.4783 -1.2591
 3297lim     li17337   4.048   6.486   2.368 -0.1358  0.2549  0.3184
 3298lim     li17338   2.018   0.496   5.659  0.0335  0.1539 -1.3291
 3299lim     li17339   1.759   7.011   1.666 -0.4818 -0.7082 -1.5127
 3300lim     li17340   3.369   3.248   7.210 -0.2804 -0.2733  0.3579
 3301lim     li17341   1.805   2.580   6.209 -0.0607 -1.2032  0.0175
 3302lim     li17342   1.784   3.663   5.486  1.0369  0.7552  0.8652
 3303lim     li17343   0.104   2.786   3.810 -0.2976  0.7609 -0.4857
 3304lim     li17344   0.156   1.804   1.387  0.8462  1.0695 -1.0658
 3305lim     li17345   3.537   2.338   6.498  0.5573 -0.9505  0.0911
 3306lim     li17346   4.825   6.711   6.168  0.5691  1.2482 -0.2183
 3307lim     li17347   6.027   5.338   6.475 -0.9390  0.2749 -0.9100
 3308lim     li17348   5.631   5.370   0.067 -0.2673  1.1857  0.1891
 3309lim     li17349   2.198   1.228   4.155 -0.6289  0.6878  0.7547
 3310lim     li17350   7.133   1.037   0.941 -0.1915 -0.1788  1.1289
 3311lim     li17351   2.207   0.702   1.973 -1.3498 -0.6939 -0.4094
 3312lim     li17352   0.780   6.101   4.592 -0.1952  0.3772  0.7668
 3313lim     li17353   1.042   5.622   0.116  0.1751  0.1443  0.6960
 3314lim     li17354   6.473   6.288   1.027 -0.7182  1.5915  0.0204
 3315lim     li17355   0.917   4.807   5.751  0.1056 -0.2066  1.3287
 3316lim     li17356   7.064   4.946   2.446 -0.6001 -0.3338 -0.7798
 3317lim     li17357   6.093   0.160   5.817 -0.2254  0.5792 -0.0008
 3318lim     li17358   3.870   2.212   2.922 -0.0948  0.2469  0.3629
 3319lim     li17359   3.704   4.282   7.246 -0.4538  0.7545 -0.0364
 3320lim     li17360   4.037   1.122   6.084 -0.3465 -0.2553  0.2196
 3321lim     li17361   5.468   2.992   3.392 -0.2522 -0.9446 -0.0808
 3322lim     li17362   0.633   1.084   6.732  1.4881 -0.5056 -1.6161
 3323lim     li17363   0.080   4.827   4.232 -0.8565  0.2705 -0.9474
 3324lim     li17364   0.127   2.214   2.596 -0.7500 -0.4433 -0.6967
 3325lim     li17365   0.798   0.033   6.430  0.1867  1.0645 -0.0194
 3326lim     li17366   1.928   2.856   1.951 -0.0073  0.1091 -0.5342
 3327lim     li17367   3.040   2.619   4.693  0.5169 -0.3332  0.1258
 3328lim     li17368   6.073   2.636   2.895 -1.2547 -0.4593 -0.2205
 3329lim     li17369   6.587   2.964   1.616  0.4901 -0.2036  0.1260
 3330lim     li17370   4.117   0.201   0.947 -0.9595 -0.6032  0.6782
 3331lim     li17371   1.088   1.389   0.679 -0.0400 -0.0649  0.2536
 3332lim     li17372   2.736   7.239   1.190 -0.3221 -0.6512 -0.9015
 3333lim     li17373   1.425   4.763   0.765  0.5404  0.5481 -0.4675
 3334lim     li17374   6.189   4.720   6.668  0.5500  1.0145  0.0746
 3335lim     li17375   1.344   3.417   3.083  1.0354  0.0228  0.1345
 3336lim     li17376   2.103   1.884   0.987 -0.3780 -0.1767  1.2892
 3337lim     li17377   4.291   6.106   0.051 -0.5881 -0.1181  0.3438
 3338lim     li17378   4.742   7.019   1.914  0.3438 -0.1172  0.1903
 3339lim     li17379   3.912   6.196   6.060 -0.4301 -0.8113 -0.3133
 3340lim     li17380   2.757   1.814   3.414  0.4522  0.5899 -0.6728
 3341lim     li17381   1.491   3.429   6.863 -0.5261  0.6165  0.6858
 3342lim     li17382   2.089   5.931   2.739  0.1324  0.3749  0.4850
 3343lim     li17383   2.944   0.162   0.468  0.5116  0.2618  0.6364
 3344lim     li17384   2.076   5.959   4.226  0.3197  1.9481 -0.2801
 3345lim     li17385   3.292   4.470   1.597 -1.1298  0.0362 -0.8331
 3346lim     li17386   3.222   1.922   2.203 -0.4100  0.1477  0.3202
 3347lim     li17387   4.769   4.047   2.905  0.5432  0.0262  0.5133
 3348lim     li17388   3.982   6.832   1.510  0.7752 -0.5638  1.0289
 3349lim     li17389   1.574   0.305   5.938  0.1186  0.0793 -0.2111
 3350lim     li17390   1.990   4.882   5.975 -0.1372 -0.2789  0.2091
 3351lim     li17391   5.432   4.941   4.749  0.1332  0.2453 -0.2549
 3352lim     li17392   7.222   1.189   0.183  0.1132 -0.2115 -0.5483
 3353lim     li17393   3.738   2.162   1.354 -0.1165  0.7125  0.0125
 3354lim     li17394   4.521   3.269   2.740 -0.7046 -0.0606 -0.3521
 3355lim     li17395   4.075   0.236   4.588  0.4671 -0.7937  0.8059
 3356lim     li17396   6.723   3.642   0.091  0.9003 -0.8378  0.2853
 3357lim     li17397   3.236   1.071   0.583 -1.2649  0.0924 -0.6500
 3358lim     li17398   4.271   6.584   0.585 -0.4194 -0.6494  0.1473
 3359lim     li17399   2.053   4.657   4.960  0.7636  0.4564  0.7664
 3360lim     li17400   2.514   3.211   3.149  0.6202 -0.3411 -0.2320
 3361lim     li17401   4.621   4.042   5.320  0.1011  0.2575 -0.8562
 3362lim     li17402   2.868   6.616   3.154 -0.2235 -0.4377  1.2504
 3363lim     li17403   6.728   5.879   4.133 -0.0321  0.0570  0.3618
 3364lim     li17404   3.892   0.990   4.441 -0.3994 -0.7754 -0.1299
 3365lim     li17405   2.802   2.408   1.444 -0.0696  0.2637  0.4097
 3366lim     li17406   6.947   3.338   3.598  1.7376 -0.7235  0.1657
 3367lim     li17407   0.471   3.608   2.363 -1.2923 -0.8275  0.2737
 3368lim     li17408   4.389   6.844   2.980  0.5675 -0.7025 -0.6074
 3369lim     li17409   1.890   2.806   5.285 -0.8960 -1.3406  0.0889
 3370lim     li17410   5.749   3.121   7.178 -0.2798  0.4710 -0.5847
 3371lim     li17411   5.358   1.534   3.921 -1.0510 -1.2029  1.3356
 3372lim     li17412   0.063   2.872   1.859 -1.0536  0.3221 -0.0799
 3373lim     li17413   6.576   0.292   0.113  1.1691  0.6379  1.9985
 3374lim     li17414   4.869   2.880   6.948  0.5870  0.2554  0.7582
 3375lim     li17415   6.673   1.352   2.429 -0.0181 -0.6224  0.0598
 3376lim     li17416   2.281   6.595   3.626  0.8844 -0.8896 -0.9403
 3377lim     li17417   6.997   2.582   2.892 -0.2276  0.8643  0.7347
 3378lim     li17418   4.013   6.565   4.038  0.8523  0.2016  0.8344
 3379lim     li17419   5.159   1.057   1.868 -0.2583  0.3274 -0.3451
 3380lim     li17420   3.430   4.632   4.315  0.2680  0.0044 -1.0254
 3381lim     li17421   3.503   0.138   2.169  0.4866  0.3750  1.2086
 3382lim     li17422   2.095   2.473   0.157  0.2215  0.0495 -0.0651
 3383lim     li17423   0.762   1.777   1.805 -0.3826 -0.9097 -0.9669
 3384lim     li17424   0.070   6.802   5.352  0.6343  0.1560 -0.2189
 3385lim     li17425   0.013   6.350   5.989 -0.5343 -1.5510  0.2857
 3386lim     li17426   0.580   7.009   4.271  0.2326  1.1135  1.5236
 3387lim     li17427   1.595   5.628   6.261 -0.4240  1.7591  1.0388
 3388lim     li17428   3.703   5.921   2.060  0.9466  0.2696  0.6590
 3389lim     li17429   6.739   3.021   6.717  0.0658 -0.1553  0.2324
 3390lim     li17430   1.748   2.011   0.250 -0.5378  1.4224  0.5629
 3391lim     li17431   5.391   1.796   0.085 -1.1476 -0.4433  0.0715
 3392lim     li17432   6.760   1.563   6.750 -0.3375  0.7006 -0.4142
 3393lim     li17433   0.504   5.969   7.226 -0.6591 -0.8989 -0.4211
 3394lim     li17434   5.253   1.089   6.727  0.6873  1.5894  0.8407
 3395lim     li17435   5.727   5.059   1.937  0.1659 -0.2814 -0.4441
 3396lim     li17436   3.030   6.562   4.375 -0.7071 -0.2720 -1.4712
 3397lim     li17437   3.594   5.277   6.900 -0.4297 -0.0838 -0.2496
 3398lim     li17438   1.667   1.646   5.630 -0.8642 -0.5879  0.6927
 3399lim     li17439   5.008   5.924   6.798 -0.0992 -0.2851  0.8936
 3400lim     li17440   1.450   6.830   6.507  0.7522 -0.8272 -0.0544
 3401lim     li17441   1.906   3.386   6.344 -0.1172  0.5871  0.0492
 3402lim     li17442   1.724   0.643   6.612 -0.4488  0.2731 -1.3108
 3403lim     li17443   1.575   4.798   7.268 -0.2019 -0.9353  0.4925
 3404lim     li17444   1.917   6.790   5.371 -0.5888 -0.0694 -1.0408
 3405lim     li17445   0.807   4.834   6.840  0.4423 -0.6370 -0.2884
 3406lim     li17446   5.215   6.833   2.336 -0.3799 -0.9969  0.2276
 3407lim     li17447   3.547   5.285   5.151  0.6878 -0.5846 -0.4219
 3408lim     li17448   3.253   6.817   1.049  0.4465 -0.1359 -0.4302
 3409lim     li17449   5.723   5.435   3.617  0.8345  0.1611  0.5724
 3410lim     li17450   3.380   0.705   1.872  0.2064 -0.8589  0.2984
 3411lim     li17451   0.722   0.639   5.883 -1.2849 -0.3166  1.0313
 3412lim     li17452   5.729   5.894   0.193 -1.2262 -1.6208  0.4285
 3413lim     li17453   2.504   2.696   4.172 -0.2047 -0.4890 -0.0186
 3414lim     li17454   2.263   1.716   4.946  0.3135 -0.6336 -0.6429
 3415lim     li17455   7.272   4.235   2.159  0.4253  0.5031 -0.1877
 3416lim     li17456   4.263   3.002   0.187 -0.7689  0.7670  0.4621
 3417lim     li17457   7.013   7.112   3.852  0.7568  0.3951 -0.5556
 3418lim     li17458   5.219   4.396   7.222  0.3397  0.8223 -0.1998
 3419lim     li17459   6.962   2.881   1.012  0.5187  0.8478  0.3285
 3420lim     li17460   4.643   2.016   5.596 -0.0236 -1.1016  0.3184
 3421lim     li17461   5.770   3.649   6.207  0.5930  0.0910  0.2059
 3422lim     li17462   1.885   6.558   2.624 -1.2229  0.2414 -1.0751
 3423lim     li17463   0.100   3.408   3.073 -0.6219  0.1926  0.6969
 3424lim     li17464   3.894   3.755   4.234 -0.4189 -1.1920  0.9343
 3425lim     li17465   1.373   5.102   3.877  0.0768  0.3990  0.7323
 3426lim     li17466   6.895   0.268   5.287  0.4351 -0.7189 -1.0161
 3427lim     li17467   6.368   3.465   6.464 -0.9489  1.3790  0.9020
 3428lim     li17468   2.471   2.141   2.544 -0.5377 -0.6554  0.2484
 3429lim     li17469   3.563   5.743   0.840  1.2192  0.4042  1.0166
 3430lim     li17470   7.061   2.574   6.943  0.0832  0.6702  0.7269
 3431lim     li17471   5.347   1.204   5.507 -0.4840  0.5387 -0.0132
 3432lim     li17472   2.671   5.087   1.406  0.5199  0.0493  1.3936
 3433lim     li17473   5.034   2.259   5.938 -0.6243  0.1254 -0.5182
 3434lim     li17474   4.912   0.973   0.318 -0.8627  0.7474 -0.8195
 3435lim     li17475   6.222   4.090   2.993 -0.4726 -0.1900  0.0952
 3436lim     li17476   4.932   4.742   3.942  0.2243 -0.1158  1.4376
 3437lim     li17477   1.901   5.837   5.064 -0.3056 -0.0451 -0.5001
 3438lim     li17478   2.676   3.164   6.177  0.0093  0.9494  0.1273
 3439lim     li17479   5.679   0.126   5.107 -1.1501  0.3445  0.2601
 3440lim     li17480   2.047   1.386   0.472  0.6249  0.0590  0.7770
 3441lim     li17481   0.254   4.432   4.677 -0.5329  0.0763 -0.5480
 3442lim     li17482   1.313   3.906   0.654 -0.1546  0.2815  0.4211
 3443lim     li17483   5.373   5.463   6.071  0.4258  0.1559  0.5214
 3444lim     li17484   7.337   2.214   5.796  0.5358 -0.6383  0.6850
 3445lim     li17485   6.849   0.820   2.656 -0.6333  0.9474  0.4991
 3446lim     li17486   7.013   0.672   3.321 -1.1991 -0.4546 -0.5631
 3447lim     li17487   1.886   4.942   2.760 -0.6379  0.3331 -0.1495
 3448lim     li17488   2.223   2.255   4.805 -0.0572 -0.9304 -0.5627
 3449lim     li17489   2.440   0.709   4.698  0.5284  0.5478 -0.1168
 3450lim     li17490   0.672   0.136   2.789 -1.1738  0.2863 -0.3834
 3451lim     li17491   0.366   3.304   6.695 -1.1398 -0.7163 -0.4106
 3452lim     li17492   3.220   5.780   4.008 -1.4458  0.8665 -0.9216
 3453lim     li17493   2.964   2.776   0.352  0.6621 -0.1184  1.3869
 3454lim     li17494   4.404   0.113   5.252  0.0545 -0.1672  0.5811
 3455lim     li17495   2.353   4.242   3.352 -0.1317  0.2058  0.2720
 3456lim     li17496   6.037   1.185   0.895  0.5783 -0.5203 -0.2431
 3457lim     li17497   6.091   0.166   3.282 -0.4577 -2.1211  0.0582
 3458lim     li17498   0.958   4.257   2.751  0.0955 -1.2540  0.8302
 3459lim     li17499   4.428   5.507   5.674 -0.5752  0.1534 -0.3020
 3460lim     li17500   6.397   3.883   1.301  1.3433  0.3520 -0.6728
 3461lim     li17501   3.707   2.309   5.473  0.3475 -0.0073  0.5142
 3462lim     li17502   4.655   5.285   1.188 -0.3438 -0.4308  0.7134
 3463lim     li17503   1.199   2.573   4.172 -0.5411 -0.3457  1.2714
 3464lim     li17504   5.345   2.057   5.252  0.8675  0.8685  0.1601
 3465lim     li17505   6.521   2.108   0.825  1.0308 -0.8738  0.4799
 3466lim     li17506   6.032   0.739   4.442  0.2522 -0.3151  0.1557
 3467lim     li17507   3.545   7.197   6.179  0.0891 -0.7403  1.3273
 3468lim     li17508   4.369   2.352   2.633  0.4587  0.1187  0.6974
 3469lim     li17509   5.799   7.169   6.957 -0.6761  0.2233 -0.1891
 3470lim     li17510   4.503   3.506   5.506 -0.0737  1.0682 -1.1303
 3471lim     li17511   0.393   3.801   3.880  0.6996 -0.2368 -0.7590
 3472lim     li17512   2.887   0.650   3.868 -0.8143 -0.6316  0.8086
 3473lim     li17513   2.327   3.455   4.780  0.7417 -2.1689  0.8938
 3474lim     li17514   5.643   7.196   2.440 -0.3635 -1.3084  1.2665
 3475lim     li17515   0.087   4.482   5.512 -1.2418  0.2664  0.0106
 3476lim     li17516   3.971   2.408   4.871 -0.3288 -0.1989  0.0119
 3477lim     li17517   5.249   1.106   3.067 -1.2181 -0.2071  0.6608
 3478lim     li17518   1.111   6.420   5.931  0.5463  0.5028  0.0815
 3479lim     li17519   5.539   5.986   3.422 -1.0790  1.3466  1.4465
 3480lim     li17520   0.767   4.244   0.192  0.5748 -0.4276 -0.4598
 3481lim     li17521   0.378   2.946   0.401 -0.5889  0.5271 -0.2138
 3482lim     li17522   1.404   6.958   5.812  0.5245  0.5967 -0.8453
 3483lim     li17523   1.283   5.357   2.061  0.1632 -0.2417 -0.4124
 3484lim     li17524   1.413   4.566   4.927 -0.2384  0.4666 -0.3174
 3485lim     li17525   5.954   0.952   0.155  0.1478  0.5417 -0.1939
 3486lim     li17526   0.397   5.375   1.675 -0.7829  0.1175 -0.4015
 3487lim     li17527   4.629   2.355   1.008  0.1729  0.3700 -0.1251
 3488lim     li17528   0.169   1.052   3.502  0.5578 -0.6963 -1.0679
 3489lim     li17529   1.073   2.421   4.705 -0.4944 -0.1231  0.7849
 3490lim     li17530   1.409   1.441   2.958  0.3893 -1.8179  0.0605
 3491lim     li17531   1.787   6.076   6.942  0.4880 -0.0242  0.3103
 3492lim     li17532   1.072   6.904   0.765 -0.2629 -0.3688 -0.2217
 3493lim     li17533   0.812   6.248   1.471  0.5173 -0.3882  1.1986
 3494lim     li17534   6.946   4.896   0.347 -0.0452  0.1470  0.2509
 3495lim     li17535   5.913   6.562   2.720 -0.4805 -0.5274  0.2894
 3496lim     li17536   6.083   6.851   5.749  0.8106  0.2381 -1.3705
 3497lim     li17537   1.128   1.670   6.059 -0.7039 -0.3485 -0.8843
 3498lim     li17538   6.470   2.046   3.515 -0.9183  0.7736 -0.3080
 3499lim     li17539   4.777   2.940   5.758  0.5089  0.8484 -0.2040
 3500lim     li17540   5.669   0.641   1.919  0.0434 -0.6736  0.5919
 3501lim     li17541   2.683   6.077   0.314  0.6433  0.1693 -0.7881
 3502lim     li17542   3.521   1.544   4.495 -0.6146  0.4414 -1.3394
 3503lim     li17543   5.222   1.930   1.661 -0.4143 -0.9060  0.6709
 3504lim     li17544   6.416   1.622   1.788  0.3839  0.0486  0.8765
 3505lim     li17545   5.473   0.722   5.854  0.5533 -0.3244  0.6646
 3506lim     li17546   3.076   6.025   0.582 -0.9628  0.5301  0.0875
 3507lim     li17547   6.731   0.809   6.916  1.2110  0.9405  0.3345
 3508lim     li17548   6.844   4.304   0.972 -0.0062  0.0718  0.3772
 3509lim     li17549   4.615   5.835   0.350 -1.1626  0.9174  0.1204
 3510lim     li17550   0.836   0.872   3.808 -0.2608  0.3637  0.5408
 3511lim     li17551   0.412   7.326   4.965 -0.1257 -0.1945 -0.4832
 3512lim     li17552   2.459   4.901   3.930 -1.4167  0.9263 -0.8528
 3513lim     li17553   7.228   6.362   6.932  0.0311  1.0898  0.4260
 3514lim     li17554   6.848   0.626   4.378 -0.0220 -0.6330  0.3362
 3515lim     li17555   2.383   3.832   1.181  0.3479 -0.2549  0.4035
 3516lim     li17556   6.127   4.144   2.292 -0.2214  0.1446 -1.2492
 3517lim     li17557   6.186   2.352   6.289  1.3992  0.2513 -0.4775
 3518lim     li17558   5.857   6.246   6.939  0.1811 -1.3567  0.7950
 3519lim     li17559   2.573   6.367   7.256  1.0267 -0.8979 -0.5655
 3520lim     li17560   1.721   3.498   2.602  0.9915  0.8727 -0.0771
 3521lim     li17561   3.079   5.888   6.829  0.5861  0.3880  0.1093
 3522lim     li17562   4.151   5.043   7.138  0.3001  0.5962 -0.4239
 3523lim     li17563   5.363   5.699   5.425  0.1546 -0.6732  0.2620
 3524lim     li17564   5.113   4.688   3.240  0.2788  0.2086 -1.2261
 3525lim     li17565   7.349   1.053   2.096 -0.9639 -0.4004 -0.4343
 3526lim     li17566   2.925   5.246   4.471  0.6176 -1.6700 -0.2984
 3527lim     li17567   1.610   4.187   2.638  0.3299 -0.0494 -0.5611
 3528lim     li17568   0.058   0.051   0.490  0.8986  0.9637 -0.1450
 3529lim     li17569   3.461   0.274   5.617 -0.4540 -0.6142 -0.6019
 3530lim     li17570   4.123   5.335   2.756 -0.3167 -0.2605  0.4041
 3531lim     li17571   5.366   1.682   1.030 -0.1117  1.3728  0.4307
 3532lim     li17572   3.978   5.442   1.408 -0.5191 -0.2869  0.7739
 3533lim     li17573   6.876   7.265   2.428 -0.0223 -0.1469 -1.0171
 3534lim     li17574   6.459   5.852   6.468 -0.0346 -0.2226 -0.9917
 3535lim     li17575   4.752   4.939   2.238  0.7249  0.0746 -1.5342
 3536lim     li17576   2.463   7.218   3.219 -1.1876 -0.5421 -1.2719
 3537lim     li17577   2.995   1.333   3.500 -0.6643 -0.3206 -1.9092
 3538lim     li17578   4.816   0.036   2.856  0.1690 -0.2149  0.4127
 3539lim     li17579   4.934   0.619   3.606 -0.4840  0.2893  0.7225
 3540lim     li17580   5.732   0.328   3.941  0.5046  0.2609  1.1286
 3541lim     li17581   2.021   5.216   7.214  0.9357 -0.0860  0.5487
 3542lim     li17582   3.883   2.912   6.848 -0.5397  1.1753 -0.2816
 3543lim     li17583   1.423   0.464   2.830 -0.7565 -0.6970  1.8332
 3544lim     li17584   6.044   4.966   4.574  0.2609  0.5493  0.2445
 3545lim     li17585   0.234   0.727   4.776 -0.0350 -0.1765  0.0391
 3546lim     li17586   7.098   5.352   6.059  0.5133  0.3316 -0.7829
 3547lim     li17587   2.853   3.991   4.528 -0.5879 -1.1231  0.2704
 3548lim     li17588   5.089   3.404   4.623 -0.2987 -0.5499  0.3304
 3549lim     li17589   5.742   4.948   1.392  0.3438 -0.9243 -0.9920
 3550lim     li17590   6.112   5.582   0.986  0.5916 -0.4365  0.5537
 3551lim     li17591   2.391   3.539   3.826  0.6515 -0.1235 -1.1562
 3552lim     li17592   2.577   7.221   5.609 -0.3930  0.6512 -1.4879
 3553lim     li17593   1.352   3.127   0.545 -1.0492  0.6105 -0.7986
 3554lim     li17594   0.295   6.862   2.971  0.1788  0.5878 -0.0460
 3555lim     li17595   1.502   0.734   1.392 -0.3878  1.4935 -0.2910
 3556lim     li17596   4.137   3.620   6.636 -0.7657 -0.0264  0.0183
 3557lim     li17597   2.730   0.523   7.162 -0.3785 -0.2201  0.1716
 3558lim     li17598   3.177   1.323   5.517 -1.4219 -1.1907 -0.3663
 3559lim     li17599   4.191   4.962   4.554 -0.2389 -0.0026  0.4758
 3560lim     li17600   1.759   1.413   6.590 -0.4735 -0.4465 -0.5842
 3561lim     li17601   4.189   1.850   1.782  1.0520 -1.4732 -0.2962
 3562lim     li17602   0.083   6.961   6.930 -0.9852  1.6945 -0.4266
 3563lim     li17603   2.523   5.821   5.248 -0.3550  0.3772 -0.0915
 3564lim     li17604   5.884   3.433   4.027  0.4128 -0.3089 -0.2880
 3565lim     li17605   1.802   1.164   3.144 -0.2102  0.0892 -0.9206
 3566lim     li17606   1.053   0.647   7.076  1.3452 -0.0757  0.3737
 3567lim     li17607   3.459   2.761   0.768 -0.7820 -0.4283 -0.3848
 3568lim     li17608   1.482   7.134   3.816 -0.0218  0.5866 -0.0201
 3569lim     li17609   2.802   4.206   2.319  0.7938 -0.7894 -0.2783
 3570lim     li17610   4.067   4.120   1.176  0.2393 -0.0700  0.0947
 3571lim     li17611   2.826   3.044   6.821  0.7672 -1.7348 -0.2006
 3572lim     li17612   3.257   3.803   2.396 -1.0902  0.3617  1.5778
 3573lim     li17613   2.442   0.942   6.464 -0.8225  1.2522 -0.1283
 3574lim     li17614   4.593   1.508   0.928 -0.2034  0.2464  0.0844
 3575lim     li17615   2.322   4.197   2.020  0.6482  0.6397  0.7823
 3576lim     li17616   2.662   0.463   5.177 -0.9864  0.5010  1.1636
 3577lim     li17617   6.682   1.016   1.076 -0.1541  0.6593  0.2246
 3578lim     li17618   5.947   3.902   1.470 -1.0221 -0.4816  0.1271
 3579lim     li17619   5.988   6.649   4.163  1.5486  0.7528  0.7036
 3580lim     li17620   1.044   2.683   1.142  0.5275  0.9848 -0.5451
 3581lim     li17621   0.217   3.400   6.119  0.6241  0.7610  0.9055
 3582lim     li17622   3.296   1.591   7.321 -0.4876  0.1246 -0.2143
 3583lim     li17623   5.853   4.011   0.206 -0.9064 -0.4162  0.5298
 3584lim     li17624   2.782   2.033   6.895 -0.2031 -0.2031  0.1236
 3585lim     li17625   0.026   4.700   1.358 -0.1206  0.0415 -0.1721
 3586lim     li17626   0.002   2.678   4.586  0.6365  0.3639  0.9985
 3587lim     li17627   0.358   4.843   0.462 -0.0808  0.8224  0.4659
 3588lim     li17628   5.912   1.933   2.806  0.6027  1.7682 -0.1771
 3589lim     li17629   0.835   2.935   6.401  0.3882  0.1692  0.1790
 3590lim     li17630   0.487   0.117   2.051 -0.7563 -0.9824 -0.5381
 3591lim     li17631   2.342   4.997   6.638  0.4988 -0.9711  0.4840
 3592lim     li17632   7.132   5.616   4.773  0.0099  1.7516 -0.2134
 3593lim     li17633   6.246   0.136   6.461 -0.1032 -0.1785  0.1686
 3594lim     li17634   2.286   2.654   1.060  0.3855  0.1223 -0.2374
 3595lim     li17635   0.426   3.553   4.885 -0.7947 -0.7290  0.0943
 3596lim     li17636   5.013   4.125   6.459 -0.6867 -0.1360  0.4416
 3597lim     li17637   4.604   5.902   4.074  0.8167  1.1643  0.3526
 3598lim     li17638   5.255   6.558   5.104 -0.1325  0.5140  1.4455
 3599lim     li17639   2.801   5.721   5.891  0.6610  0.5643 -0.6918
 3600lim     li17640   2.786   6.683   6.119  0.0449  0.6107  0.7145
 3601lim     li17641   1.720   2.458   2.172  0.0299  1.0915  0.3763
 3602lim     li17642   0.624   2.660   5.316  0.2855  0.5560  0.7817
 3603lim     li17643   1.699   4.900   1.145 -0.4182  0.9279 -1.2602
 3604lim     li17644   0.706   3.846   1.296  0.0716  1.5981  0.1748
 3605lim     li17645   1.245   4.209   6.075  0.7975  0.1593 -0.2762
 3606lim     li17646   2.669   5.322   0.430  0.5264 -0.6283 -0.4701
 3607lim     li17647   4.587   6.520   5.209  0.3679  0.8053  0.0515
 3608lim     li17648   4.060   5.528   3.562  0.4883  0.9517  0.3874
 3609lim     li17649   5.462   6.555   3.221  1.0991  1.4322 -0.6690
 3610lim     li17650   6.209   5.656   5.481  0.8510 -0.6562 -0.1118
 3611lim     li17651   0.574   2.184   3.562  0.3310 -0.5153 -0.3421
 3612lim     li17652   5.263   4.813   2.635  0.1015 -1.3777 -0.5922
 3613lim     li17653   1.138   0.216   2.272  0.2558 -0.8808  0.7160
 3614lim     li17654   0.619   0.227   3.882 -1.0829  0.1505  0.9220
 3615lim     li17655   3.159   5.572   2.834 -0.8014  0.0892  1.5140
 3616lim     li17656   4.187   1.842   3.679 -0.4309 -0.4113  0.5046
 3617lim     li17657   1.669   6.713   3.289  0.4689 -0.6658  1.2947
 3618lim     li17658   3.722   1.133   3.296  0.5124 -0.0701 -0.0104
 3619lim     li17659   0.046   0.324   6.596 -0.4784  0.3771  0.9396
 3620lim     li17660   2.869   2.422   3.852  1.0720  0.3504 -1.6439
 3621lim     li17661   6.887   5.276   1.048  0.6010  0.4180  0.3601
 3622lim     li17662   3.025   6.637   5.134 -0.7521 -0.4293  0.0297
 3623lim     li17663   6.300   4.042   5.578 -0.0030 -0.7930  0.3330
 3624lim     li17664   4.216   6.580   6.845  0.7887 -0.6186 -0.8026
 3625lim     li17665   5.945   0.682   2.842  0.1011  0.5598 -0.5481
 3626lim     li17666   4.958   0.397   4.868  0.0967 -0.8769  0.6203
 3627lim     li17667   1.944   1.384   2.013  0.6305 -0.4463  0.5890
 3628lim     li17668   1.827   7.091   0.988  1.5334  0.3408 -0.6751
 3629lim     li17669   1.318   1.842   1.526 -0.7751 -0.1255 -0.9431
 3630lim     li17670   5.380   6.330   0.932  0.4472 -0.2305  0.3278
 3631lim     li17671   3.452   3.506   4.587  0.2664  0.3286  0.4113
 3632lim     li17672   2.992   3.748   6.165  0.5056 -0.9834 -0.1344
 3633lim     li17673   0.282   0.790   7.360  0.4098  0.3683  0.3453
 3634lim     li17674   6.539   6.274   3.185  0.5143 -0.1916  0.9554
 3635lim     li17675   0.740   5.094   2.464  0.2291 -0.5389  0.1216
 3636lim     li17676   3.869   1.062   7.153 -0.2977  0.1867  0.0918
 3637lim     li17677   0.946   2.939   3.526  0.2954 -0.0736  0.3819
 3638lim     li17678   6.223   6.195   1.675 -1.3103 -0.8308 -0.2735
 3639lim     li17679   5.573   5.811   2.440  0.1203 -0.7640 -0.0280
 3640lim     li17680   4.549   4.361   3.971  0.6553 -0.1526  0.4243
 3641lim     li17681   5.886   2.493   5.622  0.8777 -1.3677  0.8753
 3642lim     li17682   7.246   5.441   6.969  0.2711  0.9675  0.8297
 3643lim     li17683   4.044   2.170   6.361 -0.1504 -0.7923 -0.4835
 3644lim     li17684   6.069   4.706   5.694  0.3061  0.5331  0.5077
 3645lim     li17685   4.525   0.498   5.993 -0.8831 -0.6899 -0.2037
 3646lim     li17686   2.045   0.956   5.659 -0.2269 -0.1322 -0.7242
 3647lim     li17687   7.345   5.807   2.062  0.2908 -0.7078 -0.0863
 3648lim     li17688   6.803   1.713   5.030  0.3852 -1.1508 -0.2578
 3649lim     li17689   2.579   7.261   1.872 -1.0857  0.0462  1.5849
 3650lim     li17690   4.200   4.881   5.461  0.9329 -0.0958 -0.9027
 3651lim     li17691   6.081   1.147   3.621  0.6626 -0.6773 -0.2641
 3652lim     li17692   4.196   1.991   6.906 -0.1412  0.4682  0.8350
 3653lim     li17693   3.949   4.620   2.031 -0.7698  0.3309 -0.3320
 3654lim     li17694   2.343   6.117   6.144 -0.1675 -0.6439  0.8984
 3655lim     li17695   6.041   0.375   0.985 -0.3904 -0.6991  1.1760
 3656lim     li17696   7.139   7.062   1.544  0.7141 -0.6396 -0.7389
 3657lim     li17697   0.564   2.187   6.887 -1.6733 -0.4194  0.4972
 3658lim     li17698   0.196   5.834   4.976 -1.3432  0.6253  0.5609
 3659lim     li17699   3.964   4.665   3.669  0.4212  0.8465  0.2900
 3660lim     li17700   1.691   7.309   0.243 -0.1922  0.3532  0.8620
 3661lim     li17701   4.028   0.025   3.476  0.1730 -1.0055  0.5392
 3662lim     li17702   6.024   2.494   4.378  0.4186  0.3808  0.4327
 3663lim     li17703   4.328   2.699   4.371  0.2952  1.7478 -0.2342
 3664lim     li17704   1.268   5.627   0.767 -0.1392  1.0321  0.1996
 3665lim     li17705   3.162   1.850   4.612  0.8512  1.5832 -0.7149
 3666lim     li17706   3.926   7.349   2.411  0.8573  0.4072  0.2139
 3667lim     li17707   0.905   3.094   7.287 -0.6355 -0.0030 -0.0208
 3668lim     li17708   6.591   2.288   7.299  0.9956 -0.2242 -0.9439
 3669lim     li17709   6.630   2.402   4.035 -0.0982  0.7831 -0.1294
 3670lim     li17710   6.538   5.457   2.487  1.5797 -0.3789 -0.3413
 3671lim     li17711   6.764   3.304   5.483  0.0529  0.1219  0.4545
 3672lim     li17712   5.195   2.832   1.100 -0.8855 -0.1457 -1.3779
 3673lim     li17713   4.691   4.746   6.675 -0.4896  0.8135 -0.5399
 3674lim     li17714   2.932   4.659   5.547  0.7509  0.0421  0.0205
 3675lim     li17715   7.292   0.970   6.427 -0.2909  0.2434 -0.3233
 3676lim     li17716   0.476   5.344   3.419  0.6346 -1.1520  0.3107
 3677lim     li17717   3.252   4.889   6.217  0.2391 -0.4903 -0.3681
 3678lim     li17718   0.308   3.590   0.568  0.3220 -0.0985  0.2813
 3679lim     li17719   6.520   3.002   0.447 -0.6900 -0.2488 -0.3310
 3680lim     li17720   6.752   5.278   3.438 -0.2008 -0.3814  0.3537
 3681lim     li17721   2.686   5.864   1.861 -0.0640  0.7887 -0.1291
 3682lim     li17722   5.232   2.019   3.058 -0.8341  0.9592  0.6782
 3683lim     li17723   0.901   3.427   1.602  0.8362  0.5102  0.5925
 3684lim     li17724   3.233   0.916   2.375 -0.9255 -0.3878  0.0510
 3685lim     li17725   4.553   1.041   4.203 -0.0065  0.5393 -0.4032
 3686lim     li17726   2.487   1.877   2.136 -0.5674  0.0622 -0.4051
 3687lim     li17727   5.846   2.127   6.728  0.2323  0.9965  0.4066
 3688lim     li17728   6.071   6.987   1.204  0.4466  0.2121  0.9256
 3689lim     li17729   5.240   2.668   2.230  0.2274  0.7182 -0.6344
 3690lim     li17730   7.348   6.417   3.994 -0.4853 -0.0713 -0.8510
 3691lim     li17731   4.019   3.046   1.058 -0.9702  0.4378 -0.0223
 3692lim     li17732   4.421   3.967   7.297  0.0589 -1.1492  1.3217
 3693lim     li17733   0.636   2.003   4.791 -0.1265 -0.1293 -0.2608
 3694lim     li17734   3.028   3.511   1.428  0.0062 -0.9109 -0.7911
 3695lim     li17735   6.444   3.965   4.569  0.4086 -0.8327  1.8198
 3696lim     li17736   4.944   7.123   4.083 -1.1378  0.3466  0.6065
 3697lim     li17737   6.012   2.180   1.989 -0.4762  0.3682  0.0370
 3698lim     li17738   3.162   4.511   3.431 -0.4549  0.3956  0.7018
 3699lim     li17739   4.430   0.442   3.153 -0.8873 -0.3779  1.2974
 3700lim     li17740   6.932   4.427   6.381  0.7386 -0.6918 -0.6491
 3701lim     li17741   3.909   1.571   2.823  0.0430 -0.5014  0.1360
 3702lim     li17742   3.763   1.928   0.513  0.0588 -0.1862  1.4642
 3703lim     li17743   3.253   3.575   3.502 -0.4066  0.5431  0.5424
 3704lim     li17744   2.778   1.115   1.139  0.9610 -0.6166  0.0860
 3705lim     li17745   5.635   0.218   6.620 -0.1773 -1.6520 -0.4446
 3706lim     li17746   3.603   4.432   4.996  0.1958  0.7226 -1.0494
 3707lim     li17747   7.264   6.858   2.344  0.3407 -0.2112  0.2233
 3708lim     li17748   1.536   7.306   4.661  0.7951  0.6956 -0.8158
 3709lim     li17749   3.509   0.799   1.179  0.5746  0.8207 -0.6725
 3710lim     li17750   2.036   5.410   1.978  0.6587  0.5185 -1.5332
 3711lim     li17751   0.827   3.621   5.227 -1.4216  0.6837  0.8368
 3712lim     li17752   0.471   1.772   5.559 -0.4890  0.5176  0.3245
 3713lim     li17753   5.197   4.632   0.941  0.0230  0.3620 -0.1616
 3714lim     li17754   2.888   0.086   4.517  0.3263  0.3325  0.5021
 3715lim     li17755   1.916   2.266   3.575  0.9771 -0.1928  1.1477
 3716lim     li17756   5.562   7.133   4.692 -0.1868  0.2863 -0.3418
 3717lim     li17757   4.344   1.673   5.143 -0.6767  0.5772 -0.2217
 3718lim     li17758   0.514   5.717   6.257 -0.0409 -0.6525 -0.4969
 3719lim     li17759   4.953   6.077   4.589  0.2376  1.3652  0.1452
 3720lim     li17760   6.560   6.579   6.351  0.8075 -0.2136  0.7094
 3721lim     li17761   2.039   5.791   0.912  0.1141 -0.5380  0.8920
 3722lim     li17762   5.025   1.704   4.454  0.5166 -0.2238  0.5959
 3723lim     li17763   3.640   7.034   5.186  0.0890  0.4485 -0.1533
 3724lim     li17764   1.853   5.429   3.778 -0.0492 -0.5367  0.4646
 3725lim     li17765   0.859   1.092   1.913 -0.1243  0.3252 -0.6132
 3726lim     li17766   6.949   4.570   6.846 -0.2890  1.2768 -0.0583
 3727lim     li17767   4.724   3.667   3.670 -0.5745 -0.1797  0.1441
 3728lim     li17768   3.306   2.705   3.568  0.0997 -0.6896  1.4063
 3729lim     li17769   1.064   0.814   4.993 -0.0436  0.0071 -0.3496
 3730lim     li17770   1.344   3.518   4.426 -1.0245  0.2937  0.3782
 3731lim     li17771   2.636   0.440   3.057  0.4190 -0.0308 -0.1344
 3732lim     li17772   4.784   2.181   0.319  0.4474  0.0863  0.1717
 3733lim     li17773   5.885   1.261   4.708 -0.3390 -0.0550 -0.3156
 3734lim     li17774   7.109   1.783   4.483 -0.1093 -1.4702 -0.0300
 3735lim     li17775   3.953   5.809   4.722  1.2083 -1.1329 -0.2630
 3736lim     li17776   1.947   3.725   1.637  0.4468  0.1147  0.3825
 3737lim     li17777   4.834   5.098   0.339 -0.7398  0.4225  0.2228
 3738lim     li17778   4.712   1.106   2.261 -0.0123 -0.9223  1.2832
 3739lim     li17779   6.051   4.007   4.010 -1.3946 -0.6304  0.0366
 3740lim     li17780   4.320   4.449   0.657 -0.4135 -0.0489  0.2088
 3741lim     li17781   0.309   5.854   3.307 -0.5036  0.8481  0.5851
 3742lim     li17782   7.136   6.185   2.523 -0.4987 -0.0691  0.3003
 3743lim     li17783   3.071   6.578   2.534  0.9500 -0.1360 -1.1861
 3744lim     li17784   1.192   5.011   5.168 -0.1255  1.8842  0.6159
 3745lim     li17785   0.186   1.371   3.057 -0.0514  0.0324 -0.2955
 3746lim     li17786   0.925   6.830   0.185  0.7370  0.7438 -0.4579
 3747lim     li17787   7.005   3.011   2.426  0.6322 -0.0776 -0.4526
 3748lim     li17788   6.804   4.164   3.634  0.3176  0.8471 -0.0492
 3749lim     li17789   0.155   6.862   1.006  1.2690  0.2487  0.7381
 3750lim     li17790   6.604   5.811   7.250  0.1007 -0.1246 -0.0733
 3751lim     li17791   0.270   2.101   0.313  0.1985  1.3743 -0.1848
 3752lim     li17792   0.826   0.630   0.967  0.5268 -1.3839 -0.5151
 3753lim     li17793   3.811   3.404   2.541  0.1707  1.0376  1.6654
 3754lim     li17794   1.693   1.716   4.273 -0.9443  0.1524 -0.5746
 3755lim     li17795   3.524   6.201   3.495  0.4518  0.2794  0.9474
 3756lim     li17796   2.537   3.967   6.844  0.0766 -0.2464  0.8399
 3757lim     li17797   4.958   0.300   1.212 -0.5401 -1.6180 -0.7829
 3758lim     li17798   3.450   7.057   7.244 -0.2943 -0.1118 -0.9827
 3759lim     li17799   0.970   2.785   5.864 -0.5599 -0.8334  0.3822
 3760lim     li17800   5.381   3.098   6.994  0.4611 -0.9188  0.2647
 3761lim     li17801   5.018   2.555   4.708  0.6798 -0.1126  0.3942
 3762lim     li17802   2.315   6.961   7.002 -0.8940 -0.1681 -1.8042
 3763lim     li17803   3.582   2.250   3.800  0.2748 -1.0423  0.2590
 3764lim     li17804   3.846   3.082   5.424 -0.8767  0.3353  0.4173
 3765lim     li17805   3.450   5.153   0.701 -0.7767 -0.1208 -0.3533
 3766lim     li17806   2.037   2.172   6.381  0.6561 -0.0245  0.7370
 3767lim     li17807   6.596   6.753   4.141  0.2516 -0.4551 -0.3048
 3768lim     li17808   0.325   0.399   1.331  0.8255  0.2341 -0.1758
 3769lim     li17809   6.149   4.705   0.328  0.1659 -0.8332  0.1740
 3770lim     li17810   5.553   7.231   0.204  0.1230  0.2611  0.6199
 3771lim     li17811   1.761   0.715   0.273  0.2816  0.4548  0.4730
 3772lim     li17812   2.403   5.658   2.981 -0.0636  0.0271 -0.3810
 3773lim     li17813   0.631   2.522   2.393 -0.5561 -0.2956  0.6367
 3774lim     li17814   4.328   7.296   6.859 -0.1443 -0.0677 -0.5223
 3775lim     li17815   6.963   3.586   4.606 -0.4712  0.4792 -0.8165
 3776lim     li17816   5.891   3.434   5.060 -0.2834  0.3603 -0.6439
 3777lim     li17817   2.765   5.103   4.986 -0.8257 -0.9557 -0.6011
 3778lim     li17818   6.578   6.779   4.916 -0.5028  0.2694 -0.0623
 3779lim     li17819   4.607   5.514   2.308 -0.6215 -0.8228  0.7384
 3780lim     li17820   1.062   6.065   3.676  1.0189  0.3052 -1.5996
 3781ntf    cn117821   3.038   3.426   2.906 -0.0532  0.2862 -0.0459
 3781ntf    sn217822   2.942   3.315   2.798  0.4653 -0.0261 -0.1901
 3781ntf    nn317823   2.986   3.171   2.842  0.3104 -0.2634 -0.7915
 3781ntf    sn217824   2.885   3.052   2.858  0.0810  0.0200 -0.0618
 3781ntf    cn117825   2.986   2.910   2.805 -0.0287  0.1540 -0.6390
 3781ntf    fn417826   3.169   3.422   2.892 -0.0554 -0.4968  0.1103
 3781ntf    fn417827   2.996   3.550   2.890  0.3775  0.4507  0.0957
 3781ntf    fn417828   3.012   3.404   3.034  0.0390  0.4801  0.0048
 3781ntf    on517829   2.807   3.354   2.830  0.5086 -0.2519  0.2683
 3781ntf    on517830   3.004   3.369   2.679 -0.3020  0.3249 -0.4390
 3781ntf    on517831   2.779   3.058   2.760 -0.4562 -0.1487  0.5014
 3781ntf    on517832   2.847   3.020   2.994  0.2385  0.3795  0.0682
 3781ntf    fn417833   3.028   2.912   2.680  0.1798 -0.1880 -0.5757
 3781ntf    fn417834   3.101   2.916   2.871 -0.3286  0.7811 -0.1546
 3781ntf    fn417835   2.932   2.792   2.830 -0.4618  0.4731 -0.0316
 3782ntf    cn117836   0.836   4.999   1.394 -0.0518  0.2090  0.3338
 3782ntf    sn217837   0.719   4.871   1.446  0.4115 -0.2001  0.3815
 3782ntf    nn317838   0.813   4.807   1.555 -0.1980 -0.8408  0.5402
 3782ntf    sn217839   0.858   4.879   1.686  0.2530 -0.3995  0.1476
 3782ntf    cn117840   0.743   4.791   1.797 -0.1629 -0.0411  0.0006
 3782ntf    fn417841   0.822   5.108   1.467 -0.1897  0.3968  0.0310
 3782ntf    fn417842   0.965   4.976   1.413 -0.1130 -0.1469  0.3156
 3782ntf    fn417843   0.835   5.032   1.266  0.3900  0.0871  0.2946
 3782ntf    on517844   0.604   4.949   1.486  0.4028  0.2719 -0.5362
 3782ntf    on517845   0.710   4.788   1.329  0.3330  0.3948 -0.0347
 3782ntf    on517846   0.827   5.018   1.708 -0.4148 -0.4362 -0.5663
 3782ntf    on517847   0.988   4.831   1.730  0.6077  0.4460  0.0404
 3782ntf    fn417848   0.616   4.793   1.760 -0.0334 -0.2286 -0.4700
 3782ntf    fn417849   0.775   4.663   1.807 -0.0355 -0.0160 -0.0747
 3782ntf    fn417850   0.748   4.846   1.917 -0.6095 -0.2141  0.0970
 3783ntf    cn117851   0.759   4.378   5.519  0.0045 -0.8148  0.0625
 3783ntf    sn217852   0.861   4.470   5.400 -0.2526 -0.3282  0.2138
 3783ntf    nn317853   0.861   4.372   5.278  0.1254 -0.1501  0.0687
 3783ntf    sn217854   0.848   4.406   5.125  0.0098 -0.2419  0.0587
 3783ntf    cn117855   0.668   4.427   5.112  0.0023 -0.4570 -0.2109
 3783ntf    fn417856   0.638   4.341   5.479 -0.2452 -0.0533  0.0925
 3783ntf    fn417857   0.816   4.266   5.559  0.5649 -0.6959 -0.3844
 3783ntf    fn417858   0.739   4.449   5.629  0.4501 -0.2524 -0.2156
 3783ntf    on517859   0.794   4.596   5.378  0.4428 -0.0241 -0.2211
 3783ntf    on517860   0.987   4.468   5.471 -0.0995 -0.7006 -0.0642
 3783ntf    on517861   0.871   4.296   5.035  0.0733 -0.4776  0.3619
 3783ntf    on517862   0.905   4.532   5.086 -0.6004  0.1847  0.5226
 3783ntf    fn417863   0.606   4.311   5.107 -0.2995 -0.2726 -0.8142
 3783ntf    fn417864   0.610   4.501   5.206  0.6559  0.0850 -0.2214
 3783ntf    fn417865   0.632   4.482   4.997 -0.0052 -0.4813 -0.2199
 3784ntf    cn117866   4.858   4.162   1.117  0.4514  0.3092  0.5089
 3784ntf    sn217867   4.803   4.332   1.152  0.4424  0.4497 -0.1586
 3784ntf    nn317868   4.698   4.355   1.038  0.2213 -0.2337 -0.1002
 3784ntf    sn217869   4.710   4.428   0.899  0.0286 -0.4111 -0.2096
 3784ntf    cn117870   4.667   4.600   0.940 -0.2824 -0.5288 -0.0372
 3784ntf    fn417871   4.751   4.085   1.107  0.2598  0.5531  0.6493
 3784ntf    fn417872   4.922   4.159   1.001  0.1980  0.2787  0.3685
 3784ntf    fn417873   4.929   4.104   1.212  0.4544 -0.3261  0.1214
 3784ntf    on517874   4.741   4.316   1.282  0.3172  0.5288 -0.2082
 3784ntf    on517875   4.920   4.416   1.142  0.9359 -0.2233 -0.1611
 3784ntf    on517876   4.603   4.390   0.810  0.3846  0.0229 -0.8352
 3784ntf    on517877   4.843   4.442   0.846  0.2362 -0.0894  0.3871
 3784ntf    fn417878   4.538   4.620   0.962 -0.2578 -0.2681 -0.1284
 3784ntf    fn417879   4.735   4.650   1.042 -0.6346  0.2480 -0.1809
 3784ntf    fn417880   4.690   4.679   0.836 -0.0642 -0.0894  0.3422
 3785ntf    cn117881   1.618   5.125   5.595  0.0616 -0.2849 -0.0210
 3785ntf    sn217882   1.649   5.061   5.428  0.1005  0.0161 -0.1299
 3785ntf    nn317883   1.802   5.093   5.410  0.0794  0.2918  0.1696
 3785ntf    sn217884   1.922   4.993   5.391 -0.2730 -0.0981 -0.0335
 3785ntf    cn117885   2.050   5.098   5.465  0.1080 -0.1069 -0.6744
 3785ntf    fn417886   1.667   5.247   5.608  0.5618 -0.5428  0.5756
 3785ntf    fn417887   1.490   5.139   5.627  0.0602 -0.5895  0.1048
 3785ntf    fn417888   1.685   5.060   5.689  0.2532 -0.2294 -0.1188
 3785ntf    on517889   1.610   4.923   5.441 -0.0035  0.0725  0.1534
 3785ntf    on517890   1.563   5.134   5.338 -0.0039 -0.2080 -0.2144
 3785ntf    on517891   1.967   4.976   5.255  0.2464  0.8060  0.0171
 3785ntf    on517892   1.911   4.877   5.475 -0.4984 -0.2383 -0.2557
 3785ntf    fn417893   2.166   5.059   5.414  0.5012 -0.0660  0.1768
 3785ntf    fn417894   2.030   5.228   5.450  0.1871  0.0984  0.8318
 3785ntf    fn417895   2.054   5.083   5.596 -0.8179  0.1533 -0.6110
 3786ntf    cn117896   6.369   5.930   2.691 -0.0988  0.2154  0.8679
 3786ntf    sn217897   6.542   5.975   2.663 -0.0652 -0.3870  0.0625
 3786ntf    nn317898   6.538   6.114   2.591 -0.0299 -0.0015  0.7923
 3786ntf    sn217899   6.537   6.265   2.636 -0.1191  0.2612 -0.0640
 3786ntf    cn117900   6.418   6.351   2.529 -0.4305  0.4497  0.4276
 3786ntf    fn417901   6.313   6.008   2.783 -0.7678  0.2608  0.4343
 3786ntf    fn417902   6.295   5.944   2.582  0.6184  0.7235  0.4427
 3786ntf    fn417903   6.364   5.807   2.741 -0.0443 -0.3798 -0.5329
 3786ntf    on517904   6.590   5.977   2.799 -0.0513  0.2439  0.0504
 3786ntf    on517905   6.605   5.877   2.579  1.1525 -0.0084  0.5037
 3786ntf    on517906   6.666   6.326   2.616  0.2611 -0.7553 -0.7749
 3786ntf    on517907   6.473   6.283   2.764 -0.0407  0.7742 -0.0969
 3786ntf    fn417908   6.454   6.347   2.401  0.0937 -0.0646  0.5843
 3786ntf    fn417909   6.303   6.289   2.547 -0.3427  0.1097 -0.1347
 3786ntf    fn417910   6.406   6.479   2.559 -0.1359  0.5880 -0.0281
 3787ntf    cn117911   3.750   4.711   1.481  0.2593 -0.4197  0.0977
 3787ntf    sn217912   3.922   4.698   1.541  0.3348  0.1746  0.0129
 3787ntf    nn317913   3.993   4.617   1.427  0.0216  0.1128 -0.1412
 3787ntf    sn217914   4.121   4.645   1.340  0.1358 -0.5024 -0.1768
 3787ntf    cn117915   4.235   4.556   1.450  0.1825  0.0030  0.1838
 3787ntf    fn417916   3.682   4.599   1.500  0.2941 -0.3115  0.8950
 3787ntf    fn417917   3.671   4.803   1.534  0.4799 -0.2056  0.0555
 3787ntf    fn417918   3.752   4.743   1.353  0.0329 -0.6940  0.0243
 3787ntf    on517919   3.964   4.835   1.554 -0.3445  0.3641  0.2471
 3787ntf    on517920   3.907   4.621   1.662  0.0072 -0.4898 -0.4446
 3787ntf    on517921   4.173   4.778   1.355  0.1479 -0.4529 -0.6501
 3787ntf    on517922   4.114   4.564   1.221  0.3172 -0.6597 -0.0804
 3787ntf    fn417923   4.224   4.425   1.434 -0.6448  0.0638  0.2372
 3787ntf    fn417924   4.363   4.586   1.433  0.0446  0.3362 -0.2697
 3787ntf    fn417925   4.215   4.583   1.578 -0.0581 -0.7952  0.3189
 3788ntf    cn117926   4.605   3.546   4.639  0.1486 -0.5149  0.0347
 3788ntf    sn217927   4.612   3.383   4.719 -0.4537 -0.5733 -0.0269
 3788ntf    nn317928   4.459   3.363   4.750 -0.6758  0.2446 -0.5657
 3788ntf    sn217929   4.384   3.288   4.866 -0.0744  0.2104 -0.1920
 3788ntf    cn117930   4.268   3.186   4.770 -0.1945  0.0465  0.1270
 3788ntf    fn417931   4.552   3.640   4.715  0.3404 -0.4787  0.1224
 3788ntf    fn417932   4.731   3.582   4.619 -0.0121 -0.0730 -0.1874
 3788ntf    fn417933   4.543   3.550   4.522  0.4320  0.0850 -0.0966
 3788ntf    on517934   4.672   3.298   4.620 -0.3749 -0.3802 -0.1458
 3788ntf    on517935   4.694   3.411   4.835 -0.2022 -0.5306 -0.2143
 3788ntf    on517936   4.286   3.374   4.928 -0.0828 -0.1471  0.2959
 3788ntf    on517937   4.468   3.206   4.950  0.1690  0.4284 -0.2229
 3788ntf    fn417938   4.211   3.265   4.681 -0.0697 -0.6408 -0.5758
 3788ntf    fn417939   4.325   3.091   4.698 -0.2289  0.0280  0.1245
 3788ntf    fn417940   4.169   3.126   4.834 -0.3309 -0.5969 -0.6708
 3789ntf    cn117941   5.841   2.002   1.209  0.0941  0.2747  0.1449
 3789ntf    sn217942   5.669   1.945   1.225  0.2248 -0.1572  0.0334
 3789ntf    nn317943   5.605   1.988   1.088  0.4309  0.3115  0.0823
 3789ntf    sn217944   5.519   2.114   1.053 -0.1721 -0.1400 -0.0621
 3789ntf    cn117945   5.597   2.187   0.906  0.0566  0.0341  0.1461
 3789ntf    fn417946   5.921   1.938   1.293 -0.4791 -0.2668  0.2856
 3789ntf    fn417947   5.890   1.985   1.087 -0.5042  0.0522 -0.0697
 3789ntf    fn417948   5.848   2.131   1.238 -0.8341  0.2419  0.5382
 3789ntf    on517949   5.680   1.801   1.224  0.1930 -0.1683  0.7224
 3789ntf    on517950   5.620   2.012   1.342  0.6585  0.4549 -0.1320
 3789ntf    on517951   5.541   2.230   1.136 -0.0351 -0.4304  0.3104
 3789ntf    on517952   5.382   2.080   1.020 -0.1329 -0.0046 -0.3614
 3789ntf    fn417953   5.547   2.308   0.892  0.2570  0.1404  0.3566
 3789ntf    fn417954   5.727   2.208   0.920  0.0058  0.1918  0.3938
 3789ntf    fn417955   5.574   2.121   0.794  0.0231  0.0608  0.1373
 3790ntf    cn117956   0.121   6.491   1.555  0.2350 -0.1475  0.3711
 3790ntf    sn217957   0.016   6.561   1.424  0.3364 -0.0900  0.3209
 3790ntf    nn317958  -0.049   6.441   1.346  0.4669  0.0983 -0.0772
 3790ntf    sn217959  -0.199   6.409   1.314  0.3748  0.4456  0.0072
 3790ntf    cn117960  -0.255   6.311   1.457  0.6077 -0.1539 -0.3088
 3790ntf    fn417961   0.173   6.584   1.633  0.1287 -0.2036  0.5100
 3790ntf    fn417962   0.068   6.399   1.634 -0.0322 -0.2077  0.1218
 3790ntf    fn417963   0.222   6.436   1.491  0.2116 -0.0258  0.2305
 3790ntf    on517964  -0.080   6.644   1.491  0.0731 -0.1504  0.0187
 3790ntf    on517965   0.110   6.618   1.330 -0.4019  0.2347 -0.2290
 3790ntf    on517966  -0.224   6.321   1.203 -0.6131  0.4853  0.1845
 3790ntf    on517967  -0.286   6.524   1.318 -0.6354 -0.2890 -0.3465
 3790ntf    fn417968  -0.266   6.387   1.565 -0.0384 -0.2772 -0.2786
 3790ntf    fn417969  -0.374   6.256   1.437  0.1679  0.6788 -0.0590
 3790ntf    fn417970  -0.162   6.221   1.483  0.4379 -0.1016  0.5025
 3791ntf    cn117971   6.915   4.974   5.878  0.3342 -0.1856 -0.2450
 3791ntf    sn217972   6.828   4.920   6.028  0.0402 -0.0218 -0.3551
 3791ntf    nn317973   6.733   4.810   5.970 -0.6343  0.3960 -0.0578
 3791ntf    sn217974   6.771   4.663   5.929  0.0181  0.5357  0.0445
 3791ntf    cn117975   6.910   4.609   6.034 -0.1531 -0.4110 -0.2089
 3791ntf    fn417976   6.965   5.095   5.892 -0.8357  0.3355 -0.4504
 3791ntf    fn417977   7.014   4.892   5.844  0.4732 -0.0143 -0.2525
 3791ntf    fn417978   6.841   4.975   5.768  0.2208 -0.2497 -0.1696
 3791ntf    on517979   6.928   4.877   6.123 -0.3786  0.0918  0.1401
 3791ntf    on517980   6.759   5.040   6.069 -0.3652 -0.3157 -0.1622
 3791ntf    on517981   6.813   4.653   5.791  0.1674 -0.1423  0.1362
 3791ntf    on517982   6.669   4.564   5.950  0.2846  0.3440  0.4485
 3791ntf    fn417983   6.937   4.480   6.020  0.2745 -0.3511  0.0685
 3791ntf    fn417984   7.029   4.659   6.006 -0.1353 -0.6391 -0.5482
 3791ntf    fn417985   6.880   4.632   6.161  0.0797 -0.1219 -0.2050
 3792ntf    cn117986   2.867   2.867   1.976 -0.1056  0.4333 -0.5865
 3792ntf    sn217987   3.048   2.869   1.958 -0.0733 -0.5233 -0.4088
 3792ntf    nn317988   3.061   2.943   1.820  0.3312 -0.4941 -0.3563
 3792ntf    sn217989   3.072   3.098   1.802 -0.1356 -0.4312 -0.1355
 3792ntf    cn117990   3.251   3.128   1.817 -0.2696  0.2623  0.1214
 3792ntf    fn417991   2.828   2.800   2.083  0.1615  0.0911 -0.7015
 3792ntf    fn417992   2.825   2.992   1.988 -0.6511  0.2072 -0.1130
 3792ntf    fn417993   2.802   2.817   1.872 -0.2169 -0.3821 -0.1384
 3792ntf    on517994   3.092   2.935   2.078 -0.7661 -0.7981  0.0030
 3792ntf    on517995   3.073   2.727   1.948 -0.2631 -0.5602 -0.3813
 3792ntf    on517996   3.009   3.178   1.904  0.2591  0.3035 -0.4556
 3792ntf    on517997   3.045   3.136   1.665 -0.1615 -0.7359 -0.2161
 3792ntf    fn417998   3.322   3.068   1.723 -0.5265  0.2138 -0.0415
 3792ntf    fn417999   3.283   3.256   1.824 -0.3747  0.2900  0.1007
 3792ntf    fn418000   3.296   3.064   1.924 -0.7927 -0.4799 -0.0947
 3793ntf    cn118001   7.025   4.059   3.200 -0.2478 -0.1429  0.0662
 3793ntf    sn218002   7.134   4.189   3.267 -0.0490 -0.2669 -0.0168
 3793ntf    nn318003   7.200   4.246   3.136  0.4558 -0.1150  0.3035
 3793ntf    sn218004   7.190   4.392   3.081 -0.1059 -0.1084  0.4169
 3793ntf    cn118005   7.290   4.354   2.933 -0.3511 -0.1289  0.2562
 3793ntf    fn418006   7.029   4.045   3.068 -0.2428  0.1915  0.0289
 3793ntf    fn418007   7.065   3.941   3.244  0.1394  0.1277  0.4475
 3793ntf    fn418008   6.897   4.060   3.234 -0.2132 -0.0129  0.1972
 3793ntf    on518009   7.042   4.278   3.332  0.3100  0.6441 -0.7417
 3793ntf    on518010   7.221   4.107   3.348  0.4914  0.2027 -0.1113
 3793ntf    on518011   7.267   4.492   3.151  0.3114  0.0387 -0.2398
 3793ntf    on518012   7.068   4.445   3.024  0.0208 -0.3281 -0.0664
 3793ntf    fn418013   7.320   4.462   2.862 -0.0158 -0.2311  0.2423
 3793ntf    fn418014   7.412   4.315   2.966 -0.1266  0.2144 -0.1709
 3793ntf    fn418015   7.250   4.253   2.859  0.0803  0.0515 -0.2267
 3794ntf    cn118016   6.932   3.833   4.032  0.1118 -0.5635 -0.2722
 3794ntf    sn218017   6.839   3.792   3.882 -0.2070 -0.0180 -0.2252
 3794ntf    nn318018   6.965   3.788   3.788 -0.1853 -0.1287 -0.1911
 3794ntf    sn218019   7.005   3.889   3.674  0.0709 -0.1339 -0.1044
 3794ntf    cn118020   7.187   3.885   3.662  0.0783 -0.0321 -0.0355
 3794ntf    fn418021   7.030   3.745   4.048  0.8332  0.3046  0.1861
 3794ntf    fn418022   6.990   3.952   4.034 -0.7376 -0.1479  0.2169
 3794ntf    fn418023   6.855   3.826   4.140  0.4506  0.1718  0.0216
 3794ntf    on518024   6.779   3.663   3.903 -0.0761 -0.0590 -0.1102
 3794ntf    on518025   6.747   3.902   3.862 -0.0193  0.0175 -0.9177
 3794ntf    on518026   6.971   4.025   3.706  0.1945 -0.2135  0.3773
 3794ntf    on518027   6.962   3.841   3.545  0.2499 -0.1451 -0.1608
 3794ntf    fn418028   7.233   3.911   3.783 -0.4968 -0.3588  0.2588
 3794ntf    fn418029   7.237   3.764   3.639 -0.5669 -0.3795  0.3441
 3794ntf    fn418030   7.241   3.957   3.565  0.5675 -0.1381  0.1567
 3795ntf    cn118031   6.000   6.954   6.164  0.0857  0.0277 -0.4822
 3795ntf    sn218032   5.933   7.116   6.212 -0.1695 -0.2603  0.1539
 3795ntf    nn318033   5.783   7.081   6.241 -0.4369  0.6334 -0.1332
 3795ntf    sn218034   5.697   7.090   6.372 -0.0429  0.1191  0.1620
 3795ntf    cn118035   5.710   6.917   6.426  0.0160  0.0885  0.0499
 3795ntf    fn418036   6.132   6.954   6.171  0.0664 -0.4253  0.0039
 3795ntf    fn418037   5.958   6.856   6.242 -0.7554  0.9150  0.2034
 3795ntf    fn418038   5.954   6.926   6.043 -1.0136  0.1570 -0.1088
 3795ntf    on518039   6.019   7.154   6.321 -0.4604  0.1579  0.2405
 3795ntf    on518040   5.959   7.189   6.090 -0.0703  0.0530  0.3617
 3795ntf    on518041   5.556   7.099   6.343 -0.0287 -0.7561 -0.2280
 3795ntf    on518042   5.747   7.171   6.480  0.1821  0.6030 -0.2981
 3795ntf    fn418043   5.643   6.840   6.342 -0.5918  0.6912 -0.0209
 3795ntf    fn418044   5.836   6.875   6.429  0.0613  0.2157 -0.0928
 3795ntf    fn418045   5.641   6.892   6.536 -0.0068  0.0076  0.0181
 3796ntf    cn118046   3.067   6.544   6.909 -0.3573  0.3084 -0.0833
 3796ntf    sn218047   2.959   6.422   6.828  0.2606 -0.3841  0.1255
 3796ntf    nn318048   2.981   6.444   6.674  0.1208 -0.1472  0.1397
 3796ntf    sn218049   3.044   6.356   6.560 -0.0896 -0.2190  0.0789
 3796ntf    cn118050   3.219   6.403   6.570 -0.0844 -0.1492 -0.3588
 3796ntf    fn418051   3.169   6.585   6.835 -0.0866 -0.5110 -0.1732
 3796ntf    fn418052   2.998   6.646   6.956 -0.2919  0.0365  0.6053
 3796ntf    fn418053   3.119   6.489   7.017 -0.4767 -0.3480 -0.3555
 3796ntf    on518054   3.015   6.301   6.882 -0.3855 -0.5070  0.5283
 3796ntf    on518055   2.828   6.459   6.876  0.3084 -0.2857  0.1792
 3796ntf    on518056   3.007   6.405   6.430 -0.2098 -0.7207 -0.0780
 3796ntf    on518057   3.044   6.213   6.578 -0.6861 -0.2099  0.1767
 3796ntf    fn418058   3.228   6.534   6.585  0.3266 -0.2360  0.1481
 3796ntf    fn418059   3.285   6.344   6.668 -0.2464 -0.6442 -0.5395
 3796ntf    fn418060   3.298   6.362   6.471  0.0502  0.2566 -0.4219
 3797ntf    cn118061   1.395   3.691   6.353  0.1356 -0.1552 -0.1721
 3797ntf    sn218062   1.396   3.546   6.463  0.2532 -0.1024 -0.1040
 3797ntf    nn318063   1.248   3.548   6.514  0.0492 -0.7769 -0.6579
 3797ntf    sn218064   1.152   3.425   6.535 -0.4128 -0.3047  0.0636
 3797ntf    cn118065   0.991   3.507   6.553 -0.2728  0.0195 -0.1585
 3797ntf    fn418066   1.392   3.806   6.419  0.5731 -0.6336  0.7016
 3797ntf    fn418067   1.505   3.698   6.280  0.2559 -0.5400 -0.0303
 3797ntf    fn418068   1.298   3.696   6.263  0.5175 -0.4065 -0.5978
 3797ntf    on518069   1.435   3.434   6.381 -0.4519 -0.3463 -0.1078
 3797ntf    on518070   1.496   3.585   6.560  0.1416 -0.2543  0.0727
 3797ntf    on518071   1.171   3.361   6.663 -0.1896  0.4224  0.4020
 3797ntf    on518072   1.141   3.334   6.423  0.0478  0.0720 -0.2957
 3797ntf    fn418073   0.970   3.544   6.678 -0.8166 -0.3073 -0.1523
 3797ntf    fn418074   0.992   3.626   6.494  0.2673  0.4019  0.6039
 3797ntf    fn418075   0.889   3.432   6.517 -0.1472 -0.3725  0.3025
 3798ntf    cn118076   4.294   2.628   1.540  0.0561 -0.1833 -0.2517
 3798ntf    sn218077   4.389   2.477   1.509  0.4141 -0.0292  0.0827
 3798ntf    nn318078   4.428   2.437   1.656  0.8799 -0.2839 -0.1055
 3798ntf    sn218079   4.554   2.461   1.746  0.5899 -0.1032  0.2596
 3798ntf    cn118080   4.636   2.303   1.707  0.1171 -0.2731 -0.0469
 3798ntf    fn418081   4.205   2.621   1.638  0.1129  0.2731 -0.1620
 3798ntf    fn418082   4.374   2.725   1.582  0.1646 -0.4221  0.0925
 3798ntf    fn418083   4.227   2.669   1.434  0.1923 -0.0801 -0.2975
 3798ntf    on518084   4.290   2.390   1.451 -0.4667  0.8062  0.3132
 3798ntf    on518085   4.491   2.526   1.419  0.2697 -0.1719 -0.1595
 3798ntf    on518086   4.525   2.443   1.886  0.1908  0.3995  0.2411
 3798ntf    on518087   4.647   2.559   1.696  0.1174 -0.2847 -1.0234
 3798ntf    fn418088   4.627   2.265   1.580  0.1548  0.1349 -0.1715
 3798ntf    fn418089   4.764   2.314   1.735  0.0920  0.4935 -0.2033
 3798ntf    fn418090   4.588   2.199   1.774 -0.0124  0.0842  0.4171
 3799ntf    cn118091   0.267   6.940   1.773 -0.3178  0.8032 -0.1455
 3799ntf    sn218092   0.171   6.950   1.926  0.0346  0.3519  0.1073
 3799ntf    nn318093   0.258   7.056   2.002  0.4276  0.2080 -0.1390
 3799ntf    sn218094   0.260   7.113   2.149  0.0178  0.0458 -0.0684
 3799ntf    cn118095   0.193   7.279   2.116 -0.1708  0.0816  0.4953
 3799ntf    fn418096   0.365   7.029   1.783  0.1248  0.3170 -0.1048
 3799ntf    fn418097   0.324   6.823   1.750 -0.3169  0.7967 -0.1071
 3799ntf    fn418098   0.198   6.966   1.663 -0.8108  0.0329 -0.0237
 3799ntf    on518099   0.040   7.003   1.894 -0.0823 -0.1979 -0.3377
 3799ntf    on518100   0.173   6.817   1.982  0.2539  0.8579  1.3400
 3799ntf    on518101   0.389   7.143   2.206 -0.2963  0.3173  0.5062
 3799ntf    on518102   0.163   7.050   2.235  0.0484  0.2572  0.1225
 3799ntf    fn418103   0.280   7.365   2.066 -0.3173 -0.1558 -0.1649
 3799ntf    fn418104   0.086   7.282   2.039 -0.2910  0.3208  0.6663
 3799ntf    fn418105   0.157   7.339   2.229  0.3755 -0.0247  0.7284
 3800ntf    cn118106   5.700   6.862   2.948 -0.2789 -0.1662  0.5443
 3800ntf    sn218107   5.824   6.866   2.816 -0.5994  0.2121  0.2548
 3800ntf    nn318108   5.924   6.957   2.896  0.1670 -0.4635  0.0778
 3800ntf    sn218109   5.943   7.112   2.908 -0.1754 -0.4073 -0.0784
 3800ntf    cn118110   6.123   7.111   2.938 -0.0553  0.3596 -0.7492
 3800ntf    fn418111   5.729   6.803   3.064  0.5455  0.8796  0.8828
 3800ntf    fn418112   5.655   6.982   2.980  1.0728  0.5940 -0.3104
 3800ntf    fn418113   5.599   6.792   2.899 -0.2641  0.2046 -0.0080
 3800ntf    on518114   5.866   6.729   2.805 -0.3461  0.3125 -0.0718
 3800ntf    on518115   5.754   6.929   2.707 -0.2687  0.2809  0.0799
 3800ntf    on518116   5.893   7.174   3.029  0.1237 -0.7427  0.2197
 3800ntf    on518117   5.939   7.185   2.784 -0.2342 -0.4608 -0.1080
 3800ntf    fn418118   6.173   7.228   2.974  0.4780 -0.0883 -0.0000
 3800ntf    fn418119   6.161   7.029   3.034  0.4205  0.9740 -0.4047
 3800ntf    fn418120   6.187   7.077   2.827  0.9339  0.0049 -0.0791
 3801ntf    cn118121   2.220   7.002   4.511 -0.2320  0.2076  0.1515
 3801ntf    sn218122   2.138   6.859   4.435 -0.1737  0.1157  0.2638
 3801ntf    nn318123   2.210   6.869   4.296 -0.4378 -0.0180  0.1162
 3801ntf    sn218124   2.146   6.818   4.161 -0.0163  0.3012 -0.2073
 3801ntf    cn118125   2.071   6.659   4.207  0.3561  0.1370 -0.1603
 3801ntf    fn418126   2.204   7.114   4.442  0.0935 -0.1170 -0.4611
 3801ntf    fn418127   2.169   7.039   4.628  0.4532  0.2177  0.4510
 3801ntf    fn418128   2.347   6.972   4.529 -0.3766 -0.3070  0.3256
 3801ntf    on518129   2.188   6.755   4.522 -1.0381 -0.5340  0.0079
 3801ntf    on518130   1.998   6.892   4.442 -0.2698 -0.4148  0.9387
 3801ntf    on518131   2.241   6.777   4.061 -0.5177  0.1087 -0.6028
 3801ntf    on518132   2.049   6.915   4.116 -0.3734  0.2559  0.4453
 3801ntf    fn418133   1.971   6.683   4.290  0.4217 -0.4196  0.0829
 3801ntf    fn418134   2.015   6.607   4.099 -0.0693 -0.2417  0.2375
 3801ntf    fn418135   2.160   6.577   4.260  0.3957  0.0374 -0.3787
 3802ntf    cn118136   6.082   1.685   7.080 -0.0936  0.2607  0.3284
 3802ntf    sn218137   6.157   1.701   6.916 -0.3924  0.0096  0.1658
 3802ntf    nn318138   6.133   1.560   6.852  0.4873  0.1829 -0.5701
 3802ntf    sn218139   6.019   1.518   6.753 -0.0428 -0.0071  0.1191
 3802ntf    cn118140   6.102   1.547   6.594  0.7695 -0.0697  0.5314
 3802ntf    fn418141   5.968   1.619   7.073 -0.0117  0.1870 -0.3530
 3802ntf    fn418142   6.153   1.623   7.172 -0.1507 -0.3705 -0.0526
 3802ntf    fn418143   6.049   1.803   7.131  0.1202  0.6531 -0.4380
 3802ntf    on518144   6.070   1.805   6.865 -0.3522  0.0835  0.2483
 3802ntf    on518145   6.293   1.745   6.939 -0.1691 -0.3288 -0.4717
 3802ntf    on518146   5.900   1.598   6.739  0.0011  0.0643  0.1591
 3802ntf    on518147   5.998   1.375   6.754 -0.2889  0.0217 -0.4947
 3802ntf    fn418148   6.026   1.521   6.490 -0.0057  0.3774  0.9811
 3802ntf    fn418149   6.146   1.670   6.578 -0.0538  0.1933  0.2562
 3802ntf    fn418150   6.213   1.475   6.587  0.6197 -0.2151 -0.5515
 3803ntf    cn118151   1.251   1.283   1.334  0.1463  0.4286 -0.0406
 3803ntf    sn218152   1.388   1.165   1.355 -0.0321  0.1858 -0.2362
 3803ntf    nn318153   1.512   1.260   1.347  0.2111 -0.0682  0.3596
 3803ntf    sn218154   1.612   1.293   1.230 -0.1321 -0.0693  0.0629
 3803ntf    cn118155   1.771   1.320   1.313  0.0327 -0.0376 -0.2615
 3803ntf    fn418156   1.132   1.230   1.313  0.1082  0.3723  0.3108
 3803ntf    fn418157   1.240   1.358   1.442  0.0383  0.0713  0.2003
 3803ntf    fn418158   1.276   1.365   1.234 -0.6776  0.0692 -0.5473
 3803ntf    on518159   1.368   1.113   1.489  0.2724 -0.0557 -0.2843
 3803ntf    on518160   1.361   1.076   1.245  0.4243  0.1659 -0.3320
 3803ntf    on518161   1.587   1.419   1.164 -0.6851 -0.1636  0.0883
 3803ntf    on518162   1.650   1.183   1.146  0.0162 -0.1359  0.2163
 3803ntf    fn418163   1.758   1.415   1.404  0.4879  0.1496 -0.3902
 3803ntf    fn418164   1.805   1.213   1.384 -0.0470  0.2680  0.2371
 3803ntf    fn418165   1.874   1.352   1.237 -0.0418 -0.7421 -0.6713
 3804ntf    cn118166   6.440   6.451   3.803 -0.2832  0.3844  0.0940
 3804ntf    sn218167   6.621   6.448   3.797 -0.2849 -0.3446  0.3306
 3804ntf    nn318168   6.657   6.589   3.739  0.4252 -0.3976  0.6325
 3804ntf    sn218169   6.693   6.722   3.814  0.1450  0.0115  0.0427
 3804ntf    cn118170   6.614   6.855   3.719  0.3137  0.3784  0.4135
 3804ntf    fn418171   6.404   6.554   3.878  0.3926  0.4132  0.3788
 3804ntf    fn418172   6.392   6.461   3.680 -0.1009 -0.3251 -0.0391
 3804ntf    fn418173   6.384   6.344   3.858  0.6838 -0.2917 -0.2179
 3804ntf    on518174   6.664   6.423   3.933  0.0219  0.1805  0.3321
 3804ntf    on518175   6.653   6.345   3.702  0.7185  0.7909 -0.5902
 3804ntf    on518176   6.832   6.762   3.807 -0.1415  1.1117  0.3646
 3804ntf    on518177   6.634   6.741   3.944 -0.1163  0.9522 -0.2044
 3804ntf    fn418178   6.677   6.868   3.603 -0.2065 -0.0643  0.0789
 3804ntf    fn418179   6.488   6.827   3.688  0.6347 -0.1078 -0.5001
 3804ntf    fn418180   6.620   6.976   3.773 -0.3955  0.3950  0.4596
 3805ntf    cn118181   2.936   1.915   5.110 -0.1426 -0.2608 -0.1162
 3805ntf    sn218182   2.883   2.069   5.029 -0.2266 -0.1744  0.1027
 3805ntf    nn318183   2.730   2.072   5.062 -0.2466 -0.2327  0.0164
 3805ntf    sn218184   2.668   2.144   5.188  0.1917  0.1426  0.0195
 3805ntf    cn118185   2.554   2.250   5.094  0.2497  0.4453  0.2890
 3805ntf    fn418186   3.059   1.876   5.081  0.2615  0.6523  0.3549
 3805ntf    fn418187   2.936   1.919   5.242  0.4452  0.2767 -0.1282
 3805ntf    fn418188   2.857   1.816   5.070  0.3564 -0.5951 -0.2812
 3805ntf    on518189   2.967   2.164   5.098 -0.1881 -0.1469  0.0178
 3805ntf    on518190   2.905   2.053   4.887 -0.2187  0.0951  0.0739
 3805ntf    on518191   2.751   2.234   5.264  0.5523 -0.2264  0.0665
 3805ntf    on518192   2.583   2.054   5.262  0.3146 -0.4626 -0.5618
 3805ntf    fn418193   2.484   2.340   5.160 -0.1457  0.1922  0.2219
 3805ntf    fn418194   2.619   2.311   4.996  0.0893  0.2001  0.0297
 3805ntf    fn418195   2.454   2.181   5.041 -0.0727  0.6767  0.5917
 3806ntf    cn118196   0.739   1.408   4.694  0.0796 -0.0699 -0.1585
 3806ntf    sn218197   0.748   1.516   4.548  0.0005 -0.1519 -0.2241
 3806ntf    nn318198   0.605   1.507   4.484 -0.2989 -0.4102  0.4675
 3806ntf    sn218199   0.486   1.607   4.461 -0.1384 -0.3670 -0.2238
 3806ntf    cn118200   0.534   1.679   4.301  0.5824 -0.0849  0.1144
 3806ntf    fn418201   0.850   1.418   4.766 -0.2754 -0.2673  0.4163
 3806ntf    fn418202   0.640   1.441   4.774  0.0407  0.4614 -0.4175
 3806ntf    fn418203   0.716   1.282   4.659  0.3503 -0.0562 -0.3922
 3806ntf    on518204   0.778   1.645   4.606 -0.1987 -0.0796 -0.2774
 3806ntf    on518205   0.847   1.453   4.464 -0.5578  0.1986 -1.1695
 3806ntf    on518206   0.477   1.718   4.553 -0.6090 -0.4611 -0.1517
 3806ntf    on518207   0.356   1.548   4.439 -0.4681  0.1718  0.2238
 3806ntf    fn418208   0.583   1.588   4.218  0.1265 -0.4610  0.2523
 3806ntf    fn418209   0.432   1.745   4.250  0.0621 -0.2076  0.9691
 3806ntf    fn418210   0.626   1.773   4.312  0.2690  0.2349  0.0054
 3807ntf    cn118211   4.583   0.611   4.740  0.1333  0.0549 -0.0363
 3807ntf    sn218212   4.409   0.595   4.793  0.1380  0.3073  0.0603
 3807ntf    nn318213   4.405   0.709   4.900 -0.3916  0.3456  0.0007
 3807ntf    sn218214   4.424   0.698   5.055  0.1870 -0.2905 -0.1107
 3807ntf    cn118215   4.320   0.832   5.121  0.3484 -0.0397 -0.3629
 3807ntf    fn418216   4.608   0.727   4.683  0.7852 -0.2602 -0.4015
 3807ntf    fn418217   4.667   0.579   4.837 -0.2808 -0.1941  0.2410
 3807ntf    fn418218   4.607   0.519   4.648  0.0801  0.2549 -0.2506
 3807ntf    on518219   4.342   0.624   4.669 -0.2069 -0.5598  0.0366
 3807ntf    on518220   4.402   0.459   4.842  0.2020  0.3523  0.1934
 3807ntf    on518221   4.555   0.747   5.091  0.0107 -0.0130  0.1599
 3807ntf    on518222   4.371   0.584   5.125 -0.1464 -0.2532 -0.3023
 3807ntf    fn418223   4.350   0.945   5.059 -0.0570  0.2294 -0.0722
 3807ntf    fn418224   4.191   0.811   5.104  0.2138  0.0995  0.4673
 3807ntf    fn418225   4.337   0.850   5.251 -0.3424  0.2487 -0.3115
 3808ntf    cn118226   2.087   2.429   5.636 -0.3161  0.0356  0.5985
 3808ntf    sn218227   2.257   2.448   5.698 -0.0979 -0.0682  0.0340
 3808ntf    nn318228   2.308   2.571   5.615  0.6378 -0.5065 -0.1703
 3808ntf    sn218229   2.378   2.703   5.665 -0.4856  0.0528 -0.0320
 3808ntf    cn118230   2.553   2.652   5.667 -0.3302  0.5651 -0.4524
 3808ntf    fn418231   2.026   2.545   5.615  0.2494  0.1248 -0.6193
 3808ntf    fn418232   2.080   2.366   5.520 -0.3414  0.0055  0.6162
 3808ntf    fn418233   2.008   2.371   5.725 -0.7365  0.0817  0.2564
 3808ntf    on518234   2.234   2.475   5.838 -0.0852 -0.4460  0.1089
 3808ntf    on518235   2.329   2.328   5.662  0.0583 -0.2119  0.8175
 3808ntf    on518236   2.356   2.747   5.800  0.4350  0.4635 -0.0105
 3808ntf    on518237   2.367   2.811   5.570 -0.4046  0.5374  0.5051
 3808ntf    fn418238   2.628   2.748   5.718  0.1563  0.3190 -0.7012
 3808ntf    fn418239   2.557   2.546   5.745  0.0220  0.8298 -0.1015
 3808ntf    fn418240   2.615   2.619   5.555 -0.0578 -0.1337 -0.0954
 3809ntf    cn118241   6.809   6.899   5.810  0.4343 -0.6269 -0.5056
 3809ntf    sn218242   6.762   6.748   5.898  0.0188 -0.2290 -0.0408
 3809ntf    nn318243   6.688   6.687   5.774  0.5018  0.1414 -0.5154
 3809ntf    sn218244   6.569   6.584   5.762  0.4719  0.0933  0.1867
 3809ntf    cn118245   6.646   6.440   5.683  0.0943  0.1001 -0.1980
 3809ntf    fn418246   6.708   6.975   5.772  0.6047 -0.1072  0.0686
 3809ntf    fn418247   6.893   6.961   5.892 -0.1262 -0.2500 -0.2145
 3809ntf    fn418248   6.880   6.874   5.701  0.3646  0.2973 -0.7711
 3809ntf    on518249   6.890   6.686   5.918 -0.1248 -0.6984 -0.5479
 3809ntf    on518250   6.681   6.781   6.013 -0.2964  0.1075 -0.3572
 3809ntf    on518251   6.468   6.615   5.665  1.0474  0.6907 -0.2316
 3809ntf    on518252   6.520   6.526   5.885  0.2719  0.0188  0.0710
 3809ntf    fn418253   6.568   6.348   5.629  0.7607 -0.4712 -0.2103
 3809ntf    fn418254   6.730   6.478   5.588  0.2483 -0.5205 -0.3137
 3809ntf    fn418255   6.713   6.375   5.777 -0.9203 -0.6723  0.0064
 3810ntf    cn118256   0.430   6.667   2.588  0.1840 -0.3483 -0.1869
 3810ntf    sn218257   0.448   6.526   2.702 -0.0296  0.0237  0.3107
 3810ntf    nn318258   0.301   6.497   2.747 -0.0068 -0.2536  0.2071
 3810ntf    sn218259   0.192   6.406   2.680 -0.2812  0.2521 -0.0323
 3810ntf    cn118260   0.204   6.250   2.771  0.0656  0.0759 -0.3795
 3810ntf    fn418261   0.376   6.775   2.643  0.2533 -0.2827 -0.2485
 3810ntf    fn418262   0.536   6.707   2.521  0.1550  0.4689  0.2426
 3810ntf    fn418263   0.340   6.633   2.497 -0.0132 -0.4667  0.0511
 3810ntf    on518264   0.524   6.426   2.632 -0.3836  0.2169 -0.3556
 3810ntf    on518265   0.513   6.580   2.819  0.3139  0.5449 -0.1161
 3810ntf    on518266   0.210   6.366   2.543 -0.1087  0.1041  0.0342
 3810ntf    on518267   0.057   6.451   2.708 -0.5012 -0.4585  0.0668
 3810ntf    fn418268   0.325   6.195   2.770  0.1053  0.1636 -0.3666
 3810ntf    fn418269   0.168   6.268   2.897 -0.5171  0.2220 -0.5659
 3810ntf    fn418270   0.127   6.154   2.722 -0.1165 -0.3067  0.6256
 3811ntf    cn118271   7.057   0.531   6.040  0.3244  0.2391  0.0843
 3811ntf    sn218272   7.114   0.425   6.177 -0.2358 -0.3880 -0.1669
 3811ntf    nn318273   7.254   0.379   6.124 -0.0255  0.7622 -0.6347
 3811ntf    sn218274   7.397   0.441   6.148  0.1809  0.1973 -0.3890
 3811ntf    cn118275   7.460   0.449   5.978  0.0273 -0.2094 -0.4674
 3811ntf    fn418276   7.089   0.490   5.919  0.0667 -0.2519  0.1813
 3811ntf    fn418277   6.925   0.544   6.041  0.2235 -0.6285 -0.8893
 3811ntf    fn418278   7.099   0.656   6.054 -0.1213  0.4482 -0.4055
 3811ntf    on518279   7.111   0.504   6.297 -0.3738  0.2222 -0.5634
 3811ntf    on518280   7.021   0.314   6.178 -0.3448 -0.2921  0.2594
 3811ntf    on518281   7.488   0.347   6.207 -0.0710 -0.2870 -0.7652
 3811ntf    on518282   7.388   0.573   6.205  0.3832  0.2392 -0.4553
 3811ntf    fn418283   7.376   0.507   5.894 -0.2747 -0.1505 -0.1283
 3811ntf    fn418284   7.575   0.512   5.960 -0.2030  0.3151 -0.1396
 3811ntf    fn418285   7.481   0.328   5.930 -0.5367 -0.5468  0.1255
 3812ntf    cn118286   3.065   1.978   2.622 -0.0558  0.1354  0.2969
 3812ntf    sn218287   3.023   2.037   2.455 -0.1015  0.0768  0.2875
 3812ntf    nn318288   3.092   2.179   2.451  0.1923 -0.0607  0.4691
 3812ntf    sn218289   3.033   2.324   2.458  0.3074 -0.0014  0.2006
 3812ntf    cn118290   3.107   2.374   2.616  0.1138  0.3718  0.1740
 3812ntf    fn418291   3.186   2.015   2.659  0.0138  0.2632 -0.0551
 3812ntf    fn418292   2.974   2.011   2.713 -0.2693 -0.8181  0.4373
 3812ntf    fn418293   3.062   1.846   2.617 -0.9423  0.1578  0.1119
 3812ntf    on518294   3.104   1.961   2.364 -0.0312  0.5308 -0.0364
 3812ntf    on518295   2.880   2.024   2.452 -0.0804 -0.1113  0.0743
 3812ntf    on518296   2.891   2.328   2.483  0.3470 -0.1658  0.4549
 3812ntf    on518297   3.090   2.419   2.366  0.4382  0.0711  0.3575
 3812ntf    fn418298   3.077   2.492   2.668  0.3961  0.6839 -0.3680
 3812ntf    fn418299   3.083   2.283   2.709  0.7074  0.2247  0.1892
 3812ntf    fn418300   3.238   2.381   2.599  0.0502 -0.1597 -0.5638
 3813ntf    cn118301   5.520   3.211   0.361  0.1824 -0.1933 -0.3825
 3813ntf    sn218302   5.445   3.373   0.327 -0.0543 -0.2249 -0.0198
 3813ntf    nn318303   5.483   3.391   0.176 -0.3986  0.0172 -0.0779
 3813ntf    sn218304   5.614   3.455   0.116 -0.1818  0.1724  0.5528
 3813ntf    cn118305   5.558   3.628   0.115 -0.3788  0.1107 -0.4473
 3813ntf    fn418306   5.471   3.112   0.288 -0.2197 -0.5091  0.3039
 3813ntf    fn418307   5.651   3.204   0.343  0.2853  0.0302  0.2573
 3813ntf    fn418308   5.505   3.169   0.486  0.2625  0.3022 -0.2048
 3813ntf    on518309   5.305   3.349   0.346  0.0668 -0.3808  0.6904
 3813ntf    on518310   5.508   3.457   0.426 -0.3855 -0.3148  0.2652
 3813ntf    on518311   5.636   3.424  -0.023 -1.0027  0.6011  0.3220
 3813ntf    on518312   5.723   3.451   0.211  0.3399  0.2031 -0.0383
 3813ntf    fn418313   5.451   3.642   0.039 -0.1767  0.2131 -0.7126
 3813ntf    fn418314   5.518   3.670   0.234  0.5015 -0.1607 -0.0386
 3813ntf    fn418315   5.650   3.715   0.076 -0.2098  0.2568  0.2643
 3814ntf    cn118316   5.203   3.501   3.705 -0.5309 -0.2120 -0.1472
 3814ntf    sn218317   5.250   3.589   3.856 -0.3368 -0.0745 -0.2880
 3814ntf    nn318318   5.341   3.709   3.811 -0.2259  0.1259  0.4508
 3814ntf    sn218319   5.305   3.824   3.710  0.2420 -0.2441 -0.1499
 3814ntf    cn118320   5.329   3.969   3.817  0.3940 -0.3610 -0.0236
 3814ntf    fn418321   5.303   3.484   3.619 -0.4772  0.1994 -0.1661
 3814ntf    fn418322   5.162   3.376   3.718 -0.7570 -0.1288 -0.0622
 3814ntf    fn418323   5.110   3.560   3.631 -0.2187  0.7659  0.2277
 3814ntf    on518324   5.127   3.640   3.912 -0.0853  0.6922 -0.4151
 3814ntf    on518325   5.321   3.488   3.930  0.4026  0.7025  0.0858
 3814ntf    on518326   5.168   3.839   3.668  0.4164  0.6546 -0.4143
 3814ntf    on518327   5.408   3.838   3.611  0.0072 -0.2061 -0.3882
 3814ntf    fn418328   5.313   4.083   3.752  1.1778  0.1166  0.5905
 3814ntf    fn418329   5.246   3.969   3.920  0.3192 -0.1099 -0.0813
 3814ntf    fn418330   5.448   3.966   3.874  0.3811  0.9019  0.1164
 3815ntf    cn118331   4.053   4.373   5.471 -0.0221  0.3262 -0.1613
 3815ntf    sn218332   4.049   4.293   5.308  0.0304  0.2589 -0.1293
 3815ntf    nn318333   4.013   4.151   5.363  0.2378 -0.0163 -0.6906
 3815ntf    sn218334   3.877   4.074   5.346  0.0592  0.2350 -0.4069
 3815ntf    cn118335   3.881   4.019   5.173  0.5683 -0.1717 -0.2673
 3815ntf    fn418336   3.938   4.356   5.535  0.0569  0.4027 -0.0001
 3815ntf    fn418337   4.142   4.319   5.552  0.0906  0.3360 -0.2779
 3815ntf    fn418338   4.091   4.500   5.468  0.1702  0.2825  0.3206
 3815ntf    on518339   3.945   4.372   5.247  0.5470  0.7530 -0.3839
 3815ntf    on518340   4.186   4.294   5.261 -0.2100  0.1665 -0.8365
 3815ntf    on518341   3.760   4.159   5.341 -0.3798 -0.3474 -0.2081
 3815ntf    on518342   3.879   3.946   5.412  0.2767  0.1566 -0.5637
 3815ntf    fn418343   3.883   4.124   5.092 -0.2924 -0.1093 -0.2168
 3815ntf    fn418344   3.978   3.935   5.141  0.2447 -0.3506 -0.7980
 3815ntf    fn418345   3.774   3.946   5.144  0.3026  0.2394 -0.3312
 3816ntf    cn118346   1.146   2.246   0.131  0.3534  0.2277  0.4455
 3816ntf    sn218347   1.324   2.207   0.137  0.3313  0.0843  0.1677
 3816ntf    nn318348   1.369   2.286   0.009 -0.2745 -0.0893 -0.1572
 3816ntf    sn218349   1.513   2.338  -0.027 -0.2394 -0.1143 -0.0522
 3816ntf    cn118350   1.507   2.517   0.007  0.4052 -0.0792 -0.1082
 3816ntf    fn418351   1.088   2.193   0.025  0.2555 -0.1020  0.6634
 3816ntf    fn418352   1.073   2.203   0.233  0.1111  0.7553  0.4964
 3816ntf    fn418353   1.139   2.378   0.124 -0.0639  0.1795 -0.1263
 3816ntf    on518354   1.369   2.265   0.260 -0.0226  0.4729  0.1174
 3816ntf    on518355   1.331   2.064   0.125  0.2050  0.1016 -0.1287
 3816ntf    on518356   1.538   2.335  -0.169 -0.0228 -0.0321 -0.0153
 3816ntf    on518357   1.618   2.300   0.063  0.1300 -0.6329 -0.6997
 3816ntf    fn418358   1.461   2.548   0.127 -0.2720  0.2064 -0.4340
 3816ntf    fn418359   1.625   2.574  -0.003  0.2810  0.2121  0.0704
 3816ntf    fn418360   1.433   2.586  -0.078 -0.1769  0.3000  0.6951
 3817ntf    cn118361   3.535   1.898   6.912  0.4993  0.0142  0.2644
 3817ntf    sn218362   3.651   1.760   6.933  0.3761 -0.2054 -0.4737
 3817ntf    nn318363   3.773   1.821   7.011  0.6075 -0.1843 -0.8500
 3817ntf    sn218364   3.842   1.771   7.143 -0.2089  0.0324 -0.3304
 3817ntf    cn118365   3.814   1.908   7.259 -0.1313 -0.2302 -0.0008
 3817ntf    fn418366   3.418   1.862   6.863  0.7302 -0.0535 -0.2353
 3817ntf    fn418367   3.510   1.967   7.022  0.1653  0.8214 -0.3066
 3817ntf    fn418368   3.580   1.989   6.827 -0.2985  0.1641 -0.0047
 3817ntf    on518369   3.563   1.667   7.000 -0.2717  0.2268 -0.7139
 3817ntf    on518370   3.702   1.723   6.804  0.0523 -0.3413 -0.5629
 3817ntf    on518371   3.986   1.763   7.134 -0.1580  0.0477  0.4358
 3817ntf    on518372   3.775   1.668   7.218 -0.0398 -0.0445 -0.2850
 3817ntf    fn418373   3.690   1.951   7.275  0.0603  0.1881  0.3736
 3817ntf    fn418374   3.862   1.882   7.380  0.2237  0.0517 -0.0777
 3817ntf    fn418375   3.876   2.017   7.216 -0.0761 -0.1664  0.2404
 3818ntf    cn118376   3.300   0.538   2.672 -0.0932 -0.7266 -0.4410
 3818ntf    sn218377   3.452   0.490   2.584  0.3279 -0.0558 -0.0931
 3818ntf    nn318378   3.566   0.500   2.691 -0.2063  0.1094  0.4659
 3818ntf    sn218379   3.662   0.619   2.729  0.3162 -0.2199  0.1820
 3818ntf    cn118380   3.612   0.649   2.901 -0.1837 -0.3171  0.0547
 3818ntf    fn418381   3.304   0.653   2.739 -0.2245 -0.8237 -0.2667
 3818ntf    fn418382   3.194   0.556   2.596 -0.4224 -0.0224  0.1731
 3818ntf    fn418383   3.280   0.440   2.757 -0.4561 -0.1502  0.1468
 3818ntf    on518384   3.428   0.352   2.550  0.8283 -0.0470 -0.4963
 3818ntf    on518385   3.454   0.581   2.472 -0.1560 -0.0890 -0.1309
 3818ntf    on518386   3.631   0.746   2.667  0.3733 -0.2966 -0.0036
 3818ntf    on518387   3.801   0.588   2.752  0.2628 -0.1224  0.6364
 3818ntf    fn418388   3.493   0.707   2.907 -0.1743 -0.2882 -0.0422
 3818ntf    fn418389   3.593   0.539   2.972 -0.3318 -0.3253  0.0045
 3818ntf    fn418390   3.696   0.722   2.972 -0.4825  0.6105 -0.5284
 3819ntf    cn118391   1.132   3.509   5.759  0.0688  0.0498  0.4311
 3819ntf    sn218392   1.216   3.544   5.601  0.2580  0.3112  0.5898
 3819ntf    nn318393   1.176   3.686   5.550  0.2435 -0.0206 -0.3440
 3819ntf    sn218394   1.254   3.823   5.552  0.0563  0.0878 -0.4140
 3819ntf    cn118395   1.115   3.941   5.559 -0.3895 -0.4661  0.3629
 3819ntf    fn418396   1.002   3.518   5.733  0.1006  0.2403  0.3429
 3819ntf    fn418397   1.137   3.382   5.798  0.5107 -0.1432 -0.2266
 3819ntf    fn418398   1.171   3.596   5.850  0.1020 -0.4395  0.8906
 3819ntf    on518399   1.357   3.532   5.632  0.2799  0.3478  0.5026
 3819ntf    on518400   1.157   3.444   5.515  0.6009  0.2430  0.4303
 3819ntf    on518401   1.313   3.859   5.426 -0.4497  0.1921 -0.6242
 3819ntf    on518402   1.323   3.847   5.676 -0.0098  0.5568 -0.4675
 3819ntf    fn418403   1.046   3.945   5.446  0.3209 -0.0232 -0.0614
 3819ntf    fn418404   1.025   3.919   5.653 -0.1258 -0.2045  0.6769
 3819ntf    fn418405   1.157   4.065   5.575  0.1722 -0.5307 -0.5144
 3820ntf    cn118406   2.689   0.085   3.797  0.2713  0.4856 -0.4219
 3820ntf    sn218407   2.676   0.015   3.630 -0.0014 -0.3827 -0.0418
 3820ntf    nn318408   2.793  -0.089   3.624  0.0234 -0.3693  0.2039
 3820ntf    sn218409   2.904  -0.114   3.516  0.0040  0.1851  0.0513
 3820ntf    cn118410   3.011  -0.221   3.616 -0.4964  0.1711  0.5775
 3820ntf    fn418411   2.698  -0.013   3.886 -0.2338  0.1320 -0.7576
 3820ntf    fn418412   2.782   0.171   3.835 -0.1826  0.8529 -0.1235
 3820ntf    fn418413   2.577   0.154   3.817  0.1211  0.1029  0.0888
 3820ntf    on518414   2.544  -0.044   3.628 -0.2333  0.1249 -0.0460
 3820ntf    on518415   2.702   0.121   3.537 -0.1836 -0.3335 -0.0376
 3820ntf    on518416   2.993  -0.006   3.485 -0.2618  0.5081  0.4068
 3820ntf    on518417   2.866  -0.202   3.408 -0.1075 -0.0853  0.3077
 3820ntf    fn418418   2.937  -0.309   3.682 -0.0470 -0.8870 -0.2894
 3820ntf    fn418419   3.090  -0.308   3.553  0.0878  0.8718  0.3309
 3820ntf    fn418420   3.081  -0.169   3.716  0.5089 -0.2122  0.0909
 3821ntf    cn118421   3.334   6.367   1.937  0.7414  0.4552  0.1604
 3821ntf    sn218422   3.383   6.327   2.107  0.3693 -0.2957  0.0931
 3821ntf    nn318423   3.517   6.408   2.109  0.2911 -0.1654  0.0923
 3821ntf    sn218424   3.567   6.517   2.210  0.0059 -0.0113  0.0676
 3821ntf    cn118425   3.530   6.667   2.115 -0.0367  0.1902  0.4011
 3821ntf    fn418426   3.210   6.334   1.902  0.8201 -0.0692  0.3723
 3821ntf    fn418427   3.343   6.499   1.926 -0.5241  0.6009  0.6408
 3821ntf    fn418428   3.405   6.307   1.843  0.4854  0.1949  0.1319
 3821ntf    on518429   3.270   6.383   2.178 -0.2920 -0.5377 -0.7528
 3821ntf    on518430   3.405   6.184   2.107  0.0390 -0.3530 -0.9656
 3821ntf    on518431   3.709   6.520   2.233  0.0661  0.3418 -0.3340
 3821ntf    on518432   3.479   6.542   2.321  0.0836  0.0660  0.1116
 3821ntf    fn418433   3.579   6.655   1.992 -0.2979 -0.4231  0.3545
 3821ntf    fn418434   3.401   6.687   2.094 -0.1323 -0.2807  0.5314
 3821ntf    fn418435   3.572   6.780   2.171  0.8919  0.0427  0.0221
 3822ntf    cn118436   2.810   5.936   2.708 -0.1211  0.1364  0.2118
 3822ntf    sn218437   2.654   6.020   2.667 -0.1910 -0.0357  0.1233
 3822ntf    nn318438   2.677   6.032   2.512  0.3478  0.1582  0.2149
 3822ntf    sn218439   2.655   5.925   2.399  0.2215 -0.0225  0.4110
 3822ntf    cn118440   2.506   6.004   2.331  0.1679 -0.1563  0.3735
 3822ntf    fn418441   2.910   6.009   2.661 -0.2181  0.1275 -0.0091
 3822ntf    fn418442   2.841   5.928   2.837 -0.3567 -0.2102  0.2480
 3822ntf    fn418443   2.829   5.820   2.648 -0.1139  0.0884  0.3056
 3822ntf    on518444   2.553   5.924   2.704 -0.5488  0.3845  0.2399
 3822ntf    on518445   2.655   6.140   2.747  0.9370  0.1268 -0.1078
 3822ntf    on518446   2.603   5.798   2.443 -0.2842  0.1685  0.3817
 3822ntf    on518447   2.736   5.922   2.280  0.6441 -0.1693  0.7026
 3822ntf    fn418448   2.441   5.923   2.249 -0.0394  0.1894  0.1912
 3822ntf    fn418449   2.424   6.026   2.432 -0.3634  0.0657 -0.0960
 3822ntf    fn418450   2.540   6.112   2.261 -0.0720  0.1123  0.6702
 3823ntf    cn118451   3.874   0.549   1.600 -0.2114  0.8148  0.4349
 3823ntf    sn218452   3.715   0.576   1.685 -0.5218 -0.4033  0.2523
 3823ntf    nn318453   3.642   0.437   1.680 -0.2153 -0.5505 -0.2492
 3823ntf    sn218454   3.496   0.410   1.732 -0.2340  0.0306  0.0111
 3823ntf    cn118455   3.403   0.404   1.576 -0.6230  0.0976  0.2395
 3823ntf    fn418456   3.851   0.534   1.471 -0.7037 -0.2014  0.6342
 3823ntf    fn418457   3.968   0.641   1.614  0.0048  0.6080  0.3443
 3823ntf    fn418458   3.930   0.439   1.647 -0.4618  0.5829  0.1882
 3823ntf    on518459   3.763   0.598   1.819  0.3891 -0.3116 -0.0766
 3823ntf    on518460   3.656   0.687   1.614  0.4761 -0.1979 -0.2750
 3823ntf    on518461   3.434   0.522   1.798  0.6889 -0.0677  1.0732
 3823ntf    on518462   3.473   0.276   1.782 -0.1092  0.1490  0.3930
 3823ntf    fn418463   3.275   0.418   1.605 -0.7035 -0.2673  0.0590
 3823ntf    fn418464   3.439   0.491   1.482  0.3086 -0.0604  0.4349
 3823ntf    fn418465   3.415   0.285   1.521  0.3914  0.3180 -0.0475
 3824ntf    cn118466   5.518   3.743   1.052 -0.0318  0.3084 -0.1637
 3824ntf    sn218467   5.519   3.758   0.870  0.0518 -0.1904 -0.2060
 3824ntf    nn318468   5.416   3.874   0.848  0.2237 -0.0677 -0.3633
 3824ntf    sn218469   5.270   3.872   0.788 -0.0244  0.3905  0.2110
 3824ntf    cn118470   5.326   3.911   0.619 -0.0777  0.0433  0.1132
 3824ntf    fn418471   5.401   3.705   1.100  0.1244 -0.2509 -0.2203
 3824ntf    fn418472   5.601   3.650   1.096 -0.2992  0.1992  0.1108
 3824ntf    fn418473   5.562   3.855   1.107  0.5331 -0.1619  0.3403
 3824ntf    on518474   5.655   3.790   0.837  0.2125 -0.1027  0.5080
 3824ntf    on518475   5.481   3.624   0.833  0.4408 -0.3634  0.0082
 3824ntf    on518476   5.201   3.992   0.828 -0.6952  0.2482 -0.4929
 3824ntf    on518477   5.208   3.742   0.790 -0.5269  0.6258 -0.1791
 3824ntf    fn418478   5.419   3.828   0.575 -0.2501 -0.1305  0.0713
 3824ntf    fn418479   5.235   3.916   0.523  0.2433  0.0082 -0.1939
 3824ntf    fn418480   5.387   4.028   0.622 -0.1834  0.0950  0.3170
 3825ntf    cn118481   1.286   0.753   6.264  0.1933  0.7166  0.1436
 3825ntf    sn218482   1.323   0.760   6.442 -0.0819 -0.1060  0.2393
 3825ntf    nn318483   1.249   0.895   6.474  0.3879  0.1552  0.2275
 3825ntf    sn218484   1.298   1.026   6.546 -0.3615  0.4210  0.2608
 3825ntf    cn118485   1.241   1.167   6.447 -0.2200  0.1867 -0.1570
 3825ntf    fn418486   1.357   0.846   6.202  0.4996  0.5343  0.2159
 3825ntf    fn418487   1.322   0.637   6.212  0.3375  0.5321  0.6453
 3825ntf    fn418488   1.159   0.776   6.238  0.0917 -0.0456 -0.0574
 3825ntf    on518489   1.256   0.645   6.497 -0.1738 -0.0681  0.2067
 3825ntf    on518490   1.467   0.757   6.443 -0.0785 -0.1906 -0.2758
 3825ntf    on518491   1.441   1.042   6.553 -0.2404 -0.2175 -0.6124
 3825ntf    on518492   1.228   1.045   6.671 -0.0396 -0.3142  0.5634
 3825ntf    fn418493   1.269   1.281   6.508  0.2418 -0.0138  0.0152
 3825ntf    fn418494   1.287   1.178   6.323  0.3717 -0.3770  0.0097
 3825ntf    fn418495   1.109   1.160   6.437 -0.2216  0.0874 -0.0659
 3826ntf    cn118496   7.036   5.612   0.125 -0.3516 -0.3261 -0.5290
 3826ntf    sn218497   7.176   5.650   0.015 -0.1951  0.0334 -0.2097
 3826ntf    nn318498   7.110   5.740  -0.095 -0.3775 -0.2956 -0.3706
 3826ntf    sn218499   7.147   5.886  -0.139  0.0491 -0.3369 -0.1605
 3826ntf    cn118500   7.206   5.867  -0.310 -0.3908  0.0407 -0.3550
 3826ntf    fn418501   7.071   5.533   0.224 -0.1868  0.1528 -0.1984
 3826ntf    fn418502   6.982   5.720   0.179 -0.2308 -0.3846 -0.2882
 3826ntf    fn418503   6.937   5.563   0.053 -1.2473 -0.0554  0.5062
 3826ntf    on518504   7.265   5.717   0.107 -0.1051 -0.1894 -0.1317
 3826ntf    on518505   7.224   5.526  -0.042  0.4069  0.3161 -0.3241
 3826ntf    on518506   7.250   5.961  -0.072 -0.0750  0.1974 -0.5549
 3826ntf    on518507   7.029   5.965  -0.166  0.3380  0.2545  0.2918
 3826ntf    fn418508   7.337   5.855  -0.305 -0.3939  0.2218  0.1527
 3826ntf    fn418509   7.165   5.757  -0.371 -0.6001 -0.6262  0.9645
 3826ntf    fn418510   7.181   5.967  -0.394  0.2567  0.7779  0.3142
 3827ntf    cn118511   5.312   0.823   7.190 -0.4883  0.0059 -0.2022
 3827ntf    sn218512   5.431   0.954   7.233 -0.1698 -0.4432  0.2906
 3827ntf    nn318513   5.414   0.945   7.388 -0.4135 -0.3865  0.2668
 3827ntf    sn218514   5.342   1.045   7.486 -0.1665 -0.5068  0.5728
 3827ntf    cn118515   5.485   1.155   7.510 -0.2943 -0.2761  0.2788
 3827ntf    fn418516   5.300   0.730   7.283  0.9042 -0.3501 -0.3676
 3827ntf    fn418517   5.192   0.876   7.172 -1.1321 -1.0123  0.9404
 3827ntf    fn418518   5.337   0.760   7.077 -0.4401  0.3644 -0.3944
 3827ntf    on518519   5.552   0.897   7.178 -0.1810 -0.1461 -0.0466
 3827ntf    on518520   5.369   1.064   7.165  0.4410 -0.6061 -0.5507
 3827ntf    on518521   5.329   0.992   7.620  0.5469  0.1322  0.9011
 3827ntf    on518522   5.228   1.120   7.442 -0.1480 -0.7404  0.1256
 3827ntf    fn418523   5.593   1.096   7.557 -0.3261 -0.3551  0.2516
 3827ntf    fn418524   5.509   1.211   7.393  0.4574 -0.3906  0.3754
 3827ntf    fn418525   5.451   1.255   7.591  0.1557 -0.3978  0.6223
 3828ntf    cn118526   3.010   4.109   5.492 -0.0233  0.4691  0.6065
 3828ntf    sn218527   3.190   4.094   5.509 -0.0136  0.1296  0.2339
 3828ntf    nn318528   3.211   3.948   5.455 -0.1209  0.1185  0.2233
 3828ntf    sn218529   3.329   3.848   5.485 -0.5105 -0.2534  0.5285
 3828ntf    cn118530   3.471   3.948   5.430 -0.7224 -0.2223  0.0338
 3828ntf    fn418531   2.945   4.021   5.567  0.3719 -0.0849  0.3126
 3828ntf    fn418532   2.962   4.225   5.532 -0.4833  0.4254  0.1872
 3828ntf    fn418533   2.965   4.100   5.368  0.2243  0.3950  0.5207
 3828ntf    on518534   3.237   4.205   5.430  0.1196 -0.4532 -0.5234
 3828ntf    on518535   3.222   4.099   5.650  0.0600 -0.0071  0.2223
 3828ntf    on518536   3.336   3.740   5.390  0.2179 -0.1310  0.4375
 3828ntf    on518537   3.351   3.820   5.624  0.1150 -0.3379  0.4131
 3828ntf    fn418538   3.456   4.007   5.312 -0.0787 -0.1893 -0.0303
 3828ntf    fn418539   3.494   4.053   5.507 -0.4373 -0.2624  0.0049
 3828ntf    fn418540   3.582   3.877   5.416 -0.5938  0.0650 -0.4288
 3829ntf    cn118541   6.433   2.233   5.530  0.0285 -0.4631 -0.1987
 3829ntf    sn218542   6.397   2.304   5.693 -0.0607 -0.1364 -0.3596
 3829ntf    nn318543   6.492   2.429   5.694 -0.3541  0.0844  0.0138
 3829ntf    sn218544   6.485   2.566   5.618  0.0856 -0.0007 -0.1813
 3829ntf    cn118545   6.390   2.665   5.738 -0.0866 -0.2349 -0.1232
 3829ntf    fn418546   6.345   2.283   5.445 -0.3200 -0.0219  0.4156
 3829ntf    fn418547   6.550   2.270   5.482 -0.0785 -0.0312 -0.1252
 3829ntf    fn418548   6.429   2.100   5.528 -0.5738 -0.4543  0.1208
 3829ntf    on518549   6.257   2.337   5.697 -0.0031  0.0581  0.1304
 3829ntf    on518550   6.436   2.214   5.799 -0.0477  0.3358  0.0410
 3829ntf    on518551   6.399   2.559   5.502 -0.0535  0.1929 -0.0897
 3829ntf    on518552   6.613   2.629   5.596 -0.1178  0.4263 -0.1492
 3829ntf    fn418553   6.355   2.784   5.693 -0.0297 -0.1989 -0.0724
 3829ntf    fn418554   6.273   2.611   5.768 -0.1005 -0.1457 -0.0176
 3829ntf    fn418555   6.450   2.674   5.856  0.3123 -0.2311 -0.3234
 3830ntf    cn118556   1.604   0.193   5.429 -0.2246 -0.0894  0.3334
 3830ntf    sn218557   1.781   0.183   5.389 -0.2575 -0.1167  0.1951
 3830ntf    nn318558   1.770   0.119   5.246 -0.2588  0.3098  0.0027
 3830ntf    sn218559   1.773  -0.034   5.213 -0.1135  0.2799  0.1563
 3830ntf    cn118560   1.935  -0.043   5.130 -0.0893  0.1078  0.2210
 3830ntf    fn418561   1.553   0.077   5.468 -0.1572 -0.1886  0.1304
 3830ntf    fn418562   1.573   0.282   5.521  0.3998  0.2592  0.2094
 3830ntf    fn418563   1.532   0.228   5.324  0.4268  0.4193  0.0467
 3830ntf    on518564   1.798   0.326   5.382 -0.8188 -0.0716 -0.3714
 3830ntf    on518565   1.848   0.112   5.495 -0.4304  0.0888  0.4428
 3830ntf    on518566   1.685  -0.073   5.106  0.2857 -0.1193 -0.0318
 3830ntf    on518567   1.773  -0.123   5.326  0.0662  0.3141  0.1836
 3830ntf    fn418568   1.963  -0.166   5.090 -0.0508  0.3816 -0.6149
 3830ntf    fn418569   1.944   0.038   5.026  0.2202  0.1811  0.3024
 3830ntf    fn418570   2.031  -0.012   5.215 -0.2291 -0.4409  0.5848
 3831ntf    cn118571   4.163   3.438   3.845 -0.7111 -0.2653  0.0473
 3831ntf    sn218572   4.075   3.526   3.712  0.0841  0.3672 -0.0715
 3831ntf    nn318573   4.068   3.668   3.778 -0.1812  0.0434  0.6146
 3831ntf    sn218574   3.963   3.783   3.756 -0.2361 -0.1303 -0.0553
 3831ntf    cn118575   4.017   3.859   3.600 -0.0507 -0.1187  0.0139
 3831ntf    fn418576   4.104   3.446   3.963  0.6373 -0.1639  0.7298
 3831ntf    fn418577   4.164   3.309   3.816  0.0261 -0.2856  0.1409
 3831ntf    fn418578   4.284   3.490   3.848 -0.7545 -0.1644  0.0491
 3831ntf    on518579   4.157   3.517   3.594 -0.1758 -0.4427 -0.1969
 3831ntf    on518580   3.948   3.457   3.714  0.0982  0.3448  0.0862
 3831ntf    on518581   3.993   3.897   3.839 -0.8167  0.3632 -0.5127
 3831ntf    on518582   3.826   3.740   3.753 -0.1028 -0.5542 -0.1640
 3831ntf    fn418583   4.006   3.775   3.499 -0.4504 -0.4623  0.3411
 3831ntf    fn418584   3.947   3.966   3.565  0.4652  0.1828 -0.1115
 3831ntf    fn418585   4.144   3.896   3.597 -0.2300  0.5203  0.0550
 3832ntf    cn118586   5.295   4.349   4.240 -0.0336  0.1925  0.1495
 3832ntf    sn218587   5.443   4.279   4.162  0.0925  0.2536  0.3330
 3832ntf    nn318588   5.483   4.164   4.261 -0.7448 -0.2715  0.0701
 3832ntf    sn218589   5.625   4.104   4.290 -0.5840 -0.1706 -0.4924
 3832ntf    cn118590   5.584   4.013   4.443 -0.1362 -0.1564 -0.3618
 3832ntf    fn418591   5.235   4.438   4.163  0.1839  0.2251  0.0180
 3832ntf    fn418592   5.201   4.259   4.267  0.0691  0.1448  0.3494
 3832ntf    fn418593   5.328   4.399   4.358  0.4224  0.0947  0.0658
 3832ntf    on518594   5.407   4.225   4.033  0.3586 -0.0810  0.3989
 3832ntf    on518595   5.534   4.391   4.165  0.4111 -0.0003  0.2782
 3832ntf    on518596   5.720   4.200   4.341 -0.6833 -0.1563 -0.3315
 3832ntf    on518597   5.651   3.987   4.211 -0.2445 -0.1143 -0.4656
 3832ntf    fn418598   5.504   3.910   4.423 -0.0505 -0.2909 -0.0076
 3832ntf    fn418599   5.695   3.959   4.488 -0.2310 -0.4350 -0.4603
 3832ntf    fn418600   5.538   4.090   4.541 -0.0983  0.0377 -0.4941
 3833ntf    cn118601   4.397   2.948   7.007  0.2629 -0.0142 -0.2901
 3833ntf    sn218602   4.338   2.843   6.870 -0.1714  0.1073 -0.1986
 3833ntf    nn318603   4.288   2.733   6.971 -0.5880  0.1213 -0.3855
 3833ntf    sn218604   4.240   2.589   6.932 -0.0079 -0.2494  0.2590
 3833ntf    cn118605   4.178   2.537   7.095 -0.0697 -0.4025  0.1861
 3833ntf    fn418606   4.490   2.880   7.072  0.1587  0.2970  0.1837
 3833ntf    fn418607   4.444   3.062   6.959  0.0399  0.0787 -0.2922
 3833ntf    fn418608   4.300   2.987   7.088  0.4040  0.1885 -0.2202
 3833ntf    on518609   4.239   2.921   6.800  0.0701 -0.0934 -0.7731
 3833ntf    on518610   4.458   2.814   6.795  0.1564  1.0237 -0.0417
 3833ntf    on518611   4.349   2.496   6.920 -0.2534 -0.5884  0.6239
 3833ntf    on518612   4.123   2.580   6.849  0.1612 -0.6506  0.0629
 3833ntf    fn418613   4.064   2.594   7.131 -0.4505 -1.0702  0.0548
 3833ntf    fn418614   4.159   2.406   7.105 -0.2258 -0.3565  0.5090
 3833ntf    fn418615   4.266   2.560   7.191 -0.0054 -0.0753  0.0490
 3834ntf    cn118616   1.679   2.939   2.486 -0.4388 -0.5857  0.0779
 3834ntf    sn218617   1.799   2.803   2.488  0.0575 -0.1614 -0.4103
 3834ntf    nn318618   1.898   2.853   2.600 -1.0406  0.7559  0.1687
 3834ntf    sn218619   1.881   2.842   2.755 -0.1837 -0.0768  0.2105
 3834ntf    cn118620   1.977   2.700   2.817  0.1820  0.0392 -0.0884
 3834ntf    fn418621   1.629   2.942   2.364 -0.7827 -0.9363  0.2100
 3834ntf    fn418622   1.582   2.920   2.573 -0.5001  0.7682  0.3253
 3834ntf    fn418623   1.734   3.057   2.511  0.2975 -0.7466 -0.7260
 3834ntf    on518624   1.720   2.687   2.522  0.1549 -0.0390  0.2519
 3834ntf    on518625   1.858   2.807   2.356  0.0167  0.0183 -0.4224
 3834ntf    on518626   1.746   2.815   2.798  0.0219 -1.0991  0.2420
 3834ntf    on518627   1.953   2.953   2.812 -0.3448  0.1048  0.0628
 3834ntf    fn418628   2.105   2.733   2.815  0.1333  0.2433  0.0829
 3834ntf    fn418629   1.956   2.684   2.947 -0.2037  0.1226 -0.1401
 3834ntf    fn418630   1.959   2.583   2.758 -0.0541  0.3553 -0.6481
 3835ntf    cn118631   2.568   2.546   3.373 -0.4493  0.1142  0.2028
 3835ntf    sn218632   2.526   2.401   3.473  0.1415 -0.0803  0.1773
 3835ntf    nn318633   2.463   2.481   3.593 -0.3138  0.1091 -0.1832
 3835ntf    sn218634   2.497   2.468   3.746 -0.3812 -0.1133 -0.1866
 3835ntf    cn118635   2.416   2.309   3.782 -0.4114 -0.0990 -0.1920
 3835ntf    fn418636   2.665   2.623   3.421  0.0464 -0.1968 -0.2902
 3835ntf    fn418637   2.617   2.508   3.256  0.8937  0.3180  0.6792
 3835ntf    fn418638   2.462   2.623   3.355 -0.4656  0.2545  0.8892
 3835ntf    on518639   2.432   2.340   3.382  0.6484 -0.3392 -0.1750
 3835ntf    on518640   2.652   2.336   3.496  0.2483 -0.1166 -0.4971
 3835ntf    on518641   2.425   2.558   3.833  0.3391  0.1841  0.1030
 3835ntf    on518642   2.634   2.448   3.784 -0.2478 -0.2893 -0.7481
 3835ntf    fn418643   2.297   2.294   3.726 -0.5290 -0.5526  0.1708
 3835ntf    fn418644   2.484   2.206   3.735  0.5855  0.6005 -0.3120
 3835ntf    fn418645   2.400   2.286   3.911 -0.2440 -0.1026 -0.1712
 3836ntf    cn118646   5.607   1.633   3.561 -0.3519  0.3887 -0.1740
 3836ntf    sn218647   5.485   1.593   3.432 -0.1993 -0.2416 -0.1252
 3836ntf    nn318648   5.475   1.438   3.455  0.7893 -0.2935 -0.0055
 3836ntf    sn218649   5.497   1.332   3.341  0.1771 -0.1897 -0.2215
 3836ntf    cn118650   5.529   1.181   3.438  0.0337  0.1144  0.3017
 3836ntf    fn418651   5.720   1.567   3.540 -0.5875 -0.1182  0.1264
 3836ntf    fn418652   5.628   1.763   3.570 -0.3967  0.4290 -0.6157
 3836ntf    fn418653   5.568   1.590   3.680  0.3377  0.8850  0.2418
 3836ntf    on518654   5.363   1.649   3.485 -0.1005 -0.1607  0.0192
 3836ntf    on518655   5.546   1.633   3.307  0.8657 -0.0654  0.4332
 3836ntf    on518656   5.618   1.343   3.264  0.5016  0.2586  0.3438
 3836ntf    on518657   5.373   1.303   3.274  0.2836 -0.1293 -0.4430
 3836ntf    fn418658   5.456   1.180   3.549 -0.3660  0.0403  0.0407
 3836ntf    fn418659   5.504   1.068   3.376 -0.0169  0.4557 -0.3033
 3836ntf    fn418660   5.656   1.176   3.476  0.2783 -0.4824 -0.5960
 3837ntf    cn118661   3.345   0.847   4.625 -0.3712 -0.0418  0.3635
 3837ntf    sn218662   3.506   0.844   4.710 -0.0715 -0.0725 -0.1948
 3837ntf    nn318663   3.460   0.819   4.858 -0.1967  0.2693 -0.1743
 3837ntf    sn218664   3.426   0.683   4.930  0.1642  0.2745  0.0099
 3837ntf    cn118665   3.587   0.638   5.000  0.1444 -0.1023 -0.1866
 3837ntf    fn418666   3.261   0.749   4.652  0.0179 -0.6716 -0.6522
 3837ntf    fn418667   3.283   0.960   4.653 -0.0252  0.3001 -0.2189
 3837ntf    fn418668   3.372   0.844   4.495  0.4155  0.3824  0.5136
 3837ntf    on518669   3.576   0.736   4.647  0.2867  0.4911 -0.7746
 3837ntf    on518670   3.569   0.973   4.695  0.0083 -0.1024 -0.1127
 3837ntf    on518671   3.381   0.574   4.847  0.6854  0.2826 -0.2890
 3837ntf    on518672   3.335   0.704   5.040 -0.4009 -0.0011 -0.4001
 3837ntf    fn418673   3.654   0.731   5.066 -0.0162  0.1473 -0.3746
 3837ntf    fn418674   3.569   0.536   5.082 -0.3147  0.3445  0.2716
 3837ntf    fn418675   3.664   0.587   4.905 -0.1873 -0.5398 -0.2237
 3838ntf    cn118676   1.346   5.703   3.118  0.0116  0.0063 -0.0135
 3838ntf    sn218677   1.235   5.560   3.093  0.4263 -0.3014 -0.0989
 3838ntf    nn318678   1.138   5.568   3.216  0.7367  0.6584  0.0963
 3838ntf    sn218679   1.157   5.512   3.361  0.0559 -0.1649 -0.1189
 3838ntf    cn118680   1.098   5.343   3.330  0.1419 -0.2528  0.1855
 3838ntf    fn418681   1.438   5.709   3.024 -0.3124 -0.2384 -0.3509
 3838ntf    fn418682   1.264   5.807   3.115 -0.1574 -0.1337 -0.2701
 3838ntf    fn418683   1.394   5.711   3.241 -0.6642  0.3138  0.2410
 3838ntf    on518684   1.175   5.583   2.964 -0.0801  0.7830  0.3211
 3838ntf    on518685   1.323   5.446   3.105  0.1899 -0.4327  0.4322
 3838ntf    on518686   1.063   5.559   3.460  0.1551 -0.5096  0.1424
 3838ntf    on518687   1.296   5.498   3.399 -0.1143 -0.6295  0.3402
 3838ntf    fn418688   1.145   5.258   3.419 -0.1422 -0.5134  0.0893
 3838ntf    fn418689   0.967   5.326   3.337  0.0530  0.4766  0.4038
 3838ntf    fn418690   1.145   5.306   3.213  0.6664  0.5219  0.1408
 3839ntf    cn118691   0.322   1.049   2.511 -0.1649 -0.0957 -0.3327
 3839ntf    sn218692   0.409   1.143   2.382  0.0688 -0.3273 -0.3455
 3839ntf    nn318693   0.557   1.115   2.427 -0.1862 -0.2375  0.5752
 3839ntf    sn218694   0.660   1.188   2.519 -0.0096 -0.3166  0.4423
 3839ntf    cn118695   0.711   1.058   2.636 -0.0683 -0.3196  0.4650
 3839ntf    fn418696   0.345   1.090   2.634 -0.3211  0.3590 -0.4537
 3839ntf    fn418697   0.192   1.051   2.491 -0.1166  0.7089 -0.5886
 3839ntf    fn418698   0.357   0.922   2.499 -0.0354 -0.1252  0.3273
 3839ntf    on518699   0.369   1.079   2.259 -0.4654  0.3624 -0.5348
 3839ntf    on518700   0.370   1.280   2.403 -0.0130 -0.3439 -0.3893
 3839ntf    on518701   0.617   1.302   2.597 -0.2999 -0.5062  0.5631
 3839ntf    on518702   0.775   1.222   2.439 -0.7048 -0.3145 -0.5636
 3839ntf    fn418703   0.783   0.968   2.570  0.0075 -0.2810  0.4943
 3839ntf    fn418704   0.786   1.115   2.729 -0.4434  0.2914  0.3996
 3839ntf    fn418705   0.611   0.993   2.692 -0.0166 -0.2629  0.6245
 3840ntf    cn118706   4.470   4.605   0.209  0.0245  0.0792  0.1369
 3840ntf    sn218707   4.563   4.456   0.162 -0.2564 -0.0199 -0.1081
 3840ntf    nn318708   4.693   4.519   0.100 -0.2078  0.0342  0.0476
 3840ntf    sn218709   4.719   4.593  -0.036 -0.4115 -0.1973 -0.1197
 3840ntf    cn118710   4.767   4.756   0.029 -0.2258 -0.0892 -0.5245
 3840ntf    fn418711   4.544   4.695   0.274  0.5494  0.0484 -0.4110
 3840ntf    fn418712   4.411   4.666   0.108 -0.5098 -0.5822  0.0432
 3840ntf    fn418713   4.364   4.577   0.283 -0.3265  0.4155 -0.2386
 3840ntf    on518714   4.581   4.392   0.290 -0.6523 -0.7269 -0.4022
 3840ntf    on518715   4.471   4.396   0.069 -0.6915 -0.5393  0.6426
 3840ntf    on518716   4.599   4.620  -0.110  0.0393 -0.3412 -0.9172
 3840ntf    on518717   4.840   4.562  -0.109  0.3798  0.3137  0.9377
 3840ntf    fn418718   4.850   4.813  -0.057 -0.5018  0.5970 -0.3458
 3840ntf    fn418719   4.665   4.838   0.048 -0.4662 -0.5134  0.0632
 3840ntf    fn418720   4.830   4.739   0.144  0.1115  0.3574 -0.6413
 3841ntf    cn118721   2.809   6.848   2.008  0.2143  0.0811 -0.1977
 3841ntf    sn218722   2.886   6.688   2.051 -0.0634  0.0136  0.0523
 3841ntf    nn318723   2.770   6.621   2.133 -0.0172  0.1797  0.2531
 3841ntf    sn218724   2.644   6.538   2.089  0.0300  0.1126  0.2447
 3841ntf    cn118725   2.535   6.596   2.222 -0.2168 -0.1703  0.1677
 3841ntf    fn418726   2.879   6.916   1.918 -0.3542  0.6030 -0.2433
 3841ntf    fn418727   2.687   6.825   1.962  0.2413  0.3082 -0.3868
 3841ntf    fn418728   2.803   6.931   2.111 -0.2022 -0.1626 -0.0234
 3841ntf    on518729   2.912   6.625   1.924  1.0207  0.1727  0.1860
 3841ntf    on518730   2.999   6.724   2.133 -0.2842  0.2080  0.2747
 3841ntf    on518731   2.644   6.396   2.114  0.2861  0.0928  0.1342
 3841ntf    on518732   2.573   6.590   1.975 -0.1680 -0.4187  0.1258
 3841ntf    fn418733   2.582   6.543   2.334  0.5538 -0.1960 -0.1637
 3841ntf    fn418734   2.529   6.727   2.244  0.5767 -0.1614  0.3759
 3841ntf    fn418735   2.414   6.546   2.209 -0.2194 -0.1863  0.2467
 3842ntf    cn118736   0.627   5.352   2.059  0.0185  0.2329  0.1856
 3842ntf    sn218737   0.791   5.430   2.070  0.2321 -0.2085  0.1326
 3842ntf    nn318738   0.743   5.575   2.107 -0.3858 -0.3866  0.0300
 3842ntf    sn218739   0.705   5.700   2.020  0.0899 -0.3133 -0.0761
 3842ntf    cn118740   0.863   5.787   2.001 -0.1226  0.0498 -0.1922
 3842ntf    fn418741   0.553   5.407   1.964 -0.6396  0.0680  0.6011
 3842ntf    fn418742   0.640   5.224   2.032 -0.2662  0.0935  0.7038
 3842ntf    fn418743   0.571   5.367   2.177  0.2551  0.1471  0.3088
 3842ntf    on518744   0.858   5.361   2.177  0.2437  0.0348  0.2831
 3842ntf    on518745   0.836   5.419   1.933  0.3422  0.7160  0.0838
 3842ntf    on518746   0.624   5.785   2.103 -0.4080 -0.5889 -0.2738
 3842ntf    on518747   0.661   5.668   1.886  0.1501 -1.0332  0.0711
 3842ntf    fn418748   0.893   5.865   2.104 -0.0109 -0.3546  0.0866
 3842ntf    fn418749   0.966   5.705   1.991  0.0710  0.3716 -0.8669
 3842ntf    fn418750   0.870   5.858   1.890 -0.1448 -0.0523 -0.2590
 3843ntf    cn118751   0.665   3.500   6.318 -0.0283 -0.7568  0.0877
 3843ntf    sn218752   0.636   3.321   6.304 -0.4080 -0.6717 -0.2316
 3843ntf    nn318753   0.747   3.284   6.199  0.0930  0.0920  0.0244
 3843ntf    sn218754   0.739   3.237   6.050 -0.2726 -0.1746  0.1249
 3843ntf    cn118755   0.758   3.391   5.954  0.4057 -0.1334  0.3190
 3843ntf    fn418756   0.784   3.537   6.272 -0.3051 -0.2702 -0.2384
 3843ntf    fn418757   0.585   3.565   6.236  0.2821 -0.4469  0.0283
 3843ntf    fn418758   0.652   3.569   6.429 -0.1820  0.3322 -0.5948
 3843ntf    on518759   0.668   3.266   6.434 -0.4231  0.8402  0.4274
 3843ntf    on518760   0.497   3.306   6.267 -0.4588 -0.0067 -0.3193
 3843ntf    on518761   0.613   3.180   6.009 -0.2280  0.0466 -0.3239
 3843ntf    on518762   0.857   3.169   6.003 -0.3500  0.4409 -1.0007
 3843ntf    fn418763   0.865   3.463   5.984  0.6047  0.0817 -0.8784
 3843ntf    fn418764   0.753   3.377   5.823 -0.5791 -0.2493  0.3611
 3843ntf    fn418765   0.663   3.481   5.972  0.4544 -0.0237  0.0185
 3844ntf    cn118766   6.851   3.949   5.664  0.0769 -0.2469  0.0954
 3844ntf    sn218767   6.799   3.815   5.776 -0.2632 -0.0692  0.1520
 3844ntf    nn318768   6.864   3.866   5.909 -0.4977 -0.2354  0.3296
 3844ntf    sn218769   6.790   3.947   6.021 -0.0103  0.4569  0.1591
 3844ntf    cn118770   6.683   3.824   6.101  0.2290  0.1953  0.0761
 3844ntf    fn418771   6.809   3.927   5.541 -0.2644  0.3510  0.1027
 3844ntf    fn418772   6.814   4.072   5.694  0.2086 -0.4435  1.1194
 3844ntf    fn418773   6.983   3.950   5.664  0.0784 -0.3595  0.4191
 3844ntf    on518774   6.656   3.816   5.764 -0.2125 -0.2428 -0.5268
 3844ntf    on518775   6.870   3.701   5.722 -0.3552  0.1985 -0.5466
 3844ntf    on518776   6.694   4.042   5.970 -0.1878  0.0737 -0.2188
 3844ntf    on518777   6.874   3.991   6.130  0.6377 -0.0846 -0.1224
 3844ntf    fn418778   6.640   3.736   6.012  0.3328  0.6146 -0.3935
 3844ntf    fn418779   6.760   3.757   6.184  0.1653 -0.3088 -0.2655
 3844ntf    fn418780   6.587   3.875   6.176 -0.0190 -0.5898  0.3071
 3845ntf    cn118781   2.776   1.140   4.184 -0.4727  0.3358  0.5808
 3845ntf    sn218782   2.658   1.025   4.106  0.3089 -0.2464  0.2529
 3845ntf    nn318783   2.696   1.036   3.954 -0.2110 -0.2068  0.1253
 3845ntf    sn218784   2.631   1.113   3.834  0.1894 -0.4765 -0.2631
 3845ntf    cn118785   2.494   1.000   3.796 -0.1202 -0.2357  0.1430
 3845ntf    fn418786   2.716   1.246   4.237 -0.0551  0.9731 -0.2064
 3845ntf    fn418787   2.839   1.079   4.283  0.1963 -0.1672 -0.1437
 3845ntf    fn418788   2.871   1.188   4.106 -0.3138 -0.2592  0.4061
 3845ntf    on518789   2.691   0.895   4.160  0.3514 -0.4507 -0.2615
 3845ntf    on518790   2.531   1.081   4.144  0.0132 -0.5968 -0.2179
 3845ntf    on518791   2.710   1.116   3.713 -0.1626 -0.1597 -0.4890
 3845ntf    on518792   2.568   1.234   3.879 -0.9756 -1.1874  0.0421
 3845ntf    fn418793   2.416   0.961   3.896 -0.4546 -0.9063 -0.3723
 3845ntf    fn418794   2.420   1.044   3.695  0.1590 -1.0966 -0.4445
 3845ntf    fn418795   2.541   0.886   3.749  0.2388 -0.2445  0.5196
 3846ntf    cn118796   1.425   6.139   6.399  0.1349 -0.1920 -0.3029
 3846ntf    sn218797   1.530   6.275   6.459 -0.1143 -0.0209 -0.2534
 3846ntf    nn318798   1.626   6.291   6.336 -0.1770  0.3941 -0.2477
 3846ntf    sn218799   1.631   6.399   6.222 -0.0588  0.2793 -0.3503
 3846ntf    cn118800   1.770   6.337   6.122  0.1289 -0.1946  0.2019
 3846ntf    fn418801   1.318   6.184   6.336 -0.0877 -0.2725  0.0163
 3846ntf    fn418802   1.487   6.053   6.319 -0.5701 -0.5184 -0.5005
 3846ntf    fn418803   1.375   6.079   6.506 -0.4702 -0.4548 -0.7285
 3846ntf    on518804   1.448   6.387   6.498 -0.0787 -0.3664  0.8528
 3846ntf    on518805   1.607   6.217   6.566 -0.1171  0.0498 -0.2131
 3846ntf    on518806   1.687   6.528   6.253  0.1727  0.0546  0.1814
 3846ntf    on518807   1.523   6.391   6.126  0.1766 -0.5077 -0.5605
 3846ntf    fn418808   1.767   6.362   5.992 -0.4620  0.3338  0.3128
 3846ntf    fn418809   1.879   6.392   6.173  0.4365 -0.3663 -0.2619
 3846ntf    fn418810   1.773   6.205   6.129 -0.3073 -0.2086  0.1341
 3847ntf    cn118811   5.763   4.313   6.963 -0.1770 -0.4771  0.2719
 3847ntf    sn218812   5.636   4.353   7.087 -0.1281 -0.0623  0.1860
 3847ntf    nn318813   5.722   4.391   7.214  0.5104 -0.0725 -0.2378
 3847ntf    sn218814   5.746   4.532   7.278  0.0269 -0.0999  0.0117
 3847ntf    cn118815   5.736   4.472   7.449 -0.0528  0.4886  0.2184
 3847ntf    fn418816   5.824   4.197   6.982  0.3445 -0.2991 -0.3093
 3847ntf    fn418817   5.714   4.308   6.840  0.1295 -0.4688  0.1500
 3847ntf    fn418818   5.859   4.403   6.965 -0.1585 -0.4966  0.2813
 3847ntf    on518819   5.560   4.461   7.030  0.0884  0.0332  0.0758
 3847ntf    on518820   5.567   4.229   7.110 -0.1165 -0.0742  0.1546
 3847ntf    on518821   5.637   4.626   7.270 -0.1444 -0.3291 -0.3161
 3847ntf    on518822   5.880   4.585   7.271  0.1483 -0.4159 -0.0603
 3847ntf    fn418823   5.748   4.567   7.540  0.0378  0.2940  0.4125
 3847ntf    fn418824   5.627   4.406   7.488 -0.1085  0.5055  0.0938
 3847ntf    fn418825   5.836   4.389   7.474 -0.4705 -0.0758  0.0583
 3848ntf    cn118826   7.255   3.429   4.142  0.3751 -0.0033  0.3551
 3848ntf    sn218827   7.228   3.295   4.023 -0.1501  0.0445  0.4179
 3848ntf    nn318828   7.360   3.299   3.938 -0.2636  0.2348  0.2491
 3848ntf    sn218829   7.382   3.276   3.784 -0.1384 -0.1396  0.3206
 3848ntf    cn118830   7.360   3.444   3.717 -0.2357 -0.3780 -0.2510
 3848ntf    fn418831   7.291   3.534   4.069  0.2311 -0.3440 -0.2142
 3848ntf    fn418832   7.143   3.456   4.206  0.1227 -0.6568  0.1935
 3848ntf    fn418833   7.349   3.406   4.232  0.1104 -0.5556  0.4913
 3848ntf    on518834   7.218   3.181   4.111  0.0539 -0.0192  0.3595
 3848ntf    on518835   7.114   3.344   3.950 -0.1682 -0.7366 -0.0947
 3848ntf    on518836   7.290   3.191   3.714  0.2647 -0.1501 -0.2073
 3848ntf    on518837   7.522   3.243   3.769  0.1284  0.4964  1.3102
 3848ntf    fn418838   7.252   3.506   3.763  0.3067  0.5375 -0.2019
 3848ntf    fn418839   7.470   3.514   3.735 -0.0562 -0.6682 -0.2219
 3848ntf    fn418840   7.340   3.426   3.588 -0.1696  0.8423 -0.4444
 3849ntf    cn118841   2.629   3.568   0.611  0.3137  0.6627  0.0521
 3849ntf    sn218842   2.556   3.733   0.630 -0.3211  0.3852  0.0499
 3849ntf    nn318843   2.412   3.710   0.570 -0.1152 -0.1188 -0.2568
 3849ntf    sn218844   2.273   3.704   0.643  0.0129 -0.0572 -0.0028
 3849ntf    cn118845   2.227   3.529   0.638  0.3118 -0.1545  0.6525
 3849ntf    fn418846   2.587   3.515   0.497  0.0513  0.9752  0.0029
 3849ntf    fn418847   2.761   3.577   0.602  0.3723 -0.1365  0.0149
 3849ntf    fn418848   2.617   3.499   0.724  0.8144  0.0349 -0.2656
 3849ntf    on518849   2.562   3.751   0.773 -0.0294  0.1247  0.0703
 3849ntf    on518850   2.639   3.818   0.548  0.6527 -0.1834  0.4293
 3849ntf    on518851   2.163   3.764   0.570 -0.4046 -0.7600  0.0484
 3849ntf    on518852   2.282   3.739   0.782  0.2853 -0.3573  0.0548
 3849ntf    fn418853   2.318   3.453   0.697  0.1063 -0.0377  1.1233
 3849ntf    fn418854   2.114   3.502   0.702 -0.1590 -0.3070 -0.2344
 3849ntf    fn418855   2.214   3.496   0.511 -0.2510 -0.1847  0.7151
 3850ntf    cn118856   3.568   7.154   0.695 -0.1236  0.1063  0.7544
 3850ntf    sn218857   3.391   7.184   0.722 -0.2258  0.3110 -0.1233
 3850ntf    nn318858   3.338   7.073   0.624  0.1959  0.0066 -0.0055
 3850ntf    sn218859   3.292   6.928   0.660  0.3478  0.0133  0.2189
 3850ntf    cn118860   3.364   6.841   0.518 -0.0982 -0.0095  0.0029
 3850ntf    fn418861   3.596   7.027   0.719  0.2218 -0.0052 -0.2116
 3850ntf    fn418862   3.593   7.185   0.569 -0.3291 -0.0638  0.6688
 3850ntf    fn418863   3.645   7.236   0.763  0.5381  0.2628 -0.1612
 3850ntf    on518864   3.376   7.161   0.863 -0.0714 -0.7826 -0.2752
 3850ntf    on518865   3.383   7.316   0.663 -0.5746  0.7223  0.8307
 3850ntf    on518866   3.150   6.902   0.650  0.3027 -0.1300  1.1329
 3850ntf    on518867   3.356   6.868   0.774  0.1331 -0.4654  0.0909
 3850ntf    fn418868   3.316   6.718   0.515 -0.2805  0.0551  0.2881
 3850ntf    fn418869   3.315   6.885   0.403 -0.3255  0.3045  0.2211
 3850ntf    fn418870   3.496   6.828   0.511 -0.1046 -0.2923  0.4015
 3851ntf    cn118871   5.514   5.394   0.614  0.1532 -0.0154  0.2650
 3851ntf    sn218872   5.629   5.498   0.519  0.2088 -0.5484 -0.2615
 3851ntf    nn318873   5.755   5.407   0.497  0.5640 -0.1985  0.2926
 3851ntf    sn218874   5.883   5.448   0.416  0.2878 -0.0376 -0.0664
 3851ntf    cn118875   6.004   5.465   0.551 -0.1215 -0.4518  0.3572
 3851ntf    fn418876   5.469   5.287   0.550  0.2909 -0.1512  0.3944
 3851ntf    fn418877   5.587   5.354   0.717  0.2138 -0.4286  0.0647
 3851ntf    fn418878   5.412   5.455   0.670 -0.0393  0.1682 -0.2763
 3851ntf    on518879   5.557   5.527   0.398  0.1656 -0.1935 -0.1526
 3851ntf    on518880   5.668   5.599   0.614 -0.0728 -0.0451 -0.6743
 3851ntf    on518881   5.887   5.578   0.353  0.1174 -0.1287 -0.2693
 3851ntf    on518882   5.932   5.341   0.333 -0.7379 -0.0982 -0.6111
 3851ntf    fn418883   6.026   5.349   0.611 -0.4760 -0.7591 -0.0964
 3851ntf    fn418884   6.120   5.500   0.499 -0.3365 -0.9006 -0.4480
 3851ntf    fn418885   5.974   5.558   0.640  0.3285  0.0291  0.0120
 3852ntf    cn118886   6.204   5.736   6.927  0.0437  0.4969  0.0981
 3852ntf    sn218887   6.165   5.890   6.839 -0.1563  0.4881  0.1723
 3852ntf    nn318888   6.303   5.947   6.792  0.0553  0.3750  0.6530
 3852ntf    sn218889   6.388   6.063   6.856  0.3795  0.2349  0.4762
 3852ntf    cn118890   6.307   6.207   6.780  0.1646 -0.2770 -0.2816
 3852ntf    fn418891   6.090   5.674   6.953  0.1616  0.1445 -0.2076
 3852ntf    fn418892   6.275   5.657   6.848  0.0617  0.4874  0.1239
 3852ntf    fn418893   6.266   5.746   7.043 -0.0952 -0.0006  0.2191
 3852ntf    on518894   6.094   5.837   6.725 -0.2089  0.4106  0.2416
 3852ntf    on518895   6.084   5.969   6.929  0.3009  0.1314  0.9092
 3852ntf    on518896   6.528   6.068   6.819  0.1582  0.6985 -0.3270
 3852ntf    on518897   6.358   6.069   6.997 -0.3482 -0.1544  0.3385
 3852ntf    fn418898   6.368   6.321   6.807  0.0855 -0.1286 -0.7343
 3852ntf    fn418899   6.307   6.187   6.650  0.3055 -0.3121 -0.2763
 3852ntf    fn418900   6.181   6.226   6.816  0.0490 -0.6900 -0.4635
 3853ntf    cn118901   2.557   0.114   0.166 -0.4300 -0.2380 -0.2349
 3853ntf    sn218902   2.675   0.049   0.043 -0.1566 -0.3299  0.0759
 3853ntf    nn318903   2.679  -0.106   0.065  0.6434 -0.3698 -0.3470
 3853ntf    sn218904   2.600  -0.230   0.010 -0.3257  0.1087 -0.0377
 3853ntf    cn118905   2.597  -0.345   0.151 -0.0077  0.0134 -0.1077
 3853ntf    fn418906   2.553   0.246   0.156 -0.5414 -0.2256 -0.0293
 3853ntf    fn418907   2.434   0.066   0.153 -0.4698 -0.2686  0.2280
 3853ntf    fn418908   2.588   0.085   0.291  0.2497 -0.2629 -0.4067
 3853ntf    on518909   2.620   0.080  -0.087 -0.2460 -0.4370  0.0884
 3853ntf    on518910   2.804   0.107   0.071 -0.0748 -0.3413 -0.2714
 3853ntf    on518911   2.671  -0.308  -0.088  0.3561  0.2464  0.3382
 3853ntf    on518912   2.458  -0.210  -0.012 -0.2561 -0.2215 -0.8285
 3853ntf    fn418913   2.713  -0.397   0.188 -0.0238 -0.3606 -0.5677
 3853ntf    fn418914   2.546  -0.287   0.258  0.2849 -0.2111  0.1552
 3853ntf    fn418915   2.520  -0.444   0.109 -0.7626  0.4883  0.1354
 3854ntf    cn118916   4.341   1.899   1.008  0.0684 -0.1775  0.2275
 3854ntf    sn218917   4.426   1.765   1.097 -0.0526 -0.1598  0.3702
 3854ntf    nn318918   4.516   1.851   1.193  0.3425  0.0889 -0.2154
 3854ntf    sn218919   4.672   1.860   1.212  0.3049 -0.2229  0.2613
 3854ntf    cn118920   4.695   1.747   1.352  0.0150 -0.0344  0.4625
 3854ntf    fn418921   4.265   1.855   0.910  0.2878  0.2394 -0.1348
 3854ntf    fn418922   4.265   1.964   1.094  0.2277  0.1157  0.1478
 3854ntf    fn418923   4.430   1.983   0.958  0.5965 -0.7371  0.2237
 3854ntf    on518924   4.327   1.696   1.175 -0.3395 -0.1602  0.0126
 3854ntf    on518925   4.496   1.695   0.992 -0.0938  0.4753 -0.0856
 3854ntf    on518926   4.715   1.987   1.265 -0.9073  0.5040 -0.4527
 3854ntf    on518927   4.746   1.795   1.107 -0.0141 -0.3128  0.0885
 3854ntf    fn418928   4.823   1.734   1.381  0.0270 -0.2253  0.3246
 3854ntf    fn418929   4.632   1.792   1.460  0.2460 -0.4649  0.7803
 3854ntf    fn418930   4.642   1.629   1.325  0.0100  0.0148  0.2577
 3855ntf    cn118931   6.656   4.310   0.127 -0.0260  0.0552  0.1047
 3855ntf    sn218932   6.481   4.322   0.171 -0.0191  0.1113  0.1193
 3855ntf    nn318933   6.449   4.460   0.104  0.0155  0.2470  0.3764
 3855ntf    sn218934   6.437   4.602   0.170 -0.1623  0.2436  0.3512
 3855ntf    cn118935   6.417   4.706   0.022 -0.1717 -0.0235  0.1616
 3855ntf    fn418936   6.686   4.380   0.019  0.3880  0.0687  0.2240
 3855ntf    fn418937   6.736   4.369   0.214  0.3319 -0.4852  0.1540
 3855ntf    fn418938   6.695   4.184   0.111  0.1839  0.0868  0.3614
 3855ntf    on518939   6.431   4.210   0.096 -0.4743  0.6210 -0.3483
 3855ntf    on518940   6.485   4.314   0.315  0.4307 -0.5376  0.0778
 3855ntf    on518941   6.565   4.643   0.220 -0.0287 -0.3280  0.4927
 3855ntf    on518942   6.314   4.631   0.239 -0.3605  0.6754 -0.1771
 3855ntf    fn418943   6.398   4.835   0.049  0.0113 -0.0075  0.2132
 3855ntf    fn418944   6.523   4.709  -0.056 -0.2411  0.7430  0.0853
 3855ntf    fn418945   6.319   4.661  -0.054  0.3941 -0.1514 -0.4982
 3856ntf    cn118946   1.530   1.831   0.991  0.2196 -0.1441 -0.3138
 3856ntf    sn218947   1.564   1.930   0.843 -0.1869 -0.1104 -0.3862
 3856ntf    nn318948   1.668   1.837   0.771  0.2883  0.3956 -0.3646
 3856ntf    sn218949   1.651   1.752   0.640 -0.1243 -0.2407  0.0961
 3856ntf    cn118950   1.579   1.594   0.697  0.0640 -0.2842  0.2165
 3856ntf    fn418951   1.439   1.886   1.070 -0.1411 -0.3473 -0.5826
 3856ntf    fn418952   1.490   1.707   0.966  0.2383 -0.2532  0.1749
 3856ntf    fn418953   1.640   1.823   1.063 -0.1773 -0.2820  0.2839
 3856ntf    on518954   1.429   1.942   0.794 -0.2778 -0.1422 -0.1428
 3856ntf    on518955   1.629   2.047   0.896  0.6049 -0.5556 -0.3553
 3856ntf    on518956   1.782   1.724   0.585 -0.0203 -0.3434  0.3891
 3856ntf    on518957   1.557   1.804   0.544  0.1492  0.0987  0.0104
 3856ntf    fn418958   1.541   1.519   0.595 -0.1454  0.3237 -0.1577
 3856ntf    fn418959   1.665   1.518   0.763  0.4130 -0.1720 -0.1000
 3856ntf    fn418960   1.469   1.607   0.769  0.1106 -0.3087  0.2920
 3857ntf    cn118961   1.695   0.791   3.491 -0.2819 -0.0643  0.5512
 3857ntf    sn218962   1.599   0.919   3.578  0.1177  0.2883  0.4752
 3857ntf    nn318963   1.452   0.874   3.547  0.3797 -0.1905 -0.0950
 3857ntf    sn218964   1.359   0.786   3.637 -0.0265  0.1742 -0.1515
 3857ntf    cn118965   1.359   0.631   3.541 -0.1391  0.0141  0.1046
 3857ntf    fn418966   1.635   0.770   3.376  0.5517  0.1344  0.0704
 3857ntf    fn418967   1.816   0.830   3.454 -0.3522 -0.3989 -0.0253
 3857ntf    fn418968   1.713   0.671   3.544  0.5857 -0.3855 -0.4472
 3857ntf    on518969   1.643   0.906   3.715  0.4064 -0.3836  0.3255
 3857ntf    on518970   1.634   1.041   3.509  0.0855 -0.1838 -0.3907
 3857ntf    on518971   1.221   0.824   3.628 -0.0208  0.1950 -0.1502
 3857ntf    on518972   1.406   0.754   3.770 -0.4645 -0.4551 -0.1417
 3857ntf    fn418973   1.321   0.527   3.613  0.4967  0.0864  0.5576
 3857ntf    fn418974   1.277   0.629   3.437 -0.3991 -0.4586  0.3179
 3857ntf    fn418975   1.482   0.606   3.498  0.2107  1.7057  0.0516
 3858ntf    cn118976   6.289   4.153   5.001 -0.0342  0.3287  0.0959
 3858ntf    sn218977   6.290   3.973   4.974 -0.1077  0.3661 -0.1601
 3858ntf    nn318978   6.444   3.946   4.957 -0.2050 -0.3204  0.0100
 3858ntf    sn218979   6.546   3.879   5.056 -0.1041  0.2466  0.2987
 3858ntf    cn118980   6.640   4.029   5.094  0.3737  0.0360 -0.0459
 3858ntf    fn418981   6.333   4.175   5.124 -0.2015  0.3861  0.1443
 3858ntf    fn418982   6.371   4.225   4.926  0.4595 -0.4134 -0.0870
 3858ntf    fn418983   6.170   4.204   4.976 -0.2150 -0.1531 -0.0289
 3858ntf    on518984   6.221   3.918   5.088  0.0895  0.2013 -0.1212
 3858ntf    on518985   6.225   3.958   4.846  0.2746 -0.7299 -0.2334
 3858ntf    on518986   6.639   3.795   4.986 -0.2795  0.3020 -0.0043
 3858ntf    on518987   6.488   3.834   5.180 -0.4541 -0.1991 -0.0209
 3858ntf    fn418988   6.655   4.113   4.993 -0.0527  0.2078  0.0349
 3858ntf    fn418989   6.586   4.102   5.190  0.0393 -0.6103  0.2659
 3858ntf    fn418990   6.764   3.998   5.129  0.3411 -0.1135 -0.0646
 3859ntf    cn118991   1.373   0.217   6.530 -0.5053  0.0016  0.2529
 3859ntf    sn218992   1.335   0.136   6.371 -0.0393 -0.0941  0.1876
 3859ntf    nn318993   1.461   0.052   6.330  0.0601 -0.1643  0.6247
 3859ntf    sn218994   1.493  -0.102   6.329  0.1548 -0.1451 -0.1834
 3859ntf    cn118995   1.664  -0.089   6.388  0.1813 -0.2357 -0.2408
 3859ntf    fn418996   1.471   0.305   6.518  0.0106 -0.6039 -0.0335
 3859ntf    fn418997   1.277   0.295   6.575 -0.1846  0.4326  0.2016
 3859ntf    fn418998   1.395   0.133   6.629 -0.2815 -0.0585  0.1533
 3859ntf    on518999   1.222   0.052   6.405  0.1884 -0.3773  0.2462
 3859ntf    on519000   1.314   0.246   6.280 -0.1955 -0.4557 -0.2184
 3859ntf    on519001   1.501  -0.159   6.197 -0.5214 -0.3258 -0.1498
 3859ntf    on519002   1.436  -0.177   6.438  0.1136  0.0744 -0.0537
 3859ntf    fn419003   1.683  -0.012   6.494  1.0559 -0.3954 -0.2717
 3859ntf    fn419004   1.721  -0.206   6.412 -0.4980 -0.6196 -0.4729
 3859ntf    fn419005   1.741  -0.035   6.294  0.2752  0.5377  0.2710
 3860ntf    cn119006   1.126   3.939   1.449  0.1604 -0.2415  0.3943
 3860ntf    sn219007   1.170   3.932   1.273 -0.0569  0.0859  0.3260
 3860ntf    nn319008   1.318   3.879   1.283  0.0466  0.3023 -0.0254
 3860ntf    sn219009   1.427   3.857   1.173  0.2017  0.2565  0.1369
 3860ntf    cn119010   1.393   3.684   1.131 -0.4552  0.3556  0.2580
 3860ntf    fn419011   1.134   3.821   1.510 -0.1271 -0.3827  0.1637
 3860ntf    fn419012   1.209   4.011   1.523 -0.2137  0.0861  0.5011
 3860ntf    fn419013   1.001   3.977   1.474 -0.0210 -0.1008 -0.7001
 3860ntf    on519014   1.077   3.839   1.216  0.1407  0.1500 -0.1082
 3860ntf    on519015   1.165   4.069   1.229 -0.6527 -0.1325 -0.2958
 3860ntf    on519016   1.563   3.862   1.222  0.3147  0.4291 -0.1907
 3860ntf    on519017   1.408   3.914   1.042 -0.4030 -0.1221  0.0569
 3860ntf    fn419018   1.281   3.675   1.060 -0.3818 -0.4410  0.2348
 3860ntf    fn419019   1.480   3.626   1.050 -0.4060  0.7397  0.0332
 3860ntf    fn419020   1.369   3.611   1.238 -0.2241  0.1027  0.1371
 3861ntf    cn119021   5.148   0.984   0.925 -0.0727 -0.1143  0.3204
 3861ntf    sn219022   4.984   1.054   0.962  0.0342  0.2500  0.1088
 3861ntf    nn319023   4.899   0.933   0.911  0.8082 -0.0592 -0.4762
 3861ntf    sn219024   4.877   0.788   0.966  0.0962  0.2211 -0.0016
 3861ntf    cn119025   4.707   0.796   1.030  0.0784 -0.2130  0.0120
 3861ntf    fn419026   5.153   0.852   0.915 -0.3699 -0.0829 -0.3082
 3861ntf    fn419027   5.202   1.027   0.813 -1.4345 -0.0658 -0.3402
 3861ntf    fn419028   5.235   1.018   1.019 -0.0013  0.1257  0.1663
 3861ntf    on519029   4.984   1.077   1.105  0.7288 -0.1580  0.1793
 3861ntf    on519030   4.972   1.178   0.888  0.3602  0.4197  0.3354
 3861ntf    on519031   4.959   0.752   1.079 -0.4418 -0.3245  0.2252
 3861ntf    on519032   4.874   0.691   0.860 -0.3135 -0.3135  0.4879
 3861ntf    fn419033   4.678   0.680   1.085  0.0656 -0.0716  0.3091
 3861ntf    fn419034   4.687   0.889   1.123  0.4764  0.2078 -0.3146
 3861ntf    fn419035   4.617   0.817   0.935  0.4760  0.8062 -0.1513
 3862ntf    cn119036   1.968   3.121   4.528 -0.4671 -0.1584  0.0005
 3862ntf    sn219037   2.101   3.015   4.593 -0.0093  0.2622 -0.2442
 3862ntf    nn319038   2.019   2.884   4.617  0.7401 -0.0746  0.5103
 3862ntf    sn219039   1.990   2.798   4.746 -0.4183 -0.0004  0.3123
 3862ntf    cn119040   1.809   2.793   4.751 -0.4262  0.0098  0.0615
 3862ntf    fn419041   2.010   3.245   4.509 -0.4774 -0.0316  0.7640
 3862ntf    fn419042   1.923   3.077   4.412 -0.0261 -1.1186  0.1830
 3862ntf    fn419043   1.871   3.146   4.614  0.2853 -0.2035  0.8864
 3862ntf    on519044   2.185   3.012   4.476 -0.0005 -0.2924 -0.2269
 3862ntf    on519045   2.159   3.083   4.706 -0.1077 -0.7739  0.4384
 3862ntf    on519046   2.022   2.848   4.877 -0.2055  0.1152  0.2165
 3862ntf    on519047   2.024   2.661   4.713  0.7811  0.3042  0.2283
 3862ntf    fn419048   1.760   2.744   4.638 -0.3597  0.1194 -0.0154
 3862ntf    fn419049   1.765   2.721   4.853 -0.1352 -0.3496 -0.0649
 3862ntf    fn419050   1.753   2.913   4.760  0.1143  0.2795 -0.1320
 3863ntf    cn119051   1.414   6.740   0.065 -0.5144  0.4945 -0.0463
 3863ntf    sn219052   1.401   6.837   0.218 -0.3310  0.1935  0.1612
 3863ntf    nn319053   1.398   6.987   0.172 -0.4572  0.2298  0.2873
 3863ntf    sn219054   1.512   7.052   0.086 -0.4701  0.0719  0.1495
 3863ntf    cn119055   1.417   7.133  -0.046 -0.1232  0.1988 -0.0257
 3863ntf    fn419056   1.342   6.630   0.075 -0.3904  0.3711 -0.4777
 3863ntf    fn419057   1.351   6.807  -0.030 -0.8092  0.1377 -0.1056
 3863ntf    fn419058   1.533   6.705   0.020 -0.4214  0.5122  0.1837
 3863ntf    on519059   1.271   6.789   0.259 -0.1721 -0.2577  0.1410
 3863ntf    on519060   1.511   6.805   0.305 -0.4335  0.2165  0.3001
 3863ntf    on519061   1.614   6.969   0.026 -0.7115 -0.1415  0.0372
 3863ntf    on519062   1.570   7.166   0.154  0.4581 -0.2325 -0.1112
 3863ntf    fn419063   1.501   7.183  -0.135  0.2571  0.1332  0.2915
 3863ntf    fn419064   1.326   7.062  -0.111 -0.0475 -0.1896  0.2882
 3863ntf    fn419065   1.346   7.229   0.011 -0.3980 -0.2056  0.3173
 3864ntf    cn119066   5.428   5.915   2.870 -0.4501  0.1863  0.1169
 3864ntf    sn219067   5.413   6.096   2.860  0.1563  0.2361  0.0560
 3864ntf    nn319068   5.266   6.116   2.913  0.0902 -0.0838 -0.0060
 3864ntf    sn219069   5.140   6.135   2.822  0.4719 -0.0399 -0.5352
 3864ntf    cn119070   5.126   6.316   2.832 -0.1059 -0.1180  0.2044
 3864ntf    fn419071   5.326   5.854   2.813 -0.6139  0.4086  0.1667
 3864ntf    fn419072   5.542   5.875   2.817 -0.4884  0.1188  0.0858
 3864ntf    fn419073   5.436   5.859   2.990 -0.4540 -0.1083 -0.0210
 3864ntf    on519074   5.506   6.160   2.949 -0.4479  0.6352  0.4126
 3864ntf    on519075   5.428   6.130   2.720 -0.2630 -0.0583 -0.0624
 3864ntf    on519076   5.018   6.091   2.886  0.5871 -0.2820 -0.4813
 3864ntf    on519077   5.154   6.088   2.687  0.2225 -0.3029 -0.4722
 3864ntf    fn419078   5.234   6.377   2.788 -0.0581  0.1981  0.7494
 3864ntf    fn419079   5.030   6.378   2.767  0.1379  0.2542  0.1961
 3864ntf    fn419080   5.108   6.353   2.958  0.1621 -0.2125  0.2731
 3865ntf    cn119081   5.318   3.674   1.598 -0.0989  0.3826  0.2890
 3865ntf    sn219082   5.464   3.764   1.657 -0.0239  0.4802 -0.0436
 3865ntf    nn319083   5.471   3.878   1.549 -0.6917 -0.0506 -0.6527
 3865ntf    sn219084   5.448   4.031   1.578  0.0859 -0.0141 -0.2110
 3865ntf    cn119085   5.419   4.083   1.407 -0.3424 -0.3678 -0.2481
 3865ntf    fn419086   5.264   3.605   1.697  0.3263  0.1362  0.3542
 3865ntf    fn419087   5.226   3.749   1.540  0.1520  0.3930 -0.1019
 3865ntf    fn419088   5.353   3.590   1.501 -0.1645  0.7463 -0.0495
 3865ntf    on519089   5.431   3.801   1.792  1.2840  0.9437  0.1705
 3865ntf    on519090   5.572   3.671   1.633 -0.2359  0.1808  0.1620
 3865ntf    on519091   5.567   4.105   1.613  0.1030 -0.1163 -0.0472
 3865ntf    on519092   5.325   4.078   1.637  0.0863 -0.4788  0.1698
 3865ntf    fn419093   5.372   4.207   1.396  0.6402  0.1179  0.8100
 3865ntf    fn419094   5.538   4.080   1.350 -0.2023 -0.0264  0.0244
 3865ntf    fn419095   5.337   3.998   1.347 -0.3528 -0.4654 -0.0953
 3866ntf    cn119096   0.180   0.513   2.993 -0.3215 -0.1014  0.0389
 3866ntf    sn219097   0.133   0.566   3.161  0.1803  0.5110 -0.0115
 3866ntf    nn319098   0.174   0.440   3.246 -0.0963  0.6139  0.2744
 3866ntf    sn219099   0.109   0.378   3.375 -0.3630  0.0692 -0.1188
 3866ntf    cn119100  -0.010   0.256   3.311  0.0055 -0.1593 -0.3751
 3866ntf    fn419101   0.310   0.501   2.975 -0.2810  0.1124  0.1892
 3866ntf    fn419102   0.133   0.391   2.973 -0.1581 -0.1345 -0.1510
 3866ntf    fn419103   0.124   0.598   2.908 -0.1208  0.1814  0.1901
 3866ntf    on519104   0.224   0.676   3.178  0.1237  0.5402  0.1056
 3866ntf    on519105  -0.008   0.583   3.140  0.0128 -0.9928 -0.2235
 3866ntf    on519106   0.020   0.472   3.438 -0.2803 -0.2024  0.4093
 3866ntf    on519107   0.195   0.298   3.458 -0.3918  0.4702  0.2952
 3866ntf    fn419108  -0.060   0.180   3.407 -0.2963  0.3745 -0.1104
 3866ntf    fn419109  -0.115   0.304   3.246 -0.2659 -0.4191 -0.1308
 3866ntf    fn419110   0.052   0.169   3.233  0.3597 -0.1163 -0.1465
 3867ntf    cn119111   5.783   5.352   2.573 -0.0721 -0.2762 -0.2358
 3867ntf    sn219112   5.823   5.321   2.398  0.6514 -0.2626 -0.0772
 3867ntf    nn319113   5.959   5.399   2.401  0.3049  0.3330  0.1213
 3867ntf    sn219114   5.995   5.548   2.363  0.2994  0.3093  0.0231
 3867ntf    cn119115   6.106   5.520   2.222 -0.0502  0.1486 -0.2228
 3867ntf    fn419116   5.875   5.306   2.656  0.0627 -0.0868 -0.2784
 3867ntf    fn419117   5.750   5.478   2.600 -0.5189 -0.3902 -0.2479
 3867ntf    fn419118   5.672   5.286   2.600 -0.0775 -0.3012 -0.3211
 3867ntf    on519119   5.825   5.177   2.413  0.6436 -0.2382  0.1673
 3867ntf    on519120   5.721   5.369   2.309  0.5243 -0.6746 -0.1578
 3867ntf    on519121   6.081   5.606   2.464  0.5887 -0.2707  0.1162
 3867ntf    on519122   5.892   5.634   2.312 -0.0193 -0.0331  0.0817
 3867ntf    fn419123   6.032   5.478   2.121 -0.1862 -0.1464 -0.0012
 3867ntf    fn419124   6.160   5.630   2.172 -0.2857 -0.0372 -0.8858
 3867ntf    fn419125   6.204   5.434   2.240 -0.3023 -0.1580 -0.3156
 3868ntf    cn119126   0.726   1.724   3.157 -0.2036 -0.3299 -0.4920
 3868ntf    sn219127   0.760   1.893   3.098  0.0991 -0.0972  0.3426
 3868ntf    nn319128   0.613   1.946   3.112 -0.0947 -0.6270  0.3485
 3868ntf    sn219129   0.502   1.980   3.006  0.0510  0.4772  0.5350
 3868ntf    cn119130   0.526   2.151   2.950 -0.1594  0.4510  0.3640
 3868ntf    fn419131   0.827   1.679   3.230 -0.4860 -0.1995 -0.0215
 3868ntf    fn419132   0.614   1.714   3.226 -0.1489  0.1260 -0.3357
 3868ntf    fn419133   0.719   1.647   3.049  0.0650 -0.1692 -0.6268
 3868ntf    on519134   0.846   1.956   3.196 -0.3081  0.3481  0.4135
 3868ntf    on519135   0.811   1.884   2.964 -0.8810  0.3477 -0.0659
 3868ntf    on519136   0.370   1.980   3.064 -0.1846  0.3016  0.0011
 3868ntf    on519137   0.512   1.903   2.884 -0.0119  0.1664  0.7247
 3868ntf    fn419138   0.427   2.188   2.871  0.1668 -0.2234 -0.3768
 3868ntf    fn419139   0.535   2.243   3.044 -0.1007  0.6735  0.1401
 3868ntf    fn419140   0.630   2.150   2.869 -0.4111 -0.4708  0.0403
 3869ntf    cn119141   6.841   7.253   7.097  0.0627 -0.2179  0.2777
 3869ntf    sn219142   6.942   7.367   7.196  0.0123  0.4182 -0.3948
 3869ntf    nn319143   7.002   7.255   7.289 -0.1318  0.4039 -0.3192
 3869ntf    sn219144   6.959   7.212   7.434  0.4018  0.3422 -0.1797
 3869ntf    cn119145   6.995   7.035   7.413  0.2777  0.2739  0.1859
 3869ntf    fn419146   6.735   7.207   7.161  0.0921 -0.2519  0.3021
 3869ntf    fn419147   6.801   7.309   6.984 -0.0396 -0.2629  0.2917
 3869ntf    fn419148   6.911   7.147   7.062  0.4469  0.1886 -0.2058
 3869ntf    on519149   7.044   7.419   7.108  0.1509  0.7406 -0.0490
 3869ntf    on519150   6.852   7.464   7.254 -0.4428 -0.0419 -0.3268
 3869ntf    on519151   6.818   7.219   7.461  0.4191 -0.0007  0.0102
 3869ntf    on519152   7.054   7.250   7.535  0.7290 -0.0945 -0.3191
 3869ntf    fn419153   6.909   6.972   7.334  0.5390  0.3916 -0.1958
 3869ntf    fn419154   7.119   7.032   7.369  0.1248 -0.2987 -0.2228
 3869ntf    fn419155   6.994   6.980   7.534  0.1318 -0.3023 -0.0727
 3870ntf    cn119156   3.898   1.744   5.751 -0.1204  0.3837 -0.1498
 3870ntf    sn219157   3.985   1.889   5.685  0.2323  0.1617 -0.1726
 3870ntf    nn319158   4.078   1.921   5.808 -0.4031 -0.2282  0.4146
 3870ntf    sn219159   4.071   2.033   5.918  0.3053 -0.1175  0.3508
 3870ntf    cn119160   4.101   2.178   5.813 -0.2514 -0.5396 -0.4045
 3870ntf    fn419161   3.826   1.766   5.860 -0.2689  0.0255 -0.1728
 3870ntf    fn419162   3.814   1.690   5.664 -0.6170  0.2104  0.4325
 3870ntf    fn419163   3.980   1.648   5.792 -0.0546  0.2119 -0.6781
 3870ntf    on519164   4.052   1.839   5.568 -0.2620  0.2009 -0.4713
 3870ntf    on519165   3.875   1.978   5.659  0.0968  0.0471  0.0025
 3870ntf    on519166   4.178   2.041   6.015  0.2402 -0.1839  0.4290
 3870ntf    on519167   3.940   2.063   5.970  0.2491 -0.2476  0.2831
 3870ntf    fn419168   3.991   2.208   5.746 -0.3214 -0.2139 -0.1454
 3870ntf    fn419169   4.125   2.291   5.879  0.1008 -0.6453 -0.3494
 3870ntf    fn419170   4.194   2.161   5.721  0.1681  0.2659 -0.1432
 3871ntf    cn119171   0.971   7.268   3.586  0.1572  0.0255  0.0159
 3871ntf    sn219172   1.069   7.420   3.568  0.0158  0.1204  0.0447
 3871ntf    nn319173   1.104   7.410   3.415  0.1872  1.2685 -0.0030
 3871ntf    sn219174   1.237   7.391   3.333 -0.1616 -0.0452 -0.2947
 3871ntf    cn119175   1.233   7.218   3.280 -0.3634 -0.2201  0.2824
 3871ntf    fn419176   0.915   7.260   3.706 -0.4818  0.6945 -0.2342
 3871ntf    fn419177   0.869   7.268   3.502  0.2235  0.4019 -0.0685
 3871ntf    fn419178   1.038   7.158   3.555 -0.2345 -0.4526  0.8374
 3871ntf    on519179   0.976   7.522   3.609 -0.4688 -0.2663 -0.0842
 3871ntf    on519180   1.183   7.408   3.655  0.1608  0.4998 -0.0878
 3871ntf    on519181   1.355   7.390   3.416  0.0938 -0.7913 -0.6573
 3871ntf    on519182   1.244   7.465   3.209  0.6908  0.0040 -0.2182
 3871ntf    fn419183   1.155   7.214   3.173 -0.2162  0.6153  0.1408
 3871ntf    fn419184   1.348   7.175   3.229 -0.4913 -0.0455 -0.1504
 3871ntf    fn419185   1.193   7.136   3.376  0.2623 -0.6000  0.2315
 3872ntf    cn119186   1.529   3.694   0.254 -0.0524  0.1303 -0.0896
 3872ntf    sn219187   1.576   3.559   0.367  0.2159  0.0724 -0.2696
 3872ntf    nn319188   1.524   3.605   0.508 -0.7895 -0.2801 -0.5166
 3872ntf    sn219189   1.529   3.526   0.643  0.0265 -0.0090 -0.3849
 3872ntf    cn119190   1.668   3.608   0.728 -0.3680  0.2560  0.0121
 3872ntf    fn419191   1.401   3.724   0.263 -0.0517  0.0549  0.1917
 3872ntf    fn419192   1.603   3.800   0.281 -0.1120  0.0179  0.5262
 3872ntf    fn419193   1.555   3.665   0.127 -0.5324  0.7880 -0.3413
 3872ntf    on519194   1.508   3.441   0.319 -0.3230  0.1205  0.3658
 3872ntf    on519195   1.720   3.558   0.378  0.2041  0.7446 -0.0380
 3872ntf    on519196   1.568   3.388   0.626 -0.2789 -0.0821 -0.4802
 3872ntf    on519197   1.421   3.548   0.736  0.4126 -0.7149  0.2480
 3872ntf    fn419198   1.661   3.740   0.720 -0.3432  0.2443 -0.2192
 3872ntf    fn419199   1.663   3.581   0.857 -0.7825 -0.1184 -0.0808
 3872ntf    fn419200   1.790   3.582   0.683 -0.3601 -0.4117  0.4143
 3873ntf    cn119201   1.284   1.851   4.787  0.3300 -0.1283  0.1425
 3873ntf    sn219202   1.156   1.922   4.895 -0.0898 -0.3989 -0.1741
 3873ntf    nn319203   1.161   1.812   5.007  0.0720 -0.1126  0.1033
 3873ntf    sn219204   1.076   1.802   5.138 -0.1270 -0.4809 -0.0503
 3873ntf    cn119205   1.049   1.625   5.169 -0.0730 -0.5038 -0.1321
 3873ntf    fn419206   1.298   1.923   4.677  0.2848  0.2916  0.4112
 3873ntf    fn419207   1.406   1.834   4.836 -0.0618 -0.2051  1.1120
 3873ntf    fn419208   1.234   1.735   4.746 -0.1027 -0.0550  0.4567
 3873ntf    on519209   1.208   2.052   4.931  0.1828 -0.4121 -0.5086
 3873ntf    on519210   1.038   1.920   4.812 -0.4616  0.2657  0.3307
 3873ntf    on519211   0.944   1.855   5.116 -0.0997 -0.4104 -0.0453
 3873ntf    on519212   1.144   1.844   5.258 -0.0951 -0.1606 -0.1786
 3873ntf    fn419213   1.167   1.567   5.180  0.3553  0.4846  0.7179
 3873ntf    fn419214   0.975   1.611   5.278  0.0642  0.4426  0.0920
 3873ntf    fn419215   0.982   1.564   5.074 -0.7266 -0.0128  0.0043
 3874ntf    cn119216   6.525   1.607   0.029  0.0904  0.1232 -0.2240
 3874ntf    sn219217   6.669   1.718   0.028 -0.0396  0.3021  0.2363
 3874ntf    nn319218   6.690   1.755   0.179 -0.4750  0.8422  0.1657
 3874ntf    sn219219   6.811   1.717   0.271 -0.5198  0.2978  0.0039
 3874ntf    cn119220   6.774   1.551   0.337  0.6873  0.1162  0.2327
 3874ntf    fn419221   6.562   1.502   0.099  0.5135  0.4187 -0.0004
 3874ntf    fn419222   6.414   1.666   0.071 -0.0563 -0.2509 -0.0798
 3874ntf    fn419223   6.496   1.569  -0.094  0.5223 -0.0426 -0.2742
 3874ntf    on519224   6.771   1.628  -0.022 -0.6954 -0.7606  0.7790
 3874ntf    on519225   6.632   1.831  -0.054 -0.1589  0.3455  0.3515
 3874ntf    on519226   6.810   1.793   0.394  0.7322 -0.1089  0.2774
 3874ntf    on519227   6.943   1.705   0.216 -0.6478  0.8154 -0.4165
 3874ntf    fn419228   6.644   1.533   0.342  0.7264 -0.1487  0.2629
 3874ntf    fn419229   6.820   1.453   0.261  0.2537  0.2202 -0.1599
 3874ntf    fn419230   6.815   1.516   0.458  0.3155  0.1067  0.3545
 3875ntf    cn119231   2.358   1.864   0.311 -0.2900 -0.1848  0.5833
 3875ntf    sn219232   2.204   1.925   0.236  0.0705 -0.2224 -0.1975
 3875ntf    nn319233   2.211   1.872   0.088  0.2283 -0.3113 -0.1582
 3875ntf    sn219234   2.101   1.881  -0.023 -0.2266 -0.0302  0.3086
 3875ntf    cn119235   2.202   1.905  -0.173 -0.6353 -0.0885  0.0221
 3875ntf    fn419236   2.367   1.734   0.291  0.5256 -0.0841  0.2423
 3875ntf    fn419237   2.468   1.914   0.257 -0.3346 -0.3193  0.3664
 3875ntf    fn419238   2.370   1.890   0.440  0.0427  0.1303  0.4893
 3875ntf    on519239   2.113   1.852   0.321 -0.2869 -0.0638 -0.4387
 3875ntf    on519240   2.210   2.069   0.242 -0.2714 -0.1939 -0.5322
 3875ntf    on519241   2.021   2.001  -0.018 -0.2598  0.0148 -0.9078
 3875ntf    on519242   2.036   1.753  -0.040 -0.6961  0.2377  0.0419
 3875ntf    fn419243   2.280   1.803  -0.201  0.1076  0.5739 -0.3704
 3875ntf    fn419244   2.128   1.933  -0.279  0.7920 -0.2524 -1.0467
 3875ntf    fn419245   2.285   2.007  -0.157 -0.4972 -0.2450  0.2995
 3876ntf    cn119246   0.834   2.116   5.877  0.0181  0.2309  0.4829
 3876ntf    sn219247   0.679   2.148   5.787  0.2140 -0.1202  0.0102
 3876ntf    nn319248   0.726   2.242   5.671 -0.5895  0.0234 -0.2051
 3876ntf    sn219249   0.721   2.239   5.514  0.2746 -0.0457 -0.2373
 3876ntf    cn119250   0.545   2.280   5.491  0.2502  0.1445  0.2781
 3876ntf    fn419251   0.880   2.231   5.923  0.6934  0.1416  0.0477
 3876ntf    fn419252   0.815   2.045   5.987 -0.3011  0.1242  0.3623
 3876ntf    fn419253   0.929   2.063   5.801  0.0222  0.2240  0.4928
 3876ntf    on519254   0.638   2.018   5.739 -0.4319  0.2539 -0.4710
 3876ntf    on519255   0.596   2.215   5.885  0.0276  0.1437 -0.3285
 3876ntf    on519256   0.721   2.108   5.454  0.1268 -0.3782  0.4832
 3876ntf    on519257   0.785   2.349   5.447  0.4244 -0.1139 -0.2062
 3876ntf    fn419258   0.519   2.398   5.544  0.0625 -0.0321  0.5790
 3876ntf    fn419259   0.521   2.289   5.361 -0.3220 -0.0410  0.3703
 3876ntf    fn419260   0.466   2.191   5.550 -0.4900  0.4003 -0.3067
 3877ntf    cn119261   3.864   7.108   4.704 -0.1943 -0.3723 -0.1903
 3877ntf    sn219262   3.865   7.116   4.885  0.0229  0.0952 -0.2094
 3877ntf    nn319263   3.817   7.263   4.911 -0.1721  0.0887 -0.5309
 3877ntf    sn219264   3.672   7.307   4.953 -0.0346  0.0583 -0.0129
 3877ntf    cn119265   3.676   7.461   4.856 -0.2323  0.1730  0.1618
 3877ntf    fn419266   3.750   7.154   4.653 -0.2351 -0.3791 -0.1050
 3877ntf    fn419267   3.958   7.183   4.648 -0.0434 -0.1094  0.4052
 3877ntf    fn419268   3.879   6.986   4.656  0.3918 -0.4284  0.1419
 3877ntf    on519269   3.778   7.009   4.927 -0.0005  0.3030  0.2860
 3877ntf    on519270   4.003   7.100   4.922 -0.2655 -0.0095  0.8789
 3877ntf    on519271   3.649   7.343   5.091  0.3863  0.4255 -0.0359
 3877ntf    on519272   3.571   7.233   4.883  0.3278 -0.3243 -0.1340
 3877ntf    fn419273   3.552   7.505   4.845 -0.0437  0.6047 -0.2633
 3877ntf    fn419274   3.748   7.561   4.905  0.1549  0.0470 -0.1417
 3877ntf    fn419275   3.726   7.439   4.735  0.5002 -0.5821  0.5879
 3878ntf    cn119276   6.129   4.920   5.048  0.0542 -0.0654 -0.0023
 3878ntf    sn219277   6.146   4.740   5.025 -0.1613 -0.0960  0.0705
 3878ntf    nn319278   6.268   4.702   5.116 -0.0576  0.0883  0.0088
 3878ntf    sn219279   6.423   4.682   5.094 -0.0691  0.2638 -0.2403
 3878ntf    cn119280   6.459   4.529   5.185 -0.0077  0.2646 -0.2648
 3878ntf    fn419281   6.061   4.978   4.952  0.1315  0.4691  0.2644
 3878ntf    fn419282   6.058   4.949   5.156 -0.1094  0.4410 -0.2462
 3878ntf    fn419283   6.245   4.982   5.060  0.3742 -0.5395 -0.5993
 3878ntf    on519284   6.024   4.685   5.077  0.0212 -0.4927  0.0834
 3878ntf    on519285   6.164   4.717   4.884  0.6626  0.9016 -0.0012
 3878ntf    on519286   6.501   4.777   5.169 -0.5181 -0.2539  0.9251
 3878ntf    on519287   6.470   4.661   4.960 -0.2879 -0.3098 -0.2292
 3878ntf    fn419288   6.589   4.504   5.193 -0.0776 -0.1434 -0.3604
 3878ntf    fn419289   6.417   4.541   5.310  0.2518  0.1920 -0.1694
 3878ntf    fn419290   6.401   4.417   5.145 -0.3271  0.0879  0.6835
 3879ntf    cn119291   5.772   7.273   3.546 -0.4255 -0.0755  0.2197
 3879ntf    sn219292   5.924   7.233   3.638 -0.0987 -0.3710 -0.4427
 3879ntf    nn319293   5.968   7.092   3.585  0.8898 -0.3454  0.2781
 3879ntf    sn219294   6.052   7.065   3.455  0.1432 -0.0467 -0.2808
 3879ntf    cn119295   5.963   6.916   3.402 -0.4438  0.1605  0.1134
 3879ntf    fn419296   5.695   7.363   3.605  0.0176  0.2735  0.2682
 3879ntf    fn419297   5.802   7.321   3.426  0.2745 -0.1576  0.3582
 3879ntf    fn419298   5.702   7.163   3.522 -0.9386  0.1777  0.5393
 3879ntf    on519299   6.006   7.344   3.596 -0.3428  0.1111  0.3430
 3879ntf    on519300   5.884   7.236   3.776 -0.1716 -0.5699 -0.4584
 3879ntf    on519301   6.186   7.018   3.480  0.2249  0.6122  0.5640
 3879ntf    on519302   6.031   7.162   3.350 -0.4897 -0.2771 -0.3703
 3879ntf    fn419303   6.011   6.814   3.471  0.2711  0.0740 -0.5029
 3879ntf    fn419304   5.834   6.924   3.431 -0.4837  0.1416 -0.0557
 3879ntf    fn419305   5.965   6.893   3.272 -0.3351  0.1449  0.1181
 3880ntf    cn119306   1.905   3.739   4.254  0.2521 -0.3549  0.3189
 3880ntf    sn219307   2.047   3.641   4.198  0.1564 -0.3134 -0.0026
 3880ntf    nn319308   1.962   3.538   4.116 -0.4451  0.1382  0.0551
 3880ntf    sn219309   2.007   3.393   4.076  0.1174  0.3092  0.0682
 3880ntf    cn119310   1.911   3.284   4.185  0.5556 -0.0438  0.1066
 3880ntf    fn419311   1.919   3.810   4.365 -0.3167  0.1913  0.0474
 3880ntf    fn419312   1.866   3.816   4.153  0.4508 -0.4756  0.1490
 3880ntf    fn419313   1.797   3.668   4.282  0.3814 -0.6574  0.0538
 3880ntf    on519314   2.130   3.722   4.112  0.0288  0.4113  0.5560
 3880ntf    on519315   2.088   3.594   4.329  0.1277 -0.4715 -0.0499
 3880ntf    on519316   2.145   3.358   4.101 -0.0810 -0.4571  0.1128
 3880ntf    on519317   1.964   3.344   3.948  0.8469  0.1843 -0.1373
 3880ntf    fn419318   1.790   3.249   4.143  0.2189  0.0400  0.9892
 3880ntf    fn419319   1.984   3.175   4.203  0.5969 -0.1019 -0.3910
 3880ntf    fn419320   1.897   3.342   4.303  0.3417  0.1316 -0.0025
 3881ntf    cn119321   6.484   4.701   3.647 -0.1143  0.0387  0.4719
 3881ntf    sn219322   6.588   4.558   3.689 -0.4000 -0.3124 -0.0056
 3881ntf    nn319323   6.686   4.641   3.780 -0.1030 -0.5002 -0.1536
 3881ntf    sn219324   6.739   4.615   3.925 -0.5462  0.3116  0.1569
 3881ntf    cn119325   6.895   4.537   3.872 -0.4517  0.3085  0.4370
 3881ntf    fn419326   6.427   4.758   3.751  0.2713  0.3462  0.5171
 3881ntf    fn419327   6.561   4.792   3.589  0.3339 -0.3740  0.4171
 3881ntf    fn419328   6.385   4.669   3.565  0.3224 -0.0659 -0.0256
 3881ntf    on519329   6.500   4.464   3.754 -0.6100  0.2099  0.4735
 3881ntf    on519330   6.650   4.518   3.566  0.8357  0.8289  0.2244
 3881ntf    on519331   6.674   4.518   4.008  0.4980 -0.0925  0.5197
 3881ntf    on519332   6.770   4.745   3.979  0.4435  0.0841  0.1581
 3881ntf    fn419333   6.960   4.490   3.977 -0.1760  0.0555  0.1541
 3881ntf    fn419334   6.878   4.435   3.790 -0.2840 -0.0403  0.8266
 3881ntf    fn419335   6.975   4.616   3.804 -0.1753 -0.5107 -0.1997
 3882ntf    cn119336   6.553   7.123   6.941 -0.1295 -0.0394 -0.6397
 3882ntf    sn219337   6.415   7.096   6.826 -0.4049  0.1363 -0.3486
 3882ntf    nn319338   6.349   6.960   6.869  0.0389 -0.1007 -0.4225
 3882ntf    sn219339   6.199   6.915   6.877 -0.0598  0.3518  0.2715
 3882ntf    cn119340   6.222   6.752   6.801 -0.1334  0.4379  0.0664
 3882ntf    fn419341   6.638   7.024   6.919 -0.1449 -0.2115  0.0600
 3882ntf    fn419342   6.598   7.242   6.905 -0.4819  0.2476 -0.1392
 3882ntf    fn419343   6.508   7.134   7.064  0.7638  0.2131 -0.3246
 3882ntf    on519344   6.342   7.220   6.838 -0.6719  0.0082 -0.6302
 3882ntf    on519345   6.492   7.086   6.705  0.0075  0.2111 -0.0950
 3882ntf    on519346   6.105   6.988   6.795 -0.3762 -0.6784 -0.3005
 3882ntf    on519347   6.161   6.881   7.012  0.1366  0.1106  0.2665
 3882ntf    fn419348   6.321   6.682   6.852 -0.0147  0.2112 -0.4686
 3882ntf    fn419349   6.119   6.669   6.795 -0.0151  0.3027 -0.1315
 3882ntf    fn419350   6.244   6.770   6.671 -0.1436  0.0894  0.0152
 3883ntf    cn119351   2.265   0.558   0.818 -0.0006  0.0621 -0.1550
 3883ntf    sn219352   2.136   0.621   0.707  0.3257  0.4615 -0.3134
 3883ntf    nn319353   2.121   0.500   0.608 -0.4239  0.5252 -0.2903
 3883ntf    sn219354   2.193   0.482   0.470  0.0280 -0.3293  0.0455
 3883ntf    cn119355   2.177   0.309   0.415  0.2617 -0.2255 -0.3538
 3883ntf    fn419356   2.215   0.465   0.898 -0.2444 -0.0319 -0.4184
 3883ntf    fn419357   2.375   0.514   0.760  0.1171  0.2856 -0.1061
 3883ntf    fn419358   2.312   0.654   0.897 -0.0694 -0.0970  0.0823
 3883ntf    on519359   2.019   0.629   0.791  0.7168 -0.0507  0.2924
 3883ntf    on519360   2.186   0.744   0.652  0.3928  0.3026 -0.6108
 3883ntf    on519361   2.333   0.509   0.494 -0.3006  1.1987  0.3440
 3883ntf    on519362   2.133   0.555   0.361 -0.0873 -0.2877  0.1361
 3883ntf    fn419363   2.235   0.227   0.501  0.2481  0.1380  0.0101
 3883ntf    fn419364   2.049   0.281   0.403  0.2972 -0.5988  0.1415
 3883ntf    fn419365   2.236   0.285   0.299  0.2657  0.0509 -0.4108
 3884ntf    cn119366   3.603   3.792   6.624 -0.3179  0.1981 -0.2465
 3884ntf    sn219367   3.711   3.763   6.480 -0.1869  0.2810 -0.1649
 3884ntf    nn319368   3.773   3.625   6.524  0.0490  0.2961 -0.4515
 3884ntf    sn219369   3.710   3.482   6.510  0.1303  0.2430 -0.2715
 3884ntf    cn119370   3.810   3.410   6.377  0.2995 -0.1638  0.0716
 3884ntf    fn419371   3.528   3.900   6.606 -0.0672  0.3253 -0.5568
 3884ntf    fn419372   3.521   3.691   6.645 -0.2382  0.1252 -0.2882
 3884ntf    fn419373   3.671   3.817   6.735  0.1305 -0.0751 -0.4551
 3884ntf    on519374   3.623   3.768   6.366  0.5027  0.3869 -0.6912
 3884ntf    on519375   3.806   3.871   6.484  0.6839 -0.4769 -0.0726
 3884ntf    on519376   3.571   3.478   6.470  0.1595  1.0591 -0.4715
 3884ntf    on519377   3.745   3.395   6.619  0.0794  0.2768 -0.2278
 3884ntf    fn419378   3.938   3.392   6.401  0.1867 -0.3492  0.5361
 3884ntf    fn419379   3.777   3.290   6.333  0.2911 -0.0775 -0.1641
 3884ntf    fn419380   3.812   3.497   6.277 -0.4036 -0.2741 -0.0461
 3885ntf    cn119381   3.504   4.575   0.294  0.0014  0.1788  0.6679
 3885ntf    sn219382   3.379   4.490   0.395 -0.2119  0.2416  0.4608
 3885ntf    nn319383   3.460   4.381   0.474  0.1056  0.2689  0.1742
 3885ntf    sn219384   3.489   4.238   0.417 -0.1139  0.1945  0.2494
 3885ntf    cn119385   3.327   4.157   0.424 -0.0081 -0.0757 -0.3287
 3885ntf    fn419386   3.568   4.502   0.204 -0.3253  0.3577  0.2827
 3885ntf    fn419387   3.452   4.675   0.223  0.0637 -0.0265  0.3320
 3885ntf    fn419388   3.598   4.638   0.362  0.4936  0.0934  0.0736
 3885ntf    on519389   3.324   4.597   0.476 -0.4567  0.4677 -0.0033
 3885ntf    on519390   3.292   4.445   0.290  0.0368  0.1434  0.2971
 3885ntf    on519391   3.575   4.176   0.515 -0.3115 -0.2196  0.1656
 3885ntf    on519392   3.529   4.240   0.278  0.3551  0.5096  0.3877
 3885ntf    fn419393   3.346   4.026   0.420 -0.2770 -0.1230 -0.1317
 3885ntf    fn419394   3.269   4.183   0.541 -0.3122 -0.5346 -0.3707
 3885ntf    fn419395   3.243   4.190   0.327  0.4296 -0.1574 -0.7350
 3886ntf    cn119396   4.857   1.975   2.292 -0.0655  0.0442  0.3252
 3886ntf    sn219397   5.018   1.924   2.361  0.0280 -0.2272 -0.0888
 3886ntf    nn319398   5.086   1.886   2.225  0.0381  0.0910 -0.1730
 3886ntf    sn219399   5.241   1.901   2.199  0.0680  0.0350 -0.0239
 3886ntf    cn119400   5.281   1.734   2.257 -0.2761 -0.0352  0.0134
 3886ntf    fn419401   4.870   2.070   2.201  0.0364 -0.0730  0.2167
 3886ntf    fn419402   4.790   1.876   2.235 -0.0311  0.3280 -0.2167
 3886ntf    fn419403   4.775   2.022   2.384  0.0360  0.5405  0.1621
 3886ntf    on519404   5.055   2.050   2.420 -0.0772  0.1452 -0.8075
 3886ntf    on519405   4.982   1.809   2.440 -0.2664 -0.0074  0.0988
 3886ntf    on519406   5.322   1.988   2.281  0.1714  0.1648 -0.2616
 3886ntf    on519407   5.259   1.901   2.056 -1.0447 -0.1674 -0.1762
 3886ntf    fn419408   5.214   1.645   2.184 -0.4238 -0.0556  0.1722
 3886ntf    fn419409   5.406   1.696   2.237 -0.4668 -0.5506 -0.2157
 3886ntf    fn419410   5.254   1.708   2.384 -0.1821  0.0689  0.0538
 3887ntf    cn119411   5.355   2.642   5.309 -0.2756 -0.0411 -0.1794
 3887ntf    sn219412   5.362   2.552   5.467 -0.2804  0.1426 -0.0734
 3887ntf    nn319413   5.337   2.682   5.551  0.3254 -0.4089  0.9847
 3887ntf    sn219414   5.442   2.779   5.614  0.3813 -0.0435  0.3342
 3887ntf    cn119415   5.484   2.692   5.768 -0.0360  0.2800  0.6349
 3887ntf    fn419416   5.354   2.554   5.210  0.2027  0.1488 -0.3560
 3887ntf    fn419417   5.250   2.719   5.284 -0.2783  0.0733  0.1761
 3887ntf    fn419418   5.461   2.720   5.295  0.0741 -0.4644  0.0577
 3887ntf    on519419   5.253   2.457   5.469 -0.2332  0.0733 -0.6642
 3887ntf    on519420   5.496   2.499   5.468 -0.3026  0.0873  0.1592
 3887ntf    on519421   5.397   2.910   5.654  0.4030 -0.0749  0.4632
 3887ntf    on519422   5.563   2.781   5.535  0.4503  0.3408  0.4476
 3887ntf    fn419423   5.378   2.688   5.846  0.0416  0.8877  0.7746
 3887ntf    fn419424   5.510   2.565   5.741  0.2444  0.3801  0.4227
 3887ntf    fn419425   5.598   2.736   5.820  0.6273 -0.3585 -0.2329
 3888ntf    cn119426   5.537   1.787   4.953 -0.1069 -0.6945 -0.3764
 3888ntf    sn219427   5.433   1.808   4.806 -0.5237 -0.3154 -0.0290
 3888ntf    nn319428   5.538   1.836   4.692 -0.4360  0.1233  0.1599
 3888ntf    sn219429   5.535   1.955   4.590  0.3763 -0.0563 -0.0814
 3888ntf    cn119430   5.706   1.944   4.529  0.3758  0.2799 -0.1460
 3888ntf    fn419431   5.621   1.887   4.974 -0.2533 -0.7440  0.4636
 3888ntf    fn419432   5.476   1.755   5.066  0.7353  0.6964  0.4921
 3888ntf    fn419433   5.630   1.694   4.935  0.5198 -0.0972 -0.2818
 3888ntf    on519434   5.359   1.685   4.791 -0.5668 -0.3428  0.3918
 3888ntf    on519435   5.352   1.923   4.839  0.1883  0.2713 -0.2995
 3888ntf    on519436   5.530   2.092   4.634 -1.0497 -0.1200  0.0077
 3888ntf    on519437   5.465   1.914   4.471 -0.0776 -0.7577  0.4177
 3888ntf    fn419438   5.750   1.824   4.498 -0.0044  0.1438 -0.1604
 3888ntf    fn419439   5.725   2.011   4.417  0.2686 -0.4409 -0.6003
 3888ntf    fn419440   5.788   1.988   4.624  0.1498  0.5569 -0.0761
 3889ntf    cn119441   1.042   0.253   5.243  0.1279  0.3925  0.1006
 3889ntf    sn219442   0.915   0.249   5.373 -0.2452  0.0075 -0.2722
 3889ntf    nn319443   0.832   0.127   5.319 -0.4245  0.0887 -0.1824
 3889ntf    sn219444   0.739   0.018   5.383 -0.1335  0.1340  0.3227
 3889ntf    cn119445   0.858  -0.115   5.415 -0.0851  0.0146 -0.3373
 3889ntf    fn419446   1.148   0.316   5.290  0.1426  0.5146 -0.0957
 3889ntf    fn419447   1.075   0.131   5.206  0.6653  0.5959 -0.0976
 3889ntf    fn419448   1.000   0.314   5.133 -0.3876 -0.5434 -0.2378
 3889ntf    on519449   0.985   0.226   5.497  0.2940  0.2818 -0.5231
 3889ntf    on519450   0.842   0.371   5.351 -0.1511  0.1305  0.0917
 3889ntf    on519451   0.649  -0.036   5.283 -0.1056  0.3263  0.1927
 3889ntf    on519452   0.675   0.059   5.505 -0.0834  0.1911  0.3301
 3889ntf    fn419453   0.923  -0.085   5.526  0.1202 -0.0554 -0.4376
 3889ntf    fn419454   0.796  -0.231   5.436 -1.0746  0.5252 -0.3722
 3889ntf    fn419455   0.943  -0.133   5.315  0.0681 -0.6372 -0.1002
 3890ntf    cn119456   0.764   0.674   0.310 -0.2554 -0.0150 -0.2560
 3890ntf    sn219457   0.804   0.851   0.323  0.1446 -0.1195 -0.0234
 3890ntf    nn319458   0.711   0.913   0.213  0.5902  0.6698  0.0401
 3890ntf    sn219459   0.736   0.958   0.065  0.2011  0.1245 -0.1944
 3890ntf    cn119460   0.785   1.132   0.083  0.2456  0.0647  0.2739
 3890ntf    fn419461   0.812   0.608   0.415 -0.3649  0.9645  0.4298
 3890ntf    fn419462   0.633   0.661   0.304 -0.2884 -0.0543  0.3893
 3890ntf    fn419463   0.809   0.615   0.201 -0.2441 -0.7946  0.1575
 3890ntf    on519464   0.763   0.879   0.458 -0.0117 -0.2652 -0.0405
 3890ntf    on519465   0.946   0.855   0.297  0.0328 -0.3310 -0.6945
 3890ntf    on519466   0.615   0.961  -0.013 -0.1952 -0.9229  0.3577
 3890ntf    on519467   0.846   0.885   0.007 -0.3654 -0.5004 -0.4951
 3890ntf    fn419468   0.795   1.195  -0.033 -0.3095  0.2257  0.3107
 3890ntf    fn419469   0.690   1.196   0.149  0.2162  0.0180  0.2767
 3890ntf    fn419470   0.901   1.149   0.143  0.0223  0.1935  0.6738
 3891ntf    cn119471   5.943   6.566   6.399 -0.3084 -0.2216 -0.6642
 3891ntf    sn219472   5.993   6.392   6.413 -0.0408 -0.0958  0.0289
 3891ntf    nn319473   5.886   6.322   6.321 -0.1717  0.4707 -0.2532
 3891ntf    sn219474   5.824   6.180   6.345  0.0736  0.3580 -0.2936
 3891ntf    cn119475   5.881   6.099   6.192 -0.1503 -0.6193  0.1325
 3891ntf    fn419476   6.023   6.638   6.476 -0.8395 -0.0689 -0.2460
 3891ntf    fn419477   5.950   6.615   6.277  0.3322  0.8248 -0.2203
 3891ntf    fn419478   5.820   6.583   6.447  0.2483 -0.0737  0.7632
 3891ntf    on519479   6.128   6.399   6.362 -0.0306  0.3058  0.1086
 3891ntf    on519480   5.980   6.369   6.554 -0.2299  0.6753  0.1407
 3891ntf    on519481   5.682   6.177   6.321 -0.0126 -0.3483  0.2602
 3891ntf    on519482   5.880   6.093   6.445  0.0532  0.2405 -0.3837
 3891ntf    fn419483   5.799   6.125   6.091  0.4146 -0.5724 -0.3157
 3891ntf    fn419484   6.001   6.130   6.147 -0.1401  0.1434  0.6779
 3891ntf    fn419485   5.888   5.967   6.193 -0.4104 -0.6325  0.3599
 3892ntf    cn119486   1.513   0.877   2.339  0.2993  0.2251 -0.4457
 3892ntf    sn219487   1.503   0.885   2.521 -0.1217 -0.2551 -0.4470
 3892ntf    nn319488   1.354   0.935   2.527 -0.2303 -0.5875 -0.3591
 3892ntf    sn219489   1.268   0.958   2.656  0.1525  0.2086 -0.2421
 3892ntf    cn119490   1.100   0.990   2.596 -0.2206 -0.1611  0.5893
 3892ntf    fn419491   1.530   0.998   2.288 -0.3795  0.3667 -0.3371
 3892ntf    fn419492   1.621   0.809   2.305 -0.1987 -0.5408 -0.5160
 3892ntf    fn419493   1.415   0.815   2.276  0.6123 -0.7876  0.0444
 3892ntf    on519494   1.513   0.748   2.564 -0.3324 -0.3044 -0.5562
 3892ntf    on519495   1.605   0.981   2.555 -0.6216  0.2128 -0.2519
 3892ntf    on519496   1.302   1.083   2.719  0.8184 -0.1875  0.1901
 3892ntf    on519497   1.252   0.842   2.739 -0.1728 -0.1220 -0.7623
 3892ntf    fn419498   1.047   0.893   2.522  0.1800  0.1488 -0.1199
 3892ntf    fn419499   1.017   1.013   2.697 -0.6009 -0.5367  0.3669
 3892ntf    fn419500   1.100   1.102   2.524  0.2807 -0.2387  0.4704
 3893ntf    cn119501   0.882   0.131   1.340 -0.1304 -0.2014 -0.1649
 3893ntf    sn219502   0.914  -0.046   1.362  0.0562 -0.1720 -0.1997
 3893ntf    nn319503   1.015  -0.040   1.482 -0.4255 -0.7098  0.2366
 3893ntf    sn219504   1.147  -0.121   1.505  0.3311  0.4001 -0.1101
 3893ntf    cn119505   1.115  -0.156   1.681  0.0992 -0.5143 -0.3266
 3893ntf    fn419506   0.822   0.156   1.224  0.3174  0.2414 -0.3072
 3893ntf    fn419507   0.801   0.183   1.431  0.2320  0.3311 -0.1413
 3893ntf    fn419508   0.992   0.203   1.348  0.1339 -0.6057 -0.1578
 3893ntf    on519509   0.781  -0.095   1.389  0.0692 -0.1717 -0.1368
 3893ntf    on519510   0.966  -0.083   1.232  0.3416  0.3109 -0.2247
 3893ntf    on519511   1.261  -0.034   1.519  0.6450 -0.0677  0.2768
 3893ntf    on519512   1.161  -0.253   1.447 -0.4479  0.0246  0.5311
 3893ntf    fn419513   1.125  -0.050   1.760  0.2979 -0.6485 -0.1742
 3893ntf    fn419514   0.994  -0.211   1.688 -0.0837 -0.1717 -0.7372
 3893ntf    fn419515   1.204  -0.240   1.731  0.3563  0.1056  0.2772
 3894ntf    cn119516   2.908   1.551   6.152  0.0814  0.3704 -0.3787
 3894ntf    sn219517   3.085   1.514   6.137 -0.0119 -0.1883 -0.1534
 3894ntf    nn319518   3.142   1.659   6.163 -0.5288  0.0477 -0.3193
 3894ntf    sn219519   3.208   1.759   6.062  0.2821  0.0396  0.1999
 3894ntf    cn119520   3.369   1.682   6.027  0.0750 -0.1349 -0.3694
 3894ntf    fn419521   2.826   1.458   6.105 -0.3039  0.5145 -0.0079
 3894ntf    fn419522   2.872   1.556   6.279 -0.5038 -0.3897 -0.5052
 3894ntf    fn419523   2.870   1.664   6.095 -0.5616  0.7481  0.7595
 3894ntf    on519524   3.116   1.422   6.243  0.0231  0.1402  0.1248
 3894ntf    on519525   3.095   1.465   6.002  0.1726 -0.0395 -0.1956
 3894ntf    on519526   3.242   1.887   6.120 -0.3097 -0.0865  0.8273
 3894ntf    on519527   3.146   1.762   5.932  0.9896 -0.4320 -0.1589
 3894ntf    fn419528   3.353   1.550   6.025 -0.3207 -0.0967  0.0913
 3894ntf    fn419529   3.398   1.728   5.906  0.0396  0.0965 -0.2900
 3894ntf    fn419530   3.470   1.710   6.107 -0.4059  0.1323  0.1518
 3895ntf    cn119531   6.530   6.059   0.374  0.4016 -0.3748 -0.0422
 3895ntf    sn219532   6.588   6.220   0.435 -0.2843 -0.1569  0.0455
 3895ntf    nn319533   6.617   6.280   0.292  0.7331  0.1159  0.3550
 3895ntf    sn219534   6.724   6.247   0.182  0.0399  0.3426 -0.3975
 3895ntf    cn119535   6.767   6.420   0.146 -0.0120  0.3258 -0.5380
 3895ntf    fn419536   6.412   6.061   0.315 -0.0599  0.4822  0.8859
 3895ntf    fn419537   6.624   6.020   0.290  0.4316 -0.0748 -0.1502
 3895ntf    fn419538   6.512   5.964   0.464 -1.0567 -0.0295  0.0508
 3895ntf    on519539   6.478   6.296   0.489  0.5600  0.7550  0.5331
 3895ntf    on519540   6.703   6.192   0.518 -0.0666  0.6831  0.0374
 3895ntf    on519541   6.663   6.190   0.065  0.1084 -0.2850 -0.1326
 3895ntf    on519542   6.849   6.195   0.231  0.0721  0.5919 -0.2089
 3895ntf    fn419543   6.664   6.502   0.136 -0.4696 -0.1658  0.1499
 3895ntf    fn419544   6.831   6.473   0.249 -0.2401  0.3899 -0.4281
 3895ntf    fn419545   6.844   6.434   0.038 -0.1755  1.0158 -0.5716
 3896ntf    cn119546   5.879   2.827   4.726 -0.1560 -0.1051 -0.2787
 3896ntf    sn219547   5.903   2.957   4.601 -0.0052  0.1653  0.0299
 3896ntf    nn319548   6.058   2.986   4.599  0.0231  0.0590  0.4131
 3896ntf    sn219549   6.140   3.079   4.695  0.2867  0.0909  0.1584
 3896ntf    cn119550   6.200   3.197   4.571  0.0024  0.2881  0.2089
 3896ntf    fn419551   5.952   2.850   4.834 -0.3616  0.3481 -0.2338
 3896ntf    fn419552   5.755   2.822   4.775 -0.4349 -0.1353 -0.9827
 3896ntf    fn419553   5.911   2.706   4.684  0.8022 -0.3137  0.9935
 3896ntf    on519554   5.863   2.892   4.479 -0.0001  0.1317  0.0459
 3896ntf    on519555   5.824   3.070   4.643  0.2244  0.3675 -0.0818
 3896ntf    on519556   6.263   3.018   4.740  0.6529  0.8576  0.2133
 3896ntf    on519557   6.074   3.166   4.789 -0.0195 -0.4935  0.4964
 3896ntf    fn419558   6.113   3.285   4.523 -0.1350 -0.1305 -0.3174
 3896ntf    fn419559   6.309   3.268   4.598  0.1783  0.0486  0.1244
 3896ntf    fn419560   6.237   3.129   4.464 -0.1834  0.3292  0.1170
 3897ntf    cn119561   4.278   0.621   6.423 -0.0351 -0.3929 -0.0344
 3897ntf    sn219562   4.443   0.551   6.456  0.0537 -0.2435 -0.1575
 3897ntf    nn319563   4.486   0.654   6.565  0.2228 -0.4371 -0.0401
 3897ntf    sn219564   4.572   0.636   6.695 -0.0808  0.4188  0.2873
 3897ntf    cn119565   4.686   0.778   6.691  0.0547  0.2971 -0.2409
 3897ntf    fn419566   4.207   0.611   6.534 -0.0329 -0.0860 -0.0045
 3897ntf    fn419567   4.267   0.748   6.390  0.3504 -0.1497  0.7463
 3897ntf    fn419568   4.212   0.545   6.337 -0.1158 -0.2929 -0.0599
 3897ntf    on519569   4.404   0.420   6.504 -0.0981 -0.2553 -0.3109
 3897ntf    on519570   4.512   0.560   6.330 -0.3235  0.2697 -0.3285
 3897ntf    on519571   4.658   0.521   6.685 -0.0700  0.5072 -0.7022
 3897ntf    on519572   4.496   0.644   6.817 -0.9935  0.0425 -0.2546
 3897ntf    fn419573   4.627   0.896   6.703  0.4875  0.5144 -0.1971
 3897ntf    fn419574   4.775   0.775   6.789 -0.1567 -0.0892 -0.0606
 3897ntf    fn419575   4.762   0.782   6.583  0.2752 -0.2949 -0.1135
 3898ntf    cn119576   3.187   1.864   1.567  0.2621  0.3180 -0.0455
 3898ntf    sn219577   3.133   2.022   1.494 -0.0465  0.0465 -0.4127
 3898ntf    nn319578   3.264   2.107   1.513 -0.0384 -0.1037  0.2329
 3898ntf    sn219579   3.289   2.239   1.593  0.1018 -0.1489  0.2630
 3898ntf    cn119580   3.261   2.360   1.461  0.0726 -0.3504  0.0851
 3898ntf    fn419581   3.090   1.793   1.622  0.1695  0.4543 -0.0301
 3898ntf    fn419582   3.261   1.793   1.483  0.0944 -0.0392  0.1066
 3898ntf    fn419583   3.257   1.900   1.673  0.1966 -0.1309  0.1480
 3898ntf    on519584   3.107   1.983   1.358 -0.0423  0.3347 -0.4976
 3898ntf    on519585   3.018   2.053   1.575  0.2687 -0.4843  0.2437
 3898ntf    on519586   3.431   2.249   1.616  0.1170  0.3029 -0.0143
 3898ntf    on519587   3.197   2.270   1.700  0.0893 -0.0125  0.2137
 3898ntf    fn419588   3.273   2.487   1.498 -0.2125 -0.3335  0.1205
 3898ntf    fn419589   3.347   2.351   1.360  0.0026  0.1002 -0.0214
 3898ntf    fn419590   3.136   2.351   1.420  0.1554 -0.6065 -0.1113
 3899ntf    cn119591   2.680   6.404   5.553  0.1825  0.3229  0.1575
 3899ntf    sn219592   2.657   6.335   5.387 -0.0871  0.1716  0.2579
 3899ntf    nn319593   2.505   6.374   5.380 -0.2474 -0.4574  0.1334
 3899ntf    sn219594   2.448   6.515   5.342  0.1422 -0.3665 -0.1133
 3899ntf    cn119595   2.413   6.485   5.166 -0.2106 -0.5318 -0.0165
 3899ntf    fn419596   2.712   6.532   5.551 -0.3027  0.4394 -0.3185
 3899ntf    fn419597   2.571   6.395   5.627 -0.1127  0.1484 -0.2953
 3899ntf    fn419598   2.774   6.343   5.625 -0.1041 -0.4260 -0.0941
 3899ntf    on519599   2.754   6.402   5.305 -0.0198  0.3334  0.4692
 3899ntf    on519600   2.680   6.194   5.407 -0.3862  0.1073  0.1533
 3899ntf    on519601   2.534   6.631   5.346  0.4434 -0.5888 -0.0703
 3899ntf    on519602   2.318   6.550   5.394 -0.1278  0.1936 -1.1343
 3899ntf    fn419603   2.314   6.401   5.145 -0.4696 -0.2766  0.1750
 3899ntf    fn419604   2.374   6.596   5.105  0.2396 -0.8057 -0.8209
 3899ntf    fn419605   2.519   6.441   5.100  0.0641 -0.0586  0.0952
 3900ntf    cn119606   7.041   6.891   4.553 -0.2794  0.2843 -0.5360
 3900ntf    sn219607   6.916   6.759   4.542  0.0466 -0.0989  0.2471
 3900ntf    nn319608   6.996   6.638   4.481  0.0964  0.4129 -0.7302
 3900ntf    sn219609   7.000   6.577   4.337 -0.1877  0.0194 -0.5718
 3900ntf    cn119610   6.880   6.441   4.351  0.0119 -0.1105 -0.0993
 3900ntf    fn419611   7.131   6.858   4.645 -0.8830  0.2779  0.0650
 3900ntf    fn419612   7.107   6.922   4.443  0.1839  0.1692 -0.2898
 3900ntf    fn419613   6.983   7.004   4.588  0.6053  0.6605 -0.2728
 3900ntf    on519614   6.877   6.736   4.679  0.2211 -0.5978  0.2187
 3900ntf    on519615   6.816   6.811   4.452  0.3883  0.5310  0.2228
 3900ntf    on519616   7.130   6.521   4.311 -0.1362 -0.1060 -0.0536
 3900ntf    on519617   6.942   6.653   4.229  0.2803  0.3888 -0.5636
 3900ntf    fn419618   6.852   6.392   4.231  0.1491 -0.5880  0.0606
 3900ntf    fn419619   6.939   6.341   4.413  0.5741  0.3913  0.1797
 3900ntf    fn419620   6.763   6.464   4.408  0.0510  0.0614 -0.0886
 3901ntf    cn119621   2.190   1.312   6.859 -0.4107  0.3041 -0.0544
 3901ntf    sn219622   2.129   1.477   6.907  0.0510  0.4527  0.0261
 3901ntf    nn319623   2.145   1.553   6.771 -0.2590 -0.1869 -0.3761
 3901ntf    sn219624   2.272   1.637   6.730 -0.3223 -0.0057 -0.2028
 3901ntf    cn119625   2.235   1.797   6.809  0.2966 -0.0715  0.2221
 3901ntf    fn419626   2.251   1.259   6.964 -0.2979  0.3163 -0.1140
 3901ntf    fn419627   2.096   1.228   6.819  0.3333 -0.4533 -0.2176
 3901ntf    fn419628   2.281   1.323   6.764 -0.2498  0.2992  0.0978
 3901ntf    on519629   1.991   1.457   6.946  0.2988 -0.7566  0.3438
 3901ntf    on519630   2.221   1.514   7.012  0.2287 -0.1705  0.0937
 3901ntf    on519631   2.276   1.665   6.589  0.1592 -0.5478 -0.3028
 3901ntf    on519632   2.394   1.592   6.793 -0.1368  0.9177  0.1054
 3901ntf    fn419633   2.344   1.872   6.807 -0.0727  0.4656  0.3034
 3901ntf    fn419634   2.134   1.860   6.752  0.2698  0.5107  0.9093
 3901ntf    fn419635   2.207   1.784   6.937 -0.5421  0.2094  0.0718
 3902ntf    cn119636   3.192   5.989   6.272 -0.2559  0.1275 -0.2954
 3902ntf    sn219637   3.172   5.808   6.271 -0.1940  0.1153  0.3428
 3902ntf    nn319638   3.248   5.780   6.137  0.0471 -0.0947  0.5226
 3902ntf    sn219639   3.398   5.738   6.113  0.0597  0.2644 -0.0656
 3902ntf    cn119640   3.363   5.560   6.108  0.2032  0.2410 -0.2380
 3902ntf    fn419641   3.151   6.042   6.386 -0.1924 -0.3583 -0.0435
 3902ntf    fn419642   3.323   6.007   6.272 -0.3138  0.5531 -0.6720
 3902ntf    fn419643   3.140   6.057   6.171 -0.2538  0.8727  0.2048
 3902ntf    on519644   3.236   5.764   6.392  0.9838  0.0702 -0.2824
 3902ntf    on519645   3.029   5.791   6.258 -0.2926  0.9616  0.2953
 3902ntf    on519646   3.499   5.757   6.214  0.2382 -0.2587 -0.1461
 3902ntf    on519647   3.436   5.766   5.977 -0.0214  0.5743 -0.0248
 3902ntf    fn419648   3.293   5.531   6.217  0.7365 -0.1918 -0.0044
 3902ntf    fn419649   3.298   5.520   6.000 -0.3010  0.1542  0.0961
 3902ntf    fn419650   3.469   5.480   6.117 -0.1618 -0.2768 -0.4523
 3903ntf    cn119651   1.487   4.408   0.239 -0.0821  0.1863  0.0093
 3903ntf    sn219652   1.330   4.360   0.159  0.2088 -0.1534 -0.3620
 3903ntf    nn319653   1.347   4.205   0.142  0.2954 -0.2550  0.5863
 3903ntf    sn219654   1.236   4.097   0.168 -0.0925 -0.0631 -0.2563
 3903ntf    cn119655   1.241   3.988   0.022 -0.3380 -0.2807 -0.1047
 3903ntf    fn419656   1.505   4.338   0.349  0.5092  0.4957  0.1133
 3903ntf    fn419657   1.594   4.395   0.162 -0.2931 -0.4743 -0.1752
 3903ntf    fn419658   1.472   4.533   0.280  0.1196  0.0983  0.3523
 3903ntf    on519659   1.231   4.398   0.256  0.4796 -0.5181  0.0649
 3903ntf    on519660   1.327   4.431   0.034  0.2919 -0.4815 -0.5501
 3903ntf    on519661   1.102   4.149   0.158 -0.2223 -0.3915 -0.2484
 3903ntf    on519662   1.261   4.000   0.272 -0.4538  0.1655  0.0486
 3903ntf    fn419663   1.335   3.895   0.019 -0.3963 -0.3561  0.2739
 3903ntf    fn419664   1.126   3.924   0.009 -0.5811 -0.0064  0.6326
 3903ntf    fn419665   1.255   4.069  -0.082  0.5139 -0.0081  0.2075
 3904ntf    cn119666   5.624   4.410   5.384  0.1505 -0.1118 -0.1876
 3904ntf    sn219667   5.594   4.232   5.367 -0.1208 -0.0695 -0.1459
 3904ntf    nn319668   5.739   4.177   5.391 -0.2382 -0.2802  0.0765
 3904ntf    sn219669   5.836   4.106   5.291 -0.2376 -0.2077  0.0251
 3904ntf    cn119670   5.954   4.236   5.244 -0.0732 -0.2597  0.2997
 3904ntf    fn419671   5.748   4.440   5.346 -0.0584  0.1283 -0.6884
 3904ntf    fn419672   5.536   4.486   5.321  0.1021 -0.0266 -0.0203
 3904ntf    fn419673   5.611   4.454   5.508 -0.2533  0.1666 -0.3277
 3904ntf    on519674   5.504   4.204   5.476  0.0707 -0.3135 -0.0504
 3904ntf    on519675   5.538   4.230   5.234  0.5772 -0.2398 -0.4428
 3904ntf    on519676   5.788   4.075   5.158 -0.5127  0.4438 -0.0311
 3904ntf    on519677   5.919   4.005   5.351  0.0858 -0.0380 -0.1311
 3904ntf    fn419678   6.055   4.181   5.179 -0.2287 -0.4307  0.2026
 3904ntf    fn419679   5.901   4.327   5.165 -0.6741 -0.5570  0.3516
 3904ntf    fn419680   6.015   4.299   5.344 -0.1646 -0.0954  0.2522
 3905ntf    cn119681   3.685   6.007   2.800  0.2581  0.1133  0.2489
 3905ntf    sn219682   3.694   5.936   2.633  0.1830  0.2346  0.1928
 3905ntf    nn319683   3.812   5.833   2.645  0.3950  0.4086 -0.3528
 3905ntf    sn219684   3.820   5.678   2.669 -0.2067  0.4254 -0.0325
 3905ntf    cn119685   3.847   5.623   2.497 -0.5497  0.0833  0.0210
 3905ntf    fn419686   3.609   6.115   2.808 -0.1962 -0.1501 -0.4029
 3905ntf    fn419687   3.632   5.932   2.895 -0.3740  0.0310 -0.1622
 3905ntf    fn419688   3.807   6.038   2.841  0.3745 -0.0728  0.0489
 3905ntf    on519689   3.564   5.875   2.618 -0.1758  0.8690  0.6910
 3905ntf    on519690   3.736   6.045   2.548  0.4701  0.0490  0.0936
 3905ntf    on519691   3.702   5.600   2.699  0.6251 -0.5941  0.6498
 3905ntf    on519692   3.943   5.639   2.734 -0.0551 -0.0289 -0.5823
 3905ntf    fn419693   3.945   5.688   2.437 -0.2963 -0.5349 -0.2523
 3905ntf    fn419694   3.877   5.494   2.487  0.0257  0.2471 -0.4196
 3905ntf    fn419695   3.740   5.635   2.421  0.0433  0.2274 -0.7979
 3906ntf    cn119696   4.788   1.721   5.124 -0.0820  0.2465  0.3181
 3906ntf    sn219697   4.830   1.892   5.082  0.1282  0.1186  0.0024
 3906ntf    nn319698   4.775   1.903   4.935  0.5164 -0.1156 -0.1607
 3906ntf    sn219699   4.793   2.022   4.834  0.3256 -0.0060 -0.0646
 3906ntf    cn119700   4.617   2.071   4.836  0.3209 -0.0276  0.1028
 3906ntf    fn419701   4.810   1.629   5.032 -0.4869  0.2274  0.2403
 3906ntf    fn419702   4.858   1.681   5.229  0.1016  0.5870  0.3260
 3906ntf    fn419703   4.658   1.710   5.149 -0.1319  0.0169 -0.0345
 3906ntf    on519704   4.762   1.987   5.167 -0.4522  0.0051 -0.3296
 3906ntf    on519705   4.974   1.882   5.085  0.1854  0.8856  0.2926
 3906ntf    on519706   4.809   1.988   4.695  0.2642 -0.6283  0.0776
 3906ntf    on519707   4.866   2.136   4.884 -0.0621  0.0842  0.3119
 3906ntf    fn419708   4.549   2.007   4.743  0.4341  0.3480 -0.2449
 3906ntf    fn419709   4.555   2.041   4.949 -0.3579  0.3565 -0.1608
 3906ntf    fn419710   4.600   2.202   4.828  0.3933 -0.0543 -0.6074
 3907ntf    cn119711   6.946   1.371   2.812  0.5711  0.0302 -0.1534
 3907ntf    sn219712   7.091   1.280   2.751  0.4232 -0.2315 -0.1171
 3907ntf    nn319713   7.110   1.172   2.863 -0.6170  0.2213  0.5105
 3907ntf    sn219714   7.124   1.018   2.832 -0.0536  0.2950  0.3815
 3907ntf    cn119715   7.265   1.001   2.719 -0.1631  0.1995  0.2585
 3907ntf    fn419716   6.946   1.498   2.773 -0.0826  0.0081 -0.2392
 3907ntf    fn419717   6.833   1.323   2.763  0.6462  0.1445 -0.4438
 3907ntf    fn419718   6.932   1.368   2.943 -0.7324 -0.4165 -0.2957
 3907ntf    on519719   7.029   1.233   2.629  0.1169 -0.2207  0.0351
 3907ntf    on519720   7.203   1.371   2.743  0.3718 -0.1200  0.4329
 3907ntf    on519721   7.012   0.962   2.760  0.2093  0.1671  0.0697
 3907ntf    on519722   7.163   0.950   2.953  0.8255  0.2901  0.1012
 3907ntf    fn419723   7.246   1.046   2.597  0.3587 -0.4379 -0.0680
 3907ntf    fn419724   7.374   1.062   2.764 -0.1306  0.0442  0.3921
 3907ntf    fn419725   7.304   0.875   2.708 -0.6955  0.0616 -0.0335
 3908ntf    cn119726   0.720   1.512   3.664 -0.0918 -0.0324 -0.0594
 3908ntf    sn219727   0.839   1.383   3.617 -0.2347 -0.1572 -0.0775
 3908ntf    nn319728   0.804   1.352   3.467 -0.3801  0.2947 -0.1395
 3908ntf    sn219729   0.689   1.265   3.404 -0.2745 -0.1541  0.2815
 3908ntf    cn119730   0.601   1.394   3.311  0.0242  0.0028  0.2133
 3908ntf    fn419731   0.598   1.463   3.663 -0.2053  0.2421  0.0660
 3908ntf    fn419732   0.735   1.551   3.790 -0.0007  0.0184 -0.0857
 3908ntf    fn419733   0.717   1.619   3.586 -0.2464  0.2775  0.3630
 3908ntf    on519734   0.963   1.457   3.618 -0.0242 -0.5110  0.1505
 3908ntf    on519735   0.826   1.274   3.711 -0.3757  0.2808  0.4166
 3908ntf    on519736   0.590   1.200   3.486 -0.1974  0.4500  0.8541
 3908ntf    on519737   0.747   1.194   3.292 -0.2589  0.1230  0.1147
 3908ntf    fn419738   0.678   1.428   3.210 -0.4019 -0.5738 -0.3163
 3908ntf    fn419739   0.483   1.364   3.258  0.0505  0.3794 -0.0591
 3908ntf    fn419740   0.578   1.507   3.375 -0.0914  0.0037  0.1713
 3909ntf    cn119741   2.643   1.426   4.486  0.2812  0.5416  0.3395
 3909ntf    sn219742   2.526   1.364   4.610 -0.0626 -0.0201 -0.2604
 3909ntf    nn319743   2.621   1.290   4.710 -0.0226  0.1731 -0.1543
 3909ntf    sn219744   2.695   1.355   4.832 -0.0718 -0.2266  0.0909
 3909ntf    cn119745   2.580   1.313   4.966 -0.3211 -0.0177 -0.0549
 3909ntf    fn419746   2.716   1.526   4.531 -0.1426  0.8520  0.3416
 3909ntf    fn419747   2.727   1.331   4.449 -0.1783  0.5264 -0.7083
 3909ntf    fn419748   2.572   1.454   4.378  0.3384 -0.5769  0.0017
 3909ntf    on519749   2.455   1.479   4.661 -0.4055 -0.5712  0.5184
 3909ntf    on519750   2.451   1.264   4.537  0.2005 -0.1215 -0.3929
 3909ntf    on519751   2.716   1.497   4.841 -0.2252 -0.2365  0.6568
 3909ntf    on519752   2.812   1.273   4.851  0.2303  0.1830 -0.0001
 3909ntf    fn419753   2.565   1.181   4.969 -0.8260  0.0420  0.1452
 3909ntf    fn419754   2.613   1.343   5.091 -0.4503  0.0629 -0.0398
 3909ntf    fn419755   2.457   1.353   4.938 -0.3752  0.1731  0.4494
 3910ntf    cn119756   4.420   6.031   4.521 -0.0241  0.1158  0.3580
 3910ntf    sn219757   4.337   6.153   4.627 -0.2987  0.2644 -0.0274
 3910ntf    nn319758   4.382   6.100   4.768  0.7586  0.9317 -0.1064
 3910ntf    sn219759   4.391   6.181   4.902  0.2100  0.3540  0.2842
 3910ntf    cn119760   4.289   6.077   5.010 -0.1943 -0.0008 -0.4341
 3910ntf    fn419761   4.388   6.044   4.393 -0.0678  0.6450  0.4222
 3910ntf    fn419762   4.551   6.051   4.512  0.0010 -0.0991  0.2288
 3910ntf    fn419763   4.395   5.905   4.554  0.6096 -0.1222 -0.0446
 3910ntf    on519764   4.396   6.281   4.598  0.0307 -0.0153 -0.6175
 3910ntf    on519765   4.196   6.130   4.602 -0.3270  0.0904  0.2897
 3910ntf    on519766   4.324   6.309   4.905 -0.2490  0.1088  0.7218
 3910ntf    on519767   4.520   6.182   4.966 -0.0476  0.1885  0.8148
 3910ntf    fn419768   4.344   5.957   5.029  0.0525  0.1096 -0.4451
 3910ntf    fn419769   4.279   6.120   5.135 -0.3041  0.1633 -0.4990
 3910ntf    fn419770   4.165   6.057   4.968 -0.2688  0.2520 -0.3324
 3911ntf    cn119771   6.627   2.780   4.457 -0.3168 -0.0597 -0.5916
 3911ntf    sn219772   6.736   2.639   4.422  0.4006  0.3638 -0.0966
 3911ntf    nn319773   6.644   2.516   4.453  0.1209  0.7243  0.5057
 3911ntf    sn219774   6.631   2.437   4.588  0.0084 -0.1476 -0.0093
 3911ntf    cn119775   6.783   2.338   4.575  0.0182 -0.1171 -0.1324
 3911ntf    fn419776   6.603   2.789   4.587  0.2936 -0.1934 -0.4655
 3911ntf    fn419777   6.682   2.892   4.414 -0.3722  0.3133  0.3011
 3911ntf    fn419778   6.512   2.782   4.391 -0.1163  0.0689 -0.9421
 3911ntf    on519779   6.756   2.660   4.280  0.2790 -0.2710 -0.2151
 3911ntf    on519780   6.846   2.666   4.511 -0.3219  0.4290  0.7788
 3911ntf    on519781   6.524   2.340   4.592  0.1163 -0.2693 -0.0604
 3911ntf    on519782   6.645   2.522   4.703  0.2782  0.1425 -0.2557
 3911ntf    fn419783   6.784   2.258   4.469 -0.5963  0.4991 -0.6110
 3911ntf    fn419784   6.892   2.410   4.557  0.2141 -0.2847  0.3650
 3911ntf    fn419785   6.803   2.265   4.684  0.0711  0.6451  0.3804
 3912ntf    cn119786   3.631   1.053   0.320  0.0371  0.3778  0.0910
 3912ntf    sn219787   3.787   1.053   0.414 -0.0468  0.2479  0.2302
 3912ntf    nn319788   3.861   1.184   0.370 -0.6587  0.6868  0.4886
 3912ntf    sn219789   4.007   1.239   0.392 -0.3797  0.1385  0.0309
 3912ntf    cn119790   4.063   1.291   0.227  0.2416 -0.2531  0.1180
 3912ntf    fn419791   3.562   0.944   0.348  0.5385  0.1972  0.6272
 3912ntf    fn419792   3.562   1.165   0.336  0.0355  0.3459  0.3115
 3912ntf    fn419793   3.662   1.037   0.193  0.4885  0.2957  0.2083
 3912ntf    on519794   3.733   1.051   0.548 -0.2001 -0.1673  0.1631
 3912ntf    on519795   3.856   0.934   0.371 -0.4304  0.0798  0.0704
 3912ntf    on519796   4.103   1.137   0.427 -0.3187  0.2672  0.2407
 3912ntf    on519797   4.014   1.368   0.455 -0.2206  0.0774  0.1373
 3912ntf    fn419798   4.160   1.381   0.230  0.2389 -0.2409 -0.1866
 3912ntf    fn419799   4.111   1.193   0.152  0.0350  0.0472 -0.4082
 3912ntf    fn419800   3.982   1.356   0.146  0.5737  0.6189  0.4810
 3913ntf    cn119801   3.274   5.765   1.802  0.2510 -0.4029  0.1708
 3913ntf    sn219802   3.380   5.630   1.860  0.5208 -0.3651 -0.2298
 3913ntf    nn319803   3.371   5.653   2.015 -0.4086 -0.3787 -0.2753
 3913ntf    sn219804   3.299   5.574   2.130 -0.3419  0.1637  0.1476
 3913ntf    cn119805   3.133   5.646   2.135 -0.3013  0.2960 -0.3402
 3913ntf    fn419806   3.299   5.799   1.676  0.0647  0.0469  0.2505
 3913ntf    fn419807   3.147   5.729   1.810  0.0022  0.5501  0.7157
 3913ntf    fn419808   3.291   5.880   1.864  1.0409 -0.4881  0.1168
 3913ntf    on519809   3.329   5.503   1.814 -0.4025  0.2571 -0.9717
 3913ntf    on519810   3.505   5.679   1.807  0.2789  0.0513 -0.4191
 3913ntf    on519811   3.351   5.592   2.263  0.2763  0.2750 -0.1034
 3913ntf    on519812   3.267   5.437   2.096 -0.5210  0.0739  0.6845
 3913ntf    fn419813   3.061   5.613   2.241  0.1484  0.2344 -0.0499
 3913ntf    fn419814   3.138   5.779   2.139 -0.6172  0.2956  0.1330
 3913ntf    fn419815   3.073   5.617   2.021 -0.0089  0.2804 -0.4912
 3914ntf    cn119816   1.288   0.614   5.565  0.0613 -0.0907 -0.7435
 3914ntf    sn219817   1.445   0.702   5.541  0.0204  0.0718 -0.4167
 3914ntf    nn319818   1.398   0.850   5.561  0.0692  0.0758 -0.3312
 3914ntf    sn219819   1.453   0.944   5.675 -0.3630  0.0093 -0.0664
 3914ntf    cn119820   1.357   0.906   5.824 -0.0520  0.1002  0.1573
 3914ntf    fn419821   1.253   0.623   5.692  0.2677 -0.2124 -0.6773
 3914ntf    fn419822   1.184   0.663   5.501 -0.4370  0.0375  0.1478
 3914ntf    fn419823   1.305   0.484   5.545 -0.0661 -0.2322  0.0432
 3914ntf    on519824   1.536   0.644   5.637 -0.3214  0.2751  0.0330
 3914ntf    on519825   1.486   0.666   5.407  0.4172  0.3244 -0.3661
 3914ntf    on519826   1.418   1.081   5.648 -0.4199  0.0174  0.0488
 3914ntf    on519827   1.591   0.921   5.706 -0.2073  0.4889 -0.3817
 3914ntf    fn419828   1.348   0.776   5.848  0.1054 -0.0088 -0.3812
 3914ntf    fn419829   1.406   0.955   5.937  0.0739 -0.2480  0.2569
 3914ntf    fn419830   1.234   0.956   5.816 -0.4129 -0.8002 -0.0759
 3915ntf    cn119831   4.227   6.891   5.658 -0.2741 -0.6745 -0.1091
 3915ntf    sn219832   4.118   7.004   5.749  0.1372 -0.2149 -0.1848
 3915ntf    nn319833   4.075   7.101   5.633  0.8342 -0.0931 -0.3478
 3915ntf    sn219834   4.145   7.231   5.580  0.2720  0.5030  0.3375
 3915ntf    cn119835   4.035   7.354   5.657  0.0879  0.2981  0.4003
 3915ntf    fn419836   4.300   6.943   5.561  0.2848 -0.1229  0.5943
 3915ntf    fn419837   4.313   6.839   5.745 -0.5622 -0.1368  0.5091
 3915ntf    fn419838   4.159   6.792   5.603 -0.4267 -0.0112 -1.1253
 3915ntf    on519839   4.008   6.925   5.798  0.1936  0.0836  0.4338
 3915ntf    on519840   4.211   7.057   5.846 -0.3616 -0.0334  0.2016
 3915ntf    on519841   4.115   7.244   5.440 -0.4670  0.2846  0.4752
 3915ntf    on519842   4.280   7.257   5.626  0.2192  0.2219  0.6561
 3915ntf    fn419843   4.029   7.337   5.788 -0.0756 -0.5497  0.2925
 3915ntf    fn419844   4.082   7.477   5.642 -0.4725  0.4836  0.1544
 3915ntf    fn419845   3.910   7.338   5.616  0.1392  0.7163  0.0746
 3916ntf    cn119846   5.370   1.978   0.550 -0.2548 -0.0754  0.1982
 3916ntf    sn219847   5.224   1.911   0.636 -0.2149 -0.0578  0.2797
 3916ntf    nn319848   5.254   1.758   0.649  0.4333  0.0271 -0.1546
 3916ntf    sn219849   5.224   1.640   0.550 -0.1975 -0.0469  0.1184
 3916ntf    cn119850   5.054   1.592   0.592 -0.3083 -0.1026 -0.3843
 3916ntf    fn419851   5.484   1.946   0.610 -0.2676 -0.7619 -0.1301
 3916ntf    fn419852   5.382   1.931   0.427  0.7793 -0.1971  0.3388
 3916ntf    fn419853   5.362   2.109   0.532  0.5509 -0.0368  0.0795
 3916ntf    on519854   5.230   1.981   0.762 -0.2728  0.0144  0.2426
 3916ntf    on519855   5.115   1.950   0.551 -0.1308 -0.0594  0.1701
 3916ntf    on519856   5.310   1.530   0.587 -0.6492 -0.4629 -0.0549
 3916ntf    on519857   5.243   1.672   0.410 -0.0920  0.5557  0.2688
 3916ntf    fn419858   4.968   1.685   0.556 -0.1479  0.1632 -0.0911
 3916ntf    fn419859   5.030   1.473   0.538 -0.0432 -0.3388  0.0112
 3916ntf    fn419860   5.044   1.581   0.723 -0.3999 -0.0926 -0.3907
 3917ntf    cn119861   5.416   6.141   1.577  0.2027  0.2861 -0.5251
 3917ntf    sn219862   5.446   6.013   1.702 -0.1930  0.3509 -0.3606
 3917ntf    nn319863   5.434   5.879   1.621  0.1307 -0.1973  0.4851
 3917ntf    sn219864   5.533   5.799   1.529 -0.0712  0.1599 -0.0456
 3917ntf    cn119865   5.413   5.714   1.422  0.1543  0.0501 -0.2112
 3917ntf    fn419866   5.378   6.262   1.617  0.6225 -0.0049  0.7649
 3917ntf    fn419867   5.525   6.151   1.503  0.7546  0.6200  0.3239
 3917ntf    fn419868   5.322   6.104   1.491 -0.3904  0.9115 -0.1625
 3917ntf    on519869   5.576   6.027   1.762 -0.6471 -0.1266  0.7637
 3917ntf    on519870   5.344   6.032   1.802 -0.0790  0.2498 -0.2245
 3917ntf    on519871   5.604   5.689   1.588 -0.0972  0.5575  0.7449
 3917ntf    on519872   5.610   5.876   1.434 -0.4815  0.3378 -0.2376
 3917ntf    fn419873   5.321   5.646   1.487  0.1491  0.1473 -0.1180
 3917ntf    fn419874   5.333   5.788   1.346 -0.5285 -0.0911  0.3636
 3917ntf    fn419875   5.467   5.637   1.329 -0.1713 -0.1139 -0.2674
 3918ntf    cn119876   6.899   2.462   0.413 -0.3139  0.1496  0.3739
 3918ntf    sn219877   6.773   2.331   0.416 -0.1601 -0.0084 -0.1318
 3918ntf    nn319878   6.837   2.242   0.529 -0.4328  0.2968  0.2636
 3918ntf    sn219879   6.813   2.221   0.682  0.7250  0.3057  0.4528
 3918ntf    cn119880   6.951   2.116   0.737  0.5157 -0.1316  0.1494
 3918ntf    fn419881   6.892   2.545   0.311  0.2436 -0.0511  0.1685
 3918ntf    fn419882   6.902   2.544   0.517  0.0038  0.0844  0.4165
 3918ntf    fn419883   7.019   2.407   0.403 -0.3005  0.2441  0.0171
 3918ntf    on519884   6.651   2.403   0.441 -0.4138 -0.3001 -0.5126
 3918ntf    on519885   6.781   2.268   0.286  0.0571 -0.5667  0.1473
 3918ntf    on519886   6.697   2.142   0.714  0.0802  1.1107  0.1199
 3918ntf    on519887   6.837   2.342   0.756  0.1966  0.3335  0.5793
 3918ntf    fn419888   7.064   2.174   0.701  0.1129  0.2499 -0.5106
 3918ntf    fn419889   6.960   2.096   0.867 -0.1401  0.1487  0.2413
 3918ntf    fn419890   6.951   1.994   0.685 -0.0643 -0.1779  0.2573
 3919ntf    cn119891   2.162   1.195   6.271  0.1933 -0.1433  0.3686
 3919ntf    sn219892   2.121   1.040   6.357 -0.0022 -0.1856  0.1982
 3919ntf    nn319893   2.133   0.946   6.232  0.3241  0.7237 -0.4644
 3919ntf    sn219894   2.022   0.908   6.127  0.0598 -0.1541  0.1303
 3919ntf    cn119895   1.982   0.739   6.181 -0.1248 -0.0787  0.2342
 3919ntf    fn419896   2.215   1.279   6.359  0.3881 -0.2402  0.3437
 3919ntf    fn419897   2.249   1.184   6.172 -0.3536 -0.3114 -0.0991
 3919ntf    fn419898   2.065   1.263   6.212  0.5239  0.0199  0.0104
 3919ntf    on519899   2.236   1.010   6.438 -0.3078 -0.9245  0.3611
 3919ntf    on519900   1.992   1.057   6.419  0.1328 -0.7044  0.6237
 3919ntf    on519901   2.075   0.900   5.994 -0.3782  0.0188 -0.0554
 3919ntf    on519902   1.894   0.974   6.139 -0.0351 -0.3160  0.0152
 3919ntf    fn419903   2.081   0.662   6.137 -0.3935 -0.1312 -0.2891
 3919ntf    fn419904   1.968   0.721   6.311 -0.0145 -0.2818  0.2186
 3919ntf    fn419905   1.873   0.697   6.119  0.3278 -0.5456 -0.2619
 3920ntf    cn119906   6.506   1.456   3.038 -0.2469 -0.0382  0.3772
 3920ntf    sn219907   6.386   1.460   3.174 -0.2372  0.3538  0.3738
 3920ntf    nn319908   6.442   1.577   3.263 -0.1015  0.4596  0.1527
 3920ntf    sn219909   6.510   1.565   3.404 -0.1566 -0.0211  0.1418
 3920ntf    cn119910   6.651   1.680   3.395 -0.1133 -0.1167 -0.3935
 3920ntf    fn419911   6.630   1.442   3.082 -0.3427 -0.7810  0.4242
 3920ntf    fn419912   6.481   1.359   2.951  0.1511 -0.1838  0.4195
 3920ntf    fn419913   6.512   1.572   2.974 -0.0886  0.0550  0.5593
 3920ntf    on519914   6.268   1.501   3.101 -0.2074  0.4104  0.3566
 3920ntf    on519915   6.397   1.327   3.228  0.2770  0.3697  0.3143
 3920ntf    on519916   6.579   1.444   3.442  0.1229 -0.1448 -0.7319
 3920ntf    on519917   6.422   1.614   3.508 -0.2709 -0.0187  0.0443
 3920ntf    fn419918   6.615   1.808   3.390  0.0549 -0.0489  0.0903
 3920ntf    fn419919   6.725   1.663   3.503 -0.5116  0.1454 -0.0738
 3920ntf    fn419920   6.718   1.649   3.285  0.2071 -0.3061 -0.1442
 3921ntf    cn119921   2.130   0.337   6.253  0.0261 -0.2656  0.1551
 3921ntf    sn219922   2.307   0.299   6.244  0.0356 -0.1856  0.0037
 3921ntf    nn319923   2.359   0.337   6.387  0.0657 -0.3046  0.0238
 3921ntf    sn219924   2.388   0.248   6.514 -0.1710 -0.4686 -0.0368
 3921ntf    cn119925   2.558   0.193   6.480  0.0419  0.0005  0.2485
 3921ntf    fn419926   2.060   0.301   6.146  0.3079 -0.0716 -0.0958
 3921ntf    fn419927   2.077   0.283   6.362  0.2144 -0.5159  0.1230
 3921ntf    fn419928   2.117   0.468   6.257  0.3296 -0.1855 -0.9932
 3921ntf    on519929   2.300   0.158   6.217  0.0492 -0.1594 -0.1351
 3921ntf    on519930   2.353   0.386   6.139  0.1790  0.1776  0.3656
 3921ntf    on519931   2.309   0.129   6.532 -0.8643 -0.0130  0.0143
 3921ntf    on519932   2.412   0.318   6.637  0.7647 -0.6996 -0.0844
 3921ntf    fn419933   2.641   0.292   6.454  0.2034 -0.1964  0.0013
 3921ntf    fn419934   2.622   0.130   6.577  0.0087 -0.3795  0.0295
 3921ntf    fn419935   2.575   0.108   6.380  0.5773  0.1300  0.2308
 3922ntf    cn119936   5.709   3.110   1.695 -0.0173  0.0858  0.5369
 3922ntf    sn219937   5.829   3.006   1.783  0.2549 -0.0536  0.0049
 3922ntf    nn319938   5.809   2.869   1.709 -0.5878  0.0231  0.0810
 3922ntf    sn219939   5.818   2.722   1.765 -0.1329  0.1140  0.2472
 3922ntf    cn119940   5.673   2.641   1.691  0.0011 -0.0251  0.1383
 3922ntf    fn419941   5.749   3.151   1.576  0.0002 -0.8541  0.2052
 3922ntf    fn419942   5.584   3.066   1.682  0.0840 -0.0168 -0.1431
 3922ntf    fn419943   5.701   3.223   1.763  0.0293 -0.0266  0.7274
 3922ntf    on519944   5.957   3.065   1.751  0.3513 -0.2885 -0.0432
 3922ntf    on519945   5.773   3.022   1.914  0.3552  0.0551  0.0348
 3922ntf    on519946   5.776   2.702   1.902 -0.2235 -0.5646  0.1238
 3922ntf    on519947   5.923   2.635   1.720 -0.2629  0.4444 -0.7069
 3922ntf    fn419948   5.650   2.519   1.737 -0.4926  0.1858  0.4584
 3922ntf    fn419949   5.569   2.717   1.720  0.4174  0.4422  0.4431
 3922ntf    fn419950   5.679   2.637   1.559 -0.4569  0.4689  0.0978
 3923ntf    cn119951   5.050   1.180   4.792  0.2770  0.1917 -0.0350
 3923ntf    sn219952   4.930   1.208   4.926 -0.0938  0.2100 -0.3689
 3923ntf    nn319953   4.807   1.125   4.875  0.1876 -0.5798  0.2394
 3923ntf    sn219954   4.688   1.161   4.779  0.0983  0.2603  0.6555
 3923ntf    cn119955   4.550   1.078   4.864 -0.0534 -0.2715 -0.1035
 3923ntf    fn419956   5.058   1.051   4.767 -0.2801  0.1954 -0.2616
 3923ntf    fn419957   5.009   1.231   4.676  0.2810 -0.2525 -0.2314
 3923ntf    fn419958   5.171   1.226   4.818  0.4022 -0.0637 -0.1607
 3923ntf    on519959   5.005   1.148   5.033  0.2524  0.0150 -0.7195
 3923ntf    on519960   4.921   1.352   4.924 -0.4675  0.1887 -0.2539
 3923ntf    on519961   4.688   1.084   4.657  0.1320  0.4303  0.5482
 3923ntf    on519962   4.651   1.299   4.766 -0.3072  0.0654 -0.3440
 3923ntf    fn419963   4.567   0.952   4.900  0.4008 -0.1785  0.0103
 3923ntf    fn419964   4.532   1.136   4.982  0.4687 -0.4378  0.0612
 3923ntf    fn419965   4.438   1.078   4.794  0.1832 -0.4098 -0.4859
 3924ntf    cn119966   5.234   4.359   2.374 -0.3705 -0.0447  0.4543
 3924ntf    sn219967   5.268   4.212   2.475  0.4401 -0.0509  0.1759
 3924ntf    nn319968   5.246   4.276   2.616  0.1650 -0.1564  0.1818
 3924ntf    sn219969   5.232   4.205   2.755  0.2597  0.3372  0.4473
 3924ntf    cn119970   5.387   4.241   2.843  0.6386  0.0868 -0.1155
 3924ntf    fn419971   5.109   4.403   2.377 -0.4729 -0.3203  0.1950
 3924ntf    fn419972   5.298   4.462   2.427 -0.2926  0.1425  0.0037
 3924ntf    fn419973   5.267   4.347   2.246 -1.2029  0.0714  0.2240
 3924ntf    on519974   5.165   4.122   2.429 -0.2233  0.6981  0.1817
 3924ntf    on519975   5.405   4.179   2.442  0.1221 -0.8372 -0.4176
 3924ntf    on519976   5.224   4.061   2.762 -0.3240  0.3627  0.3646
 3924ntf    on519977   5.138   4.277   2.837  0.2440  0.5644  0.2319
 3924ntf    fn419978   5.383   4.221   2.974  0.1552  0.2455 -0.1029
 3924ntf    fn419979   5.485   4.176   2.783  0.0972 -0.9421  0.0925
 3924ntf    fn419980   5.443   4.360   2.828  0.9000  0.0163  0.2817
 3925ntf    cn119981   4.985   5.975   3.506  0.1372  0.3872 -0.2302
 3925ntf    sn219982   4.813   5.954   3.563  0.2988  0.0329  0.1284
 3925ntf    nn319983   4.755   6.092   3.514  0.2928 -0.0518 -0.1038
 3925ntf    sn219984   4.727   6.222   3.596  0.0419 -0.2024  0.0489
 3925ntf    cn119985   4.593   6.287   3.491  0.1822  0.0383  0.0172
 3925ntf    fn419986   4.994   5.953   3.376 -0.0898 -0.8346 -0.0526
 3925ntf    fn419987   5.036   6.092   3.539  0.6762 -0.1298  0.8064
 3925ntf    fn419988   5.062   5.887   3.567 -0.0413 -0.1700 -0.7962
 3925ntf    on519989   4.756   5.851   3.481  0.5424 -0.3978  0.4955
 3925ntf    on519990   4.809   5.933   3.706  0.1267  0.2984  0.1624
 3925ntf    on519991   4.830   6.322   3.590  0.0393 -0.1500  0.7549
 3925ntf    on519992   4.667   6.208   3.727 -0.1163  0.2449  0.0269
 3925ntf    fn419993   4.538   6.392   3.551  0.3310  0.2616 -0.2390
 3925ntf    fn419994   4.640   6.328   3.375  0.4581 -0.0653  0.0923
 3925ntf    fn419995   4.494   6.201   3.474 -0.0647  0.2981  0.1427
 3926ntf    cn119996   2.052   1.049   4.909  0.1921 -0.1425  0.4564
 3926ntf    sn219997   1.997   1.164   5.038 -0.3219  0.0695  0.0540
 3926ntf    nn319998   1.854   1.108   5.067 -0.4263  0.0567 -0.4841
 3926ntf    sn219999   1.783   1.089   5.206  0.0496 -0.0181 -0.2506
 3926ntf    cn120000   1.636   1.193   5.186  0.1792  0.2104 -0.0171
 3926ntf    fn420001   1.954   1.031   4.822 -0.0968  0.6488  0.6156
 3926ntf    fn420002   2.161   1.088   4.846  0.0685 -0.1971  0.2074
 3926ntf    fn420003   2.075   0.922   4.941  0.0744 -0.2477  0.1280
 3926ntf    on520004   2.101   1.144   5.136  0.0648 -0.7726 -0.5186
 3926ntf    on520005   1.989   1.291   4.969  0.5882  0.2060  0.1833
 3926ntf    on520006   1.842   1.154   5.320 -0.0043 -0.0288 -0.2172
 3926ntf    on520007   1.738   0.954   5.227  0.3100  0.0165  0.5394
 3926ntf    fn420008   1.670   1.320   5.202  0.4201  0.1699 -0.2033
 3926ntf    fn420009   1.581   1.175   5.067  0.6942 -0.2473 -0.1910
 3926ntf    fn420010   1.549   1.164   5.281  0.4637 -0.0085  0.1734
 3927ntf    cn120011   4.713   5.660   6.349 -0.1252 -0.0628 -0.1329
 3927ntf    sn220012   4.863   5.712   6.438 -0.0514 -0.2740 -0.1336
 3927ntf    nn320013   4.951   5.584   6.416  0.3924  0.0938 -0.5111
 3927ntf    sn220014   5.053   5.496   6.498 -0.1335  0.2219  0.2807
 3927ntf    cn120015   4.943   5.354   6.528  0.2627 -0.0849  0.2815
 3927ntf    fn420016   4.697   5.706   6.226  0.0921  0.3150 -0.0211
 3927ntf    fn420017   4.706   5.528   6.352 -0.4708 -0.0497 -0.3440
 3927ntf    fn420018   4.612   5.694   6.427  0.2587 -0.0172  0.3481
 3927ntf    on520019   4.923   5.821   6.366 -0.4389  0.3721  0.5166
 3927ntf    on520020   4.818   5.737   6.573  0.0514 -0.9797  0.0396
 3927ntf    on520021   5.097   5.534   6.630 -0.2838  0.0630  0.3776
 3927ntf    on520022   5.154   5.443   6.411 -0.2260 -0.1151  0.3760
 3927ntf    fn420023   5.000   5.257   6.595 -0.1335 -0.6147 -0.1385
 3927ntf    fn420024   4.834   5.387   6.595  0.0573  0.4739 -0.3138
 3927ntf    fn420025   4.907   5.299   6.413  0.1322 -0.5269  0.5355
 3928ntf    cn120026   0.030   2.808   5.493  0.5398 -0.0700 -0.2617
 3928ntf    sn220027   0.143   2.697   5.583  0.2071  0.1814  0.4769
 3928ntf    nn320028   0.091   2.553   5.548 -0.0901  0.3933  0.0377
 3928ntf    sn220029   0.164   2.442   5.465  0.0878  0.5010  0.0510
 3928ntf    cn120030   0.016   2.389   5.374  0.0962  0.5417  0.0140
 3928ntf    fn420031   0.064   2.934   5.474  0.8494 -0.1993 -0.5609
 3928ntf    fn420032   0.007   2.765   5.370  0.2005  0.3759 -0.3557
 3928ntf    fn420033  -0.091   2.814   5.546  0.7574 -0.6640  0.3143
 3928ntf    on520034   0.278   2.729   5.541  0.1255  0.5591  0.4989
 3928ntf    on520035   0.118   2.739   5.718 -0.1483  0.7203  0.2512
 3928ntf    on520036   0.184   2.324   5.544  0.5058  0.4462 -0.1332
 3928ntf    on520037   0.263   2.481   5.367 -0.0389  0.1268 -0.2292
 3928ntf    fn420038   0.036   2.267   5.329  0.5807  0.5708  0.1499
 3928ntf    fn420039  -0.099   2.386   5.439  0.0118 -0.3031 -0.1688
 3928ntf    fn420040  -0.016   2.469   5.273 -0.1512  0.1217 -0.2427
 3929ntf    cn120041   5.986   3.293   3.369  0.1168 -0.0569 -0.4106
 3929ntf    sn220042   6.041   3.461   3.324  0.3001 -0.0495 -0.1635
 3929ntf    nn320043   6.192   3.442   3.288  0.1510 -0.5798 -0.5271
 3929ntf    sn220044   6.320   3.477   3.372 -0.2473 -0.2572 -0.0507
 3929ntf    cn120045   6.392   3.313   3.400 -0.1907 -0.2337 -0.0577
 3929ntf    fn420046   5.956   3.223   3.262 -0.1851 -0.0328 -0.3440
 3929ntf    fn420047   6.077   3.228   3.440  0.1432  0.2778 -0.1327
 3929ntf    fn420048   5.875   3.303   3.441  0.1008  0.2080 -0.4695
 3929ntf    on520049   5.967   3.491   3.204  0.0758  0.4014  0.0870
 3929ntf    on520050   6.003   3.541   3.437 -0.1368  0.5782 -0.7472
 3929ntf    on520051   6.292   3.519   3.507 -0.9111 -0.0391 -0.2554
 3929ntf    on520052   6.421   3.551   3.301 -0.5930 -0.0836 -0.3625
 3929ntf    fn420053   6.517   3.313   3.356 -0.1942  0.0288 -0.0673
 3929ntf    fn420054   6.392   3.275   3.527  0.1460 -0.3376 -0.0858
 3929ntf    fn420055   6.335   3.213   3.334 -0.4218  0.0656 -0.3083
 3930ntf    cn120056   7.234   2.066   4.976 -0.0701  0.0018  0.5564
 3930ntf    sn220057   7.118   2.156   4.869  0.4593  0.1820  0.1234
 3930ntf    nn320058   7.003   2.049   4.859  0.2252  0.4383  0.0415
 3930ntf    sn220059   6.902   2.023   4.977 -0.0193  0.1005 -0.2426
 3930ntf    cn120060   6.769   2.136   4.926 -0.3701 -0.2166 -0.0359
 3930ntf    fn420061   7.196   2.082   5.101 -0.0142  0.2501  0.5413
 3930ntf    fn420062   7.236   1.937   4.947 -0.2021 -0.0919  0.9575
 3930ntf    fn420063   7.359   2.111   4.970  0.0087 -0.2820 -0.0658
 3930ntf    on520064   7.089   2.276   4.943 -0.4418  0.1030 -0.0897
 3930ntf    on520065   7.190   2.165   4.744  0.6460  0.3103  0.2405
 3930ntf    on520066   6.937   2.055   5.113 -0.7687  0.9267 -0.2320
 3930ntf    on520067   6.838   1.894   4.964  0.2977 -0.0804 -0.0034
 3930ntf    fn420068   6.805   2.262   4.908  0.0165 -0.3007  0.1275
 3930ntf    fn420069   6.717   2.093   4.812  0.3667 -0.1919 -0.3905
 3930ntf    fn420070   6.667   2.132   5.010 -0.0646 -0.5315  0.3235
 3931ntf    cn120071   0.565   1.459   1.377  0.3599 -0.3746 -0.1156
 3931ntf    sn220072   0.592   1.372   1.535 -0.1870  0.0835  0.2311
 3931ntf    nn320073   0.480   1.263   1.531 -0.0146 -0.0870  0.0664
 3931ntf    sn220074   0.334   1.286   1.584 -0.0656 -0.5253  0.1193
 3931ntf    cn120075   0.346   1.258   1.763 -0.4755 -0.0130  0.2280
 3931ntf    fn420076   0.581   1.381   1.271 -0.0734 -1.0656  0.3152
 3931ntf    fn420077   0.442   1.506   1.363  0.3762 -0.3701 -0.2395
 3931ntf    fn420078   0.655   1.553   1.351 -0.3255  0.0396 -1.0296
 3931ntf    on520079   0.724   1.315   1.529 -0.2624 -0.0008 -0.8189
 3931ntf    on520080   0.578   1.476   1.635 -0.0997  0.0419  0.2862
 3931ntf    on520081   0.245   1.179   1.544 -0.2222 -0.3516 -0.0011
 3931ntf    on520082   0.283   1.420   1.578 -0.4158 -0.6807 -0.4874
 3931ntf    fn420083   0.404   1.145   1.799 -0.5561 -0.0489  0.2457
 3931ntf    fn420084   0.399   1.357   1.833  0.3844 -0.3754  0.0983
 3931ntf    fn420085   0.221   1.245   1.807 -0.4070 -0.6418  0.2435
 3932ntf    cn120086   2.370   5.638   1.486 -0.1270  0.2053  0.2339
 3932ntf    sn220087   2.444   5.698   1.331 -0.0148  0.0509  0.2281
 3932ntf    nn320088   2.354   5.636   1.218  0.4440  0.0829 -0.1586
 3932ntf    sn220089   2.344   5.486   1.172  0.0348  0.1514 -0.2938
 3932ntf    cn120090   2.472   5.495   1.044  0.0637  0.0511 -0.2728
 3932ntf    fn420091   2.368   5.506   1.496  0.4181  0.1928  0.2208
 3932ntf    fn420092   2.440   5.686   1.588  0.2939 -0.5306  0.2938
 3932ntf    fn420093   2.252   5.695   1.506 -0.0583  0.4146  0.0512
 3932ntf    on520094   2.436   5.842   1.331 -0.8214  0.0090 -0.3523
 3932ntf    on520095   2.579   5.646   1.332 -0.0117  0.0658  0.6296
 3932ntf    on520096   2.222   5.453   1.102 -0.2841 -0.0124  0.3242
 3932ntf    on520097   2.391   5.385   1.264  0.1979  0.0235 -0.5161
 3932ntf    fn420098   2.590   5.529   1.093 -0.2629  0.7381  0.0537
 3932ntf    fn420099   2.485   5.378   0.984  0.3662  0.0850 -0.2783
 3932ntf    fn420100   2.440   5.572   0.941 -0.4893  0.1382 -0.0401
 3933ntf    cn120101   6.793   3.072   3.260  0.1198 -0.1326 -0.2342
 3933ntf    sn220102   6.909   2.935   3.287  0.2929  0.0462 -0.0714
 3933ntf    nn320103   7.040   3.020   3.305  0.2501  0.0263  0.3455
 3933ntf    sn220104   7.160   3.054   3.210  0.0166  0.3022  0.1450
 3933ntf    cn120105   7.277   2.922   3.255  0.1655  0.5392  0.4555
 3933ntf    fn420106   6.853   3.177   3.204 -0.1636 -0.0600 -0.4046
 3933ntf    fn420107   6.679   3.056   3.194 -0.0044 -0.3813  0.0416
 3933ntf    fn420108   6.751   3.119   3.376  0.9831  0.1342 -0.0190
 3933ntf    on520109   6.871   2.861   3.405  0.3672 -0.7818 -0.5580
 3933ntf    on520110   6.901   2.864   3.162  0.1980 -0.3167  0.1396
 3933ntf    on520111   7.222   3.183   3.230 -0.0806  0.4277 -0.3459
 3933ntf    on520112   7.146   3.023   3.070 -0.2737 -0.9226  0.4329
 3933ntf    fn420113   7.399   2.929   3.204 -0.0442 -0.0147 -0.1377
 3933ntf    fn420114   7.308   2.932   3.383 -0.1755  0.0429  0.5784
 3933ntf    fn420115   7.233   2.798   3.246  0.0624  0.5433  0.8950
 3934ntf    cn120116   2.337   1.226   2.526 -0.1894 -0.0386 -0.0183
 3934ntf    sn220117   2.252   1.320   2.396  0.0067 -0.1478 -0.2260
 3934ntf    nn320118   2.117   1.355   2.468  0.0842 -0.4444  0.0660
 3934ntf    sn220119   2.070   1.501   2.502  0.0476 -0.3571 -0.3515
 3934ntf    cn120120   1.907   1.460   2.572  0.1182  0.2596  0.1801
 3934ntf    fn420121   2.440   1.165   2.468 -0.1459  0.1623 -0.1530
 3934ntf    fn420122   2.396   1.307   2.612 -0.8053  0.3001  0.0827
 3934ntf    fn420123   2.264   1.135   2.588 -0.2857  0.1591  0.1600
 3934ntf    on520124   2.342   1.426   2.358  0.4031 -0.2686  0.3595
 3934ntf    on520125   2.219   1.225   2.292 -0.1824  0.3140 -0.5880
 3934ntf    on520126   2.039   1.567   2.378  0.3000  0.3233 -0.0567
 3934ntf    on520127   2.145   1.574   2.602 -0.3092 -0.0598 -0.3003
 3934ntf    fn420128   1.816   1.418   2.487  0.1790  0.3845  0.0519
 3934ntf    fn420129   1.913   1.364   2.663 -0.3303 -0.4266 -0.5066
 3934ntf    fn420130   1.853   1.561   2.639 -0.6096 -0.0177  0.0110
 3935ntf    cn120131   0.685   3.257   3.196 -0.2428 -0.5473 -0.3407
 3935ntf    sn220132   0.613   3.189   3.044 -0.5962 -0.2475 -0.3090
 3935ntf    nn320133   0.536   3.078   3.122 -0.6728  0.1156  0.1383
 3935ntf    sn220134   0.585   2.932   3.152 -0.0428  0.2555 -0.2069
 3935ntf    cn120135   0.458   2.836   3.064 -0.6114  0.3673  0.4851
 3935ntf    fn420136   0.589   3.252   3.287  0.6697 -0.2907  0.6659
 3935ntf    fn420137   0.785   3.182   3.239  0.0882  0.1463  0.1335
 3935ntf    fn420138   0.726   3.382   3.178 -0.3819 -0.3771  0.4855
 3935ntf    on520139   0.526   3.295   3.001 -0.1595  0.5627  0.7484
 3935ntf    on520140   0.733   3.165   2.966 -0.4047  0.2927 -0.1881
 3935ntf    on520141   0.569   2.893   3.290  0.2640 -0.3733 -0.3404
 3935ntf    on520142   0.704   2.896   3.078 -0.0894 -0.1858 -0.0735
 3935ntf    fn420143   0.334   2.878   3.082 -0.6245  0.3423  0.4531
 3935ntf    fn420144   0.484   2.845   2.934  0.5950  0.3380  0.7100
 3935ntf    fn420145   0.463   2.707   3.091 -0.1286  0.2166 -0.2667
 3936ntf    cn120146   7.326   0.818   4.015 -0.4599  0.6156  0.0164
 3936ntf    sn220147   7.399   0.963   4.097  0.1986  0.3535 -0.0974
 3936ntf    nn320148   7.545   0.971   4.040  0.0946 -0.1061 -0.4258
 3936ntf    sn220149   7.674   0.910   4.106 -0.0390  0.1328  0.0608
 3936ntf    cn120150   7.730   1.054   4.201 -0.1593  0.1538  0.1010
 3936ntf    fn420151   7.203   0.789   4.054 -0.2988 -0.4946 -0.2897
 3936ntf    fn420152   7.316   0.837   3.885  0.1207 -0.2803 -0.1659
 3936ntf    fn420153   7.409   0.716   4.026 -1.0268  0.0975 -0.4773
 3936ntf    on520154   7.317   1.066   4.038 -0.5050 -0.0440  0.1703
 3936ntf    on520155   7.388   0.945   4.240  0.4712 -0.1149 -0.1356
 3936ntf    on520156   7.778   0.892   4.008 -0.1066  0.7501 -0.1278
 3936ntf    on520157   7.646   0.804   4.199 -0.0919 -0.1460 -0.2715
 3936ntf    fn420158   7.635   1.110   4.273 -0.3536  0.0165 -0.0488
 3936ntf    fn420159   7.828   1.020   4.283  0.4256 -0.1929 -0.7248
 3936ntf    fn420160   7.779   1.153   4.127 -0.6278  0.1939 -0.1568
 3937ntf    cn120161   2.836   6.149   1.271 -0.2933 -0.3135 -0.3647
 3937ntf    sn220162   2.852   6.320   1.210 -0.0573 -0.0457  0.4357
 3937ntf    nn320163   2.982   6.355   1.291 -0.0145  0.5159  0.1257
 3937ntf    sn220164   3.131   6.378   1.244 -0.0358 -0.0511 -0.2360
 3937ntf    cn120165   3.192   6.208   1.226 -0.3148 -0.2396  0.5302
 3937ntf    fn420166   2.753   6.072   1.202 -0.1391 -0.6015 -0.2292
 3937ntf    fn420167   2.956   6.094   1.267 -0.0339  0.2084  0.0566
 3937ntf    fn420168   2.787   6.142   1.394  0.1197 -0.2467 -0.1927
 3937ntf    on520169   2.872   6.293   1.070 -0.0366  0.3727  0.3582
 3937ntf    on520170   2.732   6.386   1.254  0.2977  0.5184  0.5646
 3937ntf    on520171   3.201   6.410   1.366  0.2069  0.3277 -0.4739
 3937ntf    on520172   3.149   6.446   1.119 -0.2228  1.0593  0.3253
 3937ntf    fn420173   3.319   6.209   1.188 -0.5071  0.0079 -0.1301
 3937ntf    fn420174   3.163   6.139   1.335  0.9305 -0.6019  0.6444
 3937ntf    fn420175   3.124   6.147   1.130  0.0426 -0.0114  0.1305
 3938ntf    cn120176   2.795   2.992   0.948  0.0374 -0.2752 -0.2938
 3938ntf    sn220177   2.912   3.058   0.826  0.0735  0.1253 -0.0426
 3938ntf    nn320178   2.922   3.207   0.875 -0.1433  0.3027 -0.5292
 3938ntf    sn220179   3.046   3.303   0.890 -0.1476  0.1965  0.2154
 3938ntf    cn120180   2.959   3.442   0.813 -0.3385 -0.0908 -0.0923
 3938ntf    fn420181   2.845   2.986   1.070 -0.2574 -0.1431 -0.1646
 3938ntf    fn420182   2.689   3.068   0.969 -0.1323 -0.4678 -0.4405
 3938ntf    fn420183   2.754   2.871   0.912  0.1823 -0.3563 -0.1865
 3938ntf    on520184   3.027   2.976   0.854 -0.1810 -0.1711  0.1338
 3938ntf    on520185   2.846   3.054   0.698  0.1684 -0.1191 -0.0835
 3938ntf    on520186   3.152   3.277   0.797  0.2195  0.3930  0.5768
 3938ntf    on520187   3.082   3.353   1.020  0.3755 -0.5225  0.3534
 3938ntf    fn420188   2.944   3.427   0.682  0.3455  0.1914 -0.2057
 3938ntf    fn420189   2.839   3.460   0.867 -0.2709 -0.0504  0.0454
 3938ntf    fn420190   3.025   3.557   0.821 -0.0653 -0.2230 -0.4172
 3939ntf    cn120191   0.802   2.889   0.665  0.0427 -0.0564  0.0913
 3939ntf    sn220192   0.701   3.034   0.707 -0.1341 -0.1339 -0.0713
 3939ntf    nn320193   0.803   3.126   0.783 -0.8465  0.7048 -0.1044
 3939ntf    sn220194   0.901   3.240   0.738 -0.0850  0.1284  0.0693
 3939ntf    cn120195   1.045   3.224   0.848 -0.2149  0.5296  0.2975
 3939ntf    fn420196   0.851   2.831   0.773  0.2716 -0.7946 -0.4051
 3939ntf    fn420197   0.735   2.800   0.595 -0.6068  0.4635  0.0432
 3939ntf    fn420198   0.909   2.919   0.593 -0.3779  0.6263 -0.2550
 3939ntf    on520199   0.657   3.094   0.582 -0.0906  0.1807  0.0626
 3939ntf    on520200   0.600   2.977   0.792 -0.1105 -0.2116 -0.0954
 3939ntf    on520201   0.857   3.375   0.762  0.3761  0.2091  0.4623
 3939ntf    on520202   0.959   3.215   0.608  0.5498  0.7225  0.2390
 3939ntf    fn420203   1.012   3.255   0.972 -0.5365 -0.2755  0.4206
 3939ntf    fn420204   1.095   3.102   0.860  0.0960  0.5721 -0.5117
 3939ntf    fn420205   1.145   3.304   0.813 -0.5421  0.7957 -0.0485
 3940ntf    cn120206   5.930   4.626   1.982 -0.1959 -0.2850  0.0632
 3940ntf    sn220207   5.762   4.568   1.943 -0.1985 -0.4998  0.3803
 3940ntf    nn320208   5.706   4.525   2.083  0.0231 -0.6990  0.4078
 3940ntf    sn220209   5.635   4.615   2.190  0.3843  0.1695 -0.0767
 3940ntf    cn120210   5.463   4.602   2.133  0.3037  0.0167  0.2004
 3940ntf    fn420211   6.002   4.536   2.048  0.2664 -0.5624 -0.8127
 3940ntf    fn420212   5.996   4.668   1.876 -0.8074  0.6852  0.0617
 3940ntf    fn420213   5.918   4.727   2.066  0.5322 -0.2773  0.1643
 3940ntf    on520214   5.698   4.685   1.888  0.3581 -0.3300  0.0856
 3940ntf    on520215   5.792   4.460   1.852  0.1848 -0.2322  0.1849
 3940ntf    on520216   5.652   4.758   2.184 -0.5804  0.3072  0.3223
 3940ntf    on520217   5.636   4.541   2.314 -0.2945 -0.4491 -0.4352
 3940ntf    fn420218   5.387   4.674   2.214 -0.0755 -0.2961  0.1255
 3940ntf    fn420219   5.453   4.641   2.008  0.0524  0.5930  0.3977
 3940ntf    fn420220   5.425   4.476   2.150  0.3115  0.0213  0.2558
 3941ntf    cn120221   4.933   6.474   2.325  0.4364 -0.5070  0.4028
 3941ntf    sn220222   5.108   6.428   2.342  0.5628 -0.2034 -0.0502
 3941ntf    nn320223   5.175   6.523   2.237  0.0960  0.1397 -0.0387
 3941ntf    sn220224   5.245   6.482   2.102  0.2478 -0.1068  0.1155
 3941ntf    cn120225   5.421   6.483   2.149  0.3422 -0.2136 -0.2340
 3941ntf    fn420226   4.873   6.421   2.220  0.1221  0.3592  0.1376
 3941ntf    fn420227   4.866   6.434   2.431 -0.2845  0.2313  0.2369
 3941ntf    fn420228   4.908   6.604   2.319 -0.1977 -0.6424 -0.0173
 3941ntf    on520229   5.143   6.463   2.477 -0.2326  0.6514 -0.0520
 3941ntf    on520230   5.124   6.289   2.306 -0.3557 -0.1511 -0.6931
 3941ntf    on520231   5.233   6.591   2.009 -0.1131  0.1246  0.4332
 3941ntf    on520232   5.216   6.355   2.039  0.3326  0.0877 -0.3137
 3941ntf    fn420233   5.511   6.482   2.052  0.1813 -0.0547 -0.3876
 3941ntf    fn420234   5.435   6.594   2.219 -0.7180 -0.4813  0.4297
 3941ntf    fn420235   5.447   6.383   2.231  0.0183 -0.5141 -0.4951
 3942ntf    cn120236   4.186   4.282   6.562  0.4432  0.4520  0.0793
 3942ntf    sn220237   4.272   4.157   6.663 -0.0349 -0.1665 -0.2731
 3942ntf    nn320238   4.396   4.112   6.576  0.2128 -0.3914  0.1941
 3942ntf    sn220239   4.528   4.196   6.564 -0.0264 -0.0695 -0.1996
 3942ntf    cn120240   4.631   4.138   6.702 -0.1830  0.2740  0.0649
 3942ntf    fn420241   4.259   4.392   6.560  0.4705  0.4318 -0.0423
 3942ntf    fn420242   4.169   4.248   6.436 -0.4648 -0.6584  0.4879
 3942ntf    fn420243   4.064   4.312   6.604  0.4725  0.1004  0.4251
 3942ntf    on520244   4.302   4.229   6.784  0.0361  0.0245 -0.4046
 3942ntf    on520245   4.166   4.059   6.667 -0.0319 -0.1612 -0.0526
 3942ntf    on520246   4.516   4.339   6.579  0.1448 -0.1127  0.3642
 3942ntf    on520247   4.599   4.146   6.449  0.8388 -0.5184  0.5177
 3942ntf    fn420248   4.658   4.008   6.696 -0.4317  0.1832  0.8480
 3942ntf    fn420249   4.748   4.197   6.719 -0.1869  0.2605  0.1412
 3942ntf    fn420250   4.559   4.154   6.811  0.4852  0.6366  0.4602
 3943ntf    cn120251   0.773   2.343   6.296 -0.2788 -0.1399  0.1982
 3943ntf    sn220252   0.760   2.481   6.413 -0.0861  0.1967 -0.1765
 3943ntf    nn320253   0.621   2.541   6.370 -0.4611 -0.4466  0.1321
 3943ntf    sn220254   0.516   2.596   6.473 -0.4730  0.0079 -0.1228
 3943ntf    cn120255   0.425   2.442   6.502  0.0044 -0.2655 -0.0675
 3943ntf    fn420256   0.879   2.270   6.326 -0.2386 -0.0908  0.1758
 3943ntf    fn420257   0.662   2.271   6.295 -0.2109 -0.2430 -0.6426
 3943ntf    fn420258   0.779   2.387   6.171  0.0769 -0.3693  0.1323
 3943ntf    on520259   0.757   2.404   6.535  0.0921  0.1805 -0.1829
 3943ntf    on520260   0.869   2.570   6.378 -0.1854  0.3429 -0.1161
 3943ntf    on520261   0.409   2.671   6.413 -0.3864 -0.1579 -0.4855
 3943ntf    on520262   0.571   2.638   6.600  0.0466  0.1254 -0.3835
 3943ntf    fn420263   0.317   2.469   6.573  0.3207  0.5679  0.1112
 3943ntf    fn420264   0.395   2.380   6.389  0.0628  0.0101 -0.2346
 3943ntf    fn420265   0.492   2.348   6.567 -0.0058 -0.2291 -0.0047
 3944ntf    cn120266   1.295   6.978   2.335 -0.0262 -0.2226 -0.2390
 3944ntf    sn220267   1.207   6.839   2.258  0.0349 -0.3461 -0.0862
 3944ntf    nn320268   1.112   6.909   2.154  0.0440 -0.2727 -0.0452
 3944ntf    sn220269   1.140   6.956   2.007 -0.1979  0.0600  0.0138
 3944ntf    cn120270   1.075   6.826   1.898  0.1606  0.2095 -0.3861
 3944ntf    fn420271   1.223   7.035   2.429 -0.2850 -0.7899 -0.0927
 3944ntf    fn420272   1.401   6.938   2.403 -0.0215  0.4154  0.1306
 3944ntf    fn420273   1.338   7.073   2.253 -0.4387  0.6069  0.4851
 3944ntf    on520274   1.304   6.751   2.198  0.3070 -0.1245  0.0295
 3944ntf    on520275   1.128   6.787   2.368  0.0542  0.0091  0.0972
 3944ntf    on520276   1.279   6.966   1.968 -0.1535  0.9905  0.4012
 3944ntf    on520277   1.058   7.066   1.963 -0.3724  0.2947  0.9010
 3944ntf    fn420278   1.138   6.710   1.899 -0.2516 -0.0230 -1.0891
 3944ntf    fn420279   0.948   6.805   1.932  0.2234  0.1885 -0.1614
 3944ntf    fn420280   1.076   6.864   1.772  0.9341 -0.3941 -0.5645
 3945ntf    cn120281   6.292   0.691   1.808  0.2670 -0.0268 -0.4380
 3945ntf    sn220282   6.136   0.611   1.761 -0.0731  0.5032 -0.2180
 3945ntf    nn320283   6.070   0.715   1.663 -0.2916  0.5610 -0.0103
 3945ntf    sn220284   6.123   0.779   1.530 -0.2510  0.0438 -0.2485
 3945ntf    cn120285   6.107   0.955   1.574  0.1965  0.0072  0.0657
 3945ntf    fn420286   6.382   0.692   1.711 -0.0720  0.4065 -0.7484
 3945ntf    fn420287   6.274   0.812   1.858  0.0907 -0.4484  0.5371
 3945ntf    fn420288   6.350   0.623   1.906 -0.1904  0.1190 -0.0621
 3945ntf    on520289   6.174   0.486   1.699 -0.1543  0.0482  0.6305
 3945ntf    on520290   6.059   0.605   1.883  0.3675 -0.0761  0.0360
 3945ntf    on520291   6.030   0.757   1.423 -0.5588  0.7448 -0.1364
 3945ntf    on520292   6.263   0.764   1.499 -0.3606 -0.0063 -0.7206
 3945ntf    fn420293   5.984   0.982   1.617  0.2692  0.7981 -0.2057
 3945ntf    fn420294   6.183   1.000   1.673 -0.0127  0.4619  0.0238
 3945ntf    fn420295   6.125   1.039   1.473 -0.1132 -0.3738 -0.3098
 3946ntf    cn120296   7.119   5.938   6.292 -0.5115  0.2529  0.6259
 3946ntf    sn220297   7.220   6.033   6.409  0.0939 -0.0881  0.3846
 3946ntf    nn320298   7.293   5.911   6.476  0.1898 -0.3199 -0.1408
 3946ntf    sn220299   7.422   5.903   6.565  0.0436  0.0378  0.1036
 3946ntf    cn120300   7.367   5.807   6.709  0.3038 -0.2689 -0.0007
 3946ntf    fn420301   7.033   5.849   6.339 -0.6095  0.2153  0.3752
 3946ntf    fn420302   7.046   6.023   6.222  0.2886  0.2220 -0.2589
 3946ntf    fn420303   7.185   5.875   6.196 -0.1800  0.1106  0.9462
 3946ntf    on520304   7.302   6.123   6.332 -0.6012  0.5522  0.3831
 3946ntf    on520305   7.123   6.091   6.499 -0.2243 -0.0348  0.0085
 3946ntf    on520306   7.473   6.022   6.628  0.5137  0.1795 -0.5297
 3946ntf    on520307   7.522   5.816   6.510 -0.2500 -0.4422  0.3230
 3946ntf    fn420308   7.451   5.801   6.811 -0.3837  0.2331  0.6044
 3946ntf    fn420309   7.254   5.851   6.762  0.0883 -0.2079 -0.5033
 3946ntf    fn420310   7.346   5.678   6.686  0.1097 -0.2143 -0.1292
 3947ntf    cn120311   4.837   5.371   3.620 -0.2388  0.0427  0.2118
 3947ntf    sn220312   5.017   5.346   3.628 -0.2108  0.1826  0.0539
 3947ntf    nn320313   5.036   5.236   3.518 -0.0373  0.2782 -0.0118
 3947ntf    sn220314   5.112   5.245   3.381  0.1275 -0.1600  0.0469
 3947ntf    cn120315   4.990   5.338   3.282 -0.2412 -0.2032  0.4559
 3947ntf    fn420316   4.759   5.267   3.643 -0.6309  0.2286 -0.2478
 3947ntf    fn420317   4.790   5.459   3.707 -0.1767 -0.1245  0.4163
 3947ntf    fn420318   4.803   5.420   3.502 -0.4641 -0.0338  0.2442
 3947ntf    on520319   5.079   5.473   3.601  0.8414 -0.4332 -0.4663
 3947ntf    on520320   5.041   5.290   3.759 -0.1342  0.1649  0.0323
 3947ntf    on520321   5.117   5.119   3.311  0.0026 -0.1739  0.0615
 3947ntf    on520322   5.228   5.330   3.382  0.0818 -0.0991  0.1528
 3947ntf    fn420323   4.944   5.449   3.337  0.0399  0.2712 -0.2467
 3947ntf    fn420324   5.039   5.374   3.165 -0.3160 -0.7173  0.2617
 3947ntf    fn420325   4.885   5.262   3.254  0.1018 -0.3141 -0.5599
 3948ntf    cn120326   3.307   4.084   3.028  0.2390 -0.3815  0.0437
 3948ntf    sn220327   3.213   4.080   2.872  0.0236 -0.0287  0.1629
 3948ntf    nn320328   3.232   4.231   2.833 -0.0249  0.0854  0.5784
 3948ntf    sn220329   3.167   4.314   2.717 -0.1743 -0.4344  0.2861
 3948ntf    cn120330   3.060   4.421   2.818  0.0133 -0.0409  0.0722
 3948ntf    fn420331   3.302   4.203   3.086 -0.1315 -0.1166 -0.5113
 3948ntf    fn420332   3.278   3.999   3.124  0.8285 -0.3802  0.2242
 3948ntf    fn420333   3.436   4.061   3.013  0.2800  0.2420 -0.5927
 3948ntf    on520334   3.290   3.993   2.787  0.2879  0.1832  0.1828
 3948ntf    on520335   3.082   4.041   2.919  0.0851  0.1625  0.4957
 3948ntf    on520336   3.077   4.243   2.629 -0.8622  0.3001  0.3814
 3948ntf    on520337   3.264   4.405   2.661  0.0148 -0.8752 -0.1090
 3948ntf    fn420338   2.986   4.505   2.748 -0.1191  0.0844  0.3597
 3948ntf    fn420339   2.976   4.346   2.889 -0.0022 -0.0380  0.0573
 3948ntf    fn420340   3.121   4.499   2.906 -0.1949  0.2581 -0.0469
 3949ntf    cn120341   1.601   5.598   1.357 -0.0323 -0.0207  0.0743
 3949ntf    sn220342   1.450   5.511   1.409  0.1648 -0.1593  0.4188
 3949ntf    nn320343   1.468   5.373   1.337  0.1341  0.0365  0.0347
 3949ntf    sn220344   1.447   5.355   1.182 -0.0301  0.1231  0.0470
 3949ntf    cn120345   1.276   5.295   1.188  0.0641 -0.1875 -0.3228
 3949ntf    fn420346   1.584   5.657   1.240  0.7534 -0.1444 -0.1058
 3949ntf    fn420347   1.630   5.699   1.439 -0.0118 -0.1101  0.1773
 3949ntf    fn420348   1.705   5.518   1.370 -0.0589 -0.1561 -0.5423
 3949ntf    on520349   1.474   5.487   1.549  0.1954 -0.4311  0.3683
 3949ntf    on520350   1.334   5.587   1.370  0.2168 -0.1379  0.3035
 3949ntf    on520351   1.533   5.249   1.135 -0.0263 -0.0435  0.4268
 3949ntf    on520352   1.451   5.469   1.095  0.5704 -0.2334 -0.4009
 3949ntf    fn420353   1.197   5.386   1.243  0.7647  0.1400  0.1574
 3949ntf    fn420354   1.226   5.275   1.067 -0.1874  0.4396 -0.3277
 3949ntf    fn420355   1.265   5.181   1.255 -0.1253 -0.3084 -0.5576
 3950ntf    cn120356   0.143   0.301   2.150  0.0154  0.2964  0.1931
 3950ntf    sn220357   0.038   0.447   2.119 -0.3239  0.1259  0.5382
 3950ntf    nn320358  -0.066   0.390   2.015 -0.0476  0.4193  0.1007
 3950ntf    sn220359  -0.212   0.340   2.044  0.1780 -0.1731  0.2357
 3950ntf    cn120360  -0.319   0.472   1.978  0.3410 -0.1082  0.0992
 3950ntf    fn420361   0.235   0.327   2.240  0.2324  0.3492 -0.0416
 3950ntf    fn420362   0.061   0.206   2.191 -0.4595  0.3079 -0.6852
 3950ntf    fn420363   0.196   0.242   2.044  0.8316 -0.1964  0.8709
 3950ntf    on520364  -0.004   0.494   2.249 -0.0415  0.5808  0.4649
 3950ntf    on520365   0.121   0.533   2.039 -0.2699 -0.0711  0.3811
 3950ntf    on520366  -0.239   0.343   2.186 -0.2323  0.0062  0.1539
 3950ntf    on520367  -0.249   0.218   1.978  0.3504 -0.2643  0.3081
 3950ntf    fn420368  -0.327   0.577   2.059 -0.1956  0.0910 -0.2111
 3950ntf    fn420369  -0.260   0.518   1.869 -0.0804  0.3692  0.0727
 3950ntf    fn420370  -0.436   0.427   1.936  0.2987 -0.8857  0.9867
 3951ntf    cn120371   6.166   0.711   5.478  0.0655 -0.1161 -0.1857
 3951ntf    sn220372   6.023   0.635   5.561 -0.1089  0.0332 -0.3515
 3951ntf    nn320373   5.971   0.757   5.644  0.5605  0.3504 -0.3910
 3951ntf    sn220374   5.827   0.817   5.658  0.1627 -0.6055 -0.3459
 3951ntf    cn120375   5.862   0.995   5.644 -0.0475 -0.5381 -0.0370
 3951ntf    fn420376   6.270   0.709   5.560 -0.2367  0.6355  0.2238
 3951ntf    fn420377   6.200   0.640   5.372  0.3403 -0.4174  0.0994
 3951ntf    fn420378   6.154   0.837   5.441  0.4847 -0.1427 -0.4172
 3951ntf    on520379   5.954   0.590   5.443 -0.4885 -0.0462 -0.1004
 3951ntf    on520380   6.078   0.528   5.640  0.4007  0.2266 -0.4375
 3951ntf    on520381   5.786   0.795   5.795 -0.1009  0.1105 -0.3031
 3951ntf    on520382   5.726   0.787   5.559  0.6057 -0.4444 -0.8492
 3951ntf    fn420383   5.989   1.017   5.674 -0.3065  0.5440  0.2878
 3951ntf    fn420384   5.838   1.032   5.519  0.0420 -0.1204  0.0693
 3951ntf    fn420385   5.785   1.074   5.717  0.1198 -0.3270 -0.0885
 3952ntf    cn120386   2.733   6.268   3.989  0.2875  0.1042  0.0136
 3952ntf    sn220387   2.706   6.100   4.052 -0.0036  0.1112 -0.0902
 3952ntf    nn320388   2.630   6.039   3.929  0.0871  0.3051 -0.2418
 3952ntf    sn220389   2.478   6.059   3.895 -0.0487  0.0106  0.1843
 3952ntf    cn120390   2.479   6.061   3.713  0.5033  0.0764  0.1882
 3952ntf    fn420391   2.629   6.340   3.953  0.3107  0.3693  0.4841
 3952ntf    fn420392   2.802   6.343   4.073  0.4515 -0.3683  0.3066
 3952ntf    fn420393   2.811   6.269   3.882  0.1521 -0.0879 -0.0881
 3952ntf    on520394   2.839   6.048   4.069 -0.2236 -0.5395 -0.3322
 3952ntf    on520395   2.620   6.120   4.166  0.2051 -0.3482  0.1545
 3952ntf    on520396   2.430   6.192   3.924  0.0159  0.1452 -0.3270
 3952ntf    on520397   2.396   5.946   3.933 -0.5813  0.0821 -0.7138
 3952ntf    fn420398   2.361   6.076   3.655  0.6904 -0.2429 -0.2798
 3952ntf    fn420399   2.557   6.157   3.666  0.5059 -0.2351 -0.4560
 3952ntf    fn420400   2.527   5.949   3.661 -0.2697  0.1046 -0.6015
 3953ntf    cn120401   3.579   5.168   4.701 -0.4042 -0.0847 -0.3733
 3953ntf    sn220402   3.740   5.085   4.714 -0.2915  0.1835 -0.0324
 3953ntf    nn320403   3.710   4.993   4.837  0.3277  0.0830  0.0468
 3953ntf    sn220404   3.764   4.845   4.844 -0.0909 -0.0590  0.2910
 3953ntf    cn120405   3.861   4.857   4.997  0.3909 -0.2719  0.0039
 3953ntf    fn420406   3.485   5.088   4.651 -0.1450 -0.7276  0.1443
 3953ntf    fn420407   3.534   5.212   4.818 -0.3496 -0.1873 -0.3141
 3953ntf    fn420408   3.590   5.273   4.621 -0.1372  0.3071  0.1699
 3953ntf    on520409   3.760   5.017   4.588 -0.3145 -0.4977  0.3268
 3953ntf    on520410   3.833   5.189   4.751 -0.2884  0.0991  0.1972
 3953ntf    on520411   3.858   4.803   4.744 -0.2057  0.0262  0.1474
 3953ntf    on520412   3.656   4.753   4.869  0.0809 -0.3468 -0.0240
 3953ntf    fn420413   3.779   4.854   5.101 -0.4200 -0.2590 -0.6326
 3953ntf    fn420414   3.951   4.760   5.004  0.2693 -0.3849 -0.0103
 3953ntf    fn420415   3.937   4.965   5.007  0.0841 -0.0068 -0.4819
 3954ntf    cn120416   6.834   6.815   1.998 -0.0629  0.2376 -0.4285
 3954ntf    sn220417   6.952   6.679   1.973 -0.5014 -0.1897 -0.1903
 3954ntf    nn320418   6.862   6.588   1.881 -0.5733 -0.0247 -0.2827
 3954ntf    sn220419   6.791   6.452   1.914  0.0473 -0.2335  0.2195
 3954ntf    cn120420   6.910   6.329   1.852  0.0110 -0.3021  0.2860
 3954ntf    fn420421   6.748   6.786   2.094  0.0643  0.1772 -0.3328
 3954ntf    fn420422   6.899   6.923   2.038  0.7007 -0.1979 -0.4711
 3954ntf    fn420423   6.787   6.854   1.881  0.4536 -0.2040 -0.7892
 3954ntf    on520424   7.044   6.752   1.890 -0.6953 -0.5095 -0.6909
 3954ntf    on520425   6.997   6.636   2.103 -0.4813 -0.0657 -0.1572
 3954ntf    on520426   6.672   6.440   1.833 -0.3883 -0.0753  0.8313
 3954ntf    on520427   6.777   6.424   2.054 -0.6524 -0.7495  0.0506
 3954ntf    fn420428   7.034   6.366   1.880 -0.0195 -0.2301  0.3277
 3954ntf    fn420429   6.879   6.206   1.890 -0.4327 -0.4943 -0.6773
 3954ntf    fn420430   6.901   6.315   1.721  0.5810 -0.6319  0.2790
 3955ntf    cn120431   1.749   6.403   1.845 -0.1154  0.3767 -0.2257
 3955ntf    sn220432   1.844   6.494   1.970 -0.1936  0.2442 -0.0697
 3955ntf    nn320433   1.961   6.393   1.997 -0.7540 -0.5429 -0.5692
 3955ntf    sn220434   1.985   6.308   2.127  0.1654  0.3359 -0.1545
 3955ntf    cn120435   2.165   6.291   2.120  0.1810  0.2437  0.4051
 3955ntf    fn420436   1.701   6.482   1.751 -0.1360  0.5805 -0.0430
 3955ntf    fn420437   1.823   6.316   1.778  0.0135  0.1049  0.2623
 3955ntf    fn420438   1.644   6.340   1.894  0.0063 -0.2586 -0.7512
 3955ntf    on520439   1.899   6.606   1.897  0.5037  0.1525  0.3027
 3955ntf    on520440   1.749   6.524   2.074  0.3271  0.3686  0.3760
 3955ntf    on520441   1.921   6.180   2.108  0.4101  0.2470 -0.3902
 3955ntf    on520442   1.963   6.379   2.251 -0.0663  0.8546 -0.4903
 3955ntf    fn420443   2.206   6.227   2.011 -0.0003 -0.3802  0.7017
 3955ntf    fn420444   2.236   6.402   2.131  0.2366  0.2486  0.0115
 3955ntf    fn420445   2.200   6.213   2.221  0.4762 -0.2830 -0.0944
 3956ntf    cn120446   2.294   5.643   6.692  0.0191 -0.3905  0.2789
 3956ntf    sn220447   2.132   5.599   6.623  0.1523 -0.1302 -0.2089
 3956ntf    nn320448   2.188   5.513   6.505  0.5308 -0.3057  0.0971
 3956ntf    sn220449   2.122   5.458   6.374 -0.0465 -0.0532  0.2803
 3956ntf    cn120450   2.172   5.586   6.255 -0.1120 -0.5016 -0.2377
 3956ntf    fn420451   2.272   5.676   6.818 -0.3879  0.1347  0.0710
 3956ntf    fn420452   2.380   5.542   6.688  0.4064 -0.1092  1.2017
 3956ntf    fn420453   2.351   5.748   6.636 -0.5001 -0.2846 -0.0540
 3956ntf    on520454   2.081   5.520   6.733  0.1370 -0.3963 -0.4060
 3956ntf    on520455   2.095   5.736   6.599  0.3638  0.0141  0.2772
 3956ntf    on520456   1.978   5.461   6.374 -0.0747 -0.6099 -1.0830
 3956ntf    on520457   2.190   5.338   6.333 -0.5308 -0.1255 -0.3461
 3956ntf    fn420458   2.151   5.534   6.136 -0.6067  0.0648 -0.4003
 3956ntf    fn420459   2.105   5.699   6.269  0.2169 -0.2380 -0.7738
 3956ntf    fn420460   2.301   5.616   6.262 -0.2098 -0.2167  0.4123
 3957ntf    cn120461   4.321   0.908   3.506 -0.0181 -0.0049  0.0378
 3957ntf    sn220462   4.190   0.903   3.632 -0.1137 -0.0077 -0.0622
 3957ntf    nn320463   4.247   1.021   3.719 -0.0556  0.0925 -0.2367
 3957ntf    sn220464   4.219   1.175   3.703  0.4750  0.2531  0.3411
 3957ntf    cn120465   4.067   1.186   3.803  0.3916  0.4088  0.1974
 3957ntf    fn420466   4.361   1.032   3.482 -0.2185  0.0427 -0.0587
 3957ntf    fn420467   4.423   0.846   3.563 -0.7480 -0.7998  0.5047
 3957ntf    fn420468   4.294   0.846   3.393 -0.0110  0.4747 -0.2291
 3957ntf    on520469   4.064   0.922   3.564 -0.2757 -0.4429  0.1124
 3957ntf    on520470   4.213   0.774   3.691 -0.0070  0.2536  0.4764
 3957ntf    on520471   4.168   1.231   3.580  0.0585  0.1886  0.4816
 3957ntf    on520472   4.304   1.262   3.780  0.4803  0.6133 -0.0687
 3957ntf    fn420473   4.017   1.308   3.819 -0.5800  0.0379  0.0384
 3957ntf    fn420474   3.972   1.113   3.746  0.1298 -0.0422  1.1939
 3957ntf    fn420475   4.094   1.127   3.918  0.7024 -0.1436 -0.1554
 3958ntf    cn120476   7.321   4.391   0.308  0.1705  0.1874 -0.1018
 3958ntf    sn220477   7.287   4.507   0.443 -0.4957  0.3874 -0.4385
 3958ntf    nn320478   7.360   4.436   0.563 -0.1891  0.3533 -0.6467
 3958ntf    sn220479   7.504   4.471   0.615 -0.3041 -0.0548 -0.0499
 3958ntf    cn120480   7.606   4.320   0.605  0.5449  0.5195 -0.1180
 3958ntf    fn420481   7.256   4.281   0.343  0.5192  0.0202  0.0249
 3958ntf    fn420482   7.270   4.442   0.197 -0.2611  0.0121  0.0133
 3958ntf    fn420483   7.449   4.359   0.295  0.1412 -0.1335  0.3632
 3958ntf    on520484   7.334   4.637   0.403  0.2539  0.1362 -0.3737
 3958ntf    on520485   7.144   4.490   0.456 -0.3497 -0.1676  0.5855
 3958ntf    on520486   7.503   4.494   0.757  0.0938 -0.2175 -0.0195
 3958ntf    on520487   7.582   4.554   0.528  0.1492 -0.0328  0.3738
 3958ntf    fn420488   7.572   4.223   0.687 -0.1072  0.4442 -0.4675
 3958ntf    fn420489   7.606   4.264   0.485  0.2230 -0.0672  0.1567
 3958ntf    fn420490   7.732   4.354   0.623  0.7501 -0.2871  0.0064
 3959ntf    cn120491   3.330   0.888   0.058  0.2767 -0.2245 -0.1929
 3959ntf    sn220492   3.259   0.721   0.069 -0.1925 -0.0176 -0.0639
 3959ntf    nn320493   3.327   0.658  -0.057  0.7323  0.1803  0.3275
 3959ntf    sn220494   3.368   0.508  -0.082  0.0160  0.0408 -0.0183
 3959ntf    cn120495   3.228   0.464  -0.190 -0.0813 -0.0055  0.1283
 3959ntf    fn420496   3.296   0.967   0.158 -0.6219 -0.3093 -0.4223
 3959ntf    fn420497   3.462   0.880   0.070  0.2861  0.3025  0.0901
 3959ntf    fn420498   3.305   0.951  -0.056  0.2118  0.4826  0.2099
 3959ntf    on520499   3.323   0.674   0.189  0.4508  0.2192 -0.3072
 3959ntf    on520500   3.116   0.734   0.067 -0.1733  0.1081 -0.7872
 3959ntf    on520501   3.363   0.416   0.029  0.4934  0.2053  0.1399
 3959ntf    on520502   3.487   0.508  -0.164  0.4386  0.5533  0.5927
 3959ntf    fn420503   3.116   0.482  -0.122 -0.1057 -0.2266  0.1491
 3959ntf    fn420504   3.216   0.535  -0.300  0.3011  0.6471  0.5022
 3959ntf    fn420505   3.223   0.336  -0.225 -0.4003 -0.1165  0.5534
 3960ntf    cn120506   3.875   5.064   5.612 -0.1614 -0.1091 -0.1401
 3960ntf    sn220507   3.860   4.925   5.496 -0.3452  0.1432 -0.4210
 3960ntf    nn320508   3.785   4.821   5.587 -0.2275 -0.3035 -0.8308
 3960ntf    sn220509   3.632   4.785   5.581 -0.3526  0.1350 -0.3463
 3960ntf    cn120510   3.645   4.634   5.481 -0.3194 -0.1347  0.0644
 3960ntf    fn420511   3.766   5.097   5.679  0.1470 -0.0876  0.3574
 3960ntf    fn420512   3.965   5.031   5.704  0.2022 -0.5164 -0.6367
 3960ntf    fn420513   3.919   5.173   5.550 -0.3026 -0.2598 -0.5065
 3960ntf    on520514   3.786   4.972   5.382 -0.3256 -0.0728 -0.5231
 3960ntf    on520515   3.995   4.881   5.469 -0.6201 -0.2335 -1.1823
 3960ntf    on520516   3.543   4.871   5.507 -0.1497  0.1676 -0.5542
 3960ntf    on520517   3.576   4.734   5.703  0.3077 -0.3099 -0.2220
 3960ntf    fn420518   3.526   4.575   5.474 -0.1213 -0.5501  0.1701
 3960ntf    fn420519   3.697   4.658   5.362  0.0686  0.5657  0.3708
 3960ntf    fn420520   3.718   4.543   5.543  0.6568  0.4669 -0.1862
 3961ntf    cn120521   0.972   0.055   4.466 -0.0335  0.3638  0.2927
 3961ntf    sn220522   1.063  -0.019   4.327 -0.5235  0.3611 -0.0303
 3961ntf    nn320523   1.096   0.096   4.225  0.0884 -0.1716 -0.4416
 3961ntf    sn220524   1.238   0.145   4.178  0.1187  0.1588 -0.0138
 3961ntf    cn120525   1.201   0.298   4.087  0.4449  0.1071 -0.2365
 3961ntf    fn420526   0.935  -0.037   4.554 -0.0439  0.4521  0.3795
 3961ntf    fn420527   1.042   0.140   4.539  0.0845  0.0262  0.5749
 3961ntf    fn420528   0.857   0.113   4.436  0.0527  0.1828 -0.4269
 3961ntf    on520529   1.184  -0.069   4.388 -0.3870  0.0556 -0.5449
 3961ntf    on520530   0.979  -0.118   4.264 -0.2633  0.1941 -0.1187
 3961ntf    on520531   1.289   0.062   4.071 -0.4755 -0.0993 -0.1001
 3961ntf    on520532   1.330   0.185   4.282 -0.0067  0.4990 -0.0341
 3961ntf    fn420533   1.146   0.287   3.967 -0.9392  0.3918  0.3481
 3961ntf    fn420534   1.115   0.372   4.154  0.2186  0.3668 -0.8089
 3961ntf    fn420535   1.301   0.384   4.086  0.2553  0.3307 -0.0549
 3962ntf    cn120536   2.086   5.323   0.797 -0.0446  0.2003 -0.0650
 3962ntf    sn220537   2.006   5.165   0.840  0.1779 -0.0166 -0.4407
 3962ntf    nn320538   2.069   5.067   0.735  0.3236 -0.6912  0.2696
 3962ntf    sn220539   2.210   5.001   0.749  0.5367 -0.2966  0.0009
 3962ntf    cn120540   2.177   4.831   0.805 -0.1333 -0.2260 -0.1793
 3962ntf    fn420541   2.023   5.423   0.856 -0.2244 -0.3209  0.6416
 3962ntf    fn420542   2.210   5.325   0.843 -0.1671 -0.0183  0.2775
 3962ntf    fn420543   2.083   5.343   0.666  0.1140 -0.3458 -0.1519
 3962ntf    on520544   2.048   5.137   0.975 -0.7223 -0.0858 -0.1665
 3962ntf    on520545   1.864   5.178   0.814 -0.0394 -0.9127  0.2744
 3962ntf    on520546   2.302   5.050   0.849  0.2560  0.4846 -0.1179
 3962ntf    on520547   2.267   4.977   0.619 -0.5146 -0.3908 -0.4492
 3962ntf    fn420548   2.128   4.817   0.927  0.0839 -0.1145 -0.0782
 3962ntf    fn420549   2.097   4.765   0.723 -0.0032  0.0698 -0.5460
 3962ntf    fn420550   2.290   4.763   0.801  0.1203  0.1752  0.1535
 3963ntf    cn120551   6.578   5.668   4.472  0.1663  0.3051 -0.3722
 3963ntf    sn220552   6.616   5.606   4.306  0.5583  0.0056 -0.1747
 3963ntf    nn320553   6.729   5.503   4.339  0.0771 -0.5259 -0.1571
 3963ntf    sn220554   6.796   5.397   4.245  0.4736 -0.3549 -0.0692
 3963ntf    cn120555   6.788   5.253   4.355 -0.0499 -0.3532 -0.1032
 3963ntf    fn420556   6.688   5.721   4.524  0.2136  0.2025 -0.3679
 3963ntf    fn420557   6.484   5.761   4.478  0.1236  0.2407  0.0120
 3963ntf    fn420558   6.545   5.573   4.558 -0.0553  0.8398  0.1438
 3963ntf    on520559   6.496   5.552   4.247  0.3327 -0.1440  0.4198
 3963ntf    on520560   6.671   5.726   4.247 -0.3139  0.1497 -0.7212
 3963ntf    on520561   6.935   5.435   4.235  0.2686  0.3435 -0.3395
 3963ntf    on520562   6.716   5.348   4.136  0.3543 -0.3200  0.0034
 3963ntf    fn420563   6.836   5.273   4.477 -0.2770  0.6313 -0.1704
 3963ntf    fn420564   6.664   5.215   4.382  0.0184 -0.7246 -0.3114
 3963ntf    fn420565   6.851   5.150   4.301 -0.4115 -0.5978 -0.0616
 3964ntf    cn120566   5.066   7.331   4.669  0.4187  0.1188 -0.2632
 3964ntf    sn220567   5.075   7.155   4.716  0.0833  0.2010  0.1116
 3964ntf    nn320568   4.950   7.088   4.649  0.4848 -0.7600  0.3146
 3964ntf    sn220569   4.817   7.043   4.720  0.2138 -0.1455  0.2021
 3964ntf    cn120570   4.716   6.974   4.586  0.3219  0.2592 -0.0884
 3964ntf    fn420571   5.113   7.411   4.764  0.1917 -0.1617  0.0874
 3964ntf    fn420572   5.131   7.367   4.560  0.0522  0.0249 -0.5137
 3964ntf    fn420573   4.942   7.369   4.644  0.3708  0.4860  0.5183
 3964ntf    on520574   5.198   7.103   4.662  0.5404  0.6789  0.6877
 3964ntf    on520575   5.070   7.171   4.859  0.0974  0.0043  0.1343
 3964ntf    on520576   4.734   7.147   4.776 -0.1152 -0.4435  0.2738
 3964ntf    on520577   4.835   6.933   4.812 -0.6931 -0.4684 -0.0027
 3964ntf    fn420578   4.699   7.047   4.477 -0.1242 -0.1467 -0.2960
 3964ntf    fn420579   4.776   6.861   4.552 -0.0653  0.0667 -0.1305
 3964ntf    fn420580   4.599   6.932   4.631  0.7414 -0.5514  0.2693
 3965ntf    cn120581   6.507   4.602   1.775 -0.0364  0.0279 -0.1042
 3965ntf    sn220582   6.454   4.439   1.837  0.0093  0.0968  0.1138
 3965ntf    nn320583   6.456   4.343   1.713  0.2503 -0.2545  0.3866
 3965ntf    sn220584   6.569   4.246   1.664  0.0264 -0.1094 -0.4452
 3965ntf    cn120585   6.542   4.103   1.773 -0.4202  0.3242  0.0220
 3965ntf    fn420586   6.510   4.701   1.862  0.0083  0.1444 -0.2364
 3965ntf    fn420587   6.633   4.596   1.735  0.1698  0.1816  0.5188
 3965ntf    fn420588   6.432   4.652   1.677  0.1970  0.2885 -0.1492
 3965ntf    on520589   6.548   4.405   1.941 -0.1703 -0.0878  0.2149
 3965ntf    on520590   6.317   4.465   1.873  0.0929 -0.5356  0.9302
 3965ntf    on520591   6.700   4.298   1.695  0.2403 -1.0003  0.2044
 3965ntf    on520592   6.545   4.193   1.532 -0.4037 -0.3874 -0.2591
 3965ntf    fn420593   6.616   3.999   1.737 -0.2807  0.4699 -0.1143
 3965ntf    fn420594   6.569   4.132   1.900  0.3625  0.1073 -0.0858
 3965ntf    fn420595   6.419   4.055   1.771 -0.2931  0.0153 -0.3770
 3966ntf    cn120596   6.245   0.043   5.357 -0.3894 -0.0774  0.1257
 3966ntf    sn220597   6.223  -0.131   5.308 -0.0532 -0.0286 -0.1987
 3966ntf    nn320598   6.340  -0.158   5.206 -0.1201 -0.4537 -0.1633
 3966ntf    sn220599   6.481  -0.223   5.226  0.1032  0.0475 -0.1105
 3966ntf    cn120600   6.575  -0.138   5.095  0.0281 -0.2692 -0.3700
 3966ntf    fn420601   6.345   0.063   5.440 -0.3335 -0.7119  0.2135
 3966ntf    fn420602   6.273   0.105   5.244 -0.5831 -0.6813 -0.2616
 3966ntf    fn420603   6.135   0.097   5.407 -0.4118  0.1346 -0.1445
 3966ntf    on520604   6.232  -0.197   5.436  0.4349  0.7353  0.1733
 3966ntf    on520605   6.093  -0.126   5.247 -0.2975 -0.2200  0.2993
 3966ntf    on520606   6.498  -0.359   5.184 -0.3283  0.0304 -0.2292
 3966ntf    on520607   6.549  -0.178   5.345  0.3003  0.0529 -0.2242
 3966ntf    fn420608   6.705  -0.162   5.094  0.1524  0.3199  0.5126
 3966ntf    fn420609   6.527  -0.157   4.974  0.4700 -0.3200 -0.5401
 3966ntf    fn420610   6.553  -0.009   5.107  0.2061 -0.3000  0.3569
 3967ntf    cn120611   1.023   3.951   3.176  0.1796 -0.1799  0.1182
 3967ntf    sn220612   1.141   4.012   3.053 -0.3785  0.5710 -0.0556
 3967ntf    nn320613   1.238   4.093   3.146 -0.3332  0.0283  0.3739
 3967ntf    sn220614   1.208   4.231   3.215 -0.0219  0.2465  0.0760
 3967ntf    cn120615   1.292   4.344   3.100 -0.1181  0.1386 -0.0998
 3967ntf    fn420616   1.083   3.897   3.281  0.6861 -0.3638 -0.2635
 3967ntf    fn420617   0.947   4.046   3.230  0.5882 -0.0972  0.5518
 3967ntf    fn420618   0.942   3.860   3.125  0.4476 -0.6678  0.5475
 3967ntf    on520619   1.199   3.891   3.000 -0.9548  0.3800 -0.2598
 3967ntf    on520620   1.065   4.092   2.960  0.1955  0.8122 -0.3259
 3967ntf    on520621   1.282   4.249   3.338  0.0081  0.0208  0.0905
 3967ntf    on520622   1.069   4.268   3.209  0.1166  0.7378 -0.1692
 3967ntf    fn420623   1.409   4.299   3.058 -0.2124 -0.0874 -0.1240
 3967ntf    fn420624   1.213   4.359   2.995  0.0162  0.1760 -0.1956
 3967ntf    fn420625   1.310   4.462   3.158  0.2584  0.0350 -0.0040
 3968ntf    cn120626   7.183   3.278   5.069 -0.4063 -0.1292  0.5749
 3968ntf    sn220627   7.260   3.114   5.081 -0.1869 -0.0684  0.0230
 3968ntf    nn320628   7.133   3.035   5.033 -0.0103 -0.4477  0.1778
 3968ntf    sn220629   7.108   2.989   4.884 -0.1364  0.1077  0.0249
 3968ntf    cn120630   7.001   2.845   4.910 -0.2835  0.1139 -0.5380
 3968ntf    fn420631   7.275   3.369   5.099 -0.0651 -0.0632 -0.6363
 3968ntf    fn420632   7.125   3.304   4.953 -0.6261 -0.4748  0.6077
 3968ntf    fn420633   7.085   3.295   5.156 -0.1535  0.5061  0.7449
 3968ntf    on520634   7.375   3.118   4.995 -0.1589  0.4342  0.0813
 3968ntf    on520635   7.297   3.106   5.220  0.2499  0.3547 -0.0654
 3968ntf    on520636   7.220   2.930   4.816  0.2911  0.5180  0.3631
 3968ntf    on520637   7.032   3.081   4.803 -0.0787  0.2183  0.0946
 3968ntf    fn420638   6.916   2.823   4.811 -0.5080 -0.8400 -0.1497
 3968ntf    fn420639   7.074   2.735   4.913 -0.1929  0.1862  0.4228
 3968ntf    fn420640   6.928   2.854   5.020  0.1968  0.3776 -0.2359
 3969ntf    cn120641   3.470   3.482   0.739 -0.0781  0.3408 -0.0434
 3969ntf    sn220642   3.629   3.569   0.739  0.0770  0.0637  0.2192
 3969ntf    nn320643   3.727   3.449   0.761  0.1141  0.0138 -0.1963
 3969ntf    sn220644   3.865   3.418   0.693  0.1823 -0.1326  0.0077
 3969ntf    cn120645   3.828   3.351   0.528 -0.5754 -0.1607  0.1883
 3969ntf    fn420646   3.477   3.394   0.641 -0.2579 -0.2103  0.4277
 3969ntf    fn420647   3.461   3.414   0.853  0.0984  0.1825 -0.1232
 3969ntf    fn420648   3.366   3.561   0.720 -0.4526 -0.2330 -0.3976
 3969ntf    on520649   3.640   3.630   0.608  1.0747 -0.2240  0.1538
 3969ntf    on520650   3.609   3.656   0.852 -0.0963 -0.0599  0.2818
 3969ntf    on520651   3.932   3.306   0.756  0.8811  0.2819  0.0126
 3969ntf    on520652   3.954   3.527   0.662  0.1569 -0.1879 -0.2612
 3969ntf    fn420653   3.924   3.275   0.478 -0.5110  0.3001 -0.3919
 3969ntf    fn420654   3.715   3.281   0.529 -0.4370 -0.3910 -0.2273
 3969ntf    fn420655   3.804   3.444   0.438 -0.2421  0.0006  0.2671
 3970ntf    cn120656   0.532   3.796   3.103  0.2315  0.1756 -0.4531
 3970ntf    sn220657   0.388   3.842   3.001  0.0232 -0.1060 -0.2875
 3970ntf    nn320658   0.466   3.951   2.920  0.4416  0.0466  0.3156
 3970ntf    sn220659   0.481   4.107   2.933 -0.4586  0.1498  0.1354
 3970ntf    cn120660   0.332   4.159   2.841 -0.3688  0.2375  0.0390
 3970ntf    fn420661   0.490   3.722   3.204  0.3033  0.4900 -0.1916
 3970ntf    fn420662   0.628   3.733   3.038 -0.0974 -0.1009 -0.6731
 3970ntf    fn420663   0.587   3.902   3.159  1.0597 -0.1889 -0.5543
 3970ntf    on520664   0.345   3.728   2.924 -0.8894 -0.0713  0.1556
 3970ntf    on520665   0.290   3.893   3.094 -0.4616 -0.7265 -0.4532
 3970ntf    on520666   0.587   4.152   2.845 -0.3188 -0.3988  0.0225
 3970ntf    on520667   0.473   4.165   3.064  0.3513  0.1207  0.2016
 3970ntf    fn420668   0.345   4.288   2.815 -0.0152  0.2209  0.1260
 3970ntf    fn420669   0.324   4.091   2.728  0.5426 -0.0035  0.1045
 3970ntf    fn420670   0.222   4.138   2.911 -0.3409 -0.1168 -0.0212
 3971ntf    cn120671   3.045   6.884   6.622 -0.1092  0.1700 -0.0896
 3971ntf    sn220672   3.107   6.933   6.459 -0.2774 -0.1819 -0.2605
 3971ntf    nn320673   3.072   7.086   6.458 -0.1923 -0.1644 -0.6335
 3971ntf    sn220674   3.174   7.204   6.443 -0.1818 -0.0680  0.1764
 3971ntf    cn120675   3.058   7.337   6.490  0.0233  0.2485 -0.2088
 3971ntf    fn420676   2.914   6.903   6.624 -0.0962  0.2172  0.3993
 3971ntf    fn420677   3.064   6.756   6.650  0.5014  0.2075 -0.3194
 3971ntf    fn420678   3.089   6.952   6.727  0.2696  0.0756 -0.1874
 3971ntf    on520679   3.247   6.897   6.455 -0.1782  0.0829  0.5989
 3971ntf    on520680   3.022   6.859   6.368 -0.8169 -0.2948  0.3312
 3971ntf    on520681   3.221   7.236   6.310  0.8280 -0.0895  0.5197
 3971ntf    on520682   3.269   7.209   6.552 -0.0223  0.6309  0.0133
 3971ntf    fn420683   2.944   7.336   6.423 -0.0938 -0.2914 -0.0049
 3971ntf    fn420684   3.022   7.336   6.617 -1.6043  0.2998 -0.6514
 3971ntf    fn420685   3.111   7.456   6.467  0.1195  0.1862 -0.3205
 3972ntf    cn120686   3.340   0.524   3.686 -0.3749 -0.0775  0.4791
 3972ntf    sn220687   3.287   0.365   3.614 -0.0146  0.0475 -0.0719
 3972ntf    nn320688   3.299   0.405   3.463 -0.0437  0.3689  0.0083
 3972ntf    sn220689   3.176   0.450   3.376 -0.0793 -0.0406 -0.1585
 3972ntf    cn120690   3.251   0.552   3.245 -0.1606  0.0758 -0.1154
 3972ntf    fn420691   3.245   0.615   3.674 -0.4526 -0.1127  0.8307
 3972ntf    fn420692   3.355   0.520   3.817 -0.2840 -0.4598  0.4574
 3972ntf    fn420693   3.450   0.572   3.631 -0.6704 -0.1798 -0.2155
 3972ntf    on520694   3.390   0.275   3.657  0.0170 -0.0985 -0.4572
 3972ntf    on520695   3.154   0.349   3.668  0.1167  0.0652  0.2622
 3972ntf    on520696   3.086   0.546   3.436  0.3357  0.2574 -0.0108
 3972ntf    on520697   3.120   0.346   3.294 -0.0240 -0.3358  0.1762
 3972ntf    fn420698   3.322   0.483   3.157 -0.0773  0.3864 -0.2900
 3972ntf    fn420699   3.175   0.628   3.168 -0.4278 -0.1163 -0.0449
 3972ntf    fn420700   3.333   0.641   3.300 -0.3410  0.3302 -0.2604
 3973ntf    cn120701   2.608   6.031   4.556  0.0178 -0.3087  0.3985
 3973ntf    sn220702   2.496   5.926   4.653 -0.4900 -0.4344 -0.3178
 3973ntf    nn320703   2.468   6.020   4.776 -0.0533 -0.7283  0.0079
 3973ntf    sn220704   2.338   6.027   4.864  0.0794 -0.0698  0.1609
 3973ntf    cn120705   2.268   6.182   4.802  0.0089 -0.1937 -0.0717
 3973ntf    fn420706   2.580   6.024   4.427 -0.4940  0.1110  0.4877
 3973ntf    fn420707   2.599   6.156   4.598 -0.2116 -0.0345 -0.4521
 3973ntf    fn420708   2.734   5.992   4.571  0.2294  0.4197  0.5259
 3973ntf    on520709   2.380   5.912   4.569 -0.7297  0.4190 -0.1441
 3973ntf    on520710   2.576   5.810   4.678 -0.0947 -0.0585  0.1802
 3973ntf    on520711   2.352   6.065   5.003  0.4331  0.3720  0.0065
 3973ntf    on520712   2.235   5.931   4.832  0.4562 -0.4915  0.2003
 3973ntf    fn420713   2.343   6.283   4.844  0.3036 -0.2481 -0.4619
 3973ntf    fn420714   2.261   6.188   4.670 -0.4338  0.2478 -0.0307
 3973ntf    fn420715   2.145   6.197   4.847  0.1951  0.0602  0.3569
 3974ntf    cn120716   7.208   4.046   5.093 -0.3277  0.2343 -0.2628
 3974ntf    sn220717   7.256   4.072   4.919  0.3159 -0.1606 -0.1465
 3974ntf    nn320718   7.138   4.159   4.864  0.7417  0.1076 -0.6448
 3974ntf    sn220719   7.136   4.308   4.814 -0.2055  0.2609 -0.1858
 3974ntf    cn120720   6.960   4.348   4.795 -0.1708  0.1612 -0.7456
 3974ntf    fn420721   7.186   4.159   5.159  0.0011  0.2225 -0.1342
 3974ntf    fn420722   7.091   3.987   5.110 -0.0600 -0.1025  0.4020
 3974ntf    fn420723   7.295   3.975   5.163 -0.0372  0.3672 -0.4833
 3974ntf    on520724   7.383   4.138   4.934  0.2637 -0.0872 -0.0236
 3974ntf    on520725   7.255   3.939   4.863  0.5389 -0.2123 -0.0282
 3974ntf    on520726   7.180   4.314   4.677  0.1801 -0.0143 -0.0767
 3974ntf    on520727   7.184   4.405   4.910  0.5258 -0.0038 -0.2740
 3974ntf    fn420728   6.934   4.453   4.719 -0.0795  0.5547 -0.2398
 3974ntf    fn420729   6.889   4.254   4.735  0.0078  0.0412 -0.7700
 3974ntf    fn420730   6.900   4.359   4.913 -0.5472 -0.3577 -0.8870
 3975ntf    cn120731   4.310   4.146   3.435  0.2588 -0.1578  0.2983
 3975ntf    sn220732   4.382   4.298   3.503  0.4065 -0.0615 -0.0713
 3975ntf    nn320733   4.315   4.408   3.412  0.0516  0.4746  0.8281
 3975ntf    sn220734   4.377   4.506   3.306 -0.1367  0.0614  0.3324
 3975ntf    cn120735   4.288   4.451   3.158  0.1583  0.2654  0.0793
 3975ntf    fn420736   4.181   4.157   3.459  0.1317 -0.7124 -0.0984
 3975ntf    fn420737   4.332   4.129   3.305 -0.5806  0.1540  0.1077
 3975ntf    fn420738   4.355   4.030   3.481  0.4448 -0.2057  0.0021
 3975ntf    on520739   4.334   4.310   3.638 -0.3215  0.3586 -0.3593
 3975ntf    on520740   4.523   4.274   3.488  0.4411 -0.2065  0.4600
 3975ntf    on520741   4.516   4.484   3.273 -0.0390  0.0079  0.7611
 3975ntf    on520742   4.337   4.642   3.329  0.1064  0.1261  0.3746
 3975ntf    fn420743   4.318   4.524   3.052 -1.5278  0.0214 -0.6014
 3975ntf    fn420744   4.313   4.326   3.121 -0.1367  0.1746  0.1854
 3975ntf    fn420745   4.158   4.474   3.169  0.1160  0.2243 -0.3130
 3976ntf    cn120746   5.574   0.968   1.425 -0.4403 -0.1399  0.1537
 3976ntf    sn220747   5.492   0.871   1.294 -0.1778  0.2718 -0.3198
 3976ntf    nn320748   5.566   0.922   1.165  0.6438 -0.0311  0.0260
 3976ntf    sn220749   5.622   0.840   1.043 -0.2738 -0.2054 -0.2820
 3976ntf    cn120750   5.510   0.899   0.912 -0.3628 -0.2654 -0.2332
 3976ntf    fn420751   5.506   0.970   1.538 -0.7836 -0.2970 -0.0505
 3976ntf    fn420752   5.696   0.932   1.465 -0.2050  0.3259 -0.1376
 3976ntf    fn420753   5.591   1.093   1.387 -0.2480 -0.0170  0.6364
 3976ntf    on520754   5.515   0.732   1.326 -0.3096  0.0020 -1.3852
 3976ntf    on520755   5.356   0.912   1.313  0.0632  0.8879  0.1246
 3976ntf    on520756   5.609   0.697   1.042  0.2065 -0.2490 -0.5180
 3976ntf    on520757   5.753   0.889   1.008 -0.1906 -0.1129  0.1518
 3976ntf    fn420758   5.542   0.878   0.785  0.7891 -0.5589  0.0886
 3976ntf    fn420759   5.385   0.863   0.933 -0.3487  0.1547  0.5950
 3976ntf    fn420760   5.504   1.031   0.923 -0.1992 -0.3485  0.9111
 3977ntf    cn120761   1.622   2.677   0.669  0.0618 -0.1011 -0.0489
 3977ntf    sn220762   1.710   2.830   0.625  0.0864 -0.0665  0.1218
 3977ntf    nn320763   1.836   2.822   0.719  0.3478  0.0290 -0.2196
 3977ntf    sn220764   1.880   2.879   0.859  0.2899  0.2370 -0.2850
 3977ntf    cn120765   1.989   3.013   0.803  0.5720 -0.0790 -0.5008
 3977ntf    fn420766   1.695   2.570   0.643  0.1153 -0.1808  0.4286
 3977ntf    fn420767   1.591   2.676   0.798 -0.0083 -0.6710 -0.0645
 3977ntf    fn420768   1.507   2.650   0.609  0.0410 -0.4093  0.1265
 3977ntf    on520769   1.736   2.806   0.486  0.5726  0.4783  0.1160
 3977ntf    on520770   1.613   2.931   0.659  0.3030  0.0910  0.2757
 3977ntf    on520771   1.958   2.781   0.929  0.1906  0.4168  0.0766
 3977ntf    on520772   1.774   2.944   0.932  0.4963  0.4799 -0.2017
 3977ntf    fn420773   1.932   3.097   0.717 -0.2205 -0.3821 -0.2868
 3977ntf    fn420774   2.038   3.090   0.899  0.0347 -0.6420  0.2398
 3977ntf    fn420775   2.084   2.959   0.730 -0.1297 -1.2517 -0.5750
 3978ntf    cn120776   2.466   1.387   5.750  0.2550 -0.1523  0.2727
 3978ntf    sn220777   2.428   1.243   5.646 -0.0979  0.1509 -0.0204
 3978ntf    nn320778   2.570   1.176   5.638 -0.4334 -0.5103 -0.5253
 3978ntf    sn220779   2.652   1.128   5.763 -0.5331 -0.3123 -0.3813
 3978ntf    cn120780   2.750   0.998   5.681  0.2807 -0.0001  0.0989
 3978ntf    fn420781   2.382   1.487   5.728  0.1380 -0.2350  0.3421
 3978ntf    fn420782   2.465   1.354   5.878 -0.0607 -0.4147  0.2037
 3978ntf    fn420783   2.587   1.435   5.723 -0.0551  0.3649 -0.2256
 3978ntf    on520784   2.332   1.170   5.724 -0.4183  0.4751 -0.1037
 3978ntf    on520785   2.386   1.293   5.517 -0.4112  0.1804  0.0922
 3978ntf    on520786   2.588   1.049   5.865  0.2662 -0.2716  0.1583
 3978ntf    on520787   2.751   1.221   5.811 -0.3289 -0.5255 -0.3892
 3978ntf    fn420788   2.678   0.929   5.595  0.1631  0.2589 -0.0134
 3978ntf    fn420789   2.845   1.051   5.606 -0.0931  0.0552 -0.3347
 3978ntf    fn420790   2.817   0.920   5.764  0.1490 -0.4338 -0.2019
 3979ntf    cn120791   6.251   6.050   4.518 -0.8566  0.4355 -0.1979
 3979ntf    sn220792   6.321   6.203   4.587 -0.0347  0.1115 -0.2922
 3979ntf    nn320793   6.434   6.145   4.678  0.1220  0.4314 -0.2828
 3979ntf    sn220794   6.589   6.172   4.679  0.1943  0.0146 -0.1859
 3979ntf    cn120795   6.644   6.036   4.572 -0.1081 -0.3759  0.1525
 3979ntf    fn420796   6.146   6.067   4.440 -0.7291 -0.7641 -0.6543
 3979ntf    fn420797   6.343   5.986   4.447 -0.6409  0.4117  0.1028
 3979ntf    fn420798   6.206   5.968   4.611 -0.0122  0.0552 -0.1138
 3979ntf    on520799   6.363   6.278   4.472  0.4017  0.0152 -0.1943
 3979ntf    on520800   6.217   6.265   4.666 -0.0824  0.0068 -0.2711
 3979ntf    on520801   6.649   6.133   4.804  0.8698 -0.5210 -0.6700
 3979ntf    on520802   6.637   6.298   4.628 -0.1379  0.3371  0.2909
 3979ntf    fn420803   6.596   6.037   4.448 -0.0878  0.1843  0.1475
 3979ntf    fn420804   6.775   6.040   4.559 -0.1233  0.2220  0.1747
 3979ntf    fn420805   6.603   5.920   4.621  0.2390 -0.3672  0.4697
 3980ntf    cn120806   2.226   3.316   6.946 -0.0183 -0.1448  0.2539
 3980ntf    sn220807   2.061   3.363   6.884  0.1372 -0.0961 -0.1213
 3980ntf    nn320808   2.047   3.500   6.959  0.4215 -0.1384  0.0119
 3980ntf    sn220809   2.028   3.642   6.895 -0.1885 -0.3702 -0.3347
 3980ntf    cn120810   1.848   3.628   6.873 -0.2747 -0.1036  0.1909
 3980ntf    fn420811   2.264   3.366   7.063 -0.2324  0.0312  0.2508
 3980ntf    fn420812   2.244   3.185   6.951 -0.1984 -0.1545  0.7278
 3980ntf    fn420813   2.318   3.359   6.862 -0.7059 -0.1941 -0.5349
 3980ntf    on520814   2.079   3.367   6.741  0.4897 -0.0417 -0.0766
 3980ntf    on520815   1.974   3.262   6.938  0.0707 -0.0006 -0.0503
 3980ntf    on520816   2.094   3.676   6.771 -0.1736  0.2439 -0.1654
 3980ntf    on520817   2.041   3.740   7.000  0.2431 -0.1877 -0.5525
 3980ntf    fn420818   1.782   3.567   6.969  0.2622 -0.5376  0.2906
 3980ntf    fn420819   1.788   3.745   6.858 -0.2457 -0.0461  0.5146
 3980ntf    fn420820   1.829   3.563   6.760  0.4317 -0.1015  0.0626
 3981ntf    cn120821   3.406   3.148   3.081  0.2110 -0.0052  0.1785
 3981ntf    sn220822   3.499   3.287   3.151 -0.2596  0.1349  0.5372
 3981ntf    nn320823   3.607   3.226   3.248 -0.0071 -0.2947 -0.0072
 3981ntf    sn220824   3.734   3.142   3.212  0.2120  0.1102 -0.1823
 3981ntf    cn120825   3.852   3.280   3.213  0.3986 -0.0496  0.0171
 3981ntf    fn420826   3.282   3.183   3.049  0.2067  0.1684  0.3871
 3981ntf    fn420827   3.461   3.087   2.977  0.9048  0.1910  0.4311
 3981ntf    fn420828   3.399   3.050   3.170  0.6749 -0.0200  0.1971
 3981ntf    on520829   3.553   3.351   3.033 -0.3276  0.1640  0.5220
 3981ntf    on520830   3.400   3.356   3.229 -0.1079  0.5024  0.4074
 3981ntf    on520831   3.738   3.082   3.081 -0.8129 -0.2806 -0.0452
 3981ntf    on520832   3.763   3.053   3.322  0.5449  0.0549 -0.3117
 3981ntf    fn420833   3.822   3.366   3.117  0.0565  0.1555  0.3073
 3981ntf    fn420834   3.841   3.341   3.329  0.1422  0.2324 -0.1539
 3981ntf    fn420835   3.981   3.252   3.196  0.2347 -0.4391 -0.6286
 3982ntf    cn120836   6.152   3.421   1.372  0.4364  0.1860 -0.1888
 3982ntf    sn220837   6.160   3.563   1.485  0.1197 -0.0031  0.0723
 3982ntf    nn320838   6.215   3.480   1.607  0.1035  0.3257  0.3053
 3982ntf    sn220839   6.365   3.476   1.650  0.1723  0.0465  0.0414
 3982ntf    cn120840   6.373   3.614   1.768  0.4618 -0.2475  0.3705
 3982ntf    fn420841   6.272   3.378   1.337  0.3356 -0.5650  0.3673
 3982ntf    fn420842   6.092   3.322   1.435 -0.1162 -0.0078 -1.0020
 3982ntf    fn420843   6.077   3.441   1.264 -0.0946  0.2442  0.1884
 3982ntf    on520844   6.252   3.657   1.426  0.0369  0.1711  0.2201
 3982ntf    on520845   6.024   3.608   1.502 -0.0971 -0.4683 -0.4277
 3982ntf    on520846   6.460   3.506   1.546 -0.3448  0.3691 -0.3405
 3982ntf    on520847   6.390   3.357   1.728  0.3597 -0.0213 -0.1205
 3982ntf    fn420848   6.491   3.625   1.826  0.3810  0.8350  0.3467
 3982ntf    fn420849   6.348   3.730   1.710  0.1327 -0.1855  0.6333
 3982ntf    fn420850   6.285   3.583   1.862  0.0536 -0.0810  0.0498
 3983ntf    cn120851   0.504   4.763   6.211  0.0143  0.0448  0.0275
 3983ntf    sn220852   0.625   4.882   6.276  0.1822  0.1620 -0.4917
 3983ntf    nn320853   0.752   4.789   6.282 -0.1531 -0.2501  0.4620
 3983ntf    sn220854   0.891   4.860   6.295 -0.0728 -0.2509 -0.3523
 3983ntf    cn120855   0.993   4.740   6.386  0.1134  0.0532 -0.1609
 3983ntf    fn420856   0.387   4.823   6.197 -0.0565  0.0443  0.6117
 3983ntf    fn420857   0.528   4.696   6.100 -0.1993  0.3753 -0.2212
 3983ntf    fn420858   0.482   4.665   6.297  0.8197 -0.1617  0.0019
 3983ntf    on520859   0.627   4.986   6.177 -0.1320 -0.1288 -0.8040
 3983ntf    on520860   0.566   4.914   6.404 -0.8322  0.1960 -0.9663
 3983ntf    on520861   0.898   4.978   6.377  0.5811 -0.2263 -0.4412
 3983ntf    on520862   0.954   4.866   6.165  0.4888  0.3853 -0.0547
 3983ntf    fn420863   1.018   4.636   6.309 -0.3714  0.0586 -0.3304
 3983ntf    fn420864   1.105   4.804   6.413 -0.1462  0.0641  0.9714
 3983ntf    fn420865   0.944   4.689   6.499  0.5374 -0.1032 -0.0478
 3984ntf    cn120866   3.402   0.745   6.655 -0.0988 -0.2358 -0.3058
 3984ntf    sn220867   3.496   0.601   6.714 -0.0701 -0.1711 -0.1934
 3984ntf    nn320868   3.634   0.626   6.644 -0.0125  0.0811  0.0083
 3984ntf    sn220869   3.779   0.593   6.696 -0.0285  0.3207  0.2056
 3984ntf    cn120870   3.835   0.520   6.540 -0.2123  0.5118  0.0474
 3984ntf    fn420871   3.467   0.853   6.695  0.0101 -0.8306  1.2000
 3984ntf    fn420872   3.399   0.759   6.523 -0.4382  0.2864 -0.2456
 3984ntf    fn420873   3.278   0.756   6.700 -0.0069  0.7214 -0.2573
 3984ntf    on520874   3.498   0.612   6.858 -0.6169  0.3279 -0.2198
 3984ntf    on520875   3.426   0.489   6.657 -0.5873 -0.1445  0.3781
 3984ntf    on520876   3.778   0.481   6.787  0.7234  0.1346 -0.0122
 3984ntf    on520877   3.862   0.707   6.725  0.8332 -0.2371 -0.0428
 3984ntf    fn420878   3.749   0.429   6.497  0.0567  0.3307 -0.1190
 3984ntf    fn420879   3.873   0.601   6.443 -0.3622  0.1441 -0.3243
 3984ntf    fn420880   3.945   0.449   6.562 -0.3180  0.2867 -0.1374
 3985ntf    cn120881   5.837   0.259   7.336  0.5220 -0.2176  0.2522
 3985ntf    sn220882   5.730   0.168   7.220  0.2453  0.2154  0.1668
 3985ntf    nn320883   5.624   0.282   7.200 -0.0801 -0.0658  0.2657
 3985ntf    sn220884   5.472   0.268   7.163 -0.0540  0.1314  0.0824
 3985ntf    cn120885   5.429   0.442   7.191  0.2222  0.1919  0.1387
 3985ntf    fn420886   5.780   0.267   7.455 -0.3382  0.4148 -0.1942
 3985ntf    fn420887   5.940   0.176   7.347  0.1584 -0.6764  0.2206
 3985ntf    fn420888   5.874   0.382   7.303 -0.4840 -0.0644 -0.3407
 3985ntf    on520889   5.793   0.137   7.094  0.1881  0.4934  0.0707
 3985ntf    on520890   5.700   0.050   7.298 -0.1931 -0.0635 -0.4141
 3985ntf    on520891   5.391   0.198   7.259 -0.1772  0.7094  0.4016
 3985ntf    on520892   5.439   0.245   7.025  0.4815 -0.5148  0.0590
 3985ntf    fn420893   5.485   0.529   7.109  0.0382  0.0202 -0.1671
 3985ntf    fn420894   5.299   0.463   7.173  0.2174 -0.2401 -0.3440
 3985ntf    fn420895   5.450   0.479   7.317  0.1552 -0.5741  0.3802
 3986ntf    cn120896   5.578   4.631   1.496 -0.0467 -0.1482  0.4782
 3986ntf    sn220897   5.505   4.728   1.360  0.4176  0.0770  0.3869
 3986ntf    nn320898   5.378   4.792   1.425  0.4464  0.4492  0.0796
 3986ntf    sn220899   5.224   4.768   1.403  0.4856  0.1113  0.1604
 3986ntf    cn120900   5.179   4.905   1.292  0.0045 -0.0407  0.1670
 3986ntf    fn420901   5.502   4.528   1.527 -0.4479  0.1800  0.5905
 3986ntf    fn420902   5.692   4.575   1.457 -0.0044  0.1703  0.1290
 3986ntf    fn420903   5.596   4.697   1.609  0.1013 -0.1948  0.4826
 3986ntf    on520904   5.607   4.827   1.335  0.1191  0.2651 -0.1017
 3986ntf    on520905   5.473   4.629   1.261 -0.4149  0.2568  0.4729
 3986ntf    on520906   5.152   4.798   1.524  0.0320  0.5918 -0.2250
 3986ntf    on520907   5.194   4.649   1.327 -0.4016  0.4289 -0.0048
 3986ntf    fn420908   5.229   5.024   1.323  0.6242 -0.2052 -0.1843
 3986ntf    fn420909   5.224   4.877   1.171 -0.2212 -0.4798  0.1852
 3986ntf    fn420910   5.049   4.924   1.276  0.0460  0.4693  0.3998
 3987ntf    cn120911   6.445   5.161   1.870 -0.1902  0.0900 -0.8248
 3987ntf    sn220912   6.299   5.129   1.767 -0.5844  0.2187 -0.3109
 3987ntf    nn320913   6.267   5.268   1.700 -0.5240  0.4727  0.1840
 3987ntf    sn220914   6.234   5.296   1.549 -0.0256 -0.1749 -0.0534
 3987ntf    cn120915   6.055   5.325   1.566 -0.0114 -0.0290 -0.1541
 3987ntf    fn420916   6.429   5.270   1.943 -0.3545 -0.2215 -0.3968
 3987ntf    fn420917   6.480   5.068   1.956 -0.4495  0.2452 -0.5508
 3987ntf    fn420918   6.558   5.168   1.802 -0.0770 -0.1666 -0.6619
 3987ntf    on520919   6.339   5.029   1.671 -0.3225  0.1281 -0.1078
 3987ntf    on520920   6.204   5.091   1.869  0.0434  0.2694  0.2976
 3987ntf    on520921   6.241   5.186   1.456 -0.2020 -0.1439 -0.1031
 3987ntf    on520922   6.275   5.427   1.506  0.5808 -0.1720  0.5076
 3987ntf    fn420923   6.030   5.430   1.643  0.1397  0.1204 -0.3073
 3987ntf    fn420924   6.010   5.351   1.445 -0.2296 -0.9414 -0.2762
 3987ntf    fn420925   5.998   5.220   1.622 -0.4114  0.0663 -0.3821
 3988ntf    cn120926   0.668   0.318   0.149 -0.4914 -0.1073  0.2304
 3988ntf    sn220927   0.694   0.401  -0.010  0.0101 -0.1401  0.2944
 3988ntf    nn320928   0.654   0.287  -0.111 -0.0099  0.2568 -0.1517
 3988ntf    sn220929   0.718   0.258  -0.251  0.1527 -0.3865  0.0500
 3988ntf    cn120930   0.803   0.102  -0.215 -0.0014 -0.4848 -0.0111
 3988ntf    fn420931   0.662   0.395   0.256  0.1796 -0.0467  0.2244
 3988ntf    fn420932   0.547   0.263   0.147 -0.6611  0.2668  0.2086
 3988ntf    fn420933   0.752   0.218   0.169 -0.3312 -0.0591 -0.1917
 3988ntf    on520934   0.593   0.504  -0.015 -0.3359 -0.5249 -1.1257
 3988ntf    on520935   0.832   0.443  -0.011 -0.0071 -0.0818 -0.1495
 3988ntf    on520936   0.810   0.356  -0.303 -0.4139  0.2867  0.3063
 3988ntf    on520937   0.620   0.227  -0.353 -0.3410 -0.1185  0.4356
 3988ntf    fn420938   0.925   0.093  -0.265  0.1349  0.5195  0.1317
 3988ntf    fn420939   0.831   0.083  -0.087  0.2492 -0.1401 -0.0135
 3988ntf    fn420940   0.732  -0.004  -0.249 -0.2464 -0.2073 -0.3684
 3989ntf    cn120941   6.416   1.982   1.396  0.0660  0.2098  0.5436
 3989ntf    sn220942   6.559   1.890   1.330 -0.0838  0.4285 -0.0987
 3989ntf    nn320943   6.678   1.964   1.401  0.0564  0.0880  0.0227
 3989ntf    sn220944   6.781   2.068   1.344  0.0142 -0.1462 -0.4818
 3989ntf    cn120945   6.850   2.140   1.496 -0.1548  0.1020 -0.5216
 3989ntf    fn420946   6.297   1.926   1.384  0.1960  0.0080  0.1812
 3989ntf    fn420947   6.433   2.007   1.524 -0.0517 -0.2750  0.6549
 3989ntf    fn420948   6.409   2.101   1.339  0.6908  0.0716  0.1594
 3989ntf    on520949   6.538   1.758   1.384  0.3563  0.5049  0.2732
 3989ntf    on520950   6.539   1.905   1.188  0.7009 -0.2337 -0.2823
 3989ntf    on520951   6.712   2.184   1.292 -0.2749 -0.0410  0.1314
 3989ntf    on520952   6.887   2.000   1.275 -0.0739 -0.6776 -0.0962
 3989ntf    fn420953   6.910   2.055   1.577 -0.5004  0.4963  0.1511
 3989ntf    fn420954   6.933   2.240   1.472 -0.2729  0.3161 -0.0337
 3989ntf    fn420955   6.747   2.178   1.570  0.1722  0.4763 -0.2501
 3990ntf    cn120956   0.294   4.543   7.161  0.1533 -0.1345 -0.0389
 3990ntf    sn220957   0.226   4.514   6.995  0.2587 -0.2198 -0.0675
 3990ntf    nn320958   0.329   4.601   6.913 -0.1544  0.5202  0.1839
 3990ntf    sn220959   0.326   4.641   6.762 -0.1058 -0.2456 -0.0280
 3990ntf    cn120960   0.283   4.817   6.785  0.1416 -0.1998  0.0928
 3990ntf    fn420961   0.423   4.516   7.175  0.0995 -0.3545  0.0426
 3990ntf    fn420962   0.285   4.668   7.203  0.1369  0.0634 -0.6230
 3990ntf    fn420963   0.224   4.469   7.245  0.0108  0.0781  0.0314
 3990ntf    on520964   0.247   4.374   6.973 -0.0700 -0.3309  0.3067
 3990ntf    on520965   0.088   4.557   7.003  0.2809 -0.0780 -0.4301
 3990ntf    on520966   0.219   4.588   6.682 -0.4931  0.5358 -0.0358
 3990ntf    on520967   0.461   4.647   6.712 -0.0812  0.4275  0.0983
 3990ntf    fn420968   0.372   4.888   6.851  0.3840  0.0596 -0.5005
 3990ntf    fn420969   0.270   4.868   6.663 -0.4811  0.1037  0.2808
 3990ntf    fn420970   0.161   4.829   6.834  0.3563  0.0348  0.5668
 3991ntf    cn120971   2.208   6.783   2.131  0.0573  0.3416  0.2288
 3991ntf    sn220972   2.066   6.872   2.203 -0.1868  0.1960 -0.0744
 3991ntf    nn320973   2.140   6.975   2.294 -0.3475 -0.3384  0.6724
 3991ntf    sn220974   2.182   7.122   2.256 -0.1022 -0.6316 -0.2243
 3991ntf    cn120975   2.332   7.142   2.356 -0.0983 -0.8190 -0.1913
 3991ntf    fn420976   2.295   6.756   2.227  0.2075 -0.0001 -0.0027
 3991ntf    fn420977   2.186   6.675   2.058  0.1805  0.4732 -0.0039
 3991ntf    fn420978   2.267   6.868   2.049  0.1442 -0.1942 -0.2709
 3991ntf    on520979   1.993   6.920   2.088 -0.0318  0.6446  0.0125
 3991ntf    on520980   1.997   6.777   2.286 -0.3324  0.1322 -0.2664
 3991ntf    on520981   2.087   7.221   2.302  0.1879 -0.2240 -0.4969
 3991ntf    on520982   2.233   7.130   2.122  0.1852  0.0190 -0.0809
 3991ntf    fn420983   2.392   7.251   2.311  0.3076 -0.8083  0.3684
 3991ntf    fn420984   2.294   7.166   2.481  0.2696 -0.6366 -0.1121
 3991ntf    fn420985   2.424   7.048   2.347  0.3345 -0.4042 -0.1465
 3992ntf    cn120986   1.367   4.597   2.442 -0.1488 -0.4194  0.1267
 3992ntf    sn220987   1.292   4.536   2.596  0.3234 -0.1458  0.4709
 3992ntf    nn320988   1.150   4.603   2.604  0.4162  0.0437  0.5365
 3992ntf    sn220989   1.119   4.749   2.652  0.1412  0.0843  0.2328
 3992ntf    cn120990   1.081   4.713   2.826 -0.5370  0.1464  0.1016
 3992ntf    fn420991   1.392   4.727   2.432  0.2391 -0.4991  0.0501
 3992ntf    fn420992   1.477   4.536   2.402  0.1185 -0.1116  0.3726
 3992ntf    fn420993   1.286   4.568   2.343  0.0440 -0.6234  0.0298
 3992ntf    on520994   1.285   4.394   2.569  0.9525 -0.1051  0.0876
 3992ntf    on520995   1.384   4.581   2.697  0.3410  0.9577 -0.0243
 3992ntf    on520996   0.993   4.801   2.603  0.1720 -0.2002 -0.1566
 3992ntf    on520997   1.230   4.841   2.656 -0.0732  0.3422  0.3136
 3992ntf    fn420998   0.961   4.661   2.850 -0.4606 -0.2262 -0.3069
 3992ntf    fn420999   1.168   4.630   2.881 -0.5220 -0.0548 -0.2193
 3992ntf    fn421000   1.081   4.820   2.904  0.0250  0.1330  0.1235
 3993ntf    cn121001   6.539   4.547   2.547  0.3106 -0.3167 -0.4007
 3993ntf    sn221002   6.716   4.588   2.544  0.1970  0.2187 -0.0579
 3993ntf    nn321003   6.744   4.552   2.394  0.0805  0.1013 -0.0515
 3993ntf    sn221004   6.786   4.410   2.341  0.0038  0.1697 -0.2971
 3993ntf    cn121005   6.688   4.406   2.187  0.1193 -0.0682 -0.3652
 3993ntf    fn421006   6.509   4.486   2.661 -0.4488  0.1350 -0.3523
 3993ntf    fn421007   6.466   4.658   2.545  0.2740 -0.3304 -0.0081
 3993ntf    fn421008   6.500   4.467   2.449  0.3670 -0.2372 -0.4880
 3993ntf    on521009   6.716   4.731   2.557  0.1848  0.2351 -0.2308
 3993ntf    on521010   6.774   4.507   2.649 -0.2782  0.4408  0.3775
 3993ntf    on521011   6.727   4.296   2.407  0.2319  0.0876 -0.2349
 3993ntf    on521012   6.923   4.395   2.300  0.0103 -0.2450 -0.1294
 3993ntf    fn421013   6.562   4.438   2.207  0.0389 -0.7543  0.2516
 3993ntf    fn421014   6.750   4.486   2.102  0.4339 -0.4912 -0.5379
 3993ntf    fn421015   6.685   4.284   2.136 -0.9468  0.0055 -0.4832
 3994ntf    cn121016   2.859   5.004   0.781  0.0503 -0.2520 -0.0455
 3994ntf    sn221017   2.969   4.968   0.921 -0.0193 -0.1287  0.0412
 3994ntf    nn321018   2.897   4.834   0.960  0.0969 -0.1329  0.2476
 3994ntf    sn221019   2.948   4.686   0.959  0.0816 -0.1377 -0.1611
 3994ntf    cn121020   2.799   4.593   0.912  0.0467  0.0615 -0.4464
 3994ntf    fn421021   2.876   4.919   0.681  0.1452 -0.1149 -0.1464
 3994ntf    fn421022   2.732   5.005   0.817  0.0137 -0.0773 -0.1817
 3994ntf    fn421023   2.889   5.124   0.736 -0.0708 -0.2953 -0.2414
 3994ntf    on521024   3.098   4.954   0.857  0.4038  0.1184  0.8201
 3994ntf    on521025   2.953   5.075   1.016 -0.6502  0.2258 -0.4613
 3994ntf    on521026   2.991   4.645   1.091 -0.0256  0.3719  0.0334
 3994ntf    on521027   3.046   4.645   0.861  0.2487 -0.3385  0.0857
 3994ntf    fn421028   2.826   4.466   0.937  0.1842  0.2146  0.2268
 3994ntf    fn421029   2.685   4.616   0.975  0.0502  0.4087 -0.5626
 3994ntf    fn421030   2.772   4.587   0.783 -0.8471  0.3828 -0.2847
 3995ntf    cn121031   5.559   6.721   3.981 -0.8024 -0.1297 -0.5391
 3995ntf    sn221032   5.580   6.887   4.051  0.1325 -0.5165  0.1137
 3995ntf    nn321033   5.587   6.836   4.200 -0.1034 -0.0893  0.2722
 3995ntf    sn221034   5.717   6.810   4.284  0.2367 -0.2498 -0.3001
 3995ntf    cn121035   5.664   6.670   4.387  0.1514  0.0107  0.0100
 3995ntf    fn421036   5.472   6.652   4.053  0.0189 -0.0458  0.5630
 3995ntf    fn421037   5.506   6.722   3.860 -0.2523 -0.3695 -0.7900
 3995ntf    fn421038   5.672   6.653   3.965 -0.5513  0.0585  0.3915
 3995ntf    on521039   5.699   6.942   3.991 -0.0204 -0.0196  0.2636
 3995ntf    on521040   5.456   6.956   4.028  0.1081 -0.5219  0.2270
 3995ntf    on521041   5.737   6.908   4.387  0.4591 -0.1082 -0.4759
 3995ntf    on521042   5.835   6.755   4.221  0.7160 -0.0167  0.3795
 3995ntf    fn421043   5.594   6.579   4.322 -0.1731  0.5962 -0.4717
 3995ntf    fn421044   5.760   6.602   4.448  0.0010 -0.1481  0.0701
 3995ntf    fn421045   5.584   6.711   4.484 -0.4085 -0.8262 -0.0954
 3996ntf    cn121046   3.145   6.383   7.318  0.3749  0.2865 -0.0491
 3996ntf    sn221047   2.991   6.380   7.415  0.2272 -0.1301 -0.2920
 3996ntf    nn321048   2.983   6.527   7.468  0.2048 -0.0866 -0.4161
 3996ntf    sn221049   2.922   6.595   7.596  0.1851 -0.1013 -0.4177
 3996ntf    cn121050   3.060   6.671   7.687  0.1518 -0.0307 -0.4255
 3996ntf    fn421051   3.252   6.377   7.395  0.6539 -0.1797 -0.4617
 3996ntf    fn421052   3.151   6.279   7.236 -0.0965  0.0178  0.2562
 3996ntf    fn421053   3.158   6.486   7.236 -0.0107 -0.0808 -0.5816
 3996ntf    on521054   2.892   6.350   7.315  0.1295 -0.1592 -0.1868
 3996ntf    on521055   3.028   6.277   7.510  0.5402  0.3343  0.0947
 3996ntf    on521056   2.861   6.500   7.686  0.7510 -0.0131  0.0614
 3996ntf    on521057   2.845   6.711   7.557  0.3551  0.3442  0.5586
 3996ntf    fn421058   3.138   6.566   7.708 -0.1351 -0.2835 -0.5977
 3996ntf    fn421059   3.115   6.760   7.606 -0.1614  0.3403 -0.2352
 3996ntf    fn421060   3.019   6.740   7.792 -0.0125 -0.2414 -0.3499
 3997ntf    cn121061   5.757   3.863   6.891  0.0423  0.5115 -0.2166
 3997ntf    sn221062   5.617   3.782   6.807  0.0313  0.0207  0.2691
 3997ntf    nn321063   5.572   3.682   6.918  0.1913 -0.4959 -0.1279
 3997ntf    sn221064   5.430   3.637   6.968  0.1442 -0.0211  0.1812
 3997ntf    cn121065   5.424   3.729   7.124 -0.3041 -0.0064  0.1568
 3997ntf    fn421066   5.803   3.966   6.821 -0.0925  0.4176 -0.4434
 3997ntf    fn421067   5.724   3.896   7.015  0.6125  0.0151  0.0684
 3997ntf    fn421068   5.860   3.783   6.911 -0.2570  0.1923  0.0554
 3997ntf    on521069   5.515   3.882   6.783 -0.2785 -0.2986  0.2563
 3997ntf    on521070   5.670   3.708   6.696 -0.4009 -0.0686  0.1207
 3997ntf    on521071   5.416   3.498   7.005 -0.1376  0.1038  0.5443
 3997ntf    on521072   5.318   3.695   6.898  0.0885 -0.6581 -0.2694
 3997ntf    fn421073   5.510   3.683   7.213 -0.5383 -0.6595  0.0520
 3997ntf    fn421074   5.439   3.858   7.100 -0.1734 -0.0272  0.1265
 3997ntf    fn421075   5.298   3.722   7.164 -0.3749  0.4845  0.0325
 3998ntf    cn121076   5.722   6.041   4.673 -0.4166 -0.5275 -0.2587
 3998ntf    sn221077   5.721   6.159   4.811 -0.0157 -0.5359 -0.2463
 3998ntf    nn321078   5.656   6.086   4.935 -0.4299 -0.1671 -0.2471
 3998ntf    sn221079   5.724   6.000   5.046  0.0377  0.4090 -0.0804
 3998ntf    cn121080   5.734   6.113   5.188  0.1459 -0.0091  0.2503
 3998ntf    fn421081   5.821   5.953   4.683 -0.1778 -0.1930  0.3503
 3998ntf    fn421082   5.611   5.969   4.672 -0.3204 -0.6772 -0.3714
 3998ntf    fn421083   5.719   6.092   4.551 -0.3488  0.2358  0.0518
 3998ntf    on521084   5.855   6.203   4.840 -0.1496  0.0123 -0.4618
 3998ntf    on521085   5.637   6.269   4.772  0.5383  0.0987  0.3258
 3998ntf    on521086   5.860   5.963   5.014  0.1217  0.3813  0.2989
 3998ntf    on521087   5.633   5.897   5.091 -0.0697  0.3424 -0.4425
 3998ntf    fn421088   5.825   6.208   5.174 -0.5841  0.5997 -0.4904
 3998ntf    fn421089   5.617   6.171   5.208 -0.0964 -0.3365 -0.1869
 3998ntf    fn421090   5.767   6.046   5.296 -0.7000  0.0675  0.5636
 3999ntf    cn121091   4.820   1.325   5.987  0.1522 -0.1608 -0.5487
 3999ntf    sn221092   4.696   1.455   5.961  0.1139 -0.0384  0.2357
 3999ntf    nn321093   4.678   1.506   6.108 -0.1465 -0.0892  0.2231
 3999ntf    sn221094   4.560   1.598   6.156 -0.1913  0.0552 -0.1683
 3999ntf    cn121095   4.634   1.655   6.312  0.1067  0.2860 -0.3923
 3999ntf    fn421096   4.777   1.237   6.075  0.0902  0.4505  0.0404
 3999ntf    fn421097   4.854   1.244   5.888  0.0270  0.0263 -0.7462
 3999ntf    fn421098   4.934   1.357   6.047  0.1311  0.2192 -0.7085
 3999ntf    on521099   4.763   1.556   5.883  0.3580 -0.2477  0.1715
 3999ntf    on521100   4.585   1.384   5.901  0.2724 -0.3771  0.3414
 3999ntf    on521101   4.438   1.535   6.197 -0.2067  0.3668  0.2725
 3999ntf    on521102   4.540   1.722   6.083  0.6309  0.3504  0.0868
 3999ntf    fn421103   4.562   1.758   6.353 -0.1759  0.1190 -0.4705
 3999ntf    fn421104   4.627   1.569   6.411  0.3044  0.3157 -0.3514
 3999ntf    fn421105   4.761   1.685   6.286  0.1838 -0.0551 -0.4121
 4000ntf    cn121106   1.972   6.009   5.660 -0.4576 -0.0953 -0.3793
 4000ntf    sn221107   1.936   5.850   5.739 -0.1917 -0.0555 -0.1785
 4000ntf    nn321108   2.058   5.816   5.832 -0.0268 -0.2026 -0.4484
 4000ntf    sn221109   2.197   5.752   5.796 -0.0205 -0.4792  0.0604
 4000ntf    cn121110   2.167   5.573   5.784 -0.0231 -0.4553 -0.2957
 4000ntf    fn421111   2.093   6.008   5.608 -0.2757 -0.4880  0.0504
 4000ntf    fn421112   1.892   6.041   5.559 -0.1500 -0.1176 -0.6300
 4000ntf    fn421113   1.971   6.099   5.757 -0.2244  0.3115 -0.7525
 4000ntf    on521114   1.824   5.877   5.827 -0.2102  0.2201 -0.2863
 4000ntf    on521115   1.915   5.759   5.629  0.1609 -0.0631 -0.2403
 4000ntf    on521116   2.288   5.776   5.905  0.1952 -0.1044 -0.2018
 4000ntf    on521117   2.233   5.782   5.660 -0.2851 -0.1745  0.0554
 4000ntf    fn421118   2.093   5.541   5.889  0.0466  0.2495 -0.0311
 4000ntf    fn421119   2.086   5.544   5.683 -0.3472 -0.7653  0.0512
 4000ntf    fn421120   2.278   5.501   5.776  0.4722  0.2613  0.0728
 4001ntf    cn121121   3.742   5.199   2.098 -0.1468  0.1542  0.1395
 4001ntf    sn221122   3.706   5.025   2.138  0.1047 -0.0060 -0.3165
 4001ntf    nn321123   3.842   4.973   2.198 -0.2235 -0.4990  0.0069
 4001ntf    sn221124   3.873   4.937   2.347  0.2416  0.3720  0.1264
 4001ntf    cn121125   4.052   4.907   2.333  0.1409 -0.3194  0.2681
 4001ntf    fn421126   3.835   5.215   2.006  0.0856  0.0789  0.3601
 4001ntf    fn421127   3.635   5.264   2.056 -0.2518 -0.3719 -0.4207
 4001ntf    fn421128   3.787   5.265   2.204 -0.1743 -0.0408  0.2729
 4001ntf    on521129   3.602   5.039   2.237  0.3888 -0.3012  0.0241
 4001ntf    on521130   3.675   4.965   2.011  0.0380 -0.2151 -0.2021
 4001ntf    on521131   3.831   4.805   2.387  0.4879  0.3137  0.1911
 4001ntf    on521132   3.869   5.050   2.436 -0.2760  0.6097 -0.1967
 4001ntf    fn421133   4.117   5.022   2.329 -0.0855 -0.1919  0.2168
 4001ntf    fn421134   4.099   4.840   2.437 -0.2793 -0.3597  0.4328
 4001ntf    fn421135   4.079   4.844   2.219 -0.5603  0.9614 -0.6327
 4002ntf    cn121136   1.004   2.199   2.049 -0.0445  0.4144  0.3536
 4002ntf    sn221137   0.967   2.312   1.912  0.0050 -0.0376 -0.0325
 4002ntf    nn321138   1.035   2.448   1.949 -0.2130 -0.0748  0.5025
 4002ntf    sn221139   0.986   2.584   2.011  0.1497  0.1802  0.2312
 4002ntf    cn121140   1.141   2.676   1.989  0.0499  0.2119 -0.3587
 4002ntf    fn421141   0.925   2.214   2.154  0.2377  0.2841  0.5881
 4002ntf    fn421142   0.986   2.072   2.016  0.5614  0.3528  0.2577
 4002ntf    fn421143   1.127   2.212   2.097  0.1878  0.3341 -0.2106
 4002ntf    on521144   1.027   2.250   1.796 -0.9762 -0.5599 -0.2740
 4002ntf    on521145   0.823   2.312   1.914  0.0053 -0.3137  0.0432
 4002ntf    on521146   0.974   2.590   2.155 -0.1015  0.3914  0.2001
 4002ntf    on521147   0.887   2.656   1.935  0.3530 -0.1476 -0.3520
 4002ntf    fn421148   1.164   2.774   2.075  0.1227 -0.5433  0.5015
 4002ntf    fn421149   1.248   2.598   1.998  0.0379  0.2073 -0.2569
 4002ntf    fn421150   1.141   2.731   1.869 -0.1537  0.7278 -0.1237
 4003ntf    cn121151   2.909   7.183   2.577 -0.0686 -0.1302 -0.1649
 4003ntf    sn221152   3.037   7.155   2.703  0.3290 -0.0064 -0.5395
 4003ntf    nn321153   3.147   7.264   2.678  0.0727  0.3324 -0.2144
 4003ntf    sn221154   3.299   7.254   2.716 -0.0763  0.1200  0.3359
 4003ntf    cn121155   3.310   7.422   2.786 -0.0325  0.3655 -0.2505
 4003ntf    fn421156   2.834   7.078   2.551 -0.4776  0.1692 -0.2130
 4003ntf    fn421157   2.827   7.282   2.608 -0.2068 -0.3740  0.2524
 4003ntf    fn421158   2.966   7.209   2.461  0.2701 -0.1625 -0.0082
 4003ntf    on521159   2.970   7.176   2.829  0.1266  0.0168 -0.6506
 4003ntf    on521160   3.078   7.018   2.685 -0.4450 -0.2925 -0.2006
 4003ntf    on521161   3.387   7.264   2.602 -0.0572  0.5336  0.3853
 4003ntf    on521162   3.350   7.166   2.818  0.0968 -0.0031  0.1432
 4003ntf    fn421163   3.220   7.437   2.882 -0.1817  0.3751 -0.3908
 4003ntf    fn421164   3.425   7.449   2.845  0.0638 -0.2689 -0.1397
 4003ntf    fn421165   3.295   7.514   2.693 -0.1152  0.1505 -0.4505
 4004ntf    cn121166   5.947   1.383   5.537  0.2757  0.0880  0.6248
 4004ntf    sn221167   6.034   1.449   5.391 -0.1710 -0.1532  0.2451
 4004ntf    nn321168   5.911   1.512   5.316 -0.1324 -0.0948  0.2308
 4004ntf    sn221169   5.842   1.452   5.188  0.1192  0.0688  0.0174
 4004ntf    cn121170   5.948   1.524   5.059  0.0560 -0.2301 -0.2021
 4004ntf    fn421171   5.893   1.485   5.601  0.8284  0.7029  0.1308
 4004ntf    fn421172   5.849   1.304   5.498  0.1460  0.5628 -0.0295
 4004ntf    fn421173   6.034   1.320   5.613  0.3062 -0.5866  0.0446
 4004ntf    on521174   6.127   1.546   5.443  0.1417 -0.0919 -0.4225
 4004ntf    on521175   6.092   1.337   5.323 -0.0192  0.1013 -0.0437
 4004ntf    on521176   5.711   1.506   5.163  0.1715  0.0917 -0.2122
 4004ntf    on521177   5.859   1.311   5.162  0.0266  0.0612 -0.0030
 4004ntf    fn421178   6.075   1.489   5.056  0.2161  0.2483  0.6697
 4004ntf    fn421179   5.903   1.497   4.937 -0.1021  0.1231 -0.2246
 4004ntf    fn421180   5.941   1.655   5.073 -0.2751 -0.3003  0.2816
 4005ntf    cn121181   1.050   5.834   4.229  0.2583  0.1050 -0.1485
 4005ntf    sn221182   1.182   5.710   4.235  0.0195 -0.1479 -0.0606
 4005ntf    nn321183   1.294   5.769   4.328 -0.2981 -0.0085  0.2341
 4005ntf    sn221184   1.365   5.909   4.330 -0.2545 -0.0335  0.5020
 4005ntf    cn121185   1.513   5.862   4.424  0.0387 -0.4926 -0.1780
 4005ntf    fn421186   1.087   5.960   4.209 -0.2420  0.3347  0.3552
 4005ntf    fn421187   0.956   5.820   4.136 -0.1604  0.3384  0.2350
 4005ntf    fn421188   0.988   5.840   4.346  0.4599 -0.2707 -0.0220
 4005ntf    on521189   1.125   5.594   4.299 -0.3604  0.1745  0.1852
 4005ntf    on521190   1.215   5.690   4.096 -0.2430  0.1543 -0.1669
 4005ntf    on521191   1.299   6.006   4.413 -0.9919 -0.3649  0.3095
 4005ntf    on521192   1.426   5.959   4.209  0.3969 -0.9608  0.4378
 4005ntf    fn421193   1.590   5.970   4.434 -0.7729  0.0240  0.5782
 4005ntf    fn421194   1.470   5.828   4.544  0.6406 -0.3340  0.0871
 4005ntf    fn421195   1.593   5.765   4.381  0.4365 -0.2994  0.1155
 4006ntf    cn121196   6.526   5.127   0.325 -0.2028  0.0188 -0.0966
 4006ntf    sn221197   6.593   5.239   0.452 -0.0037  0.0367 -0.2182
 4006ntf    nn321198   6.556   5.383   0.400 -0.5946 -0.1591 -0.3538
 4006ntf    sn221199   6.637   5.494   0.323  0.3369 -0.4825  0.1432
 4006ntf    cn121200   6.617   5.639   0.431  0.5142 -0.0140 -0.4534
 4006ntf    fn421201   6.557   5.177   0.207  0.1302  0.2662  0.0910
 4006ntf    fn421202   6.560   5.000   0.336  0.2884  0.1371 -0.2531
 4006ntf    fn421203   6.394   5.135   0.329 -0.1836  0.0834  0.6796
 4006ntf    on521204   6.526   5.203   0.574 -0.7241  0.5927 -0.4401
 4006ntf    on521205   6.734   5.210   0.453  0.0290  0.2062  0.3708
 4006ntf    on521206   6.575   5.527   0.198 -0.0159 -0.6934  0.2595
 4006ntf    on521207   6.780   5.471   0.323  0.3723 -0.2971 -0.8192
 4006ntf    fn421208   6.720   5.721   0.414  0.2400  0.3351 -0.4301
 4006ntf    fn421209   6.501   5.700   0.416  0.4451 -0.0917 -0.2370
 4006ntf    fn421210   6.615   5.602   0.558 -0.0722 -0.1643 -0.5033
 4007ntf    cn121211   3.819   6.257   0.902 -0.3228 -0.4902  0.3504
 4007ntf    sn221212   3.997   6.235   0.929 -0.1521  0.2986 -0.0899
 4007ntf    nn321213   4.000   6.332   1.053  0.0199 -0.0625  0.1888
 4007ntf    sn221214   4.122   6.418   1.103  0.1055 -0.0121 -0.1028
 4007ntf    cn121215   4.247   6.291   1.138  0.4135  0.2201 -0.3545
 4007ntf    fn421216   3.785   6.380   0.866 -0.7533 -0.7254 -0.0576
 4007ntf    fn421217   3.771   6.179   0.806 -0.1168 -0.4980  0.2529
 4007ntf    fn421218   3.751   6.228   1.011 -0.2289 -0.5165  0.4016
 4007ntf    on521219   4.013   6.097   0.965 -0.3951  0.0269 -1.0151
 4007ntf    on521220   4.059   6.289   0.810  0.7261 -0.1316  0.1614
 4007ntf    on521221   4.083   6.474   1.230 -0.1271  0.0934 -0.2198
 4007ntf    on521222   4.185   6.504   1.007  0.4322 -0.6425 -0.4579
 4007ntf    fn421223   4.197   6.202   1.222 -0.2874  0.4533 -0.5171
 4007ntf    fn421224   4.291   6.220   1.036 -0.1540 -0.0447 -0.4208
 4007ntf    fn421225   4.354   6.347   1.192  0.5657 -0.5794  0.1794
 4008ntf    cn121226   4.005   7.191   0.176 -0.1055  0.0627  0.0963
 4008ntf    sn221227   3.972   7.357   0.109  0.2714 -0.1827 -0.7105
 4008ntf    nn321228   4.101   7.379   0.022  0.5572  0.1392 -0.2102
 4008ntf    sn221229   4.139   7.317  -0.117 -0.1474  0.1611 -0.4180
 4008ntf    cn121230   4.308   7.267  -0.073 -0.2565 -0.3453 -0.5650
 4008ntf    fn421231   4.129   7.184   0.222 -0.0560  0.2632 -0.0047
 4008ntf    fn421232   3.925   7.171   0.280 -0.8648  0.2555 -0.4405
 4008ntf    fn421233   3.981   7.088   0.096 -0.4502  0.1588  0.0740
 4008ntf    on521234   3.852   7.349   0.029  0.3031  0.2543 -0.8040
 4008ntf    on521235   3.964   7.441   0.226  1.2849 -0.1287 -0.6705
 4008ntf    on521236   4.155   7.419  -0.217 -0.1714 -0.1052 -0.6963
 4008ntf    on521237   4.073   7.194  -0.156 -0.8737  0.2799  0.4055
 4008ntf    fn421238   4.383   7.365  -0.025  0.1074 -1.0840  0.4157
 4008ntf    fn421239   4.301   7.174   0.021 -0.4710 -0.0717 -0.3117
 4008ntf    fn421240   4.368   7.215  -0.179  0.4085 -0.4359 -0.1517
 4009ntf    cn121241   0.038   0.290   3.813 -0.5062  0.0976  0.0620
 4009ntf    sn221242  -0.033   0.159   3.918  0.0094 -0.1240  0.1364
 4009ntf    nn321243   0.090   0.119   4.008 -0.1824  0.3122  0.6019
 4009ntf    sn221244   0.171  -0.015   4.018 -0.1254  0.3143  0.1863
 4009ntf    cn121245   0.065  -0.082   4.149 -0.1380 -0.2642 -0.1150
 4009ntf    fn421246   0.159   0.268   3.765 -0.5346  0.1562 -0.0355
 4009ntf    fn421247  -0.037   0.319   3.708  0.0050 -0.0473 -0.3449
 4009ntf    fn421248   0.052   0.407   3.873 -0.7625  0.1145  0.0903
 4009ntf    on521249  -0.123   0.236   4.000  0.4230  0.0400  0.4431
 4009ntf    on521250  -0.080   0.070   3.816 -0.0936  0.1228 -0.0319
 4009ntf    on521251   0.304   0.008   4.068  0.0984  0.2468 -0.3687
 4009ntf    on521252   0.162  -0.115   3.914  0.5299 -0.1329  0.5555
 4009ntf    fn421253   0.107  -0.044   4.269 -0.2938 -0.3500 -0.0324
 4009ntf    fn421254  -0.061  -0.045   4.132 -0.0343  0.0246 -0.2553
 4009ntf    fn421255   0.078  -0.214   4.147  0.2655 -0.2274  0.1011
 4010ntf    cn121256   3.603   2.765   6.054  0.3152  0.1425  0.1074
 4010ntf    sn221257   3.576   2.595   5.995 -0.1935  0.2874 -0.0775
 4010ntf    nn321258   3.420   2.594   6.015 -0.1345  0.2819  0.3807
 4010ntf    sn221259   3.316   2.658   5.916 -0.2236 -0.2406  0.1382
 4010ntf    cn121260   3.255   2.505   5.839  0.3782 -0.1450 -0.5391
 4010ntf    fn421261   3.572   2.788   6.181 -0.5569 -0.5385  0.0230
 4010ntf    fn421262   3.723   2.811   6.024  0.4664 -0.0261  0.4432
 4010ntf    fn421263   3.518   2.853   6.003 -0.1159 -0.4386 -0.1830
 4010ntf    on521264   3.627   2.598   5.860  0.3097 -0.5984  0.0880
 4010ntf    on521265   3.641   2.511   6.092 -0.9484 -0.3830 -0.1426
 4010ntf    on521266   3.372   2.741   5.813 -0.9457  0.3376  0.2033
 4010ntf    on521267   3.202   2.708   5.988 -0.3933 -0.2174 -0.1457
 4010ntf    fn421268   3.185   2.433   5.925 -0.1099  0.5358 -0.3560
 4010ntf    fn421269   3.166   2.531   5.744 -0.1670  0.4765  0.1298
 4010ntf    fn421270   3.347   2.431   5.778  0.1012 -0.7073 -0.2850
 4011ntf    cn121271   3.499   1.910   3.606  0.2855 -0.5752 -0.1828
 4011ntf    sn221272   3.415   2.070   3.589  0.3336 -0.5506 -0.1904
 4011ntf    nn321273   3.406   2.070   3.433 -0.1524 -0.1849 -0.1634
 4011ntf    sn221274   3.362   2.188   3.338 -0.0805 -0.0226  0.0054
 4011ntf    cn121275   3.204   2.117   3.282 -0.2966  0.2010  0.3213
 4011ntf    fn421276   3.516   1.875   3.732  0.0821 -0.4564 -0.1216
 4011ntf    fn421277   3.431   1.811   3.550 -0.0432 -0.3599 -0.1641
 4011ntf    fn421278   3.619   1.906   3.550  0.3067  0.0741 -0.1819
 4011ntf    on521279   3.291   2.045   3.659 -0.1418 -0.5947 -1.0397
 4011ntf    on521280   3.504   2.167   3.648 -0.2251  0.0008 -0.2471
 4011ntf    on521281   3.449   2.199   3.224  0.0377  0.4010  0.1345
 4011ntf    on521282   3.321   2.306   3.411  0.5085  0.0794  0.1756
 4011ntf    fn421283   3.153   2.031   3.369 -0.7865  0.2990  0.1339
 4011ntf    fn421284   3.100   2.191   3.248  0.1509  0.4440 -0.5542
 4011ntf    fn421285   3.223   2.035   3.180  0.1958  0.6937  0.0092
 4012ntf    cn121286   6.431   2.594   6.829  0.0828  0.1653  0.1671
 4012ntf    sn221287   6.356   2.555   6.668 -0.2594 -0.1216  0.3947
 4012ntf    nn321288   6.348   2.702   6.613 -0.2655 -0.1505  0.3203
 4012ntf    sn221289   6.216   2.783   6.585 -0.2739 -0.3880 -0.3581
 4012ntf    cn121290   6.162   2.847   6.746 -0.0876  0.4561 -0.6310
 4012ntf    fn421291   6.562   2.614   6.827  0.1170 -0.0978 -0.2615
 4012ntf    fn421292   6.364   2.695   6.883 -0.1912 -0.1331  0.3861
 4012ntf    fn421293   6.411   2.487   6.903  0.4976 -0.1152 -0.1261
 4012ntf    on521294   6.466   2.488   6.604 -0.2208 -0.5483  0.8990
 4012ntf    on521295   6.237   2.480   6.697 -0.5605  0.2456  0.1217
 4012ntf    on521296   6.101   2.709   6.539 -0.2056 -0.2773 -0.7088
 4012ntf    on521297   6.242   2.905   6.513 -0.7199 -0.2735 -0.3288
 4012ntf    fn421298   6.250   2.936   6.789 -0.3040  0.5145 -0.2979
 4012ntf    fn421299   6.053   2.922   6.739  0.0684  0.7372 -0.1172
 4012ntf    fn421300   6.150   2.750   6.835  0.1693  0.4565 -0.5969
 4013ntf    cn121301   6.035   5.875   2.913  0.0356 -0.7546  0.1532
 4013ntf    sn221302   5.899   5.905   3.030  0.2087  0.2886  0.0934
 4013ntf    nn321303   5.792   5.805   2.974  0.4700 -0.0830  0.2565
 4013ntf    sn221304   5.782   5.648   2.976 -0.5460 -0.0280  0.0617
 4013ntf    cn121305   5.642   5.622   3.088 -0.6159  0.2455  0.0394
 4013ntf    fn421306   6.134   5.961   2.926 -0.3534 -0.3716  0.6216
 4013ntf    fn421307   6.079   5.751   2.929 -0.1073 -0.8259 -0.0110
 4013ntf    fn421308   5.992   5.886   2.789  0.0637  0.4081  0.2376
 4013ntf    on521309   5.941   5.873   3.164 -0.9042 -1.1368  0.1233
 4013ntf    on521310   5.856   6.040   3.001  0.0141 -0.0299 -1.1437
 4013ntf    on521311   5.889   5.577   3.041  0.0837  0.7379 -0.1170
 4013ntf    on521312   5.744   5.588   2.850  0.1532  0.3601 -0.3460
 4013ntf    fn421313   5.531   5.646   3.019 -0.3659 -0.4605 -0.6238
 4013ntf    fn421314   5.623   5.498   3.130 -0.1300  0.3041  0.4440
 4013ntf    fn421315   5.651   5.700   3.194 -0.0955 -0.4510  0.5213
 4014ntf    cn121316   3.688   6.752   6.602 -0.1120 -0.3548 -0.0022
 4014ntf    sn221317   3.836   6.781   6.703 -0.1951  0.1768 -0.0299
 4014ntf    nn321318   3.925   6.859   6.601  0.0129 -0.0032  0.0120
 4014ntf    sn221319   3.957   7.013   6.611  0.1179 -0.0403  0.2309
 4014ntf    cn121320   3.993   7.055   6.438 -0.1175 -0.2192  0.1387
 4014ntf    fn421321   3.601   6.691   6.681 -0.3583 -0.0428 -0.0300
 4014ntf    fn421322   3.631   6.857   6.545  0.2071 -0.1557  0.0436
 4014ntf    fn421323   3.715   6.668   6.503 -0.0562 -0.0814 -0.2217
 4014ntf    on521324   3.789   6.850   6.821 -0.2246  0.1870 -0.0478
 4014ntf    on521325   3.900   6.654   6.725  0.4357  0.5079  0.0636
 4014ntf    on521326   4.086   7.037   6.672  0.4005 -0.6324 -0.1250
 4014ntf    on521327   3.841   7.093   6.640 -0.1350 -0.2117 -0.3077
 4014ntf    fn421328   4.099   6.991   6.394 -0.1906  0.2089 -0.6738
 4014ntf    fn421329   3.890   7.019   6.362 -0.0414 -0.0420 -0.0494
 4014ntf    fn421330   4.020   7.182   6.415 -0.0664 -0.2097  0.2513
 4015ntf    cn121331   3.007   3.128   4.383  0.5910  0.2029  0.1859
 4015ntf    sn221332   2.932   3.119   4.548 -0.1033  0.0054 -0.1392
 4015ntf    nn321333   2.777   3.114   4.521 -0.0869 -0.2081 -0.1909
 4015ntf    sn221334   2.687   2.991   4.486  0.1386 -0.4106 -0.0590
 4015ntf    cn121335   2.573   2.976   4.627  0.3452  0.0092  0.1517
 4015ntf    fn421336   3.139   3.119   4.378  0.5552 -0.2426  0.0065
 4015ntf    fn421337   2.966   3.025   4.312  0.1674  0.3518  0.2154
 4015ntf    fn421338   2.970   3.235   4.315 -0.4825 -0.2454  0.0555
 4015ntf    on521339   2.993   3.006   4.612 -0.1443 -0.3012 -0.6367
 4015ntf    on521340   2.975   3.242   4.611  0.0839  0.0348 -0.3222
 4015ntf    on521341   2.764   2.869   4.485  0.9800  0.1157 -0.3555
 4015ntf    on521342   2.599   3.019   4.376 -0.0220  0.2108  0.2230
 4015ntf    fn421343   2.630   2.916   4.730  0.5492  0.2565  0.1853
 4015ntf    fn421344   2.511   3.085   4.669 -0.0349 -0.1800  0.0794
 4015ntf    fn421345   2.474   2.897   4.590  0.5943  0.0832 -0.7046
 4016ntf    cn121346   1.479   5.307   7.344 -0.2618 -0.0038  0.1162
 4016ntf    sn221347   1.544   5.298   7.514 -0.1236 -0.2328  0.0520
 4016ntf    nn321348   1.593   5.446   7.537 -0.2064 -0.1478 -0.3189
 4016ntf    sn221349   1.539   5.561   7.629 -0.0786 -0.2137 -0.1621
 4016ntf    cn121350   1.496   5.683   7.502 -0.3271 -0.5701 -0.4244
 4016ntf    fn421351   1.570   5.284   7.251 -0.1596 -0.3377  0.2980
 4016ntf    fn421352   1.390   5.212   7.323  0.2421 -0.5174  0.2508
 4016ntf    fn421353   1.420   5.421   7.315  0.5422  0.4184  0.0916
 4016ntf    on521354   1.425   5.250   7.579 -0.0703 -0.0678  0.2716
 4016ntf    on521355   1.656   5.206   7.513 -0.2356 -0.3675 -0.1446
 4016ntf    on521356   1.646   5.625   7.701 -0.0269 -0.7724  0.2748
 4016ntf    on521357   1.418   5.532   7.703 -0.5277  0.0104 -0.8002
 4016ntf    fn421358   1.394   5.643   7.428 -0.3878 -0.0340 -0.6372
 4016ntf    fn421359   1.447   5.796   7.550  0.5129 -0.1698 -0.4921
 4016ntf    fn421360   1.593   5.714   7.417 -0.1602  0.2626  0.0583
 4017ntf    cn121361   5.484   6.276   5.630  0.2291 -0.1349 -0.5326
 4017ntf    sn221362   5.433   6.440   5.570 -0.0235  0.0774  0.2475
 4017ntf    nn321363   5.575   6.504   5.592 -0.0288  0.3062 -0.3676
 4017ntf    sn221364   5.636   6.641   5.547 -0.2782  0.6067  0.2024
 4017ntf    cn121365   5.731   6.610   5.395  0.2311 -0.0768  0.6542
 4017ntf    fn421366   5.383   6.191   5.640  0.5214 -0.4626 -0.3323
 4017ntf    fn421367   5.580   6.232   5.550  0.3115  0.0130 -0.5154
 4017ntf    fn421368   5.530   6.265   5.754 -0.0889 -0.1818 -0.4165
 4017ntf    on521369   5.403   6.414   5.432  0.4332  0.1032  0.1411
 4017ntf    on521370   5.326   6.488   5.654 -0.0582  0.7468 -0.1711
 4017ntf    on521371   5.743   6.686   5.633  0.4126 -0.1245 -0.2673
 4017ntf    on521372   5.537   6.743   5.522 -0.5148  0.2864 -0.1765
 4017ntf    fn421373   5.824   6.516   5.405  0.1771 -0.2311 -0.2460
 4017ntf    fn421374   5.652   6.557   5.303  0.0658  0.6820  0.3480
 4017ntf    fn421375   5.774   6.728   5.353  0.6529 -0.6348 -0.5153
 4018ntf    cn121376   6.965   3.529   2.670  0.4844 -0.1781  0.1534
 4018ntf    sn221377   6.862   3.409   2.759  0.1003  0.1067  0.0941
 4018ntf    nn321378   6.743   3.503   2.801  0.1258 -0.0321  0.4795
 4018ntf    sn221379   6.594   3.467   2.831  0.1005 -0.5075 -0.1969
 4018ntf    cn121380   6.603   3.424   3.008 -0.1887 -0.1284 -0.0869
 4018ntf    fn421381   7.075   3.477   2.618  0.6122  0.6341 -0.4073
 4018ntf    fn421382   6.903   3.588   2.569 -0.2190 -0.3550  0.4769
 4018ntf    fn421383   7.014   3.621   2.752  0.6020 -0.0804 -0.0255
 4018ntf    on521384   6.837   3.307   2.660  0.2768 -0.3817  0.5510
 4018ntf    on521385   6.952   3.363   2.861  0.4839  0.4815 -0.0740
 4018ntf    on521386   6.537   3.352   2.765  0.0751 -0.9012  0.4908
 4018ntf    on521387   6.513   3.586   2.831  0.6127 -0.1501  0.5975
 4018ntf    fn421388   6.488   3.384   3.059 -0.3227 -0.2965 -0.5108
 4018ntf    fn421389   6.690   3.324   3.023  0.0657  0.1230  0.1175
 4018ntf    fn421390   6.647   3.525   3.081  0.1970  0.1030 -0.6291
 4019ntf    cn121391   5.192   2.580   0.282  0.0281  0.1977  0.2247
 4019ntf    sn221392   5.037   2.566   0.376 -0.2591  0.0436 -0.2648
 4019ntf    nn321393   5.078   2.676   0.481  0.3438 -0.5531  0.1346
 4019ntf    sn221394   5.118   2.650   0.630  0.0349  0.0514  0.3264
 4019ntf    cn121395   5.239   2.784   0.651 -0.3390  0.3858  0.3566
 4019ntf    fn421396   5.195   2.694   0.215  0.0935 -0.3017 -0.6427
 4019ntf    fn421397   5.303   2.580   0.354  0.0465  0.1519  0.1968
 4019ntf    fn421398   5.209   2.484   0.193 -0.0323  0.0534  0.3676
 4019ntf    on521399   4.934   2.615   0.288  0.0593  0.2886 -0.5011
 4019ntf    on521400   5.026   2.428   0.417 -0.9166  0.3116  0.4867
 4019ntf    on521401   5.189   2.529   0.664 -0.2669 -0.1371  0.2815
 4019ntf    on521402   5.017   2.682   0.727 -0.0748  0.0599  0.2089
 4019ntf    fn421403   5.331   2.792   0.556 -0.0552 -0.2544  0.5719
 4019ntf    fn421404   5.184   2.903   0.666 -0.4201  0.3929  0.0100
 4019ntf    fn421405   5.315   2.761   0.757 -0.2672  0.5729  0.3461
 4020ntf    cn121406   6.009   2.537   7.289 -0.0164  0.1221  0.2280
 4020ntf    sn221407   6.037   2.666   7.413 -0.2297  0.2108  0.1858
 4020ntf    nn321408   5.921   2.624   7.510  0.3049  0.1946  0.8246
 4020ntf    sn221409   5.774   2.675   7.488  0.4267  0.0303 -0.4251
 4020ntf    cn121410   5.766   2.807   7.613  0.4379  0.0118 -0.4050
 4020ntf    fn421411   6.034   2.416   7.336 -0.0137 -0.1298 -0.4116
 4020ntf    fn421412   5.887   2.536   7.237  0.1565 -0.4660 -0.1791
 4020ntf    fn421413   6.084   2.559   7.182 -0.0708  0.5778  0.2823
 4020ntf    on521414   6.159   2.639   7.485 -0.1430 -0.1338 -0.0888
 4020ntf    on521415   6.039   2.792   7.343  0.6562  0.2243  0.2160
 4020ntf    on521416   5.677   2.577   7.531  0.8598 -0.1619  0.1326
 4020ntf    on521417   5.750   2.745   7.365 -0.4928  0.2026 -0.1565
 4020ntf    fn421418   5.651   2.873   7.613  0.3486 -0.1417 -0.0434
 4020ntf    fn421419   5.784   2.767   7.738 -0.0853 -0.5997 -0.5202
 4020ntf    fn421420   5.858   2.899   7.590  0.7332  0.0312  0.8053
 4021ntf    cn121421   0.388   0.669   6.536  0.3636 -0.1695 -0.0643
 4021ntf    sn221422   0.538   0.592   6.603  0.2213 -0.1234  0.3080
 4021ntf    nn321423   0.630   0.611   6.478 -0.2952 -0.3143 -0.1010
 4021ntf    sn221424   0.720   0.504   6.405  0.2099 -0.0395  0.1141
 4021ntf    cn121425   0.875   0.595   6.425  0.2199 -0.0368  0.0233
 4021ntf    fn421426   0.287   0.678   6.621  0.3024 -0.0356 -0.1503
 4021ntf    fn421427   0.404   0.794   6.495  0.3383  0.0933  0.7103
 4021ntf    fn421428   0.342   0.611   6.426  0.4016  0.0901 -0.2182
 4021ntf    on521429   0.575   0.677   6.713 -0.2546  0.4795  0.0068
 4021ntf    on521430   0.500   0.457   6.640 -0.2776  0.1819  0.9324
 4021ntf    on521431   0.693   0.493   6.264 -0.5714  0.4711  0.2149
 4021ntf    on521432   0.746   0.379   6.471  0.3817 -0.1139 -0.0941
 4021ntf    fn421433   0.883   0.708   6.355 -0.0975  0.1375  0.2678
 4021ntf    fn421434   0.904   0.617   6.552  0.4079  0.6191 -0.1271
 4021ntf    fn421435   0.980   0.525   6.385  0.4103  0.0952  0.2866
 4022ntf    cn121436   6.480   4.291   6.199  0.0789  0.1396 -0.2195
 4022ntf    sn221437   6.450   4.339   6.372  0.4418 -0.4095 -0.0022
 4022ntf    nn321438   6.502   4.201   6.426  0.3978 -0.6883 -0.6659
 4022ntf    sn221439   6.473   4.130   6.563 -0.1128  0.2723 -0.2657
 4022ntf    cn121440   6.311   4.055   6.534 -0.0099 -0.0283 -0.0658
 4022ntf    fn421441   6.440   4.380   6.109 -0.2826  0.6404  0.4268
 4022ntf    fn421442   6.609   4.267   6.183 -0.0390 -0.5547 -0.1526
 4022ntf    fn421443   6.411   4.183   6.166  0.5829 -0.4003  0.4668
 4022ntf    on521444   6.541   4.448   6.396  0.2003 -0.2664  0.2646
 4022ntf    on521445   6.309   4.370   6.378  0.3612 -0.6221 -0.7111
 4022ntf    on521446   6.455   4.213   6.680  0.2595  0.6080 -0.4432
 4022ntf    on521447   6.563   4.018   6.574 -0.7261 -0.1562  0.4343
 4022ntf    fn421448   6.308   3.986   6.421  0.1812  0.1207 -0.1607
 4022ntf    fn421449   6.278   3.973   6.633 -0.6788  0.6803  0.3123
 4022ntf    fn421450   6.214   4.145   6.526  0.1844  0.2041  0.1917
 4023ntf    cn121451   3.321   5.111   4.384 -0.1105  0.1385  0.0482
 4023ntf    sn221452   3.176   5.026   4.454 -0.0782  0.3158  0.3307
 4023ntf    nn321453   3.239   4.974   4.588 -0.5176 -0.4431  0.2499
 4023ntf    sn221454   3.165   4.959   4.725 -0.2967 -0.2693  0.3898
 4023ntf    cn121455   3.252   5.079   4.832  0.4335 -0.2643 -0.2032
 4023ntf    fn421456   3.284   5.201   4.293 -0.5538 -0.1831 -0.0921
 4023ntf    fn421457   3.394   5.178   4.471 -0.0210 -0.5084  0.4766
 4023ntf    fn421458   3.407   5.034   4.320  0.0784  0.0334  0.4270
 4023ntf    on521459   3.086   5.137   4.473  0.2031  0.5408  0.3673
 4023ntf    on521460   3.150   4.922   4.357 -0.0928  0.3518  0.2961
 4023ntf    on521461   3.188   4.830   4.784  0.5541 -0.3261 -0.0578
 4023ntf    on521462   3.029   5.006   4.739 -0.4284 -0.4785 -0.1807
 4023ntf    fn421463   3.370   5.039   4.874  0.6046  0.8640  0.4073
 4023ntf    fn421464   3.265   5.192   4.765 -0.0144 -0.2329 -0.2453
 4023ntf    fn421465   3.186   5.112   4.942 -0.4273 -0.2999 -0.6954
 4024ntf    cn121466   1.826   1.538   3.721 -0.0841  0.1758  0.1593
 4024ntf    sn221467   1.953   1.646   3.648 -0.3057  0.2299 -0.1508
 4024ntf    nn321468   2.081   1.558   3.674 -0.7606 -0.2647  0.4602
 4024ntf    sn221469   2.180   1.561   3.795 -0.1566  0.1751 -0.0355
 4024ntf    cn121470   2.276   1.711   3.760 -0.3889  0.2786 -0.2279
 4024ntf    fn421471   1.790   1.452   3.628 -0.4742  0.6831 -0.1671
 4024ntf    fn421472   1.861   1.463   3.824 -0.4481 -0.0259  0.1375
 4024ntf    fn421473   1.715   1.605   3.748 -0.2870 -0.0873 -0.0215
 4024ntf    on521474   1.918   1.654   3.509  0.0694 -0.4802 -0.2888
 4024ntf    on521475   1.950   1.770   3.723  0.0926  0.1749 -0.0417
 4024ntf    on521476   2.275   1.455   3.775  0.4463  0.6469  0.2969
 4024ntf    on521477   2.118   1.576   3.924 -0.1225 -0.4797  0.0579
 4024ntf    fn421478   2.203   1.820   3.742 -0.2005  0.4043 -0.2314
 4024ntf    fn421479   2.365   1.746   3.851 -0.1651  0.2860 -0.4470
 4024ntf    fn421480   2.343   1.695   3.646 -0.2214  0.1441 -0.1107
 4025ntf    cn121481   5.666   0.258   3.483  0.5697 -0.3335 -0.1320
 4025ntf    sn221482   5.701   0.432   3.442 -0.2758 -0.1688 -0.1713
 4025ntf    nn321483   5.559   0.499   3.440 -0.0848  0.2291 -0.5087
 4025ntf    sn221484   5.481   0.568   3.558  0.1895 -0.2289 -0.0533
 4025ntf    cn121485   5.543   0.738   3.569 -0.2822 -0.0797  0.3590
 4025ntf    fn421486   5.778   0.194   3.510  0.8845  0.5749  0.8282
 4025ntf    fn421487   5.589   0.249   3.591 -0.0502  0.9137 -0.4467
 4025ntf    fn421488   5.602   0.200   3.384  0.7010  0.1944 -0.5295
 4025ntf    on521489   5.792   0.473   3.547  0.0840 -0.6619 -0.2866
 4025ntf    on521490   5.772   0.426   3.317  0.0070  0.2440 -0.0331
 4025ntf    on521491   5.502   0.505   3.686 -0.5686  0.7379  0.5606
 4025ntf    on521492   5.348   0.604   3.514  0.2066  0.2197  0.2556
 4025ntf    fn421493   5.486   0.830   3.492  0.5473  0.6600  0.6055
 4025ntf    fn421494   5.522   0.793   3.687  0.5242  0.1259  0.4137
 4025ntf    fn421495   5.674   0.736   3.549 -0.2640  0.2399  0.4341
 4026ntf    cn121496   4.683   5.980   1.294 -0.1913  0.1378  0.2764
 4026ntf    sn221497   4.778   6.130   1.259  0.0281  0.0241  0.3846
 4026ntf    nn321498   4.851   6.160   1.395  0.6682 -0.0875  0.0682
 4026ntf    sn221499   4.942   6.278   1.444  0.0747  0.2400  0.3834
 4026ntf    cn121500   5.045   6.211   1.578  0.2811  0.4077  0.3088
 4026ntf    fn421501   4.588   6.011   1.380 -0.2871  0.4446  0.0624
 4026ntf    fn421502   4.625   5.933   1.184  0.3477  0.2753 -0.0680
 4026ntf    fn421503   4.762   5.882   1.335  0.3968  0.3781 -0.2598
 4026ntf    on521504   4.864   6.100   1.147  0.0492  0.7008  0.2146
 4026ntf    on521505   4.677   6.232   1.242 -0.2891 -0.3020  0.3274
 4026ntf    on521506   4.874   6.389   1.506 -0.1999  0.3756 -0.1564
 4026ntf    on521507   5.032   6.309   1.336 -0.4909  0.6219  0.0178
 4026ntf    fn421508   5.121   6.303   1.636  0.3765  0.1947  0.5257
 4026ntf    fn421509   4.972   6.157   1.674  0.1796 -0.2634 -0.1354
 4026ntf    fn421510   5.133   6.119   1.539 -0.0058  0.3757 -0.2743
 4027ntf    cn121511   5.248   7.184   1.062  0.1229 -0.4486  0.4873
 4027ntf    sn221512   5.289   7.034   0.968  0.3679 -0.1893  0.1751
 4027ntf    nn321513   5.170   6.940   1.010  0.7131 -0.6107  0.2120
 4027ntf    sn221514   5.094   6.830   0.927  0.1564 -0.1850  0.1489
 4027ntf    cn121515   4.945   6.925   0.886  0.0716 -0.2364  0.3336
 4027ntf    fn421516   5.143   7.253   1.022  0.1203 -0.4602  0.4741
 4027ntf    fn421517   5.218   7.156   1.187 -0.1963 -0.3855  0.4245
 4027ntf    fn421518   5.352   7.267   1.063  0.2056 -0.5487  0.2389
 4027ntf    on521519   5.278   7.082   0.832  0.4875 -0.8185 -0.0585
 4027ntf    on521520   5.415   7.004   1.030  0.4234  0.0011  0.1532
 4027ntf    on521521   5.043   6.721   1.006  1.0935 -0.9150 -0.2349
 4027ntf    on521522   5.140   6.782   0.799  0.4517 -0.7755  0.4698
 4027ntf    fn421523   4.971   7.025   0.803  0.2781  0.4315  1.1881
 4027ntf    fn421524   4.851   6.849   0.834  0.0376 -0.0523  0.1243
 4027ntf    fn421525   4.899   6.981   0.996 -0.2108 -0.3492  0.2721
 4028ntf    cn121526   3.379   3.098   4.090  0.3983 -0.2040 -0.4982
 4028ntf    sn221527   3.461   2.949   4.155  0.2523 -0.1452 -0.1789
 4028ntf    nn321528   3.604   3.010   4.178  0.2728 -0.4234  0.4718
 4028ntf    sn221529   3.713   3.052   4.073 -0.4845 -0.2754 -0.2663
 4028ntf    cn121530   3.871   3.021   4.158 -0.3664 -0.1851 -0.4515
 4028ntf    fn421531   3.250   3.084   4.067  0.3138 -0.1543 -0.0671
 4028ntf    fn421532   3.385   3.201   4.172  0.2090 -0.1510 -0.5532
 4028ntf    fn421533   3.435   3.122   3.973 -0.0989  0.3447 -0.6236
 4028ntf    on521534   3.391   2.926   4.279  0.7244  0.5018  0.2189
 4028ntf    on521535   3.445   2.841   4.062  0.1721 -0.0836 -0.2363
 4028ntf    on521536   3.718   3.195   4.059  0.1402 -0.2950 -0.2766
 4028ntf    on521537   3.718   2.972   3.953  0.9255  0.3304 -0.6408
 4028ntf    fn421538   3.975   3.055   4.084 -0.2629 -0.3854 -0.3964
 4028ntf    fn421539   3.883   3.092   4.269 -0.2706 -0.7614 -0.0891
 4028ntf    fn421540   3.894   2.898   4.200 -0.5197 -0.2372 -0.5177
 4029ntf    cn121541   1.593   5.229   4.535 -0.3029 -0.3408 -0.1246
 4029ntf    sn221542   1.759   5.199   4.467  0.1372 -0.0245  0.7947
 4029ntf    nn321543   1.757   5.047   4.430 -0.1536  0.1773 -0.0355
 4029ntf    sn221544   1.761   4.970   4.293  0.0782 -0.0406  0.0925
 4029ntf    cn121545   1.593   5.016   4.241 -0.0796 -0.3717  0.3058
 4029ntf    fn421546   1.565   5.357   4.552  0.1149 -0.2199 -0.3259
 4029ntf    fn421547   1.494   5.180   4.463 -0.2015 -0.2497 -0.3268
 4029ntf    fn421548   1.571   5.179   4.656 -0.0757 -0.3616 -0.0911
 4029ntf    on521549   1.769   5.297   4.361 -0.4027 -0.1983  0.5822
 4029ntf    on521550   1.853   5.228   4.573  0.2141  0.0873  0.6965
 4029ntf    on521551   1.755   4.826   4.301 -1.1523  0.0190  0.4574
 4029ntf    on521552   1.835   5.033   4.186 -0.0014  0.0873  0.1115
 4029ntf    fn421553   1.571   5.145   4.222 -0.7336 -0.4603  0.4331
 4029ntf    fn421554   1.563   4.950   4.130 -0.2978  0.2648 -0.0184
 4029ntf    fn421555   1.506   4.980   4.334 -0.3106  0.1877  0.3119
 4030ntf    cn121556   2.857   6.157   3.540 -0.2267 -0.1727  0.2274
 4030ntf    sn221557   2.938   6.182   3.379 -0.2029  0.0569  0.2747
 4030ntf    nn321558   2.930   6.034   3.330  0.0263  0.3795 -0.7515
 4030ntf    sn221559   3.047   5.945   3.274  0.1928 -0.0814  0.2975
 4030ntf    cn121560   3.093   6.046   3.130  0.1486 -0.3628  0.0843
 4030ntf    fn421561   2.726   6.174   3.542 -0.1895  0.1279  0.2288
 4030ntf    fn421562   2.874   6.034   3.586  0.4586 -0.1136  0.1513
 4030ntf    fn421563   2.893   6.238   3.639  0.1589  0.2944 -0.2878
 4030ntf    on521564   2.852   6.272   3.306 -0.0498  0.5628  0.7033
 4030ntf    on521565   3.067   6.226   3.426 -0.1398  0.0470  0.1103
 4030ntf    on521566   3.007   5.821   3.212  0.3822  0.0532 -0.0995
 4030ntf    on521567   3.165   5.939   3.355  0.7931 -1.3173 -0.6368
 4030ntf    fn421568   3.148   6.164   3.155  0.0993 -0.2787 -0.1973
 4030ntf    fn421569   3.185   5.988   3.054  0.1848  0.3125 -0.4033
 4030ntf    fn421570   2.986   6.072   3.057  0.5188  0.7013 -0.1005
 4031ntf    cn121571   3.865   2.783   0.505  0.1379 -0.1811  0.1419
 4031ntf    sn221572   3.842   2.703   0.667  0.2002 -0.3650  0.0609
 4031ntf    nn321573   3.985   2.702   0.732  0.0545 -0.4180  0.3786
 4031ntf    sn221574   4.087   2.585   0.757  0.1381 -0.3820  0.2024
 4031ntf    cn121575   4.028   2.509   0.911  0.0682 -0.2817  0.2249
 4031ntf    fn421576   3.976   2.737   0.448 -0.3155 -0.1005 -0.8342
 4031ntf    fn421577   3.758   2.754   0.433  0.5002 -0.8903 -0.1330
 4031ntf    fn421578   3.890   2.912   0.515  0.4971 -0.2819  0.5887
 4031ntf    on521579   3.765   2.806   0.732  0.2520 -0.2807 -0.0099
 4031ntf    on521580   3.780   2.576   0.643  0.2316 -0.5141  0.7475
 4031ntf    on521581   4.220   2.630   0.792  0.1600 -0.1977 -0.1124
 4031ntf    on521582   4.074   2.475   0.665 -0.2757 -0.4450  0.3330
 4031ntf    fn421583   3.971   2.591   0.998 -0.7366 -0.1062 -0.4636
 4031ntf    fn421584   3.947   2.409   0.883 -0.2856  0.1032 -0.1414
 4031ntf    fn421585   4.125   2.443   0.972  0.2836 -0.6790 -0.5401
 4032ntf    cn121586   0.478   1.625   0.741  0.2143 -0.0096  0.5199
 4032ntf    sn221587   0.530   1.788   0.800 -0.1990  0.2326  0.2185
 4032ntf    nn321588   0.591   1.861   0.676 -0.1235  0.4110  0.3595
 4032ntf    sn221589   0.693   1.981   0.679  0.2302  0.1182  0.1071
 4032ntf    cn121590   0.795   1.915   0.543 -0.4777 -0.0644 -0.3439
 4032ntf    fn421591   0.443   1.621   0.614  0.0301  0.2206  0.5631
 4032ntf    fn421592   0.572   1.532   0.749  0.3555  0.0190 -0.6245
 4032ntf    fn421593   0.373   1.575   0.804 -0.2971  0.1882 -0.1709
 4032ntf    on521594   0.399   1.832   0.843 -0.4445 -0.0744 -0.2173
 4032ntf    on521595   0.620   1.756   0.908  0.3707  0.3383 -0.2195
 4032ntf    on521596   0.787   1.987   0.788 -0.5702  0.1831  0.7975
 4032ntf    on521597   0.636   2.101   0.624 -0.0429 -0.0902 -0.0693
 4032ntf    fn421598   0.877   1.999   0.483 -0.3671 -0.4931 -0.7938
 4032ntf    fn421599   0.872   1.813   0.578 -0.2770  0.2281  0.0755
 4032ntf    fn421600   0.719   1.871   0.445  0.0438 -0.1323 -0.7196
 4033ntf    cn121601   1.395   1.175   4.448  0.0344 -0.0661 -0.3436
 4033ntf    sn221602   1.464   1.261   4.303  0.0801  0.0499 -0.2531
 4033ntf    nn321603   1.612   1.210   4.295  0.0358 -0.1420  0.1106
 4033ntf    sn221604   1.667   1.066   4.265  0.0339 -0.0464 -0.3629
 4033ntf    cn121605   1.731   1.022   4.430  0.0549  0.5983 -0.1958
 4033ntf    fn421606   1.269   1.208   4.472  0.1903  0.1875  0.1578
 4033ntf    fn421607   1.411   1.045   4.436  0.0402 -0.1164  0.1991
 4033ntf    fn421608   1.475   1.204   4.550 -0.0457 -0.0086 -0.2969
 4033ntf    on521609   1.386   1.212   4.192  0.3035  0.2664 -0.5059
 4033ntf    on521610   1.449   1.401   4.333 -0.1788  0.0413 -0.3447
 4033ntf    on521611   1.794   1.072   4.197  0.2691 -0.4392  0.0350
 4033ntf    on521612   1.585   0.952   4.232  0.1102 -0.0208 -0.6362
 4033ntf    fn421613   1.801   0.909   4.431  0.0108  0.5687 -0.3545
 4033ntf    fn421614   1.810   1.117   4.478  1.0076 -0.1528 -0.2308
 4033ntf    fn421615   1.640   0.998   4.522 -0.2240 -0.1636 -0.6616
 4034ntf    cn121616   6.268   7.031   4.389 -0.0938  0.3537 -0.2033
 4034ntf    sn221617   6.290   7.172   4.276 -0.0366  0.2209 -0.3571
 4034ntf    nn321618   6.402   7.247   4.359 -0.0429  0.3951 -0.5055
 4034ntf    sn221619   6.550   7.272   4.316  0.1334 -0.2429 -0.2894
 4034ntf    cn121620   6.636   7.317   4.469  0.1111 -0.4062 -0.2290
 4034ntf    fn421621   6.191   6.937   4.339  0.3921 -0.3719  0.3948
 4034ntf    fn421622   6.383   6.971   4.414  0.0361  0.3619 -0.7748
 4034ntf    fn421623   6.217   7.070   4.505  0.1391 -0.3199  0.1281
 4034ntf    on521624   6.336   7.109   4.155 -0.5405  0.2487 -0.5626
 4034ntf    on521625   6.160   7.233   4.284  0.2642  0.7751  0.6570
 4034ntf    on521626   6.580   7.380   4.225  0.1954  0.0570  0.0845
 4034ntf    on521627   6.622   7.149   4.296  0.6222  0.0154 -0.1572
 4034ntf    fn421628   6.630   7.222   4.561 -0.8723  0.2578  0.4086
 4034ntf    fn421629   6.762   7.358   4.457 -0.1131  0.3692 -0.0304
 4034ntf    fn421630   6.567   7.414   4.528 -0.1681 -0.7313 -0.0181
 4035ntf    cn121631   0.756   6.889   5.583 -0.2527  0.0786  0.1558
 4035ntf    sn221632   0.845   6.754   5.666  0.0461  0.0149 -0.2662
 4035ntf    nn321633   0.856   6.654   5.545  0.2435 -0.0210 -0.2194
 4035ntf    sn221634   0.761   6.540   5.494  0.1301 -0.1619  0.3101
 4035ntf    cn121635   0.814   6.541   5.321 -0.1995  0.2242  0.2100
 4035ntf    fn421636   0.635   6.854   5.544  0.1272 -0.7157 -0.3527
 4035ntf    fn421637   0.747   7.008   5.640 -0.4026  0.0776  0.1352
 4035ntf    fn421638   0.822   6.917   5.471 -0.7433 -0.7541 -0.3510
 4035ntf    on521639   0.971   6.812   5.707  0.2480 -0.0359 -0.7976
 4035ntf    on521640   0.758   6.721   5.775  0.2554  0.2967 -0.0113
 4035ntf    on521641   0.620   6.567   5.504  0.2145  0.5768 -0.3911
 4035ntf    on521642   0.817   6.420   5.551 -0.0014 -0.4841 -0.2371
 4035ntf    fn421643   0.932   6.490   5.287 -0.2799  0.4174 -0.3785
 4035ntf    fn421644   0.730   6.475   5.242  0.2993 -0.1536 -0.0122
 4035ntf    fn421645   0.814   6.664   5.274 -0.5800  0.0712 -0.2021
 4036ntf    cn121646   5.397   2.526   6.271  0.1338  0.1996  0.1653
 4036ntf    sn221647   5.539   2.606   6.190  0.3548 -0.3876 -0.0324
 4036ntf    nn321648   5.516   2.755   6.236  0.2467 -0.4419  0.0912
 4036ntf    sn221649   5.620   2.850   6.306  0.0723 -0.1600 -0.0340
 4036ntf    cn121650   5.749   2.854   6.178  0.0175 -0.0685 -0.0876
 4036ntf    fn421651   5.304   2.492   6.184  0.4775 -0.2860 -0.0136
 4036ntf    fn421652   5.443   2.418   6.333 -0.1752  0.1040  0.2270
 4036ntf    fn421653   5.341   2.605   6.362 -0.3080 -0.0467  0.1073
 4036ntf    on521654   5.651   2.528   6.234  0.2581 -0.1440  0.6551
 4036ntf    on521655   5.503   2.585   6.052  0.7246  0.6970 -0.3059
 4036ntf    on521656   5.694   2.794   6.416 -0.2467  0.6697  0.6112
 4036ntf    on521657   5.570   2.985   6.319  0.3823 -0.0383 -0.1070
 4036ntf    fn421658   5.821   2.743   6.188 -0.0899 -0.1370 -0.0827
 4036ntf    fn421659   5.717   2.871   6.051 -0.0491  0.1002 -0.0479
 4036ntf    fn421660   5.838   2.949   6.200  0.5082 -0.5498  0.0504
 4037ntf    cn121661   3.670   1.440   2.259 -0.1868  0.1058 -0.5833
 4037ntf    sn221662   3.603   1.363   2.410 -0.0773  0.4855 -0.3393
 4037ntf    nn321663   3.498   1.471   2.455 -0.2172  0.1761  0.0777
 4037ntf    sn221664   3.526   1.605   2.531  0.2119  0.1216  0.0213
 4037ntf    cn121665   3.471   1.564   2.700 -0.0684  0.6420  0.0606
 4037ntf    fn421666   3.787   1.390   2.224 -0.0762 -0.0053 -0.0678
 4037ntf    fn421667   3.594   1.420   2.153 -0.2372  0.6775 -0.6559
 4037ntf    fn421668   3.683   1.571   2.275 -0.1384  0.0314  0.0051
 4037ntf    on521669   3.535   1.244   2.364 -0.1362  0.4895 -0.2627
 4037ntf    on521670   3.718   1.346   2.496 -0.6920 -0.5779  0.2931
 4037ntf    on521671   3.436   1.711   2.493 -0.7589 -0.6915  0.0232
 4037ntf    on521672   3.663   1.645   2.553  0.0367  0.3816  0.6796
 4037ntf    fn421673   3.523   1.445   2.729 -0.3483  0.3139 -0.7326
 4037ntf    fn421674   3.506   1.643   2.800 -0.2195  0.5402  0.1952
 4037ntf    fn421675   3.342   1.539   2.712 -0.0257  0.1056 -0.4963
 4038ntf    cn121676   2.797   4.061   3.691  0.0447  0.1826  0.2915
 4038ntf    sn221677   2.645   3.964   3.671 -0.0343  0.3930 -0.1639
 4038ntf    nn321678   2.678   3.898   3.533  0.8575 -0.0692  0.2610
 4038ntf    sn221679   2.722   3.749   3.509  0.0084 -0.2211 -0.4062
 4038ntf    cn121680   2.784   3.745   3.338  0.2521  0.3768 -0.3362
 4038ntf    fn421681   2.783   4.163   3.774 -0.5729  0.0340  0.3742
 4038ntf    fn421682   2.897   3.982   3.726  0.1419  0.0288 -0.3254
 4038ntf    fn421683   2.838   4.112   3.576 -0.1616 -0.1692  0.0600
 4038ntf    on521684   2.624   3.888   3.793 -0.7440 -0.4890 -0.8224
 4038ntf    on521685   2.542   4.062   3.646 -0.5250 -0.0535  0.0868
 4038ntf    on521686   2.607   3.662   3.515 -0.5333  0.5145  0.2160
 4038ntf    on521687   2.834   3.709   3.590 -0.3124 -0.2688  0.0210
 4038ntf    fn421688   2.886   3.828   3.325  0.4459  0.2281  0.1959
 4038ntf    fn421689   2.832   3.630   3.293  0.4332  0.4621 -0.3586
 4038ntf    fn421690   2.697   3.790   3.249  0.0221 -0.2331 -0.4276
 4039ntf    cn121691   0.379   0.477   2.657  0.0119 -0.0775  0.2158
 4039ntf    sn221692   0.489   0.358   2.574 -0.0615  0.0190 -0.0197
 4039ntf    nn321693   0.594   0.447   2.498  0.1440 -0.2855 -0.0933
 4039ntf    sn221694   0.591   0.496   2.349  0.2228  0.1085  0.0339
 4039ntf    cn121695   0.666   0.661   2.361 -0.2556  0.3192  0.1720
 4039ntf    fn421696   0.433   0.551   2.753  0.2507 -0.2680  0.2303
 4039ntf    fn421697   0.344   0.565   2.565 -0.2232 -0.2485  0.1406
 4039ntf    fn421698   0.266   0.424   2.702 -0.0329 -0.2697 -0.1211
 4039ntf    on521699   0.552   0.284   2.680  0.9346  0.3520 -0.3684
 4039ntf    on521700   0.406   0.274   2.491  0.2865 -0.2808 -0.0680
 4039ntf    on521701   0.465   0.527   2.284 -0.1284 -0.6836  0.3250
 4039ntf    on521702   0.677   0.421   2.261 -0.1055  0.2030 -0.3735
 4039ntf    fn421703   0.786   0.659   2.416 -0.2372 -0.1298  0.1225
 4039ntf    fn421704   0.670   0.713   2.239  0.4717  0.0585  0.0772
 4039ntf    fn421705   0.590   0.740   2.435 -0.0722  0.0780  0.6197
 4040ntf    cn121706   2.494   2.622   6.994  0.1546  0.3696 -0.3103
 4040ntf    sn221707   2.631   2.551   7.091 -0.0994  0.2525 -0.0373
 4040ntf    nn321708   2.754   2.626   7.029  0.2247 -0.1718  0.0874
 4040ntf    sn221709   2.900   2.645   7.082  0.2737  0.1262 -0.1487
 4040ntf    cn121710   2.999   2.570   6.948  0.0713 -0.0869 -0.1796
 4040ntf    fn421711   2.375   2.614   7.052  0.0450 -0.4397 -0.6291
 4040ntf    fn421712   2.508   2.752   6.973 -0.8835  0.5871  0.2749
 4040ntf    fn421713   2.481   2.561   6.877 -0.2171  0.6409 -0.4120
 4040ntf    on521714   2.607   2.605   7.222 -0.8062 -0.4726  0.1424
 4040ntf    on521715   2.632   2.408   7.074 -0.4570  0.2082  0.2941
 4040ntf    on521716   2.931   2.581   7.208 -0.3839  1.0700  0.5017
 4040ntf    on521717   2.926   2.787   7.079  0.9630  0.0075 -0.1481
 4040ntf    fn421718   2.929   2.487   6.873  0.2882  0.1608 -0.6559
 4040ntf    fn421719   3.047   2.667   6.872  0.5997  0.2193  0.5265
 4040ntf    fn421720   3.108   2.513   6.997 -0.0159 -0.1124 -0.0117
 4041ntf    cn121721   1.855   3.281   3.384  0.4047 -0.0908  0.3370
 4041ntf    sn221722   1.849   3.118   3.305  0.2982 -0.1610  0.4891
 4041ntf    nn321723   1.737   3.055   3.395  0.1125  0.0446  0.4042
 4041ntf    sn221724   1.583   3.040   3.373  0.2098  0.1591 -0.3798
 4041ntf    cn121725   1.571   2.869   3.311  0.1638  0.0489 -0.0700
 4041ntf    fn421726   1.733   3.323   3.415  0.3893  0.1822 -0.0775
 4041ntf    fn421727   1.928   3.285   3.494  0.1210 -0.1056  0.5290
 4041ntf    fn421728   1.902   3.369   3.297  0.3379  0.0722  0.4651
 4041ntf    on521729   1.811   3.147   3.169  0.2275  0.3517  0.6185
 4041ntf    on521730   1.977   3.057   3.333  0.4943  0.1797  0.3378
 4041ntf    on521731   1.513   3.120   3.275 -0.4899  0.5632  0.4351
 4041ntf    on521732   1.518   3.026   3.502  0.2031  0.2434 -0.3744
 4041ntf    fn421733   1.569   2.782   3.411 -0.3364  0.5927  0.4013
 4041ntf    fn421734   1.451   2.861   3.257  0.2725  0.2960 -0.3488
 4041ntf    fn421735   1.656   2.835   3.216  0.7345  0.2508  0.3601
 4042ntf    cn121736   0.560   5.845   3.918 -0.6623  0.2515 -0.1905
 4042ntf    sn221737   0.662   5.738   3.812 -0.3266 -0.0288  0.4141
 4042ntf    nn321738   0.735   5.664   3.930  0.1036 -0.3140 -0.0304
 4042ntf    sn221739   0.750   5.512   3.966  0.4505 -0.2782 -0.0208
 4042ntf    cn121740   0.590   5.475   4.043  0.5023  0.1125  0.2801
 4042ntf    fn421741   0.634   5.912   4.005 -0.3289 -0.1066 -0.1985
 4042ntf    fn421742   0.489   5.933   3.848 -0.3074  0.1831 -0.6436
 4042ntf    fn421743   0.477   5.772   3.990 -0.2941 -0.0934 -0.1186
 4042ntf    on521744   0.587   5.666   3.713  0.0988  0.0955 -0.0003
 4042ntf    on521745   0.756   5.833   3.756  0.2178 -0.2040  1.0171
 4042ntf    on521746   0.844   5.502   4.076  0.9294  0.1378 -0.3853
 4042ntf    on521747   0.756   5.421   3.855 -0.0004  0.0194 -0.2917
 4042ntf    fn421748   0.488   5.507   3.965  0.0514 -0.4354  0.6282
 4042ntf    fn421749   0.582   5.345   4.069  0.2860  0.0729  0.0088
 4042ntf    fn421750   0.567   5.532   4.160  0.3436 -0.2326  0.4218
 4043ntf    cn121751   2.845   1.574   1.635 -0.2375 -0.0608  0.1212
 4043ntf    sn221752   2.709   1.484   1.715 -0.2191 -0.0015  0.2191
 4043ntf    nn321753   2.762   1.337   1.699 -0.2899 -0.0117  0.0758
 4043ntf    sn221754   2.769   1.224   1.808  0.3756 -0.0426  0.0075
 4043ntf    cn121755   2.918   1.266   1.903  0.3860  0.2567 -0.1391
 4043ntf    fn421756   2.867   1.529   1.512 -0.0487  0.5674 -0.0778
 4043ntf    fn421757   2.811   1.702   1.637  0.0505  0.0272 -0.4086
 4043ntf    fn421758   2.967   1.571   1.688 -0.1514 -0.0172 -0.0755
 4043ntf    on521759   2.705   1.551   1.843  0.7721  0.0689  0.2238
 4043ntf    on521760   2.608   1.503   1.614 -0.4423  0.0792  0.4565
 4043ntf    on521761   2.798   1.098   1.745 -0.4384  0.0578 -0.5894
 4043ntf    on521762   2.663   1.219   1.906  0.6272 -0.1125  0.2767
 4043ntf    fn421763   3.023   1.232   1.830  0.3281  0.1381 -0.1672
 4043ntf    fn421764   2.924   1.395   1.934 -0.0016  0.1916  0.2306
 4043ntf    fn421765   2.934   1.207   2.021  0.0922  0.0232 -0.2161
 4044ntf    cn121766   1.362   2.983   5.593  0.1069  0.1843  0.1479
 4044ntf    sn221767   1.398   2.844   5.483 -0.2176  0.2382 -0.0272
 4044ntf    nn321768   1.424   2.722   5.579 -0.6408  0.7061  0.6934
 4044ntf    sn221769   1.347   2.596   5.631  0.2814 -0.1746 -0.0195
 4044ntf    cn121770   1.380   2.478   5.497  0.0452  0.0275 -0.2562
 4044ntf    fn421771   1.344   3.096   5.527  0.3263  0.3382  0.3484
 4044ntf    fn421772   1.251   2.967   5.664 -0.0283  0.1181 -0.0776
 4044ntf    fn421773   1.459   3.010   5.679  0.0437 -0.0176  0.2836
 4044ntf    on521774   1.293   2.834   5.384 -0.4153  0.4633  0.1586
 4044ntf    on521775   1.524   2.878   5.423  0.0222  0.2107  0.4544
 4044ntf    on521776   1.205   2.618   5.619  0.3304  0.4121  0.4171
 4044ntf    on521777   1.401   2.538   5.752  0.2773 -0.7239 -0.2762
 4044ntf    fn421778   1.327   2.358   5.508  0.4351 -0.0881  0.4487
 4044ntf    fn421779   1.322   2.535   5.393  0.2403  0.6923 -0.0054
 4044ntf    fn421780   1.505   2.472   5.454  0.0247  0.2160 -0.3426
 4045ntf    cn121781   1.811   0.467   7.199  0.1786 -0.4215 -0.1056
 4045ntf    sn221782   1.683   0.394   7.305 -0.0046 -0.0937 -0.0983
 4045ntf    nn321783   1.601   0.322   7.193  0.3668 -0.0266 -0.4175
 4045ntf    sn221784   1.588   0.167   7.168 -0.2513 -0.0316 -0.1110
 4045ntf    cn121785   1.430   0.165   7.078 -0.1696  0.0741 -0.2569
 4045ntf    fn421786   1.880   0.373   7.135  0.6435 -0.4299  0.4025
 4045ntf    fn421787   1.754   0.533   7.099  0.6229 -0.4391 -0.3742
 4045ntf    fn421788   1.889   0.543   7.273 -0.1360 -0.3432  0.1452
 4045ntf    on521789   1.771   0.311   7.385  0.0414 -0.1975 -0.2569
 4045ntf    on521790   1.622   0.510   7.365 -0.1057 -0.4653  0.5370
 4045ntf    on521791   1.557   0.098   7.290  0.6721 -0.4644 -0.1140
 4045ntf    on521792   1.684   0.114   7.073 -0.1264 -0.1172  0.0625
 4045ntf    fn421793   1.440   0.244   6.972 -0.4951 -0.2212 -0.5069
 4045ntf    fn421794   1.392   0.046   7.034  0.3195 -0.2606  0.2053
 4045ntf    fn421795   1.325   0.216   7.140 -0.0644  0.0294 -0.0413
 4046ntf    cn121796   4.536   3.374   1.035 -0.3038  0.2005 -0.1582
 4046ntf    sn221797   4.600   3.214   1.095 -0.2047  0.1466 -0.4047
 4046ntf    nn321798   4.643   3.143   0.962 -0.0860 -0.4867 -0.0292
 4046ntf    sn221799   4.545   3.065   0.867 -0.1533 -0.0991 -0.2792
 4046ntf    cn121800   4.634   2.907   0.859  0.1670  0.0771 -0.2166
 4046ntf    fn421801   4.614   3.425   0.941 -0.0233  0.0834  0.0077
 4046ntf    fn421802   4.411   3.362   0.995 -0.3926  0.0430  0.1686
 4046ntf    fn421803   4.535   3.458   1.137  0.6329  0.1224 -0.0714
 4046ntf    on521804   4.721   3.263   1.156 -0.0305 -0.5610 -0.1861
 4046ntf    on521805   4.498   3.149   1.173 -0.1038  0.6218  0.1317
 4046ntf    on521806   4.555   3.104   0.729  0.3910  0.2116 -0.1588
 4046ntf    on521807   4.418   3.026   0.923 -0.5323  0.7202 -0.5417
 4046ntf    fn421808   4.765   2.917   0.844  0.2929 -0.2593  0.5952
 4046ntf    fn421809   4.616   2.854   0.979  0.2080  0.6782  0.0578
 4046ntf    fn421810   4.590   2.818   0.772 -0.0458  0.0787 -0.1111
 4047ntf    cn121811   4.545   5.384   3.977 -0.2559 -0.2712  0.3008
 4047ntf    sn221812   4.436   5.409   4.121 -0.1179  0.0922  0.3423
 4047ntf    nn321813   4.538   5.396   4.240  0.2807  0.0641  0.0031
 4047ntf    sn221814   4.643   5.497   4.297  0.0457  0.1623  0.2697
 4047ntf    cn121815   4.780   5.388   4.344  0.0578  0.0367 -0.0512
 4047ntf    fn421816   4.630   5.482   3.951 -0.1997 -0.5785 -0.7135
 4047ntf    fn421817   4.619   5.275   3.976  0.0442 -0.0647  0.0129
 4047ntf    fn421818   4.468   5.376   3.870  0.3695 -0.0527 -0.1703
 4047ntf    on521819   4.369   5.536   4.109  0.0284  0.1635  0.2655
 4047ntf    on521820   4.371   5.282   4.107  0.1725 -0.0698  0.4453
 4047ntf    on521821   4.598   5.563   4.417  0.2219  0.3869  0.2146
 4047ntf    on521822   4.704   5.582   4.197  0.2491  0.0658  0.3122
 4047ntf    fn421823   4.741   5.287   4.421 -0.3291  0.4126  0.2533
 4047ntf    fn421824   4.831   5.329   4.237  0.2068 -0.2361  0.1702
 4047ntf    fn421825   4.883   5.448   4.403 -0.0263 -0.3892  0.5373
 4048ntf    cn121826   6.363   1.782   5.763  0.0508 -0.2120 -0.2943
 4048ntf    sn221827   6.451   1.623   5.754 -0.0499 -0.2795 -0.0742
 4048ntf    nn321828   6.551   1.632   5.875 -0.2218  0.0527  0.0453
 4048ntf    sn221829   6.615   1.507   5.944  0.1179  0.1327 -0.1243
 4048ntf    cn121830   6.792   1.545   5.963  0.0750  0.3433 -0.1531
 4048ntf    fn421831   6.298   1.793   5.877 -0.2952 -0.5703 -0.4551
 4048ntf    fn421832   6.446   1.884   5.748  0.3019 -0.2622  0.6926
 4048ntf    fn421833   6.269   1.789   5.670 -0.2014 -0.0955 -0.0297
 4048ntf    on521834   6.342   1.531   5.774 -0.1942 -0.0915  0.0191
 4048ntf    on521835   6.512   1.626   5.624  0.1738  0.0251  0.0372
 4048ntf    on521836   6.616   1.385   5.867  1.1127  0.2009 -0.2299
 4048ntf    on521837   6.578   1.499   6.084  0.7983  0.1395  0.0604
 4048ntf    fn421838   6.843   1.607   5.858  0.5390 -0.3671 -0.3515
 4048ntf    fn421839   6.809   1.626   6.067  0.3776 -0.1333  0.1706
 4048ntf    fn421840   6.868   1.440   5.988  0.0336  0.2934 -0.2375
 4049ntf    cn121841   5.589   0.449   0.548  0.1559  0.1198 -0.3724
 4049ntf    sn221842   5.768   0.457   0.579  0.1240  0.1763 -0.1986
 4049ntf    nn321843   5.819   0.399   0.443 -0.2546 -0.6217 -0.0077
 4049ntf    sn221844   5.900   0.267   0.416  0.3938 -0.2223 -0.0522
 4049ntf    cn121845   6.001   0.320   0.275  0.2620 -0.0333 -0.0751
 4049ntf    fn421846   5.552   0.326   0.517 -0.0810  0.0646  0.1132
 4049ntf    fn421847   5.513   0.483   0.651  0.1078 -0.7562 -0.1106
 4049ntf    fn421848   5.545   0.528   0.452  0.4901  0.3273 -0.3568
 4049ntf    on521849   5.790   0.597   0.606 -0.1614  0.1427  0.2276
 4049ntf    on521850   5.789   0.376   0.696  0.4434  0.6693  0.0917
 4049ntf    on521851   5.831   0.156   0.356 -0.1798  0.1254 -0.0393
 4049ntf    on521852   6.003   0.238   0.513  0.4964  0.0247 -0.0882
 4049ntf    fn421853   5.981   0.446   0.238 -0.2480  0.0298  0.3956
 4049ntf    fn421854   6.130   0.313   0.303  0.2328  0.0202  0.0731
 4049ntf    fn421855   5.991   0.244   0.167  0.7657  0.2946 -0.3582
 4050ntf    cn121856   3.597   4.781   6.812  0.2462 -0.3157 -0.0560
 4050ntf    sn221857   3.764   4.755   6.879  0.0963 -0.4878  0.2561
 4050ntf    nn321858   3.845   4.730   6.747  0.3539  0.0339  0.3134
 4050ntf    sn221859   3.962   4.823   6.698 -0.0303  0.2145 -0.2763
 4050ntf    cn121860   4.051   4.684   6.622  0.1057  0.1175  0.0573
 4050ntf    fn421861   3.513   4.781   6.914 -0.0938  0.2223 -0.3332
 4050ntf    fn421862   3.595   4.898   6.751  0.1347 -0.7141 -0.8353
 4050ntf    fn421863   3.553   4.689   6.728 -0.4387 -0.5221  0.5187
 4050ntf    on521864   3.782   4.877   6.954  0.3603 -0.3962  0.0453
 4050ntf    on521865   3.747   4.636   6.958  0.3841 -0.2779  0.6380
 4050ntf    on521866   4.051   4.886   6.793 -0.4947  0.7051 -0.1637
 4050ntf    on521867   3.933   4.900   6.580  0.4656  0.2733 -0.3633
 4050ntf    fn421868   4.161   4.726   6.560 -0.0860 -0.5384 -0.7451
 4050ntf    fn421869   4.091   4.584   6.698 -0.7037 -0.1792  0.0956
 4050ntf    fn421870   3.983   4.641   6.517 -0.1236  0.1763  0.1812
 4051ntf    cn121871   3.382   1.715   3.180  0.4034 -0.0704  0.3102
 4051ntf    sn221872   3.266   1.581   3.222 -0.0528  0.2969  0.2259
 4051ntf    nn321873   3.239   1.509   3.085  0.5160 -0.3808  0.4670
 4051ntf    sn221874   3.105   1.460   3.020  0.2881  0.1774  0.5125
 4051ntf    cn121875   3.071   1.592   2.899  0.2689 -0.1270  0.1866
 4051ntf    fn421876   3.430   1.776   3.288  0.0604 -0.0091  0.4298
 4051ntf    fn421877   3.489   1.663   3.122 -0.2220 -0.8474 -0.1585
 4051ntf    fn421878   3.328   1.808   3.103 -0.0503 -0.3525  0.2830
 4051ntf    on521879   3.340   1.503   3.317  0.5881  0.4062 -0.1785
 4051ntf    on521880   3.156   1.658   3.276 -0.6906  0.0868 -0.7371
 4051ntf    on521881   2.991   1.474   3.108 -0.2591  0.6254 -0.2517
 4051ntf    on521882   3.110   1.341   2.939 -0.6949  0.7688 -0.4618
 4051ntf    fn421883   3.011   1.541   2.792 -0.6626  0.5675  0.3690
 4051ntf    fn421884   3.007   1.699   2.943  0.5450  0.0452  0.1704
 4051ntf    fn421885   3.187   1.636   2.854  0.2133  0.1079  0.2712
 4052ntf    cn121886   1.847   3.258   2.164 -0.0354 -0.4434 -0.1612
 4052ntf    sn221887   1.704   3.288   2.055 -0.0606  0.1232  0.0243
 4052ntf    nn321888   1.595   3.214   2.139  0.1296  0.1816  0.3260
 4052ntf    sn221889   1.478   3.270   2.228 -0.1604  0.1050 -0.0041
 4052ntf    cn121890   1.344   3.169   2.159  0.0887 -0.0362 -0.2831
 4052ntf    fn421891   1.963   3.238   2.103  0.2528 -0.4497  0.3833
 4052ntf    fn421892   1.874   3.349   2.256 -0.3984  0.0383 -0.5204
 4052ntf    fn421893   1.831   3.147   2.233 -0.0747 -0.0355  0.4915
 4052ntf    on521894   1.692   3.431   2.038  0.1085  0.1766  0.3356
 4052ntf    on521895   1.745   3.222   1.934  0.9670  0.2239  0.3008
 4052ntf    on521896   1.441   3.408   2.203 -0.4000  0.0242 -0.0979
 4052ntf    on521897   1.488   3.225   2.364  0.4293 -0.7214 -0.3141
 4052ntf    fn421898   1.240   3.153   2.240  0.0682 -0.1537 -0.3333
 4052ntf    fn421899   1.278   3.215   2.053  0.1347  0.4769 -0.0929
 4052ntf    fn421900   1.393   3.051   2.125  0.3416 -0.1341  0.4135
 4053ntf    cn121901   4.712   3.525   6.067 -0.0809  0.2390  0.2000
 4053ntf    sn221902   4.842   3.628   5.991  0.2046 -0.2399  0.0362
 4053ntf    nn321903   4.753   3.749   5.947 -0.4620 -0.6105  0.3467
 4053ntf    sn221904   4.729   3.870   6.045 -0.0728 -0.0901 -0.1956
 4053ntf    cn121905   4.851   3.981   5.967 -0.2892  0.1001 -0.2639
 4053ntf    fn421906   4.625   3.587   6.145 -0.6313 -0.2883  0.0066
 4053ntf    fn421907   4.648   3.447   5.982  0.4891 -0.3436  0.2976
 4053ntf    fn421908   4.759   3.431   6.147 -0.0607  0.1622  0.0985
 4053ntf    on521909   4.941   3.657   6.091  0.3658  0.1615 -0.2389
 4053ntf    on521910   4.885   3.555   5.874 -0.4667 -0.0095 -0.3586
 4053ntf    on521911   4.767   3.862   6.184  0.1393  0.3593 -0.2274
 4053ntf    on521912   4.606   3.938   6.017 -0.3391 -0.5541 -0.1612
 4053ntf    fn421913   4.795   4.053   5.872 -0.6267  0.3443  0.1148
 4053ntf    fn421914   4.916   4.061   6.050 -0.3494 -0.2494  0.1229
 4053ntf    fn421915   4.949   3.916   5.907 -0.2016  0.0774 -0.0955
 4054ntf    cn121916   5.368   0.246   4.196 -0.3344 -0.1187  0.1708
 4054ntf    sn221917   5.453   0.153   4.327  0.7364  0.0371 -0.4094
 4054ntf    nn321918   5.424   0.221   4.466  0.0592 -0.6691 -0.2018
 4054ntf    sn221919   5.287   0.276   4.520  0.1293 -0.2135 -0.4852
 4054ntf    cn121920   5.341   0.449   4.527 -0.2708 -0.1205  0.3754
 4054ntf    fn421921   5.422   0.211   4.081  0.3891 -0.1253  0.5112
 4054ntf    fn421922   5.241   0.209   4.189 -0.2564 -0.3156 -0.1885
 4054ntf    fn421923   5.375   0.378   4.202 -0.0731 -0.1361  0.2583
 4054ntf    on521924   5.401   0.020   4.309  0.1668  0.2991 -0.7356
 4054ntf    on521925   5.591   0.177   4.292  0.6027  0.2567 -0.7915
 4054ntf    on521926   5.262   0.255   4.660  0.5442 -0.4647 -0.4461
 4054ntf    on521927   5.175   0.272   4.430 -0.2073 -0.4545 -0.0569
 4054ntf    fn421928   5.437   0.471   4.614 -0.1199  0.5436  0.0526
 4054ntf    fn421929   5.387   0.481   4.407  0.1359  0.2504  0.6245
 4054ntf    fn421930   5.240   0.523   4.571 -0.5571 -0.4135  0.2155
 4055ntf    cn121931   3.179   4.136   4.780  0.4758  0.2715  0.0742
 4055ntf    sn221932   3.303   4.003   4.778  0.0793 -0.0979 -0.0870
 4055ntf    nn321933   3.427   4.094   4.750  0.0430 -0.0900 -0.2198
 4055ntf    sn221934   3.561   4.044   4.686  0.0857 -0.3442  0.0676
 4055ntf    cn121935   3.657   3.997   4.833  0.3681 -0.0736 -0.0276
 4055ntf    fn421936   3.070   4.088   4.838  0.2000 -0.0921 -0.7314
 4055ntf    fn421937   3.211   4.247   4.845 -0.1121  0.9277 -0.7440
 4055ntf    fn421938   3.152   4.174   4.656 -0.5033 -0.2399  0.1244
 4055ntf    on521939   3.305   3.945   4.910  0.4127 -0.9518 -0.4632
 4055ntf    on521940   3.257   3.930   4.663  0.1267  0.1825 -0.2862
 4055ntf    on521941   3.637   4.150   4.624  0.0554 -0.3282  0.0569
 4055ntf    on521942   3.555   3.920   4.612 -0.3723 -0.2875  0.0105
 4055ntf    fn421943   3.676   4.097   4.918 -0.1401  0.2531 -0.2925
 4055ntf    fn421944   3.604   3.896   4.901  0.1278 -0.0992 -0.2495
 4055ntf    fn421945   3.778   3.950   4.805  0.3570  0.0410 -0.2687
 4056ntf    cn121946   2.496   2.873   1.972  0.1053  0.4582 -0.4531
 4056ntf    sn221947   2.427   2.740   1.870  0.5255 -0.0315 -0.1026
 4056ntf    nn321948   2.453   2.604   1.945 -0.0080  0.0068  0.1514
 4056ntf    sn221949   2.363   2.531   2.051 -0.1935 -0.2165 -0.1581
 4056ntf    cn121950   2.342   2.369   1.972 -0.2091 -0.3214  0.0612
 4056ntf    fn421951   2.409   2.969   1.998  0.3303  0.5863 -0.1632
 4056ntf    fn421952   2.545   2.833   2.088 -0.1168  0.0109 -0.5117
 4056ntf    fn421953   2.602   2.931   1.917  0.1761  0.3577 -0.4224
 4056ntf    on521954   2.290   2.768   1.837  0.5921  0.0779 -0.2926
 4056ntf    on521955   2.516   2.748   1.756  0.7875  0.2429  0.1214
 4056ntf    on521956   2.232   2.589   2.069 -0.0298  0.0015  0.3431
 4056ntf    on521957   2.445   2.502   2.166  0.3763  0.2925 -0.4321
 4056ntf    fn421958   2.287   2.287   2.061 -0.0190  0.1818  0.6474
 4056ntf    fn421959   2.265   2.369   1.865 -0.2751  0.1593  0.1075
 4056ntf    fn421960   2.458   2.313   1.941 -0.4572 -0.7672 -0.0741
 4057ntf    cn121961   0.178   2.339   2.060  0.1411 -0.0330  0.3573
 4057ntf    sn221962   0.262   2.182   2.024  0.1271  0.1344 -0.4317
 4057ntf    nn321963   0.154   2.112   1.935 -0.0644 -0.2394  0.0952
 4057ntf    sn221964   0.177   1.996   1.832  0.1462 -0.1093 -0.0029
 4057ntf    cn121965   0.042   1.884   1.878 -0.0456 -0.0783 -0.4850
 4057ntf    fn421966   0.255   2.435   2.109  0.4228 -0.3290  0.4948
 4057ntf    fn421967   0.131   2.390   1.947  0.6147 -0.0936  0.1310
 4057ntf    fn421968   0.078   2.320   2.143  0.0349  0.5276  0.3629
 4057ntf    on521969   0.364   2.238   1.939  0.0804  0.0178 -0.5648
 4057ntf    on521970   0.296   2.129   2.154  0.0950  1.3311  0.0814
 4057ntf    on521971   0.296   1.918   1.851 -0.1983 -0.6629 -0.0999
 4057ntf    on521972   0.137   2.031   1.697 -0.1750 -0.4013  0.0150
 4057ntf    fn421973  -0.077   1.936   1.851 -0.2157  0.2054  0.7609
 4057ntf    fn421974   0.048   1.768   1.813 -0.1295 -0.0998 -0.4553
 4057ntf    fn421975   0.043   1.863   2.008 -0.1733 -0.5861 -0.5621
 4058ntf    cn121976   5.661   5.505   4.729 -0.1539 -0.2332 -0.2229
 4058ntf    sn221977   5.805   5.395   4.742 -0.1547 -0.2011  0.0463
 4058ntf    nn321978   5.901   5.475   4.647 -0.5876  0.3359  0.0569
 4058ntf    sn221979   5.959   5.428   4.509 -0.4571 -0.3302  0.3362
 4058ntf    cn121980   5.854   5.521   4.394  0.0918  0.1291  0.2042
 4058ntf    fn421981   5.597   5.495   4.614 -0.2897 -0.6246 -0.1152
 4058ntf    fn421982   5.568   5.488   4.821  0.2315 -0.4163  0.1359
 4058ntf    fn421983   5.705   5.629   4.736  0.2722 -0.3998  0.1019
 4058ntf    on521984   5.837   5.409   4.883 -0.0640 -1.0839  0.1152
 4058ntf    on521985   5.757   5.265   4.702  0.5359 -0.6261  0.5677
 4058ntf    on521986   5.945   5.289   4.471 -0.0928 -0.1620 -0.4380
 4058ntf    on521987   6.091   5.485   4.501 -0.6968  0.2378  0.4013
 4058ntf    fn421988   5.884   5.482   4.272 -0.6428  0.2785 -0.0352
 4058ntf    fn421989   5.725   5.495   4.407  0.2212 -0.9283 -0.5665
 4058ntf    fn421990   5.871   5.652   4.410 -0.6303  0.1580  0.8168
 4059ntf    cn121991   5.048   5.388   2.648  0.1698  0.1154  0.1527
 4059ntf    sn221992   5.036   5.208   2.622  0.3342  0.1452 -0.1375
 4059ntf    nn321993   4.954   5.163   2.749 -0.0515  0.0665 -0.4131
 4059ntf    sn221994   4.798   5.160   2.763 -0.0008  0.0664  0.1422
 4059ntf    cn121995   4.788   5.188   2.943 -0.0643 -0.3644  0.2081
 4059ntf    fn421996   4.939   5.445   2.697 -0.0617 -0.3629  0.1991
 4059ntf    fn421997   5.140   5.419   2.737 -0.0037 -0.4678  0.5420
 4059ntf    fn421998   5.089   5.456   2.542 -0.4191 -0.0694 -0.1962
 4059ntf    on521999   4.969   5.187   2.496  0.2397  0.2155 -0.0992
 4059ntf    on522000   5.175   5.172   2.620  0.2646 -0.1462  0.1452
 4059ntf    on522001   4.744   5.030   2.732  0.3859  0.1055 -0.7124
 4059ntf    on522002   4.737   5.282   2.717  0.0174  0.0514  0.0778
 4059ntf    fn422003   4.666   5.158   2.984 -0.3556  0.9622  0.3663
 4059ntf    fn422004   4.880   5.110   2.998  0.1282 -0.7153 -0.5925
 4059ntf    fn422005   4.822   5.309   2.983  0.1158 -0.3556  0.0319
 4060ntf    cn122006   5.900   5.201   4.037  0.1783  0.1982 -0.1619
 4060ntf    sn222007   5.828   5.041   3.986 -0.3142  0.3183  0.1488
 4060ntf    nn322008   5.942   4.963   3.912 -0.7937 -0.5463  0.3168
 4060ntf    sn222009   5.965   4.952   3.757  0.2829 -0.3901  0.4608
 4060ntf    cn122010   5.934   4.773   3.742 -0.4671 -0.2116 -0.1212
 4060ntf    fn422011   5.817   5.262   4.119 -0.1167 -0.2741 -0.1020
 4060ntf    fn422012   6.015   5.193   4.102 -0.2459  0.3200  0.6165
 4060ntf    fn422013   5.909   5.276   3.929  0.5917  0.2002 -0.1271
 4060ntf    on522014   5.792   4.977   4.110  0.2512 -0.2277  0.0302
 4060ntf    on522015   5.725   5.101   3.904 -0.2667  0.4012  0.1482
 4060ntf    on522016   6.106   4.970   3.733  0.1657 -0.6884 -0.4925
 4060ntf    on522017   5.870   5.011   3.667  0.7927 -0.3533 -0.0611
 4060ntf    fn422018   5.992   4.722   3.634 -0.0970  0.7801 -0.4008
 4060ntf    fn422019   5.986   4.725   3.853  0.1803  0.8147  0.0383
 4060ntf    fn422020   5.810   4.725   3.739 -0.6164  0.1694 -0.1592
 4061ntf    cn122021   1.735   0.311   2.073 -0.0942 -0.2697 -0.2975
 4061ntf    sn222022   1.862   0.259   1.954  0.1585 -0.1738 -0.0705
 4061ntf    nn322023   1.779   0.240   1.822  0.2145  0.5790 -0.2223
 4061ntf    sn222024   1.745   0.358   1.725  0.0310  0.6228 -0.1060
 4061ntf    cn122025   1.890   0.373   1.617  0.1467 -0.0708 -0.0517
 4061ntf    fn422026   1.627   0.235   2.081 -0.5951  0.4433 -0.2522
 4061ntf    fn422027   1.782   0.300   2.196  0.0191 -0.1206 -0.3280
 4061ntf    fn422028   1.688   0.434   2.062  0.1757 -0.1841 -0.4935
 4061ntf    on522029   1.952   0.372   1.954 -0.4301  0.3006 -0.2737
 4061ntf    on522030   1.922   0.141   2.011  0.3613  0.0415  0.1671
 4061ntf    on522031   1.716   0.483   1.793 -0.2258 -0.0307  1.0163
 4061ntf    on522032   1.645   0.312   1.633  0.1038  0.8210 -0.2852
 4061ntf    fn422033   1.853   0.426   1.501  0.1995 -0.2087 -0.1315
 4061ntf    fn422034   1.991   0.441   1.669 -0.1107 -0.2790  0.7322
 4061ntf    fn422035   1.931   0.249   1.596 -0.5073 -0.3221  0.1460
 4062ntf    cn122036   3.625   5.312   3.237  0.1959  0.1717 -0.1961
 4062ntf    sn222037   3.799   5.295   3.186  0.2120  0.0773 -0.1098
 4062ntf    nn322038   3.842   5.154   3.240 -0.0341  0.1159  0.1892
 4062ntf    sn222039   3.979   5.102   3.296  0.1040  0.1865 -0.0849
 4062ntf    cn122040   4.055   5.020   3.153  0.0352 -0.0798  0.0311
 4062ntf    fn422041   3.571   5.193   3.256  0.2261  0.0427 -0.8973
 4062ntf    fn422042   3.614   5.382   3.349 -0.5024  0.3985 -0.4003
 4062ntf    fn422043   3.552   5.388   3.157  0.5558  0.8528  0.1123
 4062ntf    on522044   3.801   5.302   3.042 -0.3953 -0.0351 -0.1274
 4062ntf    on522045   3.857   5.409   3.252 -0.5253  0.2166  0.3135
 4062ntf    on522046   3.960   4.997   3.392 -0.1497  0.3275  0.0223
 4062ntf    on522047   4.075   5.204   3.332  0.1140  0.1141  0.0926
 4062ntf    fn422048   4.071   5.100   3.048  0.0791 -0.5016 -0.2896
 4062ntf    fn422049   4.177   4.983   3.186  0.1359  0.0358 -0.2060
 4062ntf    fn422050   3.987   4.912   3.117 -0.0625  0.0004 -0.0261
 4063ntf    cn122051   0.877   6.257   6.772 -0.2276  0.1125 -0.1990
 4063ntf    sn222052   0.874   6.151   6.920  0.3109  0.3987  0.0182
 4063ntf    nn322053   0.939   6.253   7.020  0.1956  0.3977  0.0925
 4063ntf    sn222054   0.931   6.251   7.177 -0.2492 -0.1793  0.0662
 4063ntf    cn122055   1.063   6.370   7.211 -0.4214  0.0131  0.0650
 4063ntf    fn422056   0.809   6.368   6.792 -0.3695  0.0361 -0.2562
 4063ntf    fn422057   0.990   6.306   6.724 -0.1137  0.4302  0.3756
 4063ntf    fn422058   0.819   6.194   6.671 -0.0666  0.2891 -0.4035
 4063ntf    on522059   0.739   6.104   6.941  0.4421  0.2739  0.6106
 4063ntf    on522060   0.968   6.047   6.883 -0.6001 -0.4215 -0.0274
 4063ntf    on522061   0.973   6.135   7.252 -0.4532 -0.1384  0.2473
 4063ntf    on522062   0.810   6.316   7.223 -0.3447 -0.4420  0.1903
 4063ntf    fn422063   1.184   6.329   7.176 -0.4612  0.2839 -0.4038
 4063ntf    fn422064   1.042   6.489   7.156 -0.5327 -0.1805 -0.3109
 4063ntf    fn422065   1.079   6.389   7.341  0.2431  0.3104 -0.0528
 4064ntf    cn122066   4.452   2.556   3.885  0.2249  0.2856  0.7186
 4064ntf    sn222067   4.593   2.658   3.834  0.2459  0.0277  0.2555
 4064ntf    nn322068   4.648   2.591   3.703  0.1038 -0.3689  0.3962
 4064ntf    sn222069   4.750   2.473   3.687  0.3462 -0.1160  0.0606
 4064ntf    cn122070   4.908   2.558   3.657  0.1457  0.3129  0.2115
 4064ntf    fn422071   4.386   2.511   3.780  0.1278  0.7492  0.5808
 4064ntf    fn422072   4.486   2.449   3.956 -0.3357 -0.3772  0.0135
 4064ntf    fn422073   4.368   2.628   3.958 -0.4393  0.2654 -0.0167
 4064ntf    on522074   4.530   2.784   3.804 -0.1183 -0.0893  0.5177
 4064ntf    on522075   4.667   2.661   3.958  0.0672  0.5326  0.3538
 4064ntf    on522076   4.711   2.415   3.561 -0.1414 -0.1871  0.2395
 4064ntf    on522077   4.769   2.383   3.798 -0.6977 -0.3693  0.0460
 4064ntf    fn422078   4.919   2.583   3.528 -0.3930  1.0644  0.3007
 4064ntf    fn422079   4.936   2.666   3.729 -0.1600  0.3826  0.2297
 4064ntf    fn422080   5.007   2.473   3.678 -0.3630 -0.2559  0.3362
 4065ntf    cn122081   4.236   4.175   4.494  0.3097 -0.0793 -0.1881
 4065ntf    sn222082   4.359   4.053   4.549  0.0772 -0.2687 -0.0872
 4065ntf    nn322083   4.344   3.945   4.436 -0.2335  0.2676 -0.5638
 4065ntf    sn222084   4.405   3.945   4.291  0.0814 -0.0656 -0.4323
 4065ntf    cn122085   4.561   3.856   4.321 -0.1303 -0.2730  0.0784
 4065ntf    fn422086   4.125   4.123   4.445 -0.0771  0.6069 -0.0562
 4065ntf    fn422087   4.188   4.246   4.595 -0.0846 -0.5461 -0.0412
 4065ntf    fn422088   4.278   4.266   4.409 -0.0518  0.1558 -0.1162
 4065ntf    on522089   4.479   4.133   4.558 -0.3661  0.5033 -0.8871
 4065ntf    on522090   4.304   4.006   4.674 -0.2984 -0.3361 -0.2774
 4065ntf    on522091   4.440   4.078   4.249 -0.8448  0.2003 -0.3752
 4065ntf    on522092   4.332   3.859   4.202 -0.1879 -0.0554 -0.2228
 4065ntf    fn422093   4.642   3.845   4.217 -0.0306  0.7524  0.0363
 4065ntf    fn422094   4.637   3.927   4.402 -0.3056  0.1174 -0.0971
 4065ntf    fn422095   4.558   3.738   4.381  0.3769 -0.3395 -0.0181
 4066ntf    cn122096   5.654   6.898   1.226  0.0561  0.2499  0.1934
 4066ntf    sn222097   5.772   6.868   1.360 -0.1160 -0.2205  0.2435
 4066ntf    nn322098   5.768   6.712   1.370 -0.5099 -0.2203  0.1035
 4066ntf    sn222099   5.832   6.635   1.491 -0.3952 -0.2563  0.0192
 4066ntf    cn122100   5.713   6.664   1.625  0.2380  0.3098  0.4668
 4066ntf    fn422101   5.690   6.816   1.128 -0.3533 -0.7480  0.8687
 4066ntf    fn422102   5.529   6.855   1.236  0.0844 -0.1640 -0.9939
 4066ntf    fn422103   5.660   7.020   1.175  0.1609  0.0409 -0.3113
 4066ntf    on522104   5.893   6.917   1.299 -0.3087 -0.1217 -0.0576
 4066ntf    on522105   5.721   6.940   1.474 -0.5568 -0.6219  0.3001
 4066ntf    on522106   5.961   6.680   1.539 -0.3112 -0.3486 -0.1179
 4066ntf    on522107   5.813   6.495   1.462 -0.3533 -0.3366  0.3674
 4066ntf    fn422108   5.746   6.577   1.719  0.5520  0.3551  0.3979
 4066ntf    fn422109   5.713   6.782   1.685  0.0951  0.2318  0.6221
 4066ntf    fn422110   5.589   6.633   1.591  0.4281  0.0591  0.0061
 4067ntf    cn122111   0.192   7.317   0.986 -0.1654 -0.0209 -0.5934
 4067ntf    sn222112   0.326   7.283   0.868  0.3434 -0.3638  0.0733
 4067ntf    nn322113   0.450   7.346   0.940 -0.7268  0.4664  1.2440
 4067ntf    sn222114   0.515   7.484   0.904  0.0628 -0.2175 -0.0233
 4067ntf    cn122115   0.688   7.444   0.944  0.1108 -0.0482 -0.0597
 4067ntf    fn422116   0.163   7.443   1.012  1.1052  0.1129  0.2807
 4067ntf    fn422117   0.075   7.263   0.953 -0.0677 -0.3640 -0.3891
 4067ntf    fn422118   0.240   7.260   1.096  0.6557  0.5444 -0.6539
 4067ntf    on522119   0.319   7.139   0.870  0.4842 -0.3699  0.0553
 4067ntf    on522120   0.275   7.353   0.752  0.3478 -0.5601 -0.0471
 4067ntf    on522121   0.472   7.594   0.987 -0.1500  0.5070 -1.0693
 4067ntf    on522122   0.519   7.514   0.763 -0.1930 -0.4466 -0.0813
 4067ntf    fn422123   0.757   7.557   0.941 -0.3660  0.2344 -0.5854
 4067ntf    fn422124   0.704   7.395   1.066 -0.2769 -0.4568 -0.1700
 4067ntf    fn422125   0.752   7.364   0.861 -0.1506 -0.6279  0.2875
 4068ntf    cn122126   0.313   2.681   6.913  0.2994  0.3269  0.1523
 4068ntf    sn222127   0.276   2.858   6.902 -0.1354  0.2425  0.2449
 4068ntf    nn322128   0.277   2.898   7.054  0.1138 -0.4094  0.4157
 4068ntf    sn222129   0.392   2.962   7.140  0.2476  0.1929 -0.2032
 4068ntf    cn122130   0.377   2.871   7.297 -0.4693  0.3661 -0.1688
 4068ntf    fn422131   0.221   2.614   6.982  0.4891 -0.0856  0.0097
 4068ntf    fn422132   0.328   2.625   6.794 -0.2929  0.6595 -0.0837
 4068ntf    fn422133   0.430   2.655   6.970  0.2231  0.9999  0.6361
 4068ntf    on522134   0.367   2.921   6.810 -0.1901 -0.1777 -0.0939
 4068ntf    on522135   0.138   2.850   6.861 -0.2404  0.0640  0.6258
 4068ntf    on522136   0.356   3.092   7.188 -0.7831 -0.1548 -0.0162
 4068ntf    on522137   0.527   2.942   7.091  0.0242 -0.0432 -0.7289
 4068ntf    fn422138   0.452   2.927   7.391  0.0280 -0.5539 -0.0027
 4068ntf    fn422139   0.249   2.879   7.329 -0.4910 -0.1359 -0.1284
 4068ntf    fn422140   0.408   2.743   7.285 -0.5343  0.4168 -0.9373
 4069ntf    cn122141   2.919   6.091   5.057 -0.2786 -0.3998  0.0130
 4069ntf    sn222142   3.071   6.006   5.107 -0.0542  0.2609  0.4738
 4069ntf    nn322143   3.089   5.893   4.999 -0.0390 -0.0877  0.8373
 4069ntf    sn222144   3.045   5.743   5.014  0.1863 -0.2749 -0.2829
 4069ntf    cn122145   3.093   5.662   4.859  0.0885 -0.3612 -0.2686
 4069ntf    fn422146   2.901   6.209   5.114  0.2410 -0.2083 -0.2106
 4069ntf    fn422147   2.923   6.119   4.927  0.6103 -0.1269  0.0967
 4069ntf    fn422148   2.814   6.015   5.082  0.0113 -0.5295  0.8479
 4069ntf    on522149   3.175   6.104   5.095 -0.3569  0.5112 -0.1440
 4069ntf    on522150   3.028   5.965   5.238 -0.4694  0.2109  0.3239
 4069ntf    on522151   2.903   5.726   5.032  0.1247  0.3800 -0.1185
 4069ntf    on522152   3.127   5.672   5.109  0.2130  0.1486  0.0162
 4069ntf    fn422153   3.042   5.540   4.858  0.1635 -0.3940 -0.1473
 4069ntf    fn422154   3.054   5.730   4.752 -0.2443  0.2704  0.2459
 4069ntf    fn422155   3.225   5.646   4.850  0.0896 -0.1925 -0.5769
 4070ntf    cn122156   0.542   2.542   0.459  0.0391  0.0278 -0.3571
 4070ntf    sn222157   0.513   2.647   0.314 -0.1305  0.0335 -0.3195
 4070ntf    nn322158   0.658   2.695   0.278  0.2304 -0.3719  0.5661
 4070ntf    sn222159   0.765   2.632   0.181 -0.2666 -0.2550 -0.0628
 4070ntf    cn122160   0.908   2.645   0.291 -0.2013 -0.2990 -0.1427
 4070ntf    fn422161   0.432   2.505   0.522 -0.0596 -0.1645 -0.6399
 4070ntf    fn422162   0.591   2.426   0.417 -0.2504  0.0718 -0.8215
 4070ntf    fn422163   0.632   2.581   0.547  0.0816 -0.0279 -0.3755
 4070ntf    on522164   0.442   2.560   0.224  0.0469  0.0593 -0.4854
 4070ntf    on522165   0.431   2.753   0.366  0.8620  0.7219 -0.1199
 4070ntf    on522166   0.803   2.714   0.069 -0.1967  0.1964  0.2892
 4070ntf    on522167   0.748   2.491   0.156  0.2169 -0.3456  0.1233
 4070ntf    fn422168   0.898   2.566   0.397 -0.4592 -0.4026 -0.2455
 4070ntf    fn422169   1.016   2.599   0.230 -0.0588 -0.3185  0.1192
 4070ntf    fn422170   0.931   2.766   0.338 -0.3535 -0.0514 -0.7073
 4071ntf    cn122171   4.252   0.916   1.390  0.0796  0.2055 -0.0290
 4071ntf    sn222172   4.201   0.818   1.246 -0.0064  0.3322 -0.0854
 4071ntf    nn322173   4.146   0.936   1.159 -0.2954  0.2666  0.0083
 4071ntf    sn222174   3.996   0.961   1.119 -0.3738 -0.1393  0.0451
 4071ntf    cn122175   3.999   0.872   0.961  0.4583 -0.4094  0.2083
 4071ntf    fn422176   4.287   0.839   1.491  0.8768 -0.1839 -0.5969
 4071ntf    fn422177   4.352   0.999   1.365 -0.2169  0.5814  0.0094
 4071ntf    fn422178   4.153   0.992   1.435  0.0777  0.0184  0.2879
 4071ntf    on522179   4.331   0.780   1.196  0.0343 -0.3976  0.5521
 4071ntf    on522180   4.107   0.719   1.293  0.4714  0.2276  0.6592
 4071ntf    on522181   3.979   1.097   1.074 -0.1279 -0.3394 -0.6526
 4071ntf    on522182   3.889   0.903   1.196 -0.4197 -0.3120 -0.1486
 4071ntf    fn422183   4.075   0.928   0.868 -0.6623  0.8336  0.0071
 4071ntf    fn422184   4.039   0.747   0.975 -0.2052 -0.5819  0.5964
 4071ntf    fn422185   3.876   0.863   0.913  0.4209  0.6615  0.0717
 4072ntf    cn122186   5.846   6.240   0.924 -0.0176 -0.0051 -0.0033
 4072ntf    sn222187   5.997   6.184   0.839 -0.0688 -0.0758 -0.0476
 4072ntf    nn322188   5.941   6.134   0.702 -0.2306  0.2572 -0.1039
 4072ntf    sn222189   5.922   6.207   0.564  0.2758  0.6276  0.0231
 4072ntf    cn122190   6.094   6.184   0.510  0.0893 -0.1147 -0.2588
 4072ntf    fn422191   5.860   6.253   1.055  0.4288  0.0073 -0.0496
 4072ntf    fn422192   5.804   6.358   0.881  0.2857  0.0736 -0.0850
 4072ntf    fn422193   5.743   6.159   0.906 -0.5993  0.6309  0.4374
 4072ntf    on522194   6.076   6.304   0.842  0.3686 -0.3625 -0.0543
 4072ntf    on522195   6.039   6.070   0.917  0.0091 -0.0337 -0.0287
 4072ntf    on522196   5.896   6.349   0.568  0.0029  0.5992 -0.6333
 4072ntf    on522197   5.835   6.130   0.479  0.0952  0.3541  0.4477
 4072ntf    fn422198   6.169   6.113   0.592  0.4763  0.8285  0.2198
 4072ntf    fn422199   6.118   6.136   0.389 -0.0263 -0.3737 -0.1792
 4072ntf    fn422200   6.140   6.308   0.518 -0.3823  0.0427  0.0484
 4073ntf    cn122201   7.100   7.335   4.816 -0.0597  0.7762 -0.4900
 4073ntf    sn222202   7.264   7.410   4.840 -0.0942  0.6748  0.0801
 4073ntf    nn322203   7.296   7.454   4.692 -0.2406 -0.4675 -0.3037
 4073ntf    sn222204   7.427   7.443   4.606  0.0307  0.2798  0.0044
 4073ntf    cn122205   7.425   7.265   4.570  0.4361  0.1801  0.4674
 4073ntf    fn422206   7.042   7.289   4.926  0.3028 -0.2029 -0.7108
 4073ntf    fn422207   7.006   7.421   4.779 -0.3374  0.6428 -0.1054
 4073ntf    fn422208   7.095   7.247   4.718 -0.6613  0.1519  0.0876
 4073ntf    on522209   7.240   7.525   4.923 -0.6955  0.5250  0.1208
 4073ntf    on522210   7.334   7.296   4.892 -0.3663  0.4053 -0.1347
 4073ntf    on522211   7.554   7.458   4.673 -0.3223  0.4908  0.6398
 4073ntf    on522212   7.407   7.513   4.482 -0.8795  1.3529  0.7302
 4073ntf    fn422213   7.478   7.185   4.661 -0.4354 -0.5902  0.3077
 4073ntf    fn422214   7.310   7.204   4.550  0.4717  0.3042 -0.1327
 4073ntf    fn422215   7.497   7.237   4.462  0.2189  0.0658  0.3525
 4074ntf    cn122216   6.698   5.252   6.909  0.0009  0.0058  0.1430
 4074ntf    sn222217   6.817   5.308   6.783 -0.2098  0.4934  0.1575
 4074ntf    nn322218   6.720   5.286   6.661 -0.3819  0.3654  0.3156
 4074ntf    sn222219   6.671   5.401   6.566 -0.1468  0.1324 -0.0894
 4074ntf    cn122220   6.648   5.299   6.417  0.5326 -0.0123 -0.1009
 4074ntf    fn422221   6.668   5.124   6.893  0.0539  0.0281 -0.1366
 4074ntf    fn422222   6.734   5.268   7.035  0.1928  0.0312  0.0851
 4074ntf    fn422223   6.579   5.308   6.889 -0.2996 -0.3708  0.8433
 4074ntf    on522224   6.832   5.444   6.827 -0.1931  0.5681 -0.0771
 4074ntf    on522225   6.921   5.208   6.784 -0.2778  0.4181 -0.1291
 4074ntf    on522226   6.769   5.498   6.523 -0.1282  0.1728  0.0435
 4074ntf    on522227   6.542   5.446   6.611 -0.2440 -0.0460 -0.1916
 4074ntf    fn422228   6.606   5.177   6.443 -0.3235  0.3878  0.4280
 4074ntf    fn422229   6.558   5.354   6.337  0.4884  0.5485  0.3267
 4074ntf    fn422230   6.764   5.285   6.355  0.8947 -0.1094  0.5859
 4075ntf    cn122231   7.060   5.274   2.917 -0.1991  0.4678  0.0145
 4075ntf    sn222232   6.921   5.307   3.030 -0.1284  0.2563  0.1651
 4075ntf    nn322233   6.819   5.387   2.942 -0.2585 -0.1466 -0.0520
 4075ntf    sn222234   6.714   5.498   2.978  0.1251  0.1740  0.0774
 4075ntf    cn122235   6.805   5.648   2.930  0.2497  0.0268 -0.1482
 4075ntf    fn422236   7.137   5.173   2.956 -0.7790 -0.2177 -0.5913
 4075ntf    fn422237   7.015   5.241   2.797 -0.0021  0.3557 -0.0299
 4075ntf    fn422238   7.134   5.383   2.913  0.1794  0.2385  0.5064
 4075ntf    on522239   6.887   5.171   3.064 -0.2533  0.1708 -0.2915
 4075ntf    on522240   6.983   5.387   3.133 -0.4580  0.4791  0.1935
 4075ntf    on522241   6.693   5.530   3.117 -0.2185  1.2079 -0.2028
 4075ntf    on522242   6.597   5.499   2.893  0.0644 -0.2751  0.1543
 4075ntf    fn422243   6.830   5.638   2.800 -0.5340  0.1113 -0.3079
 4075ntf    fn422244   6.741   5.763   2.944 -0.1852 -0.2273 -0.0444
 4075ntf    fn422245   6.921   5.660   2.993  0.1566 -0.2124  0.0715
 4076ntf    cn122246   0.075   5.447   4.199 -0.0365  0.2709  0.0063
 4076ntf    sn222247   0.115   5.471   4.375  0.0828  0.3669 -0.0338
 4076ntf    nn322248   0.059   5.615   4.402 -0.2388  0.2643 -0.1433
 4076ntf    sn222249   0.127   5.723   4.494  0.0149 -0.0577  0.0499
 4076ntf    cn122250   0.204   5.823   4.363 -0.0621 -0.1328 -0.0533
 4076ntf    fn422251  -0.047   5.399   4.183  0.0795 -0.1013  0.2232
 4076ntf    fn422252   0.079   5.558   4.127  0.1414 -0.1256 -0.6000
 4076ntf    fn422253   0.158   5.363   4.140 -0.2864  0.0082  0.0273
 4076ntf    on522254   0.030   5.368   4.428  0.0371  0.5326  0.2162
 4076ntf    on522255   0.258   5.451   4.374  0.0005 -0.2400  0.0680
 4076ntf    on522256   0.237   5.688   4.580  0.5962  0.5944 -0.4136
 4076ntf    on522257   0.037   5.815   4.559 -0.5974 -0.5701 -0.0627
 4076ntf    fn422258   0.253   5.934   4.416  0.0696 -0.2366  0.0428
 4076ntf    fn422259   0.303   5.753   4.312  0.0149 -0.1301  0.0912
 4076ntf    fn422260   0.129   5.854   4.259 -0.9230 -0.3929  0.4762
 4077ntf    cn122261   3.016   4.493   6.247 -0.2064 -0.2519  0.2526
 4077ntf    sn222262   3.158   4.381   6.225  0.3233  0.4261  0.1853
 4077ntf    nn322263   3.149   4.292   6.354 -0.2063 -0.1340 -0.2325
 4077ntf    sn222264   3.177   4.140   6.385 -0.2645 -0.1277 -0.1495
 4077ntf    cn122265   3.257   4.159   6.547 -0.1404 -0.0276 -0.2223
 4077ntf    fn422266   3.019   4.603   6.175  0.3294 -0.1849  0.3734
 4077ntf    fn422267   2.901   4.442   6.207 -0.4046  0.1710  0.2879
 4077ntf    fn422268   2.994   4.547   6.366 -0.0825  0.0294  0.1489
 4077ntf    on522269   3.118   4.313   6.104  0.2671 -0.0139  0.4461
 4077ntf    on522270   3.273   4.468   6.229  0.5663  0.1546 -0.6050
 4077ntf    on522271   3.282   4.077   6.308 -0.7202 -0.5719 -0.4106
 4077ntf    on522272   3.057   4.069   6.421 -0.3826  0.1239 -0.0456
 4077ntf    fn422273   3.174   4.208   6.637  0.5919  0.0785  0.4086
 4077ntf    fn422274   3.307   4.049   6.601 -0.1667  0.1680  0.2048
 4077ntf    fn422275   3.359   4.243   6.543  0.2659 -0.5166 -0.2283
 4078ntf    cn122276   4.990   0.395   5.753 -0.3433  0.1923 -0.2945
 4078ntf    sn222277   4.983   0.548   5.654  0.1430  0.2633 -0.2219
 4078ntf    nn322278   4.968   0.482   5.513 -0.2604 -0.3757  0.1144
 4078ntf    sn222279   4.843   0.491   5.419 -0.1069 -0.2204 -0.0756
 4078ntf    cn122280   4.867   0.330   5.339  0.0783 -0.1760 -0.1086
 4078ntf    fn422281   4.999   0.419   5.883 -0.0994 -0.1802 -0.2404
 4078ntf    fn422282   4.890   0.313   5.726 -0.2535  0.1701 -0.5649
 4078ntf    fn422283   5.094   0.318   5.725 -0.4615  0.0048 -0.2198
 4078ntf    on522284   4.879   0.627   5.715 -0.3952 -0.1783 -0.5638
 4078ntf    on522285   5.116   0.600   5.674 -0.0235  0.3821  0.6160
 4078ntf    on522286   4.869   0.576   5.305 -0.7924  0.1199  0.0198
 4078ntf    on522287   4.713   0.482   5.480  0.0157  0.1729  0.2441
 4078ntf    fn422288   4.773   0.288   5.255 -0.0051 -0.1560 -0.0254
 4078ntf    fn422289   4.981   0.325   5.271  0.2886 -0.1829  0.2412
 4078ntf    fn422290   4.871   0.226   5.421 -0.3803 -0.1834 -0.0965
 4079ntf    cn122291   5.013   3.231   5.311 -0.0210  0.0339  0.3316
 4079ntf    sn222292   4.952   3.352   5.190  0.0019  0.0223  0.3096
 4079ntf    nn322293   5.000   3.490   5.245 -0.5447  0.3174  0.0584
 4079ntf    sn222294   4.949   3.575   5.368 -0.4448  0.3810  0.0568
 4079ntf    cn122295   5.112   3.631   5.425 -0.4805 -0.0643  0.6042
 4079ntf    fn422296   4.991   3.264   5.437  0.0044 -0.6333  0.5183
 4079ntf    fn422297   4.964   3.109   5.292 -0.2185  0.1496  0.0884
 4079ntf    fn422298   5.143   3.208   5.307 -0.0339  0.0119  0.0232
 4079ntf    on522299   5.020   3.322   5.067 -0.3084  0.7445 -0.0436
 4079ntf    on522300   4.810   3.326   5.188 -0.0511  0.3252 -0.0250
 4079ntf    on522301   4.902   3.496   5.479  0.3775 -0.1411  0.0438
 4079ntf    on522302   4.874   3.691   5.325  0.3051  0.8104 -0.1074
 4079ntf    fn422303   5.169   3.524   5.477 -0.6734 -0.3481  0.2402
 4079ntf    fn422304   5.196   3.676   5.333 -0.5215  0.5691  0.8720
 4079ntf    fn422305   5.108   3.722   5.522 -0.2751 -0.1234  0.6677
 4080ntf    cn122306   2.429   0.549   4.101 -0.2092 -0.2148 -0.0498
 4080ntf    sn222307   2.343   0.451   4.228 -0.0545 -0.3306 -0.0347
 4080ntf    nn322308   2.414   0.313   4.205  0.3150 -0.2110  0.3662
 4080ntf    sn222309   2.350   0.172   4.179  0.0562 -0.0463  0.1158
 4080ntf    cn122310   2.279   0.150   4.345 -0.3183  0.1627 -0.0144
 4080ntf    fn422311   2.449   0.476   3.993  0.1533 -0.2738  0.0557
 4080ntf    fn422312   2.367   0.661   4.067  0.1189  0.1382  0.4961
 4080ntf    fn422313   2.552   0.585   4.132 -0.0601  0.1119 -0.9874
 4080ntf    on522314   2.382   0.514   4.352 -0.1725  0.0422 -0.1854
 4080ntf    on522315   2.206   0.468   4.188 -0.0870  0.1769  0.2748
 4080ntf    on522316   2.449   0.069   4.166  0.1819  0.0307  0.4626
 4080ntf    on522317   2.239   0.168   4.086  0.3056 -0.6669 -0.1554
 4080ntf    fn422318   2.225   0.030   4.356 -0.4973  0.2377 -0.0709
 4080ntf    fn422319   2.380   0.159   4.430 -0.4216 -0.3449  0.1631
 4080ntf    fn422320   2.183   0.236   4.375 -0.4741 -0.0109 -0.0180
 4081ntf    cn122321   6.967   3.705   1.656  0.1143  0.2186  0.4175
 4081ntf    sn222322   6.914   3.669   1.486  0.1273  0.1493  0.4284
 4081ntf    nn322323   7.041   3.713   1.406  0.0123 -0.1790  0.0614
 4081ntf    sn222324   7.089   3.860   1.378 -0.0978 -0.1925 -0.2012
 4081ntf    cn122325   7.107   3.862   1.198  0.0220 -0.3848 -0.1922
 4081ntf    fn422326   7.095   3.673   1.670 -0.0728 -0.5106  0.4723
 4081ntf    fn422327   6.960   3.836   1.677  0.6200  0.2298  0.5346
 4081ntf    fn422328   6.914   3.649   1.763 -0.0384  0.0027  0.2303
 4081ntf    on522329   6.894   3.526   1.482  0.1443  0.1464  0.4544
 4081ntf    on522330   6.788   3.735   1.464  0.0422 -0.0022  0.4562
 4081ntf    on522331   7.219   3.893   1.431 -0.3539  0.0026  0.3166
 4081ntf    on522332   6.985   3.957   1.404  0.3805  0.1859  0.3153
 4081ntf    fn422333   7.202   3.780   1.158  0.4167  0.0354 -0.1234
 4081ntf    fn422334   6.998   3.835   1.127  0.2804 -0.4183 -0.5834
 4081ntf    fn422335   7.157   3.979   1.160 -0.4099 -0.2070 -0.2244
 4082ntf    cn122336   3.969   5.434   0.267 -0.3225  0.0462 -0.4019
 4082ntf    sn222337   3.836   5.482   0.153 -0.0984  0.4123 -0.5094
 4082ntf    nn322338   3.738   5.360   0.162  0.4219  0.0539  0.4047
 4082ntf    sn222339   3.604   5.350   0.244  0.0251  0.2319 -0.2131
 4082ntf    cn122340   3.568   5.176   0.208 -0.0176  0.1408  0.2537
 4082ntf    fn422341   4.043   5.335   0.220 -0.2392 -0.0229 -0.1280
 4082ntf    fn422342   4.052   5.530   0.303  0.0920 -0.6556  0.5615
 4082ntf    fn422343   3.918   5.379   0.376 -0.1735 -0.1115 -0.4108
 4082ntf    on522344   3.791   5.611   0.198  0.0992  0.1335  0.4926
 4082ntf    on522345   3.905   5.471   0.026 -0.0565  0.0053 -0.4546
 4082ntf    on522346   3.494   5.416   0.178 -0.1271  0.0520 -0.1392
 4082ntf    on522347   3.612   5.344   0.388 -0.1972  0.6254 -0.1820
 4082ntf    fn422348   3.442   5.153   0.243 -0.2845  0.1168 -0.6669
 4082ntf    fn422349   3.565   5.150   0.078  0.6764  0.0182  0.2592
 4082ntf    fn422350   3.630   5.077   0.270  0.0149  0.1018  0.1589
 4083ntf    cn122351   5.268   5.725   0.106  0.4079 -0.0648 -0.1769
 4083ntf    sn222352   5.102   5.651   0.115  0.2416  0.3099 -0.1779
 4083ntf    nn322353   5.113   5.586  -0.028 -0.1343  0.1431 -0.1304
 4083ntf    sn222354   5.146   5.442  -0.082 -0.1431  0.0267  0.1708
 4083ntf    cn122355   5.297   5.479  -0.176 -0.2773 -0.2578 -0.1573
 4083ntf    fn422356   5.294   5.788  -0.007 -0.2705 -0.0931 -0.3527
 4083ntf    fn422357   5.285   5.810   0.206 -0.2397 -0.2526  0.0965
 4083ntf    fn422358   5.361   5.631   0.118  0.2252 -0.1663  0.5288
 4083ntf    on522359   5.092   5.577   0.238  0.2510  0.0577 -0.3276
 4083ntf    on522360   5.009   5.761   0.108 -0.1247 -0.0236 -0.6728
 4083ntf    on522361   5.049   5.399  -0.179  0.2373  0.0249 -0.2105
 4083ntf    on522362   5.189   5.345   0.015  0.0782  0.3418  0.3903
 4083ntf    fn422363   5.360   5.368  -0.210 -0.0228 -0.1877  0.0801
 4083ntf    fn422364   5.278   5.548  -0.287 -0.2615 -0.3002 -0.1869
 4083ntf    fn422365   5.378   5.552  -0.102 -0.2342 -0.2594 -0.2027
 4084ntf    cn122366   4.468   1.304   3.328 -0.3931  0.2748 -0.1377
 4084ntf    sn222367   4.469   1.302   3.146 -0.0294 -0.4436 -0.1307
 4084ntf    nn322368   4.423   1.155   3.117  0.0510 -0.4206 -0.3734
 4084ntf    sn222369   4.505   1.029   3.072  0.4484 -0.0883 -0.5836
 4084ntf    cn122370   4.442   1.022   2.902  0.1267  0.2719 -0.4796
 4084ntf    fn422371   4.493   1.185   3.381 -0.1016  0.2311 -0.3700
 4084ntf    fn422372   4.564   1.387   3.366  0.0438  0.0185 -0.6730
 4084ntf    fn422373   4.360   1.352   3.388 -0.8331 -0.2195 -0.5153
 4084ntf    on522374   4.362   1.389   3.103 -0.4466 -0.2891  1.1689
 4084ntf    on522375   4.603   1.337   3.107 -0.2369 -0.0815 -0.5164
 4084ntf    on522376   4.450   0.913   3.138  0.4951  0.3971  0.3099
 4084ntf    on522377   4.650   1.030   3.072  0.4519 -0.2926 -0.0373
 4084ntf    fn422378   4.319   0.978   2.879  0.0095  0.1747  0.3054
 4084ntf    fn422379   4.458   1.141   2.846 -0.1647  0.1230 -0.8862
 4084ntf    fn422380   4.520   0.937   2.837 -0.0310 -0.2669  0.0304
 4085ntf    cn122381   7.234   1.964   7.034  0.1718  0.4879 -0.4805
 4085ntf    sn222382   7.290   2.092   6.917  0.1300  0.7002 -0.2680
 4085ntf    nn322383   7.256   2.020   6.782 -0.1997 -0.0190  0.1910
 4085ntf    sn222384   7.112   1.997   6.722 -0.1205 -0.2601  0.0951
 4085ntf    cn122385   7.155   2.007   6.546 -0.4373 -0.0825  0.0269
 4085ntf    fn422386   7.295   1.847   7.020 -0.1840  0.1963  0.3398
 4085ntf    fn422387   7.271   2.004   7.154 -0.7602 -0.2030  0.0457
 4085ntf    fn422388   7.103   1.943   7.032  0.2210  0.1002  0.2409
 4085ntf    on522389   7.220   2.213   6.951 -0.2168  0.3016  0.4505
 4085ntf    on522390   7.432   2.087   6.942  0.1587 -0.1686 -0.5676
 4085ntf    on522391   7.026   2.111   6.740  0.2194 -0.0259  0.2488
 4085ntf    on522392   7.068   1.860   6.732 -0.1435 -0.2671 -0.0996
 4085ntf    fn422393   7.230   1.908   6.500 -0.0188  0.0062  0.4985
 4085ntf    fn422394   7.044   1.997   6.474 -0.2230 -0.6258 -0.2367
 4085ntf    fn422395   7.214   2.118   6.505 -0.3727  0.0503  0.4797
 4086ntf    cn122396   3.790   6.135   4.255 -0.2778 -0.3304  0.0428
 4086ntf    sn222397   3.827   6.052   4.097 -0.3899 -0.0400 -0.1371
 4086ntf    nn322398   3.865   5.911   4.154 -0.1473  0.3993  0.8013
 4086ntf    sn222399   4.001   5.836   4.178 -0.2304 -0.0347 -0.0764
 4086ntf    cn122400   3.973   5.680   4.088  0.6195 -0.3053  0.1225
 4086ntf    fn422401   3.813   6.265   4.250 -0.1785 -0.3521 -0.0493
 4086ntf    fn422402   3.661   6.131   4.285 -0.2881 -0.0016  0.0444
 4086ntf    fn422403   3.857   6.091   4.360 -0.2590 -0.1072  0.1252
 4086ntf    on522404   3.696   6.045   4.038 -0.2736  0.3508 -0.4525
 4086ntf    on522405   3.928   6.137   4.039  0.0077 -0.6259 -0.3040
 4086ntf    on522406   4.031   5.795   4.313  0.0160  0.3279 -0.0210
 4086ntf    on522407   4.111   5.888   4.101 -0.6726  0.4708 -0.3745
 4086ntf    fn422408   3.871   5.622   4.148  0.0324  0.0716 -0.4932
 4086ntf    fn422409   3.924   5.706   3.968  0.0135 -0.1082  0.4129
 4086ntf    fn422410   4.075   5.596   4.079  0.7034 -0.1995  0.0730
 4087ntf    cn122411   5.243   3.317   2.691 -0.0267  0.0310 -0.3510
 4087ntf    sn222412   5.382   3.217   2.751  0.0535  0.3844  0.0585
 4087ntf    nn322413   5.300   3.086   2.776 -0.5701  0.7899  0.1497
 4087ntf    sn222414   5.249   3.031   2.914  0.0754  0.2082  0.1604
 4087ntf    cn122415   5.078   2.990   2.865  0.2107  0.1718 -0.2934
 4087ntf    fn422416   5.162   3.345   2.793  0.2828 -0.0526 -0.0809
 4087ntf    fn422417   5.282   3.432   2.639 -0.0230  0.2135  0.0482
 4087ntf    fn422418   5.170   3.244   2.608 -0.8152  0.4713 -0.0657
 4087ntf    on522419   5.446   3.216   2.622  0.1037  0.2301  0.0850
 4087ntf    on522420   5.441   3.289   2.862  0.2153 -0.4880  0.5461
 4087ntf    on522421   5.245   3.130   3.018 -0.5653  0.1292  0.2169
 4087ntf    on522422   5.308   2.904   2.950 -0.1531  0.0223 -0.1025
 4087ntf    fn422423   5.074   2.898   2.771 -0.4956 -0.1167  0.0117
 4087ntf    fn422424   5.005   2.949   2.967  0.5482 -0.0702 -0.1464
 4087ntf    fn422425   5.010   3.089   2.809 -0.3447 -0.0979 -0.0997
 4088ntf    cn122426   0.717   0.537   1.858  0.0333 -0.3085  0.5263
 4088ntf    sn222427   0.889   0.557   1.801 -0.2109  0.2615 -0.0205
 4088ntf    nn322428   0.957   0.428   1.857  0.2306  0.2564 -0.5634
 4088ntf    sn222429   0.959   0.281   1.801 -0.0833 -0.0347  0.1725
 4088ntf    cn122430   1.123   0.291   1.723 -0.2923  0.2060 -0.2398
 4088ntf    fn422431   0.640   0.639   1.823  0.9083  0.1725 -0.0323
 4088ntf    fn422432   0.660   0.426   1.815 -0.5284  0.0870  0.2326
 4088ntf    fn422433   0.708   0.534   1.990  0.2373 -0.4110  0.5379
 4088ntf    on522434   0.882   0.565   1.657 -0.0824 -0.3523 -0.0595
 4088ntf    on522435   0.947   0.674   1.863  0.2932  0.4273 -0.7973
 4088ntf    on522436   0.877   0.259   1.684  0.2954  0.4763 -0.1944
 4088ntf    on522437   0.974   0.177   1.900 -0.1860  0.0024  0.2275
 4088ntf    fn422438   1.128   0.342   1.601 -0.2239  0.2615 -0.2138
 4088ntf    fn422439   1.203   0.364   1.798 -0.0178 -0.1472 -0.1862
 4088ntf    fn422440   1.187   0.175   1.716 -0.3711  0.1172  0.4284
 4089ntf    cn122441   2.636   4.918   3.419 -0.1680 -0.0797  0.3477
 4089ntf    sn222442   2.725   4.836   3.555  0.0169 -0.1290  0.1971
 4089ntf    nn322443   2.771   4.968   3.626 -0.0248 -0.3110  0.5694
 4089ntf    sn222444   2.895   5.060   3.594 -0.1244 -0.4009 -0.0907
 4089ntf    cn122445   3.030   4.970   3.677 -0.0215  0.1679  0.3605
 4089ntf    fn422446   2.603   4.828   3.328  0.4573  0.2071 -0.1668
 4089ntf    fn422447   2.529   4.987   3.455 -0.3409  0.2020 -0.6886
 4089ntf    fn422448   2.711   5.011   3.363 -0.7987  0.3551  0.2140
 4089ntf    on522449   2.630   4.760   3.631 -0.1364 -0.1089  0.0253
 4089ntf    on522450   2.824   4.753   3.491 -0.1035 -0.0756 -0.0596
 4089ntf    on522451   2.895   5.184   3.667  0.2467 -0.4564  0.0071
 4089ntf    on522452   2.941   5.067   3.457  0.0161 -0.2966 -0.0381
 4089ntf    fn422453   3.080   4.875   3.599  0.1706 -0.2533  0.9930
 4089ntf    fn422454   3.127   5.048   3.723 -0.2024  0.4852  0.2073
 4089ntf    fn422455   2.989   4.900   3.781 -0.0298 -0.0863  0.1849
 4090ntf    cn122456   2.381   5.693   7.245 -0.2609  0.2477  0.1191
 4090ntf    sn222457   2.421   5.856   7.316 -0.3450  0.2094  0.2557
 4090ntf    nn322458   2.283   5.883   7.385 -0.2452 -0.1956  0.6204
 4090ntf    sn222459   2.214   6.020   7.419  0.0401  0.0721  0.1352
 4090ntf    cn122460   2.051   6.014   7.338  0.2881  0.0419 -0.3640
 4090ntf    fn422461   2.492   5.647   7.189 -0.6363  0.3812 -0.7641
 4090ntf    fn422462   2.348   5.607   7.339 -0.0862  0.0278 -0.0197
 4090ntf    fn422463   2.281   5.695   7.158  0.0302 -0.0667 -0.2240
 4090ntf    on522464   2.517   5.823   7.418  0.0683 -0.5010 -0.3478
 4090ntf    on522465   2.463   5.944   7.210 -0.3073  0.0795  0.1620
 4090ntf    on522466   2.260   6.128   7.336 -0.2155 -0.3029 -0.5074
 4090ntf    on522467   2.185   6.045   7.558  0.1441  0.2224  0.1300
 4090ntf    fn422468   2.025   6.137   7.296  0.2123  0.1865  0.0949
 4090ntf    fn422469   2.037   5.936   7.232 -0.1092  0.0744 -0.3381
 4090ntf    fn422470   1.962   5.977   7.428  0.6280 -0.1424 -0.0993
 4091ntf    cn122471   0.049   0.895   5.873  0.6551 -0.3472 -0.3058
 4091ntf    sn222472   0.121   1.043   5.951 -0.1059  0.0580 -0.3647
 4091ntf    nn322473  -0.001   1.081   6.043  0.1414  0.8053 -0.3392
 4091ntf    sn222474  -0.143   1.137   6.006 -0.2111 -0.0177 -0.2527
 4091ntf    cn122475  -0.125   1.317   5.998 -0.0602 -0.0066  0.2907
 4091ntf    fn422476   0.134   0.838   5.789  0.5274 -0.5799 -0.2761
 4091ntf    fn422477   0.012   0.799   5.955  0.0522  0.4399  0.3630
 4091ntf    fn422478  -0.054   0.928   5.796  0.6975 -0.1275 -0.2705
 4091ntf    on522479   0.231   0.996   6.031  0.2229  0.3379 -0.6555
 4091ntf    on522480   0.142   1.138   5.845 -0.0755  0.2958 -0.1483
 4091ntf    on522481  -0.237   1.115   6.113  0.4014 -0.2062  0.2552
 4091ntf    on522482  -0.192   1.105   5.874  0.2577 -0.0777 -0.4148
 4091ntf    fn422483  -0.235   1.375   5.951 -0.1408 -0.3601  0.0441
 4091ntf    fn422484  -0.089   1.368   6.115  0.0215  0.8450 -0.0932
 4091ntf    fn422485  -0.037   1.359   5.908 -0.2142  0.4653  0.3527
 4092ntf    cn122486   4.432   1.537   0.081 -0.1602 -0.2014 -0.2443
 4092ntf    sn222487   4.592   1.457   0.047 -0.0528 -0.1485  0.1361
 4092ntf    nn322488   4.657   1.499   0.184 -0.2913  0.5393  0.0446
 4092ntf    sn222489   4.795   1.460   0.246 -0.4028  0.1778  0.0718
 4092ntf    cn122490   4.747   1.340   0.374  0.2250 -0.0445  0.1056
 4092ntf    fn422491   4.440   1.668   0.064 -0.0212 -0.1644  0.0992
 4092ntf    fn422492   4.346   1.500  -0.012  0.3684  0.0625 -0.8468
 4092ntf    fn422493   4.388   1.513   0.203  0.0366 -0.0417 -0.1424
 4092ntf    on522494   4.557   1.318   0.040  0.2784 -0.2352  0.1886
 4092ntf    on522495   4.642   1.527  -0.069  0.4010 -0.3075  0.2337
 4092ntf    on522496   4.856   1.564   0.326  0.1765  0.1812 -0.3631
 4092ntf    on522497   4.884   1.377   0.169 -0.1548  1.0985 -0.6511
 4092ntf    fn422498   4.665   1.248   0.324  0.7178 -0.4651  0.0672
 4092ntf    fn422499   4.851   1.279   0.427  0.0291 -0.2742  0.2273
 4092ntf    fn422500   4.685   1.394   0.478  0.6072 -0.2277  0.4312
 4093ntf    cn122501   6.586   2.879   7.296 -0.2291  0.1070 -0.2217
 4093ntf    sn222502   6.677   3.035   7.274  0.0982 -0.0535 -0.0095
 4093ntf    nn322503   6.820   2.993   7.323  0.3797  0.5981 -0.2631
 4093ntf    sn222504   6.903   3.044   7.447  0.2187  0.4445 -0.0916
 4093ntf    cn122505   7.002   2.894   7.472 -0.1577  0.1806 -0.1696
 4093ntf    fn422506   6.643   2.781   7.230  0.0277 -0.4366  0.7847
 4093ntf    fn422507   6.586   2.839   7.423  0.3016  0.5108 -0.0897
 4093ntf    fn422508   6.460   2.886   7.256 -0.2022 -0.3761 -0.3957
 4093ntf    on522509   6.673   3.041   7.130 -0.0394 -0.0397 -0.0053
 4093ntf    on522510   6.606   3.135   7.350 -0.2304  0.0215 -0.4095
 4093ntf    on522511   6.822   3.065   7.565  0.0351  0.1187 -0.1572
 4093ntf    on522512   6.994   3.151   7.414  1.0007 -0.4222 -0.7835
 4093ntf    fn422513   6.950   2.795   7.401 -0.2787 -0.0668  0.2612
 4093ntf    fn422514   7.131   2.910   7.445 -0.1355  0.1229 -0.0975
 4093ntf    fn422515   6.997   2.858   7.599 -0.7982  0.1707 -0.1956
 4094ntf    cn122516   2.893   3.263   3.952  0.0504 -0.2020 -0.3987
 4094ntf    sn222517   2.829   3.286   3.783 -0.2034  0.2735 -0.2406
 4094ntf    nn322518   2.772   3.143   3.751 -0.1238  0.3700 -0.8254
 4094ntf    sn222519   2.626   3.090   3.725 -0.0404 -0.1476 -0.2813
 4094ntf    cn122520   2.631   3.033   3.552  0.3544 -0.2135 -0.2503
 4094ntf    fn422521   3.001   3.331   3.986 -0.3330  0.5944 -0.7261
 4094ntf    fn422522   2.797   3.298   4.036  0.7524  0.0086  0.3272
 4094ntf    fn422523   2.921   3.137   3.979 -0.5311 -0.1966  0.2559
 4094ntf    on522524   2.732   3.391   3.800  0.1875  0.5810  0.0944
 4094ntf    on522525   2.946   3.311   3.703  0.1420 -0.4539  0.0195
 4094ntf    on522526   2.522   3.190   3.721  0.0321 -0.0713 -0.2614
 4094ntf    on522527   2.594   2.971   3.798 -0.2991  0.2526  0.2631
 4094ntf    fn422528   2.646   3.139   3.474 -0.1489  0.1924  0.1899
 4094ntf    fn422529   2.736   2.958   3.525  0.3787 -0.1566 -0.3140
 4094ntf    fn422530   2.523   2.975   3.502 -0.0842  0.4885 -0.1269
 4095ntf    cn122531   2.729   4.673   1.844 -0.1589 -0.1227  0.3514
 4095ntf    sn222532   2.807   4.514   1.800 -0.0845  0.0320 -0.0807
 4095ntf    nn322533   2.721   4.487   1.672  0.0183  0.0673 -0.1571
 4095ntf    sn222534   2.759   4.527   1.525 -0.3112  0.1275 -0.2274
 4095ntf    cn122535   2.662   4.407   1.429  0.0226 -0.1027 -0.2791
 4095ntf    fn422536   2.797   4.742   1.933  1.0834 -0.2557 -0.4738
 4095ntf    fn422537   2.714   4.739   1.730 -0.5268 -0.6105  0.1094
 4095ntf    fn422538   2.610   4.652   1.899 -0.1945  0.6483  0.5775
 4095ntf    on522539   2.945   4.550   1.783 -0.1749 -0.0086 -0.9688
 4095ntf    on522540   2.764   4.423   1.903  0.4347  0.2018  0.2903
 4095ntf    on522541   2.897   4.506   1.488 -0.1423 -0.0287  0.4730
 4095ntf    on522542   2.707   4.652   1.475  0.1780  0.5169  0.2259
 4095ntf    fn422543   2.668   4.285   1.481 -0.1974  0.0857  0.1928
 4095ntf    fn422544   2.531   4.426   1.422 -0.0025 -0.0442  0.2860
 4095ntf    fn422545   2.705   4.414   1.304  0.9901  0.4360  0.0800
 4096ntf    cn122546   4.178   2.021   4.667 -0.0254 -0.1560  0.0385
 4096ntf    sn222547   4.184   1.859   4.750 -0.0990 -0.0956  0.1627
 4096ntf    nn322548   4.053   1.780   4.713 -0.0791  0.0245 -0.1684
 4096ntf    sn222549   3.902   1.823   4.714 -0.0772  0.0313 -0.0592
 4096ntf    cn122550   3.866   1.797   4.537 -0.3417  0.0244 -0.0039
 4096ntf    fn422551   4.095   2.103   4.730  0.2396  0.1975 -0.0713
 4096ntf    fn422552   4.297   2.079   4.665 -0.1704  0.1414  0.0695
 4096ntf    fn422553   4.134   2.013   4.543 -0.4206 -0.2549  0.1829
 4096ntf    on522554   4.300   1.790   4.698  0.0876 -0.3522  0.9140
 4096ntf    on522555   4.186   1.890   4.890  1.2121  0.5678  0.0117
 4096ntf    on522556   3.869   1.962   4.733  0.5663  0.1762  0.0187
 4096ntf    on522557   3.813   1.725   4.769  0.0613 -0.3663 -0.5323
 4096ntf    fn422558   3.740   1.831   4.516 -0.2277  0.2738 -0.2811
 4096ntf    fn422559   3.927   1.880   4.455 -0.3205 -0.4703 -0.4901
 4096ntf    fn422560   3.889   1.674   4.493 -0.1869  0.1012 -0.1383
 4097ntf    cn122561   3.826   6.255   0.446 -0.1057  0.0614 -0.1777
 4097ntf    sn222562   3.950   6.349   0.352  0.3265 -0.5468 -0.2265
 4097ntf    nn322563   3.882   6.491   0.346  0.2992 -0.5821 -0.7664
 4097ntf    sn222564   3.789   6.564   0.243 -0.0776 -0.1259 -0.1139
 4097ntf    cn122565   3.693   6.674   0.350 -0.2458 -0.0969 -0.2945
 4097ntf    fn422566   3.874   6.135   0.473 -0.3887 -0.0416 -0.1227
 4097ntf    fn422567   3.788   6.317   0.557  0.5545 -0.1598  0.1757
 4097ntf    fn422568   3.720   6.237   0.369 -0.0598 -0.0551 -0.2137
 4097ntf    on522569   4.074   6.352   0.426  0.0505  0.1909  0.2280
 4097ntf    on522570   3.952   6.288   0.222  0.8978 -0.0003 -0.4767
 4097ntf    on522571   3.694   6.477   0.178  0.1361 -0.4374 -0.0139
 4097ntf    on522572   3.868   6.648   0.157  0.2393 -0.4853 -0.1773
 4097ntf    fn422573   3.631   6.609   0.448 -0.3025  0.6149  0.1504
 4097ntf    fn422574   3.764   6.764   0.416 -0.8547 -0.1428  0.4415
 4097ntf    fn422575   3.603   6.732   0.272 -0.0497 -0.2391 -0.6297
 4098ntf    cn122576   0.471   6.496   7.245 -0.2282 -0.1328  0.2872
 4098ntf    sn222577   0.402   6.565   7.397 -0.2943  0.0547  0.1716
 4098ntf    nn322578   0.247   6.542   7.382 -0.2298 -0.2664  0.0081
 4098ntf    sn222579   0.131   6.633   7.331  0.0457 -0.0098 -0.1622
 4098ntf    cn122580  -0.011   6.579   7.431  0.0694  0.2474  0.0133
 4098ntf    fn422581   0.602   6.475   7.248 -0.1683  0.0847 -0.5761
 4098ntf    fn422582   0.408   6.383   7.217 -0.1845  0.0590 -0.6440
 4098ntf    fn422583   0.441   6.575   7.143  0.0387 -0.5915 -0.1590
 4098ntf    on522584   0.460   6.486   7.502  0.2394  0.5405  0.2465
 4098ntf    on522585   0.443   6.703   7.401 -0.1084  0.0049 -0.0396
 4098ntf    on522586   0.088   6.610   7.195 -0.7119  0.1477  0.0423
 4098ntf    on522587   0.140   6.771   7.372 -1.1966  0.0458 -0.0192
 4098ntf    fn422588   0.010   6.596   7.560  0.1215  0.1409  0.0195
 4098ntf    fn422589  -0.127   6.634   7.400 -0.2826 -0.4363  0.1039
 4098ntf    fn422590  -0.040   6.450   7.434  0.0050  0.2430 -0.7243
 4099ntf    cn122591   4.435   3.696   1.342  0.3005 -0.1933 -0.2349
 4099ntf    sn222592   4.452   3.857   1.425  0.2647 -0.3142  0.0060
 4099ntf    nn322593   4.304   3.879   1.472  0.3426  0.0080  0.1003
 4099ntf    sn222594   4.242   3.822   1.604  0.6846  0.4416  0.4511
 4099ntf    cn122595   4.073   3.782   1.551  0.9998 -0.6153  0.2234
 4099ntf    fn422596   4.458   3.605   1.435  0.6232 -0.1792 -0.2974
 4099ntf    fn422597   4.310   3.679   1.302  0.2241 -0.1480 -0.0148
 4099ntf    fn422598   4.514   3.691   1.235  0.2244 -0.2021 -0.2908
 4099ntf    on522599   4.555   3.834   1.524  0.3610 -0.1675 -0.0592
 4099ntf    on522600   4.486   3.945   1.316 -0.4407 -0.1416 -0.0771
 4099ntf    on522601   4.238   3.923   1.707 -0.2822  0.1316  0.7300
 4099ntf    on522602   4.290   3.690   1.633 -0.4274 -0.1172 -0.1693
 4099ntf    fn422603   3.998   3.746   1.654  0.6284  0.3965  0.3184
 4099ntf    fn422604   4.014   3.893   1.508  0.7645 -0.9227 -0.2543
 4099ntf    fn422605   4.054   3.685   1.463 -0.5585  0.4991 -0.7151
 4100ntf    cn122606   4.408   5.635   1.873 -0.2787 -0.1858  0.4334
 4100ntf    sn222607   4.260   5.531   1.854 -0.1742 -0.2577 -0.0046
 4100ntf    nn322608   4.294   5.446   1.727  1.0183  0.3402 -0.0995
 4100ntf    sn222609   4.373   5.312   1.703  0.4834  0.0105 -0.0283
 4100ntf    cn122610   4.444   5.352   1.541 -0.0037 -0.2837 -0.3167
 4100ntf    fn422611   4.418   5.710   1.982 -0.2097  0.3797  0.0441
 4100ntf    fn422612   4.516   5.559   1.872 -0.6046 -0.6450  0.0623
 4100ntf    fn422613   4.416   5.722   1.773  0.1890 -0.7930 -0.0674
 4100ntf    on522614   4.256   5.451   1.975  0.2223  0.4958  0.5137
 4100ntf    on522615   4.152   5.624   1.834  0.1330 -0.0688 -0.8050
 4100ntf    on522616   4.281   5.202   1.687  0.2180  0.2303 -0.0214
 4100ntf    on522617   4.489   5.289   1.785  0.2285 -0.0412  0.3242
 4100ntf    fn422618   4.353   5.334   1.446 -0.2601 -0.4605 -0.0394
 4100ntf    fn422619   4.499   5.472   1.529  0.0835 -0.2747  0.1468
 4100ntf    fn422620   4.544   5.269   1.517  0.3965 -0.0161  0.3946
 4101ntf    cn122621   3.991   2.825   6.207  0.0469  0.3983 -0.1792
 4101ntf    sn222622   4.059   2.707   6.328 -0.6710  0.0063 -0.1547
 4101ntf    nn322623   4.209   2.697   6.284 -0.3590 -0.1172  0.9196
 4101ntf    sn222624   4.297   2.584   6.220 -0.1578  0.4558  0.1717
 4101ntf    cn122625   4.394   2.543   6.367  0.3370  0.3831 -0.1718
 4101ntf    fn422626   3.868   2.868   6.230  0.0506  0.2262  0.1697
 4101ntf    fn422627   4.061   2.938   6.213  0.5625  0.0952 -0.4506
 4101ntf    fn422628   3.985   2.779   6.084  0.0846 -0.5956  0.1792
 4101ntf    on522629   4.049   2.767   6.459 -0.1364 -0.5986  0.1668
 4101ntf    on522630   3.985   2.584   6.316 -0.5878 -0.0854  0.2735
 4101ntf    on522631   4.393   2.646   6.132 -0.0192  0.5506  0.3907
 4101ntf    on522632   4.240   2.458   6.178  0.3518  0.2767  0.0083
 4101ntf    fn422633   4.318   2.547   6.476  0.3145  0.1996 -0.1800
 4101ntf    fn422634   4.456   2.426   6.372 -0.0293  0.2161  0.6136
 4101ntf    fn422635   4.493   2.628   6.387  0.0483  0.7022 -0.1009
 4102ntf    cn122636   4.598   5.296   5.094 -0.0362 -0.4025  0.4308
 4102ntf    sn222637   4.478   5.432   5.108  0.0986 -0.2701  0.2979
 4102ntf    nn322638   4.574   5.545   5.058 -0.2548 -0.0725  0.0616
 4102ntf    sn222639   4.655   5.657   5.133  0.1340 -0.1481 -0.2385
 4102ntf    cn122640   4.549   5.797   5.084 -0.2294 -0.1484  0.5343
 4102ntf    fn422641   4.551   5.178   5.131 -0.5332 -0.3436 -0.0022
 4102ntf    fn422642   4.650   5.271   4.975  0.4747 -0.6221  0.6949
 4102ntf    fn422643   4.705   5.323   5.167 -0.0086  0.2651  0.1457
 4102ntf    on522644   4.381   5.402   5.006  0.0271 -0.5605  0.4497
 4102ntf    on522645   4.438   5.432   5.247  0.4911  0.0380  0.4112
 4102ntf    on522646   4.779   5.687   5.066 -0.2549  0.0527 -0.8796
 4102ntf    on522647   4.655   5.650   5.277 -0.7020 -0.0937 -0.2275
 4102ntf    fn422648   4.584   5.913   5.138 -0.9191  0.3304 -0.0355
 4102ntf    fn422649   4.549   5.825   4.955  0.5781  0.1562  0.5918
 4102ntf    fn422650   4.425   5.772   5.121 -0.2177 -0.5034  0.3329
 4103ntf    cn122651   2.956   4.091   1.747  0.2168 -0.2623 -0.0241
 4103ntf    sn222652   3.007   3.990   1.890  0.1984 -0.2319  0.0043
 4103ntf    nn322653   2.890   3.886   1.904 -0.2671  0.2734 -0.1037
 4103ntf    sn222654   2.812   3.853   2.036  0.1748  0.2375  0.1494
 4103ntf    cn122655   2.803   3.674   2.008  0.2013  0.3239 -0.4177
 4103ntf    fn422656   3.049   4.175   1.706  0.0270 -0.1239 -0.1713
 4103ntf    fn422657   2.924   4.018   1.642 -0.0272 -0.4118  0.1508
 4103ntf    fn422658   2.853   4.171   1.771  0.5431  0.2862 -0.4668
 4103ntf    on522659   3.126   3.924   1.842  0.3558 -0.2027  0.3564
 4103ntf    on522660   3.023   4.086   1.996  0.3807 -0.4740  0.1982
 4103ntf    on522661   2.673   3.889   2.025 -0.0247 -0.6279 -0.2483
 4103ntf    on522662   2.879   3.865   2.163 -0.6348  0.1302  0.5960
 4103ntf    fn422663   2.919   3.611   2.004 -0.2576 -0.5926  0.1999
 4103ntf    fn422664   2.733   3.608   2.098  0.6702 -0.2184 -0.4421
 4103ntf    fn422665   2.744   3.652   1.891 -0.1490 -0.2523 -0.1411
 4104ntf    cn122666   6.910   2.108   2.530 -0.0436 -0.2391 -0.5509
 4104ntf    sn222667   6.996   2.238   2.436  0.3422  0.1580  0.3396
 4104ntf    nn322668   7.093   2.141   2.359  0.2488  0.1675  0.2109
 4104ntf    sn222669   7.074   2.078   2.216 -0.0045  0.0152  0.3098
 4104ntf    cn122670   7.160   1.920   2.243 -0.4566 -0.2528  0.1712
 4104ntf    fn422671   6.982   2.053   2.627  0.0735 -0.3289 -0.6876
 4104ntf    fn422672   6.806   2.167   2.586  0.2801  0.2348 -0.4426
 4104ntf    fn422673   6.868   2.005   2.459  0.0779 -0.4749 -0.2829
 4104ntf    on522674   6.889   2.301   2.363  0.5760  1.1956  0.8734
 4104ntf    on522675   7.057   2.314   2.542  0.0968  1.1856 -0.2398
 4104ntf    on522676   7.148   2.135   2.106  0.5620 -0.1247  0.6113
 4104ntf    on522677   6.941   2.035   2.181  0.1699  0.3332 -0.7945
 4104ntf    fn422678   7.200   1.867   2.128  0.9208  0.2124  0.4198
 4104ntf    fn422679   7.269   1.938   2.315 -0.1508  0.4785 -0.4607
 4104ntf    fn422680   7.078   1.839   2.308 -0.8973 -0.1293 -0.2237
 4105ntf    cn122681   0.156   1.617   2.441  0.1807  0.1330 -0.2826
 4105ntf    sn222682   0.218   1.708   2.586 -0.4980 -0.1291  0.1740
 4105ntf    nn322683   0.082   1.766   2.641 -0.2026  0.5915  0.1496
 4105ntf    sn222684   0.026   1.800   2.783 -0.3397 -0.1266  0.2672
 4105ntf    cn122685  -0.150   1.835   2.755 -0.3186 -0.1281  0.1368
 4105ntf    fn422686   0.073   1.518   2.464  0.1868  0.3854  0.9042
 4105ntf    fn422687   0.082   1.702   2.372 -0.2367  0.2670  0.3213
 4105ntf    fn422688   0.254   1.575   2.363 -0.0412 -0.3522 -0.2983
 4105ntf    on522689   0.274   1.612   2.677  0.0803  0.2452  0.2187
 4105ntf    on522690   0.306   1.807   2.529 -0.3611 -0.4278 -0.1320
 4105ntf    on522691   0.082   1.915   2.850 -0.0222 -0.1052 -0.0298
 4105ntf    on522692   0.023   1.679   2.862  0.3843 -0.1054  0.3357
 4105ntf    fn422693  -0.179   1.959   2.720 -0.4765 -0.3490 -0.5422
 4105ntf    fn422694  -0.204   1.767   2.655 -0.1629  0.1318 -0.1247
 4105ntf    fn422695  -0.226   1.808   2.860 -0.1329  0.4410  0.4185
 4106ntf    cn122696   2.499   4.392   4.270  0.3849 -0.0878 -0.2597
 4106ntf    sn222697   2.414   4.410   4.110 -0.1014 -0.2729 -0.0224
 4106ntf    nn322698   2.283   4.487   4.151  0.0740  0.0199 -0.0045
 4106ntf    sn222699   2.166   4.441   4.246  0.0435  0.0305 -0.0370
 4106ntf    cn122700   2.176   4.557   4.386  0.0489 -0.3455  0.2766
 4106ntf    fn422701   2.496   4.506   4.336 -0.3428 -0.0740 -0.3130
 4106ntf    fn422702   2.446   4.296   4.344 -0.0363  0.1441 -0.2568
 4106ntf    fn422703   2.622   4.351   4.243  0.3354 -0.4805  0.1078
 4106ntf    on522704   2.491   4.498   4.025  0.0069 -0.1240  0.2282
 4106ntf    on522705   2.390   4.274   4.068  0.3729 -0.2249 -0.4562
 4106ntf    on522706   2.181   4.312   4.309  0.3470  0.0464 -0.0724
 4106ntf    on522707   2.039   4.477   4.188  0.0464  0.3112  0.1263
 4106ntf    fn422708   2.145   4.494   4.498 -0.1610  0.3453  0.6108
 4106ntf    fn422709   2.286   4.626   4.407  0.0431 -0.1273 -0.3635
 4106ntf    fn422710   2.074   4.642   4.378 -0.2478 -0.6830  0.4274
 4107ntf    cn122711   0.810   6.769   6.418 -0.0998  0.3753 -0.3075
 4107ntf    sn222712   0.677   6.748   6.295  0.0125 -0.2588 -0.3213
 4107ntf    nn322713   0.667   6.898   6.251  0.1634 -0.1079  0.1470
 4107ntf    sn222714   0.762   6.983   6.160 -0.1718  0.0231 -0.0855
 4107ntf    cn122715   0.652   6.990   6.015  0.0807 -0.0839 -0.2852
 4107ntf    fn422716   0.912   6.840   6.372  0.2610  0.1988  0.2100
 4107ntf    fn422717   0.763   6.820   6.531  0.1823  0.3656 -0.1872
 4107ntf    fn422718   0.864   6.654   6.452  0.1341  0.4681 -0.3656
 4107ntf    on522719   0.732   6.667   6.190 -0.2149 -0.6626 -0.1333
 4107ntf    on522720   0.574   6.695   6.381  0.1781  0.2292  0.1812
 4107ntf    on522721   0.886   6.917   6.124  0.0849  0.1900  0.4893
 4107ntf    on522722   0.767   7.116   6.215 -0.1628  0.0398 -0.1265
 4107ntf    fn422723   0.556   7.080   6.000  0.0664 -0.0409  0.0440
 4107ntf    fn422724   0.726   7.000   5.906 -0.1276  0.0630 -0.4141
 4107ntf    fn422725   0.591   6.874   5.998 -0.1978  0.0336 -0.1087
 4108ntf    cn122726   5.559   0.234   6.014 -0.1260  0.1112 -0.2728
 4108ntf    sn222727   5.390   0.289   5.973 -0.1474  0.0688 -0.2401
 4108ntf    nn322728   5.310   0.170   6.037  0.1262 -0.0875 -0.1864
 4108ntf    sn222729   5.207   0.172   6.156 -0.0146 -0.3143 -0.3046
 4108ntf    cn122730   5.073   0.064   6.096 -0.0962 -0.1321 -0.4531
 4108ntf    fn422731   5.649   0.326   5.985  0.2071 -0.2464 -0.3768
 4108ntf    fn422732   5.579   0.212   6.142 -0.2219 -0.0845 -0.2907
 4108ntf    fn422733   5.592   0.124   5.949  0.6696  0.3385 -0.2629
 4108ntf    on522734   5.364   0.412   6.043 -0.2524 -0.1495  0.1070
 4108ntf    on522735   5.389   0.294   5.829  0.1904  0.0500 -0.2437
 4108ntf    on522736   5.144   0.299   6.181  0.5219 -0.0119 -0.4892
 4108ntf    on522737   5.266   0.108   6.272  0.3061  0.1236 -0.2252
 4108ntf    fn422738   5.111  -0.055   6.052 -0.6132 -0.6163  0.3880
 4108ntf    fn422739   4.975   0.058   6.184  0.1131 -0.2479 -0.2274
 4108ntf    fn422740   5.008   0.106   5.989 -0.1484  0.2208 -0.2818
 4109ntf    cn122741   0.827   4.832   4.605 -0.3856 -0.0991 -0.1049
 4109ntf    sn222742   0.733   4.707   4.513  0.3917 -0.5486 -0.2971
 4109ntf    nn322743   0.799   4.571   4.555  0.2338 -0.4215  0.3813
 4109ntf    sn222744   0.748   4.444   4.632  0.1567 -0.4276  0.3209
 4109ntf    cn122745   0.793   4.318   4.508 -0.1105 -0.0544 -0.1612
 4109ntf    fn422746   0.957   4.821   4.584 -0.2892 -0.3499  0.5929
 4109ntf    fn422747   0.807   4.957   4.567 -0.2381  0.0400  0.2619
 4109ntf    fn422748   0.799   4.823   4.734 -0.5984 -0.2373 -0.1616
 4109ntf    on522749   0.601   4.731   4.568  0.6251 -0.0833  0.0731
 4109ntf    on522750   0.764   4.743   4.377 -0.3438 -0.3330 -0.4109
 4109ntf    on522751   0.605   4.429   4.641  0.0489  0.5675  0.3116
 4109ntf    on522752   0.827   4.409   4.747  1.1566  0.4564 -0.0878
 4109ntf    fn422753   0.747   4.359   4.391 -0.0569  0.3340 -0.0487
 4109ntf    fn422754   0.924   4.304   4.494 -0.0475  0.2677  0.0820
 4109ntf    fn422755   0.756   4.194   4.532 -0.0144  0.0099  0.3370
 4110ntf    cn122756   3.688   1.411   5.427 -0.1387  0.0533  0.0801
 4110ntf    sn222757   3.652   1.442   5.252  0.0450 -0.1900 -0.0023
 4110ntf    nn322758   3.716   1.314   5.187 -0.0971 -0.0875 -0.3447
 4110ntf    sn222759   3.856   1.295   5.119  0.0819  0.3192 -0.0965
 4110ntf    cn122760   3.903   1.133   5.188 -0.1525  0.0118 -0.6529
 4110ntf    fn422761   3.670   1.506   5.517 -0.1154  0.0897  0.0458
 4110ntf    fn422762   3.629   1.298   5.464  0.2009 -0.1852 -0.1000
 4110ntf    fn422763   3.815   1.376   5.441 -0.0571  0.2981 -0.0418
 4110ntf    on522764   3.507   1.443   5.250  0.0491  0.1897 -0.1430
 4110ntf    on522765   3.714   1.568   5.222 -0.0709 -0.1456 -0.0569
 4110ntf    on522766   3.970   1.379   5.146 -0.0813  0.5592 -0.1504
 4110ntf    on522767   3.826   1.264   4.981  0.0457  0.1294 -0.0467
 4110ntf    fn422768   3.934   1.149   5.315  0.4399 -0.6006 -0.7107
 4110ntf    fn422769   3.808   1.041   5.181  0.1667 -0.4190  0.4929
 4110ntf    fn422770   4.011   1.084   5.129  0.1020 -0.0403 -0.1460
 4111ntf    cn122771   6.568   1.077   0.127  0.2719 -0.1289  0.0890
 4111ntf    sn222772   6.526   0.908   0.076 -0.1800 -0.0654  0.2511
 4111ntf    nn322773   6.443   0.938  -0.054 -0.1919 -0.5964  0.1353
 4111ntf    sn222774   6.414   0.849  -0.181 -0.1125 -0.1773 -0.1795
 4111ntf    cn122775   6.234   0.827  -0.180 -0.1598  0.1976  0.3540
 4111ntf    fn422776   6.641   1.069   0.237 -0.3933 -0.0753  0.5367
 4111ntf    fn422777   6.634   1.152   0.040 -0.4110  0.2021 -0.1474
 4111ntf    fn422778   6.469   1.158   0.158 -0.1263 -0.8093  0.6194
 4111ntf    on522779   6.654   0.844   0.063 -0.2152 -0.0443 -0.2352
 4111ntf    on522780   6.437   0.859   0.179 -0.5617  0.3275  0.1139
 4111ntf    on522781   6.476   0.719  -0.175 -0.6568 -0.4618 -0.7151
 4111ntf    on522782   6.436   0.920  -0.304 -0.5480  0.4514  0.0996
 4111ntf    fn422783   6.204   0.755  -0.074 -0.2284  0.0317  0.2217
 4111ntf    fn422784   6.171   0.944  -0.180  0.2727  0.4462 -0.7968
 4111ntf    fn422785   6.195   0.751  -0.281 -0.4135  0.4790  0.2378
 4112ntf    cn122786   4.759   6.672   6.735 -0.2672 -0.2692  0.3272
 4112ntf    sn222787   4.610   6.609   6.650 -0.0435  0.0789 -0.3358
 4112ntf    nn322788   4.686   6.510   6.555 -0.8438 -0.3090 -0.5763
 4112ntf    sn222789   4.696   6.354   6.571  0.2159 -0.1699  0.2029
 4112ntf    cn122790   4.731   6.317   6.397 -0.2064  0.4251 -0.0132
 4112ntf    fn422791   4.844   6.576   6.764  0.0627  0.1720  0.8382
 4112ntf    fn422792   4.830   6.757   6.662  0.0098 -0.2277  0.6462
 4112ntf    fn422793   4.739   6.734   6.850 -0.1811  0.4050 -0.0122
 4112ntf    on522794   4.536   6.556   6.762  0.4745  0.5285  0.2278
 4112ntf    on522795   4.565   6.725   6.579  0.6345  0.5237 -0.0547
 4112ntf    on522796   4.572   6.286   6.599  0.5616 -0.7207  0.4145
 4112ntf    on522797   4.814   6.302   6.637  0.1275  0.1101  0.5834
 4112ntf    fn422798   4.730   6.186   6.376 -0.1714  0.4591 -0.2270
 4112ntf    fn422799   4.637   6.368   6.319 -0.4803  0.0680  0.0795
 4112ntf    fn422800   4.848   6.367   6.359  0.0698 -0.0434  0.2101
 4113ntf    cn122801   3.528   6.543   4.055  0.1039  0.1637 -0.4466
 4113ntf    sn222802   3.373   6.538   3.961 -0.2676  0.1391  0.1625
 4113ntf    nn322803   3.411   6.645   3.853 -0.2310  0.0071  0.0441
 4113ntf    sn222804   3.388   6.637   3.698  0.2811 -0.3628 -0.0184
 4113ntf    cn122805   3.562   6.620   3.650  0.1703 -0.2081 -0.4767
 4113ntf    fn422806   3.540   6.441   4.138 -0.0719  0.3963 -0.1314
 4113ntf    fn422807   3.643   6.530   3.991  0.3144  0.1903 -0.0765
 4113ntf    fn422808   3.528   6.648   4.135 -0.3160 -0.3608  0.2524
 4113ntf    on522809   3.364   6.402   3.915  0.0355  0.1862 -0.0371
 4113ntf    on522810   3.275   6.585   4.057 -0.3556  0.4275 -0.0655
 4113ntf    on522811   3.355   6.764   3.636  1.1494 -0.2314 -0.2197
 4113ntf    on522812   3.337   6.516   3.639 -0.3193 -0.2008  0.1531
 4113ntf    fn422813   3.577   6.638   3.519 -0.4348 -0.1294 -0.5381
 4113ntf    fn422814   3.657   6.696   3.702 -0.0707 -0.3286  0.1411
 4113ntf    fn422815   3.602   6.498   3.681  0.0709 -0.1208  0.0005
 4114ntf    cn122816   2.588   2.490   0.818  0.1892 -0.0941  0.0227
 4114ntf    sn222817   2.637   2.580   0.668  0.0544  0.0011  0.0351
 4114ntf    nn322818   2.549   2.509   0.558  0.4073 -0.7848  0.2541
 4114ntf    sn222819   2.585   2.437   0.423  0.0346  0.0684 -0.3050
 4114ntf    cn122820   2.666   2.287   0.487  0.1047  0.3213  0.2097
 4114ntf    fn422821   2.465   2.521   0.859  0.3499  0.1165  0.3523
 4114ntf    fn422822   2.604   2.359   0.811  0.1712 -0.0876 -0.1447
 4114ntf    fn422823   2.666   2.525   0.919 -0.1919  0.0381  0.2738
 4114ntf    on522824   2.588   2.713   0.696 -0.0374  0.0301 -0.2558
 4114ntf    on522825   2.780   2.565   0.660  0.0197 -0.3581  0.0537
 4114ntf    on522826   2.680   2.513   0.345 -0.1052  0.5286 -0.0302
 4114ntf    on522827   2.467   2.385   0.359 -0.2666  0.0297  0.2768
 4114ntf    fn422828   2.608   2.242   0.597  0.1571 -0.3614 -0.0383
 4114ntf    fn422829   2.666   2.188   0.399  0.5209 -0.1609  0.7446
 4114ntf    fn422830   2.793   2.317   0.505  0.0680  0.5228  0.1429
 4115ntf    cn122831   2.803   3.363   7.289 -0.3966  0.5175  0.0304
 4115ntf    sn222832   2.746   3.494   7.177 -0.2060  0.2926 -0.3329
 4115ntf    nn322833   2.767   3.611   7.280 -0.0004 -0.0074 -0.0298
 4115ntf    sn222834   2.852   3.742   7.270  0.2454 -0.1686 -0.0402
 4115ntf    cn122835   2.781   3.801   7.427  0.3104 -0.0582 -0.0519
 4115ntf    fn422836   2.725   3.344   7.394  0.2471  0.2144  0.4607
 4115ntf    fn422837   2.818   3.247   7.226  0.0665  0.2379  0.6406
 4115ntf    fn422838   2.921   3.393   7.340 -0.1157 -0.1249 -0.2254
 4115ntf    on522839   2.834   3.480   7.063 -0.1701  0.1058 -0.2829
 4115ntf    on522840   2.608   3.460   7.160  0.0038 -0.2680 -0.9237
 4115ntf    on522841   2.805   3.835   7.169  0.1887 -0.0895  0.0586
 4115ntf    on522842   2.991   3.729   7.308  0.0766 -0.6858  0.4012
 4115ntf    fn422843   2.797   3.717   7.528  0.6712  0.3234  0.2085
 4115ntf    fn422844   2.824   3.921   7.461 -0.0859  0.1470 -0.2742
 4115ntf    fn422845   2.650   3.803   7.411  0.3324  0.0188 -0.2268
 4116ntf    cn122846   3.657   6.436   4.535 -0.3271  0.2181 -0.4412
 4116ntf    sn222847   3.506   6.429   4.636 -0.1045 -0.0089 -0.1201
 4116ntf    nn322848   3.486   6.273   4.625 -0.3284 -0.0001  0.1747
 4116ntf    sn222849   3.510   6.155   4.726 -0.1518 -0.2818 -0.1962
 4116ntf    cn122850   3.379   6.044   4.665 -0.1289 -0.4327  0.0294
 4116ntf    fn422851   3.700   6.319   4.494  0.6593  0.4341 -0.0627
 4116ntf    fn422852   3.636   6.502   4.422  0.1752  0.8831 -0.1545
 4116ntf    fn422853   3.763   6.496   4.588 -0.2166 -0.7275  0.4366
 4116ntf    on522854   3.536   6.483   4.766 -0.4789 -0.0502 -0.0148
 4116ntf    on522855   3.407   6.500   4.558  0.2019  0.2938 -0.2323
 4116ntf    on522856   3.459   6.179   4.859  0.1406 -0.0243 -0.1294
 4116ntf    on522857   3.636   6.085   4.724  0.0802  0.1491 -0.8392
 4116ntf    fn422858   3.261   6.103   4.656  0.1920  0.0825 -0.9686
 4116ntf    fn422859   3.393   5.999   4.542 -0.4755  0.2447 -0.2654
 4116ntf    fn422860   3.369   5.937   4.743 -0.4195 -0.0098  0.5856
 4117ntf    cn122861   3.994   0.677   5.750  0.3860  0.3811  0.0519
 4117ntf    sn222862   3.887   0.600   5.875  0.0799  0.2578 -0.2829
 4117ntf    nn322863   3.960   0.464   5.902  0.0901  0.2153 -0.5262
 4117ntf    sn222864   4.054   0.428   6.022 -0.3563  0.2056 -0.1739
 4117ntf    cn122865   3.935   0.390   6.154 -0.2390 -0.2176 -0.1878
 4117ntf    fn422866   3.955   0.799   5.718  0.2766  0.3805  0.1852
 4117ntf    fn422867   4.120   0.692   5.787  0.6572 -0.0593 -0.6600
 4117ntf    fn422868   3.995   0.617   5.631  0.4562  0.2043  0.1410
 4117ntf    on522869   3.880   0.703   5.976 -0.4945 -0.3406  0.2930
 4117ntf    on522870   3.767   0.584   5.796  0.2358  0.6814 -0.6099
 4117ntf    on522871   4.124   0.542   6.077 -0.5554  0.1919  0.1068
 4117ntf    on522872   4.124   0.304   5.996  0.2100  0.5447 -0.2962
 4117ntf    fn422873   4.004   0.410   6.265 -0.1998 -0.5354 -0.1529
 4117ntf    fn422874   3.831   0.471   6.161  0.1062  0.2095  0.0494
 4117ntf    fn422875   3.889   0.266   6.152 -0.4178 -0.1558  0.1796
 4118ntf    cn122876   1.106   3.832   2.271 -0.0102  0.4346  0.0117
 4118ntf    sn222877   1.273   3.867   2.333  0.0887 -0.0900  0.0493
 4118ntf    nn322878   1.357   3.857   2.201  0.3928  0.2786  0.2137
 4118ntf    sn222879   1.460   3.954   2.133  0.0369  0.5410  0.0467
 4118ntf    cn122880   1.350   4.047   2.022 -0.1883 -0.0527 -0.2301
 4118ntf    fn422881   1.010   3.823   2.363  0.2865  0.0880  0.2931
 4118ntf    fn422882   1.060   3.913   2.177  0.3849 -0.1942 -0.7337
 4118ntf    fn422883   1.106   3.715   2.208 -0.5297  0.5372 -0.1866
 4118ntf    on522884   1.268   4.002   2.385 -0.0016 -0.0636 -0.0268
 4118ntf    on522885   1.310   3.770   2.434 -0.5448 -0.3086  0.0728
 4118ntf    on522886   1.542   3.879   2.041 -0.4620 -0.2552  0.2432
 4118ntf    on522887   1.527   4.050   2.218  0.7284 -0.1973  0.3476
 4118ntf    fn422888   1.252   4.096   2.096  0.4139  0.8874 -0.0392
 4118ntf    fn422889   1.417   4.143   1.960 -0.1329  0.1693  0.1639
 4118ntf    fn422890   1.303   3.971   1.925 -0.0661  0.0580 -0.3764
 4119ntf    cn122891   2.753   1.681   0.478  0.0289 -0.0121  0.0911
 4119ntf    sn222892   2.752   1.499   0.478 -0.0543 -0.0116  0.2613
 4119ntf    nn322893   2.784   1.464   0.628 -0.1370 -0.2706  0.2181
 4119ntf    sn222894   2.917   1.413   0.695 -0.1560 -0.0808  0.3996
 4119ntf    cn122895   2.960   1.553   0.803 -0.1245  0.0960  0.1607
 4119ntf    fn422896   2.673   1.745   0.561 -0.0726  0.1657 -0.1417
 4119ntf    fn422897   2.874   1.733   0.493 -0.0086 -0.0759  0.6155
 4119ntf    fn422898   2.713   1.728   0.361 -0.1193 -0.4360 -0.0297
 4119ntf    on522899   2.612   1.482   0.449 -0.1092  0.2974  0.3342
 4119ntf    on522900   2.841   1.462   0.371 -0.3141 -0.0325  0.0526
 4119ntf    on522901   3.034   1.399   0.612  0.2425  0.4037  0.8727
 4119ntf    on522902   2.894   1.302   0.784 -0.1187 -0.1005  0.3844
 4119ntf    fn422903   2.894   1.566   0.917 -0.1443 -0.5680  0.2316
 4119ntf    fn422904   3.081   1.526   0.848 -0.0633  0.2927  0.1156
 4119ntf    fn422905   2.972   1.673   0.749 -0.6081 -0.1783 -0.5631
 4120ntf    cn122906   3.286   4.123   3.888 -0.2521 -0.1315 -0.1259
 4120ntf    sn222907   3.306   4.302   3.863 -0.4688 -0.1121 -0.1678
 4120ntf    nn322908   3.152   4.331   3.859 -0.4481  0.0211 -0.0160
 4120ntf    sn222909   3.072   4.448   3.926 -0.1875  0.0144  0.3152
 4120ntf    cn122910   2.902   4.388   3.901 -0.1645  0.0603  0.0480
 4120ntf    fn422911   3.273   4.085   4.014  0.3164 -0.1114 -0.0582
 4120ntf    fn422912   3.186   4.075   3.815 -0.2993  0.4207 -0.4316
 4120ntf    fn422913   3.391   4.062   3.836  0.4600  0.3368  0.7481
 4120ntf    on522914   3.383   4.333   3.981  0.4365 -1.0271 -0.5046
 4120ntf    on522915   3.364   4.315   3.732 -0.2878  0.1741 -0.0611
 4120ntf    on522916   3.077   4.568   3.845  0.2341  0.0999  0.4660
 4120ntf    on522917   3.096   4.459   4.067 -0.0565 -0.5037  0.3328
 4120ntf    fn422918   2.888   4.270   3.958  0.4431  0.1371  0.3637
 4120ntf    fn422919   2.821   4.478   3.955  0.2034  0.5551 -0.2184
 4120ntf    fn422920   2.864   4.383   3.774 -0.5907  0.5417  0.1548
 4121ntf    cn122921   1.691   6.646   4.709 -0.0057  0.2776 -0.1086
 4121ntf    sn222922   1.521   6.611   4.656 -0.0880  0.2664  0.1660
 4121ntf    nn322923   1.544   6.549   4.514 -0.7473  0.4899 -0.0433
 4121ntf    sn222924   1.477   6.425   4.445 -0.5238  0.2435  0.1766
 4121ntf    cn122925   1.602   6.294   4.456  0.0107  0.7175 -0.1498
 4121ntf    fn422926   1.770   6.678   4.608 -0.0873  0.6628 -0.0498
 4121ntf    fn422927   1.681   6.750   4.790 -0.1829 -0.2022  0.4865
 4121ntf    fn422928   1.756   6.553   4.777 -0.7315 -0.2107 -0.0686
 4121ntf    on522929   1.491   6.517   4.762  0.2864  0.5894  0.5644
 4121ntf    on522930   1.460   6.742   4.656  0.0732  0.3418 -0.2236
 4121ntf    on522931   1.466   6.431   4.301 -0.1146 -0.5626  0.1107
 4121ntf    on522932   1.364   6.366   4.513 -0.7972 -0.2144 -0.6553
 4121ntf    fn422933   1.622   6.249   4.579 -0.0362  0.9089 -0.0719
 4121ntf    fn422934   1.581   6.189   4.377 -0.0185  0.7417 -0.1746
 4121ntf    fn422935   1.715   6.348   4.414  0.5015 -0.3880 -0.2985
 4122ntf    cn122936   0.230   3.052   2.397 -0.0017  0.2615 -0.0973
 4122ntf    sn222937   0.179   2.987   2.559 -0.1101 -0.2938 -0.3525
 4122ntf    nn322938   0.041   2.917   2.533 -0.1877 -0.1600 -0.3046
 4122ntf    sn222939   0.024   2.761   2.528  0.1406 -0.1939 -0.3715
 4122ntf    cn122940   0.063   2.702   2.696  0.0780  0.1612 -0.2312
 4122ntf    fn422941   0.344   3.120   2.407  0.1604 -0.0141 -0.0640
 4122ntf    fn422942   0.262   2.952   2.316  0.0366 -0.3064  0.6072
 4122ntf    fn422943   0.139   3.129   2.340 -0.3166  0.0071  0.0614
 4122ntf    on522944   0.285   2.900   2.601 -0.0806 -0.2701 -0.3779
 4122ntf    on522945   0.160   3.111   2.630 -0.0608 -0.3057 -0.3192
 4122ntf    on522946   0.106   2.687   2.436  1.0778  0.4236 -0.0422
 4122ntf    on522947  -0.117   2.729   2.526  0.0625  0.0109  1.0136
 4122ntf    fn422948   0.035   2.573   2.708 -0.2671  0.2795  0.2500
 4122ntf    fn422949   0.189   2.698   2.737  0.0564  0.4173 -0.1357
 4122ntf    fn422950  -0.009   2.772   2.782 -0.0395  0.0858 -0.2677
 4123ntf    cn122951   4.384   4.665   2.797 -0.2766 -0.0142  0.0624
 4123ntf    sn222952   4.372   4.771   2.650  0.1901 -0.3578 -0.2229
 4123ntf    nn322953   4.321   4.659   2.552 -0.0755 -0.3220 -0.1253
 4123ntf    sn222954   4.403   4.597   2.434 -0.0853 -0.2662 -0.1612
 4123ntf    cn122955   4.462   4.451   2.524 -0.2817 -0.0407  0.3343
 4123ntf    fn422956   4.482   4.577   2.794  0.0506  0.3751 -0.8782
 4123ntf    fn422957   4.386   4.735   2.910  0.0383  0.0009  0.0478
 4123ntf    fn422958   4.281   4.583   2.816 -0.3810  0.1037  0.0094
 4123ntf    on522959   4.270   4.864   2.691  0.1809 -0.5920  0.2875
 4123ntf    on522960   4.498   4.835   2.622 -0.0901  0.1224 -0.3888
 4123ntf    on522961   4.524   4.660   2.388 -0.3341 -0.1235 -0.6249
 4123ntf    on522962   4.321   4.539   2.330 -0.1802  0.6197 -0.5852
 4123ntf    fn422963   4.495   4.348   2.447  0.1128  0.4377 -0.1424
 4123ntf    fn422964   4.575   4.477   2.589  0.1393  0.0960 -0.4399
 4123ntf    fn422965   4.377   4.409   2.617 -0.2271  0.0544  0.4276
 4124ntf    cn122966   4.884   4.596   5.756  0.5300 -0.2334  0.0078
 4124ntf    sn222967   4.748   4.629   5.640 -0.1287 -0.1597  0.7983
 4124ntf    nn322968   4.626   4.555   5.706 -0.4374 -0.0699  0.3302
 4124ntf    sn222969   4.529   4.442   5.657 -0.0530 -0.1357 -0.2962
 4124ntf    cn122970   4.613   4.310   5.750  0.1741  0.0374 -0.2550
 4124ntf    fn422971   4.976   4.689   5.740 -0.0311  0.4087  0.4843
 4124ntf    fn422972   4.849   4.610   5.882  0.8660  0.1330  0.0632
 4124ntf    fn422973   4.948   4.481   5.741  0.1057 -0.5805  0.7989
 4124ntf    on522974   4.745   4.773   5.645 -0.2803 -0.1093 -0.4608
 4124ntf    on522975   4.802   4.572   5.519 -0.0456 -0.1818  0.8452
 4124ntf    on522976   4.544   4.414   5.517  0.2151  0.3349 -0.3630
 4124ntf    on522977   4.396   4.452   5.711  0.2464  0.3463  0.3636
 4124ntf    fn422978   4.577   4.186   5.722 -0.0232  0.0568 -0.0944
 4124ntf    fn422979   4.743   4.312   5.726  0.2029 -0.8928 -0.2109
 4124ntf    fn422980   4.602   4.334   5.880 -0.0317 -0.0664 -0.2541
 4125ntf    cn122981   3.412   2.460   4.159 -0.4100 -0.1588  0.3804
 4125ntf    sn222982   3.269   2.359   4.110 -0.3281 -0.0375 -0.1154
 4125ntf    nn322983   3.287   2.219   4.178  0.5966  0.2551  0.2547
 4125ntf    sn222984   3.255   2.181   4.327 -0.0243 -0.0450  0.0456
 4125ntf    cn122985   3.080   2.141   4.298 -0.1706  0.7988 -0.2527
 4125ntf    fn422986   3.391   2.580   4.105  0.0891 -0.0754  0.3707
 4125ntf    fn422987   3.434   2.476   4.288  0.5918  0.5465  0.1318
 4125ntf    fn422988   3.516   2.409   4.095 -0.4950 -0.0087  0.1201
 4125ntf    on522989   3.164   2.431   4.177  0.4345  0.5026  0.5139
 4125ntf    on522990   3.272   2.357   3.966 -0.1148  0.6292 -0.1228
 4125ntf    on522991   3.246   2.291   4.419 -0.2868 -0.3080  0.3394
 4125ntf    on522992   3.322   2.058   4.363 -0.6292 -0.4267 -0.1087
 4125ntf    fn422993   3.056   2.084   4.181 -0.8558  0.6348 -0.0377
 4125ntf    fn422994   3.030   2.066   4.395  0.3745  0.6890 -0.0578
 4125ntf    fn422995   3.002   2.248   4.295  0.0446  0.9518 -0.3434
 4126ntf    cn122996   6.162   1.534   2.568 -0.3604 -0.3401 -0.5026
 4126ntf    sn222997   6.255   1.585   2.420 -0.2464  0.4355 -0.1680
 4126ntf    nn322998   6.313   1.717   2.482 -0.8065  0.1261  1.0305
 4126ntf    sn222999   6.307   1.863   2.426 -0.0576 -0.2080  0.0556
 4126ntf    cn123000   6.479   1.911   2.394 -0.0300 -0.2859  0.0904
 4126ntf    fn423001   6.049   1.598   2.590 -0.0508  0.0139  0.0882
 4126ntf    fn423002   6.130   1.406   2.552 -0.4354 -0.3834  0.0060
 4126ntf    fn423003   6.228   1.535   2.683 -0.5567 -0.2449 -0.3924
 4126ntf    on523004   6.361   1.488   2.406 -0.0741  0.5156  0.5439
 4126ntf    on523005   6.153   1.606   2.320 -0.4956 -0.3910 -0.0926
 4126ntf    on523006   6.272   1.957   2.530 -0.0838 -0.0685 -0.0789
 4126ntf    on523007   6.255   1.884   2.293  0.0164  0.5998  0.1469
 4126ntf    fn423008   6.535   1.845   2.293 -0.4901  0.4031 -0.6272
 4126ntf    fn423009   6.498   2.039   2.367  0.4185 -0.2573  0.5309
 4126ntf    fn423010   6.562   1.895   2.496 -0.1523 -0.7923  0.1155
 4127ntf    cn123011   0.810   5.440   5.216 -0.1636 -0.1063  0.1312
 4127ntf    sn223012   0.969   5.422   5.303  0.0071 -0.1289 -0.1818
 4127ntf    nn323013   0.964   5.531   5.416 -0.0457 -0.0631 -0.2465
 4127ntf    sn223014   1.069   5.607   5.504 -0.2836 -0.0997  0.0713
 4127ntf    cn123015   1.108   5.476   5.624  0.4704  0.6296  0.6449
 4127ntf    fn423016   0.772   5.566   5.210  0.3803  0.0578  0.0356
 4127ntf    fn423017   0.828   5.403   5.090  0.7224  0.3262  0.1252
 4127ntf    fn423018   0.707   5.372   5.264 -0.0978 -0.1224  0.2477
 4127ntf    on523019   0.987   5.284   5.340 -0.4910 -0.2073 -0.2194
 4127ntf    on523020   1.060   5.451   5.195  0.3643 -1.0469 -0.1263
 4127ntf    on523021   1.005   5.714   5.577 -0.7863 -0.0316 -0.4651
 4127ntf    on523022   1.200   5.631   5.448 -0.3294 -0.4607 -0.1895
 4127ntf    fn423023   1.137   5.361   5.565  0.2858  0.6608  0.4916
 4127ntf    fn423024   1.210   5.510   5.700  0.2989 -0.0900  1.2147
 4127ntf    fn423025   1.002   5.447   5.697 -0.0649  0.4692 -0.1784
 4128ntf    cn123026   6.050   2.604   1.066 -0.2052  0.3097 -0.3286
 4128ntf    sn223027   6.152   2.651   0.923 -0.0947  0.2402 -0.2723
 4128ntf    nn323028   6.040   2.679   0.816 -0.3478 -0.3815 -0.1738
 4128ntf    sn223029   6.014   2.796   0.715  0.2112 -0.1944 -0.1037
 4128ntf    cn123030   5.987   2.935   0.830 -0.4230 -0.4035  0.0054
 4128ntf    fn423031   5.955   2.516   1.038 -0.0081  0.1591 -0.5255
 4128ntf    fn423032   6.115   2.555   1.170 -0.2579  0.0580 -0.4121
 4128ntf    fn423033   5.981   2.705   1.117 -0.5636 -0.3140  0.4445
 4128ntf    on523034   6.233   2.761   0.968  0.4244 -0.3796  0.3194
 4128ntf    on523035   6.228   2.531   0.897 -0.1497  0.0681  0.3665
 4128ntf    on523036   5.893   2.767   0.642 -0.3159 -0.4291  0.8503
 4128ntf    on523037   6.132   2.828   0.639  0.0423 -0.1472 -0.3494
 4128ntf    fn423038   6.097   2.986   0.881 -0.1728 -0.4274 -0.5056
 4128ntf    fn423039   5.921   3.032   0.769 -0.0269  0.0150  0.2357
 4128ntf    fn423040   5.912   2.896   0.931 -0.4021 -0.5420 -0.0309
 4129ntf    cn123041   0.996   6.921   3.133 -0.1130 -0.2344  0.1793
 4129ntf    sn223042   1.153   6.831   3.114  0.0956  0.1892 -0.1172
 4129ntf    nn323043   1.156   6.830   2.957 -0.1693 -0.6927 -0.1205
 4129ntf    sn223044   1.272   6.843   2.852  0.1236 -0.0747  0.2811
 4129ntf    cn123045   1.273   7.022   2.820 -0.3157 -0.1041  0.0999
 4129ntf    fn423046   1.006   7.044   3.086  0.3635 -0.3986 -0.1622
 4129ntf    fn423047   0.895   6.868   3.067  0.3629 -0.6747 -0.1965
 4129ntf    fn423048   0.974   6.928   3.264  0.0593  0.0523  0.1933
 4129ntf    on523049   1.247   6.919   3.179  0.2152 -0.1737  0.2007
 4129ntf    on523050   1.133   6.699   3.169 -0.2001  0.4742  0.4677
 4129ntf    on523051   1.241   6.790   2.722 -0.4225  0.2532  0.2753
 4129ntf    on523052   1.402   6.819   2.911  0.4185  0.5608 -0.0971
 4129ntf    fn423053   1.363   7.053   2.729  0.0003 -0.3277  0.3314
 4129ntf    fn423054   1.154   7.065   2.781 -0.1159  0.4234  0.0624
 4129ntf    fn423055   1.298   7.089   2.932 -0.1968  0.3376 -0.1895
 4130ntf    cn123056   2.048   4.289   1.573 -0.1936  0.2669 -0.1892
 4130ntf    sn223057   1.909   4.261   1.687 -0.1822  0.1509 -0.2042
 4130ntf    nn323058   1.987   4.241   1.822 -0.5242 -0.2706 -0.0671
 4130ntf    sn223059   2.035   4.108   1.891  0.0226  0.0267  0.1260
 4130ntf    cn123060   1.880   4.062   1.974 -0.2071  0.3027 -0.1486
 4130ntf    fn423061   2.151   4.361   1.616  0.0474  0.0625 -0.4185
 4130ntf    fn423062   2.103   4.175   1.533 -0.0723  0.2703 -0.0328
 4130ntf    fn423063   2.005   4.343   1.460 -0.6145  0.1551 -0.0856
 4130ntf    on523064   1.845   4.389   1.679 -0.0686  0.1763 -0.7582
 4130ntf    on523065   1.829   4.150   1.640  0.4473 -0.3136 -0.1965
 4130ntf    on523066   2.125   4.137   2.000 -0.3655  0.2981  0.3770
 4130ntf    on523067   2.069   3.997   1.806  0.1865 -0.1373  0.4064
 4130ntf    fn423068   1.833   4.169   2.037 -0.5796  0.0705 -0.0292
 4130ntf    fn423069   1.788   4.026   1.886 -0.0156 -0.2686 -0.1171
 4130ntf    fn423070   1.886   3.966   2.064  0.2128  0.6993  0.2553
 4131ntf    cn123071   4.618   7.007   5.603 -0.0392 -0.1669 -0.0820
 4131ntf    sn223072   4.744   6.882   5.561  0.3572  0.2851 -0.2495
 4131ntf    nn323073   4.798   6.931   5.422  0.0678  0.0579 -0.4405
 4131ntf    sn223074   4.943   6.954   5.368  0.1521  0.1427 -0.1790
 4131ntf    cn123075   4.954   6.835   5.231  0.0982  0.2274 -0.2569
 4131ntf    fn423076   4.552   6.989   5.716  0.3835 -0.2209  0.1605
 4131ntf    fn423077   4.660   7.131   5.622 -0.4881  0.0147 -0.2589
 4131ntf    fn423078   4.519   7.018   5.515 -0.1122 -0.4621 -0.0376
 4131ntf    on523079   4.830   6.897   5.676  0.2968  0.1865 -0.1912
 4131ntf    on523080   4.652   6.772   5.545  0.5246  0.0614  0.2980
 4131ntf    on523081   5.054   6.912   5.450  0.0800  0.4427  0.0767
 4131ntf    on523082   4.956   7.082   5.302  0.5553  0.3432  0.2780
 4131ntf    fn423083   4.889   6.875   5.123 -0.0342 -0.3944 -0.4126
 4131ntf    fn423084   5.079   6.828   5.188  0.2473  0.6870  0.0874
 4131ntf    fn423085   4.916   6.712   5.259 -0.7659  0.5336 -0.0516
 4132ntf    cn123086   6.432   0.203   0.488  0.4586 -0.2780 -0.5418
 4132ntf    sn223087   6.465   0.045   0.570 -0.1743 -0.1117  0.0356
 4132ntf    nn323088   6.413   0.078   0.715  0.1715  0.2029  0.0877
 4132ntf    sn223089   6.488   0.064   0.853  0.4509 -0.4563 -0.1245
 4132ntf    cn123090   6.582   0.219   0.849 -0.4608  0.1119  0.0231
 4132ntf    fn423091   6.440   0.191   0.356  0.4310  0.0466 -0.5752
 4132ntf    fn423092   6.306   0.240   0.507  0.6666  0.0498  0.2347
 4132ntf    fn423093   6.508   0.303   0.530 -0.1928 -0.1183  0.2756
 4132ntf    on523094   6.388  -0.051   0.494 -0.4170  0.1022  0.0114
 4132ntf    on523095   6.608   0.033   0.570 -0.1529  0.1443  0.3367
 4132ntf    on523096   6.576  -0.049   0.870  0.4760 -0.4244 -0.0443
 4132ntf    on523097   6.392   0.090   0.957  0.3456 -0.1940 -0.2856
 4132ntf    fn423098   6.668   0.217   0.950  0.0955  0.0038 -0.4441
 4132ntf    fn423099   6.652   0.249   0.740 -0.1948  0.3816  0.2664
 4132ntf    fn423100   6.503   0.321   0.874 -0.3954  0.1385  0.1215
 4133ntf    cn123101   1.602   5.559   2.350 -0.4261 -0.3258  0.0929
 4133ntf    sn223102   1.534   5.713   2.280 -0.2099 -0.3050 -0.0715
 4133ntf    nn323103   1.508   5.799   2.409 -0.1978 -0.7097  0.2044
 4133ntf    sn223104   1.383   5.814   2.502 -0.1535 -0.4551  0.2241
 4133ntf    cn123105   1.466   5.798   2.663 -0.0122 -0.0208  0.1964
 4133ntf    fn423106   1.515   5.493   2.425 -0.2970  0.0185  0.5531
 4133ntf    fn423107   1.641   5.479   2.253  0.3780 -0.2600  0.3621
 4133ntf    fn423108   1.702   5.583   2.433 -0.1391 -0.5037 -0.2014
 4133ntf    on523109   1.652   5.762   2.214 -0.4632  0.2958 -0.0881
 4133ntf    on523110   1.425   5.673   2.195 -0.7710  0.0931  0.4519
 4133ntf    on523111   1.292   5.704   2.487  0.1247 -0.6481 -0.0706
 4133ntf    on523112   1.331   5.949   2.503  0.4211 -0.2240 -0.2830
 4133ntf    fn423113   1.523   5.682   2.691  0.5952  0.1677 -0.2489
 4133ntf    fn423114   1.562   5.886   2.685  0.2027 -0.2795  0.3021
 4133ntf    fn423115   1.377   5.821   2.759 -0.3532 -0.6763  0.0470
 4134ntf    cn123116   1.475   2.935   4.501 -0.0771  0.0601  0.4141
 4134ntf    sn223117   1.323   2.887   4.590 -0.2611 -0.1532 -0.0109
 4134ntf    nn323118   1.221   2.979   4.514 -0.5098 -0.2673  0.1855
 4134ntf    sn223119   1.103   2.939   4.419 -0.3759 -0.1657 -0.0241
 4134ntf    cn123120   0.983   2.880   4.542 -0.2416 -0.2744  0.0541
 4134ntf    fn423121   1.488   3.065   4.487  0.2249  0.0065  0.1909
 4134ntf    fn423122   1.584   2.892   4.562  0.0206 -0.1737  0.0782
 4134ntf    fn423123   1.481   2.887   4.378 -0.1327 -0.2381  0.5245
 4134ntf    on523124   1.309   2.747   4.557  0.4425 -0.4473  0.8920
 4134ntf    on523125   1.352   2.927   4.725 -0.6414  0.2632 -0.0512
 4134ntf    on523126   1.130   2.824   4.337 -0.1344  0.1413 -0.3799
 4134ntf    on523127   1.048   3.056   4.355 -0.0643 -0.5342 -0.9761
 4134ntf    fn423128   0.960   2.959   4.646  0.3191 -0.3123  0.2154
 4134ntf    fn423129   0.866   2.861   4.483 -0.4806 -0.0107  0.4404
 4134ntf    fn423130   0.992   2.760   4.597 -0.2562 -0.2538  0.1019
 4135ntf    cn123131   5.886   1.630   0.527  0.5282  0.1520 -0.0811
 4135ntf    sn223132   6.054   1.592   0.586  0.3196 -0.2496  0.2607
 4135ntf    nn323133   6.060   1.709   0.691  0.1507 -0.5579  0.6138
 4135ntf    sn223134   6.139   1.844   0.695 -0.4136 -0.1915 -0.3683
 4135ntf    cn123135   6.042   1.935   0.819  0.3409 -0.2053  0.2367
 4135ntf    fn423136   5.807   1.635   0.633  0.4449  0.1258 -0.1413
 4135ntf    fn423137   5.872   1.747   0.469  0.4237  0.1804  0.0017
 4135ntf    fn423138   5.845   1.539   0.440  0.2710  0.3276 -0.1426
 4135ntf    on523139   6.025   1.463   0.644 -0.2662  0.0451  0.6389
 4135ntf    on523140   6.130   1.594   0.464 -0.8758 -0.3312 -0.4974
 4135ntf    on523141   6.134   1.925   0.576  0.3726  0.2635 -0.1006
 4135ntf    on523142   6.269   1.824   0.753 -0.4382 -0.3840 -0.3805
 4135ntf    fn423143   6.115   2.038   0.859  0.3386 -0.1546  0.1082
 4135ntf    fn423144   5.928   1.977   0.768  0.5245 -0.4635 -0.3965
 4135ntf    fn423145   6.015   1.855   0.922 -0.3633 -0.3501 -0.0566
 4136ntf    cn123146   0.337   0.844   5.522 -0.1341 -0.0760 -0.2621
 4136ntf    sn223147   0.197   0.774   5.430 -0.0801 -0.2972 -0.1745
 4136ntf    nn323148   0.199   0.622   5.472  0.2550 -0.2885 -0.1580
 4136ntf    sn223149   0.182   0.487   5.394  0.2047 -0.2327 -0.2441
 4136ntf    cn123150   0.025   0.407   5.435 -0.0032  0.1286 -0.3313
 4136ntf    fn423151   0.453   0.785   5.500 -0.2112 -0.2783 -0.1207
 4136ntf    fn423152   0.343   0.972   5.487 -0.1907 -0.1296 -0.4702
 4136ntf    fn423153   0.319   0.846   5.653  0.0759 -0.7844 -0.2202
 4136ntf    on523154   0.082   0.839   5.488  0.3631  0.1582  0.1947
 4136ntf    on523155   0.232   0.797   5.292  0.8056  0.2854  0.1413
 4136ntf    on523156   0.282   0.397   5.446  0.0711 -0.7789 -0.9300
 4136ntf    on523157   0.187   0.502   5.251  0.4688 -0.6361 -0.2802
 4136ntf    fn423158  -0.079   0.482   5.403 -0.2841  0.0494  0.3754
 4136ntf    fn423159   0.017   0.294   5.366  0.3165  0.5919 -1.1295
 4136ntf    fn423160   0.007   0.381   5.564  0.1313 -0.5653 -0.4492
 4137ntf    cn123161   0.221   1.099   5.143 -0.0718  0.5567 -0.4660
 4137ntf    sn223162   0.085   1.217   5.120 -0.4049  0.2560 -0.0514
 4137ntf    nn323163   0.132   1.349   5.190  0.1468 -0.1944  0.4443
 4137ntf    sn223164   0.039   1.472   5.218 -0.0046 -0.2809  0.3267
 4137ntf    cn123165   0.141   1.608   5.154 -0.1214 -0.2748  0.1524
 4137ntf    fn423166   0.217   0.988   5.070 -0.4646  0.2343  0.0382
 4137ntf    fn423167   0.338   1.155   5.114 -0.1547  0.4745 -0.9717
 4137ntf    fn423168   0.242   1.056   5.266 -0.6900  0.1200 -0.5094
 4137ntf    on523169   0.072   1.224   4.976  0.3990  0.3712 -0.1216
 4137ntf    on523170  -0.026   1.144   5.176  0.1641 -0.2306  0.4674
 4137ntf    on523171   0.020   1.504   5.358 -0.2397  0.6277  0.0939
 4137ntf    on523172  -0.075   1.482   5.131 -0.2021  0.4547  0.6563
 4137ntf    fn423173   0.081   1.726   5.155  0.3287 -0.0345 -0.4124
 4137ntf    fn423174   0.261   1.620   5.208  0.0900 -0.2577 -0.3171
 4137ntf    fn423175   0.174   1.580   5.029 -0.2977  0.9743 -0.1930
 4138ntf    cn123176   4.193   3.816   2.952 -0.2163 -0.4505 -0.5033
 4138ntf    sn223177   4.079   3.837   2.812 -0.2491  0.0610 -0.3998
 4138ntf    nn323178   4.138   3.961   2.737  0.2489 -0.0321 -0.1665
 4138ntf    sn223179   4.220   3.957   2.602 -0.2327 -0.4285 -0.4506
 4138ntf    cn123180   4.084   3.951   2.482 -0.2640 -0.0383 -0.4372
 4138ntf    fn423181   4.179   3.912   3.042  0.2141 -0.6409 -0.2259
 4138ntf    fn423182   4.173   3.701   3.014  0.1131 -0.2263  0.0290
 4138ntf    fn423183   4.323   3.806   2.927 -0.0611 -0.7139  0.3491
 4138ntf    on523184   4.084   3.709   2.746  0.1397 -0.0872 -0.0873
 4138ntf    on523185   3.955   3.868   2.880  0.0160  0.2373  0.0084
 4138ntf    on523186   4.304   3.842   2.583  0.3876 -0.1043  0.2568
 4138ntf    on523187   4.277   4.088   2.583  0.8364 -0.8571 -0.2865
 4138ntf    fn423188   4.135   3.948   2.360  0.1638 -0.3571 -0.2509
 4138ntf    fn423189   4.001   3.849   2.494 -0.5096  0.2383  0.2156
 4138ntf    fn423190   4.009   4.059   2.496  0.0704  0.2261 -0.6723
 4139ntf    cn123191   7.162   0.701   0.457 -0.0009 -0.1528  0.4161
 4139ntf    sn223192   7.046   0.816   0.536  0.2313  0.2398  0.1839
 4139ntf    nn323193   6.935   0.712   0.574  0.3614  0.0309 -0.0084
 4139ntf    sn223194   6.872   0.686   0.715 -0.0719  0.3140 -0.1478
 4139ntf    cn123195   6.998   0.577   0.788  0.1146  0.4953 -0.1964
 4139ntf    fn423196   7.240   0.627   0.534  0.5430  0.1070  0.1187
 4139ntf    fn423197   7.113   0.608   0.376 -0.2147  0.3499 -0.0339
 4139ntf    fn423198   7.251   0.767   0.385 -0.0730  0.1178  0.5754
 4139ntf    on523199   7.122   0.875   0.644  0.0741  0.4021  0.2065
 4139ntf    on523200   7.013   0.901   0.425 -0.2920 -0.5590 -0.2795
 4139ntf    on523201   6.747   0.615   0.709  0.4624 -0.6800  0.1855
 4139ntf    on523202   6.877   0.799   0.806  0.1374  0.0020  0.2332
 4139ntf    fn423203   7.113   0.636   0.761  0.2949  0.2565  0.0482
 4139ntf    fn423204   6.986   0.562   0.919  0.2287  0.0969 -0.2311
 4139ntf    fn423205   6.992   0.458   0.731  0.4610  0.0831  0.6068
 4140ntf    cn123206   6.086   0.750   6.731  0.1567 -0.1044 -0.0680
 4140ntf    sn223207   6.167   0.607   6.652  0.0980 -0.0807 -0.1707
 4140ntf    nn323208   6.198   0.528   6.785  0.2796 -0.6642 -0.5559
 4140ntf    sn223209   6.113   0.408   6.838 -0.2943  0.2198  0.5719
 4140ntf    cn123210   6.126   0.425   7.019 -0.0949 -0.0564  0.5845
 4140ntf    fn423211   6.167   0.799   6.824  0.4459 -0.2420 -0.2449
 4140ntf    fn423212   6.049   0.841   6.644  0.4038 -0.1581 -0.2302
 4140ntf    fn423213   5.974   0.726   6.797  0.2139  0.2941  0.1804
 4140ntf    on523214   6.068   0.554   6.562  0.1446 -0.7191  0.1504
 4140ntf    on523215   6.288   0.660   6.593 -0.0805  0.1963 -0.2894
 4140ntf    on523216   6.189   0.286   6.826 -0.4526  0.1720  0.0356
 4140ntf    on523217   5.973   0.399   6.802 -0.2280  0.2693  0.2956
 4140ntf    fn423218   6.067   0.328   7.086 -0.0763 -0.3089  0.2404
 4140ntf    fn423219   6.252   0.440   7.057  0.2880 -0.6999 -0.3942
 4140ntf    fn423220   6.071   0.542   7.049  0.1428  0.1500  0.2193
 4141ntf    cn123221   0.131   5.133   2.277 -0.0922 -0.4784  0.5101
 4141ntf    sn223222   0.002   5.080   2.160  0.1438  0.1201 -0.0302
 4141ntf    nn323223   0.086   5.069   2.028  0.3804  0.0411  0.1271
 4141ntf    sn223224   0.145   4.936   1.969  0.0712 -0.0481  0.0160
 4141ntf    cn123225   0.001   4.876   1.877 -0.0829  0.1940  0.1005
 4141ntf    fn423226   0.174   5.255   2.247 -0.3411 -0.5299 -0.0786
 4141ntf    fn423227   0.087   5.140   2.401 -0.0507 -0.2008  0.5106
 4141ntf    fn423228   0.238   5.054   2.275  0.6244  0.4789 -0.5231
 4141ntf    on523229  -0.050   4.961   2.223  0.5438 -0.4060 -0.6861
 4141ntf    on523230  -0.095   5.187   2.162  0.2057  0.1777 -0.1194
 4141ntf    on523231   0.169   4.827   2.059  0.2893  0.3838  0.4869
 4141ntf    on523232   0.250   4.971   1.875 -0.2834 -0.1534 -0.4218
 4141ntf    fn423233  -0.093   4.970   1.875 -0.0782  0.1954 -0.1214
 4141ntf    fn423234   0.034   4.843   1.753  0.0405  0.1887  0.1351
 4141ntf    fn423235  -0.047   4.763   1.927  0.3028  0.2545  0.6057
 4142ntf    cn123236   6.350   3.334   2.366  0.1115  0.1747 -0.1094
 4142ntf    sn223237   6.273   3.170   2.369  0.4013  0.0405  0.1133
 4142ntf    nn323238   6.406   3.087   2.372 -0.0235 -0.6485  0.4140
 4142ntf    sn223239   6.481   3.008   2.259  0.3494 -0.3277  0.4321
 4142ntf    cn123240   6.406   2.842   2.264 -0.4703  0.0268  0.1452
 4142ntf    fn423241   6.448   3.322   2.277 -0.1489 -0.1718 -0.3534
 4142ntf    fn423242   6.269   3.433   2.334 -0.1305 -0.1462 -0.4951
 4142ntf    fn423243   6.405   3.363   2.483  0.1156 -0.2284 -0.0099
 4142ntf    on523244   6.193   3.156   2.489  0.0406 -0.0425 -0.1330
 4142ntf    on523245   6.188   3.173   2.253  0.2252 -0.1301  0.2370
 4142ntf    on523246   6.619   2.990   2.299  0.4938 -0.5769 -0.1681
 4142ntf    on523247   6.446   3.045   2.124  0.1336  0.0046  0.5798
 4142ntf    fn423248   6.473   2.758   2.187 -0.2236  0.2351  0.1282
 4142ntf    fn423249   6.420   2.793   2.387 -0.0601  0.3421  0.2266
 4142ntf    fn423250   6.284   2.830   2.215 -0.0212 -0.3408 -0.9037
 4143ntf    cn123251   5.739   2.294   7.209  0.1454  0.0589 -0.3516
 4143ntf    sn223252   5.589   2.194   7.230  0.1404  0.1680  0.1468
 4143ntf    nn323253   5.486   2.273   7.143  0.3291 -0.0997 -0.3216
 4143ntf    sn223254   5.442   2.234   6.997  0.0162  0.3811 -0.3578
 4143ntf    cn123255   5.312   2.111   7.028  0.1733  0.1851 -0.4785
 4143ntf    fn423256   5.758   2.382   7.306  0.4883 -0.8162  0.3932
 4143ntf    fn423257   5.851   2.225   7.196  0.4260  0.4051  0.1568
 4143ntf    fn423258   5.724   2.370   7.102 -0.3405  0.4268 -0.0274
 4143ntf    on523259   5.633   2.061   7.194  0.3883  0.1291  0.5779
 4143ntf    on523260   5.551   2.214   7.368  0.4379  0.3808  0.1993
 4143ntf    on523261   5.541   2.162   6.921  0.1953  0.0365  0.1939
 4143ntf    on523262   5.383   2.346   6.929 -0.6242  0.3267  0.0987
 4143ntf    fn423263   5.317   2.022   6.930 -0.1823 -0.0854 -0.2540
 4143ntf    fn423264   5.328   2.045   7.142 -0.2519  0.9509  0.0299
 4143ntf    fn423265   5.191   2.162   7.030  0.1624  0.1443 -0.0931
 4144ntf    cn123266   3.018   7.216   5.989  0.0540 -0.3405 -0.2062
 4144ntf    sn223267   3.022   7.084   5.864  0.0483 -0.2718 -0.2783
 4144ntf    nn323268   3.130   7.135   5.763  0.0239  0.1705 -0.0842
 4144ntf    sn223269   3.106   7.225   5.637 -0.3089  0.3644  0.1173
 4144ntf    cn123270   3.069   7.107   5.504  0.2229  0.2961  0.0288
 4144ntf    fn423271   2.950   7.187   6.098 -0.1419  0.5251 -0.0908
 4144ntf    fn423272   3.135   7.266   6.024 -0.1319 -0.0829  0.0451
 4144ntf    fn423273   2.955   7.319   5.933 -0.1410  0.1015  0.7968
 4144ntf    on523274   3.057   6.964   5.936 -0.1060 -0.6686 -0.8496
 4144ntf    on523275   2.886   7.073   5.816  0.1533 -0.2102 -0.5919
 4144ntf    on523276   3.232   7.268   5.580 -0.6038  0.4286 -0.4908
 4144ntf    on523277   2.995   7.317   5.644 -0.5452  0.0558  0.4108
 4144ntf    fn423278   2.991   7.006   5.536 -0.4372  0.7771 -0.0522
 4144ntf    fn423279   3.022   7.162   5.393 -0.2287 -0.0260  0.0609
 4144ntf    fn423280   3.177   7.039   5.469  0.4044  0.4930  0.2058
 4145ntf    cn123281   4.567   6.954   3.708 -0.2124 -0.3461 -0.0038
 4145ntf    sn223282   4.609   7.119   3.645 -0.2504 -0.2623  0.1912
 4145ntf    nn323283   4.614   7.093   3.490  0.7333 -0.4563  0.2510
 4145ntf    sn223284   4.695   7.159   3.373  0.0173  0.1796  0.1106
 4145ntf    cn123285   4.815   7.024   3.365  0.1728  0.3282 -0.0825
 4145ntf    fn423286   4.644   6.856   3.664  0.4157  0.3354 -0.4523
 4145ntf    fn423287   4.563   6.948   3.840  0.1470  0.1357  0.0340
 4145ntf    fn423288   4.445   6.922   3.666 -0.2378 -0.2048 -0.0373
 4145ntf    on523289   4.494   7.196   3.688  0.0991  0.5765 -0.3444
 4145ntf    on523290   4.732   7.144   3.716  0.1035 -0.2511 -0.4132
 4145ntf    on523291   4.768   7.281   3.397 -0.1491  0.3027  0.0008
 4145ntf    on523292   4.638   7.145   3.241  0.1872  0.6024 -0.0095
 4145ntf    fn423293   4.917   7.048   3.284  0.1536  0.1119 -0.1725
 4145ntf    fn423294   4.866   7.009   3.486 -0.0603  0.3040  0.0133
 4145ntf    fn423295   4.770   6.904   3.333  0.3696  0.1169  0.4144
 4146ntf    cn123296   7.042   0.117   1.071  0.0804 -0.2551 -0.2574
 4146ntf    sn223297   7.024   0.005   1.213  0.2119  0.1057  0.0448
 4146ntf    nn323298   6.934   0.092   1.308  0.1767 -0.0016  0.1093
 4146ntf    sn223299   6.977   0.176   1.434 -0.2016  0.3171  0.0281
 4146ntf    cn123300   6.886   0.326   1.388 -0.2917  0.3685  0.3718
 4146ntf    fn423301   6.928   0.147   1.011 -0.1765 -0.2457  0.2325
 4146ntf    fn423302   7.090   0.235   1.106 -0.4334 -0.1992  0.2808
 4146ntf    fn423303   7.123   0.073   0.977  0.4708 -0.6603  0.2678
 4146ntf    on523304   6.952  -0.099   1.143  0.3603  0.0393 -0.0096
 4146ntf    on523305   7.153  -0.029   1.268  0.1380 -0.4759 -0.1296
 4146ntf    on523306   7.116   0.213   1.449 -0.1812  0.2398  0.0280
 4146ntf    on523307   6.901   0.144   1.552  0.2717 -0.5787  0.0987
 4146ntf    fn423308   6.923   0.358   1.265  0.0020  0.0892  0.3863
 4146ntf    fn423309   6.755   0.310   1.382 -0.2152 -0.2641  0.2494
 4146ntf    fn423310   6.913   0.430   1.465 -0.1367  0.2779  0.4386
 4147ntf    cn123311   5.108   2.401   3.074  0.2819 -0.0970 -0.2879
 4147ntf    sn223312   5.032   2.418   2.909 -0.3994 -0.1475  0.0159
 4147ntf    nn323313   4.945   2.288   2.925 -0.1492 -0.3236 -0.0467
 4147ntf    sn223314   4.817   2.265   2.837 -0.0848  0.0000 -0.2259
 4147ntf    cn123315   4.891   2.150   2.718  0.0566  0.0244 -0.1624
 4147ntf    fn423316   5.186   2.502   3.109 -0.0095  0.3935 -1.0237
 4147ntf    fn423317   5.019   2.403   3.171  0.3224  0.4318 -0.2601
 4147ntf    fn423318   5.169   2.284   3.083 -0.7708 -0.6251  0.1525
 4147ntf    on523319   4.974   2.549   2.909  0.5076  0.2629 -0.1966
 4147ntf    on523320   5.152   2.392   2.832 -0.5442  0.2649 -0.3510
 4147ntf    on523321   4.774   2.375   2.754 -0.2187  0.5512  0.5576
 4147ntf    on523322   4.719   2.184   2.906 -0.2510  0.2448 -0.1728
 4147ntf    fn423323   4.939   2.039   2.773 -0.2700 -0.0736 -0.0685
 4147ntf    fn423324   4.800   2.103   2.634 -0.3909  0.1318  0.2585
 4147ntf    fn423325   4.987   2.215   2.655  0.2943 -0.3137 -0.1555
 4148ntf    cn123326   5.037   6.330   5.904  0.3029  0.0984 -0.0953
 4148ntf    sn223327   4.892   6.225   5.939  0.3798  0.0690  0.1376
 4148ntf    nn323328   4.818   6.239   5.801 -0.1033 -0.2775  0.3611
 4148ntf    sn223329   4.725   6.354   5.749 -0.0714 -0.4700 -0.1227
 4148ntf    cn123330   4.561   6.276   5.761 -0.2048 -0.2787 -0.6708
 4148ntf    fn423331   5.007   6.455   5.875  0.3802  0.1551  0.0691
 4148ntf    fn423332   5.125   6.334   6.003  0.4743  0.6704 -0.2723
 4148ntf    fn423333   5.105   6.290   5.798  0.7851  0.0189  0.2405
 4148ntf    on523334   4.938   6.091   5.968  0.4415  0.1046  0.2059
 4148ntf    on523335   4.836   6.302   6.047  0.6604 -0.3414  0.5804
 4148ntf    on523336   4.733   6.383   5.608  0.6155 -0.0733 -0.0055
 4148ntf    on523337   4.724   6.469   5.836  0.1084 -0.8700  0.4101
 4148ntf    fn423338   4.459   6.361   5.765 -0.1245 -0.1895 -0.5012
 4148ntf    fn423339   4.539   6.200   5.655  0.6251  0.0197 -1.0679
 4148ntf    fn423340   4.544   6.198   5.866 -0.0745 -0.2888 -0.6570
 4149ntf    cn123341   4.213   1.709   2.341 -0.4324 -0.2491  0.1456
 4149ntf    sn223342   4.267   1.879   2.305  0.1270 -0.5048 -0.2301
 4149ntf    nn323343   4.147   1.968   2.354  0.4736 -0.3716  0.3876
 4149ntf    sn223344   4.093   1.991   2.499 -0.1348 -0.1477  0.1312
 4149ntf    cn123345   3.987   2.138   2.483 -0.1205 -0.1525 -0.0082
 4149ntf    fn423346   4.090   1.687   2.296 -0.9544  0.4209  1.1882
 4149ntf    fn423347   4.291   1.619   2.284 -0.0837  0.1192  0.0415
 4149ntf    fn423348   4.205   1.675   2.469 -0.3245 -0.9797 -0.0371
 4149ntf    on523349   4.390   1.900   2.376  0.0626 -0.2324 -0.2005
 4149ntf    on523350   4.271   1.889   2.161 -0.1437 -0.4742 -0.2367
 4149ntf    on523351   4.189   2.043   2.593  0.2299 -0.2378 -0.1906
 4149ntf    on523352   3.996   1.892   2.541 -0.5323  0.0423 -0.3335
 4149ntf    fn423353   3.958   2.171   2.359 -0.3895 -0.5422 -0.0525
 4149ntf    fn423354   3.869   2.131   2.541 -0.1538 -0.2178 -0.0846
 4149ntf    fn423355   4.043   2.247   2.534  0.2743 -0.2483 -0.2346
 4150ntf    cn123356   6.770   0.978   1.794  0.0557  0.2039 -0.2162
 4150ntf    sn223357   6.887   1.085   1.705  0.1139  0.1133 -0.2481
 4150ntf    nn323358   6.800   1.216   1.703  0.3764  0.2952  0.2606
 4150ntf    sn223359   6.726   1.279   1.580 -0.0562  0.0601  0.3983
 4150ntf    cn123360   6.556   1.228   1.621 -0.0869 -0.3919 -0.2886
 4150ntf    fn423361   6.763   0.859   1.736 -0.0375 -0.0001  0.2108
 4150ntf    fn423362   6.788   0.965   1.924  0.5002 -0.1922 -0.3187
 4150ntf    fn423363   6.648   1.025   1.773  0.1095 -0.0888 -1.2217
 4150ntf    on523364   6.996   1.098   1.798  0.1549  0.0431 -0.2859
 4150ntf    on523365   6.910   1.024   1.576  0.6008  0.1767 -0.1906
 4150ntf    on523366   6.749   1.222   1.450 -0.5561 -0.2117  0.4274
 4150ntf    on523367   6.726   1.423   1.588  0.1750  0.0874 -0.0594
 4150ntf    fn423368   6.544   1.101   1.586  0.2275 -0.5107  0.0291
 4150ntf    fn423369   6.538   1.233   1.751  0.1422  0.6101 -0.2856
 4150ntf    fn423370   6.462   1.297   1.558  0.2518 -0.1242 -0.5077
 4151ntf    cn123371   4.407   2.367   0.209 -0.2676  0.1876  0.1445
 4151ntf    sn223372   4.282   2.289   0.102  0.1229 -0.4253  0.1310
 4151ntf    nn323373   4.284   2.146   0.168 -0.3059 -0.8637 -0.7886
 4151ntf    sn223374   4.166   2.068   0.237 -0.3373 -0.0261  0.1302
 4151ntf    cn123375   4.219   1.897   0.205 -0.1191 -0.0829  0.7777
 4151ntf    fn423376   4.469   2.461   0.141  0.0160  0.1321  0.3272
 4151ntf    fn423377   4.348   2.418   0.316 -0.7159 -0.2692  0.1211
 4151ntf    fn423378   4.510   2.300   0.258 -0.6664 -0.4051  0.1862
 4151ntf    on523379   4.169   2.371   0.136  0.1520 -0.2193 -0.2655
 4151ntf    on523380   4.353   2.296  -0.023  0.1582  0.3053  0.1896
 4151ntf    on523381   4.045   2.080   0.160  0.2778 -0.4196 -0.9216
 4151ntf    on523382   4.159   2.077   0.380 -0.2541  0.2968  0.1149
 4151ntf    fn423383   4.140   1.806   0.259 -0.0819 -0.1694  0.6882
 4151ntf    fn423384   4.227   1.863   0.077 -0.3421  0.8363  0.5130
 4151ntf    fn423385   4.343   1.891   0.249  0.0587  0.1994  0.3223
 4152ntf    cn123386   0.402   5.069   1.086  0.0472  0.2574  0.0373
 4152ntf    sn223387   0.269   5.191   1.102 -0.2435 -0.0626  0.0755
 4152ntf    nn323388   0.333   5.294   1.202 -0.1179 -0.3433  0.2842
 4152ntf    sn223389   0.390   5.440   1.189 -0.1430 -0.3467  0.1401
 4152ntf    cn123390   0.245   5.535   1.244 -0.1403 -0.3601  0.1702
 4152ntf    fn423391   0.526   5.113   1.073  0.2821 -0.3699  0.1084
 4152ntf    fn423392   0.401   4.993   1.194  0.0731 -0.1747 -0.2649
 4152ntf    fn423393   0.379   4.988   0.984 -0.3109 -0.0324  0.3486
 4152ntf    on523394   0.259   5.248   0.970  0.3944  0.2283  0.1507
 4152ntf    on523395   0.156   5.122   1.159 -0.5369  0.5898  0.2984
 4152ntf    on523396   0.412   5.493   1.056  0.3965  0.2549  0.4651
 4152ntf    on523397   0.492   5.467   1.287  0.2630 -0.6208 -0.2021
 4152ntf    fn423398   0.281   5.652   1.294 -0.2278 -0.2087 -0.1202
 4152ntf    fn423399   0.151   5.556   1.153 -0.0515  0.2121  0.2046
 4152ntf    fn423400   0.190   5.474   1.348 -1.0686 -0.4120 -0.3418
 4153ntf    cn123401   0.309   6.436   5.152 -0.1106 -0.6043 -0.2402
 4153ntf    sn223402   0.265   6.284   5.240 -0.1561 -0.0888  0.6352
 4153ntf    nn323403   0.114   6.273   5.199 -0.1219  0.8636  0.2391
 4153ntf    sn223404  -0.010   6.327   5.280 -0.6489  0.1743 -0.0921
 4153ntf    cn123405  -0.023   6.187   5.395 -0.1982 -0.0223 -0.2751
 4153ntf    fn423406   0.303   6.415   5.021 -0.2662  0.0296 -0.3375
 4153ntf    fn423407   0.233   6.540   5.180  0.2376 -0.4520  0.1497
 4153ntf    fn423408   0.432   6.467   5.189 -0.4745  0.7048 -0.0850
 4153ntf    on523409   0.351   6.188   5.175 -0.4061 -0.2675  0.5633
 4153ntf    on523410   0.293   6.310   5.379 -0.0016 -0.2293  0.6314
 4153ntf    on523411  -0.127   6.324   5.196 -0.1754  0.5375 -0.7795
 4153ntf    on523412   0.000   6.446   5.361  0.5332  0.5321 -0.7330
 4153ntf    fn423413  -0.145   6.202   5.444  0.1769  0.4862  0.5334
 4153ntf    fn423414  -0.020   6.067   5.340 -0.3337 -0.1769  0.0496
 4153ntf    fn423415   0.068   6.192   5.491 -0.3574  0.7917 -0.1621
 4154ntf    cn123416   4.565   2.588   5.592  0.1885  0.1955  0.0387
 4154ntf    sn223417   4.459   2.441   5.605  0.4987 -0.0325 -0.0205
 4154ntf    nn323418   4.459   2.373   5.463  0.2070  0.5995 -0.3228
 4154ntf    sn223419   4.380   2.411   5.332 -0.3240  0.7482  0.0353
 4154ntf    cn123420   4.494   2.347   5.206 -0.5940 -0.2079  0.2712
 4154ntf    fn423421   4.503   2.689   5.532  0.8367  0.3793 -0.3266
 4154ntf    fn423422   4.605   2.637   5.708  0.1254  0.2012  0.0584
 4154ntf    fn423423   4.680   2.580   5.528  0.2389 -0.2421  0.1825
 4154ntf    on523424   4.537   2.377   5.708 -0.1664  0.1110  0.5772
 4154ntf    on523425   4.332   2.490   5.652  0.5930 -0.1617  0.3767
 4154ntf    on523426   4.372   2.552   5.305  0.9069  0.8762  0.2971
 4154ntf    on523427   4.260   2.334   5.313  0.1152  0.0614  0.0162
 4154ntf    fn423428   4.459   2.377   5.082 -0.6484 -0.5798  0.1928
 4154ntf    fn423429   4.621   2.378   5.226 -0.5388 -0.2099 -0.0693
 4154ntf    fn423430   4.496   2.216   5.226  0.0321 -0.1905  0.3436
 4155ntf    cn123431   0.769   4.378   3.631 -0.1015  0.2729  0.1484
 4155ntf    sn223432   0.671   4.301   3.763  0.0994 -0.3705 -0.0716
 4155ntf    nn323433   0.639   4.423   3.857 -0.0822 -0.4014 -0.0935
 4155ntf    sn223434   0.602   4.567   3.806 -0.0583 -0.3263  0.1044
 4155ntf    cn123435   0.478   4.622   3.928  0.6685  0.2528  0.5941
 4155ntf    fn423436   0.806   4.283   3.547 -0.3151  0.0984  0.2522
 4155ntf    fn423437   0.697   4.460   3.556  0.2834  0.1718 -0.3440
 4155ntf    fn423438   0.877   4.445   3.667  0.2164 -0.0180 -0.2483
 4155ntf    on523439   0.553   4.246   3.702 -0.4691  0.1563  0.5280
 4155ntf    on523440   0.764   4.210   3.825  0.6180  0.2057  0.0078
 4155ntf    on523441   0.524   4.578   3.685  0.3196  0.1175 -0.1045
 4155ntf    on523442   0.700   4.669   3.834 -0.2011 -0.3061  0.5476
 4155ntf    fn423443   0.454   4.752   3.915 -0.3668  0.0548  0.4226
 4155ntf    fn423444   0.360   4.563   3.923  0.7319  0.1606  0.1102
 4155ntf    fn423445   0.521   4.607   4.052 -0.0594 -0.5274  0.7557
 4156ntf    cn123446   0.373   5.018   4.849  0.2220 -0.1624  0.0493
 4156ntf    sn223447   0.247   4.928   4.944  0.2286  0.0184  0.2304
 4156ntf    nn323448   0.183   4.839   4.832  0.7917 -0.3213  0.1728
 4156ntf    sn223449   0.029   4.825   4.801  0.7547  0.1128  0.1491
 4156ntf    cn123450  -0.009   4.971   4.701 -0.2199 -0.4372 -0.2978
 4156ntf    fn423451   0.425   5.109   4.929 -0.2801 -0.0103  0.2050
 4156ntf    fn423452   0.470   4.948   4.792 -0.1434 -0.8169  0.2222
 4156ntf    fn423453   0.327   5.095   4.751  0.0811  0.0075  0.2487
 4156ntf    on523454   0.318   4.832   5.025  0.2738  0.1080  0.2974
 4156ntf    on523455   0.162   5.025   5.007 -0.1667 -0.0530 -0.1863
 4156ntf    on523456  -0.065   4.820   4.910  0.0312  0.7894 -0.4324
 4156ntf    on523457   0.017   4.721   4.702 -0.1416 -0.0317  0.3950
 4156ntf    fn423458   0.056   4.969   4.586  0.1966 -0.2504 -0.0686
 4156ntf    fn423459  -0.134   4.988   4.662 -0.2735  0.1475  0.1112
 4156ntf    fn423460   0.023   5.091   4.747  0.1379 -0.6037 -0.1078
 4157ntf    cn123461   0.646   1.213   5.716  0.3180  0.1128 -0.0808
 4157ntf    sn223462   0.810   1.291   5.716  0.2357  0.2858  0.0679
 4157ntf    nn323463   0.827   1.352   5.860 -0.1136 -0.3190  0.3687
 4157ntf    sn223464   0.748   1.471   5.923  0.0937  0.1510 -0.2497
 4157ntf    cn123465   0.659   1.392   6.061 -0.2605  0.1208 -0.4936
 4157ntf    fn423466   0.641   1.096   5.778  0.5007  0.4449  0.5611
 4157ntf    fn423467   0.563   1.289   5.785  0.9304  0.4549  0.2851
 4157ntf    fn423468   0.605   1.191   5.592 -0.0711  0.2331  0.0252
 4157ntf    on523469   0.887   1.170   5.703  0.2570  0.3657 -0.5881
 4157ntf    on523470   0.824   1.376   5.600 -0.3533  0.3046  0.0086
 4157ntf    on523471   0.641   1.528   5.845 -0.3979 -0.0411  0.2733
 4157ntf    on523472   0.836   1.568   5.983  0.5151 -0.6234  0.4011
 4157ntf    fn423473   0.539   1.439   6.088 -0.1691 -0.1920  0.4781
 4157ntf    fn423474   0.639   1.264   6.034 -0.7559  0.0869  0.0097
 4157ntf    fn423475   0.716   1.402   6.180 -0.1788  0.3689 -0.5542
 4158ntf    cn123476   1.784   4.175   5.469 -0.3289  0.1269 -0.0838
 4158ntf    sn223477   1.905   4.259   5.576 -0.5280  0.0243  0.2249
 4158ntf    nn323478   1.821   4.282   5.706 -0.7058  0.4598  0.0387
 4158ntf    sn223479   1.762   4.172   5.802  0.0210 -0.3586 -0.4386
 4158ntf    cn123480   1.877   4.204   5.938 -0.1281 -0.1228 -0.3675
 4158ntf    fn423481   1.763   4.046   5.490  0.4272 -0.0705 -0.5013
 4158ntf    fn423482   1.664   4.230   5.472  0.0581  0.9762 -0.1534
 4158ntf    fn423483   1.823   4.191   5.344 -0.3963  0.4003 -0.0693
 4158ntf    on523484   2.013   4.168   5.605 -0.2314  0.3220  0.0618
 4158ntf    on523485   1.934   4.385   5.511 -0.4192 -0.1260 -0.0188
 4158ntf    on523486   1.787   4.036   5.758  0.6953 -0.1941 -0.5736
 4158ntf    on523487   1.631   4.212   5.846  0.2700 -0.0349  0.0039
 4158ntf    fn423488   1.852   4.324   5.986 -0.3615 -0.5178  0.5326
 4158ntf    fn423489   1.853   4.123   6.041  0.3035 -0.2730 -0.3823
 4158ntf    fn423490   2.004   4.199   5.901 -0.0090 -0.0290  0.0253
 4159ntf    cn123491   0.408   6.591   3.701 -0.1443 -0.1825  0.3763
 4159ntf    sn223492   0.293   6.708   3.625  0.0290 -0.2272  0.0445
 4159ntf    nn323493   0.393   6.819   3.576  0.1262 -0.2815  0.1239
 4159ntf    sn223494   0.424   6.861   3.428 -0.3326  0.0175  0.1110
 4159ntf    cn123495   0.569   6.964   3.465 -0.2973 -0.0660  0.2074
 4159ntf    fn423496   0.356   6.480   3.751  0.6408 -0.9428 -0.4578
 4159ntf    fn423497   0.492   6.545   3.610  0.2247  0.2999  0.4728
 4159ntf    fn423498   0.488   6.646   3.791  0.1131  0.3554 -0.1744
 4159ntf    on523499   0.233   6.633   3.517 -0.0701  0.4147 -0.3562
 4159ntf    on523500   0.210   6.744   3.737 -0.2365 -0.0866 -0.1947
 4159ntf    on523501   0.325   6.951   3.375  0.2924  0.7786  0.2245
 4159ntf    on523502   0.480   6.756   3.346  0.4712  0.3754  0.1898
 4159ntf    fn423503   0.631   7.014   3.359 -0.1478 -0.2366  0.2139
 4159ntf    fn423504   0.534   7.059   3.550 -0.5803  0.3796 -0.3968
 4159ntf    fn423505   0.661   6.887   3.521 -0.5644 -0.2057  0.4553
 4160ntf    cn123506   6.815   5.538   1.740 -0.0919  0.0149  0.0979
 4160ntf    sn223507   6.783   5.706   1.678 -0.2066 -0.0019  0.1096
 4160ntf    nn323508   6.918   5.738   1.603 -0.2452 -0.4810 -0.1723
 4160ntf    sn223509   6.944   5.711   1.451  0.4504  0.1735 -0.1759
 4160ntf    cn123510   7.058   5.851   1.428 -0.0877  0.5993 -0.2605
 4160ntf    fn423511   6.936   5.519   1.789 -0.1740  0.2207  0.3809
 4160ntf    fn423512   6.733   5.497   1.835  0.4051 -0.2285  0.4231
 4160ntf    fn423513   6.805   5.451   1.641  0.4873  0.1474 -0.0845
 4160ntf    on523514   6.667   5.693   1.594 -0.3344  0.0199  0.2838
 4160ntf    on523515   6.769   5.779   1.801 -0.3495  0.3012 -0.0839
 4160ntf    on523516   6.846   5.752   1.353  0.2329  0.4431  0.1536
 4160ntf    on523517   7.031   5.599   1.423  0.4641  0.1970 -0.2293
 4160ntf    fn423518   7.179   5.822   1.472 -0.2348  0.2535 -0.0757
 4160ntf    fn423519   7.067   5.876   1.299 -0.3205  0.2916 -0.3367
 4160ntf    fn423520   7.011   5.961   1.487 -0.4552  0.2519  0.1096
 4161ntf    cn123521   2.135   6.844   2.893 -0.1747  0.3220  0.3596
 4161ntf    sn223522   2.244   6.701   2.924 -0.0830  0.3253  0.0572
 4161ntf    nn323523   2.232   6.685   3.080 -0.1128 -0.2547 -0.0039
 4161ntf    sn223524   2.334   6.746   3.182 -0.0658  0.1698 -0.2986
 4161ntf    cn123525   2.446   6.607   3.218 -0.1243  0.2215  0.0906
 4161ntf    fn423526   2.013   6.806   2.926  0.0192 -0.3582  0.3154
 4161ntf    fn423527   2.169   6.956   2.954 -0.1243  0.3025  0.3685
 4161ntf    fn423528   2.121   6.863   2.763  0.0161 -0.2527  0.2508
 4161ntf    on523529   2.169   6.590   2.870  0.3445 -0.0751  0.2864
 4161ntf    on523530   2.375   6.721   2.867  0.1532  0.1339  0.5256
 4161ntf    on523531   2.267   6.766   3.309 -0.4157  0.1062 -0.4718
 4161ntf    on523532   2.417   6.856   3.142 -0.3266  0.2531 -0.6134
 4161ntf    fn423533   2.375   6.508   3.268 -0.6566  0.2757 -0.5471
 4161ntf    fn423534   2.506   6.564   3.108 -0.2957 -0.5444  0.2956
 4161ntf    fn423535   2.540   6.640   3.306  0.0649 -0.0078 -0.0234
 4162ntf    cn123536   0.246   5.333   5.716  0.3029  0.2733  0.5699
 4162ntf    sn223537   0.142   5.221   5.814  0.3545 -0.0987  0.2011
 4162ntf    nn323538  -0.001   5.276   5.783  0.1408 -0.7645 -0.0180
 4162ntf    sn223539  -0.087   5.251   5.654  0.1801 -0.0891 -0.1799
 4162ntf    cn123540  -0.156   5.084   5.676 -0.4876  0.2136  0.0452
 4162ntf    fn423541   0.229   5.463   5.739 -0.6880  0.1500  0.5826
 4162ntf    fn423542   0.374   5.316   5.740  0.3565  0.2765  0.2952
 4162ntf    fn423543   0.231   5.327   5.584 -0.3073 -0.0344  0.6511
 4162ntf    on523544   0.165   5.087   5.765  0.1079 -0.0675 -0.0016
 4162ntf    on523545   0.172   5.245   5.953 -0.0922  0.3792  0.2166
 4162ntf    on523546  -0.017   5.239   5.529  0.0054 -0.9875 -0.2009
 4162ntf    on523547  -0.207   5.331   5.649  0.2988  0.1360  0.4137
 4162ntf    fn423548  -0.111   5.023   5.784  0.5332  0.4596 -0.2324
 4162ntf    fn423549  -0.288   5.089   5.686 -0.4702 -0.0902  0.4732
 4162ntf    fn423550  -0.131   5.007   5.572 -0.3015  0.0134  0.2405
 4163ntf    cn123551   1.457   1.345   1.940  0.0793 -0.1179 -0.2872
 4163ntf    sn223552   1.445   1.509   1.864  0.1876  0.0117 -0.0226
 4163ntf    nn323553   1.357   1.584   1.970 -0.1940  0.4297 -0.6276
 4163ntf    sn223554   1.201   1.587   1.986 -0.1194  0.0235  0.2314
 4163ntf    cn123555   1.190   1.744   2.078  0.3609  0.0776  0.1960
 4163ntf    fn423556   1.337   1.291   1.958 -0.1552  0.5091  0.0435
 4163ntf    fn423557   1.512   1.259   1.855 -0.4236 -0.3536 -0.3795
 4163ntf    fn423558   1.527   1.344   2.052 -0.2115  0.2874 -0.0974
 4163ntf    on523559   1.581   1.558   1.861 -0.0413  0.6509 -0.1165
 4163ntf    on523560   1.382   1.490   1.736 -0.0334  0.2001  0.0573
 4163ntf    on523561   1.144   1.491   2.078 -0.5436  0.0838  0.0359
 4163ntf    on523562   1.126   1.615   1.866 -0.5825  0.1957  0.5550
 4163ntf    fn423563   1.073   1.801   2.054  0.1850 -0.5070 -0.3613
 4163ntf    fn423564   1.208   1.719   2.207 -0.1208  0.7137  0.3888
 4163ntf    fn423565   1.286   1.828   2.042  0.5360 -0.2468 -0.1068
 4164ntf    cn123566   4.525   3.425   7.233  0.2419 -0.1556 -0.0802
 4164ntf    sn223567   4.535   3.513   7.074  0.2960 -0.1930 -0.0972
 4164ntf    nn323568   4.691   3.525   7.060  0.2982  0.0097  0.0869
 4164ntf    sn223569   4.791   3.643   7.083  0.1121  0.1894 -0.0216
 4164ntf    cn123570   4.951   3.566   7.043  0.0354 -0.1242  0.2731
 4164ntf    fn423571   4.600   3.317   7.221 -0.4376 -0.6371 -0.0543
 4164ntf    fn423572   4.567   3.484   7.343 -0.7836  0.0253  0.2271
 4164ntf    fn423573   4.401   3.393   7.266  0.1316  0.4116  0.0614
 4164ntf    on523574   4.464   3.424   6.986  0.0451 -0.2285  0.1409
 4164ntf    on523575   4.480   3.643   7.101 -0.3026 -0.5561  0.4634
 4164ntf    on523576   4.805   3.681   7.222 -0.0052  0.5285 -0.1007
 4164ntf    on523577   4.781   3.752   6.989  0.2341  0.7197  0.5675
 4164ntf    fn423578   4.957   3.449   7.105  0.3625 -0.4498 -0.3676
 4164ntf    fn423579   4.975   3.549   6.914  0.7136  0.2581  0.3425
 4164ntf    fn423580   5.055   3.633   7.091 -0.4845  0.7216  0.2373
 4165ntf    cn123581   1.087   2.217   2.571 -0.0734 -0.0715  0.6849
 4165ntf    sn223582   1.172   2.059   2.600 -0.0388 -0.1773  0.0334
 4165ntf    nn323583   1.302   2.076   2.514  0.0580 -1.2244 -0.0376
 4165ntf    sn223584   1.437   2.141   2.562 -0.2525 -0.2857 -0.4249
 4165ntf    cn123585   1.548   2.001   2.594 -0.1173  0.0678  0.6851
 4165ntf    fn423586   1.167   2.321   2.583  0.0971 -0.1858  0.5473
 4165ntf    fn423587   1.035   2.224   2.449 -0.0353  0.3053  0.6907
 4165ntf    fn423588   0.995   2.244   2.662 -0.6294  0.0901  0.0775
 4165ntf    on523589   1.192   2.041   2.742  0.3291  0.0997  0.0180
 4165ntf    on523590   1.080   1.962   2.548  0.7631 -0.4976 -0.8165
 4165ntf    on523591   1.437   2.209   2.689 -0.4884 -0.1911 -0.4751
 4165ntf    on523592   1.514   2.204   2.457  0.2411 -0.0432  0.0794
 4165ntf    fn423593   1.607   1.947   2.488 -0.5957  0.5616  0.1610
 4165ntf    fn423594   1.651   2.026   2.673  0.4149 -0.1456  0.0760
 4165ntf    fn423595   1.483   1.901   2.652  0.1687 -0.4649  0.0959
 4166ntf    cn123596   5.249   0.877   2.534  0.4502  0.1982 -0.1815
 4166ntf    sn223597   5.360   1.011   2.482  0.7076  0.2250  0.4275
 4166ntf    nn323598   5.414   1.063   2.620 -0.4617 -0.1446  1.0379
 4166ntf    sn223599   5.550   1.028   2.691 -0.0630 -0.0752  0.3207
 4166ntf    cn123600   5.646   1.177   2.650  0.1174 -0.1927  0.3192
 4166ntf    fn423601   5.302   0.788   2.617 -0.2797  0.1611  0.2525
 4166ntf    fn423602   5.144   0.917   2.604  0.5456 -0.3782  0.3034
 4166ntf    fn423603   5.196   0.814   2.430 -0.1124  0.0725  0.1746
 4166ntf    on523604   5.450   0.942   2.393  0.0756 -1.0101  0.7293
 4166ntf    on523605   5.260   1.103   2.434  0.2972 -0.2576  0.3459
 4166ntf    on523606   5.633   0.927   2.631 -0.0728  0.4551 -0.6097
 4166ntf    on523607   5.550   1.042   2.835 -0.2366  0.5120  0.2680
 4166ntf    fn423608   5.766   1.172   2.705  0.3025 -0.2048 -0.0790
 4166ntf    fn423609   5.674   1.173   2.521  0.0148  0.0750  0.2890
 4166ntf    fn423610   5.585   1.288   2.686  0.2788  0.0245 -0.0683
 4167ntf    cn123611   4.925   4.543   4.396  0.6290  0.2202 -0.0770
 4167ntf    sn223612   4.806   4.665   4.458 -0.2087 -0.6826  0.1240
 4167ntf    nn323613   4.903   4.773   4.518 -0.6042  0.1373 -0.6823
 4167ntf    sn223614   4.979   4.890   4.446  0.0752  0.3308  0.3124
 4167ntf    cn123615   4.881   5.027   4.514 -0.0187  0.3910  0.0599
 4167ntf    fn423616   4.982   4.469   4.489 -0.5569 -0.6131  0.0089
 4167ntf    fn423617   4.873   4.452   4.314  0.0913 -0.0390  0.5378
 4167ntf    fn423618   5.027   4.607   4.342  0.5124  0.1294 -0.4104
 4167ntf    on523619   4.738   4.710   4.339 -0.1707  0.0351  0.3650
 4167ntf    on523620   4.733   4.585   4.554 -0.8935 -0.1670  0.0429
 4167ntf    on523621   4.968   4.897   4.302 -0.2358 -0.1089  0.3098
 4167ntf    on523622   5.111   4.920   4.495  0.4059 -0.4313 -0.0859
 4167ntf    fn423623   4.859   5.010   4.644 -0.4807  0.2158 -0.0387
 4167ntf    fn423624   4.935   5.146   4.496 -0.3564  0.5208 -0.0936
 4167ntf    fn423625   4.760   5.025   4.461 -0.0086  0.1064  0.0454
 4168ntf    cn123626   0.359   2.846   0.960  0.1806 -0.0787 -0.1505
 4168ntf    sn223627   0.216   2.798   1.062  0.1701  0.1046 -0.0771
 4168ntf    nn323628   0.106   2.837   0.956 -0.1650 -0.3798  0.0899
 4168ntf    sn223629   0.018   2.967   0.948 -0.3593 -0.5271 -0.1872
 4168ntf    cn123630  -0.032   3.002   1.119  0.2646  0.2584 -0.1626
 4168ntf    fn423631   0.380   2.977   0.953  0.1792 -0.1081 -0.7463
 4168ntf    fn423632   0.470   2.808   1.020  0.1936  0.7946  0.4080
 4168ntf    fn423633   0.341   2.803   0.837 -0.2197  0.2682 -0.2190
 4168ntf    on523634   0.228   2.656   1.084  0.0875  0.1464  0.2385
 4168ntf    on523635   0.238   2.880   1.178 -0.1813 -0.2750  0.2597
 4168ntf    on523636  -0.105   2.950   0.875 -0.3293  0.3887 -0.4573
 4168ntf    on523637   0.098   3.082   0.916 -0.2158 -0.4766  0.3359
 4168ntf    fn423638   0.051   3.070   1.197  0.0224 -0.0590  0.3783
 4168ntf    fn423639  -0.145   3.071   1.118 -0.0006 -0.1711  0.0447
 4168ntf    fn423640  -0.054   2.885   1.176 -0.2693  0.3155 -0.2476
 4169ntf    cn123641   2.220   5.370   4.841  0.0073  0.1637  0.4272
 4169ntf    sn223642   2.234   5.194   4.884  0.0292  0.1016  0.1631
 4169ntf    nn323643   2.300   5.149   4.749  0.0415  0.1211  0.1624
 4169ntf    sn223644   2.305   5.004   4.688  0.3596  0.3317 -0.3155
 4169ntf    cn123645   2.168   5.007   4.568  0.1300  0.0056 -0.0630
 4169ntf    fn423646   2.337   5.432   4.843  0.0671  0.0594  0.1653
 4169ntf    fn423647   2.167   5.391   4.722 -0.0762  0.3784  0.5029
 4169ntf    fn423648   2.145   5.424   4.936  0.0822  0.2559  0.4351
 4169ntf    on523649   2.328   5.207   4.992  0.1243  0.7442  0.0072
 4169ntf    on523650   2.099   5.152   4.913  0.1781  0.0628  0.8223
 4169ntf    on523651   2.277   4.891   4.773  0.7713  0.2057 -0.3419
 4169ntf    on523652   2.424   4.988   4.607  0.7347 -0.2248  0.3370
 4169ntf    fn423653   2.184   5.097   4.472 -0.1330  0.5934  0.4343
 4169ntf    fn423654   2.162   4.890   4.508 -0.3273  0.1696 -0.3415
 4169ntf    fn423655   2.053   5.032   4.629  0.0179 -0.2441 -0.1718
 4170ntf    cn123656   6.682   5.380   4.717 -0.0182  0.1876  0.2653
 4170ntf    sn223657   6.766   5.285   4.847 -0.0242 -0.0837  0.0715
 4170ntf    nn323658   6.817   5.163   4.762 -0.0969 -0.0941  0.0433
 4170ntf    sn223659   6.738   5.043   4.699 -0.1339  0.1737 -0.4220
 4170ntf    cn123660   6.775   4.902   4.808 -0.2110  0.2151 -0.3411
 4170ntf    fn423661   6.760   5.398   4.611  0.0267  1.1498  0.4488
 4170ntf    fn423662   6.580   5.315   4.664  0.1105  0.2485 -0.0604
 4170ntf    fn423663   6.644   5.499   4.760  0.4352  0.3065  0.3413
 4170ntf    on523664   6.868   5.365   4.910 -0.3930  0.2891  0.1925
 4170ntf    on523665   6.670   5.238   4.943 -0.2204 -0.4133 -0.2812
 4170ntf    on523666   6.794   5.000   4.573  0.0489 -0.2341 -0.2027
 4170ntf    on523667   6.594   5.054   4.694 -0.2297 -0.7164  0.2341
 4170ntf    fn423668   6.717   4.797   4.753 -0.2031  0.4784 -0.8649
 4170ntf    fn423669   6.904   4.881   4.831 -0.2778  0.7905  0.6262
 4170ntf    fn423670   6.711   4.924   4.922  0.2756  0.0988 -0.0406
 4171ntf    cn123671   2.233   4.300   2.774  0.0531 -0.0573 -0.1387
 4171ntf    sn223672   2.335   4.450   2.781  0.0747 -0.0733 -0.1127
 4171ntf    nn323673   2.458   4.417   2.873 -0.2196 -0.2561  0.2198
 4171ntf    sn223674   2.511   4.489   3.002  0.1864 -0.2591  0.0559
 4171ntf    cn123675   2.661   4.389   3.027  0.2230 -0.0470  0.6989
 4171ntf    fn423676   2.206   4.238   2.887 -0.2019  0.4219  0.0666
 4171ntf    fn423677   2.121   4.327   2.707 -0.1036  0.0068  0.1485
 4171ntf    fn423678   2.293   4.207   2.702  0.3181  0.1384 -0.1730
 4171ntf    on523679   2.377   4.466   2.644  0.2864 -0.2188 -0.0654
 4171ntf    on523680   2.241   4.541   2.841 -0.1626  0.3356 -1.0791
 4171ntf    on523681   2.432   4.456   3.117 -0.2218  0.1430 -0.1067
 4171ntf    on523682   2.554   4.627   2.996  0.2262 -0.2479  0.5837
 4171ntf    fn423683   2.632   4.261   3.042 -0.7468  0.1062  0.2276
 4171ntf    fn423684   2.740   4.397   2.921  0.2032  0.1751  0.6997
 4171ntf    fn423685   2.729   4.417   3.137 -0.3794  0.2130  1.0123
 4172ntf    cn123686   5.062   0.214   1.929  0.0621  0.1406 -0.1650
 4172ntf    sn223687   5.093   0.040   1.887  0.1408  0.1475 -0.1356
 4172ntf    nn323688   5.162   0.056   1.746 -0.4282  0.4857 -0.3762
 4172ntf    sn223689   5.143  -0.028   1.615 -0.1063 -0.0920 -0.0560
 4172ntf    cn123690   5.310  -0.057   1.549 -0.1730  0.2587 -0.3854
 4172ntf    fn423691   4.985   0.274   1.839  0.3720  0.2055 -0.3872
 4172ntf    fn423692   5.001   0.224   2.046 -0.0426 -0.2752 -0.1827
 4172ntf    fn423693   5.172   0.288   1.935  0.2079 -0.0099 -0.8431
 4172ntf    on523694   5.191  -0.004   1.983  0.5106  0.0827 -0.5365
 4172ntf    on523695   4.959  -0.011   1.896  0.0370  0.5378  0.5414
 4172ntf    on523696   5.074   0.036   1.505  0.2115 -0.7569 -0.6512
 4172ntf    on523697   5.103  -0.163   1.644  0.3947 -0.1364  0.4290
 4172ntf    fn423698   5.321  -0.148   1.454  0.0460 -0.0179 -0.1015
 4172ntf    fn423699   5.373   0.050   1.503 -0.5636  0.5691 -0.2051
 4172ntf    fn423700   5.390  -0.099   1.646 -0.3834  0.0797 -0.2872
 4173ntf    cn123701   0.199   2.698   3.315 -0.1839  0.0110  0.0567
 4173ntf    sn223702   0.112   2.554   3.385  0.1633 -0.2450 -0.0386
 4173ntf    nn323703   0.132   2.459   3.261 -0.3160  0.3429 -0.5793
 4173ntf    sn223704   0.026   2.391   3.169 -0.2941 -0.2917 -0.1455
 4173ntf    cn123705   0.104   2.232   3.128 -0.2880 -0.2993 -0.1044
 4173ntf    fn423706   0.325   2.682   3.279 -0.4150  0.0571 -0.7822
 4173ntf    fn423707   0.142   2.727   3.199  0.4299 -0.2513 -0.3101
 4173ntf    fn423708   0.194   2.808   3.389  0.7887  0.0537  0.0633
 4173ntf    on523709   0.175   2.521   3.510  0.0362  0.6031  0.2577
 4173ntf    on523710  -0.022   2.607   3.394  0.4870  0.5160  0.3297
 4173ntf    on523711   0.025   2.463   3.044 -0.5255 -0.7887 -0.4337
 4173ntf    on523712  -0.104   2.351   3.218 -0.4473 -0.3449 -0.5860
 4173ntf    fn423713   0.147   2.173   3.239  0.1922  0.3803  0.0783
 4173ntf    fn423714   0.028   2.149   3.058 -0.2848 -0.1791 -0.2501
 4173ntf    fn423715   0.209   2.247   3.050 -0.1652 -0.2326  0.0722
 4174ntf    cn123716   2.671   2.572   6.093 -0.0993  0.2936  0.3132
 4174ntf    sn223717   2.615   2.617   6.260 -0.0552  0.4338  0.2902
 4174ntf    nn323718   2.713   2.526   6.342 -0.7655 -0.3282  0.3043
 4174ntf    sn223719   2.777   2.550   6.484 -0.5045 -0.2565  0.1749
 4174ntf    cn123720   2.836   2.381   6.515  0.0775 -0.0737  0.0684
 4174ntf    fn423721   2.794   2.611   6.068  0.1257 -0.5412  0.0866
 4174ntf    fn423722   2.682   2.441   6.078  0.0378  0.3041  0.3247
 4174ntf    fn423723   2.593   2.630   6.003 -0.1120  0.0414  0.1593
 4174ntf    on523724   2.631   2.760   6.267  0.2861  0.3874  0.4924
 4174ntf    on523725   2.483   2.562   6.277 -0.0625  0.3330 -0.0895
 4174ntf    on523726   2.701   2.586   6.601  0.2465 -0.3567  0.6984
 4174ntf    on523727   2.902   2.621   6.477 -0.4171 -0.3453  0.8625
 4174ntf    fn423728   2.742   2.295   6.482 -0.1577  0.2102 -0.0095
 4174ntf    fn423729   2.948   2.357   6.448 -0.1141  0.3613 -0.4204
 4174ntf    fn423730   2.867   2.355   6.641  0.0549  0.3652  0.1685
 4175ntf    cn123731   1.947   4.946   2.222  0.4807  0.0728  0.0571
 4175ntf    sn223732   1.798   5.051   2.220  0.3745 -0.0787 -0.1584
 4175ntf    nn323733   1.713   4.983   2.108  0.0344 -0.3319  0.2497
 4175ntf    sn223734   1.695   5.053   1.968  0.3951 -0.0871  0.3239
 4175ntf    cn123735   1.644   4.909   1.869  0.7684  0.1593 -0.2288
 4175ntf    fn423736   1.914   4.818   2.225  0.1528  0.1531  0.0154
 4175ntf    fn423737   2.016   4.970   2.112  0.1512 -0.2737 -0.2284
 4175ntf    fn423738   2.029   4.972   2.322  0.1543 -0.7083  0.5288
 4175ntf    on523739   1.749   5.036   2.355  0.2042  0.3763 -0.1659
 4175ntf    on523740   1.852   5.181   2.188 -0.0260  0.0607 -0.2633
 4175ntf    on523741   1.824   5.083   1.912  0.4597 -0.9591 -0.0218
 4175ntf    on523742   1.594   5.155   1.962  0.1067 -0.3965 -0.1151
 4175ntf    fn423743   1.538   4.844   1.913  0.5805  0.1695 -0.6634
 4175ntf    fn423744   1.602   4.942   1.748 -0.0600 -0.0079  0.0068
 4175ntf    fn423745   1.745   4.824   1.858  0.2726 -0.4616 -0.0450
 4176ntf    cn123746   2.988   0.489   1.362 -0.2824 -0.2151 -0.2301
 4176ntf    sn223747   2.930   0.591   1.224 -0.2195  0.1444  0.0099
 4176ntf    nn323748   2.949   0.503   1.095  0.3554 -0.8903  0.7937
 4176ntf    sn223749   3.059   0.508   0.983 -0.2412  0.6096  0.2490
 4176ntf    cn123750   2.980   0.599   0.848 -0.2477  0.2621  0.0178
 4176ntf    fn423751   2.930   0.370   1.360 -0.0233 -0.3395 -0.4856
 4176ntf    fn423752   3.118   0.464   1.367 -0.2407  0.2093  0.9102
 4176ntf    fn423753   2.956   0.550   1.474 -0.5633 -0.4133 -0.2033
 4176ntf    on523754   2.789   0.600   1.254 -0.2003 -0.1207  0.1755
 4176ntf    on523755   3.001   0.717   1.232  0.1396 -0.0698  0.1762
 4176ntf    on523756   3.072   0.376   0.927  0.3095  0.6303  0.3153
 4176ntf    on523757   3.175   0.588   1.018  0.5553 -0.3133 -0.2285
 4176ntf    fn423758   3.063   0.629   0.749 -0.1291 -0.0583  0.0210
 4176ntf    fn423759   2.875   0.536   0.798 -0.0675 -0.0175 -0.0062
 4176ntf    fn423760   2.935   0.719   0.882 -0.2153  0.2081  0.2511
 4177ntf    cn123761   7.045   0.535   6.821  0.2660 -0.2591  0.1803
 4177ntf    sn223762   7.141   0.681   6.869 -0.1642 -0.0472  0.4012
 4177ntf    nn323763   7.124   0.774   6.744 -0.0017 -0.2455  0.2312
 4177ntf    sn223764   6.984   0.824   6.693  0.2617 -0.0500 -0.3059
 4177ntf    cn123765   7.029   1.000   6.698 -0.2328  0.0739 -0.1464
 4177ntf    fn423766   6.927   0.570   6.772  0.3865 -0.4072 -0.2237
 4177ntf    fn423767   7.103   0.476   6.717 -0.0570  0.2919 -0.3192
 4177ntf    fn423768   7.023   0.441   6.911 -0.1497  0.0141  0.3643
 4177ntf    on523769   7.087   0.724   6.996 -0.3769 -0.3721  0.4209
 4177ntf    on523770   7.281   0.644   6.871 -0.1444 -0.0050 -0.0866
 4177ntf    on523771   6.885   0.819   6.797 -0.0124  0.0251 -0.5611
 4177ntf    on523772   6.951   0.799   6.555 -0.8194  0.0884 -0.0779
 4177ntf    fn423773   7.129   1.020   6.613  0.0852  0.1469  0.2433
 4177ntf    fn423774   6.928   1.071   6.650 -0.3093 -0.4591 -0.7902
 4177ntf    fn423775   7.048   1.036   6.824 -0.2989 -0.5028  0.0309
 4178ntf    cn123776   2.011   6.423   6.507  0.3239 -0.3065  0.1997
 4178ntf    sn223777   2.192   6.432   6.521  0.2946 -0.0824  0.4474
 4178ntf    nn323778   2.226   6.309   6.612 -0.1456 -0.1609  0.5110
 4178ntf    sn223779   2.258   6.306   6.766  0.0015  0.7810  0.5008
 4178ntf    cn123780   2.429   6.369   6.767  0.2368  0.1632 -0.0898
 4178ntf    fn423781   1.967   6.304   6.468  0.0485 -0.1314 -0.0256
 4178ntf    fn423782   1.941   6.451   6.616 -0.0839  0.1549 -0.1768
 4178ntf    fn423783   1.967   6.501   6.410 -0.5376 -0.2448  0.6222
 4178ntf    on523784   2.230   6.422   6.382  0.1103 -0.1735  0.4033
 4178ntf    on523785   2.209   6.563   6.578 -0.6833  0.1976  0.1274
 4178ntf    on523786   2.259   6.173   6.820 -0.3425  0.5251 -0.1102
 4178ntf    on523787   2.185   6.406   6.840 -0.7286  0.7080 -0.1073
 4178ntf    fn423788   2.470   6.405   6.888  0.1270  0.6588 -0.1984
 4178ntf    fn423789   2.514   6.285   6.709 -0.4237 -0.4410 -0.2059
 4178ntf    fn423790   2.433   6.478   6.694 -0.2089  0.2037 -0.0601
 4179ntf    cn123791   5.602   1.622   2.016  0.2793 -0.3462 -0.2668
 4179ntf    sn223792   5.741   1.553   1.921  0.4496 -0.3085 -0.0461
 4179ntf    nn323793   5.726   1.398   1.934  0.4235 -0.3605 -0.6700
 4179ntf    sn223794   5.635   1.299   1.853 -0.4084 -0.2984  0.1676
 4179ntf    cn123795   5.763   1.220   1.751 -0.5555 -0.3506  0.0222
 4179ntf    fn423796   5.555   1.538   2.107 -0.4085  0.3144 -0.0009
 4179ntf    fn423797   5.646   1.734   2.071 -0.1012 -0.2547 -0.1421
 4179ntf    fn423798   5.502   1.664   1.941 -0.1253  0.0135  0.4615
 4179ntf    on523799   5.721   1.606   1.788 -0.4816 -0.5856 -0.0215
 4179ntf    on523800   5.852   1.612   1.992  0.3293  0.6141 -0.6027
 4179ntf    on523801   5.541   1.345   1.754  0.2755  0.1531 -0.2798
 4179ntf    on523802   5.590   1.186   1.931 -0.8766 -0.2001  0.0440
 4179ntf    fn423803   5.827   1.286   1.657  0.1592 -0.2366  0.5827
 4179ntf    fn423804   5.860   1.164   1.821 -0.1656 -0.3141 -0.4800
 4179ntf    fn423805   5.716   1.119   1.678 -0.4181 -0.3563 -0.0586
 4180ntf    cn123806   6.791   0.212   2.981  0.2724  0.4459 -0.3824
 4180ntf    sn223807   6.776   0.366   3.076 -0.2000 -0.0539  0.3633
 4180ntf    nn323808   6.621   0.377   3.099 -0.2679 -0.0325 -0.0969
 4180ntf    sn223809   6.509   0.451   3.017 -0.1486  0.0598 -0.1770
 4180ntf    cn123810   6.447   0.562   3.147  0.4509 -0.2853  0.4131
 4180ntf    fn423811   6.737   0.105   3.036  0.6517  0.1145 -0.6494
 4180ntf    fn423812   6.721   0.229   2.870 -0.2621 -0.6460 -0.2311
 4180ntf    fn423813   6.914   0.189   2.940  0.2686 -0.9939  0.3613
 4180ntf    on523814   6.836   0.329   3.202  0.0594  0.2062  0.3183
 4180ntf    on523815   6.833   0.474   2.999 -0.5244  0.1303  0.3810
 4180ntf    on523816   6.393   0.369   2.993  0.1282 -0.4029  0.0362
 4180ntf    on523817   6.554   0.535   2.909 -0.4190 -0.0679 -0.3898
 4180ntf    fn423818   6.495   0.684   3.124 -0.4556  0.0181  0.1005
 4180ntf    fn423819   6.317   0.583   3.141  0.4424 -0.4582 -0.0733
 4180ntf    fn423820   6.474   0.534   3.273 -0.1835 -0.0739  0.5977
 4181ntf    cn123821   5.662   4.499   6.222  0.1096 -0.1411  0.2938
 4181ntf    sn223822   5.595   4.526   6.389  0.1919 -0.5136  0.3885
 4181ntf    nn323823   5.505   4.650   6.352  1.0049 -0.1673 -0.4580
 4181ntf    sn223824   5.517   4.803   6.385 -0.1651 -0.2523  0.3920
 4181ntf    cn123825   5.439   4.803   6.550 -0.3733  0.0555  0.2949
 4181ntf    fn423826   5.559   4.523   6.142  0.5772  1.0687  0.0288
 4181ntf    fn423827   5.761   4.581   6.192 -0.1046 -0.1246 -0.4010
 4181ntf    fn423828   5.697   4.373   6.209  0.5033 -0.0137  0.1138
 4181ntf    on523829   5.506   4.421   6.432 -0.5835  0.0038  0.0877
 4181ntf    on523830   5.716   4.544   6.465  0.1107  0.2955  0.3373
 4181ntf    on523831   5.419   4.882   6.314  0.5851  0.2729 -0.0726
 4181ntf    on523832   5.645   4.862   6.414 -0.2549 -0.0419  0.3615
 4181ntf    fn423833   5.413   4.924   6.597  0.2620  0.3709 -0.1519
 4181ntf    fn423834   5.322   4.742   6.549 -0.6043  0.4967  0.1232
 4181ntf    fn423835   5.519   4.751   6.642 -0.3967  0.2029  0.4005
 4182ntf    cn123836   2.718   4.877   2.216 -0.1682 -0.2185 -0.5725
 4182ntf    sn223837   2.635   4.985   2.336  0.2988  0.1711 -0.5947
 4182ntf    nn323838   2.526   5.049   2.242 -0.3533  0.3550  0.2710
 4182ntf    sn223839   2.455   5.188   2.232 -0.5085  0.2559 -0.0127
 4182ntf    cn123840   2.293   5.106   2.238 -0.3340 -0.0833  0.0601
 4182ntf    fn423841   2.787   4.949   2.129  0.4656 -0.1117 -0.0008
 4182ntf    fn423842   2.806   4.792   2.268 -0.3776 -0.1473 -0.0961
 4182ntf    fn423843   2.639   4.799   2.144 -0.3118 -0.1542 -0.4845
 4182ntf    on523844   2.587   4.896   2.439  0.0827  0.7391 -0.2015
 4182ntf    on523845   2.755   5.057   2.370  0.4527 -0.3350 -0.0472
 4182ntf    on523846   2.463   5.253   2.103 -0.2530 -0.2269 -0.2431
 4182ntf    on523847   2.454   5.276   2.346  0.5209 -0.1946  0.3614
 4182ntf    fn423848   2.195   5.190   2.212 -0.1508  0.1436  0.1024
 4182ntf    fn423849   2.294   5.021   2.136 -0.1288 -0.2705  0.2152
 4182ntf    fn423850   2.279   5.038   2.350  0.1184 -0.5216 -0.1410
 4183ntf    cn123851   5.193   6.563   6.937  0.3897  0.1996  0.1349
 4183ntf    sn223852   5.235   6.736   6.977  0.3915  0.2475 -0.0747
 4183ntf    nn323853   5.172   6.743   7.121 -0.3143 -0.6452 -0.3265
 4183ntf    sn223854   5.243   6.743   7.261 -0.0407  0.0941 -0.4591
 4183ntf    cn123855   5.283   6.568   7.289  0.0428  0.2148  0.1936
 4183ntf    fn423856   5.263   6.486   7.019  0.3822 -0.3210 -0.3491
 4183ntf    fn423857   5.065   6.548   6.967  0.2466 -0.1110 -0.6183
 4183ntf    fn423858   5.208   6.533   6.809  0.8871  0.5533  0.1053
 4183ntf    on523859   5.377   6.747   6.958  0.3881  0.2845 -0.0818
 4183ntf    on523860   5.154   6.813   6.885  0.6175  0.5824  0.0055
 4183ntf    on523861   5.144   6.775   7.361  0.0950 -0.2108 -0.2263
 4183ntf    on523862   5.366   6.817   7.271  0.1046 -0.2818  0.7873
 4183ntf    fn423863   5.350   6.561   7.403  0.3070 -0.7698 -0.0078
 4183ntf    fn423864   5.175   6.494   7.312  0.2002 -0.2650 -0.5794
 4183ntf    fn423865   5.356   6.501   7.201 -0.1820  0.3754 -0.1166
 4184ntf    cn123866   4.462   0.243   1.286  0.3989  0.2694 -0.4934
 4184ntf    sn223867   4.551   0.117   1.188  0.4382 -0.1892  0.1247
 4184ntf    nn323868   4.523  -0.012   1.273  0.3168 -0.2640 -0.0287
 4184ntf    sn223869   4.603  -0.058   1.400  0.1484 -0.0247  0.1635
 4184ntf    cn123870   4.743  -0.155   1.337 -0.0826 -0.1304 -0.1855
 4184ntf    fn423871   4.335   0.213   1.303  0.3714  0.6788  0.0533
 4184ntf    fn423872   4.519   0.270   1.402 -0.1505  0.0909 -0.1818
 4184ntf    fn423873   4.478   0.360   1.227  0.7555  0.0417 -0.8565
 4184ntf    on523874   4.476   0.124   1.066  0.4500 -0.0310  0.1258
 4184ntf    on523875   4.690   0.155   1.184  0.3388  0.2126  0.3730
 4184ntf    on523876   4.521  -0.155   1.469  0.0609 -0.1423 -0.1078
 4184ntf    on523877   4.654   0.052   1.480  0.2422 -0.2436  0.4062
 4184ntf    fn423878   4.774  -0.256   1.417 -0.8527 -0.0955  0.1676
 4184ntf    fn423879   4.711  -0.209   1.220 -0.3725 -0.4378  0.0298
 4184ntf    fn423880   4.858  -0.092   1.324 -0.1448 -0.0027 -0.1190
 4185ntf    cn123881   5.145   2.990   6.343 -0.5651  0.1960 -0.1289
 4185ntf    sn223882   5.158   3.066   6.507 -0.1269 -0.0477 -0.0517
 4185ntf    nn323883   5.034   3.161   6.493  0.1576  0.3584  0.1583
 4185ntf    sn223884   4.994   3.286   6.408  0.0568  0.1340 -0.1249
 4185ntf    cn123885   5.004   3.414   6.537  0.6095  0.1759 -0.2082
 4185ntf    fn423886   5.243   2.905   6.319 -0.4859  0.2085  0.1439
 4185ntf    fn423887   5.036   2.916   6.326 -0.3217 -0.1765 -0.0516
 4185ntf    fn423888   5.135   3.079   6.245 -0.5236 -0.1861 -0.4836
 4185ntf    on523889   5.119   2.964   6.601 -0.7020 -0.3442 -0.6076
 4185ntf    on523890   5.288   3.128   6.521  0.0326 -0.3955  0.0252
 4185ntf    on523891   4.857   3.275   6.363 -0.1367 -0.4340  0.5815
 4185ntf    on523892   5.089   3.331   6.309 -0.0289 -0.2969 -0.4033
 4185ntf    fn423893   5.129   3.430   6.576  0.5601 -0.5647  0.2750
 4185ntf    fn423894   4.971   3.529   6.481 -0.0286  0.2322  0.2754
 4185ntf    fn423895   4.930   3.383   6.643  0.1390  0.7903 -0.3553
 4186ntf    cn123896   3.040   5.362   6.330 -0.0444  0.3179  0.1011
 4186ntf    sn223897   2.870   5.346   6.266  0.0414  0.0066 -0.0479
 4186ntf    nn323898   2.783   5.376   6.393  0.1235  0.4574 -0.0952
 4186ntf    sn223899   2.650   5.458   6.405 -0.1732 -0.0315 -0.0085
 4186ntf    cn123900   2.563   5.413   6.252 -0.4783 -0.0040  0.1554
 4186ntf    fn423901   3.128   5.289   6.265 -0.2965  0.2090 -0.1200
 4186ntf    fn423902   3.084   5.487   6.322 -0.8617  0.5992 -0.1800
 4186ntf    fn423903   3.049   5.336   6.460 -0.3313  0.0677  0.0719
 4186ntf    on523904   2.870   5.449   6.165  0.2529 -0.3167 -0.3782
 4186ntf    on523905   2.869   5.212   6.212  0.1863 -0.1289  0.2788
 4186ntf    on523906   2.664   5.602   6.402 -0.2140 -0.0323 -0.2114
 4186ntf    on523907   2.562   5.404   6.507 -0.4415 -0.1386 -0.2960
 4186ntf    fn423908   2.584   5.287   6.216  0.3769  0.2750 -0.3551
 4186ntf    fn423909   2.432   5.431   6.256 -0.6449 -1.0175 -0.3076
 4186ntf    fn423910   2.603   5.484   6.148 -0.6323 -0.3595 -0.1513
 4187ntf    cn123911   1.459   0.530   0.752  0.1252  0.5007  0.2461
 4187ntf    sn223912   1.409   0.512   0.578  0.1744 -0.1060  0.2945
 4187ntf    nn323913   1.312   0.389   0.586 -0.1493  0.1419  0.1856
 4187ntf    sn223914   1.338   0.243   0.534 -0.0758  0.1612  0.1681
 4187ntf    cn123915   1.190   0.169   0.609  0.1324 -0.5828 -0.1502
 4187ntf    fn423916   1.562   0.458   0.793  0.0113  0.3491  0.2667
 4187ntf    fn423917   1.477   0.657   0.784 -0.2797  0.6307 -0.0363
 4187ntf    fn423918   1.360   0.485   0.827  0.7609 -0.2824  0.6188
 4187ntf    on523919   1.327   0.624   0.543  0.6030  0.1074 -0.0388
 4187ntf    on523920   1.529   0.497   0.499 -0.3098 -0.5677 -0.3634
 4187ntf    on523921   1.445   0.169   0.596 -0.2092  0.0471  0.2630
 4187ntf    on523922   1.315   0.223   0.393  0.4803  1.2341 -0.0834
 4187ntf    fn423923   1.167   0.216   0.730 -0.2348 -0.4582 -0.2661
 4187ntf    fn423924   1.083   0.204   0.540  0.5216 -0.2464 -0.5849
 4187ntf    fn423925   1.188   0.036   0.615  0.3394 -0.5966 -0.3601
 4188ntf    cn123926   3.317   6.332   5.801  0.0413 -0.0387  0.4251
 4188ntf    sn223927   3.408   6.197   5.719 -0.1012 -0.2303  0.5804
 4188ntf    nn323928   3.443   6.267   5.583  0.0317  0.0875  0.7770
 4188ntf    sn223929   3.555   6.359   5.523 -0.3050  0.0194  0.0301
 4188ntf    cn123930   3.651   6.225   5.446 -0.2623 -0.1343  0.3480
 4188ntf    fn423931   3.321   6.337   5.933 -0.4853  0.1850  0.4383
 4188ntf    fn423932   3.369   6.447   5.762  0.0598 -0.2900 -0.3106
 4188ntf    fn423933   3.188   6.331   5.771  0.1123 -0.2717  0.1164
 4188ntf    on523934   3.520   6.175   5.807  0.5947 -0.4640 -0.3547
 4188ntf    on523935   3.309   6.092   5.711 -0.1691 -0.0899 -0.5138
 4188ntf    on523936   3.644   6.418   5.621  0.1008 -0.3728 -0.1021
 4188ntf    on523937   3.507   6.436   5.411 -0.2693 -0.3687 -0.2539
 4188ntf    fn423938   3.768   6.273   5.407 -0.7088 -0.0118 -0.8935
 4188ntf    fn423939   3.681   6.124   5.526  0.4174  0.2593  0.6011
 4188ntf    fn423940   3.595   6.168   5.341 -0.4959  0.3667  0.1966
 4189ntf    cn123941   2.064   1.081   1.290  0.0568 -0.0940  0.0656
 4189ntf    sn223942   2.093   1.075   1.469  0.0618  0.2020  0.0746
 4189ntf    nn323943   2.055   1.224   1.502 -0.5612  0.0044  0.2644
 4189ntf    sn223944   2.146   1.342   1.552 -0.0943 -0.2063 -0.0861
 4189ntf    cn123945   2.078   1.481   1.457  0.3637  0.5049  0.6199
 4189ntf    fn423946   2.124   1.189   1.241  0.1330 -0.0117  0.3402
 4189ntf    fn423947   2.114   0.978   1.223 -0.3773 -0.4852  0.3413
 4189ntf    fn423948   1.934   1.084   1.264  0.0540 -0.4767  0.0255
 4189ntf    on523949   2.008   0.965   1.508  0.5839 -0.2519 -0.0651
 4189ntf    on523950   2.235   1.056   1.460 -0.0191 -0.4152  0.0588
 4189ntf    on523951   2.284   1.344   1.511 -0.3271  0.5337 -0.8726
 4189ntf    on523952   2.115   1.385   1.686 -0.2324 -1.2385  0.2251
 4189ntf    fn423953   2.097   1.471   1.327 -0.3406 -0.0091  0.5549
 4189ntf    fn423954   1.949   1.509   1.472  0.2757  0.5272 -0.1571
 4189ntf    fn423955   2.143   1.591   1.493  0.5411  0.5415  0.1986
 4190ntf    cn123956   7.190   5.833   5.739  0.3445 -0.2281 -0.5559
 4190ntf    sn223957   7.313   5.739   5.834  0.0266 -0.0690  0.0198
 4190ntf    nn323958   7.407   5.856   5.879  0.5457 -0.4443 -0.0777
 4190ntf    sn223959   7.561   5.870   5.905  0.5022  0.1819 -0.1430
 4190ntf    cn123960   7.631   5.902   5.740  0.2430  0.4528 -0.2002
 4190ntf    fn423961   7.249   5.915   5.654  0.1736  0.2821 -0.1898
 4190ntf    fn423962   7.112   5.753   5.668  0.0077 -0.2153 -0.2025
 4190ntf    fn423963   7.118   5.912   5.817  0.6278 -0.0542 -0.4699
 4190ntf    on523964   7.241   5.679   5.944 -0.4896 -0.5397 -0.5697
 4190ntf    on523965   7.365   5.652   5.732  0.6428  0.4698 -0.1338
 4190ntf    on523966   7.632   5.752   5.948  0.5880  0.1905 -0.2618
 4190ntf    on523967   7.590   5.993   5.976  0.6488 -0.2276  0.5121
 4190ntf    fn423968   7.614   6.032   5.716 -0.0185  0.5944  0.7044
 4190ntf    fn423969   7.759   5.878   5.718  0.1039 -0.0138 -0.5120
 4190ntf    fn423970   7.567   5.841   5.642  0.1594 -0.4227  0.3898
 4191ntf    cn123971   2.321   0.651   3.624 -0.1881 -0.1960 -0.6174
 4191ntf    sn223972   2.250   0.488   3.587 -0.3927 -0.2789  0.1371
 4191ntf    nn323973   2.144   0.534   3.480 -0.5473 -0.4349  0.2225
 4191ntf    sn223974   2.164   0.499   3.329 -0.3089 -0.1060  0.1775
 4191ntf    cn123975   2.003   0.560   3.272 -0.3169 -0.0879  0.2201
 4191ntf    fn423976   2.245   0.732   3.695 -0.2599  0.0588 -0.9815
 4191ntf    fn423977   2.444   0.640   3.673 -0.1435  0.7112 -0.5040
 4191ntf    fn423978   2.346   0.710   3.508  0.2526 -0.1159 -0.4834
 4191ntf    on523979   2.361   0.410   3.539 -0.0531  0.1500  0.2178
 4191ntf    on523980   2.183   0.439   3.706 -0.5611  0.2250  0.2527
 4191ntf    on523981   2.168   0.357   3.304  0.3284 -0.0483 -0.0734
 4191ntf    on523982   2.245   0.588   3.250 -0.3791 -0.1191  0.0905
 4191ntf    fn423983   1.983   0.691   3.279 -0.0939 -0.0468  0.0997
 4191ntf    fn423984   1.976   0.528   3.146 -0.3291  0.9405 -0.0506
 4191ntf    fn423985   1.913   0.500   3.348 -0.3472  0.4978  0.6540
 4192ntf    cn123986   1.461   6.386   3.051 -0.2778  0.4171  0.0813
 4192ntf    sn223987   1.454   6.206   3.079 -0.1931  0.3987 -0.0117
 4192ntf    nn323988   1.582   6.163   2.999  0.0578  0.2229  0.4813
 4192ntf    sn223989   1.731   6.153   3.046  0.1987 -0.0803 -0.0166
 4192ntf    cn123990   1.738   5.974   3.078 -0.0692 -0.1064 -0.1017
 4192ntf    fn423991   1.573   6.445   3.088  0.0595 -0.4224  0.4376
 4192ntf    fn423992   1.441   6.414   2.923  0.2284  0.1988 -0.0498
 4192ntf    fn423993   1.361   6.438   3.120 -0.5123  0.0146  0.0497
 4192ntf    on523994   1.464   6.190   3.222 -0.2585  0.1533 -0.0347
 4192ntf    on523995   1.330   6.163   3.018 -0.3772 -0.2433  0.8001
 4192ntf    on523996   1.770   6.221   3.167  0.7915  0.0117 -0.2524
 4192ntf    on523997   1.829   6.164   2.941  0.3283 -0.3321  0.0770
 4192ntf    fn423998   1.839   5.940   3.156 -0.2890 -0.8295 -0.1280
 4192ntf    fn423999   1.623   5.920   3.114  0.0921 -0.3652  0.0286
 4192ntf    fn424000   1.767   5.907   2.968  0.1050 -0.5588  0.2188
 4193ntf    cn124001   5.204   4.987   0.946 -0.0833  0.1317 -0.0010
 4193ntf    sn224002   5.163   5.084   0.798 -0.2467  0.2291  0.1080
 4193ntf    nn324003   5.202   5.229   0.843 -0.4571  0.1541  0.5362
 4193ntf    sn224004   5.106   5.344   0.889 -0.2565  0.6157 -0.1767
 4193ntf    cn124005   5.197   5.407   1.033  0.2504 -0.0779 -0.1929
 4193ntf    fn424006   5.183   4.857   0.931 -0.2061  0.1403  0.0931
 4193ntf    fn424007   5.326   5.019   0.986 -0.1973  0.6529 -0.0629
 4193ntf    fn424008   5.125   5.024   1.045  0.0072 -0.1336  0.1715
 4193ntf    on524009   5.247   5.018   0.701  0.0548  0.4772  0.2017
 4193ntf    on524010   5.023   5.063   0.772 -0.0480 -0.8510 -0.1304
 4193ntf    on524011   4.981   5.306   0.950  0.0778 -0.2822 -0.0340
 4193ntf    on524012   5.105   5.447   0.788 -0.0736  0.3768 -0.4231
 4193ntf    fn424013   5.325   5.425   1.002  0.1736  0.4800 -0.1845
 4193ntf    fn424014   5.158   5.524   1.079 -0.1250 -0.1540 -0.3199
 4193ntf    fn424015   5.193   5.336   1.145  0.1214  0.1819 -0.0320
 4194ntf    cn124016   0.000   1.177   6.888  0.2323 -0.2460  0.0803
 4194ntf    sn224017   0.144   1.176   7.000  0.4142  0.1820 -0.1480
 4194ntf    nn324018   0.184   1.328   7.003  0.2123  0.2357 -0.1033
 4194ntf    sn224019   0.171   1.427   7.124  0.0718 -0.2003  0.2436
 4194ntf    cn124020   0.333   1.400   7.202  0.2853  0.2459 -0.0384
 4194ntf    fn424021  -0.101   1.244   6.939  0.3518 -0.3248  0.4224
 4194ntf    fn424022   0.025   1.226   6.767 -0.1123  0.2236  0.1972
 4194ntf    fn424023  -0.045   1.053   6.875 -0.2188 -0.0830  0.0883
 4194ntf    on524024   0.088   1.121   7.121 -0.0091  0.1167 -0.3716
 4194ntf    on524025   0.242   1.094   6.933  0.2881 -0.2680  0.2153
 4194ntf    on524026   0.080   1.402   7.233 -0.3480  0.1124 -0.0334
 4194ntf    on524027   0.172   1.564   7.080  0.1837 -0.3290 -0.1564
 4194ntf    fn424028   0.362   1.278   7.242  0.1111  0.2473  0.0933
 4194ntf    fn424029   0.433   1.448   7.130 -0.2111 -0.0700 -0.9531
 4194ntf    fn424030   0.341   1.469   7.315 -0.3182  0.6439 -0.2327
 4195ntf    cn124031   5.090   0.584   2.937 -0.2229 -0.4026  0.2933
 4195ntf    sn224032   4.931   0.507   2.981 -0.2632 -0.3800  0.1884
 4195ntf    nn324033   4.967   0.361   3.024 -0.1010 -0.3477  0.1613
 4195ntf    sn224034   4.970   0.279   3.158  0.0401 -0.2789  0.2004
 4195ntf    cn124035   5.135   0.204   3.143  0.0478 -0.2516  0.1448
 4195ntf    fn424036   5.079   0.701   2.877 -0.4371 -0.3870  0.3596
 4195ntf    fn424037   5.168   0.596   3.043  0.1461  0.2868 -0.0553
 4195ntf    fn424038   5.159   0.502   2.859  0.0102  0.1226 -0.0608
 4195ntf    on524039   4.877   0.588   3.087 -0.6917  0.0311 -0.3352
 4195ntf    on524040   4.865   0.506   2.852  0.5977 -0.0867 -0.2607
 4195ntf    on524041   4.872   0.174   3.147 -0.2598 -0.0088  0.2882
 4195ntf    on524042   4.974   0.354   3.281 -0.6382 -0.3392  0.2600
 4195ntf    fn424043   5.142   0.081   3.191  0.0795 -0.1357  0.4375
 4195ntf    fn424044   5.160   0.187   3.014 -0.3564 -0.3819  0.0844
 4195ntf    fn424045   5.231   0.281   3.191 -0.1142  0.3170 -0.4309
 4196ntf    cn124046   6.665   3.787   6.891 -0.1956 -0.3950 -0.1784
 4196ntf    sn224047   6.793   3.664   6.931 -0.0522 -0.0492  0.4413
 4196ntf    nn324048   6.915   3.711   6.844 -0.4658 -0.2874 -0.2786
 4196ntf    sn224049   6.981   3.653   6.714  0.2744 -0.1683  0.0406
 4196ntf    cn124050   7.107   3.553   6.799  0.0283 -0.4530  0.0744
 4196ntf    fn424051   6.638   3.792   6.762 -0.4149 -0.5926 -0.1427
 4196ntf    fn424052   6.548   3.762   6.949 -0.3681 -0.4787 -0.5568
 4196ntf    fn424053   6.698   3.911   6.923  0.2435 -0.4592 -0.3820
 4196ntf    on524054   6.816   3.695   7.070 -0.1343  0.8076  0.2689
 4196ntf    on524055   6.728   3.539   6.897  0.0566 -0.0316  0.1682
 4196ntf    on524056   7.062   3.751   6.647  0.4468 -0.3491 -0.0151
 4196ntf    on524057   6.897   3.566   6.634  0.6438 -0.7912  0.3186
 4196ntf    fn424058   7.208   3.524   6.719 -0.0284 -0.2425 -0.0743
 4196ntf    fn424059   7.166   3.628   6.892 -0.5370  0.1567 -0.0498
 4196ntf    fn424060   7.073   3.441   6.861 -0.5911  0.0799  0.7121
 4197ntf    cn124061   2.427   3.243   1.812 -0.2879 -0.2020 -0.0424
 4197ntf    sn224062   2.250   3.255   1.773 -0.2468 -0.0619 -0.1902
 4197ntf    nn324063   2.219   3.361   1.885 -0.2135  0.1714 -0.4017
 4197ntf    sn224064   2.202   3.517   1.887 -0.0244  0.1889 -0.0818
 4197ntf    cn124065   2.354   3.559   1.978  0.3517 -0.6348 -0.3285
 4197ntf    fn424066   2.482   3.364   1.808 -0.2284 -0.2262  0.0521
 4197ntf    fn424067   2.457   3.191   1.930 -0.3749  0.2370  0.1759
 4197ntf    fn424068   2.493   3.168   1.725  0.5046  0.1285  0.2645
 4197ntf    on524069   2.242   3.321   1.645 -0.5010  0.2778 -0.0038
 4197ntf    on524070   2.201   3.121   1.792 -0.1506 -0.1059 -0.2591
 4197ntf    on524071   2.096   3.561   1.976 -0.2119 -0.4520  0.0146
 4197ntf    on524072   2.223   3.591   1.765 -0.2734  0.0075 -0.2362
 4197ntf    fn424073   2.460   3.537   1.902  0.4837 -0.2746 -0.2479
 4197ntf    fn424074   2.349   3.684   2.020 -0.1006 -0.6057 -0.4669
 4197ntf    fn424075   2.370   3.483   2.085 -0.2230 -0.3344 -0.0246
 4198ntf    cn124076   4.080   6.997   4.403  0.1878  0.0092 -0.3133
 4198ntf    sn224077   4.155   6.995   4.237  0.3072 -0.0381 -0.2591
 4198ntf    nn324078   4.029   7.050   4.162  0.2817  0.3699  0.0723
 4198ntf    sn224079   3.992   7.192   4.106  0.0684  0.1408 -0.3751
 4198ntf    cn124080   3.876   7.272   4.220 -0.2293 -1.0301  0.1562
 4198ntf    fn424081   3.962   6.937   4.408  0.3031 -0.2578 -0.7266
 4198ntf    fn424082   4.150   6.933   4.496 -0.0254  0.2562  0.0161
 4198ntf    fn424083   4.051   7.113   4.458 -0.2306  0.0355 -0.5890
 4198ntf    on524084   4.264   7.090   4.240  0.3607 -0.1088  0.0891
 4198ntf    on524085   4.192   6.858   4.214  0.0326 -0.1719  0.0764
 4198ntf    on524086   3.912   7.176   3.987 -0.8146 -0.0787  0.2421
 4198ntf    on524087   4.101   7.287   4.096  0.0063  0.2968  0.4200
 4198ntf    fn424088   3.841   7.393   4.178  0.1278 -0.9857 -0.0202
 4198ntf    fn424089   3.763   7.213   4.256 -0.5412 -0.4892  0.0870
 4198ntf    fn424090   3.942   7.302   4.330 -0.1849 -0.8100  0.0687
 4199ntf    cn124091   2.906   5.797   1.084 -0.2292 -0.5037 -0.0987
 4199ntf    sn224092   3.041   5.769   0.965 -0.3441  0.2649 -0.4143
 4199ntf    nn324093   3.131   5.658   1.029 -0.5875 -0.0040 -0.5403
 4199ntf    sn224094   3.170   5.510   0.993 -0.1826 -0.0043 -0.1185
 4199ntf    cn124095   3.156   5.417   1.148  0.2043  0.3213  0.1147
 4199ntf    fn424096   2.823   5.695   1.101 -0.7180 -0.0330  0.3763
 4199ntf    fn424097   2.941   5.824   1.209 -0.3478  0.7980 -0.3336
 4199ntf    fn424098   2.827   5.896   1.046  0.1172 -0.5439 -0.9531
 4199ntf    on524099   2.980   5.742   0.837  0.0838 -0.0984 -0.5449
 4199ntf    on524100   3.113   5.894   0.964  0.2517 -0.0713 -0.0735
 4199ntf    on524101   3.312   5.504   0.970 -0.1343 -0.1470  0.2165
 4199ntf    on524102   3.096   5.430   0.899 -0.7184 -0.0963  0.3753
 4199ntf    fn424103   3.240   5.458   1.242  0.1896  0.2915  0.1412
 4199ntf    fn424104   3.030   5.434   1.187  0.1160 -0.3532  0.1464
 4199ntf    fn424105   3.169   5.286   1.132  0.2661  0.2875  0.4401
 4200ntf    cn124106   1.896   1.828   2.822  0.1810  0.0048 -0.0085
 4200ntf    sn224107   1.969   1.895   2.974 -0.0079  0.2414 -0.0219
 4200ntf    nn324108   1.952   2.046   2.935 -0.1616  0.2002 -0.1134
 4200ntf    sn224109   2.060   2.136   2.864 -0.2112  0.2189 -0.1656
 4200ntf    cn124110   1.954   2.276   2.815 -0.3209  0.2521  0.1617
 4200ntf    fn424111   1.869   1.699   2.833 -0.8130  0.2232  0.1902
 4200ntf    fn424112   1.783   1.885   2.784  0.1101  0.0422  0.2604
 4200ntf    fn424113   1.983   1.827   2.722  0.1567 -0.1313 -0.0286
 4200ntf    on524114   1.876   1.844   3.072 -0.1729  0.6303  0.0254
 4200ntf    on524115   2.103   1.842   2.970 -0.2123 -0.2687 -0.1360
 4200ntf    on524116   2.123   2.096   2.741  0.2413  0.6471 -0.0757
 4200ntf    on524117   2.146   2.193   2.965 -0.7540 -0.1514  0.5214
 4200ntf    fn424118   1.928   2.350   2.921 -0.2063 -0.0900  0.4335
 4200ntf    fn424119   2.012   2.357   2.729 -0.2609 -0.3442 -0.3643
 4200ntf    fn424120   1.839   2.246   2.757 -0.1031 -0.0042 -0.1370
 4201ntf    cn124121   2.924   2.069   0.716  0.2985  0.0420  0.3448
 4201ntf    sn224122   3.088   2.141   0.749  0.2787 -0.0530  0.6499
 4201ntf    nn324123   3.183   2.017   0.739  0.3084  0.0331 -0.2058
 4201ntf    sn224124   3.303   1.962   0.824 -0.0428 -0.2516  0.1113
 4201ntf    cn124125   3.217   1.818   0.894  0.2622 -0.5745 -0.1765
 4201ntf    fn424126   2.904   2.059   0.585  0.0643 -0.1045  0.3929
 4201ntf    fn424127   2.918   1.947   0.766  0.1788 -0.1989 -0.2470
 4201ntf    fn424128   2.823   2.144   0.756  0.4207  0.2809  0.2117
 4201ntf    on524129   3.105   2.235   0.641 -0.2289 -0.0112  0.6030
 4201ntf    on524130   3.064   2.195   0.881 -0.1596  0.3094  0.4270
 4201ntf    on524131   3.333   2.037   0.944  0.5060 -0.0905 -0.1235
 4201ntf    on524132   3.410   1.910   0.743 -0.6434 -0.7886 -0.3419
 4201ntf    fn424133   3.290   1.766   0.992 -0.2174 -0.3138  0.3267
 4201ntf    fn424134   3.100   1.838   0.952  0.4454 -0.3916  0.1379
 4201ntf    fn424135   3.200   1.718   0.809 -0.0199 -0.6247 -0.0596
 4202ntf    cn124136   2.187   6.745   1.336 -0.3641  0.4041 -0.5031
 4202ntf    sn224137   2.151   6.578   1.273  0.0565  0.1592 -0.1086
 4202ntf    nn324138   2.249   6.489   1.358 -0.5817 -0.5209 -0.0744
 4202ntf    sn224139   2.239   6.334   1.376  0.1753 -0.5176  0.4018
 4202ntf    cn124140   2.117   6.329   1.510 -0.1986 -0.5723  0.0625
 4202ntf    fn424141   2.317   6.764   1.320 -0.3025  0.3141 -0.1373
 4202ntf    fn424142   2.119   6.840   1.276 -1.0037  0.1894 -0.1282
 4202ntf    fn424143   2.161   6.758   1.465 -0.1400 -0.4683 -0.3637
 4202ntf    on524144   2.011   6.573   1.307  0.1486 -0.2713  0.2071
 4202ntf    on524145   2.180   6.588   1.132  0.0857  0.6264 -0.0730
 4202ntf    on524146   2.358   6.285   1.442  0.7595  0.0153 -0.2448
 4202ntf    on524147   2.181   6.263   1.265 -0.4584  0.0630  0.3586
 4202ntf    fn424148   2.157   6.406   1.610 -0.3360 -0.0014 -0.3166
 4202ntf    fn424149   1.997   6.369   1.472 -0.0579 -0.3316 -0.1300
 4202ntf    fn424150   2.103   6.210   1.565 -0.3872 -0.5041  0.1657
 4203ntf    cn124151   3.977   2.684   3.782 -0.0114 -0.3139 -0.0627
 4203ntf    sn224152   3.974   2.547   3.663 -0.1049 -0.2829 -0.0964
 4203ntf    nn324153   3.856   2.591   3.569 -0.1920 -0.1174  0.0912
 4203ntf    sn224154   3.752   2.498   3.497 -0.0964  0.1487 -0.3971
 4203ntf    cn124155   3.846   2.454   3.348  0.4309 -0.0275 -0.0186
 4203ntf    fn424156   3.882   2.671   3.873 -0.2523 -0.4151 -0.3284
 4203ntf    fn424157   4.090   2.688   3.851  0.0068  0.2176 -0.1229
 4203ntf    fn424158   3.961   2.803   3.729  0.1785 -0.3193 -0.1318
 4203ntf    on524159   4.104   2.545   3.600 -0.0595 -0.5989  0.0032
 4203ntf    on524160   3.944   2.433   3.746  0.2329  0.0461  0.4851
 4203ntf    on524161   3.636   2.566   3.444 -0.7789 -0.0691  0.7751
 4203ntf    on524162   3.725   2.366   3.548 -0.1885  0.0982 -0.5756
 4203ntf    fn424163   3.950   2.376   3.372  0.6422  0.1276 -0.4211
 4203ntf    fn424164   3.767   2.379   3.272 -0.0096  0.3033  0.1115
 4203ntf    fn424165   3.887   2.557   3.276  0.3470  0.2793  0.3720
 4204ntf    cn124166   5.543   5.080   5.569  0.2083  0.0876 -0.0628
 4204ntf    sn224167   5.531   5.004   5.734 -0.2536  0.2138 -0.0377
 4204ntf    nn324168   5.677   5.014   5.791 -0.2801  0.4794 -0.0155
 4204ntf    sn224169   5.754   5.099   5.898  0.2388 -0.1326  0.0989
 4204ntf    cn124170   5.732   4.985   6.039  0.3227  0.1631  0.3527
 4204ntf    fn424171   5.630   5.011   5.496  0.0296 -0.0531 -0.1437
 4204ntf    fn424172   5.431   5.086   5.500  0.0240  0.0166  0.2289
 4204ntf    fn424173   5.593   5.201   5.583  0.2062  0.1619 -0.6702
 4204ntf    on524174   5.437   5.087   5.806 -0.1792 -0.0469  0.3633
 4204ntf    on524175   5.501   4.866   5.706  0.4940  0.1771 -0.6940
 4204ntf    on524176   5.691   5.220   5.943  0.4406 -0.1907  0.5454
 4204ntf    on524177   5.896   5.095   5.873  0.1703  0.0362 -0.3066
 4204ntf    fn424178   5.801   4.878   6.004  0.1328 -0.0317  0.5704
 4204ntf    fn424179   5.782   5.040   6.147 -0.2613  0.5544  0.4290
 4204ntf    fn424180   5.606   4.953   6.067 -0.0044  0.7666 -0.3887
 4205ntf    cn124181   5.127   1.645   6.124 -0.1990  0.2170 -0.1642
 4205ntf    sn224182   5.217   1.795   6.177  0.0680 -0.0176  0.0473
 4205ntf    nn324183   5.356   1.756   6.117  0.2561  0.5718  0.1003
 4205ntf    sn224184   5.423   1.841   6.003  0.2408  0.3111 -0.1053
 4205ntf    cn124185   5.517   1.713   5.914  0.0202 -0.2908  0.5229
 4205ntf    fn424186   4.999   1.650   6.156 -0.2929  0.1112 -0.5238
 4205ntf    fn424187   5.127   1.626   5.993  0.0763 -0.2792 -0.0932
 4205ntf    fn424188   5.179   1.539   6.184  0.1232  0.3380 -0.2277
 4205ntf    on524189   5.139   1.902   6.121 -0.0471  0.1598  0.5335
 4205ntf    on524190   5.217   1.772   6.320 -0.2887 -0.7941 -0.0684
 4205ntf    on524191   5.523   1.930   6.056 -0.0112  0.5646 -0.0544
 4205ntf    on524192   5.349   1.898   5.893  0.1985 -0.3457 -0.4235
 4205ntf    fn424193   5.556   1.766   5.799 -0.3447 -0.3734  0.3597
 4205ntf    fn424194   5.619   1.666   5.985 -0.0434 -0.1031  0.7410
 4205ntf    fn424195   5.445   1.605   5.889 -0.5552  0.3284 -0.5491
 4206ntf    cn124196   5.767   5.052   6.936  0.0253 -0.0279  0.0773
 4206ntf    sn224197   5.888   5.149   7.031  0.2013 -0.0040 -0.1710
 4206ntf    nn324198   6.002   5.156   6.923  0.4957 -0.6350  0.0923
 4206ntf    sn224199   6.147   5.097   6.932  0.6669 -0.2468 -0.1063
 4206ntf    cn124200   6.244   5.243   6.980  0.3150 -0.0151 -0.0948
 4206ntf    fn424201   5.820   4.938   6.894 -0.3255 -0.3054  0.3831
 4206ntf    fn424202   5.664   5.021   7.013  0.2868 -0.1302  0.3916
 4206ntf    fn424203   5.718   5.108   6.826  0.5402 -0.2302 -0.2608
 4206ntf    on524204   5.824   5.277   7.048 -0.3529 -0.3207  0.1494
 4206ntf    on524205   5.917   5.075   7.152 -0.3068 -0.1394 -0.1318
 4206ntf    on524206   6.192   5.064   6.799  0.1891 -0.8466 -0.1264
 4206ntf    on524207   6.186   5.005   7.036  0.7972  0.1095  0.1585
 4206ntf    fn424208   6.262   5.330   6.883 -0.5893 -0.3348 -0.5640
 4206ntf    fn424209   6.189   5.310   7.080  0.0886 -0.5296  0.1283
 4206ntf    fn424210   6.366   5.210   7.019  0.4076  0.4215 -0.0126
 4207ntf    cn124211   2.508   5.307   3.405 -0.1818 -0.1167  0.1514
 4207ntf    sn224212   2.368   5.406   3.467 -0.2275 -0.0024 -0.1300
 4207ntf    nn324213   2.462   5.497   3.554 -0.3575 -0.2062  0.2288
 4207ntf    sn224214   2.500   5.481   3.705  0.2791 -0.4739  0.0403
 4207ntf    cn124215   2.363   5.571   3.782  0.4800 -0.2245  0.1084
 4207ntf    fn424216   2.539   5.206   3.484  0.1788  0.0731  0.2554
 4207ntf    fn424217   2.482   5.257   3.286  0.6256 -0.8303  0.2680
 4207ntf    fn424218   2.615   5.383   3.385 -0.1871 -0.1626 -0.0582
 4207ntf    on524219   2.321   5.475   3.350  0.8359 -0.3427 -0.7734
 4207ntf    on524220   2.286   5.315   3.543 -0.0996 -0.1813 -0.2049
 4207ntf    on524221   2.620   5.553   3.741 -0.4730  0.6679  0.2910
 4207ntf    on524222   2.500   5.341   3.740 -0.0905 -0.7055 -0.8567
 4207ntf    fn424223   2.322   5.679   3.717  0.2884  0.0252  0.6392
 4207ntf    fn424224   2.248   5.505   3.790  0.3096  0.1020  0.3869
 4207ntf    fn424225   2.389   5.612   3.904  0.2699 -0.2023  0.1472
 4208ntf    cn124226   2.230   4.673   5.535 -0.3200 -0.1145 -0.1816
 4208ntf    sn224227   2.270   4.702   5.710  0.1880  0.2829 -0.3628
 4208ntf    nn324228   2.310   4.853   5.692 -0.2875  0.5012  0.3745
 4208ntf    sn224229   2.429   4.914   5.609  0.0686 -0.1550  0.3950
 4208ntf    cn124230   2.439   5.074   5.696 -0.1473 -0.1115  0.3401
 4208ntf    fn424231   2.154   4.762   5.473 -0.3996  0.2878  0.4841
 4208ntf    fn424232   2.346   4.654   5.474  0.1528  0.1097  0.6283
 4208ntf    fn424233   2.159   4.563   5.518  0.0754 -0.3976 -0.0297
 4208ntf    on524234   2.139   4.678   5.764  0.1459  0.0348 -0.5733
 4208ntf    on524235   2.381   4.619   5.749  0.0477  0.1912 -0.1611
 4208ntf    on524236   2.395   4.958   5.476  0.1302  0.6001  0.6242
 4208ntf    on524237   2.556   4.853   5.638  0.3188 -0.0371 -0.4296
 4208ntf    fn424238   2.407   5.055   5.823 -0.4365 -0.7054  0.1834
 4208ntf    fn424239   2.564   5.118   5.686 -0.0522 -0.2893  0.7481
 4208ntf    fn424240   2.356   5.166   5.651  0.3396 -0.0385 -0.4306
 4209ntf    cn124241   6.338   0.003   2.456  0.0904 -0.1986  0.1368
 4209ntf    sn224242   6.366   0.000   2.277 -0.5125 -0.1620  0.0396
 4209ntf    nn324243   6.431   0.143   2.268  0.5385 -0.6438 -0.0791
 4209ntf    sn224244   6.569   0.182   2.204  0.2824 -0.0041 -0.2509
 4209ntf    cn124245   6.530   0.343   2.130 -0.2378  0.0363  0.1039
 4209ntf    fn424246   6.255   0.102   2.487  0.0288 -0.3173  0.3589
 4209ntf    fn424247   6.277  -0.108   2.497  0.0806 -0.1583  0.2330
 4209ntf    fn424248   6.451   0.011   2.524 -0.0508 -0.0799  0.3581
 4209ntf    on524249   6.457  -0.110   2.263  0.2991  0.5616 -0.5119
 4209ntf    on524250   6.234  -0.013   2.221 -0.6619 -0.7834  0.5273
 4209ntf    on524251   6.607   0.095   2.096  0.0094  0.2426 -0.5449
 4209ntf    on524252   6.677   0.200   2.299  0.3236  0.1369 -0.3254
 4209ntf    fn424253   6.452   0.319   2.026 -0.0693 -0.1804  0.0256
 4209ntf    fn424254   6.465   0.428   2.207 -0.0973  0.5421 -0.3318
 4209ntf    fn424255   6.642   0.395   2.082  0.1625 -0.4769  0.4718
 4210ntf    cn124256   2.569   4.215   6.243 -0.0541  0.1702  0.4331
 4210ntf    sn224257   2.521   4.056   6.318 -0.2574 -0.0106 -0.0753
 4210ntf    nn324258   2.398   4.025   6.225 -0.3215  0.2504 -0.0776
 4210ntf    sn224259   2.252   3.975   6.255 -0.2505  0.0303 -0.0984
 4210ntf    cn124260   2.160   4.090   6.149 -0.0797  0.4945  0.2531
 4210ntf    fn424261   2.666   4.282   6.302 -0.1833  0.3858  0.4027
 4210ntf    fn424262   2.616   4.195   6.121 -0.0262 -0.1984  0.5014
 4210ntf    fn424263   2.460   4.290   6.234 -0.1409 -0.0075 -0.0624
 4210ntf    on524264   2.636   3.975   6.283  0.1795  0.5147  0.1310
 4210ntf    on524265   2.509   4.082   6.459 -0.1240 -0.0339 -0.0591
 4210ntf    on524266   2.206   4.001   6.389  0.1101  0.4387 -0.0539
 4210ntf    on524267   2.228   3.846   6.195 -0.2786  0.0502 -0.1295
 4210ntf    fn424268   2.040   4.048   6.113  0.0276  0.4353 -0.0418
 4210ntf    fn424269   2.138   4.204   6.212 -0.4106  0.7872 -0.3904
 4210ntf    fn424270   2.226   4.110   6.036 -0.4004  0.1559  0.0031
 4211ntf    cn124271   5.185   6.063   0.510 -0.0145 -0.3554  0.2114
 4211ntf    sn224272   5.016   6.123   0.544  0.0257 -0.1604  0.0625
 4211ntf    nn324273   5.013   6.246   0.446  1.0093 -0.6180 -0.5545
 4211ntf    sn224274   4.921   6.284   0.325  0.3746 -0.0602  0.0960
 4211ntf    cn124275   5.012   6.203   0.190  0.2768 -0.3919  0.2258
 4211ntf    fn424276   5.208   6.032   0.384 -0.4406 -0.4989  0.1675
 4211ntf    fn424277   5.274   6.156   0.542 -0.3047 -0.0361  0.1035
 4211ntf    fn424278   5.219   5.956   0.580  0.1342 -0.2264  0.3380
 4211ntf    on524279   4.938   6.007   0.510 -0.3169  0.1343 -0.1623
 4211ntf    on524280   5.010   6.158   0.684 -0.3380  0.3866 -0.0854
 4211ntf    on524281   4.938   6.424   0.296  0.0806 -0.0627 -0.0970
 4211ntf    on524282   4.788   6.227   0.321  0.3796 -0.0397 -0.4493
 4211ntf    fn424283   4.942   6.216   0.078 -0.3896  0.2105  0.7035
 4211ntf    fn424284   5.130   6.259   0.169  0.0877  0.0308  0.2800
 4211ntf    fn424285   5.029   6.073   0.203 -0.6976 -0.6094 -0.5514
 4212ntf    cn124286   5.217   7.353   2.585  0.2353  0.2521  0.4272
 4212ntf    sn224287   5.150   7.368   2.416 -0.0454  0.0623  0.5203
 4212ntf    nn324288   5.172   7.521   2.390  0.0552 -0.0328  0.0448
 4212ntf    sn224289   5.078   7.640   2.434 -0.1356 -0.1664  0.0026
 4212ntf    cn124290   5.213   7.755   2.475 -0.0467 -0.2523 -0.0484
 4212ntf    fn424291   5.131   7.402   2.674 -0.3436 -0.1178  0.0799
 4212ntf    fn424292   5.248   7.227   2.608  0.1785  0.1205 -0.2096
 4212ntf    fn424293   5.331   7.419   2.592  0.6364 -0.3681 -0.1870
 4212ntf    on524294   5.237   7.285   2.336 -0.3213 -0.0940  0.3816
 4212ntf    on524295   5.008   7.344   2.417 -0.1144  0.4351 -0.2124
 4212ntf    on524296   5.011   7.618   2.559  0.1286 -0.2805  0.1245
 4212ntf    on524297   5.018   7.717   2.328 -0.0558 -0.6824 -0.4233
 4212ntf    fn424298   5.173   7.875   2.514  0.1557 -0.3664  0.5258
 4212ntf    fn424299   5.280   7.710   2.580 -0.1802  0.1438  0.2074
 4212ntf    fn424300   5.298   7.769   2.375 -0.2994  0.5046 -0.1601
 4213ntf    cn124301   4.262   5.896   2.542  0.3586 -0.1811  0.4037
 4213ntf    sn224302   4.424   5.935   2.469  0.1540 -0.1384 -0.0304
 4213ntf    nn324303   4.415   6.090   2.493 -0.3117 -0.0983 -0.4336
 4213ntf    sn224304   4.483   6.184   2.599 -0.6014 -0.1765 -0.1773
 4213ntf    cn124305   4.594   6.277   2.489 -0.0365 -0.3468  0.2373
 4213ntf    fn424306   4.172   5.930   2.451  0.4540 -0.0621  0.3533
 4213ntf    fn424307   4.224   5.772   2.564 -0.1672 -0.1508 -0.3104
 4213ntf    fn424308   4.236   5.964   2.653 -0.2865  0.4155 -0.1016
 4213ntf    on524309   4.513   5.860   2.554  0.3286 -0.2510 -0.3093
 4213ntf    on524310   4.415   5.898   2.330 -0.1260  0.3646 -0.1488
 4213ntf    on524311   4.573   6.119   2.692 -0.0017 -0.0178 -0.6426
 4213ntf    on524312   4.400   6.283   2.662  0.0959  0.3197 -0.0236
 4213ntf    fn424313   4.540   6.321   2.376  0.2242 -0.0874  0.2143
 4213ntf    fn424314   4.630   6.385   2.555 -0.6155  0.1657 -0.2651
 4213ntf    fn424315   4.703   6.208   2.460 -0.1605 -0.5711  0.2984
 4214ntf    cn124316   0.468   2.353   4.266  0.1987  0.0958  0.0598
 4214ntf    sn224317   0.343   2.474   4.214  0.3217  0.0255 -0.4059
 4214ntf    nn324318   0.239   2.376   4.150 -0.2796  0.2918  0.1504
 4214ntf    sn224319   0.241   2.310   4.008  0.3292 -0.2742  0.4151
 4214ntf    cn124320   0.202   2.142   4.066 -0.1666 -0.3022  0.0143
 4214ntf    fn424321   0.405   2.241   4.298  0.0999  0.2333  0.3489
 4214ntf    fn424322   0.559   2.325   4.174 -0.3088 -0.2691 -0.3425
 4214ntf    fn424323   0.544   2.385   4.369  0.0029 -0.1359  0.2791
 4214ntf    on524324   0.282   2.523   4.336 -0.6463 -0.7068 -0.5848
 4214ntf    on524325   0.414   2.566   4.128 -0.0619  0.4427 -0.2797
 4214ntf    on524326   0.373   2.309   3.950 -0.0718 -0.5612 -0.5145
 4214ntf    on524327   0.128   2.353   3.928  0.2511 -0.2944  0.5146
 4214ntf    fn424328   0.191   2.056   3.965  0.3090 -0.5585  0.1748
 4214ntf    fn424329   0.290   2.088   4.149  0.0389 -0.0813 -0.0608
 4214ntf    fn424330   0.081   2.146   4.118 -0.0913  0.3887  0.1433
 4215ntf    cn124331   5.149   5.145   5.316  0.3038 -0.4005 -0.0212
 4215ntf    sn224332   5.276   5.191   5.193 -0.0261  0.0812 -0.1852
 4215ntf    nn324333   5.212   5.133   5.062 -0.0861 -0.4593  0.0817
 4215ntf    sn224334   5.114   5.203   4.962 -0.1743 -0.2570  0.3090
 4215ntf    cn124335   4.980   5.081   4.949 -0.2634 -0.1127 -0.1315
 4215ntf    fn424336   5.178   5.183   5.439 -0.4266  0.1949 -0.0228
 4215ntf    fn424337   5.032   5.202   5.294  0.2820 -0.5261 -0.2383
 4215ntf    fn424338   5.109   5.019   5.316 -0.1190 -0.2677  0.0650
 4215ntf    on524339   5.292   5.334   5.200  0.2377  0.0718 -0.5702
 4215ntf    on524340   5.386   5.105   5.228  0.1284  0.0648 -0.7066
 4215ntf    on524341   5.169   5.206   4.829 -0.2582  0.1181  0.2807
 4215ntf    on524342   5.034   5.313   5.011 -0.3845 -0.2383 -0.0731
 4215ntf    fn424343   5.026   4.960   4.920  0.3761  0.1383 -0.1772
 4215ntf    fn424344   4.925   5.064   5.068  0.1999  0.7085  0.2052
 4215ntf    fn424345   4.879   5.111   4.868 -0.2811 -0.1845 -0.1366
 4216ntf    cn124346   0.258   3.522   4.236 -0.0710  0.1166  0.4368
 4216ntf    sn224347   0.326   3.393   4.344 -0.2011 -0.2498  0.0855
 4216ntf    nn324348   0.451   3.358   4.255 -0.0192  0.1890  0.1646
 4216ntf    sn224349   0.500   3.239   4.165  0.2212  0.4922 -0.1082
 4216ntf    cn124350   0.663   3.220   4.242  0.1771  0.3966 -0.0390
 4216ntf    fn424351   0.240   3.489   4.109 -0.0387  0.7683  0.2585
 4216ntf    fn424352   0.147   3.576   4.282 -0.4085 -0.4848  0.3366
 4216ntf    fn424353   0.340   3.626   4.241  0.2609 -0.0822 -0.5101
 4216ntf    on524354   0.358   3.461   4.467  0.0949 -0.5521  0.1759
 4216ntf    on524355   0.229   3.287   4.344 -0.8147  0.3068  0.0687
 4216ntf    on524356   0.544   3.284   4.036 -0.0590  0.4560 -0.2164
 4216ntf    on524357   0.427   3.114   4.168  0.0239  0.6110  0.1675
 4216ntf    fn424358   0.660   3.179   4.368 -0.1418  0.9136  0.1240
 4216ntf    fn424359   0.739   3.141   4.168 -0.3121 -0.6009  0.4854
 4216ntf    fn424360   0.732   3.332   4.251  0.1098  0.3930  0.5779
 4217ntf    cn124361   6.258   3.861   0.585  0.4444 -0.0595 -0.1328
 4217ntf    sn224362   6.311   3.966   0.723 -0.3628 -0.0546  0.1766
 4217ntf    nn324363   6.468   3.965   0.731 -0.3646  0.7180  0.4310
 4217ntf    sn224364   6.564   3.874   0.816  0.0214  0.2915 -0.4583
 4217ntf    cn124365   6.703   3.842   0.703  0.3062 -0.0827 -0.0017
 4217ntf    fn424366   6.126   3.860   0.570  0.4133 -0.4679  0.1664
 4217ntf    fn424367   6.306   3.902   0.468  1.1007 -0.2874  0.0536
 4217ntf    fn424368   6.309   3.740   0.599  0.3957 -0.0486  0.1351
 4217ntf    on524369   6.260   4.087   0.664  0.1577  0.0729 -0.0160
 4217ntf    on524370   6.236   3.925   0.840 -0.5126  0.3870  0.2365
 4217ntf    on524371   6.509   3.743   0.840  0.2307  0.2383 -0.2674
 4217ntf    on524372   6.615   3.943   0.931 -0.0523 -0.0258 -0.2355
 4217ntf    fn424373   6.780   3.744   0.748  0.3275  0.0932  0.3478
 4217ntf    fn424374   6.656   3.806   0.585  0.4133  0.2518 -0.1456
 4217ntf    fn424375   6.779   3.950   0.695 -0.5043  0.4997  0.0282
 4218ntf    cn124376   4.885   3.984   2.357 -0.3110 -0.6045 -0.1549
 4218ntf    sn224377   4.871   3.926   2.185  0.1651  0.0471 -0.4135
 4218ntf    nn324378   4.899   3.774   2.210 -0.1045  0.0220 -0.2573
 4218ntf    sn224379   4.790   3.684   2.278  0.1592 -0.0927  0.0168
 4218ntf    cn124380   4.812   3.531   2.183 -0.3847 -0.1433 -0.0323
 4218ntf    fn424381   4.769   3.958   2.415 -0.3709 -0.1408 -0.0696
 4218ntf    fn424382   4.987   3.924   2.416 -0.2364  0.2292  0.5654
 4218ntf    fn424383   4.905   4.113   2.371 -0.0893 -0.6314 -0.2192
 4218ntf    on524384   4.743   3.975   2.139 -0.3800 -0.9636  0.0063
 4218ntf    on524385   4.975   4.003   2.120 -0.1315  0.5710 -0.2748
 4218ntf    on524386   4.652   3.719   2.256  0.2631  0.1939 -0.1843
 4218ntf    on524387   4.825   3.639   2.410  0.4549 -0.6546 -0.2505
 4218ntf    fn424388   4.940   3.506   2.157 -0.3382 -0.4976  0.5264
 4218ntf    fn424389   4.747   3.433   2.243 -0.2921 -0.5160 -0.5300
 4218ntf    fn424390   4.774   3.555   2.059 -0.4464 -0.7040 -0.1222
 4219ntf    cn124391   0.227   0.659   0.702  0.3722 -0.0673 -0.0783
 4219ntf    sn224392   0.170   0.768   0.836 -0.0022 -0.2210 -0.1119
 4219ntf    nn324393   0.303   0.838   0.883  0.4291 -0.7385 -0.5455
 4219ntf    sn224394   0.388   0.813   1.012 -0.1698  0.1376  0.0356
 4219ntf    cn124395   0.284   0.876   1.147  0.1520 -0.0957  0.3947
 4219ntf    fn424396   0.251   0.716   0.585 -0.0829  0.0868 -0.0997
 4219ntf    fn424397   0.339   0.600   0.740  0.6436  0.6321  0.2350
 4219ntf    fn424398   0.136   0.566   0.680  0.5088 -0.2346  0.0639
 4219ntf    on524399   0.094   0.866   0.763  0.9516  0.6566  0.0440
 4219ntf    on524400   0.100   0.681   0.928 -0.6052  0.2016 -0.1680
 4219ntf    on524401   0.508   0.893   1.008 -0.1200  0.0487 -0.3043
 4219ntf    on524402   0.405   0.672   1.037  0.0038  0.2222  0.4011
 4219ntf    fn424403   0.314   0.820   1.263 -0.2203 -0.6837  0.2104
 4219ntf    fn424404   0.284   1.008   1.159  0.2587 -0.1057  0.5091
 4219ntf    fn424405   0.159   0.849   1.114  0.1505  0.2772  0.0827
 4220ntf    cn124406   6.511   0.725   4.871  0.0376 -0.1707  0.0588
 4220ntf    sn224407   6.500   0.742   4.690  0.0267  0.2026  0.0941
 4220ntf    nn324408   6.473   0.593   4.649 -0.4066  0.2259  0.2861
 4220ntf    sn224409   6.347   0.517   4.593 -0.1858  0.0050  0.0882
 4220ntf    cn124410   6.435   0.372   4.526  0.0134  0.0238  0.3081
 4220ntf    fn424411   6.392   0.684   4.913 -0.0553  0.3531  0.3176
 4220ntf    fn424412   6.590   0.631   4.920 -0.5068 -0.4161  0.4750
 4220ntf    fn424413   6.539   0.836   4.937 -0.2847 -0.0936  0.0710
 4220ntf    on524414   6.387   0.830   4.677  0.0847  0.3444  0.5199
 4220ntf    on524415   6.630   0.785   4.646  0.4005  0.0012  0.9831
 4220ntf    on524416   6.288   0.581   4.478 -0.4343  0.3602  0.4115
 4220ntf    on524417   6.259   0.463   4.693 -0.6072 -0.2706 -0.4242
 4220ntf    fn424418   6.369   0.315   4.427 -0.7550 -0.1981  0.9361
 4220ntf    fn424419   6.545   0.430   4.479  0.1326 -0.0017  0.5526
 4220ntf    fn424420   6.474   0.284   4.616  0.1160  0.1405  0.3796
 4221ntf    cn124421   3.023   0.296   5.661 -0.0422  0.0979  0.0051
 4221ntf    sn224422   2.868   0.335   5.746  0.0351  0.3055  0.0501
 4221ntf    nn324423   2.907   0.353   5.897  0.3521 -0.2348  0.0318
 4221ntf    sn224424   2.816   0.388   6.020  0.0154 -0.0312 -0.2732
 4221ntf    cn124425   2.848   0.228   6.101 -0.3631  0.0182 -0.0226
 4221ntf    fn424426   3.076   0.181   5.701 -0.1250  0.2891  0.6680
 4221ntf    fn424427   3.016   0.275   5.530 -0.1640 -0.0870  0.0404
 4221ntf    fn424428   3.122   0.380   5.684  0.2107 -0.0165 -0.6202
 4221ntf    on524429   2.820   0.449   5.672 -0.7907 -0.0567  0.0082
 4221ntf    on524430   2.784   0.219   5.730  0.2528  0.1463  0.0635
 4221ntf    on524431   2.673   0.398   6.005 -0.0260 -0.0149  0.1056
 4221ntf    on524432   2.883   0.473   6.116  0.1084 -0.7053  0.2697
 4221ntf    fn424433   2.754   0.143   6.061 -0.1209  0.0866 -0.7558
 4221ntf    fn424434   2.962   0.167   6.072 -0.3140 -0.1318  0.4767
 4221ntf    fn424435   2.842   0.237   6.232 -0.7610 -0.2916 -0.0157
 4222ntf    cn124436   5.399   1.202   6.041  0.3517  0.0419 -0.0218
 4222ntf    sn224437   5.433   1.057   6.145 -0.5741 -0.0934  0.1038
 4222ntf    nn324438   5.298   0.980   6.124 -0.6794  0.2501 -0.5064
 4222ntf    sn224439   5.245   0.848   6.190  0.2529 -0.0755 -0.3990
 4222ntf    cn124440   5.112   0.898   6.304  0.0970 -0.0075 -0.6109
 4222ntf    fn424441   5.288   1.259   6.084  0.0855 -0.4382 -0.0671
 4222ntf    fn424442   5.500   1.287   6.039  0.3400  0.0507 -0.2664
 4222ntf    fn424443   5.392   1.168   5.913  0.2798 -0.0666  0.0113
 4222ntf    on524444   5.546   1.012   6.067 -0.4573 -0.5040  0.5056
 4222ntf    on524445   5.459   1.110   6.277  0.0491  0.1260 -0.1030
 4222ntf    on524446   5.337   0.783   6.281  0.8354 -0.0823 -0.9856
 4222ntf    on524447   5.177   0.760   6.098  0.3885 -0.0165 -0.5566
 4222ntf    fn424448   5.008   0.962   6.254  0.4315  1.0883  0.0788
 4222ntf    fn424449   5.062   0.792   6.365  0.6197 -0.2492 -0.5928
 4222ntf    fn424450   5.146   0.978   6.403 -0.1764 -0.5467 -0.0783
 4223ntf    cn124451   0.078   3.893   0.297  0.1508  0.0897  0.1317
 4223ntf    sn224452   0.092   3.723   0.359 -0.1009 -0.0083 -0.0756
 4223ntf    nn324453  -0.040   3.698   0.440 -0.1598  0.2872 -0.0769
 4223ntf    sn224454  -0.052   3.714   0.596  0.1866  0.2874 -0.0481
 4223ntf    cn124455  -0.199   3.821   0.601 -0.0273  0.0129 -0.3944
 4223ntf    fn424456   0.043   3.893   0.169  0.3609  0.2174  0.0738
 4223ntf    fn424457  -0.004   3.967   0.371  0.3057  0.3717  0.0238
 4223ntf    fn424458   0.194   3.957   0.300  0.1635  0.0597  0.2807
 4223ntf    on524459   0.092   3.650   0.235  0.3424 -0.1515  0.0053
 4223ntf    on524460   0.218   3.727   0.431 -0.1558  0.2106  0.0104
 4223ntf    on524461   0.052   3.789   0.663  0.3093  0.4046 -0.3678
 4223ntf    on524462  -0.083   3.586   0.654  0.3384  0.0925 -0.3935
 4223ntf    fn424463  -0.249   3.842   0.722  0.0761  0.2634 -0.3935
 4223ntf    fn424464  -0.163   3.943   0.563 -0.2599  0.1879 -0.0665
 4223ntf    fn424465  -0.302   3.775   0.532 -0.0131 -0.4141 -0.1362
 4224ntf    cn124466   1.647   2.399   4.911 -0.1446 -0.2534 -0.1353
 4224ntf    sn224467   1.731   2.295   4.788  0.3385  0.0959 -0.1025
 4224ntf    nn324468   1.777   2.174   4.876  0.4180  0.1344 -0.0910
 4224ntf    sn224469   1.810   2.027   4.831  0.2378  0.0814 -0.0528
 4224ntf    cn124470   1.696   1.941   4.943  0.0389  0.0050 -0.3139
 4224ntf    fn424471   1.559   2.325   4.977  0.0402  0.0421  0.4413
 4224ntf    fn424472   1.722   2.458   5.002 -0.6468  0.4653 -0.1688
 4224ntf    fn424473   1.575   2.497   4.857  0.6842  0.5947  0.2826
 4224ntf    on524474   1.622   2.266   4.698  0.1855  0.2262  0.0412
 4224ntf    on524475   1.849   2.371   4.755  0.3071  0.0694 -0.2783
 4224ntf    on524476   1.936   1.974   4.877  0.5045  0.5920 -0.1856
 4224ntf    on524477   1.774   1.985   4.698 -0.3172 -0.1005  0.1517
 4224ntf    fn424478   1.571   1.985   4.934  0.0080 -0.0716 -0.2648
 4224ntf    fn424479   1.704   1.812   4.914 -0.1015 -0.0767 -0.0033
 4224ntf    fn424480   1.739   1.951   5.068  0.0921 -0.1644 -0.3185
 4225ntf    cn124481   0.936   4.056   1.811  0.1933 -0.2753  0.1348
 4225ntf    sn224482   0.788   3.957   1.776  0.0930 -0.1083  0.0854
 4225ntf    nn324483   0.705   4.059   1.689  0.1988  0.1786  0.3173
 4225ntf    sn224484   0.572   4.140   1.710 -0.1175 -0.3327  0.3096
 4225ntf    cn124485   0.629   4.312   1.707  0.3206 -0.4793  0.0138
 4225ntf    fn424486   0.920   4.145   1.908 -0.0004 -0.2296  0.0609
 4225ntf    fn424487   1.038   3.982   1.852  0.2092 -0.3152  0.0219
 4225ntf    fn424488   0.972   4.134   1.710 -0.2942 -0.7388 -0.4005
 4225ntf    on524489   0.829   3.838   1.706  0.1282 -0.1240  0.1327
 4225ntf    on524490   0.725   3.931   1.903  0.0208  0.0813  0.0894
 4225ntf    on524491   0.526   4.125   1.846 -0.5407 -0.1327  0.1880
 4225ntf    on524492   0.468   4.150   1.611 -0.3348  0.3437  0.6011
 4225ntf    fn424493   0.692   4.346   1.596  0.1154  0.1074  0.0704
 4225ntf    fn424494   0.524   4.392   1.724  0.0834 -0.7531 -0.1625
 4225ntf    fn424495   0.721   4.343   1.797  0.0350 -0.6948  0.3823
 4226ntf    cn124496   0.053   4.973   0.820 -0.1388 -0.1357  0.0384
 4226ntf    sn224497  -0.122   5.004   0.779 -0.1632 -0.4605 -0.1066
 4226ntf    nn324498  -0.119   5.141   0.703  0.3241 -0.5849 -0.3146
 4226ntf    sn224499  -0.074   5.170   0.556  0.2403  0.2346 -0.1842
 4226ntf    cn124500   0.077   5.265   0.589  0.3443 -0.2085  0.6393
 4226ntf    fn424501   0.084   4.859   0.878 -0.0921 -0.1705 -0.0549
 4226ntf    fn424502   0.127   4.976   0.710 -0.1373 -0.4437  0.0311
 4226ntf    fn424503   0.097   5.072   0.896  0.3068 -0.0202 -0.3646
 4226ntf    on524504  -0.153   4.892   0.694 -0.2310 -0.4357 -0.1145
 4226ntf    on524505  -0.189   5.013   0.906 -0.0617 -0.3563 -0.0605
 4226ntf    on524506  -0.153   5.268   0.484 -0.7597 -0.0689  0.4790
 4226ntf    on524507  -0.023   5.052   0.491  0.0508  0.1306 -0.1422
 4226ntf    fn424508   0.176   5.195   0.641  0.5968  0.1608  0.6649
 4226ntf    fn424509   0.118   5.325   0.478 -0.4410  0.4952  0.7206
 4226ntf    fn424510   0.034   5.362   0.668 -0.1883 -0.0016  0.1092
 4227ntf    cn124511   0.255   4.837   2.554 -0.1133  0.2073  0.0355
 4227ntf    sn224512   0.351   4.918   2.687  0.1441 -0.1630  0.0765
 4227ntf    nn324513   0.344   4.809   2.800  1.0799 -0.0227  0.2787
 4227ntf    sn224514   0.240   4.805   2.917  0.5307 -0.3722 -0.2133
 4227ntf    cn124515   0.191   4.630   2.912  0.4412 -0.3694  0.4059
 4227ntf    fn424516   0.192   4.915   2.469  0.2467  0.6043  0.1263
 4227ntf    fn424517   0.337   4.768   2.477 -0.3511  0.1241 -0.1435
 4227ntf    fn424518   0.164   4.750   2.594 -0.0938  0.0895 -0.1758
 4227ntf    on524519   0.484   4.933   2.635  0.0699 -0.7521 -0.2961
 4227ntf    on524520   0.276   5.038   2.712  0.5317  0.0563  0.1843
 4227ntf    on524521   0.114   4.874   2.905  0.6339 -0.0544  0.4774
 4227ntf    on524522   0.314   4.816   3.040 -0.0744  0.0784  0.1187
 4227ntf    fn424523   0.176   4.584   2.788 -0.1858 -0.2114  0.4186
 4227ntf    fn424524   0.280   4.553   2.973  0.2538 -0.2559  0.8249
 4227ntf    fn424525   0.072   4.600   2.963  0.1190 -0.0981 -0.1722
 4228ntf    cn124526   2.105   3.712   2.961 -0.2541  0.6887  0.0615
 4228ntf    sn224527   2.189   3.682   2.803  0.0609 -0.3100  0.4065
 4228ntf    nn324528   2.236   3.534   2.822  0.2400 -0.2954  0.0850
 4228ntf    sn224529   2.249   3.424   2.710  0.4938 -0.3084  0.1278
 4228ntf    cn124530   2.298   3.513   2.559 -0.2545  0.2364  0.1956
 4228ntf    fn424531   2.040   3.827   2.961 -0.3153  0.6575  0.4358
 4228ntf    fn424532   2.012   3.620   2.983  0.1086  0.3237  0.0806
 4228ntf    fn424533   2.188   3.723   3.063 -0.1490  0.6779 -0.0236
 4228ntf    on524534   2.081   3.696   2.709  0.2728  0.7318  0.3027
 4228ntf    on524535   2.298   3.776   2.792 -0.2611 -0.0349 -0.5084
 4228ntf    on524536   2.123   3.359   2.685  0.2023  0.5075 -0.5896
 4228ntf    on524537   2.359   3.335   2.734  0.2987 -0.5576  0.0998
 4228ntf    fn424538   2.385   3.448   2.483 -0.0326  0.1508  0.5192
 4228ntf    fn424539   2.195   3.538   2.480  0.1437  0.7062 -0.1883
 4228ntf    fn424540   2.360   3.629   2.575 -0.0159  0.1147  0.1639
 4229ntf    cn124541   5.007   1.846   3.892  0.0401  0.0186 -0.0470
 4229ntf    sn224542   4.902   1.725   3.978  0.0964 -0.0940 -0.1366
 4229ntf    nn324543   4.826   1.669   3.853 -0.3960  0.2280  0.0170
 4229ntf    sn224544   4.840   1.520   3.805  0.2553  0.3661 -0.2351
 4229ntf    cn124545   4.810   1.558   3.630  0.1944 -0.4830 -0.4134
 4229ntf    fn424546   5.077   1.796   3.791 -0.3662  0.4463 -0.5418
 4229ntf    fn424547   4.947   1.952   3.840 -0.8443 -0.4538 -0.0023
 4229ntf    fn424548   5.106   1.884   3.972  0.0053 -0.4532  0.2234
 4229ntf    on524549   5.004   1.637   4.029  0.1888 -0.3995 -0.8299
 4229ntf    on524550   4.829   1.800   4.077 -0.3421 -0.0235 -0.5107
 4229ntf    on524551   4.731   1.434   3.845  1.0174 -0.6854 -0.3538
 4229ntf    on524552   4.970   1.458   3.800  0.0351 -0.0813 -0.4441
 4229ntf    fn424553   4.906   1.628   3.573 -0.3169  0.4668 -0.1257
 4229ntf    fn424554   4.793   1.446   3.561 -1.1662 -0.4259 -0.2063
 4229ntf    fn424555   4.702   1.630   3.602  0.1423 -0.3909  0.0092
 4230ntf    cn124556   3.554   7.324   1.349  0.3298  0.1348 -0.7171
 4230ntf    sn224557   3.516   7.151   1.389 -0.0367  0.3533 -0.0951
 4230ntf    nn324558   3.407   7.164   1.502  0.4301  0.2188  0.3733
 4230ntf    sn224559   3.254   7.129   1.495  0.4569  0.2103 -0.2515
 4230ntf    cn124560   3.227   7.081   1.668  0.4080  0.0808 -0.2948
 4230ntf    fn424561   3.642   7.328   1.251  0.5545  0.3543 -0.5109
 4230ntf    fn424562   3.454   7.397   1.302 -0.3122 -0.3036 -0.0545
 4230ntf    fn424563   3.613   7.397   1.443  0.2476 -0.4533 -0.1998
 4230ntf    on524564   3.466   7.103   1.262  0.2049  0.3621 -0.1933
 4230ntf    on524565   3.639   7.097   1.440 -0.2179  0.1065  0.0854
 4230ntf    on524566   3.226   7.010   1.418 -0.4131  0.0608  0.2917
 4230ntf    on524567   3.166   7.240   1.473  0.3774  0.1386 -0.2923
 4230ntf    fn424568   3.097   7.057   1.678  0.3378  0.2981 -0.6494
 4230ntf    fn424569   3.300   6.976   1.700 -0.1118 -0.1080  0.2802
 4230ntf    fn424570   3.258   7.186   1.743 -0.1846  0.1175 -0.0983
 4231ntf    cn124571   1.047   4.118   7.079  0.2014  0.0244 -0.2864
 4231ntf    sn224572   0.967   4.190   6.932  0.2316  0.1921 -0.2216
 4231ntf    nn324573   0.825   4.213   6.993  0.2754  0.1138 -0.0895
 4231ntf    sn224574   0.685   4.210   6.922  0.1265 -0.0857  0.2097
 4231ntf    cn124575   0.661   4.390   6.914  0.0355 -0.1054  0.0467
 4231ntf    fn424576   1.054   4.187   7.192  0.3040 -0.6279  0.1097
 4231ntf    fn424577   0.998   4.001   7.116  0.2684  0.1665  0.2589
 4231ntf    fn424578   1.172   4.085   7.055  0.1728 -0.0291 -0.3646
 4231ntf    on524579   1.039   4.312   6.906  0.0662  0.2030 -0.6425
 4231ntf    on524580   0.981   4.083   6.835 -0.1532 -0.3716  0.3372
 4231ntf    on524581   0.587   4.158   7.015  0.5079 -0.5050  0.3771
 4231ntf    on524582   0.686   4.167   6.785  0.4224  0.0515  0.1674
 4231ntf    fn424583   0.767   4.450   6.861  0.1383 -0.3893 -0.0694
 4231ntf    fn424584   0.554   4.406   6.837 -0.2979 -0.5214  0.4224
 4231ntf    fn424585   0.634   4.438   7.034  0.0159  0.0034 -0.0016
 4232ntf    cn124586   6.100   6.698   0.319  0.2559 -0.0977  0.2819
 4232ntf    sn224587   5.975   6.828   0.345  0.1318 -0.1605 -0.0001
 4232ntf    nn324588   6.050   6.949   0.279  0.1695 -0.1693  0.0260
 4232ntf    sn224589   6.010   7.032   0.152 -0.2281  0.1712  0.3674
 4232ntf    cn124590   6.171   7.088   0.089 -0.3232  0.4603  0.3792
 4232ntf    fn424591   6.120   6.660   0.194  0.2629  0.2108  0.1871
 4232ntf    fn424592   6.222   6.723   0.362  0.1365 -0.0329  0.5899
 4232ntf    fn424593   6.062   6.588   0.382  0.8629 -0.8606 -0.6529
 4232ntf    on524594   5.855   6.781   0.279  0.2294 -0.3306 -0.0566
 4232ntf    on524595   5.976   6.846   0.488 -0.2387 -0.1124 -0.0014
 4232ntf    on524596   5.938   7.154   0.178 -0.3760  0.1400  0.1103
 4232ntf    on524597   5.967   6.949   0.042  0.4591 -0.1060  0.3002
 4232ntf    fn424598   6.161   7.151  -0.027 -0.1158  0.1257  0.1761
 4232ntf    fn424599   6.239   7.163   0.174  0.0902  0.5424 -0.0198
 4232ntf    fn424600   6.255   6.988   0.068 -0.5062  0.3865 -0.0043
 4233ntf    cn124601   1.438   6.306   1.677  0.1641  0.0055  0.0002
 4233ntf    sn224602   1.289   6.239   1.598 -0.0024  0.1422  0.1979
 4233ntf    nn324603   1.339   6.129   1.498 -0.4694 -0.1077  0.2357
 4233ntf    sn224604   1.358   6.134   1.342 -0.3333 -0.0536  0.2538
 4233ntf    cn124605   1.455   5.983   1.311  0.0715  0.1924  0.3115
 4233ntf    fn424606   1.408   6.421   1.735  0.1068 -0.2622  0.5075
 4233ntf    fn424607   1.489   6.224   1.767 -0.7006 -0.1870  0.3189
 4233ntf    fn424608   1.532   6.328   1.586  0.0494  0.4308 -0.0188
 4233ntf    on524609   1.221   6.178   1.711 -0.3405  0.7876  0.3464
 4233ntf    on524610   1.222   6.350   1.537 -0.5713 -0.1938  0.1970
 4233ntf    on524611   1.446   6.239   1.298  0.4360 -0.7391  0.1301
 4233ntf    on524612   1.234   6.112   1.272 -0.2574  0.1302  0.0623
 4233ntf    fn424613   1.568   5.977   1.379  0.4498  0.5245 -0.2774
 4233ntf    fn424614   1.388   5.872   1.340  0.4498 -0.1288 -0.0338
 4233ntf    fn424615   1.498   5.976   1.186 -0.0820 -0.2116  0.2786
 4234ntf    cn124616   3.299   3.088   5.422 -0.3337  0.0394  0.1758
 4234ntf    sn224617   3.312   2.946   5.309  0.1217 -0.0795  0.3773
 4234ntf    nn324618   3.314   2.822   5.406  0.6558 -0.0137  0.4561
 4234ntf    sn224619   3.270   2.676   5.372 -0.1221  0.3601 -0.1980
 4234ntf    cn124620   3.109   2.652   5.455  0.0458  0.2406  0.0946
 4234ntf    fn424621   3.286   3.203   5.358 -0.0125  0.0417  0.1116
 4234ntf    fn424622   3.203   3.077   5.512 -0.3444 -0.3777  0.1196
 4234ntf    fn424623   3.413   3.104   5.486 -0.0982 -0.3709 -0.1314
 4234ntf    on524624   3.198   2.953   5.221  0.2883 -0.2271  0.1483
 4234ntf    on524625   3.439   2.961   5.242  0.4083 -0.4120  0.8420
 4234ntf    on524626   3.365   2.584   5.430 -0.3685  0.0126 -0.3410
 4234ntf    on524627   3.231   2.650   5.236 -0.5361  0.6457 -0.1354
 4234ntf    fn424628   3.010   2.690   5.376  0.0015  0.7005  0.3651
 4234ntf    fn424629   3.096   2.526   5.493 -0.0485  0.3840  0.5400
 4234ntf    fn424630   3.093   2.715   5.570 -0.3311 -0.1325  0.2495
 4235ntf    cn124631   1.546   2.070   3.657  0.3537  0.1929 -0.5223
 4235ntf    sn224632   1.443   2.215   3.692  0.4919  0.0861  0.3695
 4235ntf    nn324633   1.295   2.166   3.683  0.5613 -0.2394  0.9882
 4235ntf    sn224634   1.183   2.164   3.794 -0.3518  0.0684  0.0902
 4235ntf    cn124635   1.193   1.988   3.837  0.1772  0.0486 -0.0993
 4235ntf    fn424636   1.674   2.106   3.662  0.2939  0.3210  0.3882
 4235ntf    fn424637   1.522   1.969   3.740  0.1212  0.0549 -0.7568
 4235ntf    fn424638   1.525   2.024   3.535  0.0259 -0.3317 -0.2717
 4235ntf    on524639   1.492   2.237   3.826 -0.1148 -0.2114  0.6427
 4235ntf    on524640   1.482   2.309   3.589  0.9481 -0.2733  0.2107
 4235ntf    on524641   1.055   2.176   3.729 -0.0805  0.0066 -0.4663
 4235ntf    on524642   1.206   2.244   3.912 -0.3850 -0.5255  0.5054
 4235ntf    fn424643   1.305   1.941   3.889 -0.0400 -0.2812  0.0794
 4235ntf    fn424644   1.093   1.969   3.922  0.4034  0.4249  0.2545
 4235ntf    fn424645   1.166   1.917   3.729 -0.0711  0.1218 -0.0867
 4236ntf    cn124646   6.152   0.930   2.215  0.1037 -0.2318 -0.0813
 4236ntf    sn224647   6.218   1.068   2.313 -0.0879 -0.1736 -0.0342
 4236ntf    nn324648   6.267   0.992   2.441 -0.0349 -0.0497  0.0194
 4236ntf    sn224649   6.176   0.949   2.561 -0.1988 -0.3062 -0.1974
 4236ntf    cn124650   6.200   1.064   2.700  0.0211 -0.0995 -0.4075
 4236ntf    fn424651   6.245   0.851   2.164  0.2078 -0.3026  0.2146
 4236ntf    fn424652   6.084   0.848   2.293  0.1605 -0.2446 -0.0455
 4236ntf    fn424653   6.072   0.971   2.117  0.6385  0.7359 -0.1329
 4236ntf    on524654   6.335   1.101   2.235 -0.1817  0.4560  0.0824
 4236ntf    on524655   6.112   1.164   2.333  0.1418  0.0934 -0.0835
 4236ntf    on524656   6.235   0.826   2.610  0.0113 -0.2718 -0.3648
 4236ntf    on524657   6.033   0.943   2.542 -0.0958 -0.5459 -0.9300
 4236ntf    fn424658   6.323   1.069   2.749 -0.2145  0.0065  0.1822
 4236ntf    fn424659   6.161   1.183   2.658  0.0817 -0.2589 -0.9300
 4236ntf    fn424660   6.131   1.025   2.805  0.1740  0.1633 -0.2088
 4237ntf    cn124661   4.629   3.612   3.148 -0.2396 -0.3656  0.0140
 4237ntf    sn224662   4.794   3.547   3.107 -0.0530  0.0317  0.1357
 4237ntf    nn324663   4.773   3.428   3.006  0.2451  0.2604 -0.1995
 4237ntf    sn224664   4.717   3.285   3.038  0.4414  0.2497  0.1068
 4237ntf    cn124665   4.865   3.208   3.110  0.3032  0.1626  0.2958
 4237ntf    fn424666   4.559   3.539   3.233 -0.4652 -0.2947 -0.1106
 4237ntf    fn424667   4.621   3.734   3.197 -0.3162 -0.2309 -0.3321
 4237ntf    fn424668   4.561   3.633   3.036 -0.1752  0.3852  0.1111
 4237ntf    on524669   4.860   3.647   3.026 -0.6866  0.2817 -0.0844
 4237ntf    on524670   4.851   3.519   3.236  0.0277 -0.1282  0.0652
 4237ntf    on524671   4.695   3.208   2.918  0.5132  0.4244 -0.0198
 4237ntf    on524672   4.610   3.296   3.134 -0.0681 -0.1150 -0.4080
 4237ntf    fn424673   4.980   3.225   3.048  0.2571 -0.0659  0.1444
 4237ntf    fn424674   4.881   3.245   3.236 -0.0096  0.3958  0.2694
 4237ntf    fn424675   4.861   3.076   3.122  0.1829  0.1091 -0.2887
 4238ntf    cn124676   2.212   3.141   5.721  0.0405 -0.1527  0.0436
 4238ntf    sn224677   2.062   3.047   5.680 -0.0012  0.0449 -0.2555
 4238ntf    nn324678   1.974   3.178   5.678 -0.2648 -0.1364 -0.7135
 4238ntf    sn224679   1.893   3.252   5.789  0.2730 -0.1029 -0.3384
 4238ntf    cn124680   1.730   3.173   5.768  0.2325 -0.1121 -0.0078
 4238ntf    fn424681   2.230   3.248   5.645  0.5386 -0.1042  0.2228
 4238ntf    fn424682   2.194   3.184   5.845  0.0998  0.4454 -0.1513
 4238ntf    fn424683   2.316   3.060   5.712  0.0351 -0.2468  0.7773
 4238ntf    on524684   2.079   2.999   5.545  0.3837 -0.3811 -0.0555
 4238ntf    on524685   2.031   2.950   5.781  0.9626  0.4027  0.3920
 4238ntf    on524686   1.876   3.391   5.751 -0.1140 -0.0773 -0.0809
 4238ntf    on524687   1.931   3.229   5.926 -0.2857 -0.4048 -0.2291
 4238ntf    fn424688   1.673   3.238   5.668  0.1089  0.4050  0.3923
 4238ntf    fn424689   1.733   3.044   5.737 -0.1258 -0.2393  0.4860
 4238ntf    fn424690   1.651   3.190   5.872  0.5769 -0.4564  0.3139
 4239ntf    cn124691   6.521   0.565   3.991 -0.2069  0.4494  0.3606
 4239ntf    sn224692   6.599   0.721   3.943 -0.2122  0.1507 -0.6264
 4239ntf    nn324693   6.473   0.815   3.951 -0.4209 -0.1984  0.2156
 4239ntf    sn224694   6.420   0.896   4.074  0.4080  0.1908  0.3259
 4239ntf    cn124695   6.462   1.067   4.027  0.1526  0.1408 -0.0924
 4239ntf    fn424696   6.449   0.581   4.101  0.1299  0.0522  0.6438
 4239ntf    fn424697   6.437   0.532   3.894  0.4183  0.0610 -0.0551
 4239ntf    fn424698   6.599   0.460   4.013  0.2656  0.6177 -0.4663
 4239ntf    on524699   6.704   0.745   4.039 -0.2536  1.0463 -0.7971
 4239ntf    on524700   6.638   0.713   3.804  0.4484 -0.0766 -0.4338
 4239ntf    on524701   6.489   0.882   4.200 -0.2720 -0.7925  0.6049
 4239ntf    on524702   6.276   0.888   4.088  0.4353  0.3021  0.6785
 4239ntf    fn424703   6.450   1.148   4.131  0.3119 -0.0081  0.0443
 4239ntf    fn424704   6.587   1.084   3.989  0.2871 -0.9087 -0.1581
 4239ntf    fn424705   6.389   1.108   3.925 -0.1135  0.6195  0.2869
 4240ntf    cn124706   7.136   5.669   2.635  0.4462  0.2154 -0.2129
 4240ntf    sn224707   7.272   5.665   2.514  0.3863  0.2758 -0.2820
 4240ntf    nn324708   7.396   5.663   2.610  0.0643 -0.4975  0.1328
 4240ntf    sn224709   7.541   5.723   2.599 -0.2239  0.1720 -0.1025
 4240ntf    cn124710   7.647   5.575   2.593 -0.0135  0.3145  0.0927
 4240ntf    fn424711   7.145   5.767   2.723  0.1319  0.0412  0.0156
 4240ntf    fn424712   7.021   5.665   2.570  0.0397  0.0341  0.4951
 4240ntf    fn424713   7.141   5.559   2.710  0.9247 -0.0571 -0.6367
 4240ntf    on524714   7.245   5.540   2.448  0.5447  0.4090 -0.6040
 4240ntf    on524715   7.248   5.781   2.432  0.6216  0.8439  0.4368
 4240ntf    on524716   7.568   5.790   2.724  0.7499  0.4247 -0.4383
 4240ntf    on524717   7.574   5.789   2.475 -0.1213  0.9545  0.3389
 4240ntf    fn424718   7.773   5.587   2.632  0.1689  0.0814 -0.4114
 4240ntf    fn424719   7.597   5.476   2.665 -0.3831 -0.0022 -0.5946
 4240ntf    fn424720   7.641   5.534   2.468 -0.0679  0.4952  0.0353
 4241ntf    cn124721   1.930   4.418   6.635  0.1186 -0.4516  0.1976
 4241ntf    sn224722   1.961   4.484   6.802  0.0438  0.4657 -0.1445
 4241ntf    nn324723   1.812   4.476   6.849 -0.0888 -0.4365 -0.6809
 4241ntf    sn224724   1.715   4.596   6.882  0.5840 -0.1659  0.3722
 4241ntf    cn124725   1.648   4.645   6.720  0.2213 -0.3046  0.4816
 4241ntf    fn424726   2.045   4.421   6.570 -0.1866  0.1058 -0.3250
 4241ntf    fn424727   1.901   4.289   6.639  0.7755 -0.5927  0.6599
 4241ntf    fn424728   1.854   4.491   6.555  0.4498 -0.1383  0.1647
 4241ntf    on524729   2.045   4.387   6.868  0.1521  0.2069 -0.6585
 4241ntf    on524730   2.019   4.609   6.760 -0.0428  0.5360 -0.0533
 4241ntf    on524731   1.781   4.714   6.931 -0.1416  0.3542  0.1102
 4241ntf    on524732   1.614   4.539   6.967 -0.1545  0.0218 -0.3708
 4241ntf    fn424733   1.744   4.677   6.636 -0.3313 -0.1725 -0.1108
 4241ntf    fn424734   1.579   4.548   6.661  0.5090 -0.3561  0.2292
 4241ntf    fn424735   1.565   4.748   6.724  0.2577 -0.2503 -0.1007
 4242ntf    cn124736   6.257   3.268   7.144 -0.1655 -0.1121 -0.4084
 4242ntf    sn224737   6.157   3.375   7.037 -0.0781  0.1986 -0.1824
 4242ntf    nn324738   6.151   3.493   7.141  0.1122  0.3437 -0.3348
 4242ntf    sn224739   6.042   3.512   7.252  0.3434  0.1873 -0.0790
 4242ntf    cn124740   5.924   3.629   7.176  0.3140  0.0816 -0.1960
 4242ntf    fn424741   6.356   3.327   7.210 -0.1628 -0.1615 -0.3686
 4242ntf    fn424742   6.196   3.224   7.253  0.3085  0.5091  0.1168
 4242ntf    fn424743   6.309   3.162   7.084  0.1084 -0.2517  0.0654
 4242ntf    on524744   6.252   3.411   6.935  0.3407  0.0080  0.1381
 4242ntf    on524745   6.035   3.307   7.001  0.1391 -0.0413 -0.4682
 4242ntf    on524746   6.098   3.591   7.359  0.0886  0.8282 -0.4117
 4242ntf    on524747   5.960   3.399   7.288 -0.0535  0.4841 -0.0436
 4242ntf    fn424748   5.841   3.698   7.252 -0.0967 -0.0253 -0.5389
 4242ntf    fn424749   5.983   3.709   7.088 -0.3159  0.1030 -0.6040
 4242ntf    fn424750   5.852   3.554   7.094 -0.1089  0.1267  0.1308
 4243ntf    cn124751   5.427   2.806   4.016 -0.5514 -0.2734  0.2491
 4243ntf    sn224752   5.504   2.832   4.178 -0.1787 -0.0707  0.0415
 4243ntf    nn324753   5.398   2.772   4.278 -0.6812 -0.0214 -0.4558
 4243ntf    sn224754   5.390   2.630   4.344 -0.1276  0.1221 -0.0786
 4243ntf    cn124755   5.497   2.639   4.491 -0.0422 -0.1057 -0.1263
 4243ntf    fn424756   5.399   2.680   3.989  0.5384 -0.3891 -0.3651
 4243ntf    fn424757   5.311   2.869   4.005 -0.5166 -0.0943  0.8612
 4243ntf    fn424758   5.504   2.849   3.917 -0.5458  0.3275  0.5075
 4243ntf    on524759   5.634   2.771   4.172  0.1908  0.6142  0.8321
 4243ntf    on524760   5.515   2.976   4.192  0.5640 -0.1949  0.7859
 4243ntf    on524761   5.454   2.527   4.266 -0.0250  0.5238 -0.5259
 4243ntf    on524762   5.259   2.602   4.396 -0.2055 -0.0316 -0.3564
 4243ntf    fn424763   5.445   2.722   4.580  0.7494  0.0750  0.1806
 4243ntf    fn424764   5.514   2.517   4.539 -0.4416  0.0935  0.5305
 4243ntf    fn424765   5.625   2.669   4.478 -0.1174  0.2564 -0.0377
 4244ntf    cn124766   2.107   1.568   6.042  0.4814  0.3820  0.4029
 4244ntf    sn224767   1.975   1.680   5.985  0.2210 -0.1375 -0.0297
 4244ntf    nn324768   1.854   1.581   5.974 -0.2705  0.5046 -0.3964
 4244ntf    sn224769   1.768   1.522   6.092  0.3640 -0.1212 -0.2428
 4244ntf    cn124770   1.796   1.347   6.052  0.1212 -0.1435 -0.3173
 4244ntf    fn424771   2.229   1.612   6.017  0.3038  0.4166 -0.4449
 4244ntf    fn424772   2.103   1.575   6.174 -0.3712  0.1373  0.3978
 4244ntf    fn424773   2.105   1.446   5.989 -0.0044  0.3435  0.5040
 4244ntf    on524774   1.951   1.783   6.083 -0.1184  0.5137 -0.7955
 4244ntf    on524775   2.008   1.721   5.851 -0.0191  0.2060  0.0178
 4244ntf    on524776   1.625   1.534   6.076  0.3160 -0.6967 -0.2635
 4244ntf    on524777   1.822   1.541   6.224  0.4082  0.2229 -0.3098
 4244ntf    fn424778   1.905   1.332   5.978  0.3142  0.4538 -0.1585
 4244ntf    fn424779   1.808   1.263   6.153  0.0376  0.1600 -0.0519
 4244ntf    fn424780   1.698   1.299   5.977 -0.5413  0.2360  0.2994
 4245ntf    cn124781   3.342   1.355   3.815 -0.0289  0.1523 -0.0310
 4245ntf    sn224782   3.219   1.436   3.922 -0.2844  0.0740 -0.2654
 4245ntf    nn324783   3.293   1.572   3.945 -0.8940  0.3478  0.0835
 4245ntf    sn224784   3.379   1.641   4.057 -0.3463  0.0868 -0.1736
 4245ntf    cn124785   3.376   1.817   4.010 -0.2610  0.1637  0.1089
 4245ntf    fn424786   3.385   1.429   3.714  0.5434 -0.3676 -0.1709
 4245ntf    fn424787   3.447   1.311   3.882 -0.3111  0.1464  0.4092
 4245ntf    fn424788   3.300   1.248   3.750 -0.3515  0.7415 -0.8012
 4245ntf    on524789   3.099   1.450   3.844 -0.4273 -0.5065 -0.1606
 4245ntf    on524790   3.225   1.354   4.040 -0.3155  0.2837 -0.1193
 4245ntf    on524791   3.513   1.589   4.061 -0.0320  0.8979  0.1608
 4245ntf    on524792   3.315   1.639   4.186  0.7265 -0.4009  0.3621
 4245ntf    fn424793   3.485   1.887   4.038  0.0551 -0.3968  0.3204
 4245ntf    fn424794   3.369   1.834   3.879  0.6146  0.0410  0.0368
 4245ntf    fn424795   3.278   1.882   4.071  0.0147  0.4056  0.3003
 4246ntf    cn124796   7.323   7.046   6.287  0.4267  0.3103  0.0385
 4246ntf    sn224797   7.209   7.118   6.409 -0.0771 -0.1677 -0.1421
 4246ntf    nn324798   7.081   7.097   6.322 -0.0399  0.0076 -0.2405
 4246ntf    sn224799   6.968   6.990   6.338  0.2112 -0.2224 -0.0050
 4246ntf    cn124800   6.823   7.092   6.299  0.2335 -0.0211  0.4364
 4246ntf    fn424801   7.440   7.011   6.338 -0.0069 -0.3717  0.5830
 4246ntf    fn424802   7.269   6.934   6.243 -0.0750  0.4148  0.3768
 4246ntf    fn424803   7.348   7.113   6.176  0.4929 -0.3913 -0.3712
 4246ntf    on524804   7.213   7.036   6.528 -0.0935  0.0777  0.0296
 4246ntf    on524805   7.242   7.259   6.413  0.0662 -0.1626 -1.3047
 4246ntf    on524806   6.931   6.955   6.473 -0.3233 -0.0465 -0.1022
 4246ntf    on524807   6.982   6.893   6.232 -0.1813 -0.0803 -0.1906
 4246ntf    fn424808   6.828   7.207   6.364 -0.8764 -0.1406  0.7621
 4246ntf    fn424809   6.822   7.132   6.173  0.5468 -1.1361  0.0731
 4246ntf    fn424810   6.709   7.033   6.331  0.3737 -0.2574  0.5009
 4247ntf    cn124811   2.265   2.050   4.141  0.4258  0.2286  0.0325
 4247ntf    sn224812   2.326   2.014   4.308 -0.1574  0.0313  0.2036
 4247ntf    nn324813   2.473   2.065   4.287 -0.4013  0.5344 -0.3082
 4247ntf    sn224814   2.559   2.157   4.381  0.1867 -0.0961 -0.2272
 4247ntf    cn124815   2.721   2.073   4.376  0.1336 -0.2326  0.2692
 4247ntf    fn424816   2.237   2.177   4.115  0.3546  0.1492 -0.2921
 4247ntf    fn424817   2.327   2.001   4.035 -0.0530  0.3178 -0.2933
 4247ntf    fn424818   2.146   1.992   4.133  0.6953 -0.3741  0.3853
 4247ntf    on524819   2.239   2.086   4.398 -0.0713 -0.0125  0.3210
 4247ntf    on524820   2.308   1.872   4.322 -0.2490  0.0312  0.0892
 4247ntf    on524821   2.534   2.149   4.523 -0.2586  0.2042 -0.2893
 4247ntf    on524822   2.588   2.287   4.327  0.2990 -0.0968 -0.1684
 4247ntf    fn424823   2.819   2.149   4.422  0.2475 -0.6624  0.7467
 4247ntf    fn424824   2.721   1.972   4.461 -0.2436 -0.0919  0.4446
 4247ntf    fn424825   2.760   2.023   4.261 -0.3778 -0.2308  0.0915
 4248ntf    cn124826   0.523   3.241   1.834  0.0214 -0.1441  0.0160
 4248ntf    sn224827   0.432   3.255   1.991  0.0544  0.1166  0.0132
 4248ntf    nn324828   0.304   3.325   1.933  0.0963 -0.0957 -0.3419
 4248ntf    sn224829   0.269   3.475   1.900  0.2426  0.0857  0.3047
 4248ntf    cn124830   0.239   3.462   1.721  0.2156 -0.1569  0.3256
 4248ntf    fn424831   0.531   3.365   1.787 -0.5332 -0.1217 -0.0248
 4248ntf    fn424832   0.642   3.185   1.850  0.4188  0.4900 -0.6617
 4248ntf    fn424833   0.459   3.172   1.741  0.0718  0.3189 -0.3684
 4248ntf    on524834   0.400   3.122   2.038 -0.5082  0.3800  0.3819
 4248ntf    on524835   0.509   3.334   2.084  0.7025  0.1571 -0.5488
 4248ntf    on524836   0.378   3.568   1.916  0.3308 -0.0383  0.4242
 4248ntf    on524837   0.136   3.510   1.945  0.0445 -0.0143 -0.1867
 4248ntf    fn424838   0.158   3.363   1.689  0.4109 -0.3055  0.2904
 4248ntf    fn424839   0.195   3.577   1.673 -0.2973 -0.4745  0.0279
 4248ntf    fn424840   0.347   3.431   1.650  0.1160  0.0854  0.0681
 4249ntf    cn124841   0.595   6.494   4.648 -0.0343 -0.2305 -0.3246
 4249ntf    sn224842   0.525   6.638   4.562 -0.0268 -0.0864 -0.0938
 4249ntf    nn324843   0.371   6.611   4.567 -0.0898  0.2401 -0.2243
 4249ntf    sn224844   0.272   6.554   4.459 -0.0248  0.2085 -0.2673
 4249ntf    cn124845   0.144   6.480   4.565  0.4229 -0.1102  0.0501
 4249ntf    fn424846   0.548   6.377   4.610  0.0521 -0.2751 -0.2936
 4249ntf    fn424847   0.727   6.490   4.642 -0.0291 -0.1950 -0.2440
 4249ntf    fn424848   0.560   6.503   4.776  0.8593 -0.2405 -0.0683
 4249ntf    on524849   0.572   6.750   4.639  0.0662  0.1524 -0.4901
 4249ntf    on524850   0.588   6.625   4.432  0.4183  0.0376  0.1069
 4249ntf    on524851   0.311   6.439   4.381 -0.0554 -0.1117  0.1883
 4249ntf    on524852   0.189   6.653   4.393 -0.3139  0.3801  0.3446
 4249ntf    fn424853   0.074   6.569   4.633  0.0996 -0.1945 -0.1752
 4249ntf    fn424854   0.053   6.417   4.494 -0.0904 -0.1724  0.7559
 4249ntf    fn424855   0.191   6.396   4.656  0.1827 -0.0317  0.2499
 4250ntf    cn124856   1.543   2.740   1.701 -0.5376  0.2087 -0.2220
 4250ntf    sn224857   1.677   2.620   1.725 -0.3611  0.4074 -0.2110
 4250ntf    nn324858   1.593   2.492   1.691  0.4761 -0.1524 -0.2037
 4250ntf    sn224859   1.574   2.419   1.553 -0.2630 -0.3396 -0.0104
 4250ntf    cn124860   1.709   2.298   1.564  0.2891  0.2688 -0.0255
 4250ntf    fn424861   1.565   2.854   1.765 -0.2654 -0.1535  0.3384
 4250ntf    fn424862   1.529   2.772   1.573  0.6884  0.3023 -0.3445
 4250ntf    fn424863   1.431   2.689   1.749 -0.1844  0.0243  0.4229
 4250ntf    on524864   1.786   2.655   1.638  0.5802 -0.5835  0.5362
 4250ntf    on524865   1.712   2.626   1.865 -0.5597 -0.4480 -0.1215
 4250ntf    on524866   1.597   2.506   1.440 -0.9009 -0.6384 -0.3728
 4250ntf    on524867   1.462   2.329   1.559 -0.5740  0.0757  0.4799
 4250ntf    fn424868   1.702   2.200   1.475 -0.2938 -0.1837  0.5098
 4250ntf    fn424869   1.829   2.350   1.543  0.6122 -0.2785  0.4500
 4250ntf    fn424870   1.707   2.236   1.680  0.4429  0.2822 -0.0156
 4251ntf    cn124871   6.604   3.059   6.180 -0.0874  0.1368  0.0532
 4251ntf    sn224872   6.782   3.083   6.206 -0.0697  0.2334 -0.1558
 4251ntf    nn324873   6.843   2.951   6.147 -1.0918 -0.3744  0.1340
 4251ntf    sn224874   6.845   2.813   6.223 -0.1603 -0.3628  0.1379
 4251ntf    cn124875   6.789   2.720   6.077 -0.3334 -0.2806  0.1515
 4251ntf    fn424876   6.572   3.014   6.060  0.1130 -0.0782  0.0808
 4251ntf    fn424877   6.556   2.969   6.265 -0.7667  0.5761  0.1420
 4251ntf    fn424878   6.521   3.160   6.198 -0.2887 -0.1331  0.6840
 4251ntf    on524879   6.814   3.200   6.129  0.5819 -0.2301 -0.6025
 4251ntf    on524880   6.808   3.092   6.348 -0.0337  0.1788 -0.1588
 4251ntf    on524881   6.742   2.789   6.321 -0.4353  0.3609  0.0306
 4251ntf    on524882   6.976   2.757   6.244 -0.1068 -0.3185 -0.0741
 4251ntf    fn424883   6.686   2.783   6.023 -0.1685 -0.3008 -0.1920
 4251ntf    fn424884   6.875   2.695   5.980 -0.3619 -0.1641  0.0959
 4251ntf    fn424885   6.749   2.598   6.110  0.3065 -0.6899 -0.5550
 4252ntf    cn124886   2.114   2.709   6.678 -0.1482 -0.4033  0.3531
 4252ntf    sn224887   2.077   2.538   6.728 -0.4596 -0.3795  0.2088
 4252ntf    nn324888   2.018   2.568   6.870  0.0367 -0.1595  0.3712
 4252ntf    sn224889   1.866   2.579   6.908 -0.0996  0.0938 -0.2492
 4252ntf    cn124890   1.814   2.413   6.962  0.2027  0.0350 -0.1376
 4252ntf    fn424891   2.015   2.758   6.605 -0.3803 -0.4051  0.6674
 4252ntf    fn424892   2.158   2.790   6.772 -0.5883 -0.0576  0.2625
 4252ntf    fn424893   2.214   2.707   6.591 -0.2220  0.5723  0.2423
 4252ntf    on524894   1.996   2.498   6.616 -0.0333 -0.3657 -0.1096
 4252ntf    on524895   2.207   2.475   6.737 -0.2086  0.1414  0.2961
 4252ntf    on524896   1.775   2.621   6.804 -0.1963  0.3259 -0.0694
 4252ntf    on524897   1.843   2.659   7.025 -0.2456 -0.0647 -0.1697
 4252ntf    fn424898   1.850   2.316   6.880 -0.0396 -0.2228  0.0593
 4252ntf    fn424899   1.856   2.385   7.084  0.2514  0.5343 -0.0350
 4252ntf    fn424900   1.683   2.397   6.974  0.2795 -0.1749  0.4428
 4253ntf    cn124901   3.637   3.839   1.498 -0.4373  0.4799 -0.0105
 4253ntf    sn224902   3.533   3.909   1.630 -0.1259 -0.1277  0.5674
 4253ntf    nn324903   3.400   3.885   1.552  0.3029 -0.1107 -0.1826
 4253ntf    sn224904   3.292   3.985   1.496  0.2048 -0.0355  0.1414
 4253ntf    cn124905   3.350   4.013   1.326 -0.1221  0.0705  0.0475
 4253ntf    fn424906   3.617   3.710   1.477 -0.6971  0.4928  0.1480
 4253ntf    fn424907   3.623   3.900   1.382 -0.6728  0.0056 -0.2328
 4253ntf    fn424908   3.766   3.849   1.526 -0.3883 -0.6524  0.2291
 4253ntf    on524909   3.567   3.832   1.747 -0.1561  0.4926  0.9916
 4253ntf    on524910   3.577   4.047   1.627  0.2958 -0.2639  0.2957
 4253ntf    on524911   3.300   4.118   1.550  0.2388  0.0870 -0.1634
 4253ntf    on524912   3.160   3.928   1.487  0.2445 -0.1745  0.4055
 4253ntf    fn424913   3.255   4.059   1.246 -0.1226 -0.1513 -0.0794
 4253ntf    fn424914   3.452   4.096   1.320  0.0410 -0.1285  0.0815
 4253ntf    fn424915   3.403   3.902   1.279  0.4079  0.4080 -0.1599
 4254ntf    cn124916   0.570   3.593   0.011 -0.2348  0.1630 -0.5491
 4254ntf    sn224917   0.646   3.429   0.024 -0.3643  0.1362 -0.1309
 4254ntf    nn324918   0.754   3.430  -0.089 -0.3823 -0.5645 -0.1637
 4254ntf    sn224919   0.765   3.360  -0.229  0.1429 -0.0197 -0.4047
 4254ntf    cn124920   0.886   3.473  -0.303  0.0969  0.2338 -0.0957
 4254ntf    fn424921   0.449   3.585   0.064 -0.2478 -0.1634 -0.6303
 4254ntf    fn424922   0.648   3.677   0.077 -0.0000 -0.1834 -0.3885
 4254ntf    fn424923   0.561   3.639  -0.113  0.0714  0.3564 -0.5010
 4254ntf    on524924   0.702   3.413   0.156  0.4045 -0.0272 -0.4734
 4254ntf    on524925   0.544   3.331  -0.004  0.0304 -0.1736 -0.5001
 4254ntf    on524926   0.658   3.362  -0.326 -0.0978  0.0190 -0.1395
 4254ntf    on524927   0.838   3.237  -0.210  0.2801  0.0212 -0.6687
 4254ntf    fn424928   1.001   3.475  -0.237 -0.2429 -0.4190  0.5351
 4254ntf    fn424929   0.908   3.440  -0.429  0.4763 -0.0510  0.0417
 4254ntf    fn424930   0.845   3.598  -0.316  0.1056  0.1641 -0.8119
 4255ntf    cn124931   0.720   3.881   0.683 -0.2716  0.0879  0.3837
 4255ntf    sn224932   0.818   4.018   0.749  0.0321  0.0286  0.0596
 4255ntf    nn324933   0.748   4.040   0.888 -0.2339  0.4759 -0.1397
 4255ntf    sn224934   0.737   4.170   0.975 -0.1441 -0.0171  0.6218
 4255ntf    cn124935   0.578   4.236   0.917  0.1820  0.2065 -0.0330
 4255ntf    fn424936   0.735   3.782   0.770  0.3526 -0.1494  0.0105
 4255ntf    fn424937   0.589   3.901   0.685 -0.2778  0.0225  0.6020
 4255ntf    fn424938   0.751   3.837   0.562 -0.0959  0.2110  0.3844
 4255ntf    on524939   0.953   3.970   0.759 -0.0413 -0.0456  0.7402
 4255ntf    on524940   0.803   4.127   0.656 -0.8909 -0.2551 -0.1390
 4255ntf    on524941   0.840   4.267   0.947 -0.0035 -0.4769 -0.5129
 4255ntf    on524942   0.704   4.146   1.113 -0.0711 -0.4551  0.5638
 4255ntf    fn424943   0.536   4.341   0.985  0.1650  0.0645  0.1771
 4255ntf    fn424944   0.584   4.279   0.792  0.3443  0.9748  0.2349
 4255ntf    fn424945   0.482   4.144   0.920  0.4014 -0.0040  1.0097
 4256ntf    cn124946   2.435   6.837   1.036 -0.3754 -0.2364 -0.1849
 4256ntf    sn224947   2.482   6.921   0.882  0.2353 -0.1452  0.0487
 4256ntf    nn324948   2.372   6.861   0.788  0.3651 -0.4328  0.0801
 4256ntf    sn224949   2.366   6.726   0.707  0.4660 -0.3970  0.0122
 4256ntf    cn124950   2.411   6.778   0.539 -0.0072  0.0356  0.0139
 4256ntf    fn424951   2.506   6.900   1.127 -0.7035 -0.2005  0.0472
 4256ntf    fn424952   2.306   6.846   1.066 -0.1983  0.6763  0.3380
 4256ntf    fn424953   2.460   6.707   1.027  0.1633 -0.1800  0.4726
 4256ntf    on524954   2.476   7.065   0.894 -0.8309 -0.1925  0.1873
 4256ntf    on524955   2.611   6.861   0.861  0.5524  0.4379  0.3103
 4256ntf    on524956   2.230   6.679   0.698  0.1454  0.4709  0.1992
 4256ntf    on524957   2.458   6.625   0.751  0.3494 -0.4883  0.0454
 4256ntf    fn424958   2.449   6.684   0.454  0.7262  0.3786 -0.0499
 4256ntf    fn424959   2.306   6.830   0.479 -0.0823 -0.2909 -0.1365
 4256ntf    fn424960   2.510   6.865   0.524 -0.3379  0.2973 -0.7004
 4257ntf    cn124961   4.858   6.691   2.696 -0.3762  0.2658 -0.0086
 4257ntf    sn224962   4.877   6.854   2.774  0.0717  0.2070  0.0119
 4257ntf    nn324963   5.006   6.835   2.862 -0.4219 -0.4971  0.5959
 4257ntf    sn224964   5.155   6.884   2.852 -0.4759 -0.3620  0.4308
 4257ntf    cn124965   5.147   7.056   2.908  0.3791 -0.1983  0.0585
 4257ntf    fn424966   4.763   6.688   2.605 -0.1048 -0.1177 -0.2862
 4257ntf    fn424967   4.965   6.648   2.631 -0.2572  0.2574  0.1903
 4257ntf    fn424968   4.834   6.597   2.787  0.6596 -0.0267 -0.0202
 4257ntf    on524969   4.892   6.944   2.662 -0.0786  0.6147  0.3193
 4257ntf    on524970   4.756   6.869   2.851 -0.0338  0.0842 -0.1288
 4257ntf    on524971   5.209   6.885   2.719 -0.4455  0.8098  0.4440
 4257ntf    on524972   5.237   6.826   2.955 -0.0895 -0.8914 -0.1660
 4257ntf    fn424973   5.091   7.130   2.814  0.7885 -0.4334 -0.3758
 4257ntf    fn424974   5.064   7.057   3.011  0.6234  0.3147  0.2569
 4257ntf    fn424975   5.249   7.125   2.957  0.2455  0.1240 -0.1157
 4258ntf    cn124976   1.233   1.167   7.109 -0.1400 -0.1273  0.0376
 4258ntf    sn224977   1.164   1.280   7.234  0.0905  0.2327 -0.1577
 4258ntf    nn324978   1.286   1.378   7.246 -0.0080  0.3297  0.0611
 4258ntf    sn224979   1.373   1.426   7.367  0.0308 -0.0375  0.1814
 4258ntf    cn124980   1.278   1.562   7.441  0.0628 -0.0828  0.3046
 4258ntf    fn424981   1.146   1.069   7.091  0.3038 -0.3841 -0.7496
 4258ntf    fn424982   1.261   1.216   6.989 -0.0020 -0.9108 -0.2554
 4258ntf    fn424983   1.348   1.112   7.146 -0.0526  0.0929  0.0991
 4258ntf    on524984   1.050   1.339   7.167 -0.0605  0.6351  0.4432
 4258ntf    on524985   1.143   1.190   7.345  0.7931  0.6267  0.3032
 4258ntf    on524986   1.491   1.485   7.307  0.1030  0.1238  0.4817
 4258ntf    on524987   1.387   1.334   7.477 -0.8219 -0.3438  0.0410
 4258ntf    fn424988   1.295   1.672   7.370  0.1612 -0.1403  0.2390
 4258ntf    fn424989   1.151   1.526   7.436  0.3234 -1.0521  0.3159
 4258ntf    fn424990   1.308   1.589   7.567  0.3725  0.0753  0.1967
 4259ntf    cn124991   4.141   0.752   2.214  0.0013  0.0424 -0.0485
 4259ntf    sn224992   4.208   0.603   2.135  0.0594  0.1229 -0.1534
 4259ntf    nn324993   4.348   0.574   2.200  0.0937 -0.0601 -0.3076
 4259ntf    sn224994   4.413   0.456   2.280  0.1206  0.2514  0.1362
 4259ntf    cn124995   4.391   0.511   2.452  0.5334  0.0631  0.2517
 4259ntf    fn424996   4.227   0.853   2.218  0.3864 -0.3021  0.3915
 4259ntf    fn424997   4.032   0.802   2.158 -0.1052  0.0840  0.1950
 4259ntf    fn424998   4.102   0.726   2.337  0.3162 -0.3298 -0.0250
 4259ntf    on524999   4.110   0.498   2.150 -0.5411  0.6442 -0.4106
 4259ntf    on525000   4.225   0.643   1.998 -1.0755  0.3411 -0.2427
 4259ntf    on525001   4.556   0.455   2.260  0.1667  0.1551  0.4620
 4259ntf    on525002   4.336   0.334   2.274  0.1962  0.1996  0.2138
 4259ntf    fn425003   4.399   0.419   2.546  0.0003 -0.0306  0.2095
 4259ntf    fn425004   4.466   0.616   2.484  0.3371  0.3844 -0.3150
 4259ntf    fn425005   4.274   0.570   2.474  0.2419 -0.3854 -0.0805
 4260ntf    cn125006   1.300   3.634   3.694 -0.0262  0.0426  0.2560
 4260ntf    sn225007   1.214   3.491   3.623 -0.0250  0.0382  0.2630
 4260ntf    nn325008   1.083   3.555   3.565 -0.0412 -0.4068 -0.1998
 4260ntf    sn225009   1.034   3.567   3.416  0.7286  0.2845 -0.4062
 4260ntf    cn125010   0.920   3.706   3.442  0.2118 -0.2126  0.0147
 4260ntf    fn425011   1.218   3.717   3.758 -0.0253  0.1886  0.0698
 4260ntf    fn425012   1.406   3.605   3.767  0.1591 -0.2788 -0.1399
 4260ntf    fn425013   1.337   3.723   3.604 -0.2867 -0.2509 -0.1423
 4260ntf    on525014   1.306   3.437   3.526 -0.2617 -0.1332  0.1353
 4260ntf    on525015   1.194   3.403   3.736  0.8889 -0.1095  0.3209
 4260ntf    on525016   0.947   3.459   3.377  0.6428  0.0535  0.3971
 4260ntf    on525017   1.130   3.604   3.315  0.7281 -0.2199 -0.5928
 4260ntf    fn425018   0.808   3.675   3.505  0.0045  0.1345 -0.1850
 4260ntf    fn425019   0.987   3.788   3.521 -0.2013 -0.3498  0.5117
 4260ntf    fn425020   0.888   3.763   3.327  0.0404 -0.3692 -0.0159
 4261ntf    cn125021   1.736   5.479   6.822 -0.3336 -0.2100 -0.0820
 4261ntf    sn225022   1.554   5.472   6.814 -0.3425 -0.1159  0.0399
 4261ntf    nn325023   1.524   5.415   6.671  0.5371  0.5793 -0.4308
 4261ntf    sn225024   1.537   5.267   6.621  0.0218  0.3771  0.0321
 4261ntf    cn125025   1.369   5.198   6.610 -0.0160  0.4644  0.0624
 4261ntf    fn425026   1.786   5.571   6.742  0.3217 -0.1071  0.4399
 4261ntf    fn425027   1.783   5.511   6.941  0.2444  0.1021 -0.3897
 4261ntf    fn425028   1.793   5.365   6.786  0.5858  0.0504  0.5403
 4261ntf    on525029   1.521   5.387   6.926  0.1353  0.3043  0.5015
 4261ntf    on525030   1.515   5.610   6.823  0.1156 -0.0009  0.2725
 4261ntf    on525031   1.595   5.179   6.719 -0.1460  0.3402  0.1000
 4261ntf    on525032   1.581   5.269   6.484  0.0477  0.3524  0.0402
 4261ntf    fn425033   1.372   5.077   6.556 -0.0332  0.3964  0.2143
 4261ntf    fn425034   1.314   5.181   6.729 -0.3245 -0.0868 -0.1561
 4261ntf    fn425035   1.291   5.273   6.534 -0.4556  0.3035  0.3515
 4262ntf    cn125036   2.088   1.982   2.189 -0.0495 -0.3535 -0.4632
 4262ntf    sn225037   2.158   1.896   2.045  0.6003 -0.3021 -0.1786
 4262ntf    nn325038   2.086   1.962   1.923  0.3796 -0.0544  0.0852
 4262ntf    sn225039   2.059   1.913   1.777  0.3774 -0.2000  0.1346
 4262ntf    cn125040   1.880   1.885   1.786  0.3538 -0.1120 -0.0485
 4262ntf    fn425041   2.113   2.112   2.183 -0.8280 -0.1686  0.0617
 4262ntf    fn425042   1.956   1.972   2.195 -0.0466 -0.1199  0.0243
 4262ntf    fn425043   2.137   1.932   2.301  0.2029 -0.3065 -0.5537
 4262ntf    on525044   2.298   1.927   2.058  0.4798  0.3400 -0.4204
 4262ntf    on525045   2.116   1.760   2.067 -0.3919  0.0142 -0.0847
 4262ntf    on525046   2.113   1.785   1.737 -0.3659 -0.4303 -0.1527
 4262ntf    on525047   2.071   2.024   1.685  0.0573 -0.2857 -0.0142
 4262ntf    fn425048   1.824   1.842   1.674  0.1203 -0.1637  0.0861
 4262ntf    fn425049   1.857   1.796   1.881 -0.3284 -0.5939 -0.6514
 4262ntf    fn425050   1.812   1.995   1.817  0.4527 -0.1033  0.1397
 4263ntf    cn125051   5.653   2.134   3.251  0.1499 -0.1589 -0.2305
 4263ntf    sn225052   5.812   2.220   3.271  0.0170  0.0489 -0.0572
 4263ntf    nn325053   5.835   2.224   3.427 -0.4923  0.2570  0.0119
 4263ntf    sn225054   5.952   2.158   3.506 -0.3445  0.1575 -0.2887
 4263ntf    cn125055   5.996   2.298   3.614 -0.0172 -0.2050  0.0561
 4263ntf    fn425056   5.647   2.021   3.319  0.0895 -0.1781 -0.2677
 4263ntf    fn425057   5.556   2.218   3.283  0.6347  0.2332  0.2306
 4263ntf    fn425058   5.627   2.094   3.128 -0.0146 -0.6939 -0.0246
 4263ntf    on525059   5.896   2.139   3.186  0.0768  0.9592 -0.8772
 4263ntf    on525060   5.769   2.351   3.232  0.2623  0.3797  0.7450
 4263ntf    on525061   6.083   2.144   3.446 -0.2846  0.3548 -0.2019
 4263ntf    on525062   5.917   2.048   3.593  0.2393 -0.1511 -0.4377
 4263ntf    fn425063   6.035   2.396   3.534  0.2937 -0.6804 -0.3845
 4263ntf    fn425064   5.891   2.339   3.682  0.4675  0.4155  0.4389
 4263ntf    fn425065   6.093   2.273   3.700 -0.0256 -0.4630 -0.0088
 4264ntf    cn125066   2.198   6.659   5.851  0.1409 -0.1417  0.0068
 4264ntf    sn225067   2.252   6.832   5.840  0.0628 -0.1353 -0.2820
 4264ntf    nn325068   2.122   6.900   5.783  0.0547 -0.3057 -0.4662
 4264ntf    sn225069   2.084   7.043   5.731  0.1321 -0.1717 -0.1587
 4264ntf    cn125070   2.027   7.099   5.894  0.3296  0.0288 -0.1587
 4264ntf    fn425071   2.089   6.653   5.926  0.4638  0.4282  0.5356
 4264ntf    fn425072   2.173   6.601   5.735 -0.0699 -0.4468  0.2015
 4264ntf    fn425073   2.291   6.587   5.912 -0.0199  0.1591  0.6168
 4264ntf    on525074   2.276   6.874   5.976  0.3750 -1.1974 -0.0044
 4264ntf    on525075   2.357   6.818   5.742 -0.1137  0.1359 -0.5120
 4264ntf    on525076   1.963   7.042   5.652 -0.1773 -0.2471  0.3148
 4264ntf    on525077   2.197   7.123   5.693  0.2601 -0.0793  0.4143
 4264ntf    fn425078   1.969   7.218   5.889  0.3694  0.0725  0.3658
 4264ntf    fn425079   1.939   7.016   5.948 -0.0390  0.1041 -0.6451
 4264ntf    fn425080   2.125   7.118   5.981  0.6438 -0.7326 -0.3364
 4265ntf    cn125081   2.483   4.668   7.134  0.1084  0.3433  0.3805
 4265ntf    sn225082   2.318   4.649   7.208 -0.1424  0.2001 -0.2030
 4265ntf    nn325083   2.341   4.673   7.362 -0.3077  0.0520 -0.1537
 4265ntf    sn225084   2.306   4.796   7.453 -0.0010  0.0745 -0.0633
 4265ntf    cn125085   2.149   4.752   7.534 -0.0459  0.2780 -0.0377
 4265ntf    fn425086   2.537   4.783   7.169  0.3437  0.4184 -0.2138
 4265ntf    fn425087   2.568   4.578   7.181 -0.4401 -0.0554  0.6274
 4265ntf    fn425088   2.482   4.649   7.003 -0.1940  0.5358  0.3562
 4265ntf    on525089   2.239   4.744   7.134 -0.1143 -0.3421 -0.9419
 4265ntf    on525090   2.281   4.512   7.180  0.1173  0.0689  0.0835
 4265ntf    on525091   2.269   4.922   7.392  0.6009  0.4084  0.2581
 4265ntf    on525092   2.398   4.807   7.563  0.4323  0.9907 -0.5044
 4265ntf    fn425093   2.163   4.740   7.665 -0.1851 -0.2107 -0.0636
 4265ntf    fn425094   2.064   4.853   7.530  0.0598  0.3367 -1.1425
 4265ntf    fn425095   2.095   4.639   7.490  0.1643  0.1918 -0.0791
 4266ntf    cn125096   2.136   0.159   1.227 -0.1414  0.0232  0.0052
 4266ntf    sn225097   2.214   0.002   1.276 -0.2589  0.0037  0.1279
 4266ntf    nn325098   2.246   0.035   1.426  0.1297 -0.4483  0.1461
 4266ntf    sn225099   2.388   0.045   1.492  0.0300 -0.0045  0.2932
 4266ntf    cn125100   2.369  -0.104   1.595  0.0624 -0.2519 -0.0576
 4266ntf    fn425101   2.068   0.142   1.115  0.1916 -0.2206 -0.1653
 4266ntf    fn425102   2.064   0.220   1.319 -0.7290  0.1215 -0.5175
 4266ntf    fn425103   2.233   0.238   1.183 -0.2151 -0.0033 -0.2088
 4266ntf    on525104   2.101  -0.086   1.254 -0.1450  0.1358 -1.0803
 4266ntf    on525105   2.323  -0.003   1.182 -0.1153  0.2126  0.2818
 4266ntf    on525106   2.404   0.145   1.595  0.1528 -0.0557  0.3234
 4266ntf    on525107   2.503   0.015   1.411 -0.1584  0.0428  0.0054
 4266ntf    fn425108   2.482  -0.142   1.653  0.1358 -0.6732 -0.4665
 4266ntf    fn425109   2.275  -0.080   1.685 -0.3531  0.2325 -0.6157
 4266ntf    fn425110   2.331  -0.203   1.517 -0.0133 -0.0580 -0.2691
 4267ntf    cn125111   6.121   2.573   3.950 -0.1860 -0.3259 -0.0512
 4267ntf    sn225112   6.257   2.570   3.830  0.0651  0.2958  0.2090
 4267ntf    nn325113   6.276   2.724   3.805 -0.1747  0.2999  0.0413
 4267ntf    sn225114   6.408   2.809   3.806  0.0493 -0.0439  0.1452
 4267ntf    cn125115   6.419   2.863   3.979  0.2156  0.0430  0.1081
 4267ntf    fn425116   6.094   2.455   4.004  0.2020 -0.4252 -0.0751
 4267ntf    fn425117   6.140   2.655   4.052 -0.0655 -0.1346 -0.2268
 4267ntf    fn425118   6.008   2.608   3.890  0.0459 -0.4259 -0.5433
 4267ntf    on525119   6.368   2.507   3.897 -0.1753  0.0139  0.3438
 4267ntf    on525120   6.200   2.505   3.714  0.5646 -0.1919  0.2361
 4267ntf    on525121   6.396   2.937   3.741  0.4293  0.0717  0.2987
 4267ntf    on525122   6.528   2.732   3.784  0.4188  0.4592  0.3734
 4267ntf    fn425123   6.490   2.775   4.047  0.2165 -0.0131  0.0344
 4267ntf    fn425124   6.484   2.978   3.993  0.1954  0.1117 -0.3510
 4267ntf    fn425125   6.305   2.878   4.045  0.1049  0.1491 -0.1067
 4268ntf    cn125126   3.159   4.896   6.851  0.3366  0.0096  0.2325
 4268ntf    sn225127   2.986   4.952   6.857  0.2430 -0.2347 -0.1145
 4268ntf    nn325128   3.013   5.091   6.926 -0.0498 -0.3191  0.1740
 4268ntf    sn225129   2.931   5.177   7.028  0.0768 -0.0912  0.0840
 4268ntf    cn125130   3.030   5.141   7.176  0.1008  0.0389  0.0999
 4268ntf    fn425131   3.245   4.981   6.798 -0.1272 -0.0627 -0.6509
 4268ntf    fn425132   3.206   4.849   6.965  0.6618 -0.5745 -0.1338
 4268ntf    fn425133   3.160   4.792   6.769  0.7489  0.1944  0.0016
 4268ntf    on525134   2.943   4.978   6.722 -0.4024 -0.5291  0.0336
 4268ntf    on525135   2.917   4.848   6.929  0.0389 -0.1315 -0.1612
 4268ntf    on525136   2.795   5.135   7.053 -0.1330  0.4590 -0.1130
 4268ntf    on525137   2.958   5.315   6.998 -0.0829 -0.1583 -0.3912
 4268ntf    fn425138   2.967   5.173   7.288 -0.7258  0.0590 -0.3589
 4268ntf    fn425139   3.055   5.011   7.176  0.2404  0.0659  0.0901
 4268ntf    fn425140   3.152   5.189   7.167  0.1777 -0.1122  0.3394
 4269ntf    cn125141   7.090   6.133   3.247 -0.2155  0.1379  0.0025
 4269ntf    sn225142   6.990   5.988   3.289  0.1231 -0.1240 -0.0867
 4269ntf    nn325143   7.010   5.968   3.443 -0.4621 -0.6784 -0.0733
 4269ntf    sn225144   7.141   5.936   3.523 -0.0262  0.5980 -0.2443
 4269ntf    cn125145   7.114   5.763   3.572  0.6341  0.5630  0.0087
 4269ntf    fn425146   7.013   6.217   3.180  0.0497  0.4250  0.0534
 4269ntf    fn425147   7.132   6.195   3.356 -0.1794 -0.0047  0.0695
 4269ntf    fn425148   7.191   6.101   3.167  0.0050  0.5283  0.1222
 4269ntf    on525149   6.856   6.031   3.257  0.1466 -0.0622 -0.1029
 4269ntf    on525150   7.048   5.878   3.215 -0.3491 -0.3993 -0.0574
 4269ntf    on525151   7.132   6.006   3.648 -0.2168  0.2477 -0.0624
 4269ntf    on525152   7.265   5.943   3.450 -0.0226 -0.6237 -0.3874
 4269ntf    fn425153   7.007   5.750   3.648  0.2913 -0.3815 -0.6138
 4269ntf    fn425154   7.086   5.682   3.471  0.2115  0.1801  0.4279
 4269ntf    fn425155   7.210   5.716   3.650  0.2501 -0.5476 -0.1719
 4270ntf    cn125156   0.439   4.369   5.830  0.1490 -0.0176  0.5320
 4270ntf    sn225157   0.309   4.264   5.901 -0.1569 -0.0798 -0.1091
 4270ntf    nn325158   0.379   4.126   5.871  0.3493  0.1401  0.0347
 4270ntf    sn225159   0.329   3.995   5.800  0.0126 -0.0079  0.5328
 4270ntf    cn125160   0.199   3.949   5.918 -0.2918  0.0135  0.2098
 4270ntf    fn425161   0.438   4.366   5.698 -0.0231  0.0392  0.5320
 4270ntf    fn425162   0.417   4.494   5.868 -0.0730  0.1300 -0.0702
 4270ntf    fn425163   0.566   4.345   5.856  0.5164  0.5103 -0.7155
 4270ntf    on525164   0.322   4.297   6.041 -0.3785 -0.1146 -0.0814
 4270ntf    on525165   0.191   4.302   5.829 -0.0295  0.0998 -0.2230
 4270ntf    on525166   0.416   3.881   5.797 -0.1374 -0.1162  0.1589
 4270ntf    on525167   0.252   4.019   5.680  0.4803 -0.3538  0.1603
 4270ntf    fn425168   0.245   3.925   6.040  0.3952  0.7150  0.0973
 4270ntf    fn425169   0.105   4.041   5.928 -0.0732  0.2273  0.3034
 4270ntf    fn425170   0.140   3.838   5.876 -0.9019  0.5105 -0.2522
 4271ntf    cn125171   3.744   1.813   3.911 -0.1168  0.5945 -0.1409
 4271ntf    sn225172   3.803   1.879   4.070  0.1949  0.1010 -0.0491
 4271ntf    nn325173   3.957   1.888   4.043  0.1766 -0.1402 -0.2399
 4271ntf    sn225174   4.038   1.991   3.956  0.1219  0.0752 -0.0373
 4271ntf    cn125175   4.177   2.031   4.067  0.4338  0.1025 -0.4343
 4271ntf    fn425176   3.794   1.695   3.878 -0.1086  0.6353 -0.2779
 4271ntf    fn425177   3.614   1.794   3.918 -0.0488  0.1212 -0.1355
 4271ntf    fn425178   3.773   1.900   3.815  0.4679  0.6525  0.0786
 4271ntf    on525179   3.737   2.004   4.097  0.6347  0.3199  0.0227
 4271ntf    on525180   3.791   1.773   4.167 -0.4619  0.1234 -0.1016
 4271ntf    on525181   3.963   2.113   3.942 -0.3363 -0.1549  0.3763
 4271ntf    on525182   4.096   1.931   3.838 -0.0666  0.1021 -0.1435
 4271ntf    fn425183   4.266   2.105   4.003  0.4845  0.3120 -0.1242
 4271ntf    fn425184   4.144   2.103   4.172  0.4160 -0.0272 -0.3502
 4271ntf    fn425185   4.235   1.923   4.117 -0.2249 -0.0811 -0.0564
 4272ntf    cn125186   3.712   5.584   5.703  0.1677  0.1543  0.1961
 4272ntf    sn225187   3.728   5.558   5.524 -0.1286 -0.1463  0.2118
 4272ntf    nn325188   3.867   5.629   5.506 -0.0792 -0.4191 -0.5212
 4272ntf    sn225189   4.007   5.561   5.522  0.1626  0.1718 -0.0962
 4272ntf    cn125190   4.024   5.490   5.355 -0.2049  0.1573 -0.1284
 4272ntf    fn425191   3.602   5.536   5.758  0.2940 -0.0550  0.2651
 4272ntf    fn425192   3.809   5.526   5.772  0.2474  0.3874  0.2814
 4272ntf    fn425193   3.702   5.711   5.738 -0.0127  0.2676 -0.2572
 4272ntf    on525194   3.734   5.416   5.496  0.5337 -0.1275  0.2400
 4272ntf    on525195   3.622   5.636   5.465 -0.1888 -0.0468  0.4539
 4272ntf    on525196   4.009   5.457   5.621  0.2641  0.5962  0.3516
 4272ntf    on525197   4.104   5.667   5.540  0.1180  0.2666 -0.3958
 4272ntf    fn425198   3.914   5.494   5.282 -0.3333 -0.1788  0.0420
 4272ntf    fn425199   4.110   5.557   5.280 -0.4571 -0.0886 -0.6421
 4272ntf    fn425200   4.066   5.364   5.348 -0.3109  0.0745  0.5876
 4273ntf    cn125201   5.485   1.130   4.476  0.3278  0.6024  0.1910
 4273ntf    sn225202   5.465   1.126   4.295 -0.1843 -0.1695  0.2618
 4273ntf    nn325203   5.580   1.034   4.243 -0.3359  0.2566 -0.8450
 4273ntf    sn225204   5.698   1.062   4.144  0.1121  0.4269 -0.2665
 4273ntf    cn125205   5.646   0.933   4.027  0.0557  0.3056 -0.1070
 4273ntf    fn425206   5.378   1.195   4.518 -0.3047 -0.2677 -0.0668
 4273ntf    fn425207   5.488   1.011   4.534 -0.4099  0.5719  0.1747
 4273ntf    fn425208   5.594   1.194   4.516  0.0487  1.1478  0.0912
 4273ntf    on525209   5.334   1.067   4.279 -0.2240  0.0373 -0.1989
 4273ntf    on525210   5.476   1.262   4.246 -0.0037 -0.2867 -0.0223
 4273ntf    on525211   5.834   1.024   4.176 -0.2658 -0.4322  0.3372
 4273ntf    on525212   5.681   1.181   4.064  0.3279  0.2715 -0.5457
 4273ntf    fn425213   5.622   0.814   4.080 -0.9570  0.4883 -0.1340
 4273ntf    fn425214   5.547   0.963   3.944  0.2674  0.6411 -0.2392
 4273ntf    fn425215   5.749   0.906   3.949 -0.1418  0.5134 -0.4390
 4274ntf    cn125216   0.216   1.561   3.835  0.1656 -0.2401  0.1531
 4274ntf    sn225217   0.130   1.427   3.923  0.2547 -0.3654  0.0497
 4274ntf    nn325218  -0.020   1.473   3.921  0.3995  0.1188  0.3375
 4274ntf    sn225219  -0.107   1.558   4.021  0.0185  0.3551 -0.1913
 4274ntf    cn125220  -0.172   1.691   3.915 -0.0862  0.6791  0.2797
 4274ntf    fn425221   0.215   1.664   3.918 -0.5928 -0.1947  0.0931
 4274ntf    fn425222   0.341   1.532   3.802  0.1276 -0.1068 -0.1099
 4274ntf    fn425223   0.162   1.594   3.720  0.0984  0.1908  0.3071
 4274ntf    on525224   0.148   1.311   3.838  0.6252 -0.5393  0.3654
 4274ntf    on525225   0.190   1.418   4.053 -0.2685 -0.2874  0.2973
 4274ntf    on525226  -0.045   1.629   4.130 -0.0615 -0.2443  0.2480
 4274ntf    on525227  -0.230   1.494   4.058 -0.3972  0.7830 -0.8173
 4274ntf    fn425228  -0.229   1.641   3.807 -0.3448  0.8419  0.3380
 4274ntf    fn425229  -0.253   1.777   3.976 -0.3789  0.4244  0.2525
 4274ntf    fn425230  -0.078   1.773   3.869  0.2763 -0.1010 -0.3864
 4275ntf    cn125231   3.674   3.222   1.557  0.2124 -0.0703 -0.3134
 4275ntf    sn225232   3.772   3.078   1.506  0.0899 -0.4246  0.4400
 4275ntf    nn325233   3.664   2.966   1.524 -0.0395 -0.4289 -0.3472
 4275ntf    sn225234   3.667   2.832   1.605 -0.2773 -0.0105  0.3573
 4275ntf    cn125235   3.559   2.730   1.500  0.3255 -0.1525 -0.1344
 4275ntf    fn425236   3.743   3.331   1.587 -0.1399  0.0798 -0.0499
 4275ntf    fn425237   3.590   3.249   1.459  0.0007  0.2678 -0.0382
 4275ntf    fn425238   3.602   3.195   1.664  0.1180  0.4700 -0.2378
 4275ntf    on525239   3.803   3.108   1.368 -0.1218 -0.2643  0.4282
 4275ntf    on525240   3.884   3.083   1.597 -0.2595 -0.2499  0.8626
 4275ntf    on525241   3.610   2.839   1.737 -0.3335  0.6150  0.3007
 4275ntf    on525242   3.794   2.764   1.593 -0.5092 -0.4839  0.5400
 4275ntf    fn425243   3.551   2.609   1.552  0.9312  0.0135  0.3558
 4275ntf    fn425244   3.435   2.777   1.490  0.0506 -0.8015  0.1558
 4275ntf    fn425245   3.598   2.725   1.374 -0.0217 -0.4685 -0.2306
 4276ntf    cn125246   5.217   6.197   3.798  0.0677 -0.2663  0.0304
 4276ntf    sn225247   5.341   6.254   3.917 -0.1231 -0.0218  0.1114
 4276ntf    nn325248   5.391   6.116   3.971 -0.0079  0.0751  0.2544
 4276ntf    sn225249   5.504   6.016   3.926 -0.0702  0.0892  0.0691
 4276ntf    cn125250   5.618   6.021   4.067 -0.0266  0.1766  0.0309
 4276ntf    fn425251   5.172   6.296   3.723  0.4737 -0.5065 -0.5300
 4276ntf    fn425252   5.265   6.111   3.710  0.3904  0.8494 -0.9040
 4276ntf    fn425253   5.108   6.138   3.847  0.0877 -0.3757 -0.0549
 4276ntf    on525254   5.436   6.321   3.831  0.2324 -1.0709 -0.3275
 4276ntf    on525255   5.258   6.331   4.007  0.3645  0.3111  0.2814
 4276ntf    on525256   5.586   6.066   3.819  0.1959 -0.5337 -0.0221
 4276ntf    on525257   5.470   5.877   3.905 -0.2289  0.0967  0.2765
 4276ntf    fn425258   5.566   5.977   4.181  0.2081 -0.0112  0.0655
 4276ntf    fn425259   5.729   5.953   4.044 -0.2317 -0.2832  0.3804
 4276ntf    fn425260   5.657   6.146   4.086  0.3404  0.0317  0.2321
 4277ntf    cn125261   0.996   6.242   0.274  0.3238  0.0379 -0.4097
 4277ntf    sn225262   1.049   6.299   0.438 -0.1932  0.2043 -0.3011
 4277ntf    nn325263   1.064   6.161   0.512 -0.9065  0.1209 -0.3050
 4277ntf    sn225264   0.991   6.088   0.630 -0.1482 -0.2873 -0.0847
 4277ntf    cn125265   1.043   6.173   0.782 -0.0899 -0.4767  0.0018
 4277ntf    fn425266   0.887   6.169   0.269  0.2027  0.1866  0.0195
 4277ntf    fn425267   0.960   6.336   0.187 -0.8859 -0.0837 -0.0520
 4277ntf    fn425268   1.091   6.168   0.218  0.1703 -0.2506 -0.2890
 4277ntf    on525269   1.178   6.359   0.419 -0.0532  0.1411  0.4160
 4277ntf    on525270   0.946   6.389   0.484 -0.5276 -0.4175  0.1983
 4277ntf    on525271   1.039   5.955   0.657 -0.1470 -0.2268  0.2166
 4277ntf    on525272   0.849   6.110   0.631 -0.2179 -0.7144 -0.1015
 4277ntf    fn425273   0.998   6.296   0.799  0.0224 -0.4234 -0.0845
 4277ntf    fn425274   1.005   6.109   0.892 -0.0521 -0.4142  0.0517
 4277ntf    fn425275   1.174   6.188   0.791 -0.1803  0.2876  0.0688
 4278ntf    cn125276   3.581   1.286   1.284 -0.1655 -0.0057 -0.0916
 4278ntf    sn225277   3.456   1.325   1.410  0.2310 -0.4748  0.4483
 4278ntf    nn325278   3.327   1.272   1.339 -0.5811  0.8974  0.8688
 4278ntf    sn225279   3.262   1.130   1.354  0.1276  0.4622 -0.0297
 4278ntf    cn125280   3.141   1.170   1.484  0.0145  0.0872 -0.0179
 4278ntf    fn425281   3.708   1.304   1.320 -0.2323  0.2485  0.0239
 4278ntf    fn425282   3.577   1.160   1.247  0.2464  0.0644 -0.3923
 4278ntf    fn425283   3.578   1.358   1.173  0.0497  0.4125  0.1684
 4278ntf    on525284   3.492   1.259   1.533  0.1230 -0.6519  0.3848
 4278ntf    on525285   3.473   1.468   1.408 -0.0936 -0.4450 -0.1902
 4278ntf    on525286   3.342   1.028   1.417 -0.6302  0.2960  0.6981
 4278ntf    on525287   3.187   1.088   1.239 -0.4339 -0.2300  0.5779
 4278ntf    fn425288   3.018   1.153   1.438 -0.0489 -0.0967  0.2170
 4278ntf    fn425289   3.147   1.094   1.592  0.0918  0.5135  0.2787
 4278ntf    fn425290   3.149   1.292   1.534  0.3376 -0.0744  0.3306
 4279ntf    cn125291   5.035   3.130   3.969 -0.1176 -0.0153 -0.1920
 4279ntf    sn225292   4.957   3.282   4.033  0.0157  0.0535 -0.1934
 4279ntf    nn325293   4.829   3.215   4.096  0.2736 -0.2853 -0.0226
 4279ntf    sn225294   4.682   3.248   4.054  0.1917 -0.1920  0.3359
 4279ntf    cn125295   4.642   3.302   4.223 -0.1575 -0.0056  0.1950
 4279ntf    fn425296   5.146   3.159   3.904  0.3039 -0.4769  0.3142
 4279ntf    fn425297   5.059   3.039   4.062 -0.4420  0.1764  0.0820
 4279ntf    fn425298   4.959   3.058   3.888 -0.6597  0.3787 -0.0379
 4279ntf    on525299   5.046   3.320   4.140  0.1906 -0.1848 -0.2532
 4279ntf    on525300   4.944   3.367   3.918 -0.3612 -0.0464 -0.2255
 4279ntf    on525301   4.597   3.132   4.043 -0.2405  0.2047 -0.6611
 4279ntf    on525302   4.644   3.367   3.981 -0.5389 -0.6462 -0.0271
 4279ntf    fn425303   4.713   3.410   4.253  0.6910 -0.5700  0.2437
 4279ntf    fn425304   4.517   3.338   4.250 -0.1695 -0.0650  0.2194
 4279ntf    fn425305   4.682   3.220   4.319  0.4050  0.1079  0.0622
 4280ntf    cn125306   2.793   7.135   5.019  0.8152  0.3265 -0.3119
 4280ntf    sn225307   2.757   7.307   5.068  0.0163  0.0811 -0.0053
 4280ntf    nn325308   2.623   7.313   4.986 -0.0610 -0.0583  0.1115
 4280ntf    sn225309   2.474   7.297   5.033 -0.0762  0.0754  0.1080
 4280ntf    cn125310   2.400   7.192   4.905 -0.0638  0.0817  0.0957
 4280ntf    fn425311   2.896   7.086   5.086  0.2054 -0.8704 -0.2211
 4280ntf    fn425312   2.687   7.059   5.044  0.4638  0.8284 -0.2635
 4280ntf    fn425313   2.824   7.115   4.892  0.3646  0.4785 -0.4468
 4280ntf    on525314   2.749   7.309   5.211 -0.0079  0.4045 -0.0099
 4280ntf    on525315   2.862   7.385   5.008 -0.0572  0.3611  0.2312
 4280ntf    on525316   2.401   7.421   5.020 -0.2641 -0.0046  0.4108
 4280ntf    on525317   2.450   7.225   5.156 -0.5621 -0.2667 -0.1863
 4280ntf    fn425318   2.426   7.067   4.939  0.2872  0.1292  0.0126
 4280ntf    fn425319   2.270   7.206   4.884 -0.1210 -0.0410  0.3674
 4280ntf    fn425320   2.451   7.214   4.785 -0.4446 -0.2974 -0.1394
 4281ntf    cn125321   6.863   6.884   2.888 -0.1612 -0.2912  0.1746
 4281ntf    sn225322   7.029   6.936   2.835 -0.1721 -0.3301  0.1030
 4281ntf    nn325323   7.081   6.976   2.977  0.4415 -0.0725 -0.1882
 4281ntf    sn225324   7.201   7.072   3.008 -0.0356  0.3787  0.2828
 4281ntf    cn125325   7.126   7.238   3.013  0.1957  0.5038 -0.3765
 4281ntf    fn425326   6.800   6.973   2.963 -0.3792 -0.3015  0.0034
 4281ntf    fn425327   6.786   6.853   2.786  0.1571 -0.0214 -0.1515
 4281ntf    fn425328   6.885   6.772   2.955  0.4519  0.0922  0.6278
 4281ntf    on525329   7.092   6.816   2.784 -0.0377 -0.0996 -0.2831
 4281ntf    on525330   7.018   7.046   2.742 -1.2351 -0.2594  0.3092
 4281ntf    on525331   7.302   7.081   2.905  0.3046 -0.5422  0.5234
 4281ntf    on525332   7.251   7.062   3.144  0.0886  0.0148  0.2113
 4281ntf    fn425333   7.219   7.332   3.007  0.7822  0.0016  0.4814
 4281ntf    fn425334   7.030   7.254   2.924 -0.1535 -0.5581 -0.2008
 4281ntf    fn425335   7.065   7.250   3.129  0.0919 -0.0619 -0.3692
 4282ntf    cn125336   3.641   5.424   4.046 -0.3274 -0.0818 -0.3713
 4282ntf    sn225337   3.605   5.269   3.957 -0.2771 -0.1675 -0.2434
 4282ntf    nn325338   3.487   5.315   3.864 -0.6526 -0.4041  0.1117
 4282ntf    sn225339   3.496   5.376   3.719  0.4283  0.0052  0.3358
 4282ntf    cn125340   3.427   5.240   3.620  0.1730  0.1447  0.3194
 4282ntf    fn425341   3.561   5.453   4.148 -0.0378  0.1309 -0.2038
 4282ntf    fn425342   3.761   5.426   4.100 -0.3805 -0.0032 -0.2550
 4282ntf    fn425343   3.631   5.527   3.964 -0.0556  0.1411 -0.1254
 4282ntf    on525344   3.730   5.242   3.891 -0.1747  0.1701 -0.1934
 4282ntf    on525345   3.559   5.187   4.066 -0.1509 -0.5311 -0.4654
 4282ntf    on525346   3.621   5.411   3.659  0.0511  0.1183 -0.3866
 4282ntf    on525347   3.391   5.473   3.702 -0.0187 -0.5026  0.1503
 4282ntf    fn425348   3.505   5.133   3.623  0.2781  0.2171  0.2018
 4282ntf    fn425349   3.314   5.202   3.676 -0.1573  0.4823 -0.1181
 4282ntf    fn425350   3.405   5.263   3.491 -0.1378 -1.2860  0.1026
 4283ntf    cn125351   5.081   5.389   1.628 -0.1601 -0.1528 -0.3835
 4283ntf    sn225352   5.073   5.267   1.763  0.1099  0.0456 -0.1864
 4283ntf    nn325353   5.062   5.369   1.882 -0.3816 -0.6655  0.3929
 4283ntf    sn225354   4.986   5.361   2.019 -0.5102  0.1475  0.3727
 4283ntf    cn125355   5.127   5.305   2.119 -0.0261  0.2065 -0.2659
 4283ntf    fn425356   5.053   5.341   1.508 -0.1432 -1.0616 -0.0308
 4283ntf    fn425357   5.002   5.494   1.646  0.8378  0.5545 -0.0688
 4283ntf    fn425358   5.201   5.443   1.619  0.0117 -0.4255  0.2112
 4283ntf    on525359   4.950   5.192   1.754  0.0547  0.0376  0.6040
 4283ntf    on525360   5.196   5.192   1.760 -0.4277 -0.8311 -1.0029
 4283ntf    on525361   4.889   5.257   2.040 -0.4043 -0.1884 -0.7525
 4283ntf    on525362   4.969   5.494   2.073 -0.2145  0.2341  0.2572
 4283ntf    fn425363   5.186   5.192   2.083  0.0925  0.2004 -0.0556
 4283ntf    fn425364   5.219   5.400   2.111 -0.1907  0.3853 -0.0372
 4283ntf    fn425365   5.079   5.300   2.242  0.7858 -0.0121  0.0484
 4284ntf    cn125366   3.494   2.319   7.079  0.0379 -0.5126 -0.0990
 4284ntf    sn225367   3.481   2.486   7.008  0.1307 -0.3676  0.2217
 4284ntf    nn325368   3.395   2.560   7.117 -0.0706  0.2709 -0.3665
 4284ntf    sn225369   3.431   2.659   7.233 -0.3547 -0.1613  0.0928
 4284ntf    cn125370   3.291   2.775   7.223 -0.5078 -0.3526  0.0133
 4284ntf    fn425371   3.564   2.326   7.191 -0.1757 -0.2402  0.0172
 4284ntf    fn425372   3.378   2.266   7.113 -0.1283  0.1967  0.4702
 4284ntf    fn425373   3.552   2.236   6.993  0.5021 -0.5115  0.2097
 4284ntf    on525374   3.618   2.528   7.000  0.2852 -0.7759  0.6793
 4284ntf    on525375   3.412   2.480   6.881  0.1911  1.1048  0.1031
 4284ntf    on525376   3.554   2.730   7.208 -0.1683 -0.2286  0.8094
 4284ntf    on525377   3.422   2.591   7.359  0.1587 -0.7369 -0.1774
 4284ntf    fn425378   3.304   2.876   7.308  0.5380 -0.3736 -0.1074
 4284ntf    fn425379   3.283   2.829   7.102  0.7339  0.3281  0.2188
 4284ntf    fn425380   3.177   2.712   7.248 -0.3043 -0.6591  0.1758
 4285ntf    cn125381   5.886   4.661   3.167  0.1800 -0.0645  0.3431
 4285ntf    sn225382   5.739   4.593   3.084  0.3638 -0.0370 -0.0064
 4285ntf    nn325383   5.730   4.453   3.155 -0.4882 -0.1054 -0.2369
 4285ntf    sn225384   5.771   4.307   3.117 -0.4035 -0.1238 -0.0761
 4285ntf    cn125385   5.671   4.209   3.233 -0.0269 -0.1521  0.2266
 4285ntf    fn425386   5.872   4.676   3.298  0.1427 -0.0398  0.3362
 4285ntf    fn425387   5.988   4.579   3.146 -0.1809 -0.2788 -0.6329
 4285ntf    fn425388   5.932   4.779   3.130 -0.0770  0.0198  0.2852
 4285ntf    on525389   5.641   4.692   3.123  0.4080  0.0049  0.0002
 4285ntf    on525390   5.785   4.579   2.949  0.1230  0.4213 -0.1382
 4285ntf    on525391   5.911   4.277   3.135 -0.1923  1.0050  0.2374
 4285ntf    on525392   5.719   4.270   2.987  0.4289 -0.1170 -0.4195
 4285ntf    fn425393   5.704   4.229   3.360 -0.2267 -0.2353  0.2923
 4285ntf    fn425394   5.545   4.247   3.226  0.2540  0.8295  0.3698
 4285ntf    fn425395   5.685   4.080   3.210 -0.2191 -0.1838  0.2909
 4286ntf    cn125396   3.866   6.546   2.981  0.0862 -0.6016 -0.0862
 4286ntf    sn225397   3.822   6.558   3.157  0.2145 -0.1480 -0.0839
 4286ntf    nn325398   3.931   6.467   3.225  0.3728 -0.5635 -0.8938
 4286ntf    sn225399   3.925   6.404   3.368  0.2042  0.4080 -0.4650
 4286ntf    cn125400   4.104   6.398   3.399  0.1930  0.1643 -0.4358
 4286ntf    fn425401   3.781   6.610   2.903  0.6252  0.3458  0.0898
 4286ntf    fn425402   3.989   6.593   2.966 -0.2881  0.2477 -0.5726
 4286ntf    fn425403   3.884   6.423   2.937 -0.1175 -0.5748 -0.2446
 4286ntf    on525404   3.835   6.698   3.189 -0.4241 -0.1055  0.0092
 4286ntf    on525405   3.686   6.509   3.160  0.1769 -0.0497 -0.2026
 4286ntf    on525406   3.880   6.267   3.377 -0.1305  0.5698  0.3844
 4286ntf    on525407   3.878   6.491   3.472  0.8552 -0.0333  0.2097
 4286ntf    fn425408   4.163   6.517   3.405  0.0309  0.2267 -0.0140
 4286ntf    fn425409   4.131   6.340   3.515 -0.5510  0.3016 -0.1885
 4286ntf    fn425410   4.169   6.328   3.308 -0.2893 -0.4032 -0.3477
 4287ntf    cn125411   4.750   6.946   0.551 -0.0732  0.2366 -0.0580
 4287ntf    sn225412   4.828   7.062   0.436  0.3875  0.2906  0.3095
 4287ntf    nn325413   4.757   7.198   0.471  0.1427  0.2548 -0.0457
 4287ntf    sn225414   4.707   7.313   0.377 -0.3927 -0.1849 -0.3057
 4287ntf    cn125415   4.529   7.276   0.378 -0.5504  0.5814  0.0390
 4287ntf    fn425416   4.803   6.825   0.557 -0.0486  0.2528  0.0583
 4287ntf    fn425417   4.749   6.993   0.675  0.1252 -0.4368  0.2034
 4287ntf    fn425418   4.622   6.934   0.517  0.0066 -0.5795 -0.0874
 4287ntf    on525419   4.971   7.069   0.454  0.3847  0.7249  0.1974
 4287ntf    on525420   4.793   7.004   0.309  0.2814  0.1849  0.3873
 4287ntf    on525421   4.754   7.319   0.241  0.2069  0.5087 -0.0730
 4287ntf    on525422   4.705   7.437   0.450 -0.0013 -0.4426  0.1455
 4287ntf    fn425423   4.459   7.382   0.341 -0.2463  0.4885 -0.8231
 4287ntf    fn425424   4.483   7.183   0.296  0.2365  0.0861  0.1568
 4287ntf    fn425425   4.492   7.241   0.501  0.7696 -0.3862  0.1703
 4288ntf    cn125426   4.543   6.744   2.368  0.1579 -0.2119  0.0494
 4288ntf    sn225427   4.465   6.722   2.205  0.1017  0.1904  0.0186
 4288ntf    nn325428   4.542   6.604   2.136 -0.1469  0.0671 -0.0478
 4288ntf    sn225429   4.630   6.582   2.007 -0.2725 -0.2204 -0.0864
 4288ntf    cn125430   4.627   6.401   1.994  0.2987 -0.2466  0.1299
 4288ntf    fn425431   4.504   6.860   2.419 -0.0010 -0.0098 -0.5245
 4288ntf    fn425432   4.510   6.652   2.457  0.9402 -0.1198  0.4426
 4288ntf    fn425433   4.675   6.759   2.368  0.1709 -0.3254 -0.2608
 4288ntf    on525434   4.335   6.671   2.240  0.1565 -0.1734 -0.3023
 4288ntf    on525435   4.477   6.850   2.140 -0.4108  0.4372  0.4052
 4288ntf    on525436   4.765   6.625   2.035 -0.3752 -0.2092  0.4097
 4288ntf    on525437   4.587   6.633   1.879  0.0097  0.2180 -0.0095
 4288ntf    fn425438   4.700   6.357   1.893  0.1828 -0.5113  0.1603
 4288ntf    fn425439   4.665   6.333   2.101  0.8172 -0.2178 -0.0358
 4288ntf    fn425440   4.505   6.357   1.969  0.2880 -0.1894  0.0808
 4289ntf    cn125441   1.130   1.905   6.632  0.3021 -0.5444  0.2904
 4289ntf    sn225442   0.954   1.887   6.676  0.0382  0.2715 -0.4051
 4289ntf    nn325443   0.962   1.759   6.766 -0.0879  0.4182 -0.1836
 4289ntf    sn225444   0.835   1.695   6.834  0.0529  0.1962 -0.1292
 4289ntf    cn125445   0.916   1.648   6.990 -0.1133 -0.0936 -0.1296
 4289ntf    fn425446   1.158   2.013   6.561  0.1597 -0.8361 -0.2142
 4289ntf    fn425447   1.212   1.892   6.735 -0.0020 -0.0260  0.6008
 4289ntf    fn425448   1.175   1.802   6.562 -0.0615 -0.5018 -0.0108
 4289ntf    on525449   0.924   2.008   6.748  0.4064 -0.1944  0.5527
 4289ntf    on525450   0.880   1.873   6.553 -0.5280  0.2581 -0.0667
 4289ntf    on525451   0.796   1.570   6.772  1.0269  0.1669 -0.7133
 4289ntf    on525452   0.733   1.785   6.881  0.1432  0.0839  0.2820
 4289ntf    fn425453   0.961   1.758   7.048 -0.3025  0.0052 -0.1680
 4289ntf    fn425454   0.834   1.596   7.079 -0.1082  0.1388  0.0097
 4289ntf    fn425455   1.017   1.565   6.970 -0.2269 -0.3912  0.5250
 4290ntf    cn125456   2.131   0.871   0.063 -0.0817  0.0330 -0.2406
 4290ntf    sn225457   2.158   1.029   0.150 -0.0754 -0.0581 -0.0783
 4290ntf    nn325458   2.308   1.009   0.191 -0.1398  0.2177  0.2967
 4290ntf    sn225459   2.407   1.057   0.303 -0.1034  0.2189  0.2642
 4290ntf    cn125460   2.536   1.131   0.199 -0.1490  0.1814  0.1806
 4290ntf    fn425461   2.176   0.765   0.127 -0.1695  0.3309  0.3184
 4290ntf    fn425462   2.002   0.845   0.049 -0.1740 -0.2110  0.9587
 4290ntf    fn425463   2.192   0.881  -0.054  0.0647  0.0220 -0.1653
 4290ntf    on525464   2.142   1.130   0.049  0.3279  0.1370  0.0505
 4290ntf    on525465   2.061   1.021   0.257  0.3037  0.4808  0.3095
 4290ntf    on525466   2.477   0.955   0.376  0.3364  0.3332  0.0031
 4290ntf    on525467   2.351   1.168   0.377 -0.2950  0.2126  0.1312
 4290ntf    fn425468   2.630   1.190   0.271 -0.0742  0.2903 -0.0049
 4290ntf    fn425469   2.607   1.045   0.128  0.0644 -0.0451  0.6662
 4290ntf    fn425470   2.482   1.221   0.118  0.6413  0.4440 -0.0622
 4291ntf    cn125471   6.065   1.891   4.352 -0.0127 -0.0902 -0.0350
 4291ntf    sn225472   6.223   1.851   4.271  0.2646  0.2906  0.3080
 4291ntf    nn325473   6.187   1.902   4.127  0.2113 -0.0449  0.2005
 4291ntf    sn225474   6.217   2.043   4.064 -0.1182  0.0518  0.2561
 4291ntf    cn125475   6.048   2.075   4.004 -0.1212 -0.1375  0.1613
 4291ntf    fn425476   6.054   1.813   4.458  0.3612  0.0444  0.1062
 4291ntf    fn425477   6.065   2.014   4.402 -0.5205 -0.2874  0.4560
 4291ntf    fn425478   5.956   1.876   4.278 -0.1683 -0.5940  0.2930
 4291ntf    on525479   6.321   1.934   4.336  0.3990  0.3569  0.0243
 4291ntf    on525480   6.233   1.708   4.286 -0.1599  0.3173  0.8960
 4291ntf    on525481   6.297   2.027   3.945  0.4142 -0.5017  0.6790
 4291ntf    on525482   6.223   2.160   4.147 -0.1435 -0.0975  0.4688
 4291ntf    fn425483   6.019   1.996   3.902  0.0586  0.3919 -0.3021
 4291ntf    fn425484   5.960   2.043   4.098  0.4190 -0.0900  0.6898
 4291ntf    fn425485   6.030   2.199   3.962  0.0757 -0.2264 -0.1913
 4292ntf    cn125486   1.466   2.181   6.684 -0.1383 -0.1222  0.1634
 4292ntf    sn225487   1.616   2.101   6.620  0.0576  0.0016  0.4622
 4292ntf    nn325488   1.567   2.080   6.472  0.0161 -0.6239  0.5589
 4292ntf    sn225489   1.586   1.957   6.377  0.1286  0.0642 -0.3259
 4292ntf    cn125490   1.411   1.921   6.344  0.0487  0.2654 -0.1244
 4292ntf    fn425491   1.426   2.270   6.594  0.0590  0.5303  0.7098
 4292ntf    fn425492   1.365   2.101   6.715  0.5156 -0.9378  0.2090
 4292ntf    fn425493   1.495   2.245   6.797 -0.2295  0.2395 -0.0158
 4292ntf    on525494   1.723   2.195   6.636 -0.1929  0.3960 -0.1497
 4292ntf    on525495   1.622   1.986   6.707  0.3138  0.0212  0.4709
 4292ntf    on525496   1.630   1.836   6.442  0.4148  0.4385  0.1747
 4292ntf    on525497   1.646   1.987   6.249 -0.0754  0.4814 -0.3254
 4292ntf    fn425498   1.341   2.012   6.278 -0.3245 -0.0023 -0.1040
 4292ntf    fn425499   1.402   1.817   6.262  1.1196  0.2918 -0.2834
 4292ntf    fn425500   1.345   1.896   6.456 -0.4486 -0.1766 -0.5084
 4293ntf    cn125501   4.378   5.884   6.796 -0.3370  0.2984  0.0492
 4293ntf    sn225502   4.462   5.925   6.952  0.0792  0.1898 -0.1452
 4293ntf    nn325503   4.450   5.785   7.023 -0.3451  0.2374 -0.1215
 4293ntf    sn225504   4.442   5.739   7.173  0.0221  0.2542 -0.0953
 4293ntf    cn125505   4.514   5.573   7.157 -0.1973  0.0985  0.5287
 4293ntf    fn425506   4.257   5.833   6.811 -0.3160  0.2257 -0.0357
 4293ntf    fn425507   4.352   5.999   6.736 -0.6445  0.0120 -0.3714
 4293ntf    fn425508   4.456   5.820   6.710  0.2194  0.2169  0.6047
 4293ntf    on525509   4.588   5.963   6.893  0.2428  0.1843  0.1974
 4293ntf    on525510   4.373   6.028   6.999  0.0860  0.1482 -0.0399
 4293ntf    on525511   4.309   5.729   7.228  0.3521 -0.2126  0.6325
 4293ntf    on525512   4.531   5.809   7.262  0.6282 -0.2524 -0.2979
 4293ntf    fn425513   4.508   5.501   7.269 -0.3683 -0.0951  0.3971
 4293ntf    fn425514   4.438   5.502   7.074 -0.5821  0.2235  0.7676
 4293ntf    fn425515   4.638   5.573   7.113 -0.0845 -0.3080  0.8287
 4294ntf    cn125516   2.038   3.956   4.994  0.3226 -0.5932 -0.4930
 4294ntf    sn225517   2.089   4.068   4.861  0.4527 -0.1316 -0.0562
 4294ntf    nn325518   1.961   4.072   4.770  0.3249 -0.4877  0.1081
 4294ntf    sn225519   1.930   4.017   4.626 -0.2676  0.1086  0.0026
 4294ntf    cn125520   1.796   3.898   4.659  0.0739 -0.2500  0.1064
 4294ntf    fn425521   2.134   3.946   5.085 -0.3506  0.7714  0.3975
 4294ntf    fn425522   1.940   3.997   5.073  0.6368 -0.6943 -0.0453
 4294ntf    fn425523   2.003   3.835   4.951 -0.1672 -0.4370 -0.5413
 4294ntf    on525524   2.118   4.191   4.930  0.7777 -0.6855  0.8023
 4294ntf    on525525   2.203   4.008   4.796 -0.0010 -0.6687 -0.3603
 4294ntf    on525526   2.040   3.940   4.573  0.1531  0.5142  0.2839
 4294ntf    on525527   1.868   4.115   4.541 -0.3884  0.5085  0.5429
 4294ntf    fn425528   1.751   3.838   4.551 -0.3489 -0.0618  0.1768
 4294ntf    fn425529   1.835   3.797   4.735  0.2482 -0.2420  0.0278
 4294ntf    fn425530   1.689   3.955   4.711  0.3769  0.2549  0.1886
 4295ntf    cn125531   1.503   5.944   3.810 -0.5632 -0.3424  0.4025
 4295ntf    sn225532   1.634   5.925   3.685 -0.5604  0.0351  0.3455
 4295ntf    nn325533   1.693   6.069   3.697  0.0897 -0.1953  0.0129
 4295ntf    sn225534   1.828   6.113   3.764  0.0420 -0.0060 -0.0128
 4295ntf    cn125535   1.760   6.243   3.871  0.1571  0.0959 -0.0629
 4295ntf    fn425536   1.558   5.954   3.930  0.7115 -0.2726 -0.1634
 4295ntf    fn425537   1.426   6.051   3.798 -0.0417  0.0970  0.8743
 4295ntf    fn425538   1.425   5.838   3.805 -0.5972 -0.2967 -0.1440
 4295ntf    on525539   1.718   5.818   3.733  0.3277  0.3838 -0.3986
 4295ntf    on525540   1.564   5.893   3.562  0.4991 -0.2712 -0.1929
 4295ntf    on525541   1.919   6.182   3.675 -0.3652  0.7272  0.1324
 4295ntf    on525542   1.899   6.020   3.849  0.1524 -0.2085 -0.3218
 4295ntf    fn425543   1.858   6.298   3.940 -0.1424  0.0414  0.4099
 4295ntf    fn425544   1.705   6.336   3.795  0.9881  0.3420 -0.3736
 4295ntf    fn425545   1.672   6.204   3.962 -0.3107  0.4341 -0.3637
 4296ntf    cn125546   0.359   6.548   0.477 -0.2286 -0.3964  0.3154
 4296ntf    sn225547   0.486   6.592   0.598 -0.0543 -0.2370  0.0744
 4296ntf    nn325548   0.496   6.471   0.697  0.3449 -0.4077 -0.1720
 4296ntf    sn225549   0.448   6.471   0.847 -0.0936 -0.1903 -0.3126
 4296ntf    cn125550   0.353   6.316   0.841 -0.0231 -0.2587  0.2887
 4296ntf    fn425551   0.241   6.526   0.533 -0.4602  0.3529  0.1359
 4296ntf    fn425552   0.340   6.644   0.388 -0.2939 -0.1122  0.6360
 4296ntf    fn425553   0.391   6.437   0.412  0.0268  0.1505 -0.5021
 4296ntf    on525554   0.607   6.598   0.519  0.1025  0.1331  0.3387
 4296ntf    on525555   0.435   6.719   0.645  0.4518  0.0205 -0.0626
 4296ntf    on525556   0.342   6.562   0.883  0.2028 -0.1780  0.5548
 4296ntf    on525557   0.553   6.448   0.942  0.2068  0.1856 -0.5501
 4296ntf    fn425558   0.308   6.281   0.961  0.0549 -0.2010  0.3344
 4296ntf    fn425559   0.241   6.330   0.772 -0.1652 -0.4415  0.4799
 4296ntf    fn425560   0.416   6.210   0.792  0.3892  0.1056  0.0247
 4297ntf    cn125561   2.908   0.335   1.768  0.0783 -0.0651  0.1498
 4297ntf    sn225562   2.860   0.415   1.924 -0.1842 -0.3035  0.1903
 4297ntf    nn325563   2.904   0.294   2.014 -0.3841 -0.3846  0.1798
 4297ntf    sn225564   3.030   0.272   2.104  0.0275 -0.3722 -0.3824
 4297ntf    cn125565   2.958   0.186   2.248  0.2779  0.0581  0.0032
 4297ntf    fn425566   3.040   0.322   1.769  0.0877 -0.1513 -0.7026
 4297ntf    fn425567   2.864   0.210   1.771  0.3396 -0.1499  0.5159
 4297ntf    fn425568   2.872   0.392   1.654  0.4333  0.1031  0.1200
 4297ntf    on525569   2.944   0.532   1.924 -0.3216 -0.1865 -1.1963
 4297ntf    on525570   2.719   0.436   1.901  0.0525  0.1384 -0.9401
 4297ntf    on525571   3.088   0.389   2.165 -0.7722 -0.2104  0.0833
 4297ntf    on525572   3.123   0.180   2.043  0.3936 -0.2942  0.0479
 4297ntf    fn425573   2.858   0.251   2.306  0.5248  0.4138  0.0352
 4297ntf    fn425574   2.899   0.074   2.210  0.0729  0.3047 -0.4208
 4297ntf    fn425575   3.046   0.160   2.343 -0.2380 -0.7450  0.2646
 4298ntf    cn125576   6.898   6.173   5.380  0.0376  0.1040  0.8933
 4298ntf    sn225577   6.753   6.069   5.343 -0.0043  0.4089  0.1802
 4298ntf    nn325578   6.824   5.955   5.261 -0.1373  0.5714 -0.1640
 4298ntf    sn225579   6.759   5.847   5.167 -0.0738  0.1093  0.3174
 4298ntf    cn125580   6.830   5.692   5.230 -0.0683 -0.0238 -0.0152
 4298ntf    fn425581   6.858   6.269   5.461 -0.4933 -0.0920  0.8714
 4298ntf    fn425582   6.992   6.105   5.443  0.5530  0.0736  0.1120
 4298ntf    fn425583   6.951   6.225   5.270 -0.0089 -0.2000  0.7247
 4298ntf    on525584   6.700   6.025   5.469 -0.5034 -0.2108 -0.2402
 4298ntf    on525585   6.676   6.153   5.255 -0.1138 -0.0480 -0.1682
 4298ntf    on525586   6.815   5.844   5.035 -0.1360 -0.3646  0.2996
 4298ntf    on525587   6.616   5.830   5.182 -0.0064 -0.4898  0.3087
 4298ntf    fn425588   6.962   5.696   5.219 -0.0795 -0.4504 -0.3152
 4298ntf    fn425589   6.798   5.677   5.357  1.0579  0.5235  0.3510
 4298ntf    fn425590   6.787   5.589   5.159  0.3333 -1.0356  1.1638
 4299ntf    cn125591   4.100   0.309   2.782  0.0155 -0.1887  0.0365
 4299ntf    sn225592   4.140   0.134   2.804 -0.1993 -0.2278  0.1185
 4299ntf    nn325593   4.011   0.095   2.885 -0.1520 -0.6462 -0.0016
 4299ntf    sn225594   3.999   0.059   3.037 -0.0094 -0.6460  0.0101
 4299ntf    cn125595   4.021  -0.121   3.037 -0.0793 -0.6549  0.2721
 4299ntf    fn425596   4.193   0.362   2.703 -0.0318  0.0343  0.1286
 4299ntf    fn425597   3.980   0.322   2.728  0.0237 -0.6404 -0.0878
 4299ntf    fn425598   4.105   0.380   2.894  0.1390 -0.4988  0.2268
 4299ntf    on525599   4.138   0.069   2.675 -0.2059  0.2543 -0.1238
 4299ntf    on525600   4.264   0.138   2.878 -0.2590  0.1092  0.2022
 4299ntf    on525601   3.863   0.084   3.080 -0.1351 -0.4098 -0.5172
 4299ntf    on525602   4.105   0.109   3.121  0.0369 -0.3352 -0.2324
 4299ntf    fn425603   4.133  -0.164   2.980 -0.1965  0.0599 -0.5128
 4299ntf    fn425604   4.020  -0.175   3.158 -0.3968 -0.7120  0.2439
 4299ntf    fn425605   3.917  -0.184   2.985 -0.0505 -0.2227 -0.3151
 4300ntf    cn125606   3.969   5.172   0.892 -0.1316  0.1846  0.3060
 4300ntf    sn225607   3.830   5.288   0.911 -0.1794  0.1982 -0.1178
 4300ntf    nn325608   3.713   5.195   0.960  0.5009 -0.3586  0.4864
 4300ntf    sn225609   3.639   5.209   1.097 -0.0009  0.1907  0.1617
 4300ntf    cn125610   3.723   5.084   1.199  0.1369 -0.0452 -0.2419
 4300ntf    fn425611   4.027   5.135   1.006 -0.2731  0.2573  0.4016
 4300ntf    fn425612   3.922   5.061   0.839  0.9883 -0.2684  0.2172
 4300ntf    fn425613   4.066   5.219   0.816 -0.4311 -0.1492 -0.2857
 4300ntf    on525614   3.881   5.384   1.006 -0.0100 -0.0582  0.0551
 4300ntf    on525615   3.820   5.333   0.775  0.5159  0.0135 -0.2336
 4300ntf    on525616   3.510   5.145   1.100  0.1553 -0.1226  0.1591
 4300ntf    on525617   3.654   5.336   1.164  1.0745 -0.0968  0.4777
 4300ntf    fn425618   3.738   4.964   1.144  0.1801 -0.0933 -0.1250
 4300ntf    fn425619   3.851   5.112   1.216  0.1889 -0.2108 -0.3614
 4300ntf    fn425620   3.669   5.076   1.320 -0.1195  0.6828 -0.3019
 4301ntf    cn125621   4.253   2.781   2.400 -0.0497  0.1763  0.0176
 4301ntf    sn225622   4.211   2.883   2.545 -0.1023 -0.0536  0.1647
 4301ntf    nn325623   4.237   2.793   2.671 -0.2714 -0.1112  0.1586
 4301ntf    sn225624   4.335   2.825   2.789 -0.0592  0.1824 -0.0967
 4301ntf    cn125625   4.245   2.728   2.914  0.3770 -0.2950 -0.1514
 4301ntf    fn425626   4.383   2.756   2.401  0.0031  0.3695 -0.8985
 4301ntf    fn425627   4.184   2.668   2.401  0.5462 -0.1877  0.5312
 4301ntf    fn425628   4.227   2.837   2.283  0.4799  0.1666 -0.1089
 4301ntf    on525629   4.305   2.991   2.531  0.5119 -0.5817  0.1543
 4301ntf    on525630   4.071   2.913   2.526 -0.1601 -0.4795 -0.1028
 4301ntf    on525631   4.344   2.957   2.847  0.6452  0.0794  0.0412
 4301ntf    on525632   4.454   2.749   2.762  0.2812  0.5876  0.2364
 4301ntf    fn425633   4.128   2.777   2.951  0.8584  0.6147  0.2016
 4301ntf    fn425634   4.215   2.608   2.867  0.3327 -0.3717  0.0767
 4301ntf    fn425635   4.316   2.710   3.024  0.7164  0.4574 -0.2405
 4302ntf    cn125636   0.668   5.384   7.080 -0.0384 -0.2150 -0.0318
 4302ntf    sn225637   0.595   5.522   7.172  0.3833  0.2068 -0.3251
 4302ntf    nn325638   0.494   5.448   7.267  0.0651  0.2964 -0.5893
 4302ntf    sn225639   0.349   5.395   7.242  0.1344 -0.0345 -0.3046
 4302ntf    cn125640   0.388   5.221   7.206  0.4359  0.0403 -0.3349
 4302ntf    fn425641   0.582   5.292   7.038 -0.1139 -0.2059  0.1014
 4302ntf    fn425642   0.733   5.422   6.972 -0.6206  0.6754 -0.0716
 4302ntf    fn425643   0.747   5.311   7.157 -0.0852  0.0025  0.2219
 4302ntf    on525644   0.708   5.569   7.249  0.8373 -0.5047 -0.5529
 4302ntf    on525645   0.533   5.618   7.084 -0.1798  0.0629 -0.0959
 4302ntf    on525646   0.301   5.443   7.114 -0.4325  0.4060  0.0688
 4302ntf    on525647   0.272   5.398   7.364  0.1853  0.1119 -0.2754
 4302ntf    fn425648   0.290   5.142   7.244  0.0648  0.7194  0.1531
 4302ntf    fn425649   0.395   5.195   7.077  0.1497  0.6896 -0.4847
 4302ntf    fn425650   0.499   5.173   7.261  0.2682  0.0187 -0.0130
 4303ntf    cn125651   2.524   0.938   3.388  0.1300  0.5242 -0.4652
 4303ntf    sn225652   2.646   0.986   3.262  0.3454 -0.1710 -0.5240
 4303ntf    nn325653   2.574   1.105   3.189  0.1104  0.3117  0.4828
 4303ntf    sn225654   2.495   1.101   3.053  0.0664  0.1047  0.5132
 4303ntf    cn125655   2.441   1.274   3.048 -0.2295  0.0060  0.3144
 4303ntf    fn425656   2.470   1.037   3.458 -0.4693 -0.2825  0.2373
 4303ntf    fn425657   2.421   0.876   3.333  0.0270 -0.1227  0.4280
 4303ntf    fn425658   2.570   0.848   3.473 -0.1453  0.0563 -0.8080
 4303ntf    on525659   2.761   1.040   3.330 -0.1419 -0.2184  0.3584
 4303ntf    on525660   2.675   0.866   3.187 -0.0622 -0.1660 -0.6908
 4303ntf    on525661   2.370   1.031   3.044  0.5786 -0.7236 -0.3143
 4303ntf    on525662   2.591   1.086   2.946  0.1521  0.1143  0.5877
 4303ntf    fn425663   2.355   1.302   2.951 -0.0947  0.1700  0.2415
 4303ntf    fn425664   2.379   1.300   3.162 -0.0008  0.5356  0.3206
 4303ntf    fn425665   2.544   1.357   3.042 -0.2602  0.0213 -0.0319
 4304ntf    cn125666   6.112   4.394   3.802  0.1785  0.2796 -0.1252
 4304ntf    sn225667   5.980   4.329   3.696  0.1311  0.0596  0.0703
 4304ntf    nn325668   6.008   4.174   3.695 -0.3061 -0.0188 -0.3490
 4304ntf    sn225669   6.080   4.103   3.574  0.1884  0.2830 -0.2329
 4304ntf    cn125670   5.933   4.033   3.494  0.1069  0.2752 -0.0792
 4304ntf    fn425671   6.229   4.399   3.741  0.3921 -0.0793  0.2491
 4304ntf    fn425672   6.097   4.523   3.828  0.0111  0.1584  0.3921
 4304ntf    fn425673   6.127   4.329   3.916 -0.9662 -0.0103 -0.1272
 4304ntf    on525674   5.857   4.351   3.768 -0.3023 -0.1098 -0.6078
 4304ntf    on525675   5.995   4.405   3.575  0.0467 -0.4647 -0.2733
 4304ntf    on525676   6.150   3.988   3.625 -0.7257  0.1080  0.6713
 4304ntf    on525677   6.148   4.178   3.471  0.3612  1.3679  0.6461
 4304ntf    fn425678   5.899   3.921   3.554 -0.0834  0.3764  0.0008
 4304ntf    fn425679   5.826   4.110   3.491 -0.0206  0.0946 -0.1488
 4304ntf    fn425680   5.962   4.003   3.368  0.0965 -0.2364  0.0399
 4305ntf    cn125681   6.177   6.942   2.296  0.2205 -0.1548  0.1002
 4305ntf    sn225682   6.016   6.868   2.257  0.2093 -0.0684 -0.0183
 4305ntf    nn325683   6.043   6.813   2.113  0.4551 -0.2820  0.1085
 4305ntf    sn225684   6.036   6.891   1.977  0.2317 -0.1610  0.1891
 4305ntf    cn125685   5.865   6.856   1.928  0.3379 -0.4753  0.0387
 4305ntf    fn425686   6.171   7.074   2.301  0.1743 -0.1532 -0.0020
 4305ntf    fn425687   6.209   6.897   2.417  0.0376 -0.0550  0.1867
 4305ntf    fn425688   6.261   6.902   2.202 -0.1693 -0.5257 -0.0904
 4305ntf    on525689   5.997   6.771   2.362 -0.5303  0.0513 -0.0369
 4305ntf    on525690   5.924   6.978   2.269  0.2706 -0.0179 -0.0130
 4305ntf    on525691   6.121   6.825   1.880  0.0068 -0.3099  0.0942
 4305ntf    on525692   6.049   7.035   1.977 -0.1028 -0.1294 -0.2004
 4305ntf    fn425693   5.843   6.891   1.802  0.2071 -0.6355  0.0177
 4305ntf    fn425694   5.829   6.730   1.940 -0.1653 -0.3570 -0.1944
 4305ntf    fn425695   5.779   6.927   2.000 -0.1112 -0.5838 -0.3842
 4306ntf    cn125696   3.046   1.006   6.971  0.0435 -0.4243 -0.2559
 4306ntf    sn225697   2.922   1.139   6.980  0.2595 -0.2194 -0.2936
 4306ntf    nn325698   3.008   1.268   6.954  0.3832 -0.1288  0.5550
 4306ntf    sn225699   2.949   1.407   6.911 -0.3533 -0.6258 -0.0694
 4306ntf    cn125700   2.997   1.407   6.736 -0.1094 -0.3435 -0.0025
 4306ntf    fn425701   2.990   0.890   6.941  0.5483 -0.6529 -0.3338
 4306ntf    fn425702   3.142   1.031   6.883 -0.4740  0.0805 -0.6823
 4306ntf    fn425703   3.100   0.995   7.091 -0.0177  0.5163 -0.1320
 4306ntf    on525704   2.843   1.110   6.862  0.3676  0.0068 -0.4211
 4306ntf    on525705   2.862   1.115   7.108  0.5633 -0.4521 -0.1924
 4306ntf    on525706   3.018   1.514   6.979 -0.2934 -0.4284 -0.4418
 4306ntf    on525707   2.808   1.432   6.901 -0.2746 -0.0732  0.1912
 4306ntf    fn425708   3.127   1.409   6.712 -0.0159 -0.2699  0.5009
 4306ntf    fn425709   2.954   1.296   6.679  0.0168 -0.6027  0.4073
 4306ntf    fn425710   2.945   1.508   6.667  0.6590 -0.1640 -0.3265
 4307ntf    cn125711   0.839   5.196   0.053  0.4353 -0.3561 -0.3234
 4307ntf    sn225712   0.915   5.035   0.086  0.2495 -0.3052  0.3828
 4307ntf    nn325713   0.846   4.982   0.216 -0.3007 -0.6221 -0.0336
 4307ntf    sn225714   0.921   4.911   0.335  0.2615  0.0543  0.0185
 4307ntf    cn125715   0.934   5.056   0.444 -0.0354 -0.0634  0.2105
 4307ntf    fn425716   0.817   5.261   0.166 -0.0511 -0.0272 -0.6041
 4307ntf    fn425717   0.906   5.274  -0.030  0.6718  0.2996  0.4740
 4307ntf    fn425718   0.720   5.183  -0.004  0.1087  0.2267  0.2132
 4307ntf    on525719   0.871   4.959  -0.029  0.0406 -0.4381  0.5492
 4307ntf    on525720   1.052   5.071   0.113  0.2916 -0.3024  0.1702
 4307ntf    on525721   1.054   4.862   0.311  0.2466 -0.0205  0.0912
 4307ntf    on525722   0.838   4.814   0.402  0.7680 -0.0824  0.4495
 4307ntf    fn425723   0.996   5.158   0.389 -0.6626  0.1276 -0.1571
 4307ntf    fn425724   0.816   5.107   0.478  0.4433  0.6467  0.8258
 4307ntf    fn425725   0.998   5.021   0.554  0.5435 -0.9291 -0.3892
 4308ntf    cn125726   6.140   4.949   1.118 -0.3106  0.0262 -0.4132
 4308ntf    sn225727   6.108   4.775   1.074 -0.0073 -0.1701  0.1312
 4308ntf    nn325728   6.040   4.805   0.936  0.2278  0.6564  0.1867
 4308ntf    sn225729   6.087   4.782   0.788 -0.3309 -0.3651  0.1601
 4308ntf    cn125730   6.031   4.942   0.722  0.3868 -0.4131 -0.5878
 4308ntf    fn425731   6.261   4.995   1.090 -0.3349  0.2111 -0.2144
 4308ntf    fn425732   6.059   5.022   1.044 -0.2584  0.1115 -0.3854
 4308ntf    fn425733   6.117   4.971   1.246  0.6505  0.1233 -0.2487
 4308ntf    on525734   6.232   4.702   1.064  0.2627  0.3345 -0.2810
 4308ntf    on525735   6.017   4.727   1.175  0.4182 -0.5676  0.3297
 4308ntf    on525736   6.011   4.682   0.716 -0.2377 -0.2070 -0.1588
 4308ntf    on525737   6.228   4.786   0.760 -0.2621  0.0956  0.5670
 4308ntf    fn425738   6.037   4.945   0.590  0.2190  0.6929 -0.5759
 4308ntf    fn425739   5.903   4.963   0.751  0.4261  0.2511 -0.8876
 4308ntf    fn425740   6.092   5.047   0.773 -1.0956  0.2305 -0.0725
 4309ntf    cn125741   0.619   0.699   4.486  0.0750  0.0236 -0.4099
 4309ntf    sn225742   0.725   0.674   4.632 -0.0755  0.1652 -0.2757
 4309ntf    nn325743   0.865   0.659   4.563  0.1734 -0.0900  0.2807
 4309ntf    sn225744   0.950   0.528   4.547 -0.0974 -0.2165 -0.1258
 4309ntf    cn125745   1.005   0.511   4.719 -0.1042  0.2257 -0.0785
 4309ntf    fn425746   0.670   0.801   4.420  0.2579 -0.4873 -1.0727
 4309ntf    fn425747   0.612   0.593   4.407  0.1396  0.1702 -0.6138
 4309ntf    fn425748   0.497   0.723   4.529  0.3522  0.4025  0.1768
 4309ntf    on525749   0.729   0.800   4.702  0.5237 -0.1053  0.1857
 4309ntf    on525750   0.667   0.560   4.699  0.4307 -0.2268 -0.4959
 4309ntf    on525751   1.071   0.537   4.468 -0.2399 -0.3600 -0.3628
 4309ntf    on525752   0.868   0.413   4.516  0.0265 -0.0741 -1.0258
 4309ntf    fn425753   1.122   0.566   4.743  0.4947 -0.7645 -0.6495
 4309ntf    fn425754   0.918   0.560   4.807  0.3415  0.1891  0.3876
 4309ntf    fn425755   1.026   0.383   4.747  0.9966  0.4157 -0.0075
 4310ntf    cn125756   3.667   0.855   3.796 -0.0752 -0.0834 -0.0181
 4310ntf    sn225757   3.708   0.812   3.968 -0.0898  0.0573  0.0204
 4310ntf    nn325758   3.795   0.682   3.952 -0.1225 -0.0047  0.3353
 4310ntf    sn225759   3.897   0.606   4.044  0.0220  0.1408  0.2961
 4310ntf    cn125760   4.055   0.642   3.963 -0.1951  0.1211 -0.1426
 4310ntf    fn425761   3.583   0.759   3.762 -0.6921  0.5301 -0.2469
 4310ntf    fn425762   3.606   0.972   3.786 -0.5976 -0.3665 -0.1786
 4310ntf    fn425763   3.772   0.842   3.717 -0.1583 -0.1362 -0.1195
 4310ntf    on525764   3.791   0.919   4.017 -0.0969  0.3136 -0.5168
 4310ntf    on525765   3.580   0.788   4.032 -0.0577 -0.4634 -0.1086
 4310ntf    on525766   3.897   0.462   4.033 -0.7900  0.2081 -0.7782
 4310ntf    on525767   3.911   0.663   4.176  0.0089  0.2803  0.2380
 4310ntf    fn425768   4.069   0.596   3.839  0.4232  0.1329 -0.0819
 4310ntf    fn425769   4.097   0.767   3.960 -0.3477  0.1807  0.2075
 4310ntf    fn425770   4.145   0.576   4.035 -0.0973  0.7180  0.2919
 4311ntf    cn125771   4.423   1.066   1.836  0.0124  0.3434  0.2051
 4311ntf    sn225772   4.598   1.088   1.790  0.0486  0.1001  0.2298
 4311ntf    nn325773   4.598   1.244   1.783 -0.1520  0.0750 -0.3873
 4311ntf    sn225774   4.690   1.348   1.710  0.0400  0.0927 -0.1233
 4311ntf    cn125775   4.597   1.398   1.562 -0.1057 -0.2468 -0.1485
 4311ntf    fn425776   4.373   1.171   1.900 -0.0283  1.0469 -0.9490
 4311ntf    fn425777   4.352   1.047   1.726 -0.2898  0.1907  0.4244
 4311ntf    fn425778   4.397   0.960   1.910 -0.0282 -0.1439 -0.4917
 4311ntf    on525779   4.671   1.042   1.906  0.2547 -0.1291  0.0100
 4311ntf    on525780   4.613   1.024   1.662  1.0198  0.8210 -0.0167
 4311ntf    on525781   4.801   1.281   1.647 -0.0665  0.0094 -0.2233
 4311ntf    on525782   4.723   1.470   1.778  0.3377  0.1769 -0.4137
 4311ntf    fn425783   4.670   1.475   1.483 -0.1169 -0.6431 -0.5496
 4311ntf    fn425784   4.562   1.297   1.484  0.5969 -0.1135 -0.6499
 4311ntf    fn425785   4.484   1.463   1.587  0.1583  0.0121  0.3984
 4312ntf    cn125786   1.800   4.817   3.619  0.0823 -0.1247 -0.4547
 4312ntf    sn225787   1.932   4.924   3.553 -0.2699  0.3456 -0.4049
 4312ntf    nn325788   1.876   4.968   3.414 -0.2897  0.0275 -0.4998
 4312ntf    sn225789   1.768   5.081   3.395 -0.0517  0.3393 -0.0243
 4312ntf    cn125790   1.875   5.221   3.349  0.3782  0.1513  0.4049
 4312ntf    fn425791   1.845   4.766   3.732  0.5938 -0.2423 -0.7092
 4312ntf    fn425792   1.685   4.882   3.629  0.3714  0.3958 -0.5007
 4312ntf    fn425793   1.770   4.717   3.537 -0.0235 -0.2232 -0.2947
 4312ntf    on525794   1.950   5.034   3.644  0.7905 -0.1963  0.0549
 4312ntf    on525795   2.046   4.837   3.537 -0.3200  0.4997 -1.7123
 4312ntf    on525796   1.692   5.120   3.511  0.0509 -0.1826  0.2204
 4312ntf    on525797   1.687   5.058   3.277 -0.1179  0.0903  0.0696
 4312ntf    fn425798   1.974   5.196   3.265  0.4234 -0.1065  0.5322
 4312ntf    fn425799   1.808   5.320   3.293  0.0237 -0.4540 -0.2551
 4312ntf    fn425800   1.935   5.282   3.450  0.8633 -0.0529  0.2411
 4313ntf    cn125801   0.662   3.150   4.892  0.0076  0.3958  0.0071
 4313ntf    sn225802   0.802   3.105   4.999 -0.1315  0.0638  0.0540
 4313ntf    nn325803   0.732   3.041   5.124  0.2132  0.0239  0.2277
 4313ntf    sn225804   0.668   3.115   5.247 -0.2992 -0.0950  0.0375
 4313ntf    cn125805   0.807   3.117   5.365 -0.0272 -0.7902 -0.2636
 4313ntf    fn425806   0.706   3.213   4.785 -0.6200  0.7616 -0.0426
 4313ntf    fn425807   0.594   3.044   4.850 -0.0756  0.3032  0.3662
 4313ntf    fn425808   0.579   3.236   4.950 -0.0624  0.3481 -0.0214
 4313ntf    on525809   0.883   3.007   4.933 -0.0404 -0.0176  0.2856
 4313ntf    on525810   0.863   3.232   5.030 -0.8150  0.3546  0.2409
 4313ntf    on525811   0.565   3.032   5.304  0.1351 -0.6006  0.1047
 4313ntf    on525812   0.638   3.253   5.219 -0.0245 -0.0600 -0.0892
 4313ntf    fn425813   0.889   3.220   5.353 -0.3315 -0.5246 -0.0688
 4313ntf    fn425814   0.766   3.116   5.491  0.1313 -0.3111 -0.2060
 4313ntf    fn425815   0.886   3.011   5.365  0.7414 -0.2265  0.3858
 4314ntf    cn125816   4.022   3.475   0.084 -0.4690 -0.0278  0.2975
 4314ntf    sn225817   3.849   3.515   0.045 -0.2877  0.3168 -0.1509
 4314ntf    nn325818   3.860   3.572  -0.102  0.3652  0.2268 -0.1431
 4314ntf    sn225819   3.771   3.516  -0.219  0.2112 -0.1178  0.1352
 4314ntf    cn125820   3.879   3.591  -0.345  0.3573 -0.1261  0.2551
 4314ntf    fn425821   4.108   3.573   0.061 -0.3678 -0.2196 -0.1405
 4314ntf    fn425822   4.030   3.447   0.213 -0.3067 -0.0726  0.2789
 4314ntf    fn425823   4.063   3.370   0.016 -0.0345  0.0497  0.4361
 4314ntf    on525824   3.788   3.386   0.065 -0.0541  0.1465 -0.5099
 4314ntf    on525825   3.815   3.622   0.135 -0.9414  0.0019 -0.0203
 4314ntf    on525826   3.644   3.582  -0.235  0.3105 -0.1336 -0.7427
 4314ntf    on525827   3.774   3.374  -0.244  1.0717 -0.0554 -0.1653
 4314ntf    fn425828   4.005   3.550  -0.342  0.6502  0.7623  0.4067
 4314ntf    fn425829   3.834   3.563  -0.466  0.3863 -0.6322  0.3580
 4314ntf    fn425830   3.883   3.722  -0.327 -0.4220 -0.1189  0.4245
 4315ntf    cn125831   6.338   3.158   5.141  0.1776 -0.4276 -0.1617
 4315ntf    sn225832   6.224   3.206   5.275 -0.0147 -0.6583 -0.2417
 4315ntf    nn325833   6.289   3.164   5.412  0.0034  0.3082  0.0542
 4315ntf    sn225834   6.246   3.212   5.555 -0.6903 -0.1631  0.0098
 4315ntf    cn125835   6.123   3.087   5.604 -0.0043 -0.7110  0.3449
 4315ntf    fn425836   6.317   3.035   5.095 -0.6890 -0.3189 -0.0720
 4315ntf    fn425837   6.337   3.233   5.033 -0.0157 -0.4753 -0.1940
 4315ntf    fn425838   6.461   3.160   5.190 -0.0773  0.2358  0.4674
 4315ntf    on525839   6.217   3.350   5.265  0.1635 -0.6054  0.3658
 4315ntf    on525840   6.108   3.125   5.248 -0.3126 -0.4100  0.2934
 4315ntf    on525841   6.186   3.343   5.566 -0.3360  0.0118 -0.1310
 4315ntf    on525842   6.349   3.195   5.654 -0.3059 -0.2058 -0.3918
 4315ntf    fn425843   6.156   2.969   5.555  0.3963 -0.2112 -0.6143
 4315ntf    fn425844   6.115   3.073   5.735  0.1122 -0.6554  0.3592
 4315ntf    fn425845   6.006   3.126   5.558  0.0392 -0.7817  0.1738
 4316ntf    cn125846   3.117   5.170   5.531 -0.1964 -0.3271  0.0611
 4316ntf    sn225847   3.071   5.288   5.400 -0.2326 -0.2829  0.1129
 4316ntf    nn325848   2.915   5.285   5.391 -0.2691  0.0162  0.6076
 4316ntf    sn225849   2.817   5.401   5.350  0.0856 -0.0034 -0.3278
 4316ntf    cn125850   2.730   5.385   5.509  0.3227  0.0841 -0.1895
 4316ntf    fn425851   3.166   5.056   5.485 -0.0826 -0.2312 -0.0575
 4316ntf    fn425852   3.200   5.219   5.622 -0.0705  0.1532 -0.3038
 4316ntf    fn425853   3.009   5.129   5.595 -0.3376 -0.3227 -0.1736
 4316ntf    on525854   3.137   5.411   5.435 -0.0299 -0.4101  0.1826
 4316ntf    on525855   3.133   5.228   5.284  0.2398 -0.3915  0.4178
 4316ntf    on525856   2.726   5.362   5.245 -0.0348 -0.1181 -0.1823
 4316ntf    on525857   2.872   5.534   5.347 -0.7756  0.3586 -0.1932
 4316ntf    fn425858   2.634   5.294   5.502  0.2943  0.0387  0.6296
 4316ntf    fn425859   2.808   5.348   5.610  0.0376  0.0644  0.0250
 4316ntf    fn425860   2.668   5.495   5.547  0.0406 -0.0318 -0.3101
 4317ntf    cn125861   0.886   3.959   4.621  0.4388  0.6433  0.2973
 4317ntf    sn225862   0.996   3.830   4.687 -0.0831 -0.0165 -0.1041
 4317ntf    nn325863   0.897   3.711   4.710  0.1481 -0.0770  0.6275
 4317ntf    sn225864   0.900   3.556   4.687  0.3260  0.0305 -0.0894
 4317ntf    cn125865   0.822   3.542   4.523  0.2127  0.0718 -0.0397
 4317ntf    fn425866   0.814   3.918   4.518  0.0406  0.1336  0.7736
 4317ntf    fn425867   0.792   3.990   4.710 -0.1569  0.3919 -0.2386
 4317ntf    fn425868   0.943   4.073   4.584 -0.0776  0.7964 -0.0277
 4317ntf    on525869   1.090   3.820   4.578  0.3906  0.4194  0.2548
 4317ntf    on525870   1.045   3.888   4.810 -0.0275  0.1127 -0.1875
 4317ntf    on525871   0.807   3.497   4.780  0.0206 -0.3287 -0.6097
 4317ntf    on525872   1.031   3.497   4.680  0.5031  0.3238  0.7520
 4317ntf    fn425873   0.798   3.417   4.487 -0.3805  0.0951  0.2620
 4317ntf    fn425874   0.701   3.593   4.515 -0.1057 -0.7149 -0.3734
 4317ntf    fn425875   0.904   3.607   4.442  0.2400 -0.0438 -0.1053
 4318ntf    cn125876   6.277   5.769   5.842 -0.1620  0.0652  0.4347
 4318ntf    sn225877   6.177   5.684   5.969 -0.2772  0.0106  0.3082
 4318ntf    nn325878   6.048   5.773   5.965 -0.0440  0.3389 -0.1924
 4318ntf    sn225879   5.901   5.753   5.913 -0.0064  0.0613 -0.1931
 4318ntf    cn125880   5.859   5.918   5.851 -0.0152  0.1107 -0.0569
 4318ntf    fn425881   6.275   5.900   5.859 -0.4452  0.1088  0.0733
 4318ntf    fn425882   6.404   5.734   5.836 -0.3260 -0.4367 -0.2844
 4318ntf    fn425883   6.233   5.742   5.720 -0.7420  0.3464  0.5750
 4318ntf    on525884   6.161   5.557   5.903 -0.2453  0.4498 -0.5605
 4318ntf    on525885   6.254   5.694   6.090  0.1752 -0.2388  0.0466
 4318ntf    on525886   5.801   5.735   6.015  0.1298 -0.0487 -0.0777
 4318ntf    on525887   5.896   5.663   5.801  0.4482  0.1786 -0.3095
 4318ntf    fn425888   5.921   6.022   5.905  0.1073  0.1516 -0.2768
 4318ntf    fn425889   5.884   5.920   5.722  0.3860 -0.5398  0.0107
 4318ntf    fn425890   5.729   5.945   5.861 -0.1865 -0.9173  0.7050
 4319ntf    cn125891   4.311   5.552   0.799 -0.6200 -0.1318 -0.1574
 4319ntf    sn225892   4.448   5.449   0.738 -0.3562  0.0288  0.1603
 4319ntf    nn325893   4.359   5.359   0.645 -0.0858 -0.5162  0.4275
 4319ntf    sn225894   4.408   5.238   0.558 -0.0000  0.0206 -0.2772
 4319ntf    cn125895   4.282   5.262   0.429 -0.3836 -0.0284  0.0843
 4319ntf    fn425896   4.351   5.659   0.866  0.3576 -0.3547 -0.3613
 4319ntf    fn425897   4.238   5.598   0.699 -0.1476  0.1029 -0.3990
 4319ntf    fn425898   4.230   5.485   0.879  0.0833 -0.3569  0.3771
 4319ntf    on525899   4.533   5.541   0.667  0.0352 -0.4965 -0.0600
 4319ntf    on525900   4.488   5.382   0.859 -0.5997 -0.4201 -0.0063
 4319ntf    on525901   4.381   5.108   0.615  0.5847 -0.2510 -0.6106
 4319ntf    on525902   4.534   5.253   0.490 -0.2047  0.4117 -0.5746
 4319ntf    fn425903   4.234   5.144   0.393  0.3203 -0.4329  0.4491
 4319ntf    fn425904   4.177   5.331   0.468 -0.4868  0.1972 -0.5841
 4319ntf    fn425905   4.321   5.319   0.316 -0.5088  0.1816  0.1458
 4320ntf    cn125906   1.291   6.644   5.287  0.1749 -0.1554  0.3077
 4320ntf    sn225907   1.382   6.641   5.444 -0.0314  0.2601  0.4339
 4320ntf    nn325908   1.338   6.498   5.491 -0.0895  0.0250 -0.3214
 4320ntf    sn225909   1.412   6.361   5.473 -0.2124 -0.0928  0.0662
 4320ntf    cn125910   1.504   6.352   5.630  0.0568 -0.3990 -0.1064
 4320ntf    fn425911   1.323   6.541   5.210 -0.2913  0.0141 -0.1198
 4320ntf    fn425912   1.161   6.636   5.308  0.1303  0.2239  0.1906
 4320ntf    fn425913   1.309   6.750   5.209 -0.1598 -0.2603  0.0818
 4320ntf    on525914   1.521   6.661   5.413  0.0326 -0.2033  0.4310
 4320ntf    on525915   1.324   6.738   5.534 -0.2596  0.7323 -0.2144
 4320ntf    on525916   1.513   6.353   5.371  0.0098 -0.0914  0.2833
 4320ntf    on525917   1.319   6.250   5.475  0.0677 -0.3362 -0.2455
 4320ntf    fn425918   1.426   6.324   5.733  0.5252  0.1316  0.4005
 4320ntf    fn425919   1.607   6.270   5.629  0.3253 -0.0721  0.2056
 4320ntf    fn425920   1.556   6.472   5.654  0.2686 -0.4777 -0.1732
   7.36445   7.36445   7.36445
